Protein in INSANE! Membrane UpperLeaflet>POPC=1.0 LowerLeaflet>POPC=1.0
11530
    1AU     AUC    1   5.260   5.286   6.004
    1AU     AUC    2   5.554   5.322   5.840
    1AU     AUC    3   5.533   5.317   6.174
    1AU     AUC    4   4.969   5.274   5.836
    1AU     AUC    5   5.000   5.271   6.191
    1AU     AUC    6   5.061   5.528   6.033
    1AU     AUC    7   5.401   5.563   6.006
    1AU     AUC    8   5.095   5.000   5.989
    1AU     AUC    9   5.462   5.051   6.010
    1AU     AUC   10   5.310   5.116   6.272
    1AU     AUC   11   5.246   5.450   6.289
    1AU     AUC   12   5.282   5.131   5.729
    1AU     AUC   13   5.256   5.459   5.733
    1AU     AUC   14   5.873   5.333   5.691
    1AU     AUC   15   5.908   5.348   6.002
    1AU     AUC   16   5.847   5.336   6.373
    1AU     AUC   17   4.672   5.262   5.671
    1AU     AUC   18   4.647   5.254   6.038
    1AU     AUC   19   4.701   5.227   6.387
    1AU     AUC   20   4.875   5.828   6.036
    1AU     AUC   21   5.223   5.899   5.987
    1AU     AUC   22   5.544   5.885   5.998
    1AU     AUC   23   4.928   4.700   5.959
    1AU     AUC   24   5.278   4.697   5.985
    1AU     AUC   25   5.645   4.747   5.980
    1AU     AUC   26   5.337   4.907   6.555
    1AU     AUC   27   5.277   5.229   6.607
    1AU     AUC   28   5.259   5.613   6.572
    1AU     AUC   29   5.300   4.941   5.428
    1AU     AUC   30   5.273   5.288   5.427
    1AU     AUC   31   5.262   5.643   5.445
    1AU     AUC   32   5.609   5.085   6.483
    1AU     AUC   33   5.568   5.454   6.516
    1AU     AUC   34   5.587   5.099   5.540
    1AU     AUC   35   5.601   5.474   5.528
    1AU     AUC   36   4.987   5.052   6.498
    1AU     AUC   37   4.980   5.417   6.513
    1AU     AUC   38   4.957   5.131   5.517
    1AU     AUC   39   4.933   5.469   5.522
    1AU     AUC   40   5.752   5.622   5.845
    1AU     AUC   41   5.704   5.605   6.205
    1AU     AUC   42   4.762   5.551   5.846
    1AU     AUC   43   4.760   5.555   6.233
    1AU     AUC   44   5.775   5.025   5.845
    1AU     AUC   45   5.785   5.039   6.147
    1AU     AUC   46   4.749   4.973   5.811
    1AU     AUC   47   4.793   4.953   6.148
    1AU     AUC   48   5.054   5.768   6.307
    1AU     AUC   49   5.393   5.777   6.301
    1AU     AUC   50   5.127   4.792   6.253
    1AU     AUC   51   5.498   4.791   6.282
    1AU     AUC   52   5.040   5.724   5.695
    1AU     AUC   53   5.446   5.762   5.679
    1AU     AUC   54   5.046   4.821   5.675
    1AU     AUC   55   5.444   4.815   5.692
    1AU    AUSL   56   5.874   5.246   6.749
    1AU    AUSL   57   5.759   4.756   6.651
    1AU     AUL   58   6.045   4.856   6.830
    1AU       S   59   6.081   4.506   6.508
    1AU     LIG   60   6.018   4.269   6.880
    1AU     LIG   61   6.081   3.826   7.037
    1AU       S   62   6.123   5.310   6.882
    1AU     LIG   63   6.048   5.376   7.326
    1AU     LIG   64   6.108   5.091   7.689
    1AU    AUSL   65   5.474   5.047   6.794
    1AU    AUSL   66   5.132   5.345   6.879
    1AU     AUL   67   5.327   5.232   7.135
    1AU       S   68   5.740   5.019   7.135
    1AU     LIG   69   5.603   5.111   7.553
    1AU     LIG   70   5.682   5.026   8.004
    1AU       S   71   4.618   5.106   7.200
    1AU     LIG   72   4.736   5.392   7.551
    1AU     LIG   73   4.660   5.428   8.018
    1AU    AUSL   74   5.478   5.472   6.681
    1AU    AUSL   75   5.882   5.666   6.631
    1AU     AUL   76   5.702   5.492   6.968
    1AU       S   77   5.301   5.724   7.115
    1AU     LIG   78   5.598   5.619   7.436
    1AU     LIG   79   5.831   5.507   7.813
    1AU       S   80   6.008   5.826   6.821
    1AU     LIG   81   6.436   5.795   6.882
    1AU     LIG   82   6.850   5.965   7.010
    1AU    AUSL   83   5.866   5.323   5.276
    1AU    AUSL   84   5.690   5.826   5.310
    1AU     AUL   85   5.804   5.617   5.022
    1AU       S   86   5.840   5.180   4.836
    1AU     LIG   87   6.059   5.196   4.427
    1AU     LIG   88   6.185   5.061   3.991
    1AU       S   89   6.062   5.921   5.265
    1AU     LIG   90   5.957   6.255   5.054
    1AU     LIG   91   6.060   6.594   4.756
    1AU    AUSL   92   5.523   5.051   5.234
    1AU    AUSL   93   5.814   5.031   5.603
    1AU     AUL   94   5.959   5.018   5.249
    1AU       S   95   6.127   4.391   5.367
    1AU     LIG   96   6.439   4.179   5.074
    1AU     LIG   97   6.581   4.176   4.606
    1AU       S   98   5.566   4.891   4.965
    1AU     LIG   99   5.417   4.751   4.514
    1AU     LIG  100   5.712   4.855   4.148
    1AU    AUSL  101   5.451   5.471   5.310
    1AU    AUSL  102   5.129   5.115   5.095
    1AU     AUL  103   5.403   5.340   4.971
    1AU       S  104   4.967   5.185   4.799
    1AU     LIG  105   5.037   5.086   4.343
    1AU     LIG  106   4.631   4.989   4.125
    1AU       S  107   5.763   4.953   4.786
    1AU     LIG  108   5.539   5.242   4.453
    1AU     LIG  109   5.742   5.379   4.044
    1AU    AUSL  110   4.772   5.188   6.702
    1AU    AUSL  111   5.012   5.713   6.700
    1AU     AUL  112   4.885   5.496   6.990
    1AU       S  113   4.540   5.186   6.910
    1AU     LIG  114   4.358   5.529   7.210
    1AU     LIG  115   4.238   5.445   7.687
    1AU       S  116   4.641   5.884   6.854
    1AU     LIG  117   4.427   6.199   7.073
    1AU     LIG  118   4.217   6.424   7.426
    1AU    AUSL  119   5.078   4.904   6.887
    1AU    AUSL  120   4.592   4.822   6.565
    1AU     AUL  121   4.751   4.768   6.847
    1AU       S  122   4.373   4.530   6.664
    1AU     LIG  123   3.975   4.316   6.834
    1AU     LIG  124   3.684   4.289   7.221
    1AU       S  125   4.875   5.055   7.185
    1AU     LIG  126   5.071   5.005   7.565
    1AU     LIG  127   4.801   4.938   7.927
    1AU    AUSL  128   4.724   5.212   5.233
    1AU    AUSL  129   5.003   4.911   5.451
    1AU     AUL  130   4.883   4.848   5.130
    1AU       S  131   4.569   5.137   4.917
    1AU     LIG  132   4.230   5.131   4.575
    1AU     LIG  133   4.175   5.296   4.140
    1AU       S  134   4.398   4.704   5.121
    1AU     LIG  135   4.476   4.243   5.013
    1AU     LIG  136   4.295   3.802   4.954
    1AU    AUSL  137   5.038   5.517   5.255
    1AU    AUSL  138   4.617   5.554   5.474
    1AU     AUL  139   4.748   5.542   5.069
    1AU       S  140   4.383   5.733   5.299
    1AU     LIG  141   4.102   6.081   5.150
    1AU     LIG  142   4.041   6.253   4.710
    1AU       S  143   4.710   5.033   4.709
    1AU     LIG  144   4.643   5.406   4.448
    1AU     LIG  145   4.638   5.480   3.992
    1AU    AUSL  146   5.933   5.923   6.025
    1AU    AUSL  147   5.917   5.599   5.604
    1AU     AUL  148   6.073   6.003   5.733
    1AU       S  149   6.174   5.645   5.423
    1AU     LIG  150   6.288   5.550   4.981
    1AU     LIG  151   6.321   5.975   4.794
    1AU       S  152   6.464   5.907   6.369
    1AU     LIG  153   6.644   6.264   6.091
    1AU     LIG  154   6.936   6.324   5.738
    1AU    AUSL  155   6.211   5.582   5.909
    1AU    AUSL  156   6.230   5.209   6.191
    1AU     AUL  157   6.526   5.404   6.030
    1AU       S  158   6.383   5.832   6.125
    1AU     LIG  159   6.683   5.840   5.797
    1AU     LIG  160   7.106   5.722   5.637
    1AU       S  161   6.528   4.932   6.058
    1AU     LIG  162   6.690   4.747   6.439
    1AU     LIG  163   7.115   4.533   6.499
    1AU    AUSL  164   5.949   5.525   6.242
    1AU    AUSL  165   5.624   5.828   6.305
    1AU     AUL  166   5.970   5.942   6.365
    1AU       S  167   5.961   6.126   6.843
    1AU     LIG  168   6.353   6.275   6.702
    1AU     LIG  169   6.717   6.451   6.923
    1AU       S  170   6.316   5.623   6.412
    1AU     LIG  171   6.831   5.576   6.409
    1AU     LIG  172   7.326   5.685   6.443
    1AU    AUSL  173   4.554   5.755   6.108
    1AU    AUSL  174   4.654   5.546   6.499
    1AU     AUL  175   4.306   5.835   6.353
    1AU       S  176   4.525   5.635   6.716
    1AU     LIG  177   4.129   5.832   6.832
    1AU     LIG  178   3.947   6.037   7.196
    1AU       S  179   4.489   6.186   6.087
    1AU     LIG  180   4.085   6.146   5.903
    1AU     LIG  181   3.896   6.366   5.558
    1AU    AUSL  182   4.500   5.413   5.852
    1AU    AUSL  183   4.642   5.923   5.730
    1AU     AUL  184   4.349   5.739   5.775
    1AU       S  185   4.188   5.337   5.527
    1AU     LIG  186   3.903   5.772   5.551
    1AU     LIG  187   3.478   6.044   5.517
    1AU       S  188   4.448   6.156   5.548
    1AU     LIG  189   4.362   6.514   5.302
    1AU     LIG  190   3.978   6.612   5.083
    1AU    AUSL  191   4.331   5.386   6.268
    1AU    AUSL  192   4.305   5.041   5.916
    1AU     AUL  193   4.133   5.376   5.995
    1AU       S  194   4.085   4.940   6.176
    1AU     LIG  195   3.786   4.919   5.833
    1AU     LIG  196   3.453   4.694   5.581
    1AU       S  197   4.158   5.398   6.506
    1AU     LIG  198   3.796   5.711   6.439
    1AU     LIG  199   3.355   5.961   6.425
    1AU    AUSL  200   6.033   4.872   6.002
    1AU    AUSL  201   5.854   5.076   6.365
    1AU     AUL  202   6.184   4.955   6.390
    1AU       S  203   6.383   4.773   5.995
    1AU     LIG  204   6.421   4.383   5.868
    1AU     LIG  205   6.763   4.138   5.712
    1AU       S  206   6.274   4.464   6.348
    1AU     LIG  207   6.506   4.366   6.745
    1AU     LIG  208   6.494   4.171   7.167
    1AU    AUSL  209   6.181   5.189   5.730
    1AU    AUSL  210   5.839   4.574   5.769
    1AU     AUL  211   6.109   4.804   5.627
    1AU       S  212   6.501   5.009   5.770
    1AU     LIG  213   6.752   4.657   5.576
    1AU     LIG  214   7.195   4.414   5.640
    1AU       S  215   5.979   4.350   5.656
    1AU     LIG  216   6.054   3.937   5.532
    1AU     LIG  217   6.172   3.736   5.142
    1AU    AUSL  218   4.654   4.752   5.938
    1AU    AUSL  219   4.585   5.037   5.590
    1AU     AUL  220   4.308   4.752   5.773
    1AU       S  221   4.374   4.914   5.336
    1AU     LIG  222   3.966   4.690   5.397
    1AU     LIG  223   3.832   4.359   5.096
    1AU       S  224   3.989   4.707   6.269
    1AU     LIG  225   3.938   4.432   5.911
    1AU     LIG  226   3.687   4.237   5.580
    1AU    AUSL  227   4.606   5.070   6.231
    1AU    AUSL  228   4.762   4.535   6.287
    1AU     AUL  229   4.467   4.652   6.214
    1AU       S  230   4.579   4.301   6.499
    1AU     LIG  231   4.188   4.125   6.399
    1AU     LIG  232   3.965   3.797   6.654
    1AU       S  233   4.153   4.945   6.384
    1AU     LIG  234   3.707   4.990   6.558
    1AU     LIG  235   3.267   4.896   6.436
    1AU    AUSL  236   5.223   5.984   6.436
    1AU    AUSL  237   4.787   5.953   6.406
    1AU     AUL  238   5.063   6.076   6.719
    1AU       S  239   4.628   6.109   6.561
    1AU     LIG  240   4.224   6.290   6.602
    1AU     LIG  241   4.018   6.509   6.944
    1AU       S  242   5.214   6.460   6.436
    1AU     LIG  243   5.407   6.810   6.702
    1AU     LIG  244   5.375   7.276   6.802
    1AU    AUSL  245   4.998   6.185   6.112
    1AU    AUSL  246   5.358   6.217   5.728
    1AU     AUL  247   5.083   6.455   5.889
    1AU       S  248   5.365   6.683   6.218
    1AU     LIG  249   5.193   7.089   6.327
    1AU     LIG  250   4.863   7.145   6.630
    1AU       S  251   5.283   6.418   5.434
    1AU     LIG  252   5.404   6.799   5.681
    1AU     LIG  253   5.703   7.179   5.602
    1AU    AUSL  254   5.474   6.180   6.135
    1AU    AUSL  255   5.510   5.887   6.734
    1AU     AUL  256   5.569   6.153   6.516
    1AU       S  257   5.704   5.983   6.960
    1AU     LIG  258   6.025   5.913   7.303
    1AU     LIG  259   6.406   6.177   7.239
    1AU       S  260   5.494   6.438   6.151
    1AU     LIG  261   5.834   6.697   6.379
    1AU     LIG  262   5.777   7.148   6.498
    1AU    AUSL  263   5.373   4.592   6.549
    1AU    AUSL  264   5.713   4.687   6.228
    1AU     AUL  265   5.628   4.403   6.544
    1AU       S  266   4.978   3.994   6.560
    1AU     LIG  267   4.979   3.625   6.823
    1AU     LIG  268   5.157   3.201   6.990
    1AU       S  269   6.002   4.456   6.242
    1AU     LIG  270   6.206   4.006   6.479
    1AU     LIG  271   6.516   3.833   6.783
    1AU    AUSL  272   5.164   4.490   6.183
    1AU    AUSL  273   5.036   4.836   6.473
    1AU     AUL  274   5.030   4.478   6.573
    1AU       S  275   4.983   4.090   6.287
    1AU     LIG  276   5.005   3.585   6.295
    1AU     LIG  277   4.882   3.217   6.549
    1AU       S  278   4.575   4.307   6.741
    1AU     LIG  279   4.358   3.975   6.938
    1AU     LIG  280   4.119   4.016   7.339
    1AU    AUSL  281   5.550   4.336   6.067
    1AU    AUSL  282   5.022   4.474   5.784
    1AU     AUL  283   5.254   4.207   5.926
    1AU       S  284   4.771   4.238   5.850
    1AU     LIG  285   4.684   3.751   5.947
    1AU     LIG  286   4.796   3.493   5.556
    1AU       S  287   5.255   4.060   6.420
    1AU     LIG  288   5.496   3.724   6.292
    1AU     LIG  289   5.406   3.371   6.564
    1AU    AUSL  290   5.287   5.902   5.433
    1AU    AUSL  291   5.612   5.874   5.753
    1AU     AUL  292   5.657   6.136   5.501
    1AU       S  293   5.280   6.114   5.205
    1AU     LIG  294   5.528   6.518   5.026
    1AU     LIG  295   5.419   6.946   5.189
    1AU       S  296   6.368   5.856   5.367
    1AU     LIG  297   6.335   6.326   5.419
    1AU     LIG  298   6.386   6.700   5.149
    1AU    AUSL  299   5.057   5.902   5.810
    1AU    AUSL  300   4.873   5.892   5.364
    1AU     AUL  301   4.920   6.143   5.572
    1AU       S  302   5.077   6.350   5.166
    1AU     LIG  303   4.870   6.695   5.424
    1AU     LIG  304   5.007   7.140   5.512
    1AU       S  305   4.596   5.993   5.245
    1AU     LIG  306   4.541   6.254   4.896
    1AU     LIG  307   4.368   6.659   4.746
    1AU    AUSL  308   5.246   4.570   5.409
    1AU    AUSL  309   4.701   4.613   5.538
    1AU     AUL  310   4.965   4.456   5.394
    1AU       S  311   4.500   4.608   5.358
    1AU     LIG  312   4.199   4.243   5.435
    1AU     LIG  313   3.908   3.875   5.277
    1AU       S  314   4.668   4.110   5.582
    1AU     LIG  315   4.742   3.836   5.189
    1AU     LIG  316   4.892   3.442   4.985
    1AU    AUSL  317   5.427   4.660   5.812
    1AU    AUSL  318   5.653   4.683   5.395
    1AU     AUL  319   5.518   4.374   5.567
    1AU       S  320   4.925   4.013   5.619
    1AU     LIG  321   5.200   3.669   5.792
    1AU     LIG  322   5.241   3.252   5.540
    1AU       S  323   5.874   4.525   5.278
    1AU     LIG  324   5.952   4.214   4.916
    1AU     LIG  325   6.165   3.877   4.639
    2POPC   NC3  326   3.325   8.718   8.015
    2POPC   PO4  327   3.910   8.411   8.216
    2POPC   GL1  328   3.798   8.739   7.776
    2POPC   GL2  329   3.436   8.833   7.559
    2POPC   C1A  330   3.821   8.744   7.285
    2POPC   D2A  331   3.764   8.481   6.937
    2POPC   C3A  332   3.501   8.424   6.579
    2POPC   C4A  333   3.562   8.599   6.209
    2POPC   C1B  334   3.240   8.654   7.235
    2POPC   C2B  335   3.290   8.769   6.880
    2POPC   C3B  336   3.152   8.781   6.506
    2POPC   C4B  337   3.177   8.923   6.104
    3POPC   NC3  338   1.154   5.015   8.128
    3POPC   PO4  339   0.566   4.629   8.174
    3POPC   GL1  340   0.874   4.780   7.756
    3POPC   GL2  341   1.076   5.088   7.652
    3POPC   C1A  342   1.126   4.684   7.361
    3POPC   D2A  343   0.970   4.828   6.947
    3POPC   C3A  344   1.068   4.620   6.553
    3POPC   C4A  345   1.123   4.809   6.127
    3POPC   C1B  346   1.348   5.165   7.330
    3POPC   C2B  347   1.462   5.039   6.939
    3POPC   C3B  348   1.286   5.064   6.568
    3POPC   C4B  349   1.420   5.207   6.209
    4POPC   NC3  350   9.293   1.824   8.100
    4POPC   PO4  351   8.848   2.249   7.893
    4POPC   GL1  352   9.162   2.016   7.626
    4POPC   GL2  353   9.496   1.820   7.646
    4POPC   C1A  354   9.238   2.084   7.210
    4POPC   D2A  355   9.261   1.887   6.824
    4POPC   C3A  356   9.481   2.061   6.499
    4POPC   C4A  357   9.652   2.260   6.143
    4POPC   C1B  358   9.466   1.632   7.239
    4POPC   C2B  359   9.723   1.685   6.893
    4POPC   C3B  360   9.778   1.629   6.471
    4POPC   C4B  361   9.968   1.391   6.178
    5POPC   NC3  362   0.189   7.829   8.385
    5POPC   PO4  363   0.028   7.378   8.014
    5POPC   GL1  364   0.190   7.576   7.599
    5POPC   GL2  365   0.303   7.887   7.526
    5POPC   C1A  366   0.382   7.577   7.155
    5POPC   D2A  367   0.591   7.798   6.810
    5POPC   C3A  368   0.557   7.681   6.351
    5POPC   C4A  369   0.237   7.728   5.985
    5POPC   C1B  370   0.324   8.258   7.302
    5POPC   C2B  371   0.439   8.292   6.891
    5POPC   C3B  372   0.285   8.087   6.531
    5POPC   C4B  373   0.388   8.155   6.150
    6POPC   NC3  374   2.959   1.539   8.186
    6POPC   PO4  375   3.602   1.718   8.230
    6POPC   GL1  376   3.622   1.477   7.865
    6POPC   GL2  377   3.596   1.105   7.845
    6POPC   C1A  378   3.514   1.526   7.465
    6POPC   D2A  379   3.527   1.687   7.061
    6POPC   C3A  380   3.677   1.529   6.654
    6POPC   C4A  381   3.488   1.478   6.240
    6POPC   C1B  382   3.385   1.042   7.437
    6POPC   C2B  383   3.530   1.176   7.020
    6POPC   C3B  384   3.391   1.080   6.588
    6POPC   C4B  385   3.561   0.995   6.170
    7POPC   NC3  386   8.557   9.200   8.181
    7POPC   PO4  387   8.982   9.683   8.385
    7POPC   GL1  388   8.886   9.519   7.846
    7POPC   GL2  389   8.733   9.246   7.696
    7POPC   C1A  390   8.796   9.671   7.409
    7POPC   D2A  391   8.697   9.667   6.960
    7POPC   C3A  392   8.759   9.383   6.636
    7POPC   C4A  393   8.678   9.558   6.245
    7POPC   C1B  394   8.495   9.223   7.311
    7POPC   C2B  395   8.409   9.062   6.899
    7POPC   C3B  396   8.227   9.199   6.533
    7POPC   C4B  397   8.284   9.304   6.101
    8POPC   NC3  398   6.193   0.415   8.195
    8POPC   PO4  399   6.709  10.458   8.049
    8POPC   GL1  400   6.639   0.176   7.635
    8POPC   GL2  401   6.395   0.424   7.725
    8POPC   C1A  402   6.526   0.443   7.230
    8POPC   D2A  403   6.358   0.729   6.902
    8POPC   C3A  404   6.511   0.703   6.486
    8POPC   C4A  405   6.745   0.541   6.129
    8POPC   C1B  406   6.208   0.059   7.443
    8POPC   C2B  407   6.359  10.442   7.028
    8POPC   C3B  408   6.411   0.208   6.653
    8POPC   C4B  409   6.287   0.294   6.225
    9POPC   NC3  410   8.952   4.679   8.163
    9POPC   PO4  411   8.570   5.208   7.973
    9POPC   GL1  412   8.904   5.054   7.741
    9POPC   GL2  413   8.746   4.743   7.682
    9POPC   C1A  414   8.907   5.186   7.314
    9POPC   D2A  415   8.695   5.116   6.925
    9POPC   C3A  416   8.731   4.896   6.554
    9POPC   C4A  417   8.821   4.954   6.116
    9POPC   C1B  418   8.579   4.777   7.283
    9POPC   C2B  419   8.343   4.734   6.888
    9POPC   C3B  420   8.349   4.565   6.443
    9POPC   C4B  421   8.390   4.665   5.978
   10POPC   NC3  422   4.399   9.420   8.013
   10POPC   PO4  423   3.757   9.399   8.274
   10POPC   GL1  424   3.965   9.544   7.742
   10POPC   GL2  425   4.274   9.492   7.534
   10POPC   C1A  426   3.935   9.667   7.235
   10POPC   D2A  427   4.088   9.462   6.862
   10POPC   C3A  428   3.800   9.492   6.507
   10POPC   C4A  429   3.953   9.479   6.040
   10POPC   C1B  430   4.520   9.219   7.242
   10POPC   C2B  431   4.648   9.012   6.870
   10POPC   C3B  432   4.479   8.851   6.509
   10POPC   C4B  433   4.218   9.223   6.410
   11POPC   NC3  434   9.893   5.536   8.341
   11POPC   PO4  435   9.739   5.261   7.789
   11POPC   GL1  436   9.916   5.390   7.484
   11POPC   GL2  437  10.170   5.563   7.695
   11POPC   C1A  438   9.752   5.224   7.103
   11POPC   D2A  439   9.669   5.524   6.803
   11POPC   C3A  440   9.645   5.410   6.385
   11POPC   C4A  441   9.847   5.637   6.072
   11POPC   C1B  442  10.312   5.735   7.325
   11POPC   C2B  443  10.088   5.891   6.950
   11POPC   C3B  444  10.066   5.753   6.533
   11POPC   C4B  445  10.295   5.865   6.158
   12POPC   NC3  446   6.338   1.573   8.264
   12POPC   PO4  447   5.998   2.118   8.282
   12POPC   GL1  448   6.334   1.878   7.872
   12POPC   GL2  449   6.553   2.123   7.711
   12POPC   C1A  450   6.263   1.650   7.419
   12POPC   D2A  451   6.469   1.648   6.975
   12POPC   C3A  452   6.246   1.579   6.565
   12POPC   C4A  453   6.278   1.669   6.128
   12POPC   C1B  454   6.407   2.109   7.266
   12POPC   C2B  455   6.648   2.143   6.894
   12POPC   C3B  456   6.580   1.953   6.504
   12POPC   C4B  457   6.625   2.017   6.070
   13POPC   NC3  458   1.438   0.924   8.046
   13POPC   PO4  459   2.086   0.888   8.058
   13POPC   GL1  460   1.967   1.083   7.670
   13POPC   GL2  461   2.282   1.250   7.666
   13POPC   C1A  462   1.730   1.042   7.283
   13POPC   D2A  463   1.643   0.832   6.856
   13POPC   C3A  464   1.905   0.874   6.457
   13POPC   C4A  465   1.738   0.838   6.007
   13POPC   C1B  466   2.129   1.401   7.282
   13POPC   C2B  467   1.967   1.249   6.879
   13POPC   C3B  468   1.748   1.347   6.506
   13POPC   C4B  469   1.997   1.260   6.131
   14POPC   NC3  470   7.149   2.086   8.095
   14POPC   PO4  471   6.784   1.506   8.194
   14POPC   GL1  472   6.871   1.692   7.764
   14POPC   GL2  473   7.215   1.732   7.638
   14POPC   C1A  474   6.847   1.834   7.299
   14POPC   D2A  475   6.980   1.757   6.858
   14POPC   C3A  476   7.063   2.094   6.535
   14POPC   C4A  477   7.049   1.829   6.246
   14POPC   C1B  478   7.377   1.713   7.204
   14POPC   C2B  479   7.586   1.528   6.844
   14POPC   C3B  480   7.502   1.753   6.464
   14POPC   C4B  481   7.506   2.107   6.207
   15POPC   NC3  482   6.367   9.154   8.002
   15POPC   PO4  483   6.808   9.585   8.107
   15POPC   GL1  484   6.625   9.638   7.687
   15POPC   GL2  485   6.381   9.399   7.564
   15POPC   C1A  486   6.512   9.784   7.277
   15POPC   D2A  487   6.515   9.565   6.884
   15POPC   C3A  488   6.541   9.800   6.512
   15POPC   C4A  489   6.508   9.760   6.060
   15POPC   C1B  490   6.191   9.234   7.188
   15POPC   C2B  491   6.052   9.348   6.770
   15POPC   C3B  492   6.265   9.323   6.384
   15POPC   C4B  493   6.191   9.359   5.935
   16POPC   NC3  494   9.557   3.210   8.117
   16POPC   PO4  495   9.862   3.827   8.084
   16POPC   GL1  496   9.666   3.552   7.770
   16POPC   GL2  497   9.318   3.555   7.730
   16POPC   C1A  498   9.658   3.342   7.365
   16POPC   D2A  499   9.546   3.534   6.945
   16POPC   C3A  500   9.774   3.536   6.546
   16POPC   C4A  501   9.586   3.541   6.121
   16POPC   C1B  502   9.164   3.352   7.342
   16POPC   C2B  503   9.040   3.468   6.923
   16POPC   C3B  504   9.252   3.467   6.520
   16POPC   C4B  505   9.189   3.211   6.140
   17POPC   NC3  506   0.477   5.708   8.320
   17POPC   PO4  507  10.346   5.538   8.211
   17POPC   GL1  508   0.166   5.489   7.828
   17POPC   GL2  509   0.444   5.764   7.807
   17POPC   C1A  510   0.289   5.462   7.343
   17POPC   D2A  511   0.132   5.689   6.935
   17POPC   C3A  512   0.195   5.843   6.506
   17POPC   C4A  513   0.192   5.526   6.194
   17POPC   C1B  514   0.622   5.872   7.393
   17POPC   C2B  515   0.646   5.656   6.981
   17POPC   C3B  516   0.596   5.537   6.535
   17POPC   C4B  517   0.616   5.785   6.143
   18POPC   NC3  518  10.134   0.532   8.152
   18POPC   PO4  519   9.570   0.161   8.094
   18POPC   GL1  520   9.952   0.175   7.788
   18POPC   GL2  521  10.185   0.448   7.640
   18POPC   C1A  522   9.881   0.154   7.328
   18POPC   D2A  523  10.099   0.398   7.034
   18POPC   C3A  524  10.103   0.529   6.624
   18POPC   C4A  525  10.182   0.397   6.227
   18POPC   C1B  526   0.021   0.469   7.290
   18POPC   C2B  527   0.171   0.612   6.856
   18POPC   C3B  528   0.018   0.771   6.435
   18POPC   C4B  529  10.484   0.727   5.948
   19POPC   NC3  530   1.510  10.436   8.077
   19POPC   PO4  531   2.226  10.317   8.030
   19POPC   GL1  532   1.856  10.269   7.700
   19POPC   GL2  533   1.765   9.922   7.576
   19POPC   C1A  534   1.644  10.351   7.274
   19POPC   D2A  535   1.505  10.245   6.862
   19POPC   C3A  536   1.770  10.465   6.551
   19POPC   C4A  537   1.632  10.461   6.128
   19POPC   C1B  538   2.019  10.005   7.259
   19POPC   C2B  539   1.881   9.935   6.858
   19POPC   C3B  540   1.679  10.002   6.418
   19POPC   C4B  541   2.026   9.901   6.121
   20POPC   NC3  542   0.476   6.705   8.241
   20POPC   PO4  543   0.774   6.036   8.165
   20POPC   GL1  544   0.639   6.288   7.792
   20POPC   GL2  545   0.312   6.437   7.762
   20POPC   C1A  546   0.635   6.395   7.347
   20POPC   D2A  547   0.446   6.497   6.957
   20POPC   C3A  548   0.650   6.504   6.569
   20POPC   C4A  549   0.473   6.269   6.222
   20POPC   C1B  550   0.131   6.620   7.365
   20POPC   C2B  551   0.036   6.819   6.967
   20POPC   C3B  552   0.132   6.679   6.580
   20POPC   C4B  553   0.328   6.761   6.194
   21POPC   NC3  554   2.402   2.048   8.113
   21POPC   PO4  555   2.501   1.423   8.090
   21POPC   GL1  556   2.684   1.684   7.772
   21POPC   GL2  557   2.731   2.063   7.699
   21POPC   C1A  558   2.600   1.628   7.358
   21POPC   D2A  559   2.794   1.784   6.999
   21POPC   C3A  560   2.627   1.716   6.598
   21POPC   C4A  561   2.533   1.516   6.231
   21POPC   C1B  562   2.484   2.108   7.304
   21POPC   C2B  563   2.350   2.074   6.872
   21POPC   C3B  564   2.425   2.165   6.444
   21POPC   C4B  565   2.833   2.097   6.288
   22POPC   NC3  566   9.100   0.041   8.105
   22POPC   PO4  567   9.195   9.923   7.899
   22POPC   GL1  568   9.350  10.326   7.712
   22POPC   GL2  569   9.684  10.280   7.598
   22POPC   C1A  570   9.370   0.028   7.303
   22POPC   D2A  571   9.503  10.385   6.892
   22POPC   C3A  572   9.161  10.385   6.570
   22POPC   C4A  573   9.020   0.077   6.174
   22POPC   C1B  574   9.575  10.012   7.287
   22POPC   C2B  575   9.671   9.865   6.879
   22POPC   C3B  576   9.543  10.024   6.535
   22POPC   C4B  577   9.725  10.361   6.270
   23POPC   NC3  578   9.692   8.580   8.071
   23POPC   PO4  579   9.180   8.329   7.802
   23POPC   GL1  580   9.479   8.580   7.605
   23POPC   GL2  581   9.486   8.929   7.738
   23POPC   C1A  582   9.693   8.527   7.226
   23POPC   D2A  583   9.543   8.496   6.862
   23POPC   C3A  584   9.800   8.468   6.555
   23POPC   C4A  585   9.695   8.347   6.180
   23POPC   C1B  586   9.644   9.022   7.350
   23POPC   C2B  587   9.484   8.999   6.953
   23POPC   C3B  588   9.648   8.959   6.540
   23POPC   C4B  589   9.391   8.770   6.256
   24POPC   NC3  590   5.515   2.093   8.262
   24POPC   PO4  591   6.060   2.300   7.788
   24POPC   GL1  592   5.705   2.380   7.572
   24POPC   GL2  593   5.640   2.738   7.602
   24POPC   C1A  594   5.728   2.487   7.135
   24POPC   D2A  595   5.717   2.312   6.754
   24POPC   C3A  596   5.761   2.533   6.395
   24POPC   C4A  597   5.559   2.731   6.009
   24POPC   C1B  598   5.602   2.980   7.193
   24POPC   C2B  599   5.507   2.851   6.758
   24POPC   C3B  600   5.749   3.042   6.404
   24POPC   C4B  601   6.004   3.088   6.047
   25POPC   NC3  602   7.417   4.140   8.181
   25POPC   PO4  603   6.984   3.794   7.844
   25POPC   GL1  604   7.328   3.904   7.583
   25POPC   GL2  605   7.254   4.224   7.660
   25POPC   C1A  606   7.519   4.240   7.247
   25POPC   D2A  607   7.523   4.412   6.818
   25POPC   C3A  608   7.420   4.110   6.485
   25POPC   C4A  609   7.186   4.078   6.075
   25POPC   C1B  610   7.028   4.070   7.207
   25POPC   C2B  611   6.951   4.102   6.731
   25POPC   C3B  612   6.736   4.207   6.314
   25POPC   C4B  613   6.892   4.525   6.037
   26POPC   NC3  614   2.686  10.064   7.978
   26POPC   PO4  615   3.175   0.057   8.235
   26POPC   GL1  616   3.013  10.448   7.826
   26POPC   GL2  617   2.643   0.022   7.777
   26POPC   C1A  618   2.979  10.359   7.382
   26POPC   D2A  619   3.133  10.200   6.998
   26POPC   C3A  620   2.836  10.201   6.696
   26POPC   C4A  621   2.647  10.374   6.359
   26POPC   C1B  622   2.445  10.299   7.393
   26POPC   C2B  623   2.421  10.104   6.970
   26POPC   C3B  624   2.248  10.101   6.557
   26POPC   C4B  625   2.477   9.846   6.326
   27POPC   NC3  626   1.042   0.257   8.137
   27POPC   PO4  627   0.956   0.949   8.031
   27POPC   GL1  628   1.160   0.612   7.724
   27POPC   GL2  629   1.230   0.270   7.686
   27POPC   C1A  630   0.961   0.447   7.315
   27POPC   D2A  631   1.077   0.455   6.867
   27POPC   C3A  632   0.904   0.268   6.471
   27POPC   C4A  633   0.874   0.520   6.077
   27POPC   C1B  634   1.472   0.356   7.321
   27POPC   C2B  635   1.526   0.235   6.927
   27POPC   C3B  636   1.424   0.347   6.507
   27POPC   C4B  637   1.414   0.424   6.082
   28POPC   NC3  638   4.457  10.295   8.102
   28POPC   PO4  639   3.894  10.002   7.922
   28POPC   GL1  640   4.056  10.073   7.544
   28POPC   GL2  641   4.219  10.363   7.650
   28POPC   C1A  642   4.010  10.203   7.111
   28POPC   D2A  643   3.911   9.943   6.739
   28POPC   C3A  644   4.205   9.831   6.384
   28POPC   C4A  645   4.187   9.918   5.910
   28POPC   C1B  646   4.504  10.224   7.308
   28POPC   C2B  647   4.492  10.204   6.859
   28POPC   C3B  648   4.205  10.349   6.558
   28POPC   C4B  649   4.251  10.371   6.138
   29POPC   NC3  650   8.084   1.752   7.974
   29POPC   PO4  651   8.589   1.839   8.244
   29POPC   GL1  652   8.598   1.817   7.791
   29POPC   GL2  653   8.910   1.634   7.813
   29POPC   C1A  654   8.491   1.975   7.356
   29POPC   D2A  655   8.332   2.181   6.931
   29POPC   C3A  656   8.474   2.051   6.498
   29POPC   C4A  657   8.556   1.997   6.034
   29POPC   C1B  658   8.934   1.660   7.351
   29POPC   C2B  659   8.763   1.831   6.941
   29POPC   C3B  660   8.891   1.762   6.505
   29POPC   C4B  661   9.024   2.127   6.286
   30POPC   NC3  662   3.315   4.132   7.938
   30POPC   PO4  663   3.793   3.706   8.102
   30POPC   GL1  664   3.699   3.841   7.621
   30POPC   GL2  665   3.361   3.921   7.471
   30POPC   C1A  666   3.720   3.786   7.126
   30POPC   D2A  667   3.507   4.068   6.793
   30POPC   C3A  668   3.679   4.150   6.377
   30POPC   C4A  669   3.776   3.946   5.997
   30POPC   C1B  670   3.167   4.318   7.299
   30POPC   C2B  671   3.181   4.531   6.873
   30POPC   C3B  672   3.226   4.379   6.447
   30POPC   C4B  673   3.438   4.530   6.068
   31POPC   NC3  674   3.618   1.238   8.338
   31POPC   PO4  675   4.292   1.402   8.138
   31POPC   GL1  676   4.122   1.310   7.762
   31POPC   GL2  677   4.268   0.970   7.749
   31POPC   C1A  678   3.885   1.117   7.418
   31POPC   D2A  679   3.917   0.819   7.063
   31POPC   C3A  680   3.898   1.002   6.641
   31POPC   C4A  681   3.954   1.279   6.283
   31POPC   C1B  682   4.392   1.139   7.336
   31POPC   C2B  683   4.467   0.991   6.924
   31POPC   C3B  684   4.398   1.101   6.526
   31POPC   C4B  685   4.250   0.865   6.240
   32POPC   NC3  686   2.018   9.164   8.169
   32POPC   PO4  687   2.188   8.511   8.157
   32POPC   GL1  688   1.865   8.661   7.845
   32POPC   GL2  689   1.628   8.942   7.898
   32POPC   C1A  690   1.816   8.549   7.394
   32POPC   D2A  691   2.039   8.355   7.034
   32POPC   C3A  692   1.995   8.578   6.660
   32POPC   C4A  693   2.284   8.830   6.411
   32POPC   C1B  694   1.595   9.016   7.446
   32POPC   C2B  695   1.647   8.897   7.003
   32POPC   C3B  696   1.492   8.775   6.580
   32POPC   C4B  697   1.745   8.678   6.227
   33POPC   NC3  698   0.192   4.990   8.092
   33POPC   PO4  699   0.762   5.335   8.158
   33POPC   GL1  700   0.617   5.269   7.727
   33POPC   GL2  701   0.417   4.981   7.653
   33POPC   C1A  702   0.731   5.150   7.288
   33POPC   D2A  703   0.558   5.151   6.880
   33POPC   C3A  704   0.773   5.049   6.496
   33POPC   C4A  705   0.641   4.994   6.061
   33POPC   C1B  706   0.256   4.911   7.262
   33POPC   C2B  707   0.094   4.962   6.857
   33POPC   C3B  708   0.231   4.978   6.410
   33POPC   C4B  709   0.278   4.631   6.078
   34POPC   NC3  710   9.930   4.919   8.031
   34POPC   PO4  711   0.001   4.573   8.036
   34POPC   GL1  712  10.314   4.732   7.717
   34POPC   GL2  713  10.327   5.079   7.738
   34POPC   C1A  714  10.285   4.673   7.301
   34POPC   D2A  715  10.103   4.875   6.966
   34POPC   C3A  716  10.224   4.777   6.547
   34POPC   C4A  717  10.314   4.856   6.122
   34POPC   C1B  718  10.342   5.196   7.320
   34POPC   C2B  719  10.221   5.383   6.956
   34POPC   C3B  720  10.408   5.364   6.587
   34POPC   C4B  721  10.121   5.269   6.329
   35POPC   NC3  722   7.841   0.924   8.414
   35POPC   PO4  723   8.080   0.407   8.049
   35POPC   GL1  724   8.189   0.434   7.620
   35POPC   GL2  725   7.828   0.512   7.590
   35POPC   C1A  726   8.127   0.482   7.153
   35POPC   D2A  727   8.246   0.737   6.797
   35POPC   C3A  728   8.117   0.677   6.346
   35POPC   C4A  729   8.310   0.542   5.934
   35POPC   C1B  730   7.797   0.148   7.352
   35POPC   C2B  731   7.764  10.457   6.961
   35POPC   C3B  732   7.694   0.007   6.543
   35POPC   C4B  733   7.762   0.285   6.164
   36POPC   NC3  734   8.127   5.799   8.597
   36POPC   PO4  735   8.006   5.386   8.100
   36POPC   GL1  736   8.114   5.472   7.668
   36POPC   GL2  737   8.155   5.823   7.671
   36POPC   C1A  738   7.910   5.516   7.244
   36POPC   D2A  739   7.650   5.276   6.912
   36POPC   C3A  740   7.758   5.328   6.473
   36POPC   C4A  741   8.081   5.575   6.351
   36POPC   C1B  742   8.048   6.009   7.309
   36POPC   C2B  743   7.757   5.994   6.978
   36POPC   C3B  744   7.900   6.010   6.567
   36POPC   C4B  745   7.743   5.967   6.153
   37POPC   NC3  746   8.556   0.461   8.130
   37POPC   PO4  747   8.955   0.948   7.977
   37POPC   GL1  748   8.706   0.698   7.651
   37POPC   GL2  749   8.724   0.324   7.648
   37POPC   C1A  750   8.630   0.532   7.213
   37POPC   D2A  751   8.731   0.279   6.861
   37POPC   C3A  752   8.612   0.472   6.470
   37POPC   C4A  753   8.814   0.563   6.087
   37POPC   C1B  754   8.485   0.056   7.361
   37POPC   C2B  755   8.295   0.000   6.974
   37POPC   C3B  756   8.144   0.243   6.660
   37POPC   C4B  757   8.238   0.181   6.256
   38POPC   NC3  758   3.106   7.134   7.906
   38POPC   PO4  759   2.538   7.002   8.162
   38POPC   GL1  760   2.642   6.924   7.724
   38POPC   GL2  761   2.643   7.287   7.680
   38POPC   C1A  762   2.735   6.889   7.260
   38POPC   D2A  763   2.619   6.828   6.811
   38POPC   C3A  764   2.869   6.881   6.430
   38POPC   C4A  765   2.906   7.192   6.098
   38POPC   C1B  766   2.704   7.398   7.260
   38POPC   C2B  767   2.559   7.447   6.862
   38POPC   C3B  768   2.498   7.235   6.494
   38POPC   C4B  769   2.498   7.520   6.190
   39POPC   NC3  770   4.619   8.656   7.966
   39POPC   PO4  771   5.307   8.666   8.068
   39POPC   GL1  772   5.087   8.820   7.750
   39POPC   GL2  773   5.134   8.529   7.577
   39POPC   C1A  774   5.026   8.983   7.330
   39POPC   D2A  775   5.046   8.720   6.960
   39POPC   C3A  776   5.036   8.920   6.558
   39POPC   C4A  777   5.216   9.103   6.192
   39POPC   C1B  778   4.737   8.553   7.327
   39POPC   C2B  779   4.608   8.458   6.899
   39POPC   C3B  780   4.849   8.433   6.563
   39POPC   C4B  781   4.877   8.403   6.163
   40POPC   NC3  782   5.846   1.920   7.885
   40POPC   PO4  783   5.240   1.721   8.139
   40POPC   GL1  784   5.359   2.021   7.775
   40POPC   GL2  785   5.489   1.779   7.559
   40POPC   C1A  786   5.348   2.151   7.287
   40POPC   D2A  787   5.447   1.878   6.925
   40POPC   C3A  788   5.421   2.007   6.485
   40POPC   C4A  789   5.508   1.732   6.160
   40POPC   C1B  790   5.853   1.981   7.238
   40POPC   C2B  791   6.128   2.029   6.821
   40POPC   C3B  792   5.938   1.971   6.383
   40POPC   C4B  793   5.698   2.177   6.037
   41POPC   NC3  794   0.364   2.107   8.081
   41POPC   PO4  795   0.688   1.577   8.154
   41POPC   GL1  796   0.522   1.746   7.715
   41POPC   GL2  797   0.602   2.104   7.624
   41POPC   C1A  798   0.511   1.822   7.234
   41POPC   D2A  799   0.727   2.009   6.943
   41POPC   C3A  800   0.569   2.063   6.574
   41POPC   C4A  801   0.690   1.843   6.225
   41POPC   C1B  802   0.203   2.261   7.410
   41POPC   C2B  803   0.128   2.445   6.991
   41POPC   C3B  804   0.033   2.336   6.557
   41POPC   C4B  805   0.196   2.072   6.236
   42POPC   NC3  806   6.028   1.026   7.927
   42POPC   PO4  807   6.566   0.703   8.155
   42POPC   GL1  808   6.511   0.950   7.783
   42POPC   GL2  809   6.444   1.330   7.814
   42POPC   C1A  810   6.367   0.955   7.360
   42POPC   D2A  811   6.195   1.222   7.050
   42POPC   C3A  812   6.119   1.098   6.615
   42POPC   C4A  813   6.327   1.121   6.215
   42POPC   C1B  814   6.680   1.357   7.431
   42POPC   C2B  815   6.729   1.182   7.053
   42POPC   C3B  816   6.613   1.209   6.666
   42POPC   C4B  817   6.697   1.475   6.327
   43POPC   NC3  818   1.347   1.940   8.152
   43POPC   PO4  819   1.444   2.606   8.229
   43POPC   GL1  820   1.432   2.374   7.775
   43POPC   GL2  821   1.230   2.051   7.670
   43POPC   C1A  822   1.478   2.227   7.285
   43POPC   D2A  823   1.536   1.991   6.873
   43POPC   C3A  824   1.459   2.223   6.472
   43POPC   C4A  825   1.469   2.166   6.011
   43POPC   C1B  826   1.026   1.805   7.356
   43POPC   C2B  827   1.123   1.673   6.961
   43POPC   C3B  828   1.076   1.880   6.582
   43POPC   C4B  829   1.279   1.745   6.239
   44POPC   NC3  830   2.596   4.045   8.091
   44POPC   PO4  831   3.141   3.702   7.925
   44POPC   GL1  832   2.880   3.906   7.650
   44POPC   GL2  833   2.713   4.211   7.613
   44POPC   C1A  834   2.887   3.885   7.229
   44POPC   D2A  835   2.809   4.197   6.953
   44POPC   C3A  836   2.804   4.108   6.555
   44POPC   C4A  837   2.855   4.168   6.125
   44POPC   C1B  838   2.409   4.081   7.258
   44POPC   C2B  839   2.328   4.298   6.819
   44POPC   C3B  840   2.377   4.286   6.341
   44POPC   C4B  841   2.494   4.473   5.942
   45POPC   NC3  842   8.506   7.869   8.142
   45POPC   PO4  843   9.030   8.151   8.330
   45POPC   GL1  844   8.840   7.996   7.812
   45POPC   GL2  845   8.576   8.137   7.706
   45POPC   C1A  846   8.971   7.811   7.383
   45POPC   D2A  847   9.032   7.967   6.945
   45POPC   C3A  848   8.986   7.790   6.542
   45POPC   C4A  849   9.046   7.548   6.155
   45POPC   C1B  850   8.619   8.177   7.266
   45POPC   C2B  851   8.532   7.995   6.880
   45POPC   C3B  852   8.608   8.161   6.485
   45POPC   C4B  853   8.713   7.953   6.131
   46POPC   NC3  854   9.832  10.257   8.064
   46POPC   PO4  855  10.415   0.145   8.081
   46POPC   GL1  856  10.468  10.417   7.740
   46POPC   GL2  857  10.307  10.092   7.802
   46POPC   C1A  858  10.361  10.493   7.328
   46POPC   D2A  859   0.023   0.108   6.914
   46POPC   C3A  860  10.269   0.041   6.580
   46POPC   C4A  861  10.296  10.378   6.160
   46POPC   C1B  862  10.098  10.046   7.397
   46POPC   C2B  863   9.994  10.251   7.005
   46POPC   C3B  864  10.046  10.089   6.590
   46POPC   C4B  865  10.053   9.938   6.191
   47POPC   NC3  866   0.991   4.427   8.077
   47POPC   PO4  867   1.446   4.300   8.517
   47POPC   GL1  868   1.344   4.110   7.925
   47POPC   GL2  869   1.065   3.900   7.774
   47POPC   C1A  870   1.435   4.249   7.417
   47POPC   D2A  871   1.411   4.506   6.973
   47POPC   C3A  872   1.410   4.240   6.567
   47POPC   C4A  873   1.516   4.230   6.103
   47POPC   C1B  874   0.931   4.151   7.412
   47POPC   C2B  875   0.940   4.312   6.990
   47POPC   C3B  876   0.899   4.145   6.572
   47POPC   C4B  877   1.051   4.028   6.178
   48POPC   NC3  878   2.160   0.401   8.057
   48POPC   PO4  879   1.482   0.412   8.102
   48POPC   GL1  880   1.744   0.308   7.753
   48POPC   GL2  881   1.688   0.657   7.661
   48POPC   C1A  882   2.035   0.155   7.406
   48POPC   D2A  883   2.051  10.460   6.986
   48POPC   C3A  884   2.283   0.097   6.630
   48POPC   C4A  885   2.192   0.023   6.187
   48POPC   C1B  886   2.091   0.664   7.411
   48POPC   C2B  887   2.244   0.465   7.030
   48POPC   C3B  888   1.936   0.435   6.713
   48POPC   C4B  889   1.885   0.406   6.286
   49POPC   NC3  890   6.882   0.386   8.021
   49POPC   PO4  891   7.316   0.796   8.109
   49POPC   GL1  892   7.303   0.717   7.673
   49POPC   GL2  893   7.341   0.361   7.659
   49POPC   C1A  894   7.382   0.669   7.229
   49POPC   D2A  895   7.344   0.341   6.901
   49POPC   C3A  896   7.616   0.509   6.596
   49POPC   C4A  897   7.598   0.779   6.236
   49POPC   C1B  898   7.008   0.345   7.350
   49POPC   C2B  899   6.845   0.159   6.968
   49POPC   C3B  900   6.905   0.348   6.584
   49POPC   C4B  901   7.229   0.380   6.254
   50POPC   NC3  902   6.882   3.030   8.238
   50POPC   PO4  903   7.598   3.101   8.044
   50POPC   GL1  904   7.451   2.842   7.705
   50POPC   GL2  905   7.273   2.513   7.774
   50POPC   C1A  906   7.469   2.646   7.279
   50POPC   D2A  907   7.070   2.616   7.039
   50POPC   C3A  908   7.065   2.698   6.637
   50POPC   C4A  909   6.903   2.953   6.285
   50POPC   C1B  910   7.172   2.231   7.394
   50POPC   C2B  911   7.268   2.169   6.975
   50POPC   C3B  912   7.477   2.405   6.624
   50POPC   C4B  913   7.303   2.583   6.226
   51POPC   NC3  914   6.872   9.902   8.433
   51POPC   PO4  915   7.376   9.946   7.912
   51POPC   GL1  916   7.199  10.065   7.537
   51POPC   GL2  917   7.094  10.407   7.672
   51POPC   C1A  918   7.059   9.798   7.223
   51POPC   D2A  919   7.214   9.634   6.855
   51POPC   C3A  920   7.089   9.934   6.578
   51POPC   C4A  921   6.928  10.050   6.210
   51POPC   C1B  922   7.323  10.472   7.288
   51POPC   C2B  923   7.203  10.311   6.928
   51POPC   C3B  924   7.190  10.432   6.516
   51POPC   C4B  925   7.406  10.224   6.219
   52POPC   NC3  926  10.186   1.373   8.122
   52POPC   PO4  927   9.862   0.878   7.982
   52POPC   GL1  928  10.099   1.095   7.664
   52POPC   GL2  929  10.118   1.505   7.636
   52POPC   C1A  930  10.117   0.856   7.286
   52POPC   D2A  931  10.279   0.946   6.894
   52POPC   C3A  932   9.994   1.032   6.569
   52POPC   C4A  933  10.083   0.900   6.206
   52POPC   C1B  934  10.284   1.363   7.249
   52POPC   C2B  935  10.169   1.450   6.837
   52POPC   C3B  936  10.409   1.302   6.526
   52POPC   C4B  937   0.008   1.224   6.131
   53POPC   NC3  938   8.496   7.106   7.931
   53POPC   PO4  939   8.975   7.585   8.074
   53POPC   GL1  940   8.656   7.536   7.708
   53POPC   GL2  941   8.732   7.215   7.514
   53POPC   C1A  942   8.520   7.592   7.261
   53POPC   D2A  943   8.754   7.511   6.897
   53POPC   C3A  944   8.517   7.615   6.509
   53POPC   C4A  945   8.546   7.442   6.089
   53POPC   C1B  946   8.380   7.086   7.261
   53POPC   C2B  947   8.316   7.252   6.857
   53POPC   C3B  948   8.493   7.098   6.512
   53POPC   C4B  949   8.724   6.979   6.200
   54POPC   NC3  950   8.835   3.902   8.126
   54POPC   PO4  951   8.504   4.518   8.081
   54POPC   GL1  952   8.523   4.266   7.682
   54POPC   GL2  953   8.827   4.197   7.714
   54POPC   C1A  954   8.509   3.926   7.367
   54POPC   D2A  955   8.406   3.771   6.961
   54POPC   C3A  956   8.473   4.067   6.655
   54POPC   C4A  957   8.507   3.786   6.334
   54POPC   C1B  958   8.908   4.376   7.329
   54POPC   C2B  959   8.766   4.468   6.923
   54POPC   C3B  960   8.891   4.419   6.534
   54POPC   C4B  961   8.699   4.233   6.218
   55POPC   NC3  962   9.314   7.268   8.165
   55POPC   PO4  963   9.088   6.659   8.311
   55POPC   GL1  964   9.313   6.862   7.823
   55POPC   GL2  965   9.522   7.171   7.712
   55POPC   C1A  966   9.176   7.086   7.360
   55POPC   D2A  967   8.928   7.007   6.954
   55POPC   C3A  968   9.030   7.221   6.548
   55POPC   C4A  969   9.225   7.077   6.130
   55POPC   C1B  970   9.676   7.013   7.334
   55POPC   C2B  971   9.473   6.996   6.948
   55POPC   C3B  972   9.535   7.111   6.564
   55POPC   C4B  973   9.826   7.009   6.297
   56POPC   NC3  974  10.131   7.652   8.038
   56POPC   PO4  975  10.469   8.201   8.250
   56POPC   GL1  976  10.400   8.020   7.790
   56POPC   GL2  977  10.107   7.932   7.644
   56POPC   C1A  978  10.387   7.801   7.289
   56POPC   D2A  979   0.068   7.918   6.964
   56POPC   C3A  980  10.303   7.778   6.709
   56POPC   C4A  981  10.358   7.782   6.304
   56POPC   C1B  982   9.910   7.995   7.279
   56POPC   C2B  983   9.998   8.152   6.909
   56POPC   C3B  984   9.875   7.968   6.507
   56POPC   C4B  985   9.809   7.860   6.102
   57POPC   NC3  986   1.524   2.980   8.482
   57POPC   PO4  987   0.938   3.114   8.104
   57POPC   GL1  988   1.012   3.363   7.744
   57POPC   GL2  989   1.384   3.405   7.711
   57POPC   C1A  990   1.036   3.270   7.322
   57POPC   D2A  991   1.290   3.203   6.975
   57POPC   C3A  992   1.057   3.279   6.606
   57POPC   C4A  993   1.165   3.374   6.197
   57POPC   C1B  994   1.301   3.717   7.359
   57POPC   C2B  995   1.110   3.816   6.960
   57POPC   C3B  996   1.257   3.749   6.546
   57POPC   C4B  997   1.546   3.727   6.183
   58POPC   NC3  998  10.296   3.666   8.057
   58POPC   PO4  999   9.977   3.095   8.297
   58POPC   GL1 1000   9.984   3.155   7.786
   58POPC   GL2 1001  10.113   3.434   7.576
   58POPC   C1A 1002  10.019   2.978   7.352
   58POPC   D2A 1003   9.897   3.166   6.939
   58POPC   C3A 1004  10.114   3.136   6.564
   58POPC   C4A 1005  10.005   3.224   6.145
   58POPC   C1B 1006  10.039   3.626   7.178
   58POPC   C2B 1007  10.263   3.583   6.804
   58POPC   C3B 1008  10.233   3.686   6.372
   58POPC   C4B 1009  10.043   3.693   5.977
   59POPC   NC3 1010   7.163   7.846   8.363
   59POPC   PO4 1011   7.296   7.982   7.851
   59POPC   GL1 1012   7.052   8.021   7.562
   59POPC   GL2 1013   6.924   8.362   7.478
   59POPC   C1A 1014   7.123   7.760   7.232
   59POPC   D2A 1015   7.327   7.589   6.909
   59POPC   C3A 1016   7.167   7.671   6.482
   59POPC   C4A 1017   7.313   7.668   6.015
   59POPC   C1B 1018   7.287   8.257   7.199
   59POPC   C2B 1019   7.109   8.090   6.854
   59POPC   C3B 1020   7.174   8.177   6.489
   59POPC   C4B 1021   7.003   8.036   6.129
   60POPC   NC3 1022   2.727   6.584   8.187
   60POPC   PO4 1023   2.998   5.944   8.001
   60POPC   GL1 1024   2.797   6.225   7.677
   60POPC   GL2 1025   2.503   6.398   7.769
   60POPC   C1A 1026   2.863   6.367   7.221
   60POPC   D2A 1027   3.157   6.256   6.844
   60POPC   C3A 1028   3.048   6.378   6.399
   60POPC   C4A 1029   3.056   6.119   5.983
   60POPC   C1B 1030   2.341   6.270   7.362
   60POPC   C2B 1031   2.231   6.220   6.927
   60POPC   C3B 1032   2.435   6.398   6.533
   60POPC   C4B 1033   2.598   6.349   6.107
   61POPC   NC3 1034   8.145   4.222   8.012
   61POPC   PO4 1035   7.724   3.764   8.254
   61POPC   GL1 1036   7.791   3.849   7.806
   61POPC   GL2 1037   7.823   4.123   7.624
   61POPC   C1A 1038   7.735   3.709   7.345
   61POPC   D2A 1039   7.657   3.897   6.915
   61POPC   C3A 1040   7.975   3.891   6.593
   61POPC   C4A 1041   8.144   4.105   6.243
   61POPC   C1B 1042   8.042   4.145   7.216
   61POPC   C2B 1043   8.035   4.338   6.791
   61POPC   C3B 1044   7.815   4.451   6.388
   61POPC   C4B 1045   7.469   4.512   6.090
   62POPC   NC3 1046   0.151   0.509   7.929
   62POPC   PO4 1047   0.624   0.073   8.080
   62POPC   GL1 1048   0.584   0.240   7.684
   62POPC   GL2 1049   0.657   0.573   7.790
   62POPC   C1A 1050   0.419   0.104   7.266
   62POPC   D2A 1051   0.515   0.212   6.812
   62POPC   C3A 1052   0.299   0.002   6.423
   62POPC   C4A 1053   0.581   0.088   6.047
   62POPC   C1B 1054   0.498   0.644   7.369
   62POPC   C2B 1055   0.686   0.742   7.002
   62POPC   C3B 1056   0.675   0.703   6.587
   62POPC   C4B 1057   0.425   0.469   6.353
   63POPC   NC3 1058   0.209   4.430   8.423
   63POPC   PO4 1059   0.302   3.833   8.075
   63POPC   GL1 1060   0.554   4.101   7.771
   63POPC   GL2 1061   0.450   4.453   7.719
   63POPC   C1A 1062   0.419   4.106   7.312
   63POPC   D2A 1063   0.559   3.979   6.921
   63POPC   C3A 1064   0.399   4.089   6.519
   63POPC   C4A 1065   0.540   4.026   6.116
   63POPC   C1B 1066   0.631   4.579   7.340
   63POPC   C2B 1067   0.464   4.525   6.938
   63POPC   C3B 1068   0.551   4.582   6.524
   63POPC   C4B 1069   0.760   4.467   6.161
   64POPC   NC3 1070   4.058   0.668   8.197
   64POPC   PO4 1071   4.046   0.004   8.212
   64POPC   GL1 1072   3.954   0.265   7.839
   64POPC   GL2 1073   4.270   0.434   7.757
   64POPC   C1A 1074   3.906   0.191   7.379
   64POPC   D2A 1075   3.717   0.325   6.989
   64POPC   C3A 1076   3.826   0.236   6.553
   64POPC   C4A 1077   3.820   0.599   6.310
   64POPC   C1B 1078   4.391   0.234   7.361
   64POPC   C2B 1079   4.224   0.196   6.957
   64POPC   C3B 1080   4.190   0.556   6.686
   64POPC   C4B 1081   4.307   0.362   6.308
   65POPC   NC3 1082   5.056   9.508   8.254
   65POPC   PO4 1083   4.693   9.076   8.134
   65POPC   GL1 1084   5.034   9.326   7.787
   65POPC   GL2 1085   5.119   9.709   7.769
   65POPC   C1A 1086   5.226   9.465   7.350
   65POPC   D2A 1087   4.960   9.411   6.996
   65POPC   C3A 1088   5.169   9.422   6.611
   65POPC   C4A 1089   5.068   9.614   6.255
   65POPC   C1B 1090   4.755   9.613   7.465
   65POPC   C2B 1091   4.529   9.720   7.070
   65POPC   C3B 1092   4.638   9.632   6.623
   65POPC   C4B 1093   4.720   9.275   6.354
   66POPC   NC3 1094   2.758   5.032   8.085
   66POPC   PO4 1095   2.995   4.454   8.019
   66POPC   GL1 1096   2.803   4.717   7.685
   66POPC   GL2 1097   2.443   4.759   7.752
   66POPC   C1A 1098   2.689   5.036   7.362
   66POPC   D2A 1099   2.777   5.370   7.087
   66POPC   C3A 1100   2.869   5.136   6.719
   66POPC   C4A 1101   2.842   5.167   6.296
   66POPC   C1B 1102   2.477   4.572   7.322
   66POPC   C2B 1103   2.660   4.697   6.945
   66POPC   C3B 1104   2.606   4.726   6.512
   66POPC   C4B 1105   2.884   4.666   6.192
   67POPC   NC3 1106   8.811   8.472   8.054
   67POPC   PO4 1107   9.019   9.133   8.141
   67POPC   GL1 1108   9.002   8.833   7.748
   67POPC   GL2 1109   8.784   8.582   7.574
   67POPC   C1A 1110   9.139   8.822   7.313
   67POPC   D2A 1111   9.066   8.460   7.073
   67POPC   C3A 1112   9.074   8.547   6.632
   67POPC   C4A 1113   8.987   8.400   6.222
   67POPC   C1B 1114   8.583   8.707   7.238
   67POPC   C2B 1115   8.587   8.544   6.837
   67POPC   C3B 1116   8.615   8.684   6.408
   67POPC   C4B 1117   8.505   8.430   6.022
   68POPC   NC3 1118   5.287   0.377   7.773
   68POPC   PO4 1119   4.915   0.018   8.135
   68POPC   GL1 1120   4.742   0.188   7.759
   68POPC   GL2 1121   4.785   0.561   7.749
   68POPC   C1A 1122   4.873   0.216   7.321
   68POPC   D2A 1123   5.130   0.448   7.073
   68POPC   C3A 1124   5.104   0.409   6.642
   68POPC   C4A 1125   5.046   0.371   6.227
   68POPC   C1B 1126   4.648   0.681   7.336
   68POPC   C2B 1127   4.648   0.492   6.924
   68POPC   C3B 1128   4.667   0.653   6.523
   68POPC   C4B 1129   4.695   0.695   6.102
   69POPC   NC3 1130   9.338   5.443   7.952
   69POPC   PO4 1131   9.755   5.958   8.199
   69POPC   GL1 1132   9.721   5.786   7.807
   69POPC   GL2 1133   9.398   5.861   7.643
   69POPC   C1A 1134   9.834   5.900   7.399
   69POPC   D2A 1135   9.548   6.060   7.122
   69POPC   C3A 1136   9.620   6.021   6.689
   69POPC   C4A 1137   9.453   5.906   6.300
   69POPC   C1B 1138   9.408   5.572   7.281
   69POPC   C2B 1139   9.210   5.341   6.935
   69POPC   C3B 1140   9.169   5.481   6.530
   69POPC   C4B 1141   9.196   5.324   6.145
   70POPC   NC3 1142   4.340   2.759   7.870
   70POPC   PO4 1143   3.892   2.314   8.048
   70POPC   GL1 1144   3.974   2.499   7.620
   70POPC   GL2 1145   3.874   2.828   7.580
   70POPC   C1A 1146   4.289   2.506   7.242
   70POPC   D2A 1147   4.452   2.754   6.859
   70POPC   C3A 1148   4.246   2.781   6.465
   70POPC   C4A 1149   4.107   2.547   6.109
   70POPC   C1B 1150   3.812   2.696   7.172
   70POPC   C2B 1151   3.819   2.700   6.734
   70POPC   C3B 1152   3.732   2.856   6.350
   70POPC   C4B 1153   3.708   2.760   5.898
   71POPC   NC3 1154   6.942   6.937   8.461
   71POPC   PO4 1155   7.490   6.801   8.120
   71POPC   GL1 1156   7.544   6.679   7.708
   71POPC   GL2 1157   7.411   6.368   7.655
   71POPC   C1A 1158   7.367   6.814   7.312
   71POPC   D2A 1159   7.112   6.790   6.955
   71POPC   C3A 1160   7.240   6.784   6.537
   71POPC   C4A 1161   7.111   6.508   6.213
   71POPC   C1B 1162   7.222   6.334   7.209
   71POPC   C2B 1163   7.166   6.296   6.758
   71POPC   C3B 1164   6.974   6.074   6.437
   71POPC   C4B 1165   7.211   6.016   6.050
   72POPC   NC3 1166   1.076   5.664   8.098
   72POPC   PO4 1167   1.479   6.157   8.077
   72POPC   GL1 1168   1.557   5.848   7.740
   72POPC   GL2 1169   1.357   5.522   7.705
   72POPC   C1A 1170   1.521   5.758   7.299
   72POPC   D2A 1171   1.327   5.815   6.922
   72POPC   C3A 1172   1.520   5.946   6.544
   72POPC   C4A 1173   1.344   5.780   6.179
   72POPC   C1B 1174   1.042   5.569   7.361
   72POPC   C2B 1175   1.058   5.366   6.943
   72POPC   C3B 1176   1.104   5.534   6.546
   72POPC   C4B 1177   0.952   5.400   6.153
   73POPC   NC3 1178   3.640  10.260   8.206
   73POPC   PO4 1179   3.125   9.892   7.926
   73POPC   GL1 1180   3.411  10.089   7.648
   73POPC   GL2 1181   3.636  10.376   7.684
   73POPC   C1A 1182   3.515   9.937   7.244
   73POPC   D2A 1183   3.469   9.688   6.873
   73POPC   C3A 1184   3.304   9.964   6.558
   73POPC   C4A 1185   2.964   9.983   6.257
   73POPC   C1B 1186   3.495  10.440   7.261
   73POPC   C2B 1187   3.599  10.350   6.832
   73POPC   C3B 1188   3.695  10.272   6.399
   73POPC   C4B 1189   3.739   9.899   6.209
   74POPC   NC3 1190   0.279   8.410   7.969
   74POPC   PO4 1191   0.829   8.742   8.095
   74POPC   GL1 1192   0.722   8.558   7.739
   74POPC   GL2 1193   0.508   8.788   7.614
   74POPC   C1A 1194   0.778   8.491   7.307
   74POPC   D2A 1195   0.645   8.758   6.972
   74POPC   C3A 1196   0.762   8.585   6.603
   74POPC   C4A 1197   0.627   8.576   6.212
   74POPC   C1B 1198   0.209   8.777   7.278
   74POPC   C2B 1199   0.158   8.856   6.857
   74POPC   C3B 1200   0.226   8.604   6.528
   74POPC   C4B 1201   0.072   8.545   6.141
   75POPC   NC3 1202   1.066   6.399   8.060
   75POPC   PO4 1203   0.907   6.961   8.244
   75POPC   GL1 1204   1.137   6.875   7.781
   75POPC   GL2 1205   1.033   6.584   7.602
   75POPC   C1A 1206   1.416   6.715   7.337
   75POPC   D2A 1207   1.195   6.545   6.938
   75POPC   C3A 1208   1.400   6.531   6.498
   75POPC   C4A 1209   1.316   6.503   6.032
   75POPC   C1B 1210   1.133   6.197   7.378
   75POPC   C2B 1211   0.914   6.103   6.997
   75POPC   C3B 1212   1.037   6.123   6.565
   75POPC   C4B 1213   0.987   6.140   6.129
   76POPC   NC3 1214   0.055   4.160   7.849
   76POPC   PO4 1215  10.030   4.457   8.200
   76POPC   GL1 1216  10.059   4.277   7.780
   76POPC   GL2 1217  10.123   3.934   7.652
   76POPC   C1A 1218   9.929   4.279   7.338
   76POPC   D2A 1219  10.119   4.346   6.936
   76POPC   C3A 1220   9.892   4.379   6.583
   76POPC   C4A 1221  10.046   4.432   6.185
   76POPC   C1B 1222  10.366   4.008   7.263
   76POPC   C2B 1223   0.033   4.038   6.867
   76POPC   C3B 1224  10.400   4.186   6.455
   76POPC   C4B 1225  10.448   4.018   6.023
   77POPC   NC3 1226   1.851   5.855   8.179
   77POPC   PO4 1227   1.489   5.337   8.164
   77POPC   GL1 1228   1.841   5.430   7.842
   77POPC   GL2 1229   2.083   5.680   7.763
   77POPC   C1A 1230   1.821   5.355   7.414
   77POPC   D2A 1231   1.905   5.326   6.979
   77POPC   C3A 1232   1.643   5.447   6.635
   77POPC   C4A 1233   1.866   5.434   6.230
   77POPC   C1B 1234   2.021   5.864   7.353
   77POPC   C2B 1235   1.850   5.868   6.933
   77POPC   C3B 1236   2.034   5.796   6.545
   77POPC   C4B 1237   2.246   6.001   6.245
   78POPC   NC3 1238   8.381   3.252   7.949
   78POPC   PO4 1239   9.088   3.194   8.057
   78POPC   GL1 1240   8.824   3.303   7.708
   78POPC   GL2 1241   8.807   3.656   7.696
   78POPC   C1A 1242   8.662   3.419   7.291
   78POPC   D2A 1243   8.548   3.231   6.934
   78POPC   C3A 1244   8.728   3.361   6.529
   78POPC   C4A 1245   8.483   3.306   6.155
   78POPC   C1B 1246   9.035   3.853   7.360
   78POPC   C2B 1247   8.890   3.965   6.959
   78POPC   C3B 1248   8.972   3.903   6.526
   78POPC   C4B 1249   8.947   3.644   6.153
   79POPC   NC3 1250   9.847   4.099   8.471
   79POPC   PO4 1251   9.187   4.253   8.161
   79POPC   GL1 1252   9.309   4.081   7.741
   79POPC   GL2 1253   9.615   4.036   7.691
   79POPC   C1A 1254   9.412   4.317   7.330
   79POPC   D2A 1255   9.253   4.315   6.920
   79POPC   C3A 1256   9.401   4.481   6.539
   79POPC   C4A 1257   9.237   4.234   6.190
   79POPC   C1B 1258   9.597   3.848   7.340
   79POPC   C2B 1259   9.685   4.029   6.952
   79POPC   C3B 1260   9.492   3.970   6.573
   79POPC   C4B 1261   9.752   4.020   6.235
   80POPC   NC3 1262   6.261   6.731   7.758
   80POPC   PO4 1263   6.731   7.145   8.090
   80POPC   GL1 1264   6.691   7.134   7.645
   80POPC   GL2 1265   6.366   7.278   7.640
   80POPC   C1A 1266   6.689   6.877   7.246
   80POPC   D2A 1267   6.635   6.935   6.789
   80POPC   C3A 1268   6.627   6.632   6.444
   80POPC   C4A 1269   6.316   6.685   6.103
   80POPC   C1B 1270   6.523   7.378   7.218
   80POPC   C2B 1271   6.316   7.327   6.829
   80POPC   C3B 1272   6.287   7.132   6.411
   80POPC   C4B 1273   5.991   7.112   6.036
   81POPC   NC3 1274   0.641   1.155   8.321
   81POPC   PO4 1275  10.488   0.863   8.168
   81POPC   GL1 1276   0.098   1.022   7.756
   81POPC   GL2 1277   0.104   1.390   7.795
   81POPC   C1A 1278   0.107   0.959   7.299
   81POPC   D2A 1279   0.347   1.100   6.962
   81POPC   C3A 1280   0.393   1.115   6.532
   81POPC   C4A 1281   0.421   0.910   6.146
   81POPC   C1B 1282   0.276   1.417   7.379
   81POPC   C2B 1283   0.179   1.563   6.918
   81POPC   C3B 1284   0.309   1.601   6.443
   81POPC   C4B 1285   0.542   1.376   6.090
   82POPC   NC3 1286   9.248   6.271   8.130
   82POPC   PO4 1287   8.827   6.792   7.849
   82POPC   GL1 1288   9.013   6.383   7.689
   82POPC   GL2 1289   9.391   6.370   7.653
   82POPC   C1A 1290   9.057   6.180   7.284
   82POPC   D2A 1291   8.865   6.275   6.871
   82POPC   C3A 1292   9.142   6.294   6.503
   82POPC   C4A 1293   9.181   6.723   6.466
   82POPC   C1B 1294   9.318   6.610   7.294
   82POPC   C2B 1295   9.404   6.493   6.885
   82POPC   C3B 1296   9.645   6.499   6.498
   82POPC   C4B 1297   9.943   6.202   6.314
   83POPC   NC3 1298   9.405   0.918   7.863
   83POPC   PO4 1299   9.009   0.459   8.294
   83POPC   GL1 1300   9.167   0.474   7.826
   83POPC   GL2 1301   9.488   0.382   7.658
   83POPC   C1A 1302   9.134   0.548   7.336
   83POPC   D2A 1303   9.346   0.379   6.939
   83POPC   C3A 1304   9.141   0.436   6.551
   83POPC   C4A 1305   9.059   0.829   6.428
   83POPC   C1B 1306   9.663   0.615   7.314
   83POPC   C2B 1307   9.732   0.753   6.900
   83POPC   C3B 1308   9.627   0.674   6.437
   83POPC   C4B 1309   9.484   0.320   6.168
   84POPC   NC3 1310   7.167   7.060   7.892
   84POPC   PO4 1311   7.509   7.509   8.309
   84POPC   GL1 1312   7.408   7.493   7.806
   84POPC   GL2 1313   7.078   7.489   7.643
   84POPC   C1A 1314   7.495   7.357   7.365
   84POPC   D2A 1315   7.555   7.121   6.958
   84POPC   C3A 1316   7.571   7.317   6.564
   84POPC   C4A 1317   7.301   7.220   6.266
   84POPC   C1B 1318   7.028   7.258   7.197
   84POPC   C2B 1319   7.026   7.237   6.716
   84POPC   C3B 1320   6.827   7.071   6.323
   84POPC   C4B 1321   6.794   6.782   5.935
   85POPC   NC3 1322   7.594   1.620   7.961
   85POPC   PO4 1323   7.969   2.175   8.122
   85POPC   GL1 1324   8.047   2.029   7.588
   85POPC   GL2 1325   7.773   1.779   7.529
   85POPC   C1A 1326   8.067   1.776   7.151
   85POPC   D2A 1327   8.218   1.693   6.759
   85POPC   C3A 1328   7.994   1.630   6.384
   85POPC   C4A 1329   8.144   1.640   5.935
   85POPC   C1B 1330   7.686   2.117   7.242
   85POPC   C2B 1331   7.735   2.021   6.847
   85POPC   C3B 1332   7.944   2.122   6.545
   85POPC   C4B 1333   8.072   2.081   6.174
   86POPC   NC3 1334   7.064   9.187   8.069
   86POPC   PO4 1335   7.281   9.714   8.395
   86POPC   GL1 1336   7.413   9.452   7.864
   86POPC   GL2 1337   7.124   9.552   7.682
   86POPC   C1A 1338   7.381   9.221   7.398
   86POPC   D2A 1339   7.377   8.958   6.995
   86POPC   C3A 1340   7.338   9.164   6.612
   86POPC   C4A 1341   7.465   9.046   6.191
   86POPC   C1B 1342   6.863   9.323   7.370
   86POPC   C2B 1343   6.896   9.223   6.929
   86POPC   C3B 1344   6.920   9.434   6.496
   86POPC   C4B 1345   7.339   9.588   6.313
   87POPC   NC3 1346   6.950   1.065   8.257
   87POPC   PO4 1347   7.586   1.258   8.228
   87POPC   GL1 1348   7.310   1.235   7.812
   87POPC   GL2 1349   6.978   1.144   7.773
   87POPC   C1A 1350   7.202   1.265   7.355
   87POPC   D2A 1351   7.222   1.130   6.942
   87POPC   C3A 1352   7.142   1.366   6.570
   87POPC   C4A 1353   7.181   1.361   6.115
   87POPC   C1B 1354   6.880   0.844   7.417
   87POPC   C2B 1355   6.926   0.695   6.971
   87POPC   C3B 1356   7.144   0.796   6.570
   87POPC   C4B 1357   6.882   1.001   6.288
   88POPC   NC3 1358   2.537   0.947   8.131
   88POPC   PO4 1359   3.191   1.056   8.199
   88POPC   GL1 1360   3.115   1.298   7.779
   88POPC   GL2 1361   2.796   1.170   7.716
   88POPC   C1A 1362   3.049   1.406   7.315
   88POPC   D2A 1363   3.022   1.136   6.968
   88POPC   C3A 1364   2.869   1.252   6.574
   88POPC   C4A 1365   3.026   1.114   6.216
   88POPC   C1B 1366   2.599   1.122   7.301
   88POPC   C2B 1367   2.500   1.322   6.923
   88POPC   C3B 1368   2.341   1.163   6.536
   88POPC   C4B 1369   2.443   1.029   6.125
   89POPC   NC3 1370   0.541   9.107   8.022
   89POPC   PO4 1371   0.419   9.788   7.974
   89POPC   GL1 1372   0.630   9.455   7.680
   89POPC   GL2 1373   0.334   9.273   7.580
   89POPC   C1A 1374   0.701   9.181   7.263
   89POPC   D2A 1375   0.471   9.259   6.861
   89POPC   C3A 1376   0.518   9.034   6.470
   89POPC   C4A 1377   0.532   9.024   5.994
   89POPC   C1B 1378   0.415   9.630   7.282
   89POPC   C2B 1379   0.283   9.735   6.902
   89POPC   C3B 1380   0.468   9.781   6.538
   89POPC   C4B 1381   0.367   9.483   6.223
   90POPC   NC3 1382   5.585   9.021   8.068
   90POPC   PO4 1383   5.480   9.693   8.146
   90POPC   GL1 1384   5.568   9.436   7.760
   90POPC   GL2 1385   5.915   9.315   7.780
   90POPC   C1A 1386   5.637   9.157   7.370
   90POPC   D2A 1387   5.387   9.109   6.966
   90POPC   C3A 1388   5.588   9.103   6.563
   90POPC   C4A 1389   5.752   9.339   6.222
   90POPC   C1B 1390   5.900   9.602   7.413
   90POPC   C2B 1391   5.650   9.558   7.042
   90POPC   C3B 1392   5.660   9.638   6.642
   90POPC   C4B 1393   6.027   9.762   6.367
   91POPC   NC3 1394   3.794   2.772   8.128
   91POPC   PO4 1395   3.144   2.964   8.185
   91POPC   GL1 1396   3.408   2.934   7.797
   91POPC   GL2 1397   3.478   2.549   7.783
   91POPC   C1A 1398   3.221   3.003   7.372
   91POPC   D2A 1399   3.029   2.814   7.010
   91POPC   C3A 1400   3.197   2.893   6.564
   91POPC   C4A 1401   3.326   3.100   6.198
   91POPC   C1B 1402   3.330   2.495   7.366
   91POPC   C2B 1403   3.405   2.494   6.934
   91POPC   C3B 1404   3.451   2.446   6.508
   91POPC   C4B 1405   3.295   2.574   6.130
   92POPC   NC3 1406   1.812   8.188   8.098
   92POPC   PO4 1407   1.710   7.556   8.246
   92POPC   GL1 1408   1.597   7.785   7.809
   92POPC   GL2 1409   1.672   8.091   7.606
   92POPC   C1A 1410   1.685   7.638   7.352
   92POPC   D2A 1411   1.686   7.917   6.976
   92POPC   C3A 1412   1.667   7.782   6.533
   92POPC   C4A 1413   1.688   8.175   6.276
   92POPC   C1B 1414   2.055   7.967   7.363
   92POPC   C2B 1415   2.162   7.774   6.960
   92POPC   C3B 1416   2.095   8.044   6.618
   92POPC   C4B 1417   2.099   7.843   6.240
   93POPC   NC3 1418   7.769   7.791   7.984
   93POPC   PO4 1419   8.214   8.228   8.151
   93POPC   GL1 1420   8.086   8.061   7.723
   93POPC   GL2 1421   7.750   8.148   7.601
   93POPC   C1A 1422   8.141   7.918   7.299
   93POPC   D2A 1423   8.060   8.157   6.932
   93POPC   C3A 1424   8.128   8.005   6.531
   93POPC   C4A 1425   8.074   8.203   6.171
   93POPC   C1B 1426   7.637   7.860   7.268
   93POPC   C2B 1427   7.598   7.997   6.861
   93POPC   C3B 1428   7.632   7.856   6.485
   93POPC   C4B 1429   7.553   8.112   6.176
   94POPC   NC3 1430   0.571   7.544   7.894
   94POPC   PO4 1431   0.436   6.925   7.856
   94POPC   GL1 1432   0.647   6.892   7.539
   94POPC   GL2 1433   0.611   7.235   7.468
   94POPC   C1A 1434   0.764   6.857   7.139
   94POPC   D2A 1435   0.493   7.117   6.955
   94POPC   C3A 1436   0.500   7.033   6.580
   94POPC   C4A 1437   0.721   7.165   6.244
   94POPC   C1B 1438   0.153   7.153   7.340
   94POPC   C2B 1439  10.427   7.358   7.027
   94POPC   C3B 1440   0.199   7.470   6.671
   94POPC   C4B 1441   0.213   7.311   6.260
   95POPC   NC3 1442   2.144   7.395   8.139
   95POPC   PO4 1443   1.581   6.946   8.015
   95POPC   GL1 1444   1.725   7.049   7.625
   95POPC   GL2 1445   1.854   7.355   7.725
   95POPC   C1A 1446   1.678   7.152   7.189
   95POPC   D2A 1447   1.628   6.867   6.859
   95POPC   C3A 1448   1.614   7.035   6.480
   95POPC   C4A 1449   1.693   6.813   6.135
   95POPC   C1B 1450   2.192   7.445   7.431
   95POPC   C2B 1451   2.247   7.141   7.115
   95POPC   C3B 1452   2.029   7.228   6.741
   95POPC   C4B 1453   2.016   7.327   6.297
   96POPC   NC3 1454   4.307   3.484   8.057
   96POPC   PO4 1455   4.714   3.941   7.825
   96POPC   GL1 1456   4.385   3.645   7.584
   96POPC   GL2 1457   4.399   3.261   7.611
   96POPC   C1A 1458   4.195   3.526   7.179
   96POPC   D2A 1459   4.475   3.420   6.822
   96POPC   C3A 1460   4.504   3.724   6.482
   96POPC   C4A 1461   4.165   3.647   6.168
   96POPC   C1B 1462   4.252   3.021   7.268
   96POPC   C2B 1463   4.053   3.105   6.893
   96POPC   C3B 1464   4.057   3.272   6.514
   96POPC   C4B 1465   4.458   3.246   6.306
   97POPC   NC3 1466   5.120   2.859   8.141
   97POPC   PO4 1467   4.568   3.073   8.102
   97POPC   GL1 1468   4.798   2.938   7.696
   97POPC   GL2 1469   5.125   2.782   7.629
   97POPC   C1A 1470   4.783   2.894   7.222
   97POPC   D2A 1471   4.968   2.769   6.787
   97POPC   C3A 1472   4.753   2.729   6.394
   97POPC   C4A 1473   4.533   2.822   6.016
   97POPC   C1B 1474   5.238   2.632   7.205
   97POPC   C2B 1475   5.209   2.338   6.830
   97POPC   C3B 1476   5.260   2.518   6.402
   97POPC   C4B 1477   5.236   2.957   6.322
   98POPC   NC3 1478   1.745   6.529   8.068
   98POPC   PO4 1479   2.220   6.104   8.086
   98POPC   GL1 1480   1.965   6.199   7.741
   98POPC   GL2 1481   2.019   6.562   7.651
   98POPC   C1A 1482   1.689   6.253   7.375
   98POPC   D2A 1483   1.674   6.361   6.932
   98POPC   C3A 1484   1.905   6.322   6.544
   98POPC   C4A 1485   1.722   6.232   6.162
   98POPC   C1B 1486   1.947   6.698   7.242
   98POPC   C2B 1487   2.114   6.715   6.837
   98POPC   C3B 1488   2.124   6.820   6.421
   98POPC   C4B 1489   2.121   6.532   6.080
   99POPC   NC3 1490   1.309   2.909   7.909
   99POPC   PO4 1491   0.912   2.231   8.008
   99POPC   GL1 1492   0.949   2.497   7.658
   99POPC   GL2 1493   0.879   2.853   7.643
   99POPC   C1A 1494   0.954   2.303   7.276
   99POPC   D2A 1495   1.144   2.304   6.884
   99POPC   C3A 1496   0.977   2.387   6.471
   99POPC   C4A 1497   1.107   2.498   6.027
   99POPC   C1B 1498   1.110   2.773   7.237
   99POPC   C2B 1499   1.052   2.793   6.783
   99POPC   C3B 1500   1.234   2.846   6.410
   99POPC   C4B 1501   0.871   2.921   6.202
  100POPC   NC3 1502   8.119  10.473   7.926
  100POPC   PO4 1503   8.213   9.826   8.065
  100POPC   GL1 1504   7.950   9.977   7.710
  100POPC   GL2 1505   7.686  10.258   7.659
  100POPC   C1A 1506   8.065  10.196   7.326
  100POPC   D2A 1507   8.070  10.018   6.921
  100POPC   C3A 1508   8.153  10.228   6.536
  100POPC   C4A 1509   7.921  10.289   6.156
  100POPC   C1B 1510   7.595  10.046   7.238
  100POPC   C2B 1511   7.574  10.003   6.786
  100POPC   C3B 1512   7.761   9.899   6.437
  100POPC   C4B 1513   7.678   9.859   6.007
  101POPC   NC3 1514   1.979   1.385   8.062
  101POPC   PO4 1515   1.879   2.038   8.175
  101POPC   GL1 1516   1.729   1.925   7.761
  101POPC   GL2 1517   1.909   2.217   7.667
  101POPC   C1A 1518   1.685   1.723   7.318
  101POPC   D2A 1519   1.983   1.751   6.934
  101POPC   C3A 1520   2.091   1.718   6.479
  101POPC   C4A 1521   1.778   1.707   6.110
  101POPC   C1B 1522   1.983   2.136   7.281
  101POPC   C2B 1523   1.898   2.351   6.953
  101POPC   C3B 1524   1.945   2.360   6.559
  101POPC   C4B 1525   1.917   2.161   6.245
  102POPC   NC3 1526   0.633   3.493   8.080
  102POPC   PO4 1527   0.019   3.339   7.839
  102POPC   GL1 1528   0.106   3.691   7.600
  102POPC   GL2 1529   0.448   3.626   7.625
  102POPC   C1A 1530   0.221   3.635   7.160
  102POPC   D2A 1531   0.214   3.254   6.922
  102POPC   C3A 1532   0.104   3.327   6.490
  102POPC   C4A 1533   0.233   3.662   6.270
  102POPC   C1B 1534   0.734   3.676   7.324
  102POPC   C2B 1535   0.708   3.501   6.919
  102POPC   C3B 1536   0.719   3.661   6.508
  102POPC   C4B 1537   0.657   3.393   6.190
  103POPC   NC3 1538   0.330  10.227   8.126
  103POPC   PO4 1539   1.089  10.222   8.153
  103POPC   GL1 1540   0.847  10.284   7.714
  103POPC   GL2 1541   0.504  10.225   7.664
  103POPC   C1A 1542   0.769  10.070   7.273
  103POPC   D2A 1543   0.505  10.199   6.921
  103POPC   C3A 1544   0.716  10.255   6.527
  103POPC   C4A 1545   0.606  10.100   6.153
  103POPC   C1B 1546   0.186  10.085   7.396
  103POPC   C2B 1547  10.480  10.113   7.023
  103POPC   C3B 1548   0.060  10.118   6.624
  103POPC   C4B 1549   0.105   9.967   6.227
  104POPC   NC3 1550   7.715   0.930   7.899
  104POPC   PO4 1551   8.250   1.110   8.280
  104POPC   GL1 1552   8.253   0.935   7.771
  104POPC   GL2 1553   7.975   0.972   7.480
  104POPC   C1A 1554   8.395   0.976   7.268
  104POPC   D2A 1555   8.121   1.224   6.974
  104POPC   C3A 1556   8.123   1.171   6.546
  104POPC   C4A 1557   8.039   1.152   6.122
  104POPC   C1B 1558   7.674   1.100   7.185
  104POPC   C2B 1559   7.672   1.005   6.738
  104POPC   C3B 1560   7.614   1.259   6.385
  104POPC   C4B 1561   7.661   1.513   6.023
  105POPC   NC3 1562   6.904   9.993   7.917
  105POPC   PO4 1563   6.255   9.623   8.027
  105POPC   GL1 1564   6.213   9.933   7.679
  105POPC   GL2 1565   6.481  10.169   7.673
  105POPC   C1A 1566   6.055  10.073   7.291
  105POPC   D2A 1567   6.087   9.871   6.897
  105POPC   C3A 1568   6.146  10.209   6.616
  105POPC   C4A 1569   6.351  10.202   6.256
  105POPC   C1B 1570   6.753  10.257   7.320
  105POPC   C2B 1571   6.735  10.080   6.927
  105POPC   C3B 1572   6.705  10.301   6.601
  105POPC   C4B 1573   6.727   0.037   6.235
  106POPC   NC3 1574   4.851   1.908   7.990
  106POPC   PO4 1575   5.174   2.408   8.094
  106POPC   GL1 1576   4.944   2.301   7.663
  106POPC   GL2 1577   4.947   1.951   7.498
  106POPC   C1A 1578   4.807   2.369   7.233
  106POPC   D2A 1579   4.657   2.275   6.841
  106POPC   C3A 1580   4.861   2.231   6.452
  106POPC   C4A 1581   4.692   2.320   6.018
  106POPC   C1B 1582   4.783   1.853   7.114
  106POPC   C2B 1583   4.962   1.819   6.742
  106POPC   C3B 1584   5.022   1.729   6.351
  106POPC   C4B 1585   5.085   2.006   6.063
  107POPC   NC3 1586  10.251   8.517   8.015
  107POPC   PO4 1587   9.860   9.015   8.066
  107POPC   GL1 1588   9.980   8.789   7.675
  107POPC   GL2 1589   9.980   8.434   7.609
  107POPC   C1A 1590  10.172   8.769   7.281
  107POPC   D2A 1591   9.983   8.845   6.922
  107POPC   C3A 1592  10.227   8.741   6.609
  107POPC   C4A 1593  10.079   8.738   6.219
  107POPC   C1B 1594  10.324   8.302   7.358
  107POPC   C2B 1595  10.439   8.407   6.942
  107POPC   C3B 1596  10.316   8.261   6.524
  107POPC   C4B 1597  10.176   8.223   6.125
  108POPC   NC3 1598   2.014   9.874   8.022
  108POPC   PO4 1599   1.595   9.365   8.247
  108POPC   GL1 1600   1.805   9.436   7.790
  108POPC   GL2 1601   2.038   9.155   7.677
  108POPC   C1A 1602   1.988   9.499   7.328
  108POPC   D2A 1603   1.769   9.425   6.942
  108POPC   C3A 1604   1.884   9.566   6.515
  108POPC   C4A 1605   1.644   9.567   6.155
  108POPC   C1B 1606   2.135   8.984   7.290
  108POPC   C2B 1607   2.134   9.068   6.872
  108POPC   C3B 1608   1.869   9.081   6.553
  108POPC   C4B 1609   1.924   9.138   6.149
  109POPC   NC3 1610   0.876   9.835   7.943
  109POPC   PO4 1611   1.562   9.985   8.037
  109POPC   GL1 1612   1.288   9.992   7.709
  109POPC   GL2 1613   1.338  10.286   7.645
  109POPC   C1A 1614   1.293   9.974   7.263
  109POPC   D2A 1615   1.355   9.753   6.928
  109POPC   C3A 1616   1.099   9.916   6.646
  109POPC   C4A 1617   1.175   9.778   6.270
  109POPC   C1B 1618   1.123  10.460   7.294
  109POPC   C2B 1619   1.038  10.433   6.868
  109POPC   C3B 1620   1.226  10.363   6.436
  109POPC   C4B 1621   1.082   0.037   6.040
  110POPC   NC3 1622   7.696   9.706   8.174
  110POPC   PO4 1623   8.122   9.175   8.348
  110POPC   GL1 1624   7.961   9.246   7.921
  110POPC   GL2 1625   8.258   9.413   7.772
  110POPC   C1A 1626   7.822   9.446   7.508
  110POPC   D2A 1627   7.659   9.569   7.092
  110POPC   C3A 1628   7.767   9.452   6.672
  110POPC   C4A 1629   7.822   9.415   6.245
  110POPC   C1B 1630   8.257   9.674   7.384
  110POPC   C2B 1631   8.189   9.526   6.971
  110POPC   C3B 1632   8.285   9.703   6.567
  110POPC   C4B 1633   8.185   9.814   6.156
  111POPC   NC3 1634   9.287   7.933   8.023
  111POPC   PO4 1635   9.931   8.180   8.037
  111POPC   GL1 1636   9.627   8.077   7.694
  111POPC   GL2 1637   9.659   7.695   7.716
  111POPC   C1A 1638   9.416   8.087   7.276
  111POPC   D2A 1639   9.534   7.963   6.896
  111POPC   C3A 1640   9.371   8.140   6.542
  111POPC   C4A 1641   9.277   7.996   6.160
  111POPC   C1B 1642   9.440   7.552   7.337
  111POPC   C2B 1643   9.296   7.494   6.913
  111POPC   C3B 1644   9.458   7.622   6.515
  111POPC   C4B 1645   9.566   7.439   6.156
  112POPC   NC3 1646   8.585   1.381   8.099
  112POPC   PO4 1647   7.936   1.359   7.780
  112POPC   GL1 1648   8.331   1.426   7.599
  112POPC   GL2 1649   8.665   1.232   7.621
  112POPC   C1A 1650   8.486   1.486   7.200
  112POPC   D2A 1651   8.607   1.367   6.797
  112POPC   C3A 1652   8.484   1.490   6.355
  112POPC   C4A 1653   8.579   1.421   5.921
  112POPC   C1B 1654   8.874   1.114   7.233
  112POPC   C2B 1655   8.741   0.874   6.862
  112POPC   C3B 1656   8.585   0.980   6.488
  112POPC   C4B 1657   8.508   0.966   6.118
  113POPC   NC3 1658   5.231   0.345   8.275
  113POPC   PO4 1659   5.775   0.718   8.155
  113POPC   GL1 1660   5.694   0.672   7.707
  113POPC   GL2 1661   5.829   0.339   7.712
  113POPC   C1A 1662   5.595   0.514   7.233
  113POPC   D2A 1663   5.531   0.647   6.785
  113POPC   C3A 1664   5.520   0.541   6.322
  113POPC   C4A 1665   5.440   0.767   5.918
  113POPC   C1B 1666   6.060   0.546   7.375
  113POPC   C2B 1667   6.028   0.338   6.989
  113POPC   C3B 1668   5.919   0.356   6.582
  113POPC   C4B 1669   6.007   0.714   6.316
  114POPC   NC3 1670   2.077   3.498   8.160
  114POPC   PO4 1671   2.404   2.885   8.255
  114POPC   GL1 1672   2.259   3.146   7.829
  114POPC   GL2 1673   1.984   3.428   7.687
  114POPC   C1A 1674   2.184   3.108   7.365
  114POPC   D2A 1675   1.983   2.936   7.000
  114POPC   C3A 1676   2.173   3.068   6.633
  114POPC   C4A 1677   2.159   3.445   6.390
  114POPC   C1B 1678   1.723   3.375   7.314
  114POPC   C2B 1679   1.606   3.599   6.933
  114POPC   C3B 1680   1.601   3.364   6.562
  114POPC   C4B 1681   1.644   3.166   6.195
  115POPC   NC3 1682   7.754   2.613   8.096
  115POPC   PO4 1683   7.545   2.065   7.865
  115POPC   GL1 1684   7.776   2.435   7.634
  115POPC   GL2 1685   7.957   2.776   7.672
  115POPC   C1A 1686   8.065   2.450   7.290
  115POPC   D2A 1687   7.871   2.525   6.940
  115POPC   C3A 1688   8.074   2.606   6.591
  115POPC   C4A 1689   7.820   2.549   6.237
  115POPC   C1B 1690   8.189   2.939   7.355
  115POPC   C2B 1691   8.081   3.002   6.947
  115POPC   C3B 1692   7.817   3.066   6.612
  115POPC   C4B 1693   8.056   3.020   6.244
  116POPC   NC3 1694   2.968   9.519   8.194
  116POPC   PO4 1695   2.304   9.493   8.007
  116POPC   GL1 1696   2.512   9.385   7.633
  116POPC   GL2 1697   2.828   9.548   7.676
  116POPC   C1A 1698   2.511   9.478   7.197
  116POPC   D2A 1699   2.293   9.611   6.829
  116POPC   C3A 1700   2.332   9.349   6.467
  116POPC   C4A 1701   2.401   9.244   6.054
  116POPC   C1B 1702   2.838   9.857   7.330
  116POPC   C2B 1703   2.942   9.742   6.934
  116POPC   C3B 1704   2.785   9.556   6.622
  116POPC   C4B 1705   2.817   9.496   6.211
  117POPC   NC3 1706   9.242   2.746   8.009
  117POPC   PO4 1707   9.519   2.206   8.274
  117POPC   GL1 1708   9.535   2.324   7.794
  117POPC   GL2 1709   9.238   2.506   7.572
  117POPC   C1A 1710   9.658   2.378   7.346
  117POPC   D2A 1711   9.395   2.506   6.977
  117POPC   C3A 1712   9.540   2.569   6.567
  117POPC   C4A 1713   9.285   2.640   6.191
  117POPC   C1B 1714   9.467   2.859   7.353
  117POPC   C2B 1715   9.371   3.045   6.975
  117POPC   C3B 1716   9.191   2.964   6.595
  117POPC   C4B 1717   9.590   3.072   6.411
  118POPC   NC3 1718   5.539   8.265   7.977
  118POPC   PO4 1719   6.012   8.799   8.084
  118POPC   GL1 1720   5.931   8.554   7.745
  118POPC   GL2 1721   5.623   8.710   7.665
  118POPC   C1A 1722   6.021   8.750   7.338
  118POPC   D2A 1723   5.863   8.899   6.950
  118POPC   C3A 1724   5.924   8.701   6.533
  118POPC   C4A 1725   6.006   8.889   6.137
  118POPC   C1B 1726   5.490   8.689   7.244
  118POPC   C2B 1727   5.490   8.565   6.800
  118POPC   C3B 1728   5.407   8.637   6.369
  118POPC   C4B 1729   5.641   8.477   6.048
  119POPC   NC3 1730   1.207   9.023   8.173
  119POPC   PO4 1731   1.448   8.470   8.137
  119POPC   GL1 1732   1.383   8.498   7.729
  119POPC   GL2 1733   1.192   8.737   7.732
  119POPC   C1A 1734   1.329   8.392   7.298
  119POPC   D2A 1735   1.542   8.392   6.918
  119POPC   C3A 1736   1.298   8.303   6.580
  119POPC   C4A 1737   1.210   8.500   6.240
  119POPC   C1B 1738   1.111   8.861   7.343
  119POPC   C2B 1739   1.146   8.728   6.952
  119POPC   C3B 1740   1.035   8.995   6.652
  119POPC   C4B 1741   0.964   8.937   6.244
  120POPC   NC3 1742   2.789  10.384   8.395
  120POPC   PO4 1743   2.619   0.467   8.194
  120POPC   GL1 1744   2.846   0.493   7.793
  120POPC   GL2 1745   3.120   0.752   7.771
  120POPC   C1A 1746   2.664   0.334   7.376
  120POPC   D2A 1747   2.640   0.076   7.013
  120POPC   C3A 1748   2.765   0.281   6.665
  120POPC   C4A 1749   2.893   0.299   6.265
  120POPC   C1B 1750   2.951   0.767   7.350
  120POPC   C2B 1751   2.710   0.733   6.952
  120POPC   C3B 1752   2.720   0.764   6.496
  120POPC   C4B 1753   2.415   0.493   6.321
  121POPC   NC3 1754   4.149   8.005   8.277
  121POPC   PO4 1755   4.425   7.423   8.110
  121POPC   GL1 1756   4.287   7.386   7.702
  121POPC   GL2 1757   4.020   7.155   7.675
  121POPC   C1A 1758   4.266   7.303   7.246
  121POPC   D2A 1759   4.465   7.426   6.848
  121POPC   C3A 1760   4.387   7.221   6.454
  121POPC   C4A 1761   4.628   6.907   6.173
  121POPC   C1B 1762   3.984   6.876   7.303
  121POPC   C2B 1763   4.097   7.001   6.853
  121POPC   C3B 1764   4.012   6.865   6.406
  121POPC   C4B 1765   4.170   7.069   6.015
  122POPC   NC3 1766   7.915   3.299   8.312
  122POPC   PO4 1767   8.397   3.707   8.014
  122POPC   GL1 1768   8.193   3.601   7.638
  122POPC   GL2 1769   7.917   3.331   7.711
  122POPC   C1A 1770   8.162   3.434   7.261
  122POPC   D2A 1771   7.971   3.490   6.915
  122POPC   C3A 1772   8.205   3.412   6.586
  122POPC   C4A 1773   8.071   3.567   6.226
  122POPC   C1B 1774   7.721   3.157   7.319
  122POPC   C2B 1775   7.487   3.388   6.993
  122POPC   C3B 1776   7.590   3.549   6.549
  122POPC   C4B 1777   7.658   3.315   6.164
  123POPC   NC3 1778   2.507   8.338   8.446
  123POPC   PO4 1779   2.206   7.928   7.986
  123POPC   GL1 1780   2.522   7.801   7.683
  123POPC   GL2 1781   2.867   7.815   7.827
  123POPC   C1A 1782   2.544   7.889   7.255
  123POPC   D2A 1783   2.544   8.141   6.911
  123POPC   C3A 1784   2.576   7.899   6.570
  123POPC   C4A 1785   2.603   8.028   6.176
  123POPC   C1B 1786   3.002   7.788   7.387
  123POPC   C2B 1787   2.960   7.773   6.932
  123POPC   C3B 1788   2.937   7.549   6.516
  123POPC   C4B 1789   2.996   7.691   6.108
  124POPC   NC3 1790   2.436   8.300   7.828
  124POPC   PO4 1791   2.928   8.257   8.289
  124POPC   GL1 1792   2.970   8.322   7.794
  124POPC   GL2 1793   2.943   8.682   7.655
  124POPC   C1A 1794   2.875   8.299   7.311
  124POPC   D2A 1795   2.723   8.625   6.975
  124POPC   C3A 1796   2.684   8.491   6.506
  124POPC   C4A 1797   2.993   8.445   6.162
  124POPC   C1B 1798   2.830   9.026   7.314
  124POPC   C2B 1799   2.639   9.116   6.869
  124POPC   C3B 1800   2.748   9.057   6.447
  124POPC   C4B 1801   2.678   8.836   6.082
  125POPC   NC3 1802   7.770   6.409   8.114
  125POPC   PO4 1803   8.240   6.834   8.208
  125POPC   GL1 1804   8.069   6.705   7.776
  125POPC   GL2 1805   7.993   6.342   7.681
  125POPC   C1A 1806   8.216   6.591   7.318
  125POPC   D2A 1807   8.113   6.357   6.938
  125POPC   C3A 1808   8.059   6.515   6.528
  125POPC   C4A 1809   8.261   6.721   6.180
  125POPC   C1B 1810   7.738   6.438   7.286
  125POPC   C2B 1811   7.602   6.554   6.868
  125POPC   C3B 1812   7.561   6.380   6.440
  125POPC   C4B 1813   7.579   6.426   5.991
  126POPC   NC3 1814   2.552   5.826   7.932
  126POPC   PO4 1815   2.328   5.197   8.078
  126POPC   GL1 1816   2.413   5.292   7.692
  126POPC   GL2 1817   2.728   5.485   7.607
  126POPC   C1A 1818   2.317   5.459   7.312
  126POPC   D2A 1819   2.319   5.680   6.958
  126POPC   C3A 1820   2.556   5.541   6.647
  126POPC   C4A 1821   2.486   5.526   6.250
  126POPC   C1B 1822   2.668   5.857   7.290
  126POPC   C2B 1823   2.693   6.026   6.849
  126POPC   C3B 1824   2.751   5.960   6.410
  126POPC   C4B 1825   2.992   5.651   6.202
  127POPC   NC3 1826   9.310   9.503   8.120
  127POPC   PO4 1827   9.923   9.786   8.061
  127POPC   GL1 1828   9.749   9.559   7.679
  127POPC   GL2 1829   9.380   9.433   7.634
  127POPC   C1A 1830   9.678   9.511   7.225
  127POPC   D2A 1831   9.829   9.345   6.833
  127POPC   C3A 1832   9.830   9.580   6.472
  127POPC   C4A 1833   9.587   9.732   6.137
  127POPC   C1B 1834   9.184   9.348   7.244
  127POPC   C2B 1835   9.317   9.481   6.830
  127POPC   C3B 1836   9.343   9.381   6.411
  127POPC   C4B 1837   9.061   9.245   6.111
  128POPC   NC3 1838   4.688   1.281   7.926
  128POPC   PO4 1839   5.175   0.771   8.034
  128POPC   GL1 1840   5.200   0.863   7.603
  128POPC   GL2 1841   4.922   1.080   7.520
  128POPC   C1A 1842   5.292   0.939   7.168
  128POPC   D2A 1843   5.013   0.889   6.822
  128POPC   C3A 1844   5.111   0.858   6.363
  128POPC   C4A 1845   5.018   1.033   5.916
  128POPC   C1B 1846   5.161   1.428   7.294
  128POPC   C2B 1847   5.247   1.387   6.834
  128POPC   C3B 1848   4.868   1.299   6.560
  128POPC   C4B 1849   4.670   1.353   6.149
  129POPC   NC3 1850   8.679   9.873   8.107
  129POPC   PO4 1851   8.583   0.020   8.011
  129POPC   GL1 1852   8.787  10.257   7.718
  129POPC   GL2 1853   8.489  10.053   7.652
  129POPC   C1A 1854   9.002  10.172   7.311
  129POPC   D2A 1855   9.182   9.963   6.953
  129POPC   C3A 1856   9.043   9.836   6.549
  129POPC   C4A 1857   8.804  10.038   6.264
  129POPC   C1B 1858   8.526  10.072   7.195
  129POPC   C2B 1859   8.728  10.211   6.823
  129POPC   C3B 1860   8.618  10.448   6.466
  129POPC   C4B 1861   8.413  10.256   6.051
  130POPC   NC3 1862   3.446   3.399   8.085
  130POPC   PO4 1863   4.042   3.107   7.954
  130POPC   GL1 1864   3.793   3.340   7.676
  130POPC   GL2 1865   3.408   3.416   7.585
  130POPC   C1A 1866   3.739   3.228   7.263
  130POPC   D2A 1867   3.502   3.051   6.938
  130POPC   C3A 1868   3.443   3.363   6.630
  130POPC   C4A 1869   3.667   3.562   6.314
  130POPC   C1B 1870   3.302   3.506   7.139
  130POPC   C2B 1871   3.112   3.758   6.782
  130POPC   C3B 1872   3.230   3.859   6.352
  130POPC   C4B 1873   3.277   3.580   5.993
  131POPC   NC3 1874   5.244  10.128   8.082
  131POPC   PO4 1875   4.717   9.775   8.084
  131POPC   GL1 1876   4.803  10.105   7.715
  131POPC   GL2 1877   5.110  10.331   7.647
  131POPC   C1A 1878   4.970  10.001   7.252
  131POPC   D2A 1879   5.222   9.857   6.885
  131POPC   C3A 1880   5.100  10.068   6.504
  131POPC   C4A 1881   4.648  10.089   6.355
  131POPC   C1B 1882   5.249  10.410   7.223
  131POPC   C2B 1883   4.960  10.467   6.871
  131POPC   C3B 1884   4.734   0.067   6.486
  131POPC   C4B 1885   4.982  10.385   6.114
  132POPC   NC3 1886   6.395   7.672   8.062
  132POPC   PO4 1887   6.737   8.131   8.259
  132POPC   GL1 1888   6.583   8.066   7.757
  132POPC   GL2 1889   6.628   7.719   7.623
  132POPC   C1A 1890   6.671   8.007   7.226
  132POPC   D2A 1891   6.766   7.689   6.877
  132POPC   C3A 1892   6.709   7.958   6.544
  132POPC   C4A 1893   6.496   8.040   6.173
  132POPC   C1B 1894   6.241   7.776   7.368
  132POPC   C2B 1895   6.272   7.861   6.906
  132POPC   C3B 1896   6.286   7.676   6.472
  132POPC   C4B 1897   5.986   7.607   6.169
  133POPC   NC3 1898   5.460   1.095   8.223
  133POPC   PO4 1899   5.947   1.475   8.027
  133POPC   GL1 1900   5.852   1.413   7.631
  133POPC   GL2 1901   5.585   1.191   7.685
  133POPC   C1A 1902   5.683   1.477   7.231
  133POPC   D2A 1903   5.886   1.596   6.914
  133POPC   C3A 1904   5.699   1.534   6.578
  133POPC   C4A 1905   5.876   1.377   6.216
  133POPC   C1B 1906   5.793   0.991   7.311
  133POPC   C2B 1907   5.704   1.101   6.890
  133POPC   C3B 1908   5.596   1.037   6.463
  133POPC   C4B 1909   5.302   1.306   6.298
  134POPC   NC3 1910   4.718   7.701   7.899
  134POPC   PO4 1911   5.359   7.834   7.904
  134POPC   GL1 1912   5.147   7.992   7.583
  134POPC   GL2 1913   4.816   8.132   7.610
  134POPC   C1A 1914   5.191   7.759   7.216
  134POPC   D2A 1915   4.945   7.569   6.929
  134POPC   C3A 1916   5.082   7.593   6.525
  134POPC   C4A 1917   5.165   7.728   6.114
  134POPC   C1B 1918   4.758   8.049   7.188
  134POPC   C2B 1919   4.618   7.939   6.796
  134POPC   C3B 1920   4.751   7.935   6.388
  134POPC   C4B 1921   4.682   7.960   5.980
  135POPC   NC3 1922   1.046   8.246   8.083
  135POPC   PO4 1923   0.406   7.962   8.005
  135POPC   GL1 1924   0.734   8.067   7.666
  135POPC   GL2 1925   1.102   8.081   7.619
  135POPC   C1A 1926   0.750   7.981   7.253
  135POPC   D2A 1927   0.950   8.198   6.923
  135POPC   C3A 1928   0.816   8.112   6.472
  135POPC   C4A 1929   0.877   8.163   6.035
  135POPC   C1B 1930   1.252   7.866   7.271
  135POPC   C2B 1931   1.347   7.549   6.961
  135POPC   C3B 1932   1.174   7.811   6.673
  135POPC   C4B 1933   1.250   7.893   6.238
  136POPC   NC3 1934   8.650   6.554   8.199
  136POPC   PO4 1935   8.131   6.074   8.201
  136POPC   GL1 1936   8.497   6.135   7.879
  136POPC   GL2 1937   8.502   6.452   7.710
  136POPC   C1A 1938   8.555   6.090   7.393
  136POPC   D2A 1939   8.469   5.969   6.999
  136POPC   C3A 1940   8.429   6.144   6.599
  136POPC   C4A 1941   8.259   6.136   6.202
  136POPC   C1B 1942   8.709   6.586   7.267
  136POPC   C2B 1943   8.506   6.697   6.869
  136POPC   C3B 1944   8.671   6.572   6.478
  136POPC   C4B 1945   8.751   6.254   6.174
  137POPC   NC3 1946   5.637   7.487   7.953
  137POPC   PO4 1947   6.058   7.983   8.038
  137POPC   GL1 1948   5.825   7.990   7.633
  137POPC   GL2 1949   5.594   8.235   7.471
  137POPC   C1A 1950   5.728   7.806   7.212
  137POPC   D2A 1951   5.843   7.575   6.815
  137POPC   C3A 1952   5.572   7.618   6.455
  137POPC   C4A 1953   5.535   7.378   6.057
  137POPC   C1B 1954   5.237   8.261   7.160
  137POPC   C2B 1955   5.121   8.061   6.784
  137POPC   C3B 1956   5.286   8.133   6.379
  137POPC   C4B 1957   5.618   7.961   6.078
  138POPC   NC3 1958   8.395   5.629   8.074
  138POPC   PO4 1959   9.070   5.846   8.064
  138POPC   GL1 1960   8.886   5.833   7.663
  138POPC   GL2 1961   8.630   5.599   7.626
  138POPC   C1A 1962   8.912   5.705   7.210
  138POPC   D2A 1963   9.142   5.856   6.866
  138POPC   C3A 1964   8.857   5.876   6.517
  138POPC   C4A 1965   8.986   5.787   6.110
  138POPC   C1B 1966   8.442   5.507   7.232
  138POPC   C2B 1967   8.533   5.544   6.757
  138POPC   C3B 1968   8.692   5.392   6.386
  138POPC   C4B 1969   8.514   5.673   6.147
  139POPC   NC3 1970   3.801   8.060   7.881
  139POPC   PO4 1971   4.480   8.112   7.975
  139POPC   GL1 1972   4.266   7.903   7.638
  139POPC   GL2 1973   3.928   7.717   7.546
  139POPC   C1A 1974   4.300   7.797   7.204
  139POPC   D2A 1975   4.013   7.641   6.908
  139POPC   C3A 1976   4.230   7.741   6.516
  139POPC   C4A 1977   4.351   7.589   6.099
  139POPC   C1B 1978   3.835   8.043   7.216
  139POPC   C2B 1979   3.691   8.002   6.770
  139POPC   C3B 1980   3.854   8.111   6.373
  139POPC   C4B 1981   3.875   7.739   6.167
  140POPC   NC3 1982   3.292   7.986   8.238
  140POPC   PO4 1983   3.486   8.365   7.782
  140POPC   GL1 1984   3.373   8.145   7.500
  140POPC   GL2 1985   3.376   7.861   7.687
  140POPC   C1A 1986   3.325   8.165   7.080
  140POPC   D2A 1987   3.050   8.289   6.804
  140POPC   C3A 1988   3.072   8.049   6.475
  140POPC   C4A 1989   3.367   8.085   6.158
  140POPC   C1B 1990   3.473   7.711   7.257
  140POPC   C2B 1991   3.423   7.562   6.840
  140POPC   C3B 1992   3.434   7.648   6.394
  140POPC   C4B 1993   3.464   7.603   5.909
  141POPC   NC3 1994   3.551   9.713   8.004
  141POPC   PO4 1995   3.230   9.141   8.149
  141POPC   GL1 1996   3.303   9.327   7.764
  141POPC   GL2 1997   3.622   9.206   7.830
  141POPC   C1A 1998   3.227   9.474   7.320
  141POPC   D2A 1999   3.118   9.249   6.938
  141POPC   C3A 2000   3.241   9.326   6.529
  141POPC   C4A 2001   3.319   9.607   6.193
  141POPC   C1B 2002   3.693   9.246   7.395
  141POPC   C2B 2003   3.633   9.187   6.957
  141POPC   C3B 2004   3.636   8.983   6.566
  141POPC   C4B 2005   3.595   9.161   6.197
  142POPC   NC3 2006   3.421   6.137   7.991
  142POPC   PO4 2007   3.409   6.815   8.042
  142POPC   GL1 2008   3.120   6.671   7.674
  142POPC   GL2 2009   3.276   6.373   7.543
  142POPC   C1A 2010   3.229   6.766   7.219
  142POPC   D2A 2011   3.207   6.748   6.778
  142POPC   C3A 2012   3.513   6.623   6.463
  142POPC   C4A 2013   3.440   6.424   6.036
  142POPC   C1B 2014   3.558   6.383   7.160
  142POPC   C2B 2015   3.693   6.181   6.754
  142POPC   C3B 2016   3.802   6.207   6.321
  142POPC   C4B 2017   3.623   5.930   5.986
  143POPC   NC3 2018   1.954   2.508   8.085
  143POPC   PO4 2019   1.688   3.136   8.084
  143POPC   GL1 2020   1.770   2.954   7.677
  143POPC   GL2 2021   2.040   2.724   7.634
  143POPC   C1A 2022   1.656   2.698   7.321
  143POPC   D2A 2023   1.514   2.668   6.907
  143POPC   C3A 2024   1.729   2.815   6.557
  143POPC   C4A 2025   1.638   2.626   6.166
  143POPC   C1B 2026   2.259   2.578   7.247
  143POPC   C2B 2027   2.342   2.565   6.787
  143POPC   C3B 2028   2.308   2.661   6.342
  143POPC   C4B 2029   2.116   3.003   6.118
  144POPC   NC3 2030   2.728   3.178   8.112
  144POPC   PO4 2031   2.422   3.715   8.373
  144POPC   GL1 2032   2.537   3.581   7.868
  144POPC   GL2 2033   2.822   3.397   7.664
  144POPC   C1A 2034   2.400   3.582   7.411
  144POPC   D2A 2035   2.362   3.401   6.979
  144POPC   C3A 2036   2.588   3.622   6.673
  144POPC   C4A 2037   2.532   3.789   6.270
  144POPC   C1B 2038   2.824   3.382   7.203
  144POPC   C2B 2039   2.960   3.282   6.808
  144POPC   C3B 2040   2.966   3.417   6.369
  144POPC   C4B 2041   2.911   3.221   5.922
  145POPC   NC3 2042   0.799   2.653   8.139
  145POPC   PO4 2043   0.141   2.512   8.150
  145POPC   GL1 2044   0.327   2.860   7.853
  145POPC   GL2 2045   0.446   2.581   7.729
  145POPC   C1A 2046   0.484   3.111   7.445
  145POPC   D2A 2047   0.686   3.017   7.039
  145POPC   C3A 2048   0.566   3.077   6.596
  145POPC   C4A 2049   0.351   2.982   6.185
  145POPC   C1B 2050   0.553   2.611   7.310
  145POPC   C2B 2051   0.638   2.514   6.885
  145POPC   C3B 2052   0.490   2.574   6.475
  145POPC   C4B 2053   0.629   2.406   6.113
  146POPC   NC3 2054   7.952   8.751   8.211
  146POPC   PO4 2055   8.500   8.812   7.940
  146POPC   GL1 2056   8.254   8.549   7.747
  146POPC   GL2 2057   7.898   8.635   7.730
  146POPC   C1A 2058   8.165   8.426   7.349
  146POPC   D2A 2059   8.104   8.659   6.981
  146POPC   C3A 2060   8.140   8.529   6.566
  146POPC   C4A 2061   8.171   8.803   6.215
  146POPC   C1B 2062   8.042   8.957   7.428
  146POPC   C2B 2063   7.878   9.101   7.020
  146POPC   C3B 2064   7.795   8.926   6.579
  146POPC   C4B 2065   7.723   8.596   6.231
  147POPC   NC3 2066   1.261   9.799   8.324
  147POPC   PO4 2067   0.908   9.374   8.095
  147POPC   GL1 2068   1.280   9.497   7.851
  147POPC   GL2 2069   1.158   9.245   7.657
  147POPC   C1A 2070   1.482   9.516   7.399
  147POPC   D2A 2071   1.274   9.262   7.042
  147POPC   C3A 2072   1.394   9.353   6.587
  147POPC   C4A 2073   1.417   9.119   6.201
  147POPC   C1B 2074   0.989   9.581   7.359
  147POPC   C2B 2075   0.819   9.630   6.958
  147POPC   C3B 2076   0.857   9.452   6.548
  147POPC   C4B 2077   0.858   9.411   6.117
  148POPC   NC3 2078   9.615   4.398   8.020
  148POPC   PO4 2079   9.498   5.008   8.208
  148POPC   GL1 2080   9.473   4.829   7.779
  148POPC   GL2 2081   9.223   4.583   7.731
  148POPC   C1A 2082   9.746   4.749   7.395
  148POPC   D2A 2083   9.655   4.624   6.982
  148POPC   C3A 2084   9.708   4.933   6.657
  148POPC   C4A 2085   9.792   4.877   6.243
  148POPC   C1B 2086   9.232   4.797   7.328
  148POPC   C2B 2087   9.141   4.824   6.903
  148POPC   C3B 2088   9.226   4.973   6.511
  148POPC   C4B 2089   9.301   4.781   6.134
  149POPC   NC3 2090   0.912   1.366   7.820
  149POPC   PO4 2091   1.505   1.406   7.998
  149POPC   GL1 2092   1.292   1.099   7.597
  149POPC   GL2 2093   0.888   0.979   7.502
  149POPC   C1A 2094   1.248   0.859   7.186
  149POPC   D2A 2095   1.086   0.980   6.763
  149POPC   C3A 2096   1.388   0.953   6.408
  149POPC   C4A 2097   1.464   1.280   6.082
  149POPC   C1B 2098   0.763   1.316   7.187
  149POPC   C2B 2099   0.673   1.511   6.795
  149POPC   C3B 2100   0.902   1.415   6.448
  149POPC   C4B 2101   0.903   1.031   6.258
  150POPC   NC3 2102   7.841   7.113   8.305
  150POPC   PO4 2103   8.194   7.556   7.966
  150POPC   GL1 2104   7.937   7.416   7.645
  150POPC   GL2 2105   7.765   7.134   7.789
  150POPC   C1A 2106   7.969   7.411   7.198
  150POPC   D2A 2107   7.963   7.641   6.845
  150POPC   C3A 2108   8.024   7.517   6.416
  150POPC   C4A 2109   7.824   7.683   6.038
  150POPC   C1B 2110   7.853   6.949   7.379
  150POPC   C2B 2111   8.002   6.870   6.953
  150POPC   C3B 2112   7.983   7.014   6.533
  150POPC   C4B 2113   7.688   6.876   6.241
  151POPC   NC3 2114   5.935   9.955   8.089
  151POPC   PO4 2115   5.502   0.018   8.016
  151POPC   GL1 2116   5.643  10.325   7.653
  151POPC   GL2 2117   5.591   9.963   7.711
  151POPC   C1A 2118   5.743  10.496   7.242
  151POPC   D2A 2119   5.501   0.148   6.858
  151POPC   C3A 2120   5.415   0.050   6.425
  151POPC   C4A 2121   5.800   0.060   6.181
  151POPC   C1B 2122   5.511   9.973   7.297
  151POPC   C2B 2123   5.650  10.138   6.897
  151POPC   C3B 2124   5.654  10.117   6.468
  151POPC   C4B 2125   5.518   9.811   6.199
  152POPC   NC3 2126   6.268   2.558   8.110
  152POPC   PO4 2127   6.939   2.493   8.224
  152POPC   GL1 2128   6.744   2.643   7.807
  152POPC   GL2 2129   6.377   2.668   7.640
  152POPC   C1A 2130   6.733   2.484   7.375
  152POPC   D2A 2131   6.429   2.581   7.055
  152POPC   C3A 2132   6.586   2.601   6.660
  152POPC   C4A 2133   6.788   2.455   6.279
  152POPC   C1B 2134   6.087   2.836   7.328
  152POPC   C2B 2135   6.019   2.862   6.856
  152POPC   C3B 2136   6.194   2.788   6.427
  152POPC   C4B 2137   6.290   2.339   6.325
  153POPC   NC3 2138  10.192   5.954   8.042
  153POPC   PO4 2139   0.037   6.519   8.198
  153POPC   GL1 2140  10.273   6.442   7.793
  153POPC   GL2 2141   9.905   6.287   7.753
  153POPC   C1A 2142  10.267   6.246   7.372
  153POPC   D2A 2143   0.028   6.190   7.019
  153POPC   C3A 2144  10.354   6.204   6.616
  153POPC   C4A 2145  10.465   6.374   6.219
  153POPC   C1B 2146   9.820   6.477   7.318
  153POPC   C2B 2147  10.088   6.532   6.940
  153POPC   C3B 2148  10.125   6.651   6.500
  153POPC   C4B 2149   9.990   6.632   6.029
  154POPC   NC3 2150   8.183   4.959   8.034
  154POPC   PO4 2151   7.730   4.431   8.019
  154POPC   GL1 2152   7.868   4.634   7.633
  154POPC   GL2 2153   8.210   4.661   7.613
  154POPC   C1A 2154   7.864   4.650   7.170
  154POPC   D2A 2155   7.868   4.831   6.750
  154POPC   C3A 2156   7.522   4.867   6.482
  154POPC   C4A 2157   7.486   5.048   6.068
  154POPC   C1B 2158   8.154   5.053   7.343
  154POPC   C2B 2159   8.169   5.218   6.919
  154POPC   C3B 2160   8.269   5.119   6.527
  154POPC   C4B 2161   8.008   4.917   6.266
  155POPC   NC3 2162   6.329   8.360   8.162
  155POPC   PO4 2163   6.777   8.829   7.970
  155POPC   GL1 2164   6.569   8.883   7.592
  155POPC   GL2 2165   6.448   8.559   7.662
  155POPC   C1A 2166   6.522   8.792   7.141
  155POPC   D2A 2167   6.339   8.927   6.740
  155POPC   C3A 2168   6.480   8.870   6.294
  155POPC   C4A 2169   6.427   8.939   5.819
  155POPC   C1B 2170   6.248   8.294   7.374
  155POPC   C2B 2171   6.161   8.421   6.938
  155POPC   C3B 2172   6.388   8.419   6.537
  155POPC   C4B 2173   6.775   8.450   6.306
  156POPC   NC3 2174   9.213   0.861   8.358
  156POPC   PO4 2175   9.332   1.368   8.029
  156POPC   GL1 2176   9.273   1.330   7.600
  156POPC   GL2 2177   9.639   1.308   7.597
  156POPC   C1A 2178   9.368   1.034   7.246
  156POPC   D2A 2179   9.236   0.879   6.897
  156POPC   C3A 2180   9.083   1.261   6.678
  156POPC   C4A 2181   8.958   1.295   6.243
  156POPC   C1B 2182   9.806   1.246   7.166
  156POPC   C2B 2183   9.582   1.226   6.772
  156POPC   C3B 2184   9.493   1.168   6.328
  156POPC   C4B 2185   9.697   1.056   5.932
  157POPC   NC3 2186   1.736   4.245   8.175
  157POPC   PO4 2187   2.162   3.906   7.942
  157POPC   GL1 2188   1.844   4.065   7.688
  157POPC   GL2 2189   1.811   4.448   7.707
  157POPC   C1A 2190   1.843   3.891   7.287
  157POPC   D2A 2191   2.105   3.823   6.929
  157POPC   C3A 2192   1.875   3.845   6.564
  157POPC   C4A 2193   2.030   3.915   6.188
  157POPC   C1B 2194   1.985   4.384   7.285
  157POPC   C2B 2195   1.829   4.248   6.884
  157POPC   C3B 2196   1.888   4.363   6.443
  157POPC   C4B 2197   1.985   4.371   5.962
  158POPC   NC3 2198   4.025   1.802   8.046
  158POPC   PO4 2199   4.583   1.673   7.714
  158POPC   GL1 2200   4.422   2.006   7.479
  158POPC   GL2 2201   4.085   2.012   7.585
  158POPC   C1A 2202   4.217   2.020   7.071
  158POPC   D2A 2203   4.149   2.335   6.767
  158POPC   C3A 2204   4.363   2.253   6.423
  158POPC   C4A 2205   4.536   1.849   6.321
  158POPC   C1B 2206   3.996   1.629   7.361
  158POPC   C2B 2207   4.053   1.369   6.991
  158POPC   C3B 2208   4.205   1.572   6.622
  158POPC   C4B 2209   4.003   1.882   6.378
  159POPC   NC3 2210   2.810   2.646   8.256
  159POPC   PO4 2211   2.361   2.427   7.873
  159POPC   GL1 2212   2.608   2.765   7.788
  159POPC   GL2 2213   2.962   2.686   7.758
  159POPC   C1A 2214   2.682   2.971   7.435
  159POPC   D2A 2215   2.540   2.945   7.039
  159POPC   C3A 2216   2.679   2.908   6.646
  159POPC   C4A 2217   2.575   3.118   6.303
  159POPC   C1B 2218   2.813   2.488   7.376
  159POPC   C2B 2219   2.795   2.339   6.971
  159POPC   C3B 2220   2.950   2.455   6.613
  159POPC   C4B 2221   2.813   2.646   6.237
  160POPC   NC3 2222   7.427   3.550   7.973
  160POPC   PO4 2223   6.854   3.486   8.316
  160POPC   GL1 2224   6.995   3.310   7.780
  160POPC   GL2 2225   7.323   3.344   7.555
  160POPC   C1A 2226   6.957   3.506   7.256
  160POPC   D2A 2227   7.069   3.605   6.776
  160POPC   C3A 2228   6.786   3.696   6.389
  160POPC   C4A 2229   6.880   3.697   5.937
  160POPC   C1B 2230   7.138   3.036   7.345
  160POPC   C2B 2231   7.066   3.106   6.928
  160POPC   C3B 2232   7.297   3.141   6.556
  160POPC   C4B 2233   7.166   3.406   6.252
  161POPC   NC3 2234   6.573   3.637   7.999
  161POPC   PO4 2235   6.438   2.996   8.098
  161POPC   GL1 2236   6.532   3.139   7.677
  161POPC   GL2 2237   6.523   3.461   7.522
  161POPC   C1A 2238   6.633   3.033   7.236
  161POPC   D2A 2239   6.618   3.337   6.882
  161POPC   C3A 2240   6.502   3.213   6.472
  161POPC   C4A 2241   6.473   3.397   6.078
  161POPC   C1B 2242   6.207   3.327   7.191
  161POPC   C2B 2243   6.081   3.362   6.736
  161POPC   C3B 2244   6.005   3.557   6.324
  161POPC   C4B 2245   5.904   3.973   6.059
  162POPC   NC3 2246   3.477   2.162   8.171
  162POPC   PO4 2247   2.878   2.006   8.212
  162POPC   GL1 2248   3.200   1.856   7.820
  162POPC   GL2 2249   3.568   1.993   7.700
  162POPC   C1A 2250   3.175   1.968   7.344
  162POPC   D2A 2251   3.210   2.041   6.870
  162POPC   C3A 2252   3.170   1.662   6.643
  162POPC   C4A 2253   3.020   1.625   6.226
  162POPC   C1B 2254   3.704   2.146   7.259
  162POPC   C2B 2255   3.717   2.068   6.792
  162POPC   C3B 2256   3.504   1.966   6.394
  162POPC   C4B 2257   3.686   2.246   6.089
  163POPC   NC3 2258   3.795   7.083   8.119
  163POPC   PO4 2259   3.607   7.681   8.097
  163POPC   GL1 2260   3.560   7.385   7.700
  163POPC   GL2 2261   3.503   7.029   7.591
  163POPC   C1A 2262   3.745   7.309   7.261
  163POPC   D2A 2263   3.594   7.082   6.916
  163POPC   C3A 2264   3.794   7.310   6.569
  163POPC   C4A 2265   3.731   7.254   6.157
  163POPC   C1B 2266   3.217   7.272   7.280
  163POPC   C2B 2267   3.035   7.211   6.880
  163POPC   C3B 2268   3.290   7.166   6.481
  163POPC   C4B 2269   3.345   6.948   6.084
  164POPC   NC3 2270   1.878   5.074   8.188
  164POPC   PO4 2271   1.434   4.602   8.057
  164POPC   GL1 2272   1.583   4.930   7.753
  164POPC   GL2 2273   1.966   4.951   7.710
  164POPC   C1A 2274   1.692   4.795   7.314
  164POPC   D2A 2275   1.951   4.763   6.913
  164POPC   C3A 2276   1.780   4.938   6.541
  164POPC   C4A 2277   1.632   4.728   6.176
  164POPC   C1B 2278   2.177   4.978   7.318
  164POPC   C2B 2279   2.365   5.120   6.914
  164POPC   C3B 2280   2.263   5.124   6.477
  164POPC   C4B 2281   2.154   4.753   6.246
  165POPC   NC3 2282   7.043   8.419   7.959
  165POPC   PO4 2283   7.515   8.937   8.055
  165POPC   GL1 2284   7.255   8.839   7.721
  165POPC   GL2 2285   7.397   8.535   7.615
  165POPC   C1A 2286   7.026   8.831   7.338
  165POPC   D2A 2287   6.973   8.580   6.973
  165POPC   C3A 2288   6.834   8.803   6.662
  165POPC   C4A 2289   6.979   8.947   6.293
  165POPC   C1B 2290   7.671   8.601   7.264
  165POPC   C2B 2291   7.625   8.508   6.830
  165POPC   C3B 2292   7.324   8.654   6.545
  165POPC   C4B 2293   7.236   8.536   6.117
  166POPC   NC3 2294   3.114   0.553   8.248
  166POPC   PO4 2295   3.718   0.806   8.449
  166POPC   GL1 2296   3.581   0.615   7.990
  166POPC   GL2 2297   3.404   0.313   7.858
  166POPC   C1A 2298   3.624   0.603   7.487
  166POPC   D2A 2299   3.370   0.690   7.068
  166POPC   C3A 2300   3.400   0.534   6.632
  166POPC   C4A 2301   3.234   0.640   6.238
  166POPC   C1B 2302   3.194   0.320   7.439
  166POPC   C2B 2303   3.162   0.212   6.979
  166POPC   C3B 2304   3.223   0.023   6.539
  166POPC   C4B 2305   3.435   0.138   6.136
  167POPC   NC3 2306   3.791   8.938   8.271
  167POPC   PO4 2307   4.197   9.057   7.809
  167POPC   GL1 2308   4.295   8.733   7.566
  167POPC   GL2 2309   4.184   8.424   7.720
  167POPC   C1A 2310   4.299   8.766   7.140
  167POPC   D2A 2311   4.069   8.917   6.831
  167POPC   C3A 2312   4.005   8.638   6.484
  167POPC   C4A 2313   4.004   8.891   6.108
  167POPC   C1B 2314   4.282   8.290   7.294
  167POPC   C2B 2315   4.174   8.179   6.853
  167POPC   C3B 2316   4.357   8.249   6.460
  167POPC   C4B 2317   4.378   8.508   6.132
  168POPC   NC3 2318   9.922   2.407   8.173
  168POPC   PO4 2319  10.221   1.822   8.083
  168POPC   GL1 2320  10.483   1.902   7.745
  168POPC   GL2 2321  10.196   2.093   7.630
  168POPC   C1A 2322  10.469   1.829   7.305
  168POPC   D2A 2323  10.300   2.046   6.965
  168POPC   C3A 2324  10.404   1.851   6.618
  168POPC   C4A 2325  10.326   1.725   6.251
  168POPC   C1B 2326   9.919   1.941   7.301
  168POPC   C2B 2327   9.800   2.169   6.895
  168POPC   C3B 2328   9.994   2.111   6.490
  168POPC   C4B 2329  10.204   2.318   6.151
  169POPC   NC3 2330   1.291   7.280   8.170
  169POPC   PO4 2331   0.937   7.793   8.021
  169POPC   GL1 2332   1.001   7.572   7.608
  169POPC   GL2 2333   1.320   7.387   7.658
  169POPC   C1A 2334   0.882   7.505   7.139
  169POPC   D2A 2335   0.858   7.387   6.703
  169POPC   C3A 2336   1.218   7.369   6.459
  169POPC   C4A 2337   1.152   7.419   6.035
  169POPC   C1B 2338   1.150   7.142   7.355
  169POPC   C2B 2339   1.176   7.069   6.938
  169POPC   C3B 2340   1.017   6.890   6.578
  169POPC   C4B 2341   1.198   6.950   6.186
  170POPC   NC3 2342  10.353   2.966   8.060
  170POPC   PO4 2343   9.696   2.776   7.957
  170POPC   GL1 2344  10.025   2.584   7.689
  170POPC   GL2 2345  10.388   2.568   7.720
  170POPC   C1A 2346  10.155   2.467   7.262
  170POPC   D2A 2347   9.899   2.657   6.954
  170POPC   C3A 2348  10.065   2.619   6.562
  170POPC   C4A 2349   9.856   2.715   6.183
  170POPC   C1B 2350   0.046   2.801   7.381
  170POPC   C2B 2351  10.365   2.886   6.975
  170POPC   C3B 2352   0.050   2.837   6.591
  170POPC   C4B 2353  10.354   2.867   6.198
  171POPC   NC3 2354  10.150   9.387   8.037
  171POPC   PO4 2355   0.074   8.851   7.919
  171POPC   GL1 2356  10.340   9.163   7.632
  171POPC   GL2 2357  10.429   9.567   7.667
  171POPC   C1A 2358  10.110   9.259   7.265
  171POPC   D2A 2359  10.331   9.250   6.874
  171POPC   C3A 2360  10.165   9.197   6.450
  171POPC   C4A 2361   0.046   9.047   6.230
  171POPC   C1B 2362  10.408   9.659   7.261
  171POPC   C2B 2363  10.160   9.728   6.934
  171POPC   C3B 2364  10.351   9.661   6.549
  171POPC   C4B 2365  10.351   9.534   6.126
  172POPC   NC3 2366  10.468   6.924   7.983
  172POPC   PO4 2367   9.797   7.332   8.102
  172POPC   GL1 2368  10.048   7.148   7.752
  172POPC   GL2 2369  10.231   7.391   7.601
  172POPC   C1A 2370  10.176   6.952   7.325
  172POPC   D2A 2371  10.008   7.057   6.897
  172POPC   C3A 2372  10.324   7.121   6.581
  172POPC   C4A 2373  10.354   6.975   6.184
  172POPC   C1B 2374   9.951   7.468   7.316
  172POPC   C2B 2375   9.852   7.574   6.917
  172POPC   C3B 2376   9.944   7.458   6.519
  172POPC   C4B 2377  10.089   7.404   6.124
  173POPC   NC3 2378   8.426   2.265   8.101
  173POPC   PO4 2379   8.134   2.906   8.137
  173POPC   GL1 2380   8.475   2.773   7.784
  173POPC   GL2 2381   8.460   2.443   7.599
  173POPC   C1A 2382   8.684   2.863   7.353
  173POPC   D2A 2383   8.486   2.685   6.944
  173POPC   C3A 2384   8.467   2.923   6.533
  173POPC   C4A 2385   8.791   2.916   6.194
  173POPC   C1B 2386   8.797   2.363   7.246
  173POPC   C2B 2387   8.924   2.307   6.811
  173POPC   C3B 2388   8.727   2.493   6.469
  173POPC   C4B 2389   8.371   2.487   6.188
  174POPC   NC3 2390   6.399   0.682   4.057
  174POPC   PO4 2391   6.819   0.187   3.974
  174POPC   GL1 2392   6.594   0.316   4.332
  174POPC   GL2 2393   6.260   0.210   4.266
  174POPC   C1A 2394   6.695   0.588   4.687
  174POPC   D2A 2395   6.632   0.343   5.039
  174POPC   C3A 2396   6.557   0.494   5.414
  174POPC   C4A 2397   6.615   0.222   5.762
  174POPC   C1B 2398   6.219   0.418   4.677
  174POPC   C2B 2399   6.080   0.318   5.102
  174POPC   C3B 2400   6.115   0.313   5.531
  174POPC   C4B 2401   6.317   0.647   5.855
  175POPC   NC3 2402   5.625   2.163   3.931
  175POPC   PO4 2403   6.090   1.566   3.900
  175POPC   GL1 2404   6.090   1.712   4.324
  175POPC   GL2 2405   5.739   1.821   4.313
  175POPC   C1A 2406   5.946   1.718   4.776
  175POPC   D2A 2407   5.642   1.812   5.096
  175POPC   C3A 2408   5.822   1.962   5.473
  175POPC   C4A 2409   5.874   1.689   5.812
  175POPC   C1B 2410   5.623   2.102   4.657
  175POPC   C2B 2411   5.292   2.152   4.962
  175POPC   C3B 2412   5.338   2.230   5.372
  175POPC   C4B 2413   5.307   2.341   5.784
  176POPC   NC3 2414  10.460   9.531   3.970
  176POPC   PO4 2415   0.560   9.829   3.748
  176POPC   GL1 2416   0.560   9.583   4.142
  176POPC   GL2 2417   0.412   9.247   4.075
  176POPC   C1A 2418   0.757   9.593   4.557
  176POPC   D2A 2419   0.910   9.584   4.985
  176POPC   C3A 2420   0.648   9.376   5.233
  176POPC   C4A 2421   0.636   9.385   5.656
  176POPC   C1B 2422   0.228   9.234   4.520
  176POPC   C2B 2423   0.182   9.363   4.956
  176POPC   C3B 2424   0.189   9.224   5.371
  176POPC   C4B 2425   0.145   9.348   5.779
  177POPC   NC3 2426   3.524   0.996   3.753
  177POPC   PO4 2427   3.400   0.354   3.968
  177POPC   GL1 2428   3.453   0.412   4.353
  177POPC   GL2 2429   3.640   0.142   4.386
  177POPC   C1A 2430   3.467   0.510   4.774
  177POPC   D2A 2431   3.697   0.580   5.119
  177POPC   C3A 2432   3.608   0.803   5.472
  177POPC   C4A 2433   3.560   0.565   5.854
  177POPC   C1B 2434   3.286   0.039   4.659
  177POPC   C2B 2435   3.149   0.212   5.046
  177POPC   C3B 2436   3.256   0.435   5.399
  177POPC   C4B 2437   3.103   0.369   5.800
  178POPC   NC3 2438   2.959   4.343   3.987
  178POPC   PO4 2439   2.374   4.476   3.735
  178POPC   GL1 2440   2.446   4.377   4.171
  178POPC   GL2 2441   2.579   4.059   4.197
  178POPC   C1A 2442   2.585   4.356   4.611
  178POPC   D2A 2443   2.497   4.189   5.031
  178POPC   C3A 2444   2.623   4.401   5.434
  178POPC   C4A 2445   2.979   4.499   5.721
  178POPC   C1B 2446   2.943   3.996   4.558
  178POPC   C2B 2447   2.975   3.943   5.019
  178POPC   C3B 2448   3.158   4.085   5.434
  178POPC   C4B 2449   3.283   4.080   5.874
  179POPC   NC3 2450   9.531   8.090   3.547
  179POPC   PO4 2451   8.941   7.903   3.826
  179POPC   GL1 2452   9.135   8.106   4.237
  179POPC   GL2 2453   9.446   7.980   4.346
  179POPC   C1A 2454   9.122   7.980   4.709
  179POPC   D2A 2455   9.443   7.959   5.031
  179POPC   C3A 2456   9.237   7.862   5.395
  179POPC   C4A 2457   9.476   7.914   5.723
  179POPC   C1B 2458   9.587   7.652   4.618
  179POPC   C2B 2459   9.871   7.629   4.956
  179POPC   C3B 2460   9.814   7.703   5.375
  179POPC   C4B 2461   9.820   7.495   5.714
  180POPC   NC3 2462   9.361   6.527   3.803
  180POPC   PO4 2463   9.806   6.952   3.899
  180POPC   GL1 2464   9.749   6.757   4.320
  180POPC   GL2 2465   9.391   6.688   4.366
  180POPC   C1A 2466   9.694   6.640   4.759
  180POPC   D2A 2467   9.677   6.368   5.149
  180POPC   C3A 2468   9.693   6.581   5.578
  180POPC   C4A 2469   9.475   6.611   6.022
  180POPC   C1B 2470   9.277   6.375   4.758
  180POPC   C2B 2471   9.185   6.232   5.161
  180POPC   C3B 2472   9.212   6.390   5.551
  180POPC   C4B 2473   9.198   6.195   5.938
  181POPC   NC3 2474   3.225   7.244   4.052
  181POPC   PO4 2475   3.838   7.418   3.962
  181POPC   GL1 2476   3.631   7.398   4.412
  181POPC   GL2 2477   3.240   7.440   4.513
  181POPC   C1A 2478   3.585   7.423   4.892
  181POPC   D2A 2479   3.400   7.280   5.299
  181POPC   C3A 2480   3.616   7.116   5.668
  181POPC   C4A 2481   3.795   6.752   5.936
  181POPC   C1B 2482   3.123   7.034   4.757
  181POPC   C2B 2483   3.153   6.828   5.184
  181POPC   C3B 2484   3.053   7.016   5.591
  181POPC   C4B 2485   3.062   7.459   5.659
  182POPC   NC3 2486   9.670   9.935   3.909
  182POPC   PO4 2487   9.089   9.888   4.257
  182POPC   GL1 2488   9.227  10.131   4.542
  182POPC   GL2 2489   9.445  10.259   4.246
  182POPC   C1A 2490   9.173   9.946   4.969
  182POPC   D2A 2491   9.458   9.859   5.290
  182POPC   C3A 2492   9.452   9.980   5.715
  182POPC   C4A 2493   9.282  10.137   6.126
  182POPC   C1B 2494   9.668  10.413   4.590
  182POPC   C2B 2495   9.517  10.356   4.986
  182POPC   C3B 2496   9.641  10.355   5.392
  182POPC   C4B 2497   9.454  10.474   5.795
  183POPC   NC3 2498   9.623   2.709   3.852
  183POPC   PO4 2499   9.708   2.277   4.322
  183POPC   GL1 2500   9.407   2.612   4.308
  183POPC   GL2 2501   9.214   2.895   4.115
  183POPC   C1A 2502   9.515   2.830   4.669
  183POPC   D2A 2503   9.553   2.568   5.017
  183POPC   C3A 2504   9.403   2.730   5.373
  183POPC   C4A 2505   9.566   2.590   5.761
  183POPC   C1B 2506   9.033   2.907   4.511
  183POPC   C2B 2507   9.082   2.967   4.946
  183POPC   C3B 2508   9.016   3.086   5.359
  183POPC   C4B 2509   9.115   2.873   5.764
  184POPC   NC3 2510   8.784   7.511   4.005
  184POPC   PO4 2511   8.368   8.051   4.132
  184POPC   GL1 2512   8.657   8.168   4.414
  184POPC   GL2 2513   8.755   7.824   4.404
  184POPC   C1A 2514   8.670   8.166   4.839
  184POPC   D2A 2515   8.531   7.938   5.205
  184POPC   C3A 2516   8.564   8.127   5.586
  184POPC   C4A 2517   8.959   8.170   5.749
  184POPC   C1B 2518   8.677   7.657   4.792
  184POPC   C2B 2519   8.525   7.432   5.109
  184POPC   C3B 2520   8.485   7.465   5.556
  184POPC   C4B 2521   8.829   7.689   5.714
  185POPC   NC3 2522   4.672   0.577   3.806
  185POPC   PO4 2523   5.308   0.186   3.909
  185POPC   GL1 2524   5.103   0.371   4.286
  185POPC   GL2 2525   4.761   0.397   4.265
  185POPC   C1A 2526   5.259   0.644   4.657
  185POPC   D2A 2527   5.145   0.818   5.043
  185POPC   C3A 2528   5.063   0.481   5.309
  185POPC   C4A 2529   4.995   0.508   5.739
  185POPC   C1B 2530   4.787   0.430   4.702
  185POPC   C2B 2531   4.608   0.317   5.081
  185POPC   C3B 2532   4.674   0.158   5.504
  185POPC   C4B 2533   4.628   0.182   5.955
  186POPC   NC3 2534   5.724  10.462   3.898
  186POPC   PO4 2535   5.381  10.065   3.579
  186POPC   GL1 2536   5.412  10.232   4.179
  186POPC   GL2 2537   5.754  10.197   4.346
  186POPC   C1A 2538   5.340  10.140   4.650
  186POPC   D2A 2539   5.389  10.127   5.119
  186POPC   C3A 2540   5.298  10.322   5.532
  186POPC   C4A 2541   5.431  10.242   5.980
  186POPC   C1B 2542   5.796  10.305   4.808
  186POPC   C2B 2543   5.828  10.395   5.249
  186POPC   C3B 2544   5.788  10.379   5.663
  186POPC   C4B 2545   5.911  10.108   6.023
  187POPC   NC3 2546  10.414   7.902   3.977
  187POPC   PO4 2547   9.938   8.253   3.765
  187POPC   GL1 2548   9.958   8.115   4.199
  187POPC   GL2 2549   9.997   7.733   4.275
  187POPC   C1A 2550   9.844   8.097   4.625
  187POPC   D2A 2551  10.057   8.109   4.969
  187POPC   C3A 2552   9.848   8.190   5.285
  187POPC   C4A 2553   9.881   8.217   5.711
  187POPC   C1B 2554  10.299   7.759   4.621
  187POPC   C2B 2555  10.490   7.833   5.025
  187POPC   C3B 2556  10.294   7.920   5.403
  187POPC   C4B 2557  10.211   7.808   5.806
  188POPC   NC3 2558   2.834   1.617   3.981
  188POPC   PO4 2559   2.750   0.946   3.840
  188POPC   GL1 2560   2.586   1.209   4.132
  188POPC   GL2 2561   2.950   1.196   4.274
  188POPC   C1A 2562   2.527   1.231   4.549
  188POPC   D2A 2563   2.726   1.004   4.876
  188POPC   C3A 2564   2.401   0.865   5.179
  188POPC   C4A 2565   2.367   0.983   5.606
  188POPC   C1B 2566   3.050   1.443   4.639
  188POPC   C2B 2567   2.914   1.464   5.055
  188POPC   C3B 2568   2.730   1.218   5.353
  188POPC   C4B 2569   2.792   1.253   5.795
  189POPC   NC3 2570   5.641   8.846   3.863
  189POPC   PO4 2571   6.153   8.319   3.868
  189POPC   GL1 2572   5.837   8.391   4.225
  189POPC   GL2 2573   5.774   8.722   4.326
  189POPC   C1A 2574   5.842   8.397   4.702
  189POPC   D2A 2575   6.027   8.530   5.096
  189POPC   C3A 2576   5.979   8.196   5.379
  189POPC   C4A 2577   5.626   8.176   5.614
  189POPC   C1B 2578   5.629   8.996   4.656
  189POPC   C2B 2579   5.770   9.011   5.062
  189POPC   C3B 2580   5.591   8.876   5.441
  189POPC   C4B 2581   5.603   8.998   5.859
  190POPC   NC3 2582   7.366   1.234   3.890
  190POPC   PO4 2583   6.792   0.854   3.900
  190POPC   GL1 2584   7.052   0.981   4.221
  190POPC   GL2 2585   7.075   1.298   4.292
  190POPC   C1A 2586   7.046   0.964   4.680
  190POPC   D2A 2587   7.037   1.134   5.105
  190POPC   C3A 2588   6.879   0.873   5.435
  190POPC   C4A 2589   7.082   0.816   5.869
  190POPC   C1B 2590   7.255   1.431   4.685
  190POPC   C2B 2591   7.074   1.643   4.981
  190POPC   C3B 2592   7.055   1.637   5.381
  190POPC   C4B 2593   7.088   1.275   5.632
  191POPC   NC3 2594   5.841   7.965   3.929
  191POPC   PO4 2595   5.204   8.103   3.927
  191POPC   GL1 2596   5.443   8.079   4.313
  191POPC   GL2 2597   5.781   7.908   4.425
  191POPC   C1A 2598   5.393   8.056   4.746
  191POPC   D2A 2599   5.132   8.199   5.050
  191POPC   C3A 2600   5.129   7.955   5.404
  191POPC   C4A 2601   5.407   7.698   5.663
  191POPC   C1B 2602   5.863   7.899   4.882
  191POPC   C2B 2603   5.801   7.662   5.266
  191POPC   C3B 2604   5.916   7.718   5.672
  191POPC   C4B 2605   6.076   8.084   5.874
  192POPC   NC3 2606   8.050   4.107   3.630
  192POPC   PO4 2607   7.889   4.740   4.051
  192POPC   GL1 2608   7.890   4.488   4.512
  192POPC   GL2 2609   8.070   4.078   4.513
  192POPC   C1A 2610   7.960   4.355   4.915
  192POPC   D2A 2611   8.173   4.032   5.070
  192POPC   C3A 2612   8.053   4.146   5.451
  192POPC   C4A 2613   7.895   4.303   5.856
  192POPC   C1B 2614   7.768   3.886   4.806
  192POPC   C2B 2615   7.662   3.919   5.224
  192POPC   C3B 2616   7.560   3.962   5.672
  192POPC   C4B 2617   7.659   3.856   6.120
  193POPC   NC3 2618   0.320   0.486   3.668
  193POPC   PO4 2619  10.078   0.428   3.805
  193POPC   GL1 2620   9.958   0.236   4.209
  193POPC   GL2 2621  10.149   0.494   4.334
  193POPC   C1A 2622  10.190   0.004   4.575
  193POPC   D2A 2623  10.214  10.481   5.006
  193POPC   C3A 2624  10.214   0.275   5.334
  193POPC   C4A 2625  10.193   0.196   5.758
  193POPC   C1B 2626   9.887   0.374   4.690
  193POPC   C2B 2627   9.751   0.291   5.103
  193POPC   C3B 2628   9.744   0.320   5.561
  193POPC   C4B 2629   9.844   0.575   5.902
  194POPC   NC3 2630   7.251   8.593   4.036
  194POPC   PO4 2631   6.838   8.973   3.675
  194POPC   GL1 2632   6.889   8.879   4.239
  194POPC   GL2 2633   7.216   8.744   4.500
  194POPC   C1A 2634   6.811   8.819   4.722
  194POPC   D2A 2635   7.156   8.763   5.039
  194POPC   C3A 2636   7.076   8.559   5.462
  194POPC   C4A 2637   6.845   8.677   5.839
  194POPC   C1B 2638   7.525   8.484   4.656
  194POPC   C2B 2639   7.765   8.499   5.027
  194POPC   C3B 2640   7.606   8.469   5.444
  194POPC   C4B 2641   7.473   8.778   5.739
  195POPC   NC3 2642   3.821   9.574   3.848
  195POPC   PO4 2643   4.480   9.720   3.841
  195POPC   GL1 2644   4.405   9.383   4.220
  195POPC   GL2 2645   4.176   9.118   4.221
  195POPC   C1A 2646   4.443   9.114   4.644
  195POPC   D2A 2647   4.215   9.185   5.064
  195POPC   C3A 2648   4.478   9.177   5.456
  195POPC   C4A 2649   4.398   9.254   5.915
  195POPC   C1B 2650   4.039   9.422   4.607
  195POPC   C2B 2651   4.057   9.670   5.051
  195POPC   C3B 2652   4.135   9.560   5.493
  195POPC   C4B 2653   3.974   9.164   5.631
  196POPC   NC3 2654   8.778   0.346   3.840
  196POPC   PO4 2655   9.211   0.908   3.936
  196POPC   GL1 2656   9.084   0.669   4.264
  196POPC   GL2 2657   8.940   0.353   4.312
  196POPC   C1A 2658   9.105   0.788   4.661
  196POPC   D2A 2659   8.891   0.892   5.023
  196POPC   C3A 2660   8.995   0.685   5.378
  196POPC   C4A 2661   8.669   0.588   5.597
  196POPC   C1B 2662   8.689   0.489   4.666
  196POPC   C2B 2663   8.682   0.373   5.095
  196POPC   C3B 2664   8.795   0.130   5.445
  196POPC   C4B 2665   8.625   0.151   5.854
  197POPC   NC3 2666  10.234   2.898   3.939
  197POPC   PO4 2667   9.871   2.341   3.722
  197POPC   GL1 2668  10.130   2.468   4.176
  197POPC   GL2 2669  10.419   2.659   4.340
  197POPC   C1A 2670  10.181   2.442   4.704
  197POPC   D2A 2671  10.021   2.774   4.982
  197POPC   C3A 2672   9.920   2.686   5.400
  197POPC   C4A 2673  10.078   2.842   5.763
  197POPC   C1B 2674  10.310   3.003   4.595
  197POPC   C2B 2675  10.447   3.073   4.999
  197POPC   C3B 2676  10.440   2.808   5.351
  197POPC   C4B 2677   0.078   2.923   5.740
  198POPC   NC3 2678   8.296   3.547   3.805
  198POPC   PO4 2679   8.921   3.291   3.799
  198POPC   GL1 2680   8.864   3.316   4.217
  198POPC   GL2 2681   8.658   3.615   4.218
  198POPC   C1A 2682   8.741   3.309   4.662
  198POPC   D2A 2683   8.508   3.182   5.054
  198POPC   C3A 2684   8.517   3.346   5.455
  198POPC   C4A 2685   8.810   3.271   5.789
  198POPC   C1B 2686   8.479   3.762   4.630
  198POPC   C2B 2687   8.586   3.712   5.046
  198POPC   C3B 2688   8.509   3.872   5.434
  198POPC   C4B 2689   8.542   3.698   5.833
  199POPC   NC3 2690   7.882   7.113   3.841
  199POPC   PO4 2691   8.530   7.199   3.754
  199POPC   GL1 2692   8.227   7.235   4.203
  199POPC   GL2 2693   7.881   7.161   4.342
  199POPC   C1A 2694   8.217   7.228   4.724
  199POPC   D2A 2695   7.986   7.069   5.118
  199POPC   C3A 2696   7.992   7.285   5.527
  199POPC   C4A 2697   8.088   7.245   5.997
  199POPC   C1B 2698   7.675   7.237   4.736
  199POPC   C2B 2699   7.579   7.451   5.143
  199POPC   C3B 2700   7.345   7.429   5.530
  199POPC   C4B 2701   7.596   7.264   5.869
  200POPC   NC3 2702   0.457   7.779   3.813
  200POPC   PO4 2703   0.104   8.333   3.944
  200POPC   GL1 2704   0.319   8.037   4.246
  200POPC   GL2 2705   0.258   7.676   4.271
  200POPC   C1A 2706   0.335   8.070   4.692
  200POPC   D2A 2707   0.498   8.004   5.113
  200POPC   C3A 2708   0.241   8.194   5.385
  200POPC   C4A 2709   0.052   8.182   5.774
  200POPC   C1B 2710   0.294   7.567   4.666
  200POPC   C2B 2711   0.370   7.492   5.077
  200POPC   C3B 2712   0.271   7.683   5.476
  200POPC   C4B 2713   0.565   7.977   5.691
  201POPC   NC3 2714   7.262   7.164   3.825
  201POPC   PO4 2715   7.659   6.765   4.093
  201POPC   GL1 2716   7.357   7.020   4.312
  201POPC   GL2 2717   7.393   7.378   4.282
  201POPC   C1A 2718   7.208   6.885   4.707
  201POPC   D2A 2719   7.523   6.839   5.035
  201POPC   C3A 2720   7.541   6.958   5.464
  201POPC   C4A 2721   7.316   6.845   5.875
  201POPC   C1B 2722   7.189   7.381   4.659
  201POPC   C2B 2723   7.143   7.216   5.089
  201POPC   C3B 2724   7.017   7.037   5.489
  201POPC   C4B 2725   6.999   7.247   5.869
  202POPC   NC3 2726   8.854  10.228   4.045
  202POPC   PO4 2727   8.400   9.701   3.922
  202POPC   GL1 2728   8.545   9.953   4.336
  202POPC   GL2 2729   8.526  10.340   4.407
  202POPC   C1A 2730   8.682  10.043   4.783
  202POPC   D2A 2731   8.505  10.387   5.061
  202POPC   C3A 2732   8.467  10.239   5.503
  202POPC   C4A 2733   8.518   9.843   5.760
  202POPC   C1B 2734   8.862   0.008   4.664
  202POPC   C2B 2735   9.020  10.426   5.036
  202POPC   C3B 2736   9.141  10.267   5.416
  202POPC   C4B 2737   8.907  10.227   5.795
  203POPC   NC3 2738   9.535   5.718   3.679
  203POPC   PO4 2739   9.566   6.286   4.145
  203POPC   GL1 2740   9.721   6.004   4.395
  203POPC   GL2 2741   9.585   5.710   4.318
  203POPC   C1A 2742   9.630   5.973   4.799
  203POPC   D2A 2743   9.566   5.808   5.161
  203POPC   C3A 2744   9.551   6.023   5.503
  203POPC   C4A 2745   9.698   6.163   5.888
  203POPC   C1B 2746   9.295   5.554   4.680
  203POPC   C2B 2747   9.435   5.338   5.062
  203POPC   C3B 2748   9.339   5.452   5.479
  203POPC   C4B 2749   9.402   5.683   5.841
  204POPC   NC3 2750   6.433   1.931   3.921
  204POPC   PO4 2751   6.054   2.445   3.852
  204POPC   GL1 2752   6.105   2.216   4.252
  204POPC   GL2 2753   6.445   2.100   4.380
  204POPC   C1A 2754   6.127   2.263   4.722
  204POPC   D2A 2755   6.161   2.052   5.103
  204POPC   C3A 2756   6.231   2.259   5.466
  204POPC   C4A 2757   6.163   2.099   5.875
  204POPC   C1B 2758   6.426   1.836   4.725
  204POPC   C2B 2759   6.604   1.803   5.146
  204POPC   C3B 2760   6.469   1.796   5.579
  204POPC   C4B 2761   6.771   1.601   5.845
  205POPC   NC3 2762   1.799   3.386   3.831
  205POPC   PO4 2763   1.584   2.837   3.824
  205POPC   GL1 2764   1.737   3.100   4.242
  205POPC   GL2 2765   1.711   3.520   4.307
  205POPC   C1A 2766   1.686   3.198   4.695
  205POPC   D2A 2767   1.792   3.040   5.092
  205POPC   C3A 2768   1.818   3.296   5.420
  205POPC   C4A 2769   2.193   3.130   5.607
  205POPC   C1B 2770   2.012   3.597   4.675
  205POPC   C2B 2771   1.956   3.750   5.125
  205POPC   C3B 2772   2.167   3.644   5.528
  205POPC   C4B 2773   1.949   3.476   5.915
  206POPC   NC3 2774   6.345   3.547   3.915
  206POPC   PO4 2775   6.840   3.863   3.911
  206POPC   GL1 2776   6.674   3.715   4.330
  206POPC   GL2 2777   6.421   3.472   4.401
  206POPC   C1A 2778   6.623   3.695   4.809
  206POPC   D2A 2779   6.575   3.435   5.174
  206POPC   C3A 2780   6.515   3.705   5.574
  206POPC   C4A 2781   6.408   3.893   6.010
  206POPC   C1B 2782   6.216   3.348   4.778
  206POPC   C2B 2783   6.145   3.160   5.196
  206POPC   C3B 2784   6.298   3.256   5.605
  206POPC   C4B 2785   6.053   3.536   5.825
  207POPC   NC3 2786   9.844   7.402   3.827
  207POPC   PO4 2787   0.084   7.494   3.817
  207POPC   GL1 2788  10.366   7.359   4.189
  207POPC   GL2 2789  10.151   7.082   4.232
  207POPC   C1A 2790  10.417   7.246   4.634
  207POPC   D2A 2791  10.346   7.117   5.062
  207POPC   C3A 2792  10.270   7.411   5.393
  207POPC   C4A 2793  10.465   7.374   5.792
  207POPC   C1B 2794   9.904   7.249   4.554
  207POPC   C2B 2795   9.767   7.123   4.956
  207POPC   C3B 2796   9.842   7.087   5.384
  207POPC   C4B 2797  10.103   7.045   5.743
  208POPC   NC3 2798   0.132  10.002   3.684
  208POPC   PO4 2799   0.446   0.080   3.896
  208POPC   GL1 2800   0.264  10.374   4.253
  208POPC   GL2 2801   0.322  10.041   4.169
  208POPC   C1A 2802   0.221  10.478   4.712
  208POPC   D2A 2803   0.498  10.499   5.097
  208POPC   C3A 2804   0.456  10.254   5.484
  208POPC   C4A 2805   0.215  10.288   5.857
  208POPC   C1B 2806   0.475  10.040   4.605
  208POPC   C2B 2807   0.443   9.806   4.990
  208POPC   C3B 2808   0.236   9.740   5.396
  208POPC   C4B 2809   0.362   9.803   5.812
  209POPC   NC3 2810   3.880   0.428   3.987
  209POPC   PO4 2811   4.280   0.790   3.663
  209POPC   GL1 2812   4.310   0.653   4.155
  209POPC   GL2 2813   4.246   0.311   4.327
  209POPC   C1A 2814   4.348   0.715   4.614
  209POPC   D2A 2815   4.170   0.715   5.043
  209POPC   C3A 2816   4.364   0.606   5.416
  209POPC   C4A 2817   4.316   0.536   5.816
  209POPC   C1B 2818   3.995   0.332   4.716
  209POPC   C2B 2819   4.096   0.212   5.147
  209POPC   C3B 2820   3.911   0.359   5.537
  209POPC   C4B 2821   3.935   0.251   5.980
  210POPC   NC3 2822   1.938   8.183   3.800
  210POPC   PO4 2823   2.143   7.489   3.732
  210POPC   GL1 2824   2.138   7.621   4.180
  210POPC   GL2 2825   2.023   7.983   4.282
  210POPC   C1A 2826   2.307   7.632   4.606
  210POPC   D2A 2827   2.438   7.765   5.030
  210POPC   C3A 2828   2.236   7.625   5.419
  210POPC   C4A 2829   2.101   7.529   5.830
  210POPC   C1B 2830   1.962   7.974   4.748
  210POPC   C2B 2831   2.013   8.017   5.185
  210POPC   C3B 2832   1.794   7.895   5.526
  210POPC   C4B 2833   1.665   7.803   5.934
  211POPC   NC3 2834   1.734   9.730   4.001
  211POPC   PO4 2835   2.034  10.330   3.811
  211POPC   GL1 2836   1.915  10.185   4.210
  211POPC   GL2 2837   1.538  10.191   4.207
  211POPC   C1A 2838   2.065  10.165   4.653
  211POPC   D2A 2839   2.196  10.348   5.067
  211POPC   C3A 2840   2.083  10.112   5.439
  211POPC   C4A 2841   1.977  10.274   5.802
  211POPC   C1B 2842   1.494  10.190   4.658
  211POPC   C2B 2843   1.723  10.153   5.047
  211POPC   C3B 2844   1.573  10.188   5.458
  211POPC   C4B 2845   1.694   9.861   5.733
  212POPC   NC3 2846   2.339   5.646   3.832
  212POPC   PO4 2847   1.720   5.357   3.711
  212POPC   GL1 2848   1.841   5.502   4.155
  212POPC   GL2 2849   1.505   5.524   4.321
  212POPC   C1A 2850   1.950   5.557   4.643
  212POPC   D2A 2851   2.198   5.841   4.968
  212POPC   C3A 2852   2.316   5.775   5.432
  212POPC   C4A 2853   2.211   5.612   5.859
  212POPC   C1B 2854   1.512   5.805   4.679
  212POPC   C2B 2855   1.718   5.785   5.083
  212POPC   C3B 2856   1.835   5.608   5.518
  212POPC   C4B 2857   1.764   5.810   5.907
  213POPC   NC3 2858   3.106   9.522   3.928
  213POPC   PO4 2859   3.736   9.120   3.773
  213POPC   GL1 2860   3.698   9.259   4.246
  213POPC   GL2 2861   3.598   9.611   4.316
  213POPC   C1A 2862   3.606   9.175   4.695
  213POPC   D2A 2863   3.705   9.101   5.121
  213POPC   C3A 2864   3.646   9.458   5.350
  213POPC   C4A 2865   3.508   9.414   5.776
  213POPC   C1B 2866   3.310   9.588   4.653
  213POPC   C2B 2867   3.215   9.339   5.038
  213POPC   C3B 2868   3.147   9.497   5.442
  213POPC   C4B 2869   2.986   9.754   5.796
  214POPC   NC3 2870   1.788   7.196   3.744
  214POPC   PO4 2871   2.244   6.787   3.886
  214POPC   GL1 2872   2.096   6.962   4.243
  214POPC   GL2 2873   1.831   7.200   4.246
  214POPC   C1A 2874   2.137   7.151   4.654
  214POPC   D2A 2875   2.322   7.269   5.027
  214POPC   C3A 2876   2.171   7.111   5.427
  214POPC   C4A 2877   2.065   7.011   5.862
  214POPC   C1B 2878   1.772   7.515   4.595
  214POPC   C2B 2879   1.860   7.541   5.063
  214POPC   C3B 2880   1.732   7.381   5.503
  214POPC   C4B 2881   1.632   7.292   5.958
  215POPC   NC3 2882   1.801   6.478   3.971
  215POPC   PO4 2883   2.366   6.089   3.933
  215POPC   GL1 2884   2.049   6.102   4.214
  215POPC   GL2 2885   2.195   6.437   4.298
  215POPC   C1A 2886   1.920   6.120   4.648
  215POPC   D2A 2887   1.833   6.319   5.056
  215POPC   C3A 2888   1.878   6.107   5.442
  215POPC   C4A 2889   2.124   6.130   5.780
  215POPC   C1B 2890   2.043   6.636   4.664
  215POPC   C2B 2891   2.179   6.729   5.084
  215POPC   C3B 2892   2.112   6.601   5.532
  215POPC   C4B 2893   1.732   6.511   5.731
  216POPC   NC3 2894   4.641   2.101   4.096
  216POPC   PO4 2895   5.271   1.851   4.026
  216POPC   GL1 2896   5.211   1.978   4.405
  216POPC   GL2 2897   4.893   2.079   4.529
  216POPC   C1A 2898   5.185   1.703   4.755
  216POPC   D2A 2899   4.969   1.785   5.115
  216POPC   C3A 2900   5.243   1.648   5.394
  216POPC   C4A 2901   5.403   1.851   5.698
  216POPC   C1B 2902   4.810   2.388   4.843
  216POPC   C2B 2903   4.849   2.405   5.298
  216POPC   C3B 2904   4.915   2.047   5.582
  216POPC   C4B 2905   4.652   1.800   5.829
  217POPC   NC3 2906   7.913   9.958   3.838
  217POPC   PO4 2907   7.591   0.196   3.879
  217POPC   GL1 2908   7.791   0.196   4.282
  217POPC   GL2 2909   8.050  10.458   4.219
  217POPC   C1A 2910   7.742   0.091   4.718
  217POPC   D2A 2911   7.986  10.444   5.072
  217POPC   C3A 2912   7.742  10.363   5.417
  217POPC   C4A 2913   7.589  10.464   5.805
  217POPC   C1B 2914   8.081  10.198   4.606
  217POPC   C2B 2915   8.211   9.968   4.963
  217POPC   C3B 2916   8.134   9.844   5.364
  217POPC   C4B 2917   8.038  10.069   5.722
  218POPC   NC3 2918   4.972   7.701   3.947
  218POPC   PO4 2919   4.594   8.003   4.253
  218POPC   GL1 2920   4.955   7.917   4.451
  218POPC   GL2 2921   4.966   8.255   4.529
  218POPC   C1A 2922   4.956   7.747   4.893
  218POPC   D2A 2923   4.727   7.581   5.270
  218POPC   C3A 2924   4.887   7.603   5.703
  218POPC   C4A 2925   4.806   7.390   6.144
  218POPC   C1B 2926   4.652   8.172   4.872
  218POPC   C2B 2927   4.620   8.099   5.311
  218POPC   C3B 2928   4.815   8.300   5.645
  218POPC   C4B 2929   5.193   8.167   5.866
  219POPC   NC3 2930   2.694   8.672   3.977
  219POPC   PO4 2931   3.232   9.139   4.147
  219POPC   GL1 2932   3.037   8.742   4.333
  219POPC   GL2 2933   2.685   8.824   4.444
  219POPC   C1A 2934   2.922   8.445   4.697
  219POPC   D2A 2935   2.833   8.578   5.071
  219POPC   C3A 2936   2.958   8.395   5.409
  219POPC   C4A 2937   2.965   8.715   5.690
  219POPC   C1B 2938   2.427   8.694   4.787
  219POPC   C2B 2939   2.339   8.824   5.176
  219POPC   C3B 2940   2.488   8.631   5.513
  219POPC   C4B 2941   2.562   8.405   5.858
  220POPC   NC3 2942   6.304   7.187   4.110
  220POPC   PO4 2943   6.907   7.414   3.985
  220POPC   GL1 2944   6.738   7.403   4.395
  220POPC   GL2 2945   6.671   7.070   4.513
  220POPC   C1A 2946   6.729   7.449   4.851
  220POPC   D2A 2947   6.641   7.158   5.165
  220POPC   C3A 2948   6.564   7.314   5.548
  220POPC   C4A 2949   6.488   7.179   5.951
  220POPC   C1B 2950   6.290   7.124   4.802
  220POPC   C2B 2951   6.115   7.123   5.246
  220POPC   C3B 2952   6.180   6.878   5.619
  220POPC   C4B 2953   5.860   6.630   5.858
  221POPC   NC3 2954   0.969   4.601   3.915
  221POPC   PO4 2955   1.157   5.258   4.032
  221POPC   GL1 2956   1.190   5.065   4.363
  221POPC   GL2 2957   1.285   4.736   4.302
  221POPC   C1A 2958   1.328   5.039   4.746
  221POPC   D2A 2959   1.534   5.333   4.948
  221POPC   C3A 2960   1.504   5.223   5.362
  221POPC   C4A 2961   1.508   4.943   5.736
  221POPC   C1B 2962   0.945   4.685   4.599
  221POPC   C2B 2963   0.913   4.887   5.001
  221POPC   C3B 2964   1.115   4.828   5.405
  221POPC   C4B 2965   1.025   5.131   5.730
  222POPC   NC3 2966   3.015   0.635   4.037
  222POPC   PO4 2967   2.407   0.258   4.044
  222POPC   GL1 2968   2.579   0.321   4.406
  222POPC   GL2 2969   2.951   0.243   4.333
  222POPC   C1A 2970   2.361   0.246   4.792
  222POPC   D2A 2971   2.361   0.315   5.220
  222POPC   C3A 2972   2.368   0.048   5.554
  222POPC   C4A 2973   2.571   0.223   5.891
  222POPC   C1B 2974   2.945   0.528   4.699
  222POPC   C2B 2975   2.799   0.555   5.120
  222POPC   C3B 2976   2.834   0.742   5.518
  222POPC   C4B 2977   2.781   0.713   5.967
  223POPC   NC3 2978   8.511   5.734   3.927
  223POPC   PO4 2979   9.212   5.640   4.007
  223POPC   GL1 2980   8.863   5.630   4.292
  223POPC   GL2 2981   8.693   5.946   4.370
  223POPC   C1A 2982   8.723   5.494   4.678
  223POPC   D2A 2983   8.917   5.286   5.011
  223POPC   C3A 2984   8.837   5.318   5.428
  223POPC   C4A 2985   8.808   5.403   5.832
  223POPC   C1B 2986   8.874   5.975   4.803
  223POPC   C2B 2987   9.062   5.744   5.143
  223POPC   C3B 2988   8.984   5.847   5.567
  223POPC   C4B 2989   8.596   5.972   5.766
  224POPC   NC3 2990   3.383  10.375   3.953
  224POPC   PO4 2991   2.832   9.932   3.868
  224POPC   GL1 2992   3.171   9.925   4.256
  224POPC   GL2 2993   3.498  10.129   4.411
  224POPC   C1A 2994   3.092  10.044   4.708
  224POPC   D2A 2995   3.235  10.225   5.093
  224POPC   C3A 2996   3.281  10.019   5.484
  224POPC   C4A 2997   3.355  10.076   5.940
  224POPC   C1B 2998   3.730  10.360   4.799
  224POPC   C2B 2999   3.609   0.073   5.187
  224POPC   C3B 3000   3.508   0.007   5.621
  224POPC   C4B 3001   3.802  10.291   5.891
  225POPC   NC3 3002   6.697  10.236   3.929
  225POPC   PO4 3003   6.046  10.048   3.935
  225POPC   GL1 3004   6.278  10.198   4.301
  225POPC   GL2 3005   6.626  10.318   4.408
  225POPC   C1A 3006   6.290  10.169   4.751
  225POPC   D2A 3007   6.163  10.018   5.155
  225POPC   C3A 3008   6.328  10.359   5.434
  225POPC   C4A 3009   6.221  10.461   5.863
  225POPC   C1B 3010   6.815  10.148   4.768
  225POPC   C2B 3011   6.681  10.085   5.160
  225POPC   C3B 3012   6.736   9.906   5.545
  225POPC   C4B 3013   6.655  10.208   5.835
  226POPC   NC3 3014   6.532   8.688   3.912
  226POPC   PO4 3015   6.873   8.173   4.022
  226POPC   GL1 3016   6.647   8.420   4.375
  226POPC   GL2 3017   6.300   8.565   4.344
  226POPC   C1A 3018   6.476   8.491   4.823
  226POPC   D2A 3019   6.652   8.672   5.201
  226POPC   C3A 3020   6.411   8.510   5.526
  226POPC   C4A 3021   6.358   8.481   5.992
  226POPC   C1B 3022   6.149   8.858   4.666
  226POPC   C2B 3023   6.280   8.982   5.073
  226POPC   C3B 3024   6.080   9.015   5.472
  226POPC   C4B 3025   5.954   8.626   5.692
  227POPC   NC3 3026   7.135   1.871   3.868
  227POPC   PO4 3027   6.692   2.361   3.973
  227POPC   GL1 3028   6.941   2.158   4.305
  227POPC   GL2 3029   7.020   1.813   4.362
  227POPC   C1A 3030   6.869   2.048   4.760
  227POPC   D2A 3031   7.072   2.134   5.121
  227POPC   C3A 3032   6.872   2.098   5.537
  227POPC   C4A 3033   7.067   2.220   5.924
  227POPC   C1B 3034   7.356   1.973   4.672
  227POPC   C2B 3035   7.535   1.885   5.077
  227POPC   C3B 3036   7.411   2.034   5.473
  227POPC   C4B 3037   7.275   1.777   5.813
  228POPC   NC3 3038   9.441   1.300   3.914
  228POPC   PO4 3039  10.046   1.459   3.856
  228POPC   GL1 3040   9.807   1.470   4.232
  228POPC   GL2 3041   9.738   1.107   4.288
  228POPC   C1A 3042   9.823   1.426   4.702
  228POPC   D2A 3043   9.837   1.113   5.037
  228POPC   C3A 3044   9.722   1.184   5.438
  228POPC   C4A 3045   9.766   1.515   5.704
  228POPC   C1B 3046   9.387   1.201   4.537
  228POPC   C2B 3047   9.325   1.156   4.961
  228POPC   C3B 3048   9.232   1.133   5.391
  228POPC   C4B 3049   9.292   1.316   5.835
  229POPC   NC3 3050   9.319   5.150   4.010
  229POPC   PO4 3051   9.858   5.397   3.859
  229POPC   GL1 3052   9.771   5.062   4.261
  229POPC   GL2 3053   9.528   4.765   4.288
  229POPC   C1A 3054   9.705   4.948   4.731
  229POPC   D2A 3055   9.665   4.745   5.151
  229POPC   C3A 3056   9.703   5.064   5.452
  229POPC   C4A 3057   9.626   5.208   5.886
  229POPC   C1B 3058   9.203   4.978   4.595
  229POPC   C2B 3059   9.221   4.907   4.956
  229POPC   C3B 3060   9.213   4.954   5.347
  229POPC   C4B 3061   9.177   5.045   5.734
  230POPC   NC3 3062   7.106   0.526   3.804
  230POPC   PO4 3063   7.685   0.831   3.956
  230POPC   GL1 3064   7.426   0.576   4.246
  230POPC   GL2 3065   7.053   0.499   4.322
  230POPC   C1A 3066   7.355   0.545   4.700
  230POPC   D2A 3067   7.121   0.600   5.075
  230POPC   C3A 3068   7.382   0.750   5.432
  230POPC   C4A 3069   7.469   0.502   5.821
  230POPC   C1B 3070   7.002   0.174   4.708
  230POPC   C2B 3071   7.324   0.118   5.031
  230POPC   C3B 3072   7.370   0.221   5.410
  230POPC   C4B 3073   7.033   0.405   5.580
  231POPC   NC3 3074   1.960   4.366   3.950
  231POPC   PO4 3075   2.096   3.696   3.965
  231POPC   GL1 3076   2.045   3.994   4.315
  231POPC   GL2 3077   1.683   4.080   4.304
  231POPC   C1A 3078   2.072   4.321   4.675
  231POPC   D2A 3079   2.098   4.499   5.120
  231POPC   C3A 3080   2.169   4.160   5.439
  231POPC   C4A 3081   2.368   4.002   5.826
  231POPC   C1B 3082   1.684   3.980   4.733
  231POPC   C2B 3083   1.663   4.272   5.062
  231POPC   C3B 3084   1.699   4.343   5.516
  231POPC   C4B 3085   1.800   3.944   5.744
  232POPC   NC3 3086   2.491   7.194   3.867
  232POPC   PO4 3087   3.013   7.621   3.873
  232POPC   GL1 3088   2.764   7.445   4.261
  232POPC   GL2 3089   2.589   7.101   4.344
  232POPC   C1A 3090   2.738   7.376   4.728
  232POPC   D2A 3091   2.933   7.376   5.109
  232POPC   C3A 3092   2.650   7.330   5.409
  232POPC   C4A 3093   2.520   7.239   5.773
  232POPC   C1B 3094   2.547   6.863   4.727
  232POPC   C2B 3095   2.654   6.895   5.161
  232POPC   C3B 3096   2.597   6.762   5.605
  232POPC   C4B 3097   2.509   6.852   6.079
  233POPC   NC3 3098   3.971   1.364   3.985
  233POPC   PO4 3099   3.281   1.346   3.921
  233POPC   GL1 3100   3.527   1.223   4.231
  233POPC   GL2 3101   3.438   0.905   4.255
  233POPC   C1A 3102   3.610   1.328   4.632
  233POPC   D2A 3103   3.415   1.407   5.016
  233POPC   C3A 3104   3.648   1.458   5.392
  233POPC   C4A 3105   3.675   1.289   5.777
  233POPC   C1B 3106   3.244   0.960   4.645
  233POPC   C2B 3107   3.217   0.888   5.077
  233POPC   C3B 3108   3.224   1.142   5.432
  233POPC   C4B 3109   3.225   0.941   5.796
  234POPC   NC3 3110   2.024   8.796   3.712
  234POPC   PO4 3111   2.202   8.950   4.272
  234POPC   GL1 3112   1.933   8.774   4.569
  234POPC   GL2 3113   1.746   8.423   4.577
  234POPC   C1A 3114   1.903   8.980   4.932
  234POPC   D2A 3115   1.770   8.989   5.308
  234POPC   C3A 3116   2.090   9.027   5.590
  234POPC   C4A 3117   2.197   8.774   5.912
  234POPC   C1B 3118   1.983   8.464   4.955
  234POPC   C2B 3119   1.984   8.502   5.402
  234POPC   C3B 3120   1.863   8.389   5.821
  234POPC   C4B 3121   2.169   8.357   6.206
  235POPC   NC3 3122   6.823   2.783   4.134
  235POPC   PO4 3123   7.422   3.050   3.905
  235POPC   GL1 3124   7.319   2.864   4.279
  235POPC   GL2 3125   7.338   2.496   4.227
  235POPC   C1A 3126   7.264   2.961   4.699
  235POPC   D2A 3127   7.479   2.937   5.078
  235POPC   C3A 3128   7.293   3.009   5.492
  235POPC   C4A 3129   7.348   3.001   5.942
  235POPC   C1B 3130   7.150   2.462   4.656
  235POPC   C2B 3131   7.035   2.642   5.048
  235POPC   C3B 3132   7.136   2.522   5.465
  235POPC   C4B 3133   6.965   2.700   5.836
  236POPC   NC3 3134   7.186   3.599   3.789
  236POPC   PO4 3135   7.819   3.690   3.806
  236POPC   GL1 3136   7.430   3.522   4.196
  236POPC   GL2 3137   7.066   3.320   4.199
  236POPC   C1A 3138   7.367   3.462   4.635
  236POPC   D2A 3139   7.622   3.422   5.005
  236POPC   C3A 3140   7.474   3.482   5.397
  236POPC   C4A 3141   7.358   3.512   5.807
  236POPC   C1B 3142   6.864   3.272   4.621
  236POPC   C2B 3143   7.067   3.286   5.054
  236POPC   C3B 3144   6.970   3.421   5.483
  236POPC   C4B 3145   6.881   3.201   5.839
  237POPC   NC3 3146   2.478   3.544   3.715
  237POPC   PO4 3147   3.053   3.871   3.921
  237POPC   GL1 3148   2.775   3.609   4.268
  237POPC   GL2 3149   2.431   3.444   4.262
  237POPC   C1A 3150   2.489   3.808   4.638
  237POPC   D2A 3151   2.454   3.688   5.082
  237POPC   C3A 3152   2.672   3.868   5.433
  237POPC   C4A 3153   2.827   3.754   5.848
  237POPC   C1B 3154   2.557   3.313   4.706
  237POPC   C2B 3155   2.427   3.189   5.136
  237POPC   C3B 3156   2.626   3.359   5.518
  237POPC   C4B 3157   2.445   3.430   5.930
  238POPC   NC3 3158   9.621   0.467   3.811
  238POPC   PO4 3159   9.151   0.052   3.898
  238POPC   GL1 3160   9.437   0.262   4.234
  238POPC   GL2 3161   9.601   0.608   4.295
  238POPC   C1A 3162   9.371   0.319   4.657
  238POPC   D2A 3163   9.164   0.406   4.981
  238POPC   C3A 3164   9.289   0.258   5.355
  238POPC   C4A 3165   9.133   0.356   5.757
  238POPC   C1B 3166   9.612   0.785   4.722
  238POPC   C2B 3167   9.508   0.732   5.169
  238POPC   C3B 3168   9.462   0.737   5.600
  238POPC   C4B 3169   9.297   0.772   6.003
  239POPC   NC3 3170   8.523   8.477   4.013
  239POPC   PO4 3171   9.174   8.639   4.068
  239POPC   GL1 3172   9.007   8.608   4.456
  239POPC   GL2 3173   8.687   8.694   4.465
  239POPC   C1A 3174   8.954   8.607   4.896
  239POPC   D2A 3175   9.005   8.312   5.217
  239POPC   C3A 3176   8.975   8.624   5.535
  239POPC   C4A 3177   8.836   8.813   5.929
  239POPC   C1B 3178   8.416   8.614   4.790
  239POPC   C2B 3179   8.523   8.493   5.191
  239POPC   C3B 3180   8.467   8.629   5.557
  239POPC   C4B 3181   8.358   8.944   5.776
  240POPC   NC3 3182   1.934   0.209   4.028
  240POPC   PO4 3183   1.825   0.807   3.831
  240POPC   GL1 3184   2.134   0.655   4.218
  240POPC   GL2 3185   1.929   0.484   4.459
  240POPC   C1A 3186   2.305   0.739   4.669
  240POPC   D2A 3187   1.980   0.566   4.993
  240POPC   C3A 3188   2.036   0.605   5.458
  240POPC   C4A 3189   2.194   0.633   5.902
  240POPC   C1B 3190   1.840   0.126   4.716
  240POPC   C2B 3191   1.632   0.143   5.094
  240POPC   C3B 3192   1.874   0.112   5.417
  240POPC   C4B 3193   1.887   0.260   5.812
  241POPC   NC3 3194   4.298   3.650   3.899
  241POPC   PO4 3195   4.694   3.255   3.899
  241POPC   GL1 3196   4.457   3.301   4.293
  241POPC   GL2 3197   4.141   3.144   4.342
  241POPC   C1A 3198   4.404   3.312   4.768
  241POPC   D2A 3199   4.442   3.354   5.225
  241POPC   C3A 3200   4.338   3.739   5.507
  241POPC   C4A 3201   4.276   4.047   5.889
  241POPC   C1B 3202   3.962   3.050   4.701
  241POPC   C2B 3203   3.930   3.176   5.117
  241POPC   C3B 3204   4.053   3.292   5.541
  241POPC   C4B 3205   4.407   3.334   5.811
  242POPC   NC3 3206   0.383   8.717   3.973
  242POPC   PO4 3207   0.756   8.145   3.823
  242POPC   GL1 3208   0.769   8.361   4.268
  242POPC   GL2 3209   0.449   8.489   4.412
  242POPC   C1A 3210   0.840   8.732   4.600
  242POPC   D2A 3211   0.588   8.939   4.976
  242POPC   C3A 3212   0.660   8.860   5.461
  242POPC   C4A 3213   0.475   8.490   5.738
  242POPC   C1B 3214   0.112   8.726   4.594
  242POPC   C2B 3215   0.052   8.871   4.989
  242POPC   C3B 3216   0.192   8.711   5.348
  242POPC   C4B 3217   0.137   8.855   5.746
  243POPC   NC3 3218   1.230   2.582   3.995
  243POPC   PO4 3219   1.317   3.374   3.831
  243POPC   GL1 3220   1.225   3.171   4.189
  243POPC   GL2 3221   1.181   3.514   4.309
  243POPC   C1A 3222   1.190   3.063   4.624
  243POPC   D2A 3223   0.880   3.177   4.932
  243POPC   C3A 3224   0.905   3.119   5.361
  243POPC   C4A 3225   0.925   3.223   5.778
  243POPC   C1B 3226   1.334   3.580   4.697
  243POPC   C2B 3227   1.354   3.383   5.080
  243POPC   C3B 3228   1.218   3.493   5.471
  243POPC   C4B 3229   1.463   3.419   5.789
  244POPC   NC3 3230   6.040   2.833   4.099
  244POPC   PO4 3231   5.479   2.817   3.905
  244POPC   GL1 3232   5.534   2.837   4.330
  244POPC   GL2 3233   5.686   2.507   4.316
  244POPC   C1A 3234   5.477   3.006   4.781
  244POPC   D2A 3235   5.704   2.861   5.204
  244POPC   C3A 3236   5.716   3.044   5.626
  244POPC   C4A 3237   5.493   3.267   5.998
  244POPC   C1B 3238   5.753   2.588   4.756
  244POPC   C2B 3239   5.760   2.359   5.136
  244POPC   C3B 3240   5.769   2.477   5.590
  244POPC   C4B 3241   6.035   2.578   5.970
  245POPC   NC3 3242   0.229   4.495   3.942
  245POPC   PO4 3243   0.762   4.960   3.729
  245POPC   GL1 3244   0.723   4.993   4.184
  245POPC   GL2 3245   0.502   4.783   4.394
  245POPC   C1A 3246   0.708   5.178   4.618
  245POPC   D2A 3247   0.461   5.105   5.003
  245POPC   C3A 3248   0.620   4.981   5.419
  245POPC   C4A 3249   0.675   4.641   5.688
  245POPC   C1B 3250   0.133   4.867   4.694
  245POPC   C2B 3251   0.060   4.777   5.141
  245POPC   C3B 3252   0.149   4.819   5.581
  245POPC   C4B 3253   0.163   5.126   5.896
  246POPC   NC3 3254   4.355  10.142   3.950
  246POPC   PO4 3255   3.663  10.011   3.916
  246POPC   GL1 3256   3.960   9.978   4.217
  246POPC   GL2 3257   4.024  10.333   4.287
  246POPC   C1A 3258   3.935   9.923   4.629
  246POPC   D2A 3259   3.602   9.888   4.939
  246POPC   C3A 3260   3.762  10.071   5.310
  246POPC   C4A 3261   3.744   9.842   5.686
  246POPC   C1B 3262   4.237  10.356   4.681
  246POPC   C2B 3263   4.418  10.061   4.986
  246POPC   C3B 3264   4.297  10.052   5.413
  246POPC   C4B 3265   4.216  10.453   5.633
  247POPC   NC3 3266   6.241   9.611   3.990
  247POPC   PO4 3267   6.828   9.826   4.075
  247POPC   GL1 3268   6.527   9.777   4.425
  247POPC   GL2 3269   6.311   9.463   4.463
  247POPC   C1A 3270   6.466   9.713   4.874
  247POPC   D2A 3271   6.145   9.463   5.038
  247POPC   C3A 3272   6.150   9.546   5.451
  247POPC   C4A 3273   6.233   9.932   5.676
  247POPC   C1B 3274   6.578   9.250   4.733
  247POPC   C2B 3275   6.745   9.203   5.155
  247POPC   C3B 3276   6.673   9.360   5.601
  247POPC   C4B 3277   6.674   9.290   6.075
  248POPC   NC3 3278   0.877   6.997   4.106
  248POPC   PO4 3279   1.499   6.857   3.920
  248POPC   GL1 3280   1.336   7.071   4.315
  248POPC   GL2 3281   1.124   7.401   4.324
  248POPC   C1A 3282   1.170   7.029   4.735
  248POPC   D2A 3283   1.265   6.960   5.162
  248POPC   C3A 3284   0.897   6.933   5.388
  248POPC   C4A 3285   0.876   7.022   5.791
  248POPC   C1B 3286   1.239   7.546   4.748
  248POPC   C2B 3287   1.352   7.607   5.189
  248POPC   C3B 3288   1.214   7.340   5.532
  248POPC   C4B 3289   1.372   6.919   5.696
  249POPC   NC3 3290   4.145   7.106   3.853
  249POPC   PO4 3291   4.618   7.472   3.778
  249POPC   GL1 3292   4.488   7.443   4.217
  249POPC   GL2 3293   4.170   7.276   4.334
  249POPC   C1A 3294   4.517   7.382   4.688
  249POPC   D2A 3295   4.384   7.089   5.023
  249POPC   C3A 3296   4.316   7.285   5.382
  249POPC   C4A 3297   4.539   7.244   5.737
  249POPC   C1B 3298   3.970   7.101   4.715
  249POPC   C2B 3299   3.879   7.104   5.181
  249POPC   C3B 3300   4.069   6.876   5.532
  249POPC   C4B 3301   4.312   6.607   5.823
  250POPC   NC3 3302   4.784   8.324   3.977
  250POPC   PO4 3303   4.700   8.962   3.987
  250POPC   GL1 3304   4.907   8.725   4.310
  250POPC   GL2 3305   5.227   8.559   4.171
  250POPC   C1A 3306   4.916   8.756   4.771
  250POPC   D2A 3307   4.838   8.576   5.181
  250POPC   C3A 3308   4.801   8.802   5.592
  250POPC   C4A 3309   4.739   8.874   6.045
  250POPC   C1B 3310   5.365   8.550   4.593
  250POPC   C2B 3311   5.429   8.609   5.034
  250POPC   C3B 3312   5.253   8.507   5.465
  250POPC   C4B 3313   5.200   8.686   5.881
  251POPC   NC3 3314   7.776   5.107   4.325
  251POPC   PO4 3315   8.276   5.293   3.946
  251POPC   GL1 3316   8.283   5.183   4.348
  251POPC   GL2 3317   8.287   4.839   4.359
  251POPC   C1A 3318   8.217   5.322   4.753
  251POPC   D2A 3319   7.910   5.114   5.065
  251POPC   C3A 3320   7.877   5.205   5.501
  251POPC   C4A 3321   7.913   5.307   5.934
  251POPC   C1B 3322   8.159   4.817   4.755
  251POPC   C2B 3323   8.264   4.704   5.120
  251POPC   C3B 3324   8.007   4.654   5.445
  251POPC   C4B 3325   7.864   4.801   5.814
  252POPC   NC3 3326   7.591   9.018   3.725
  252POPC   PO4 3327   8.149   8.583   3.750
  252POPC   GL1 3328   7.904   8.752   4.129
  252POPC   GL2 3329   8.212   8.791   4.301
  252POPC   C1A 3330   7.845   8.865   4.621
  252POPC   D2A 3331   8.038   9.023   5.000
  252POPC   C3A 3332   7.963   8.884   5.423
  252POPC   C4A 3333   7.876   9.052   5.873
  252POPC   C1B 3334   8.031   8.400   4.549
  252POPC   C2B 3335   8.149   8.169   4.949
  252POPC   C3B 3336   8.095   8.309   5.391
  252POPC   C4B 3337   8.016   8.554   5.796
  253POPC   NC3 3338   8.832   1.211   3.999
  253POPC   PO4 3339   8.395   0.704   3.827
  253POPC   GL1 3340   8.393   1.053   4.206
  253POPC   GL2 3341   8.656   0.943   4.428
  253POPC   C1A 3342   8.410   1.392   4.593
  253POPC   D2A 3343   8.432   1.657   5.003
  253POPC   C3A 3344   8.394   1.447   5.427
  253POPC   C4A 3345   8.395   1.014   5.625
  253POPC   C1B 3346   8.899   1.279   4.669
  253POPC   C2B 3347   8.913   1.447   5.089
  253POPC   C3B 3348   8.891   1.449   5.535
  253POPC   C4B 3349   8.892   1.020   5.786
  254POPC   NC3 3350   1.357   5.630   3.834
  254POPC   PO4 3351   0.759   5.942   3.764
  254POPC   GL1 3352   1.019   5.980   4.122
  254POPC   GL2 3353   0.937   5.656   4.242
  254POPC   C1A 3354   1.063   6.027   4.585
  254POPC   D2A 3355   0.819   6.038   4.977
  254POPC   C3A 3356   0.973   6.015   5.396
  254POPC   C4A 3357   0.983   5.740   5.774
  254POPC   C1B 3358   1.099   5.506   4.647
  254POPC   C2B 3359   1.143   5.646   5.057
  254POPC   C3B 3360   1.361   5.712   5.428
  254POPC   C4B 3361   1.419   5.465   5.792
  255POPC   NC3 3362   7.240   9.591   3.969
  255POPC   PO4 3363   7.405   9.012   4.135
  255POPC   GL1 3364   7.208   9.290   4.386
  255POPC   GL2 3365   6.872   9.385   4.322
  255POPC   C1A 3366   7.120   9.210   4.774
  255POPC   D2A 3367   7.309   9.288   5.111
  255POPC   C3A 3368   7.153   9.078   5.447
  255POPC   C4A 3369   7.087   9.126   5.842
  255POPC   C1B 3370   6.936   9.658   4.683
  255POPC   C2B 3371   6.963   9.668   5.108
  255POPC   C3B 3372   7.149   9.596   5.498
  255POPC   C4B 3373   7.007   9.636   5.924
  256POPC   NC3 3374   0.444   3.726   4.136
  256POPC   PO4 3375   0.647   3.187   3.809
  256POPC   GL1 3376   0.422   3.197   4.191
  256POPC   GL2 3377   0.708   3.338   4.346
  256POPC   C1A 3378   0.261   3.268   4.600
  256POPC   D2A 3379   0.376   3.483   4.995
  256POPC   C3A 3380   0.202   3.344   5.391
  256POPC   C4A 3381   0.429   3.271   5.760
  256POPC   C1B 3382   0.797   3.629   4.686
  256POPC   C2B 3383   0.894   3.644   5.101
  256POPC   C3B 3384   0.693   3.592   5.454
  256POPC   C4B 3385   0.833   3.714   5.843
  257POPC   NC3 3386   7.240   0.077   4.139
  257POPC   PO4 3387   7.465   9.997   3.975
  257POPC   GL1 3388   7.311   9.841   4.387
  257POPC   GL2 3389   7.106  10.131   4.358
  257POPC   C1A 3390   7.413   9.744   4.832
  257POPC   D2A 3391   7.706   9.974   5.076
  257POPC   C3A 3392   7.609   9.854   5.495
  257POPC   C4A 3393   7.263  10.042   5.749
  257POPC   C1B 3394   7.334  10.223   4.733
  257POPC   C2B 3395   7.217  10.127   5.182
  257POPC   C3B 3396   6.982  10.384   5.478
  257POPC   C4B 3397   7.095   0.014   5.905
  258POPC   NC3 3398   0.154   3.693   3.669
  258POPC   PO4 3399   0.679   4.075   3.937
  258POPC   GL1 3400   0.471   4.209   4.333
  258POPC   GL2 3401   0.181   4.399   4.456
  258POPC   C1A 3402   0.359   3.987   4.712
  258POPC   D2A 3403   0.529   3.987   5.087
  258POPC   C3A 3404   0.265   3.865   5.363
  258POPC   C4A 3405   0.304   3.746   5.771
  258POPC   C1B 3406   0.488   4.499   4.818
  258POPC   C2B 3407   0.753   4.436   5.191
  258POPC   C3B 3408   0.720   4.142   5.548
  258POPC   C4B 3409   0.322   4.253   5.718
  259POPC   NC3 3410   9.116   7.476   3.650
  259POPC   PO4 3411   9.640   7.803   3.927
  259POPC   GL1 3412   9.321   7.526   4.133
  259POPC   GL2 3413   9.463   7.201   4.269
  259POPC   C1A 3414   9.121   7.472   4.551
  259POPC   D2A 3415   9.144   7.539   4.981
  259POPC   C3A 3416   9.425   7.373   5.277
  259POPC   C4A 3417   9.314   7.437   5.717
  259POPC   C1B 3418   9.322   7.032   4.722
  259POPC   C2B 3419   9.357   6.780   5.132
  259POPC   C3B 3420   9.313   6.930   5.558
  259POPC   C4B 3421   9.621   7.045   5.836
  260POPC   NC3 3422   2.798   2.462   3.848
  260POPC   PO4 3423   2.331   3.070   3.821
  260POPC   GL1 3424   2.435   2.897   4.238
  260POPC   GL2 3425   2.519   2.540   4.279
  260POPC   C1A 3426   2.499   2.811   4.697
  260POPC   D2A 3427   2.807   2.877   5.012
  260POPC   C3A 3428   2.641   2.832   5.443
  260POPC   C4A 3429   2.524   2.840   5.867
  260POPC   C1B 3430   2.919   2.534   4.563
  260POPC   C2B 3431   3.217   2.523   4.904
  260POPC   C3B 3432   3.106   2.585   5.328
  260POPC   C4B 3433   2.939   2.545   5.757
  261POPC   NC3 3434   8.907   4.332   3.905
  261POPC   PO4 3435   9.565   3.932   3.912
  261POPC   GL1 3436   9.499   4.166   4.284
  261POPC   GL2 3437   9.203   4.347   4.324
  261POPC   C1A 3438   9.409   3.985   4.691
  261POPC   D2A 3439   9.495   3.747   5.060
  261POPC   C3A 3440   9.373   3.958   5.415
  261POPC   C4A 3441   9.490   3.979   5.813
  261POPC   C1B 3442   9.375   4.495   4.710
  261POPC   C2B 3443   9.197   4.461   5.155
  261POPC   C3B 3444   9.332   4.499   5.580
  261POPC   C4B 3445   9.613   4.450   5.935
  262POPC   NC3 3446   5.065   2.991   3.924
  262POPC   PO4 3447   4.529   2.507   3.892
  262POPC   GL1 3448   4.814   2.570   4.273
  262POPC   GL2 3449   5.156   2.461   4.177
  262POPC   C1A 3450   4.903   2.861   4.650
  262POPC   D2A 3451   4.830   2.945   5.116
  262POPC   C3A 3452   4.747   2.979   5.571
  262POPC   C4A 3453   4.889   3.206   5.980
  262POPC   C1B 3454   5.261   2.498   4.604
  262POPC   C2B 3455   5.251   2.643   5.052
  262POPC   C3B 3456   5.250   2.747   5.501
  262POPC   C4B 3457   5.028   2.719   5.929
  263POPC   NC3 3458   0.307   6.094   3.866
  263POPC   PO4 3459   0.680   6.691   3.835
  263POPC   GL1 3460   0.629   6.365   4.148
  263POPC   GL2 3461   0.252   6.398   4.264
  263POPC   C1A 3462   0.582   6.208   4.567
  263POPC   D2A 3463   0.501   6.461   4.946
  263POPC   C3A 3464   0.537   6.267   5.344
  263POPC   C4A 3465   0.650   6.129   5.759
  263POPC   C1B 3466   0.076   6.292   4.679
  263POPC   C2B 3467  10.474   6.467   5.037
  263POPC   C3B 3468   0.200   6.638   5.355
  263POPC   C4B 3469   0.481   6.611   5.721
  264POPC   NC3 3470   0.628   1.476   3.808
  264POPC   PO4 3471   0.890   0.830   3.743
  264POPC   GL1 3472   0.651   1.054   4.114
  264POPC   GL2 3473   0.329   1.257   4.161
  264POPC   C1A 3474   0.641   1.181   4.583
  264POPC   D2A 3475   0.525   1.032   4.989
  264POPC   C3A 3476   0.636   1.130   5.381
  264POPC   C4A 3477   0.766   0.992   5.762
  264POPC   C1B 3478   0.139   1.114   4.569
  264POPC   C2B 3479   0.070   0.857   4.925
  264POPC   C3B 3480   0.032   0.854   5.375
  264POPC   C4B 3481   0.235   1.105   5.698
  265POPC   NC3 3482   6.483   7.976   3.868
  265POPC   PO4 3483   6.027   7.542   4.018
  265POPC   GL1 3484   6.300   7.686   4.301
  265POPC   GL2 3485   6.598   7.895   4.358
  265POPC   C1A 3486   6.281   7.637   4.726
  265POPC   D2A 3487   6.320   7.572   5.158
  265POPC   C3A 3488   6.399   7.839   5.493
  265POPC   C4A 3489   6.384   7.664   5.875
  265POPC   C1B 3490   6.250   8.112   4.571
  265POPC   C2B 3491   6.323   8.071   5.026
  265POPC   C3B 3492   6.713   8.163   5.256
  265POPC   C4B 3493   6.760   8.196   5.714
  266POPC   NC3 3494   8.065   1.046   3.806
  266POPC   PO4 3495   7.679   1.501   3.659
  266POPC   GL1 3496   7.794   1.292   4.161
  266POPC   GL2 3497   7.534   1.089   4.370
  266POPC   C1A 3498   8.001   1.094   4.536
  266POPC   D2A 3499   8.092   0.921   4.948
  266POPC   C3A 3500   7.829   0.976   5.314
  266POPC   C4A 3501   7.959   1.249   5.642
  266POPC   C1B 3502   7.559   1.024   4.832
  266POPC   C2B 3503   7.491   1.362   5.132
  266POPC   C3B 3504   7.527   1.448   5.523
  266POPC   C4B 3505   7.513   1.080   5.827
  267POPC   NC3 3506   0.611   5.427   3.860
  267POPC   PO4 3507   0.209   4.941   4.036
  267POPC   GL1 3508   0.330   5.306   4.278
  267POPC   GL2 3509   0.392   5.702   4.241
  267POPC   C1A 3510   0.189   5.417   4.670
  267POPC   D2A 3511   0.004   5.310   5.040
  267POPC   C3A 3512   0.240   5.313   5.424
  267POPC   C4A 3513   0.559   5.427   5.760
  267POPC   C1B 3514   0.614   5.695   4.642
  267POPC   C2B 3515   0.515   5.621   5.091
  267POPC   C3B 3516   0.338   5.820   5.477
  267POPC   C4B 3517   0.176   6.041   5.864
  268POPC   NC3 3518   9.169   6.068   4.206
  268POPC   PO4 3519   8.617   6.207   3.840
  268POPC   GL1 3520   8.691   6.436   4.207
  268POPC   GL2 3521   8.958   6.597   4.105
  268POPC   C1A 3522   8.555   6.357   4.638
  268POPC   D2A 3523   8.404   6.270   5.032
  268POPC   C3A 3524   8.641   6.289   5.380
  268POPC   C4A 3525   8.505   6.474   5.783
  268POPC   C1B 3526   8.940   6.696   4.568
  268POPC   C2B 3527   8.861   6.598   5.016
  268POPC   C3B 3528   8.854   6.739   5.475
  268POPC   C4B 3529   8.977   6.665   5.913
  269POPC   NC3 3530   5.605   9.844   3.903
  269POPC   PO4 3531   5.913   9.235   3.951
  269POPC   GL1 3532   5.835   9.593   4.286
  269POPC   GL2 3533   5.514   9.742   4.385
  269POPC   C1A 3534   5.946   9.795   4.678
  269POPC   D2A 3535   5.698   9.732   5.051
  269POPC   C3A 3536   5.745   9.905   5.460
  269POPC   C4A 3537   5.827   9.671   5.829
  269POPC   C1B 3538   5.338   9.519   4.704
  269POPC   C2B 3539   5.377   9.326   5.102
  269POPC   C3B 3540   5.615   9.384   5.470
  269POPC   C4B 3541   5.383   9.462   5.869
  270POPC   NC3 3542   4.353   2.945   3.917
  270POPC   PO4 3543   3.931   2.434   4.008
  270POPC   GL1 3544   4.227   2.380   4.277
  270POPC   GL2 3545   4.316   2.677   4.358
  270POPC   C1A 3546   4.280   2.270   4.673
  270POPC   D2A 3547   4.364   2.330   5.082
  270POPC   C3A 3548   4.019   2.236   5.272
  270POPC   C4A 3549   3.923   2.347   5.658
  270POPC   C1B 3550   4.407   2.772   4.789
  270POPC   C2B 3551   4.335   2.842   5.232
  270POPC   C3B 3552   4.173   2.804   5.649
  270POPC   C4B 3553   4.079   3.054   6.043
  271POPC   NC3 3554   3.450   2.192   4.004
  271POPC   PO4 3555   3.917   1.737   3.715
  271POPC   GL1 3556   3.640   1.725   4.186
  271POPC   GL2 3557   3.266   1.714   4.271
  271POPC   C1A 3558   3.512   1.820   4.684
  271POPC   D2A 3559   3.645   1.929   5.118
  271POPC   C3A 3560   3.476   1.906   5.530
  271POPC   C4A 3561   3.224   1.572   5.748
  271POPC   C1B 3562   3.042   1.989   4.640
  271POPC   C2B 3563   3.105   2.008   5.094
  271POPC   C3B 3564   3.023   2.105   5.529
  271POPC   C4B 3565   3.214   2.056   5.960
  272POPC   NC3 3566   7.820   3.281   4.031
  272POPC   PO4 3567   8.211   3.944   4.029
  272POPC   GL1 3568   8.151   3.568   4.285
  272POPC   GL2 3569   7.856   3.545   4.463
  272POPC   C1A 3570   8.248   3.286   4.623
  272POPC   D2A 3571   8.114   3.516   4.966
  272POPC   C3A 3572   8.060   3.620   5.387
  272POPC   C4A 3573   8.049   3.805   5.798
  272POPC   C1B 3574   7.772   3.108   4.635
  272POPC   C2B 3575   7.984   2.984   4.993
  272POPC   C3B 3576   7.865   3.150   5.398
  272POPC   C4B 3577   8.093   3.298   5.789
  273POPC   NC3 3578   2.283   0.928   3.814
  273POPC   PO4 3579   2.332   1.631   3.870
  273POPC   GL1 3580   2.112   1.441   4.230
  273POPC   GL2 3581   2.002   1.132   4.237
  273POPC   C1A 3582   2.084   1.461   4.678
  273POPC   D2A 3583   2.367   1.375   5.015
  273POPC   C3A 3584   2.203   1.438   5.383
  273POPC   C4A 3585   2.318   1.450   5.786
  273POPC   C1B 3586   1.861   0.993   4.655
  273POPC   C2B 3587   1.934   1.071   5.090
  273POPC   C3B 3588   1.858   1.062   5.524
  273POPC   C4B 3589   1.784   1.412   5.699
  274POPC   NC3 3590   7.169   7.795   4.001
  274POPC   PO4 3591   7.590   8.307   3.964
  274POPC   GL1 3592   7.294   8.177   4.324
  274POPC   GL2 3593   7.305   7.852   4.492
  274POPC   C1A 3594   7.050   8.271   4.699
  274POPC   D2A 3595   7.286   8.278   5.067
  274POPC   C3A 3596   7.193   8.045   5.403
  274POPC   C4A 3597   7.295   8.185   5.757
  274POPC   C1B 3598   7.209   7.782   4.958
  274POPC   C2B 3599   6.904   7.637   5.297
  274POPC   C3B 3600   6.875   7.710   5.739
  274POPC   C4B 3601   6.764   7.571   6.193
  275POPC   NC3 3602   4.196   2.118   3.794
  275POPC   PO4 3603   4.545   1.649   4.089
  275POPC   GL1 3604   4.423   1.794   4.444
  275POPC   GL2 3605   4.114   1.889   4.278
  275POPC   C1A 3606   4.516   1.869   4.876
  275POPC   D2A 3607   4.507   1.860   5.320
  275POPC   C3A 3608   4.419   2.202   5.589
  275POPC   C4A 3609   4.221   2.077   5.964
  275POPC   C1B 3610   4.011   1.825   4.731
  275POPC   C2B 3611   4.072   1.647   5.140
  275POPC   C3B 3612   3.993   1.824   5.562
  275POPC   C4B 3613   3.757   1.773   5.936
  276POPC   NC3 3614   2.455   9.316   4.204
  276POPC   PO4 3615   1.920   9.371   3.755
  276POPC   GL1 3616   1.916   9.346   4.246
  276POPC   GL2 3617   1.682   9.088   4.253
  276POPC   C1A 3618   2.100   9.413   4.718
  276POPC   D2A 3619   2.361   9.335   5.086
  276POPC   C3A 3620   2.142   9.536   5.415
  276POPC   C4A 3621   2.019   9.491   5.812
  276POPC   C1B 3622   1.609   9.278   4.640
  276POPC   C2B 3623   1.703   9.514   5.016
  276POPC   C3B 3624   1.624   9.471   5.423
  276POPC   C4B 3625   1.614   9.191   5.744
  277POPC   NC3 3626   4.982   1.478   4.159
  277POPC   PO4 3627   4.940   0.954   3.731
  277POPC   GL1 3628   4.735   0.927   4.180
  277POPC   GL2 3629   4.532   1.196   4.326
  277POPC   C1A 3630   4.813   0.929   4.652
  277POPC   D2A 3631   4.645   0.839   5.037
  277POPC   C3A 3632   4.783   0.900   5.455
  277POPC   C4A 3633   4.489   1.028   5.786
  277POPC   C1B 3634   4.722   1.416   4.740
  277POPC   C2B 3635   4.937   1.282   5.120
  277POPC   C3B 3636   4.838   1.392   5.554
  277POPC   C4B 3637   5.073   1.531   5.889
  278POPC   NC3 3638   0.798   0.535   4.099
  278POPC   PO4 3639   0.189   0.796   3.973
  278POPC   GL1 3640   0.352   0.681   4.368
  278POPC   GL2 3641   0.176   0.375   4.331
  278POPC   C1A 3642   0.526   0.416   4.721
  278POPC   D2A 3643   0.766   0.428   5.104
  278POPC   C3A 3644   0.531   0.639   5.390
  278POPC   C4A 3645   0.454   0.565   5.797
  278POPC   C1B 3646  10.459   0.412   4.727
  278POPC   C2B 3647   0.163   0.384   5.123
  278POPC   C3B 3648   0.198   0.205   5.544
  278POPC   C4B 3649   0.116   0.253   6.013
  279POPC   NC3 3650   0.471   2.260   3.907
  279POPC   PO4 3651   0.687   1.696   4.200
  279POPC   GL1 3652   0.349   1.773   4.401
  279POPC   GL2 3653   0.484   2.138   4.407
  279POPC   C1A 3654   0.298   1.538   4.806
  279POPC   D2A 3655   0.223   1.380   5.234
  279POPC   C3A 3656   0.469   1.551   5.594
  279POPC   C4A 3657   0.197   1.673   5.922
  279POPC   C1B 3658   0.540   2.005   4.807
  279POPC   C2B 3659   0.425   1.869   5.170
  279POPC   C3B 3660   0.235   1.987   5.490
  279POPC   C4B 3661   0.480   2.052   5.812
  280POPC   NC3 3662   9.874   4.306   3.929
  280POPC   PO4 3663   0.043   3.955   4.022
  280POPC   GL1 3664  10.270   4.153   4.264
  280POPC   GL2 3665   9.988   3.985   4.329
  280POPC   C1A 3666  10.327   4.137   4.711
  280POPC   D2A 3667   0.082   4.257   5.057
  280POPC   C3A 3668  10.376   4.201   5.444
  280POPC   C4A 3669  10.374   4.465   5.810
  280POPC   C1B 3670   9.836   4.246   4.659
  280POPC   C2B 3671   9.635   4.246   5.062
  280POPC   C3B 3672   9.778   4.287   5.455
  280POPC   C4B 3673   9.993   4.137   5.774
  281POPC   NC3 3674   2.590   6.482   3.898
  281POPC   PO4 3675   2.921   6.918   3.992
  281POPC   GL1 3676   2.795   6.616   4.349
  281POPC   GL2 3677   2.671   6.244   4.352
  281POPC   C1A 3678   2.921   6.522   4.783
  281POPC   D2A 3679   2.813   6.415   5.198
  281POPC   C3A 3680   3.057   6.462   5.574
  281POPC   C4A 3681   2.968   6.652   5.963
  281POPC   C1B 3682   2.428   6.299   4.770
  281POPC   C2B 3683   2.329   6.263   5.225
  281POPC   C3B 3684   2.572   6.237   5.606
  281POPC   C4B 3685   2.625   5.885   5.889
  282POPC   NC3 3686   2.475  10.297   3.963
  282POPC   PO4 3687   2.250   9.735   4.160
  282POPC   GL1 3688   2.633   9.911   4.359
  282POPC   GL2 3689   2.793  10.257   4.349
  282POPC   C1A 3690   2.565  10.055   4.777
  282POPC   D2A 3691   2.403   9.880   5.126
  282POPC   C3A 3692   2.601  10.076   5.505
  282POPC   C4A 3693   2.486  10.191   5.921
  282POPC   C1B 3694   2.794  10.494   4.740
  282POPC   C2B 3695   2.716  10.434   5.152
  282POPC   C3B 3696   2.971  10.457   5.513
  282POPC   C4B 3697   2.975  10.399   5.959
  283POPC   NC3 3698   5.355   0.685   3.988
  283POPC   PO4 3699   6.009   0.900   3.924
  283POPC   GL1 3700   5.862   0.540   4.282
  283POPC   GL2 3701   5.610   0.233   4.315
  283POPC   C1A 3702   5.724   0.445   4.747
  283POPC   D2A 3703   5.613   0.675   5.123
  283POPC   C3A 3704   5.826   0.715   5.495
  283POPC   C4A 3705   5.845   0.474   5.907
  283POPC   C1B 3706   5.311   0.137   4.677
  283POPC   C2B 3707   5.432   0.169   5.094
  283POPC   C3B 3708   5.539   0.297   5.497
  283POPC   C4B 3709   5.398   0.232   5.904
  284POPC   NC3 3710   4.511   1.169   3.759
  284POPC   PO4 3711   3.888   0.900   4.005
  284POPC   GL1 3712   4.006   1.027   4.376
  284POPC   GL2 3713   4.078   1.389   4.466
  284POPC   C1A 3714   3.828   0.880   4.715
  284POPC   D2A 3715   3.834   1.113   5.083
  284POPC   C3A 3716   4.067   1.033   5.453
  284POPC   C4A 3717   3.956   0.878   5.849
  284POPC   C1B 3718   4.272   1.187   4.810
  284POPC   C2B 3719   4.442   1.290   5.204
  284POPC   C3B 3720   4.330   1.460   5.587
  284POPC   C4B 3721   4.228   1.570   5.998
  285POPC   NC3 3722   3.244   5.219   4.053
  285POPC   PO4 3723   2.683   5.347   3.827
  285POPC   GL1 3724   2.413   5.334   4.221
  285POPC   GL2 3725   2.333   5.684   4.334
  285POPC   C1A 3726   2.383   5.290   4.682
  285POPC   D2A 3727   2.507   5.451   5.064
  285POPC   C3A 3728   2.745   5.447   5.412
  285POPC   C4A 3729   2.744   5.389   5.827
  285POPC   C1B 3730   2.610   5.793   4.670
  285POPC   C2B 3731   2.698   5.926   5.110
  285POPC   C3B 3732   2.955   5.928   5.488
  285POPC   C4B 3733   3.200   5.637   5.738
  286POPC   NC3 3734   4.803   9.391   3.893
  286POPC   PO4 3735   5.138   9.859   4.050
  286POPC   GL1 3736   4.835   9.653   4.334
  286POPC   GL2 3737   4.890   9.276   4.380
  286POPC   C1A 3738   4.502   9.639   4.674
  286POPC   D2A 3739   4.553   9.567   5.136
  286POPC   C3A 3740   4.648   9.687   5.580
  286POPC   C4A 3741   4.612   9.693   6.050
  286POPC   C1B 3742   4.883   9.312   4.815
  286POPC   C2B 3743   4.930   9.088   5.180
  286POPC   C3B 3744   5.160   9.139   5.550
  286POPC   C4B 3745   4.901   9.322   5.850
  287POPC   NC3 3746   7.858   5.315   3.754
  287POPC   PO4 3747   7.711   5.819   4.009
  287POPC   GL1 3748   7.927   5.590   4.299
  287POPC   GL2 3749   8.246   5.699   4.373
  287POPC   C1A 3750   7.858   5.655   4.751
  287POPC   D2A 3751   8.045   5.583   5.194
  287POPC   C3A 3752   7.733   5.694   5.556
  287POPC   C4A 3753   7.487   5.571   5.957
  287POPC   C1B 3754   8.360   5.822   4.800
  287POPC   C2B 3755   8.549   5.715   5.204
  287POPC   C3B 3756   8.369   5.543   5.592
  287POPC   C4B 3757   8.113   5.767   5.872
  288POPC   NC3 3758   9.710   9.048   3.754
  288POPC   PO4 3759  10.441   9.071   3.835
  288POPC   GL1 3760  10.194   9.133   4.201
  288POPC   GL2 3761  10.042   9.481   4.259
  288POPC   C1A 3762  10.195   9.047   4.643
  288POPC   D2A 3763  10.173   9.212   5.053
  288POPC   C3A 3764  10.250   8.985   5.429
  288POPC   C4A 3765  10.191   9.102   5.870
  288POPC   C1B 3766  10.289   9.560   4.647
  288POPC   C2B 3767  10.315   9.707   5.091
  288POPC   C3B 3768  10.248   9.510   5.493
  288POPC   C4B 3769   9.950   9.587   5.820
  289POPC   NC3 3770   9.218   9.080   4.164
  289POPC   PO4 3771   9.384   9.586   3.784
  289POPC   GL1 3772   9.542   9.585   4.267
  289POPC   GL2 3773   9.300   9.475   4.474
  289POPC   C1A 3774   9.779   9.459   4.725
  289POPC   D2A 3775   9.805   9.511   5.214
  289POPC   C3A 3776   9.793   9.179   5.565
  289POPC   C4A 3777   9.722   9.188   6.073
  289POPC   C1B 3778   9.300   9.421   4.893
  289POPC   C2B 3779   9.073   9.161   5.117
  289POPC   C3B 3780   9.141   9.330   5.505
  289POPC   C4B 3781   9.434   9.470   5.745
  290POPC   NC3 3782   8.864   9.664   3.933
  290POPC   PO4 3783   8.638   9.012   4.084
  290POPC   GL1 3784   8.796   9.332   4.346
  290POPC   GL2 3785   8.481   9.451   4.367
  290POPC   C1A 3786   8.798   9.516   4.781
  290POPC   D2A 3787   8.744   9.547   5.246
  290POPC   C3A 3788   8.974   9.801   5.507
  290POPC   C4A 3789   9.048   9.730   5.939
  290POPC   C1B 3790   8.421   9.125   4.673
  290POPC   C2B 3791   8.558   9.005   5.088
  290POPC   C3B 3792   8.722   9.064   5.465
  290POPC   C4B 3793   8.692   9.366   5.769
  291POPC   NC3 3794   2.469   4.918   3.852
  291POPC   PO4 3795   3.140   4.775   4.023
  291POPC   GL1 3796   2.820   5.012   4.225
  291POPC   GL2 3797   2.558   4.849   4.370
  291POPC   C1A 3798   2.870   5.214   4.631
  291POPC   D2A 3799   2.833   5.052   5.062
  291POPC   C3A 3800   3.113   5.077   5.434
  291POPC   C4A 3801   3.108   4.995   5.880
  291POPC   C1B 3802   2.354   4.779   4.759
  291POPC   C2B 3803   2.363   4.930   5.168
  291POPC   C3B 3804   2.636   4.926   5.553
  291POPC   C4B 3805   2.507   4.978   5.978
  292POPC   NC3 3806  10.260   8.606   3.762
  292POPC   PO4 3807   9.608   8.623   3.636
  292POPC   GL1 3808   9.887   8.636   4.119
  292POPC   GL2 3809  10.238   8.596   4.253
  292POPC   C1A 3810   9.928   8.600   4.638
  292POPC   D2A 3811  10.066   8.695   5.031
  292POPC   C3A 3812   9.848   8.678   5.422
  292POPC   C4A 3813   9.751   8.733   5.838
  292POPC   C1B 3814  10.346   8.281   4.565
  292POPC   C2B 3815  10.490   8.361   4.981
  292POPC   C3B 3816  10.288   8.421   5.387
  292POPC   C4B 3817  10.225   8.585   5.765
  293POPC   NC3 3818   8.254   9.235   3.948
  293POPC   PO4 3819   7.700   9.477   3.732
  293POPC   GL1 3820   7.684   9.445   4.216
  293POPC   GL2 3821   7.966   9.262   4.342
  293POPC   C1A 3822   7.631   9.319   4.699
  293POPC   D2A 3823   7.803   9.475   5.112
  293POPC   C3A 3824   7.649   9.294   5.479
  293POPC   C4A 3825   7.489   9.426   5.846
  293POPC   C1B 3826   8.087   9.554   4.664
  293POPC   C2B 3827   8.308   9.468   5.031
  293POPC   C3B 3828   8.250   9.336   5.450
  293POPC   C4B 3829   7.998   9.545   5.759
  294POPC   NC3 3830   1.016   8.526   3.839
  294POPC   PO4 3831   1.498   8.183   3.977
  294POPC   GL1 3832   1.295   8.428   4.282
  294POPC   GL2 3833   1.263   8.797   4.193
  294POPC   C1A 3834   1.177   8.371   4.717
  294POPC   D2A 3835   0.997   8.563   5.085
  294POPC   C3A 3836   0.898   8.339   5.467
  294POPC   C4A 3837   0.956   8.603   5.817
  294POPC   C1B 3838   1.406   8.817   4.617
  294POPC   C2B 3839   1.512   8.644   5.007
  294POPC   C3B 3840   1.451   8.587   5.435
  294POPC   C4B 3841   1.440   8.738   5.840
  295POPC   NC3 3842   1.481   0.982   4.124
  295POPC   PO4 3843   1.108   1.452   3.733
  295POPC   GL1 3844   1.104   1.376   4.218
  295POPC   GL2 3845   1.083   1.044   4.401
  295POPC   C1A 3846   1.074   1.476   4.692
  295POPC   D2A 3847   0.794   1.520   5.064
  295POPC   C3A 3848   1.022   1.431   5.466
  295POPC   C4A 3849   1.005   1.447   5.913
  295POPC   C1B 3850   1.365   1.068   4.799
  295POPC   C2B 3851   1.450   1.251   5.224
  295POPC   C3B 3852   1.356   1.083   5.614
  295POPC   C4B 3853   1.227   0.852   5.922
  296POPC   NC3 3854   7.986   1.697   3.935
  296POPC   PO4 3855   7.419   1.630   4.120
  296POPC   GL1 3856   7.718   1.779   4.360
  296POPC   GL2 3857   7.751   2.126   4.239
  296POPC   C1A 3858   7.952   1.618   4.703
  296POPC   D2A 3859   7.987   1.428   5.113
  296POPC   C3A 3860   7.940   1.714   5.466
  296POPC   C4A 3861   7.762   1.948   5.807
  296POPC   C1B 3862   7.846   2.141   4.691
  296POPC   C2B 3863   8.028   1.988   5.059
  296POPC   C3B 3864   7.933   2.212   5.417
  296POPC   C4B 3865   8.009   2.398   5.800
  297POPC   NC3 3866   2.493   1.952   3.588
  297POPC   PO4 3867   3.009   2.047   4.004
  297POPC   GL1 3868   2.660   2.046   4.264
  297POPC   GL2 3869   2.489   1.751   4.337
  297POPC   C1A 3870   2.554   2.211   4.680
  297POPC   D2A 3871   2.724   2.376   5.054
  297POPC   C3A 3872   2.569   2.325   5.472
  297POPC   C4A 3873   2.525   2.315   5.936
  297POPC   C1B 3874   2.612   1.713   4.724
  297POPC   C2B 3875   2.591   1.871   5.131
  297POPC   C3B 3876   2.742   1.692   5.490
  297POPC   C4B 3877   2.739   1.830   5.868
  298POPC   NC3 3878  10.391   0.132   3.982
  298POPC   PO4 3879  10.216   9.940   3.878
  298POPC   GL1 3880  10.300  10.114   4.250
  298POPC   GL2 3881   9.967  10.219   4.230
  298POPC   C1A 3882  10.411  10.059   4.703
  298POPC   D2A 3883   0.104  10.167   5.105
  298POPC   C3A 3884  10.372  10.259   5.470
  298POPC   C4A 3885  10.355   9.929   5.780
  298POPC   C1B 3886   9.906   9.947   4.583
  298POPC   C2B 3887   9.920  10.031   5.025
  298POPC   C3B 3888   9.948   9.953   5.461
  298POPC   C4B 3889   9.928  10.246   5.806
  299POPC   NC3 3890   0.948   9.523   3.819
  299POPC   PO4 3891   0.811   8.909   3.946
  299POPC   GL1 3892   0.916   9.192   4.274
  299POPC   GL2 3893   1.215   9.396   4.294
  299POPC   C1A 3894   1.059   9.182   4.715
  299POPC   D2A 3895   1.336   9.146   5.055
  299POPC   C3A 3896   1.132   9.297   5.401
  299POPC   C4A 3897   1.052   9.091   5.771
  299POPC   C1B 3898   1.308   9.674   4.654
  299POPC   C2B 3899   1.318   9.861   5.076
  299POPC   C3B 3900   1.241   9.801   5.483
  299POPC   C4B 3901   1.273   9.544   5.829
  300POPC   NC3 3902   7.992   0.454   3.884
  300POPC   PO4 3903   8.493  10.485   3.912
  300POPC   GL1 3904   8.419   0.317   4.235
  300POPC   GL2 3905   8.195   0.597   4.326
  300POPC   C1A 3906   8.254   0.206   4.659
  300POPC   D2A 3907   8.181   0.422   5.038
  300POPC   C3A 3908   8.297   0.231   5.423
  300POPC   C4A 3909   8.095   0.083   5.775
  300POPC   C1B 3910   7.854   0.590   4.629
  300POPC   C2B 3911   7.685   0.502   5.069
  300POPC   C3B 3912   7.838   0.448   5.478
  300POPC   C4B 3913   7.899   0.764   5.802
  301POPC   NC3 3914   4.059   8.781   3.818
  301POPC   PO4 3915   4.400   8.239   3.709
  301POPC   GL1 3916   4.335   8.470   4.140
  301POPC   GL2 3917   4.049   8.626   4.287
  301POPC   C1A 3918   4.464   8.567   4.584
  301POPC   D2A 3919   4.390   8.727   4.993
  301POPC   C3A 3920   4.395   8.559   5.411
  301POPC   C4A 3921   4.313   8.786   5.734
  301POPC   C1B 3922   3.975   8.816   4.668
  301POPC   C2B 3923   3.775   8.606   5.005
  301POPC   C3B 3924   3.903   8.690   5.423
  301POPC   C4B 3925   3.905   8.487   5.839
  302POPC   NC3 3926   9.961   3.642   3.975
  302POPC   PO4 3927   0.026   3.280   3.844
  302POPC   GL1 3928  10.397   3.507   4.258
  302POPC   GL2 3929  10.052   3.422   4.418
  302POPC   C1A 3930  10.424   3.632   4.730
  302POPC   D2A 3931  10.252   3.508   5.155
  302POPC   C3A 3932  10.342   3.678   5.570
  302POPC   C4A 3933  10.453   3.387   5.941
  302POPC   C1B 3934   9.908   3.720   4.745
  302POPC   C2B 3935  10.015   3.941   5.127
  302POPC   C3B 3936   9.836   3.730   5.483
  302POPC   C4B 3937   9.983   3.319   5.627
  303POPC   NC3 3938   0.979   6.348   3.731
  303POPC   PO4 3939   1.516   6.102   3.902
  303POPC   GL1 3940   1.416   6.294   4.272
  303POPC   GL2 3941   1.137   6.525   4.225
  303POPC   C1A 3942   1.457   6.363   4.694
  303POPC   D2A 3943   1.332   6.128   5.032
  303POPC   C3A 3944   1.403   6.301   5.405
  303POPC   C4A 3945   1.368   6.090   5.770
  303POPC   C1B 3946   0.967   6.536   4.680
  303POPC   C2B 3947   0.984   6.492   5.157
  303POPC   C3B 3948   0.982   6.498   5.646
  303POPC   C4B 3949   0.822   6.625   6.098
  304POPC   NC3 3950  10.041   5.842   4.009
  304POPC   PO4 3951   0.156   5.572   3.804
  304POPC   GL1 3952  10.378   5.521   4.255
  304POPC   GL2 3953  10.045   5.473   4.326
  304POPC   C1A 3954  10.270   5.724   4.696
  304POPC   D2A 3955   0.042   5.856   5.015
  304POPC   C3A 3956  10.362   5.654   5.360
  304POPC   C4A 3957  10.464   5.594   5.755
  304POPC   C1B 3958   9.804   5.479   4.705
  304POPC   C2B 3959   9.946   5.464   5.106
  304POPC   C3B 3960   9.847   5.543   5.509
  304POPC   C4B 3961  10.017   5.849   5.661
  305POPC   NC3 3962   8.397   4.790   3.869
  305POPC   PO4 3963   9.107   4.738   3.996
  305POPC   GL1 3964   8.811   4.697   4.313
  305POPC   GL2 3965   8.773   5.061   4.299
  305POPC   C1A 3966   8.882   4.584   4.753
  305POPC   D2A 3967   8.761   4.789   5.161
  305POPC   C3A 3968   8.783   4.786   5.591
  305POPC   C4A 3969   8.925   4.517   5.880
  305POPC   C1B 3970   8.613   5.005   4.729
  305POPC   C2B 3971   8.427   5.178   5.171
  305POPC   C3B 3972   8.342   5.029   5.595
  305POPC   C4B 3973   8.383   5.187   6.023
  306POPC   NC3 3974   1.062   2.964   3.728
  306POPC   PO4 3975   0.882   2.318   4.132
  306POPC   GL1 3976   0.974   2.458   4.449
  306POPC   GL2 3977   1.284   2.339   4.478
  306POPC   C1A 3978   0.774   2.454   4.791
  306POPC   D2A 3979   0.845   2.689   5.109
  306POPC   C3A 3980   1.095   2.572   5.442
  306POPC   C4A 3981   0.803   2.376   5.618
  306POPC   C1B 3982   1.273   2.427   4.930
  306POPC   C2B 3983   1.321   2.854   5.082
  306POPC   C3B 3984   1.387   3.011   5.468
  306POPC   C4B 3985   1.301   2.933   5.901
  307POPC   NC3 3986   8.000   8.118   3.873
  307POPC   PO4 3987   7.582   7.506   3.836
  307POPC   GL1 3988   7.849   7.664   4.213
  307POPC   GL2 3989   7.792   8.000   4.328
  307POPC   C1A 3990   8.100   7.721   4.639
  307POPC   D2A 3991   8.054   7.602   5.080
  307POPC   C3A 3992   8.122   7.807   5.472
  307POPC   C4A 3993   8.282   7.826   5.892
  307POPC   C1B 3994   7.689   8.017   4.765
  307POPC   C2B 3995   7.690   7.973   5.183
  307POPC   C3B 3996   7.628   7.829   5.565
  307POPC   C4B 3997   7.813   8.105   5.759
  308POPC   NC3 3998   4.329   7.836   3.905
  308POPC   PO4 3999   3.827   8.382   3.878
  308POPC   GL1 4000   3.938   8.129   4.243
  308POPC   GL2 4001   4.044   7.776   4.305
  308POPC   C1A 4002   4.017   8.280   4.662
  308POPC   D2A 4003   4.190   8.268   5.056
  308POPC   C3A 4004   4.077   8.168   5.480
  308POPC   C4A 4005   4.190   8.076   5.951
  308POPC   C1B 4006   4.226   7.810   4.744
  308POPC   C2B 4007   4.242   7.769   5.177
  308POPC   C3B 4008   4.337   7.734   5.604
  308POPC   C4B 4009   3.992   7.470   5.754
  309POPC   NC3 4010   0.788  10.198   3.895
  309POPC   PO4 4011   1.267   9.798   3.989
  309POPC   GL1 4012   1.018   9.968   4.301
  309POPC   GL2 4013   1.031  10.358   4.346
  309POPC   C1A 4014   0.972  10.036   4.736
  309POPC   D2A 4015   0.839  10.122   5.126
  309POPC   C3A 4016   0.744   9.837   5.425
  309POPC   C4A 4017   0.870   9.834   5.836
  309POPC   C1B 4018   0.911   0.037   4.782
  309POPC   C2B 4019   1.110   0.050   5.210
  309POPC   C3B 4020   1.047  10.268   5.582
  309POPC   C4B 4021   1.311  10.109   5.922
  310POPC   NC3 4022   3.396   8.813   3.886
  310POPC   PO4 4023   3.173   8.299   3.608
  310POPC   GL1 4024   3.407   8.397   4.159
  310POPC   GL2 4025   3.553   8.740   4.354
  310POPC   C1A 4026   3.496   8.313   4.612
  310POPC   D2A 4027   3.311   8.303   5.028
  310POPC   C3A 4028   3.534   8.353   5.396
  310POPC   C4A 4029   3.365   8.426   5.782
  310POPC   C1B 4030   3.310   8.774   4.760
  310POPC   C2B 4031   3.268   8.802   5.181
  310POPC   C3B 4032   3.325   9.024   5.504
  310POPC   C4B 4033   3.587   8.884   5.785
  311POPC   NC3 4034   8.670   2.924   3.911
  311POPC   PO4 4035   9.132   2.414   3.882
  311POPC   GL1 4036   8.909   2.455   4.266
  311POPC   GL2 4037   8.562   2.582   4.281
  311POPC   C1A 4038   8.791   2.385   4.702
  311POPC   D2A 4039   9.053   2.457   5.069
  311POPC   C3A 4040   8.939   2.466   5.494
  311POPC   C4A 4041   8.839   2.474   5.953
  311POPC   C1B 4042   8.559   2.832   4.681
  311POPC   C2B 4043   8.593   2.684   5.125
  311POPC   C3B 4044   8.615   2.843   5.546
  311POPC   C4B 4045   8.374   2.878   5.878
  312POPC   NC3 4046   8.900   2.009   3.842
  312POPC   PO4 4047   8.416   1.514   3.930
  312POPC   GL1 4048   8.343   1.814   4.296
  312POPC   GL2 4049   8.665   1.996   4.308
  312POPC   C1A 4050   8.353   2.085   4.685
  312POPC   D2A 4051   8.545   2.155   5.086
  312POPC   C3A 4052   8.387   1.978   5.450
  312POPC   C4A 4053   8.467   2.348   5.651
  312POPC   C1B 4054   8.824   1.829   4.715
  312POPC   C2B 4055   9.004   1.939   5.148
  312POPC   C3B 4056   8.872   1.966   5.590
  312POPC   C4B 4057   8.981   1.730   5.971
  313POPC   NC3 4058   7.905   4.276   4.089
  313POPC   PO4 4059   8.466   4.352   3.699
  313POPC   GL1 4060   8.418   4.380   4.171
  313POPC   GL2 4061   8.623   4.129   4.279
  313POPC   C1A 4062   8.422   4.405   4.650
  313POPC   D2A 4063   8.604   4.290   5.058
  313POPC   C3A 4064   8.475   4.416   5.471
  313POPC   C4A 4065   8.411   4.186   5.821
  313POPC   C1B 4066   8.892   4.076   4.633
  313POPC   C2B 4067   9.020   3.999   5.042
  313POPC   C3B 4068   8.918   4.173   5.453
  313POPC   C4B 4069   8.957   4.008   5.819
  314POPC   NC3 4070   3.483   8.035   3.824
  314POPC   PO4 4071   2.929   8.286   4.096
  314POPC   GL1 4072   3.144   7.936   4.285
  314POPC   GL2 4073   3.491   7.872   4.292
  314POPC   C1A 4074   3.244   7.883   4.744
  314POPC   D2A 4075   3.296   7.756   5.164
  314POPC   C3A 4076   3.265   7.957   5.555
  314POPC   C4A 4077   2.962   8.094   5.811
  314POPC   C1B 4078   3.728   7.858   4.665
  314POPC   C2B 4079   3.752   7.999   5.059
  314POPC   C3B 4080   3.739   7.787   5.439
  314POPC   C4B 4081   3.706   8.031   5.799
  315POPC   NC3 4082   2.798   8.027   3.744
  315POPC   PO4 4083   2.284   8.457   3.935
  315POPC   GL1 4084   2.459   8.291   4.297
  315POPC   GL2 4085   2.557   7.937   4.212
  315POPC   C1A 4086   2.410   8.190   4.720
  315POPC   D2A 4087   2.427   8.309   5.125
  315POPC   C3A 4088   2.438   8.113   5.458
  315POPC   C4A 4089   2.209   8.029   5.793
  315POPC   C1B 4090   2.766   7.869   4.608
  315POPC   C2B 4091   2.858   8.044   5.023
  315POPC   C3B 4092   2.823   7.814   5.377
  315POPC   C4B 4093   2.617   7.729   5.752
  316POPC   NC3 4094   0.301   2.893   3.794
  316POPC   PO4 4095   0.818   2.543   3.684
  316POPC   GL1 4096   0.728   2.784   4.100
  316POPC   GL2 4097   0.423   2.637   4.246
  316POPC   C1A 4098   0.701   2.891   4.559
  316POPC   D2A 4099   0.424   2.925   4.933
  316POPC   C3A 4100   0.456   2.900   5.372
  316POPC   C4A 4101   0.624   2.808   5.780
  316POPC   C1B 4102   0.272   2.507   4.683
  316POPC   C2B 4103   0.390   2.407   5.143
  316POPC   C3B 4104   0.289   2.475   5.590
  316POPC   C4B 4105   0.158   2.516   6.020
  317POPC   NC3 4106   2.036   2.661   3.874
  317POPC   PO4 4107   1.533   2.206   4.047
  317POPC   GL1 4108   1.686   2.571   4.272
  317POPC   GL2 4109   2.013   2.637   4.376
  317POPC   C1A 4110   1.643   2.693   4.715
  317POPC   D2A 4111   1.766   2.531   5.148
  317POPC   C3A 4112   1.613   2.545   5.577
  317POPC   C4A 4113   1.777   2.912   5.768
  317POPC   C1B 4114   2.123   2.473   4.769
  317POPC   C2B 4115   2.279   2.653   5.133
  317POPC   C3B 4116   2.150   2.621   5.535
  317POPC   C4B 4117   2.060   2.506   5.920
  318POPC   NC3 4118  10.229   1.913   3.841
  318POPC   PO4 4119   0.050   2.522   3.887
  318POPC   GL1 4120   0.009   2.138   4.225
  318POPC   GL2 4121  10.155   1.986   4.351
  318POPC   C1A 4122   0.030   2.046   4.707
  318POPC   D2A 4123  10.419   1.780   5.093
  318POPC   C3A 4124  10.239   1.929   5.491
  318POPC   C4A 4125  10.282   2.371   5.647
  318POPC   C1B 4126   9.999   1.948   4.807
  318POPC   C2B 4127   9.946   2.221   5.187
  318POPC   C3B 4128   9.805   2.151   5.638
  318POPC   C4B 4129   9.962   1.900   5.971
  319POPC   NC3 4130   7.693   6.290   4.049
  319POPC   PO4 4131   8.032   6.709   3.686
  319POPC   GL1 4132   8.132   6.709   4.177
  319POPC   GL2 4133   8.190   6.368   4.222
  319POPC   C1A 4134   7.983   6.754   4.646
  319POPC   D2A 4135   7.943   6.543   5.035
  319POPC   C3A 4136   8.138   6.627   5.422
  319POPC   C4A 4137   7.926   6.805   5.789
  319POPC   C1B 4138   8.048   6.197   4.626
  319POPC   C2B 4139   7.950   6.048   5.051
  319POPC   C3B 4140   8.168   6.041   5.439
  319POPC   C4B 4141   8.025   6.280   5.791
  320POPC   NC3 4142   5.042  10.250   3.824
  320POPC   PO4 4143   4.470   0.092   3.918
  320POPC   GL1 4144   4.602  10.407   4.320
  320POPC   GL2 4145   4.909  10.210   4.337
  320POPC   C1A 4146   4.741  10.433   4.755
  320POPC   D2A 4147   4.978  10.439   5.117
  320POPC   C3A 4148   4.828  10.139   5.411
  320POPC   C4A 4149   4.618  10.173   5.818
  320POPC   C1B 4150   4.891   9.948   4.748
  320POPC   C2B 4151   5.044   9.728   5.095
  320POPC   C3B 4152   5.231   9.760   5.480
  320POPC   C4B 4153   5.061   9.917   5.857
  321POPC   NC3 4154   7.706   2.749   3.712
  321POPC   PO4 4155   8.229   3.076   3.897
  321POPC   GL1 4156   8.129   2.919   4.289
  321POPC   GL2 4157   7.817   2.756   4.229
  321POPC   C1A 4158   8.137   2.585   4.608
  321POPC   D2A 4159   8.112   2.481   5.033
  321POPC   C3A 4160   8.130   2.723   5.432
  321POPC   C4A 4161   7.831   2.863   5.814
  321POPC   C1B 4162   7.636   2.611   4.638
  321POPC   C2B 4163   7.544   2.415   5.033
  321POPC   C3B 4164   7.628   2.601   5.424
  321POPC   C4B 4165   7.514   2.435   5.803
  322POPC   NC3 4166   3.766   2.870   3.989
  322POPC   PO4 4167   3.242   2.620   4.016
  322POPC   GL1 4168   3.453   2.462   4.422
  322POPC   GL2 4169   3.785   2.659   4.443
  322POPC   C1A 4170   3.728   2.300   4.769
  322POPC   D2A 4171   3.916   2.643   4.999
  322POPC   C3A 4172   3.663   2.721   5.380
  322POPC   C4A 4173   3.430   2.410   5.659
  322POPC   C1B 4174   3.455   2.925   4.630
  322POPC   C2B 4175   3.279   3.081   5.010
  322POPC   C3B 4176   3.073   3.080   5.411
  322POPC   C4B 4177   3.272   2.917   5.731
  323POPC   NC3 4178   1.128   3.810   3.862
  323POPC   PO4 4179   1.414   4.425   3.904
  323POPC   GL1 4180   1.179   4.226   4.211
  323POPC   GL2 4181   0.949   3.978   4.341
  323POPC   C1A 4182   1.326   4.315   4.605
  323POPC   D2A 4183   1.224   4.505   4.982
  323POPC   C3A 4184   1.206   4.310   5.386
  323POPC   C4A 4185   1.128   4.409   5.804
  323POPC   C1B 4186   0.880   4.141   4.748
  323POPC   C2B 4187   1.232   3.990   4.991
  323POPC   C3B 4188   1.491   3.879   5.331
  323POPC   C4B 4189   1.297   3.918   5.745
  324POPC   NC3 4190   9.512   8.333   3.980
  324POPC   PO4 4191   9.682   9.085   4.198
  324POPC   GL1 4192   9.508   8.800   4.445
  324POPC   GL2 4193   9.503   8.480   4.432
  324POPC   C1A 4194   9.383   8.904   4.795
  324POPC   D2A 4195   9.641   9.031   5.091
  324POPC   C3A 4196   9.396   8.894   5.415
  324POPC   C4A 4197   9.310   8.960   5.797
  324POPC   C1B 4198   9.403   8.386   4.756
  324POPC   C2B 4199   9.492   8.504   5.102
  324POPC   C3B 4200   9.428   8.371   5.494
  324POPC   C4B 4201   9.335   8.455   5.867
  325POPC   NC3 4202   5.700   1.293   3.884
  325POPC   PO4 4203   5.209   1.075   4.185
  325POPC   GL1 4204   5.638   0.988   4.320
  325POPC   GL2 4205   5.947   1.224   4.327
  325POPC   C1A 4206   5.831   0.944   4.737
  325POPC   D2A 4207   6.004   1.247   5.035
  325POPC   C3A 4208   5.834   1.233   5.462
  325POPC   C4A 4209   5.923   0.996   5.893
  325POPC   C1B 4210   5.600   1.396   4.619
  325POPC   C2B 4211   5.451   1.275   5.044
  325POPC   C3B 4212   5.315   1.124   5.469
  325POPC   C4B 4213   5.511   1.296   5.846
  326POPC   NC3 4214  10.373   1.124   3.863
  326POPC   PO4 4215   0.190   1.774   3.807
  326POPC   GL1 4216  10.423   1.573   4.184
  326POPC   GL2 4217  10.237   1.231   4.314
  326POPC   C1A 4218  10.325   1.588   4.625
  326POPC   D2A 4219  10.306   1.286   4.942
  326POPC   C3A 4220  10.186   1.395   5.354
  326POPC   C4A 4221  10.262   1.506   5.777
  326POPC   C1B 4222  10.121   0.914   4.626
  326POPC   C2B 4223  10.105   0.679   5.020
  326POPC   C3B 4224   9.987   0.745   5.421
  326POPC   C4B 4225  10.151   1.023   5.715
  327POPC   NC3 4226   1.093   1.903   4.083
  327POPC   PO4 4227   1.612   1.423   4.100
  327POPC   GL1 4228   1.581   1.473   4.478
  327POPC   GL2 4229   1.404   1.812   4.475
  327POPC   C1A 4230   1.606   1.588   4.887
  327POPC   D2A 4231   1.255   1.759   5.143
  327POPC   C3A 4232   1.333   2.072   5.470
  327POPC   C4A 4233   1.405   1.731   5.742
  327POPC   C1B 4234   1.047   1.994   4.742
  327POPC   C2B 4235   0.894   2.131   5.155
  327POPC   C3B 4236   0.844   1.893   5.493
  327POPC   C4B 4237   1.004   2.004   5.889
  328POPC   NC3 4238   9.294   3.546   3.866
  328POPC   PO4 4239   9.872   3.189   3.946
  328POPC   GL1 4240   9.550   3.294   4.262
  328POPC   GL2 4241   9.564   3.647   4.332
  328POPC   C1A 4242   9.528   3.337   4.733
  328POPC   D2A 4243   9.772   3.305   5.110
  328POPC   C3A 4244   9.508   3.229   5.460
  328POPC   C4A 4245   9.593   3.075   5.878
  328POPC   C1B 4246   9.137   3.600   4.545
  328POPC   C2B 4247   9.056   3.488   5.001
  328POPC   C3B 4248   8.966   3.622   5.417
  328POPC   C4B 4249   9.238   3.549   5.747
  329POPC   NC3 4250   9.511   2.147   3.944
  329POPC   PO4 4251   9.092   1.599   4.004
  329POPC   GL1 4252   9.176   1.961   4.283
  329POPC   GL2 4253   9.481   1.824   4.392
  329POPC   C1A 4254   9.227   2.146   4.701
  329POPC   D2A 4255   9.497   2.055   5.029
  329POPC   C3A 4256   9.371   2.224   5.404
  329POPC   C4A 4257   9.252   2.199   5.840
  329POPC   C1B 4258   9.313   1.642   4.779
  329POPC   C2B 4259   9.440   1.579   5.215
  329POPC   C3B 4260   9.341   1.758   5.598
  329POPC   C4B 4261   9.475   1.767   6.061
  330POPC   NC3 4262   0.333   7.093   3.825
  330POPC   PO4 4263  10.474   6.544   3.849
  330POPC   GL1 4264   0.117   6.881   4.229
  330POPC   GL2 4265   0.358   7.158   4.340
  330POPC   C1A 4266   0.203   6.817   4.695
  330POPC   D2A 4267   0.459   6.980   5.056
  330POPC   C3A 4268   0.233   7.136   5.422
  330POPC   C4A 4269   0.378   7.101   5.829
  330POPC   C1B 4270   0.699   7.252   4.676
  330POPC   C2B 4271   0.883   7.358   5.080
  330POPC   C3B 4272   0.685   7.381   5.477
  330POPC   C4B 4273   0.680   7.517   5.879
  331POPC   NC3 4274   1.510   4.992   3.907
  331POPC   PO4 4275   2.121   4.772   4.119
  331POPC   GL1 4276   2.026   5.049   4.411
  331POPC   GL2 4277   1.701   5.048   4.381
  331POPC   C1A 4278   1.953   5.069   4.852
  331POPC   D2A 4279   2.025   5.361   5.135
  331POPC   C3A 4280   2.241   5.257   5.521
  331POPC   C4A 4281   2.007   5.092   5.883
  331POPC   C1B 4282   1.680   4.679   4.670
  331POPC   C2B 4283   1.617   4.781   5.114
  331POPC   C3B 4284   1.896   4.899   5.398
  331POPC   C4B 4285   2.191   4.682   5.609
  332POPC   NC3 4286   1.125   7.912   3.961
  332POPC   PO4 4287   0.663   7.399   4.000
  332POPC   GL1 4288   0.755   7.766   4.293
  332POPC   GL2 4289   1.070   7.955   4.437
  332POPC   C1A 4290   0.755   7.759   4.745
  332POPC   D2A 4291   1.022   7.971   5.000
  332POPC   C3A 4292   0.916   7.813   5.365
  332POPC   C4A 4293   1.088   7.810   5.743
  332POPC   C1B 4294   1.474   7.973   4.614
  332POPC   C2B 4295   1.544   8.120   5.024
  332POPC   C3B 4296   1.347   8.095   5.406
  332POPC   C4B 4297   1.366   8.229   5.838
  333POPC   NC3 4298  10.010   6.534   3.933
  333POPC   PO4 4299  10.451   5.993   4.135
  333POPC   GL1 4300  10.169   6.243   4.335
  333POPC   GL2 4301  10.259   6.562   4.362
  333POPC   C1A 4302  10.054   6.270   4.766
  333POPC   D2A 4303  10.058   6.007   5.134
  333POPC   C3A 4304  10.382   6.151   5.432
  333POPC   C4A 4305  10.219   6.259   5.815
  333POPC   C1B 4306  10.170   6.797   4.693
  333POPC   C2B 4307  10.042   6.712   5.108
  333POPC   C3B 4308  10.195   6.634   5.474
  333POPC   C4B 4309  10.488   6.696   5.805
  334POPC   NC3 4310   3.458   3.709   3.833
  334POPC   PO4 4311   3.949   3.321   3.924
  334POPC   GL1 4312   3.641   3.289   4.277
  334POPC   GL2 4313   3.298   3.466   4.274
  334POPC   C1A 4314   3.597   3.415   4.713
  334POPC   D2A 4315   3.463   3.552   5.111
  334POPC   C3A 4316   3.547   3.246   5.445
  334POPC   C4A 4317   3.668   3.283   5.874
  334POPC   C1B 4318   3.067   3.483   4.686
  334POPC   C2B 4319   2.911   3.445   5.102
  334POPC   C3B 4320   3.124   3.573   5.490
  334POPC   C4B 4321   3.546   3.731   5.597
  335POPC   NC3 4322  10.368   5.195   3.860
  335POPC   PO4 4323  10.272   4.487   3.837
  335POPC   GL1 4324  10.299   4.673   4.237
  335POPC   GL2 4325  10.298   5.010   4.317
  335POPC   C1A 4326  10.158   4.646   4.662
  335POPC   D2A 4327  10.105   4.452   5.056
  335POPC   C3A 4328  10.128   4.656   5.419
  335POPC   C4A 4329   9.954   4.772   5.774
  335POPC   C1B 4330  10.194   5.160   4.679
  335POPC   C2B 4331  10.103   4.995   5.055
  335POPC   C3B 4332  10.238   5.150   5.452
  335POPC   C4B 4333  10.123   5.249   5.837
  336POPC   NC3 4334   6.370   1.203   3.803
  336POPC   PO4 4335   6.747   1.766   3.607
  336POPC   GL1 4336   6.666   1.529   4.106
  336POPC   GL2 4337   6.557   1.167   4.262
  336POPC   C1A 4338   6.739   1.466   4.615
  336POPC   D2A 4339   6.545   1.270   4.984
  336POPC   C3A 4340   6.640   1.334   5.411
  336POPC   C4A 4341   6.656   1.090   5.836
  336POPC   C1B 4342   6.332   0.969   4.626
  336POPC   C2B 4343   6.288   0.793   5.050
  336POPC   C3B 4344   6.286   0.969   5.465
  336POPC   C4B 4345   6.246   1.355   5.737
  337POPC   NC3 4346   2.317   9.627   3.722
  337POPC   PO4 4347   2.755   9.164   3.883
  337POPC   GL1 4348   2.895   9.433   4.363
  337POPC   GL2 4349   3.023   9.187   4.589
  337POPC   C1A 4350   2.794   9.601   4.771
  337POPC   D2A 4351   2.903   9.816   5.141
  337POPC   C3A 4352   2.656   9.575   5.449
  337POPC   C4A 4353   2.478   9.690   5.837
  337POPC   C1B 4354   2.775   9.064   4.886
  337POPC   C2B 4355   2.805   9.044   5.289
  337POPC   C3B 4356   2.600   9.105   5.617
  337POPC   C4B 4357   2.927   9.237   5.815
  338POPC   NC3 4358   6.447   2.550   3.626
  338POPC   PO4 4359   6.431   3.099   4.028
  338POPC   GL1 4360   6.452   2.957   4.439
  338POPC   GL2 4361   6.401   2.613   4.364
  338POPC   C1A 4362   6.491   2.916   4.884
  338POPC   D2A 4363   6.194   2.646   5.117
  338POPC   C3A 4364   6.191   2.776   5.553
  338POPC   C4A 4365   6.467   2.900   5.965
  338POPC   C1B 4366   6.620   2.469   4.691
  338POPC   C2B 4367   6.602   2.334   5.092
  338POPC   C3B 4368   6.640   2.576   5.434
  338POPC   C4B 4369   6.538   2.434   5.828
  339POPC   NC3 4370   1.303   1.031   3.641
  339POPC   PO4 4371   1.264   0.575   4.188
  339POPC   GL1 4372   1.067   0.456   4.526
  339POPC   GL2 4373   1.345   0.213   4.607
  339POPC   C1A 4374   0.913   0.781   4.787
  339POPC   D2A 4375   1.049   0.916   5.202
  339POPC   C3A 4376   1.041   0.585   5.518
  339POPC   C4A 4377   0.780   0.209   5.592
  339POPC   C1B 4378   1.306   0.512   4.963
  339POPC   C2B 4379   1.545   0.746   5.235
  339POPC   C3B 4380   1.548   0.575   5.606
  339POPC   C4B 4381   1.403   0.139   5.653
  340POPC   NC3 4382   1.850   1.798   3.977
  340POPC   PO4 4383   2.327   2.263   3.896
  340POPC   GL1 4384   2.149   2.138   4.355
  340POPC   GL2 4385   1.916   1.885   4.441
  340POPC   C1A 4386   2.156   1.959   4.851
  340POPC   D2A 4387   2.136   2.163   5.239
  340POPC   C3A 4388   2.298   1.915   5.573
  340POPC   C4A 4389   2.261   1.890   6.021
  340POPC   C1B 4390   1.717   2.179   4.678
  340POPC   C2B 4391   1.642   2.064   5.051
  340POPC   C3B 4392   1.780   1.804   5.365
  340POPC   C4B 4393   1.852   2.058   5.723
  341POPC   NC3 4394   8.476   6.728   3.830
  341POPC   PO4 4395   9.036   7.109   3.944
  341POPC   GL1 4396   8.707   7.030   4.220
  341POPC   GL2 4397   8.657   7.305   4.438
  341POPC   C1A 4398   8.462   6.838   4.515
  341POPC   D2A 4399   8.393   6.775   4.955
  341POPC   C3A 4400   8.463   7.000   5.321
  341POPC   C4A 4401   8.430   6.974   5.756
  341POPC   C1B 4402   8.781   7.126   4.780
  341POPC   C2B 4403   8.960   7.085   5.107
  341POPC   C3B 4404   8.937   7.293   5.406
  341POPC   C4B 4405   8.884   7.183   5.781
  342W        W 4406   1.299   4.687  10.441
  343W        W 4407   6.559   2.882   1.427
  344W        W 4408   6.587   8.526   9.140
  345W        W 4409   2.642   8.754  11.376
  346W        W 4410   6.232   6.130   1.311
  347W        W 4411   8.632   1.971   1.221
  348W        W 4412   3.756   7.515  11.557
  349W        W 4413   3.859   1.824   1.729
  350W        W 4414   6.955   3.264   0.061
  351W        W 4415   3.732   7.489   2.323
  352W        W 4416   7.685   7.468   3.098
  353W        W 4417   7.251   2.906  10.949
  354W        W 4418   6.617   6.048   2.542
  355W        W 4419  10.437   4.069   2.359
  356W        W 4420   0.727   2.894  11.582
  357W        W 4421   2.103   0.959  11.406
  358W        W 4422   0.701   2.561   8.760
  359W        W 4423   3.837   2.361  10.512
  360W        W 4424   7.595   0.746  11.929
  361W        W 4425   7.983   6.282  10.357
  362W        W 4426   9.574   5.039   1.956
  363W        W 4427   2.653   7.880   2.252
  364W        W 4428   3.764   6.448  10.492
  365W        W 4429   3.672   8.978   2.263
  366W        W 4430   5.593   9.693   1.310
  367W        W 4431   2.548   8.902   9.193
  368W        W 4432   4.955   4.814   1.656
  369W        W 4433   6.097   8.012   0.895
  370W        W 4434   9.171   3.288   9.384
  371W        W 4435  10.276   4.667   1.616
  372W        W 4436   8.567   9.403   3.198
  373W        W 4437   9.808   1.687  10.522
  374W        W 4438   4.630   4.393  10.876
  375W        W 4439   2.841   9.551   0.901
  376W        W 4440   3.919   8.612  11.472
  377W        W 4441  10.434   0.169   9.891
  378W        W 4442   8.534   8.333  10.404
  379W        W 4443   2.215   4.354   3.265
  380W        W 4444   3.346   9.677   0.981
  381W        W 4445   1.129   4.464   1.784
  382W        W 4446   6.141   8.562  10.934
  383W        W 4447   1.663   6.024   3.344
  384W        W 4448   1.533   9.251   0.398
  385W        W 4449   0.428   1.162   3.109
  386W        W 4450   2.192   7.817  10.991
  387W        W 4451   6.791   9.036  10.322
  388W        W 4452   3.061   7.705  11.939
  389W        W 4453   6.095   7.786  10.632
  390W        W 4454   2.582   5.230   2.844
  391W        W 4455   6.638   8.454  11.103
  392W        W 4456   9.040   9.483   3.026
  393W        W 4457   4.631  10.262   0.041
  394W        W 4458   7.300   6.221   3.757
  395W        W 4459   3.573   4.132   2.681
  396W        W 4460   1.518   9.640   3.540
  397W        W 4461  10.207   9.584   0.153
  398W        W 4462   3.734   7.709   9.944
  399W        W 4463   7.511  10.480   1.389
  400W        W 4464   5.133   4.581   8.247
  401W        W 4465   0.313   9.551  10.115
  402W        W 4466   9.698   9.476   2.467
  403W        W 4467   6.041   3.969   1.267
  404W        W 4468   7.204   1.304  10.337
  405W        W 4469   8.395   7.648   0.768
  406W        W 4470   3.791   0.257  10.066
  407W        W 4471   9.294   4.403   3.070
  408W        W 4472   2.353   3.246   9.339
  409W        W 4473   7.900   4.490  10.893
  410W        W 4474   7.977   7.609   3.516
  411W        W 4475   5.637   6.989   0.422
  412W        W 4476   9.103   9.163   2.154
  413W        W 4477   5.602   7.296   1.881
  414W        W 4478   8.431   6.273   8.581
  415W        W 4479   1.084   9.219   9.644
  416W        W 4480   8.069  10.165  10.178
  417W        W 4481   1.915  10.431   3.283
  418W        W 4482   7.908   0.944   2.270
  419W        W 4483   6.854   4.670   0.043
  420W        W 4484   8.838   3.466   2.410
  421W        W 4485   1.680   2.030   2.299
  422W        W 4486   9.660   8.355   0.780
  423W        W 4487   5.476   7.499  10.002
  424W        W 4488   1.358   7.446  10.921
  425W        W 4489   6.053   4.763  11.443
  426W        W 4490   0.929   9.556   0.420
  427W        W 4491   1.367   9.888   2.403
  428W        W 4492   4.127   4.497   0.201
  429W        W 4493   4.080   9.465   9.875
  430W        W 4494   4.809   3.209  10.300
  431W        W 4495   5.180   7.936   8.953
  432W        W 4496   6.048   9.993   2.705
  433W        W 4497   8.862   4.809  11.823
  434W        W 4498   0.862   7.549   3.088
  435W        W 4499   0.854   4.949   2.638
  436W        W 4500   4.358  10.410  10.005
  437W        W 4501   3.848   0.441  11.451
  438W        W 4502   0.003   6.976  11.316
  439W        W 4503   8.426   3.122   8.846
  440W        W 4504   3.566   6.405   3.664
  441W        W 4505   4.259   8.467   0.743
  442W        W 4506   4.259   8.831  11.109
  443W        W 4507   1.926   5.579   3.285
  444W        W 4508   7.598   8.589   1.260
  445W        W 4509   5.011   7.221   4.067
  446W        W 4510   6.447   9.791  11.493
  447W        W 4511   7.203   0.900   9.216
  448W        W 4512   4.783  10.459  10.595
  449W        W 4513   9.018   5.531   3.556
  450W        W 4514   1.663   6.640   9.339
  451W        W 4515   8.437   4.016   2.202
  452W        W 4516   9.012   6.562   1.443
  453W        W 4517   7.479   7.699   2.685
  454W        W 4518   7.004   6.018   3.103
  455W        W 4519   1.857   6.598  10.857
  456W        W 4520   8.705   3.403   0.083
  457W        W 4521   7.169   0.804   1.015
  458W        W 4522   1.913   5.272   9.120
  459W        W 4523   9.050   5.469  10.120
  460W        W 4524  10.249   5.014   0.728
  461W        W 4525   2.846   4.699   3.579
  462W        W 4526   0.994   7.017   1.315
  463W        W 4527   0.885   4.436  10.277
  464W        W 4528   6.976   4.909   0.982
  465W        W 4529   6.412   2.051   9.533
  466W        W 4530   7.502   0.508  11.296
  467W        W 4531   5.634   8.489  10.871
  468W        W 4532   3.765   7.082   9.139
  469W        W 4533  10.130   7.590  10.401
  470W        W 4534   9.341   1.841  10.365
  471W        W 4535   1.605   1.945   1.774
  472W        W 4536   7.043   3.134   3.069
  473W        W 4537   3.989   0.365   8.679
  474W        W 4538   4.759   4.913   8.438
  475W        W 4539   5.041   2.583   0.344
  476W        W 4540   6.695   6.688  11.906
  477W        W 4541   7.737   0.470   2.305
  478W        W 4542   4.527   9.609   8.524
  479W        W 4543   8.449   0.835   2.247
  480W        W 4544   5.263   9.152  11.972
  481W        W 4545   4.721   6.618  10.724
  482W        W 4546   6.735   3.088   0.983
  483W        W 4547   0.858   2.113   0.695
  484W        W 4548   8.377   7.402   3.258
  485W        W 4549   1.308  10.298   3.271
  486W        W 4550   6.500   6.906   3.269
  487W        W 4551   3.762   8.488   0.897
  488W        W 4552   5.702   8.444   2.695
  489W        W 4553   2.658   6.097   8.349
  490W        W 4554   3.689   8.689   3.494
  491W        W 4555   2.142   8.529   1.634
  492W        W 4556   7.279   6.500  10.725
  493W        W 4557   1.179   5.644   9.033
  494W        W 4558   7.730   6.834   9.341
  495W        W 4559   4.562   7.125  10.730
  496W        W 4560   5.455   3.637   8.168
  497W        W 4561   3.161   4.099   9.759
  498W        W 4562   8.960   1.322   9.755
  499W        W 4563   0.063   3.193   2.677
  500W        W 4564   6.025   4.788   2.479
  501W        W 4565   7.732   8.976  11.491
  502W        W 4566   4.125   2.586   9.451
  503W        W 4567  10.019   0.185  10.201
  504W        W 4568   7.570   0.120   3.361
  505W        W 4569   0.735   2.519  10.745
  506W        W 4570   3.192   6.748   2.466
  507W        W 4571   1.164   2.372   9.692
  508W        W 4572   4.091   6.248   1.978
  509W        W 4573   3.835   5.012  10.636
  510W        W 4574   9.244   2.776  11.359
  511W        W 4575   5.404   4.858   3.643
  512W        W 4576   8.577   9.867   1.669
  513W        W 4577   2.439   9.199   1.196
  514W        W 4578   4.504   4.565   9.990
  515W        W 4579   6.758   7.542   1.317
  516W        W 4580   4.661   9.302  11.554
  517W        W 4581   5.170   3.626   3.246
  518W        W 4582   8.928   6.004   0.868
  519W        W 4583   2.760   3.681   3.224
  520W        W 4584   6.990   4.399   3.901
  521W        W 4585   4.829   9.844  10.306
  522W        W 4586  10.379   6.096   8.858
  523W        W 4587   5.276   4.068   0.192
  524W        W 4588   9.489   4.256   0.728
  525W        W 4589   5.308   4.127  10.321
  526W        W 4590  10.248   4.272  10.101
  527W        W 4591   4.302  10.108   2.709
  528W        W 4592   2.640   1.339   3.087
  529W        W 4593   6.187   3.464   3.098
  530W        W 4594   6.930   0.371   2.012
  531W        W 4595   2.774   1.411   1.008
  532W        W 4596   5.956   3.131   8.889
  533W        W 4597   3.141   2.238   9.531
  534W        W 4598   9.129   4.176   9.571
  535W        W 4599   8.461   2.448   0.386
  536W        W 4600   5.695   5.466   9.454
  537W        W 4601   2.713   1.493   9.098
  538W        W 4602   8.907   4.291  10.531
  539W        W 4603   2.207   9.950   9.001
  540W        W 4604   5.764   7.159  11.904
  541W        W 4605   8.475   3.874   2.715
  542W        W 4606  10.203   9.554   2.426
  543W        W 4607   9.329   5.093  11.015
  544W        W 4608   7.918   6.428   2.264
  545W        W 4609   6.938   4.744   9.808
  546W        W 4610   1.268   5.131   2.364
  547W        W 4611   9.648   0.429  10.448
  548W        W 4612   9.813   0.366   1.234
  549W        W 4613   4.819   1.772   1.965
  550W        W 4614   5.323   7.371   0.289
  551W        W 4615   0.532   4.005  11.392
  552W        W 4616   7.982   5.682   3.410
  553W        W 4617   4.242   8.265  11.169
  554W        W 4618   4.748   9.852   2.693
  555W        W 4619   1.325   9.765   1.389
  556W        W 4620  10.343   1.178   1.390
  557W        W 4621   7.948   5.462   9.374
  558W        W 4622   3.873   0.673   9.779
  559W        W 4623   0.505   0.834   2.736
  560W        W 4624   3.771   9.532   0.647
  561W        W 4625   1.584   1.971  10.988
  562W        W 4626   5.463   2.611   9.245
  563W        W 4627   3.503   3.378   0.362
  564W        W 4628   4.069   8.248  10.291
  565W        W 4629   9.188   1.384   8.806
  566W        W 4630   8.045   6.248  11.722
  567W        W 4631   8.100   4.629  10.454
  568W        W 4632   3.260   0.911   8.701
  569W        W 4633   2.325   8.188   1.323
  570W        W 4634   0.628   6.051   3.274
  571W        W 4635   3.504   6.734   3.239
  572W        W 4636   8.231   3.409   0.267
  573W        W 4637   3.022   0.109   0.947
  574W        W 4638   2.636  10.233   8.850
  575W        W 4639   3.760   1.421   1.394
  576W        W 4640   2.070   5.088   9.753
  577W        W 4641   4.238   0.224  11.757
  578W        W 4642   9.917   4.879  10.057
  579W        W 4643   5.449   1.291  10.023
  580W        W 4644   9.984   8.536   9.483
  581W        W 4645   0.725   4.033   9.965
  582W        W 4646   9.328   0.471   9.549
  583W        W 4647   3.933   5.924   3.209
  584W        W 4648  10.290   7.459   8.489
  585W        W 4649   5.185   8.217   1.425
  586W        W 4650   7.074   1.548  10.811
  587W        W 4651  10.227   1.632   2.876
  588W        W 4652   2.287   2.680   0.661
  589W        W 4653  10.335   9.392   8.999
  590W        W 4654   1.743   3.326  11.491
  591W        W 4655   7.873   9.375   2.112
  592W        W 4656   9.950   3.758   1.140
  593W        W 4657   1.243   0.039  10.310
  594W        W 4658   1.473   8.974   9.397
  595W        W 4659   7.934   8.493  10.704
  596W        W 4660  10.084   4.342   3.338
  597W        W 4661   5.558   5.000  11.353
  598W        W 4662   1.728   2.708   2.907
  599W        W 4663   0.078   4.277   3.502
  600W        W 4664   8.373   0.484  11.250
  601W        W 4665  10.358  10.370   1.252
  602W        W 4666   1.006   4.775   3.107
  603W        W 4667   4.509   6.201   8.551
  604W        W 4668  10.195   3.449   3.482
  605W        W 4669  10.391   5.158  10.089
  606W        W 4670   8.959   5.179   2.481
  607W        W 4671   9.378   6.099   3.238
  608W        W 4672  10.298   0.624  10.085
  609W        W 4673   4.283   3.785   2.707
  610W        W 4674  10.351  10.080  10.756
  611W        W 4675   7.123   3.272  10.587
  612W        W 4676   4.953   2.123   9.689
  613W        W 4677   6.364   3.413   8.467
  614W        W 4678  10.390   3.757   1.446
  615W        W 4679   9.581   5.966   2.356
  616W        W 4680   5.074   2.594   9.579
  617W        W 4681   1.765  10.275  11.653
  618W        W 4682   3.627   1.310  10.409
  619W        W 4683   8.347  10.053  10.918
  620W        W 4684   2.884   1.269   0.223
  621W        W 4685   2.388   8.393   9.209
  622W        W 4686  10.250  10.192   1.749
  623W        W 4687   9.728   2.673   0.458
  624W        W 4688   0.388   1.172   1.744
  625W        W 4689   2.113   5.544   9.531
  626W        W 4690   8.063   6.973   1.408
  627W        W 4691   0.325   9.531   9.596
  628W        W 4692   5.320   5.033   1.386
  629W        W 4693   5.341   0.213   1.172
  630W        W 4694   9.497   7.968   9.944
  631W        W 4695   9.750   7.828  11.857
  632W        W 4696   3.744   2.293   3.574
  633W        W 4697   9.880   3.838   9.330
  634W        W 4698   6.554   7.448  10.130
  635W        W 4699   7.668   3.188   9.263
  636W        W 4700   3.206   0.611   3.557
  637W        W 4701   0.922   3.970   8.958
  638W        W 4702   8.453   0.361  11.725
  639W        W 4703   0.835   0.481   8.979
  640W        W 4704   7.083   4.086   2.575
  641W        W 4705   9.551  10.402   8.528
  642W        W 4706   5.146   7.230   1.663
  643W        W 4707   6.051   2.060   2.150
  644W        W 4708   9.582   7.024  11.509
  645W        W 4709   5.179   7.661   2.582
  646W        W 4710   7.517   7.646   8.861
  647W        W 4711   3.583   5.153   1.223
  648W        W 4712   7.867   3.980  11.001
  649W        W 4713   6.125   5.980   2.742
  650W        W 4714   6.164   1.868   9.107
  651W        W 4715   7.906   4.341   0.459
  652W        W 4716   5.786   8.375  10.041
  653W        W 4717   7.136   5.949  11.814
  654W        W 4718   0.928   1.416   9.793
  655W        W 4719   9.949   6.251   0.904
  656W        W 4720   8.171   5.637   0.579
  657W        W 4721   2.831   5.048   9.567
  658W        W 4722   0.396   1.243  11.850
  659W        W 4723   8.057   5.452   1.314
  660W        W 4724   4.552   9.864   2.205
  661W        W 4725   2.594   1.983  11.794
  662W        W 4726   1.812   4.654   8.491
  663W        W 4727   6.021   3.236   0.746
  664W        W 4728   0.180   9.304   2.507
  665W        W 4729   6.539   1.394   1.329
  666W        W 4730   7.181   0.408   9.434
  667W        W 4731   2.120   6.594   9.014
  668W        W 4732   6.997   3.197   0.561
  669W        W 4733   2.443   9.660   0.199
  670W        W 4734   4.017   3.266  10.030
  671W        W 4735   5.071   3.516   2.772
  672W        W 4736   8.811   8.412  11.871
  673W        W 4737   4.579   0.602  10.500
  674W        W 4738   4.248   0.935   9.976
  675W        W 4739   5.145   0.877   8.913
  676W        W 4740   9.952   0.314   0.209
  677W        W 4741   6.046   9.651   0.020
  678W        W 4742   6.522   4.751  11.663
  679W        W 4743   2.265   1.243   8.485
  680W        W 4744   1.765   4.666  10.611
  681W        W 4745   4.213   7.989   1.642
  682W        W 4746   4.615   0.524   1.020
  683W        W 4747   7.475   0.148  10.863
  684W        W 4748   0.108   4.940  11.269
  685W        W 4749   4.040   2.880  10.386
  686W        W 4750   7.963   6.792   0.924
  687W        W 4751   7.865   9.037   1.344
  688W        W 4752   5.670   4.520  10.289
  689W        W 4753   2.112   8.567  11.440
  690W        W 4754   5.660   7.562   2.324
  691W        W 4755   7.730   1.883  11.399
  692W        W 4756   0.511   6.982  11.142
  693W        W 4757   2.817   4.505   1.510
  694W        W 4758   9.842   1.198  10.664
  695W        W 4759   6.009   0.644   1.470
  696W        W 4760   0.714   0.673  10.358
  697W        W 4761   9.566   2.618   9.991
  698W        W 4762   3.592   9.187   1.783
  699W        W 4763   1.483   5.598   2.378
  700W        W 4764   5.005   6.612   9.009
  701W        W 4765   6.386   0.692   9.527
  702W        W 4766   2.366   3.059  10.967
  703W        W 4767   4.617   6.067   2.848
  704W        W 4768   5.201   2.224   0.019
  705W        W 4769   3.787   9.862   2.736
  706W        W 4770   3.041   7.981  10.058
  707W        W 4771   3.828   8.219   1.881
  708W        W 4772   2.484   0.960   2.168
  709W        W 4773   3.008   1.107  11.358
  710W        W 4774   0.372   2.395   9.163
  711W        W 4775   8.567   7.163   1.583
  712W        W 4776   2.299   1.207   1.721
  713W        W 4777   4.154   1.773   0.205
  714W        W 4778   5.635   7.903   2.815
  715W        W 4779   2.760   7.018  11.325
  716W        W 4780   7.175   1.716   2.262
  717W        W 4781   7.312   8.564  11.513
  718W        W 4782   1.233   3.328   8.757
  719W        W 4783   0.941   3.697  11.247
  720W        W 4784   1.879   4.143   1.249
  721W        W 4785   7.952   8.341   9.701
  722W        W 4786   2.062   7.617  10.063
  723W        W 4787   6.191   3.049   2.241
  724W        W 4788   1.211  10.010  11.687
  725W        W 4789   6.451   6.991  10.533
  726W        W 4790   5.713   6.621   8.428
  727W        W 4791   0.873   2.621   0.613
  728W        W 4792   9.966   6.124  11.990
  729W        W 4793   9.398   8.715  11.317
  730W        W 4794   9.224   5.232  10.531
  731W        W 4795   9.011   2.732   3.141
  732W        W 4796   0.598   9.438   3.418
  733W        W 4797   1.408   6.707   1.406
  734W        W 4798   6.532   8.031  11.385
  735W        W 4799   6.166   8.401   8.783
  736W        W 4800   1.000  10.178   2.239
  737W        W 4801   2.817   2.185   1.245
  738W        W 4802   5.140   3.603   0.033
  739W        W 4803   7.537   4.562   3.706
  740W        W 4804   6.005   0.564  10.632
  741W        W 4805   0.809   0.138   2.288
  742W        W 4806  10.178  10.236   9.989
  743W        W 4807   3.513   8.841  11.688
  744W        W 4808   2.817   5.066   1.871
  745W        W 4809   1.474   0.968   2.559
  746W        W 4810   6.592   6.511   2.186
  747W        W 4811   2.578   6.978   9.712
  748W        W 4812   4.755   7.515   2.280
  749W        W 4813   0.004   3.446  11.953
  750W        W 4814   3.245   8.959   1.469
  751W        W 4815   4.624  10.226   3.499
  752W        W 4816   9.120   8.809   1.807
  753W        W 4817   6.106  10.490   2.688
  754W        W 4818   6.428   3.384   2.638
  755W        W 4819   4.511   3.088   8.955
  756W        W 4820   4.675   0.776   3.342
  757W        W 4821   2.167   8.035   2.431
  758W        W 4822   8.665   1.798   2.010
  759W        W 4823   9.498   6.990   8.808
  760W        W 4824   7.430   2.302   8.738
  761W        W 4825   2.754   1.657   0.556
  762W        W 4826   7.652   8.639   8.881
  763W        W 4827   3.258   4.523   1.767
  764W        W 4828   9.860   8.757   1.009
  765W        W 4829   0.235   9.858  10.544
  766W        W 4830   9.404   5.120  10.032
  767W        W 4831   7.906   4.571   1.534
  768W        W 4832   3.368   9.473   1.435
  769W        W 4833   0.685   5.640   9.582
  770W        W 4834   4.038   6.632   9.208
  771W        W 4835   5.834   1.660   1.919
  772W        W 4836   7.323  10.049   9.218
  773W        W 4837   6.741   4.664   9.085
  774W        W 4838   2.322   8.214  10.691
  775W        W 4839   4.513   8.325   8.454
  776W        W 4840   5.571   8.829   9.695
  777W        W 4841   8.325   9.465  11.791
  778W        W 4842   7.328   7.851  11.041
  779W        W 4843   6.840   9.813   1.676
  780W        W 4844   7.672   2.634  10.967
  781W        W 4845   7.089   6.899   0.845
  782W        W 4846   0.462  10.300  10.476
  783W        W 4847   1.259   7.931   9.142
  784W        W 4848   1.846   8.393   0.267
  785W        W 4849   1.687   3.823   0.426
  786W        W 4850   8.272   9.051   9.214
  787W        W 4851   2.374   5.724  11.883
  788W        W 4852   6.385   3.993   9.704
  789W        W 4853   9.786   2.819   1.457
  790W        W 4854   3.176   7.486   0.390
  791W        W 4855   1.815   5.714   0.525
  792W        W 4856   6.222   5.546   3.025
  793W        W 4857   9.976   9.983   0.365
  794W        W 4858   4.577  10.416   9.172
  795W        W 4859  10.480   7.895   1.779
  796W        W 4860   3.719   7.061  11.850
  797W        W 4861   8.382   1.284   9.061
  798W        W 4862   9.131   8.049   0.615
  799W        W 4863   1.259   5.522   0.602
  800W        W 4864   2.285  10.019   2.524
  801W        W 4865   3.754   8.435  11.943
  802W        W 4866   0.785   0.177  10.484
  803W        W 4867   9.563   8.943   0.187
  804W        W 4868   4.892   1.638   3.684
  805W        W 4869   3.415  10.371  10.372
  806W        W 4870   3.104   8.533  10.359
  807W        W 4871   4.908   4.174  11.268
  808W        W 4872   6.198   1.404   0.244
  809W        W 4873   9.094   5.538  10.942
  810W        W 4874   0.393   6.045   8.842
  811W        W 4875   7.010   2.722   1.712
  812W        W 4876   2.651   3.216   1.985
  813W        W 4877   1.877   7.950   1.457
  814W        W 4878   1.936  10.386   2.667
  815W        W 4879   8.592   4.685  10.575
  816W        W 4880   9.892   8.373   3.264
  817W        W 4881   3.907   3.396   0.701
  818W        W 4882   5.000   4.516   3.608
  819W        W 4883   3.574   7.864   9.447
  820W        W 4884   5.081   8.437   8.878
  821W        W 4885   4.645   6.848   3.477
  822W        W 4886   6.939   8.041   2.531
  823W        W 4887   0.022   3.675   8.835
  824W        W 4888   8.520   9.988   2.161
  825W        W 4889   0.339   9.895   1.719
  826W        W 4890   6.924  10.475   9.685
  827W        W 4891   6.564   6.599   9.752
  828W        W 4892  10.201   6.158   3.632
  829W        W 4893   7.668   8.895   1.959
  830W        W 4894   9.101   7.562  11.957
  831W        W 4895  10.015   3.284  10.979
  832W        W 4896   6.120   0.057   0.717
  833W        W 4897   1.248   3.631  10.089
  834W        W 4898   9.922   1.979   8.509
  835W        W 4899   0.272   2.695   1.516
  836W        W 4900   9.359   8.369   1.980
  837W        W 4901   2.825   7.410   3.426
  838W        W 4902   0.027   6.592   0.714
  839W        W 4903   8.118   9.362   8.801
  840W        W 4904   2.911   1.626  10.504
  841W        W 4905   2.363   7.006   8.778
  842W        W 4906   3.276   8.442  10.935
  843W        W 4907   4.013   6.124   8.409
  844W        W 4908   5.535   3.852   3.550
  845W        W 4909   1.701   8.021   9.386
  846W        W 4910   7.546   8.391   1.827
  847W        W 4911  10.438   4.195   1.172
  848W        W 4912   7.777   6.427  10.789
  849W        W 4913   7.108   7.465   3.213
  850W        W 4914   9.686   6.466  10.731
  851W        W 4915   3.160   2.643   0.982
  852W        W 4916   2.986   1.770   0.056
  853W        W 4917   3.282   4.895  11.544
  854W        W 4918   5.168   5.754  11.855
  855W        W 4919   1.355   3.312   1.181
  856W        W 4920   9.029   3.565  10.810
  857W        W 4921   8.185   8.809   0.405
  858W        W 4922   2.742   6.969   1.451
  859W        W 4923   9.879   7.366   1.754
  860W        W 4924   5.161  10.477  11.358
  861W        W 4925   5.734   8.063   3.371
  862W        W 4926   3.349   9.378   3.486
  863W        W 4927  10.431   0.864   1.814
  864W        W 4928   7.448   6.702   3.654
  865W        W 4929   7.488   4.900  11.806
  866W        W 4930   6.467   8.835   2.536
  867W        W 4931   6.970   7.529   1.796
  868W        W 4932   1.915   4.773   2.560
  869W        W 4933   7.622   9.126   9.992
  870W        W 4934   0.266   4.264   0.464
  871W        W 4935   7.101   2.716   8.813
  872W        W 4936   8.142   3.232   1.506
  873W        W 4937   1.308   6.217   1.535
  874W        W 4938   4.244   4.682  11.725
  875W        W 4939  10.442   7.530  10.009
  876W        W 4940   9.592   0.677   9.942
  877W        W 4941   9.933   0.714  10.789
  878W        W 4942   4.128   4.533   3.696
  879W        W 4943   3.567   9.063   9.098
  880W        W 4944   3.315   9.270   2.463
  881W        W 4945   5.009   7.706   0.076
  882W        W 4946   8.619   5.058  11.383
  883W        W 4947   0.409   0.524   9.265
  884W        W 4948   0.970   8.581  10.222
  885W        W 4949   4.212   2.353   2.982
  886W        W 4950   0.473   8.313   1.245
  887W        W 4951   1.844   8.859   1.894
  888W        W 4952   5.554   3.143   8.045
  889W        W 4953   3.812   0.383   0.448
  890W        W 4954   1.188   5.171   9.709
  891W        W 4955   9.000   9.395   3.513
  892W        W 4956   1.628   0.936   1.086
  893W        W 4957   7.619   1.054   1.150
  894W        W 4958   9.993  10.030   1.237
  895W        W 4959   1.247   5.008   0.400
  896W        W 4960   1.738   0.712   9.478
  897W        W 4961   1.799   6.667   2.290
  898W        W 4962   7.826   8.961  10.435
  899W        W 4963  10.376   3.194   8.692
  900W        W 4964  10.286   7.967   8.703
  901W        W 4965   9.137   9.599  10.961
  902W        W 4966  10.111   9.938   8.979
  903W        W 4967   2.392   7.261   0.946
  904W        W 4968  10.055   9.087   0.350
  905W        W 4969   0.286   0.692  10.678
  906W        W 4970   4.787   0.820   2.175
  907W        W 4971   4.523   8.705   3.587
  908W        W 4972  10.386   8.572   0.231
  909W        W 4973   3.274   2.097  10.803
  910W        W 4974   6.514   0.730  11.288
  911W        W 4975   0.036   3.271   2.170
  912W        W 4976   5.147   7.186   2.212
  913W        W 4977   1.132   3.795   2.390
  914W        W 4978   7.626   9.278  11.911
  915W        W 4979   9.835   1.246   0.499
  916W        W 4980   5.629   7.684  10.461
  917W        W 4981   2.815   7.435   0.730
  918W        W 4982   8.506   3.576   3.307
  919W        W 4983   0.651   5.599  11.857
  920W        W 4984   2.177   9.556   1.468
  921W        W 4985   5.447   7.709   3.708
  922W        W 4986   0.466   8.458   0.387
  923W        W 4987   5.925   7.547  11.572
  924W        W 4988   6.639   7.200   0.807
  925W        W 4989   8.768   7.309   0.878
  926W        W 4990   4.963   0.774   2.678
  927W        W 4991   4.437   6.931  11.207
  928W        W 4992   7.472   5.078   3.554
  929W        W 4993   3.063   3.014   1.760
  930W        W 4994   8.628   3.286   1.752
  931W        W 4995   1.360   2.833   3.318
  932W        W 4996   7.541   8.557  10.275
  933W        W 4997   4.855   3.090   2.258
  934W        W 4998   5.815   2.239   9.207
  935W        W 4999   6.500   9.349  10.720
  936W        W 5000   7.116   7.408   0.911
  937W        W 5001   4.977   5.500   2.136
  938W        W 5002   4.693   7.594   9.032
  939W        W 5003   0.532   9.910   0.267
  940W        W 5004   3.089   2.830  10.304
  941W        W 5005   0.269   5.560   1.866
  942W        W 5006  10.338   9.955   2.737
  943W        W 5007   9.944   9.563   9.297
  944W        W 5008   7.115   9.885   2.131
  945W        W 5009   5.641   6.020   2.931
  946W        W 5010  10.071   2.520   2.819
  947W        W 5011   8.392   2.945   0.300
  948W        W 5012   3.808   7.057  11.335
  949W        W 5013   6.115   6.553  10.057
  950W        W 5014   8.043   5.554   2.396
  951W        W 5015   5.204   7.656   2.050
  952W        W 5016   6.008   9.574   0.519
  953W        W 5017   9.738  10.459   3.830
  954W        W 5018   6.071   0.018  11.268
  955W        W 5019   6.531   4.015   0.021
  956W        W 5020   7.730   2.478   0.642
  957W        W 5021   1.930   4.828   3.633
  958W        W 5022   6.567   9.112   9.854
  959W        W 5023   1.413   0.551   2.938
  960W        W 5024   9.532   6.961  10.748
  961W        W 5025   9.090   3.045   2.353
  962W        W 5026   9.871   0.947   3.815
  963W        W 5027   0.655   4.719   8.672
  964W        W 5028   3.319   6.160  10.507
  965W        W 5029   6.248   7.226   3.585
  966W        W 5030   2.793   3.693   2.139
  967W        W 5031   3.570   6.485   2.207
  968W        W 5032   5.243   2.098   1.223
  969W        W 5033   3.391   4.998   0.786
  970W        W 5034   2.664   0.175   9.281
  971W        W 5035   4.596   4.593   1.937
  972W        W 5036  10.119   7.230   2.421
  973W        W 5037   7.084   8.325   8.551
  974W        W 5038   5.216   2.213   2.102
  975W        W 5039   1.197   5.236   2.951
  976W        W 5040   8.144   1.750   8.997
  977W        W 5041   6.667   5.398   9.527
  978W        W 5042   6.499   4.136   0.940
  979W        W 5043   4.989   1.415  10.199
  980W        W 5044   2.190   6.037   8.601
  981W        W 5045   0.895   6.817   2.835
  982W        W 5046   7.161   3.116   2.035
  983W        W 5047   7.481   6.592   0.995
  984W        W 5048   2.933   9.548  11.768
  985W        W 5049   0.731   2.348   2.150
  986W        W 5050   4.554   8.226   9.950
  987W        W 5051   2.450   9.381   3.190
  988W        W 5052   4.540   1.236   9.429
  989W        W 5053   3.868   3.629   3.508
  990W        W 5054   6.268   1.544   9.466
  991W        W 5055   4.742   6.532   4.222
  992W        W 5056   6.278   1.450   3.276
  993W        W 5057   9.512   4.131  11.344
  994W        W 5058   2.307   7.958   3.569
  995W        W 5059   1.637   5.534   1.882
  996W        W 5060   8.686   1.585   1.535
  997W        W 5061   1.289   9.482   9.251
  998W        W 5062   0.874   6.805   8.730
  999W        W 5063   2.955   1.461   2.724
 1000W        W 5064   5.616   9.516   9.953
 1001W        W 5065   0.559   1.806   1.365
 1002W        W 5066   5.532   6.938   0.936
 1003W        W 5067   5.506   4.863  10.849
 1004W        W 5068   1.753   9.973  10.829
 1005W        W 5069   3.787   4.943  11.619
 1006W        W 5070   0.035   6.210  10.888
 1007W        W 5071   8.372   2.793  11.422
 1008W        W 5072   6.788   8.508  11.573
 1009W        W 5073   1.320   0.537   1.156
 1010W        W 5074   0.927   7.298   2.655
 1011W        W 5075   1.223   0.608   1.672
 1012W        W 5076   5.200   5.592   9.452
 1013W        W 5077   7.661   4.748   8.748
 1014W        W 5078   3.739   4.573   2.443
 1015W        W 5079   9.566   9.745   9.631
 1016W        W 5080   5.829   3.238   3.906
 1017W        W 5081   9.073   3.120  11.021
 1018W        W 5082   8.181   1.737   1.294
 1019W        W 5083   0.716   9.898  11.776
 1020W        W 5084   8.699   8.967   0.500
 1021W        W 5085   6.960   7.929   9.344
 1022W        W 5086   9.079   2.623  10.892
 1023W        W 5087   7.485   0.971   8.787
 1024W        W 5088   4.084   4.703  10.274
 1025W        W 5089   4.514   8.938   1.652
 1026W        W 5090   3.552   0.012   0.190
 1027W        W 5091   6.766   6.137   1.302
 1028W        W 5092   7.667   1.745   2.347
 1029W        W 5093   7.930   1.960   9.986
 1030W        W 5094   6.024   4.525   3.843
 1031W        W 5095   2.823   6.015   0.557
 1032W        W 5096   4.904  10.499   0.411
 1033W        W 5097   1.889   6.135   9.002
 1034W        W 5098   8.935   9.427   0.786
 1035W        W 5099   6.500   8.915  11.542
 1036W        W 5100   8.658   0.209  10.389
 1037W        W 5101  10.043   2.621  10.107
 1038W        W 5102   1.292   2.415   2.992
 1039W        W 5103   1.989   7.603   2.657
 1040W        W 5104   4.227   9.954   0.158
 1041W        W 5105   0.257   8.613   9.961
 1042W        W 5106   9.418   6.565  11.668
 1043W        W 5107   2.062   7.619   8.711
 1044W        W 5108   7.483   3.153  11.821
 1045W        W 5109   4.064   6.612   0.441
 1046W        W 5110   4.097   6.609   0.953
 1047W        W 5111   8.417  10.041   0.751
 1048W        W 5112   5.069   6.719   3.872
 1049W        W 5113   6.508   3.506   0.067
 1050W        W 5114   0.270   3.718   2.220
 1051W        W 5115   0.684   6.433   9.032
 1052W        W 5116   9.074   5.016   0.361
 1053W        W 5117   9.576   3.140   2.284
 1054W        W 5118   3.442   4.658   9.119
 1055W        W 5119   9.723   7.286  10.392
 1056W        W 5120   6.462   3.933   8.436
 1057W        W 5121   1.229   4.137   9.927
 1058W        W 5122   4.244   4.687  10.762
 1059W        W 5123   8.140   9.559  10.910
 1060W        W 5124   4.497   6.924   9.351
 1061W        W 5125   9.772   9.877   2.164
 1062W        W 5126   7.417   4.667   0.284
 1063W        W 5127   8.569   3.775   0.925
 1064W        W 5128   0.070   1.951  10.698
 1065W        W 5129   4.375   5.243   1.011
 1066W        W 5130   9.290   8.844   9.889
 1067W        W 5131   5.854   0.423   9.131
 1068W        W 5132   9.925   2.210   9.301
 1069W        W 5133   4.092   7.881   9.315
 1070W        W 5134   6.554   2.803   1.937
 1071W        W 5135   3.561   1.434   3.503
 1072W        W 5136   1.778   1.671   9.086
 1073W        W 5137   5.985  10.408   1.173
 1074W        W 5138   9.998   6.140   9.629
 1075W        W 5139   2.779   4.709   3.054
 1076W        W 5140   9.014   0.944   1.712
 1077W        W 5141   2.731   5.510   0.258
 1078W        W 5142   5.914   4.864   1.986
 1079W        W 5143   2.656  10.210   0.199
 1080W        W 5144   5.593   9.747   3.223
 1081W        W 5145   0.011   2.312   0.434
 1082W        W 5146   5.705   1.903   2.535
 1083W        W 5147   5.998  10.088   0.463
 1084W        W 5148   2.639   2.690  11.267
 1085W        W 5149   4.841   8.590   1.468
 1086W        W 5150   8.123   8.092   3.394
 1087W        W 5151   0.806  10.323   3.355
 1088W        W 5152   5.593   5.948   9.467
 1089W        W 5153   2.868   7.887   0.980
 1090W        W 5154   0.352   2.601   3.352
 1091W        W 5155   6.589   1.185  11.517
 1092W        W 5156   5.974   0.845   0.950
 1093W        W 5157   7.910   7.793   0.687
 1094W        W 5158   1.825   5.508   1.394
 1095W        W 5159   2.701   3.398  11.735
 1096W        W 5160   1.435   6.451   3.522
 1097W        W 5161   3.319   8.403   2.104
 1098W        W 5162   6.619   6.702   0.879
 1099W        W 5163   3.301   8.677   1.039
 1100W        W 5164   7.407   0.264   2.877
 1101W        W 5165   0.507   3.380  11.830
 1102W        W 5166   3.779   8.811   2.755
 1103W        W 5167   2.761   4.311   1.033
 1104W        W 5168   6.011   3.673   0.475
 1105W        W 5169   2.319   8.122   0.383
 1106W        W 5170   9.956   6.332  10.308
 1107W        W 5171   9.813   8.959   9.955
 1108W        W 5172   1.611   3.891   2.276
 1109W        W 5173   2.793   9.527   3.536
 1110W        W 5174   9.898   5.439   1.909
 1111W        W 5175   2.166   7.342   9.153
 1112W        W 5176  10.491   1.135   9.879
 1113W        W 5177   3.120  10.279   1.940
 1114W        W 5178   7.008  10.350   1.249
 1115W        W 5179   0.413   9.336   1.006
 1116W        W 5180   4.522   0.459   2.988
 1117W        W 5181   3.406   3.549   0.845
 1118W        W 5182   7.197  10.347  10.530
 1119W        W 5183   5.070  10.483  11.907
 1120W        W 5184   4.794   9.997   9.350
 1121W        W 5185   7.232   8.847   0.809
 1122W        W 5186   5.394   5.786   9.898
 1123W        W 5187   9.356   9.069   3.052
 1124W        W 5188   3.522   3.102  10.083
 1125W        W 5189   1.312   8.175  10.169
 1126W        W 5190   4.108   4.171  10.864
 1127W        W 5191   9.399   3.268   2.776
 1128W        W 5192   5.736  10.035   9.837
 1129W        W 5193   4.601   9.444   1.506
 1130W        W 5194   9.184   8.653   8.888
 1131W        W 5195   3.421   1.806  11.754
 1132W        W 5196   3.510   6.227   3.186
 1133W        W 5197   0.034   4.061  11.320
 1134W        W 5198   6.503   6.138  10.997
 1135W        W 5199   5.595   8.754   1.507
 1136W        W 5200   1.306   6.942  10.530
 1137W        W 5201   4.749   1.681   9.568
 1138W        W 5202   4.541   9.596   9.535
 1139W        W 5203   6.018   1.038   9.456
 1140W        W 5204   9.603   6.725   2.797
 1141W        W 5205   6.680   7.938  10.387
 1142W        W 5206   9.912   2.613   9.605
 1143W        W 5207  10.378   4.706   1.132
 1144W        W 5208   4.289   2.243   2.481
 1145W        W 5209   3.849   9.821  10.875
 1146W        W 5210   7.788   7.012   2.849
 1147W        W 5211   9.026   7.921  10.128
 1148W        W 5212   3.240   7.289  11.688
 1149W        W 5213   7.520   7.383  10.951
 1150W        W 5214  10.443   3.260   9.213
 1151W        W 5215   4.032   6.550   2.454
 1152W        W 5216   3.272   6.225   1.376
 1153W        W 5217   5.539   5.340  11.750
 1154W        W 5218   3.696   4.590   9.900
 1155W        W 5219  10.242   9.359   1.589
 1156W        W 5220   1.282   7.610   1.202
 1157W        W 5221   0.662   1.972  10.881
 1158W        W 5222   9.180   0.394   3.529
 1159W        W 5223  10.355   6.154   9.970
 1160W        W 5224   0.806  10.271   9.577
 1161W        W 5225   9.885   8.595   0.409
 1162W        W 5226   6.064   9.439   1.443
 1163W        W 5227   0.865   1.648   0.990
 1164W        W 5228   0.347   3.701  11.028
 1165W        W 5229   8.116   8.711  11.221
 1166W        W 5230   0.391   7.831   1.442
 1167W        W 5231   4.751   8.606   0.965
 1168W        W 5232   4.695   5.149   0.271
 1169W        W 5233   5.652   2.140   1.848
 1170W        W 5234   5.450   6.492   0.426
 1171W        W 5235   9.290   9.654   0.519
 1172W        W 5236   2.734   8.069   9.004
 1173W        W 5237   3.564   9.384  10.813
 1174W        W 5238   7.590   2.714   9.046
 1175W        W 5239   0.392   6.674  10.414
 1176W        W 5240   9.392   3.922  10.878
 1177W        W 5241   9.754   0.907   2.230
 1178W        W 5242   9.104   4.441   1.257
 1179W        W 5243   8.455   9.980   9.915
 1180W        W 5244   3.761   4.554  10.873
 1181W        W 5245   7.242   0.291   2.399
 1182W        W 5246   2.110   0.278   0.125
 1183W        W 5247   7.599   5.166   0.255
 1184W        W 5248   8.069   0.842   0.946
 1185W        W 5249   6.399  10.281  11.581
 1186W        W 5250   4.963   5.705   8.989
 1187W        W 5251   8.162   0.724  10.852
 1188W        W 5252   0.676   2.406   1.638
 1189W        W 5253   6.514   5.074   9.956
 1190W        W 5254   5.624   3.123  11.408
 1191W        W 5255   9.784   2.579  10.556
 1192W        W 5256   8.378   2.673   3.041
 1193W        W 5257   3.149   8.825  11.272
 1194W        W 5258   4.127   7.986   9.817
 1195W        W 5259   6.027   2.786  11.457
 1196W        W 5260   9.893   5.224   2.373
 1197W        W 5261   2.623   2.386   9.740
 1198W        W 5262   3.641   0.353   2.504
 1199W        W 5263   4.623   3.253   3.123
 1200W        W 5264   0.287   7.945   2.378
 1201W        W 5265   4.230   5.448   3.235
 1202W        W 5266   3.353   5.471   2.727
 1203W        W 5267   3.842   7.452   9.499
 1204W        W 5268   3.910   5.816   7.992
 1205W        W 5269   0.792   3.561   9.753
 1206W        W 5270   9.958   6.290   2.424
 1207W        W 5271   1.672   0.317  11.366
 1208W        W 5272   9.566   3.658  11.940
 1209W        W 5273   2.644   8.858   3.199
 1210W        W 5274   5.150   8.594   2.374
 1211W        W 5275   8.827   4.539   8.653
 1212W        W 5276   2.178   4.183   9.567
 1213W        W 5277   9.834   3.058  10.352
 1214W        W 5278   9.702   2.646   9.136
 1215W        W 5279   8.469   8.583   0.764
 1216W        W 5280   2.137   3.927   3.522
 1217W        W 5281   2.420   7.493   9.588
 1218W        W 5282   3.629   9.000  11.205
 1219W        W 5283   4.357   4.011   2.259
 1220W        W 5284   5.216   7.166  11.823
 1221W        W 5285   0.766   3.269   1.080
 1222W        W 5286   1.437   2.591  11.104
 1223W        W 5287   2.252   6.995  11.489
 1224W        W 5288   5.690   6.417   9.350
 1225W        W 5289   4.319   3.136  10.962
 1226W        W 5290   7.644   5.852  11.815
 1227W        W 5291   1.649   5.362   9.608
 1228W        W 5292   4.227   3.142   9.445
 1229W        W 5293   0.390   2.264   2.940
 1230W        W 5294   0.350   6.415   1.653
 1231W        W 5295   1.416  10.237   8.995
 1232W        W 5296   7.100   4.707  11.009
 1233W        W 5297   9.715   3.651  11.442
 1234W        W 5298   4.425   5.732   8.763
 1235W        W 5299   8.819   8.972   9.121
 1236W        W 5300   4.994   1.328   8.677
 1237W        W 5301   5.506  10.366  11.699
 1238W        W 5302   8.052   2.789   1.210
 1239W        W 5303   9.387  10.501   0.023
 1240W        W 5304   4.168   8.901   9.030
 1241W        W 5305   2.127   1.819   2.523
 1242W        W 5306  10.034   0.510   2.001
 1243W        W 5307   3.485   8.128   9.863
 1244W        W 5308   6.542   6.784   1.734
 1245W        W 5309   6.175   3.248  10.203
 1246W        W 5310   3.296   8.580   0.130
 1247W        W 5311   0.674   9.939   8.399
 1248W        W 5312   8.907   2.740   8.578
 1249W        W 5313   5.548   6.496   4.019
 1250W        W 5314   9.562   1.654   9.031
 1251W        W 5315   9.626   4.270   9.488
 1252W        W 5316   4.571   4.229   2.739
 1253W        W 5317   5.612   5.167   0.223
 1254W        W 5318   1.595   9.114  11.286
 1255W        W 5319   9.281   7.670  11.463
 1256W        W 5320   9.919   0.797   0.723
 1257W        W 5321   3.735   5.998   1.694
 1258W        W 5322   0.381   2.082   3.432
 1259W        W 5323   5.608  10.282  11.193
 1260W        W 5324   6.031  10.455   8.973
 1261W        W 5325   7.829   2.290   9.571
 1262W        W 5326   4.623   1.215   2.479
 1263W        W 5327   6.452   4.396   9.409
 1264W        W 5328   9.613   4.749  10.787
 1265W        W 5329   3.366   5.217  10.753
 1266W        W 5330   4.539   6.434   3.206
 1267W        W 5331   2.185  10.407   0.456
 1268W        W 5332   9.814   5.665   9.432
 1269W        W 5333   4.256   2.163   1.980
 1270W        W 5334  10.321   6.880   3.215
 1271W        W 5335   7.055   1.278  11.250
 1272W        W 5336   7.421   8.282  10.741
 1273W        W 5337   9.699  10.088   9.268
 1274W        W 5338   6.600   2.779   8.955
 1275W        W 5339   0.016  10.386   2.555
 1276W        W 5340   4.509   2.314   9.841
 1277W        W 5341   6.583   2.180   3.299
 1278W        W 5342   9.954   1.283   2.537
 1279W        W 5343   2.396   5.956   9.498
 1280W        W 5344   5.776   3.778   3.115
 1281W        W 5345   8.143   1.796   3.473
 1282W        W 5346   2.715   1.487   2.284
 1283W        W 5347   1.855   2.585  10.045
 1284W        W 5348   8.965   3.632   2.883
 1285W        W 5349   1.216   5.595  11.872
 1286W        W 5350   0.918   1.293  11.222
 1287W        W 5351   0.341   4.485   0.956
 1288W        W 5352   1.225   3.124  10.321
 1289W        W 5353  10.461   4.586   3.082
 1290W        W 5354   7.008   3.587   3.315
 1291W        W 5355   3.725   0.947   9.390
 1292W        W 5356   4.859   1.857  10.579
 1293W        W 5357   5.594  10.393   0.793
 1294W        W 5358   3.633   6.199  10.933
 1295W        W 5359  10.342   8.171   2.193
 1296W        W 5360   4.070   4.715  11.248
 1297W        W 5361  10.278   3.506   2.957
 1298W        W 5362   1.561  10.149  10.381
 1299W        W 5363   8.041  10.372   1.324
 1300W        W 5364   4.715   2.066   2.748
 1301W        W 5365   7.448   4.530   1.830
 1302W        W 5366   3.137   3.797  10.599
 1303W        W 5367   5.174   5.151   0.487
 1304W        W 5368   4.744   4.515  11.620
 1305W        W 5369   8.284   1.324   2.281
 1306W        W 5370   4.680   8.502   0.454
 1307W        W 5371   5.176   1.579   1.275
 1308W        W 5372   0.008   4.787   3.535
 1309W        W 5373   1.353   9.396  10.087
 1310W        W 5374   5.492   3.819  10.722
 1311W        W 5375   3.811  10.303   9.836
 1312W        W 5376   9.222   4.478   0.109
 1313W        W 5377   5.033   4.075   1.150
 1314W        W 5378   4.913   5.589   1.207
 1315W        W 5379   7.545   1.770  10.844
 1316W        W 5380   2.301   9.431   9.144
 1317W        W 5381   2.658   7.971   3.223
 1318W        W 5382   7.537   7.151   8.987
 1319W        W 5383   3.784   6.260   0.722
 1320W        W 5384   0.567   0.339   0.268
 1321W        W 5385   3.141   3.311   2.187
 1322W        W 5386   4.908   2.071   0.402
 1323W        W 5387   6.912   2.232   8.863
 1324W        W 5388   6.476  10.194   2.435
 1325W        W 5389  10.339   6.588   9.576
 1326W        W 5390   4.617   5.042  10.088
 1327W        W 5391   9.499   0.553   0.893
 1328W        W 5392   7.489   3.319   3.185
 1329W        W 5393   3.364   5.892   4.047
 1330W        W 5394   0.035   1.826   0.598
 1331W        W 5395   8.093   1.710  11.043
 1332W        W 5396   7.877   3.464  11.130
 1333W        W 5397   4.800   2.013  11.083
 1334W        W 5398   4.483   5.707   0.217
 1335W        W 5399   8.863   5.997   2.724
 1336W        W 5400   4.019   3.620   0.265
 1337W        W 5401   4.172   2.721   0.695
 1338W        W 5402   7.448   9.862  10.596
 1339W        W 5403  10.310   7.022   3.750
 1340W        W 5404   8.578   1.892   9.220
 1341W        W 5405   3.156   7.838   3.383
 1342W        W 5406   7.489   6.100  10.466
 1343W        W 5407   0.270   2.223   1.879
 1344W        W 5408   3.108   8.484   9.820
 1345W        W 5409   9.816   9.839  10.107
 1346W        W 5410   5.936   1.097   3.440
 1347W        W 5411   3.849   2.679   1.209
 1348W        W 5412   7.291   9.002  10.346
 1349W        W 5413   9.787  10.357   1.934
 1350W        W 5414   9.806   0.340   9.237
 1351W        W 5415   5.961   2.179   9.680
 1352W        W 5416   5.638   0.907   8.673
 1353W        W 5417   0.426   6.780   9.927
 1354W        W 5418   2.553   5.597   0.733
 1355W        W 5419   1.230   3.235   9.779
 1356W        W 5420   0.777   5.696  10.908
 1357W        W 5421   0.352   3.406   0.778
 1358W        W 5422   7.922   4.708   2.846
 1359W        W 5423   7.056   6.976   8.981
 1360W        W 5424   5.575   9.330   0.410
 1361W        W 5425   2.707   3.880   0.727
 1362W        W 5426   8.314   8.529  11.704
 1363W        W 5427   2.463   6.867   0.080
 1364W        W 5428   7.735   8.637   0.767
 1365W        W 5429   1.785   9.875   2.687
 1366W        W 5430   5.070   4.180  10.763
 1367W        W 5431   0.404   5.562   3.268
 1368W        W 5432   7.274   0.292   1.066
 1369W        W 5433   7.560   2.150   2.720
 1370W        W 5434   5.684   2.469  10.005
 1371W        W 5435   0.329   4.188  10.918
 1372W        W 5436   6.956   3.732   1.711
 1373W        W 5437   3.840   9.632   0.167
 1374W        W 5438   3.248   9.309   9.488
 1375W        W 5439   8.157  10.480  11.879
 1376W        W 5440   3.877   5.763   0.674
 1377W        W 5441   8.373   0.224   1.520
 1378W        W 5442   8.892   2.293   9.312
 1379W        W 5443   1.905   2.814  10.894
 1380W        W 5444   7.086   6.576   9.884
 1381W        W 5445   2.466   3.772   1.154
 1382W        W 5446   6.085   7.029   1.507
 1383W        W 5447   1.814   7.447   1.302
 1384W        W 5448   5.963   6.157  10.362
 1385W        W 5449   9.309   1.461   9.408
 1386W        W 5450   9.476   4.207   1.729
 1387W        W 5451   8.917   8.583  11.086
 1388W        W 5452   8.943   4.205   3.411
 1389W        W 5453   3.720   7.178   3.391
 1390W        W 5454   3.136   4.029   1.850
 1391W        W 5455   2.814   7.898  11.516
 1392W        W 5456   3.399   8.031   0.198
 1393W        W 5457   3.820   5.098   8.583
 1394W        W 5458   0.465   7.360   0.556
 1395W        W 5459   2.845   7.613  10.395
 1396W        W 5460   5.955   3.566  10.810
 1397W        W 5461   2.161   6.905   9.408
 1398W        W 5462   5.050   5.493   2.644
 1399W        W 5463   9.347   1.017   0.434
 1400W        W 5464   4.973   8.102  10.808
 1401W        W 5465   0.373   8.163   3.338
 1402W        W 5466   4.641   0.830   0.154
 1403W        W 5467   6.601   4.199   2.797
 1404W        W 5468   0.018   7.067   9.775
 1405W        W 5469   1.290   3.549  10.598
 1406W        W 5470   2.627   5.524   1.733
 1407W        W 5471   0.681   9.848  10.318
 1408W        W 5472   3.110   9.701   2.277
 1409W        W 5473   1.694   8.015   8.827
 1410W        W 5474   8.559   9.464  11.337
 1411W        W 5475   5.917   3.080  10.615
 1412W        W 5476   7.015  10.459   9.180
 1413W        W 5477   0.680   2.252  10.019
 1414W        W 5478   5.991   7.329   3.080
 1415W        W 5479   5.477   6.083  10.291
 1416W        W 5480   5.496   9.429  11.449
 1417W        W 5481   4.196   4.427   3.202
 1418W        W 5482   7.190   5.175   2.372
 1419W        W 5483   3.423   7.011   2.825
 1420W        W 5484   1.906   5.849   3.743
 1421W        W 5485   8.794   6.876  10.249
 1422W        W 5486   1.279   7.634  10.053
 1423W        W 5487   3.968   8.765  10.287
 1424W        W 5488   5.079  10.067   1.374
 1425W        W 5489   6.895   5.615   8.723
 1426W        W 5490   2.884  10.383   9.661
 1427W        W 5491   6.775   2.937  10.782
 1428W        W 5492   3.019  10.279   9.187
 1429W        W 5493   8.108   2.921   9.948
 1430W        W 5494   0.914   5.627   3.395
 1431W        W 5495   3.428   9.775   9.355
 1432W        W 5496   1.672   1.722   8.554
 1433W        W 5497   9.893   4.690   9.574
 1434W        W 5498   1.185   3.448   0.734
 1435W        W 5499   9.832   5.380   3.352
 1436W        W 5500   7.859   2.443  11.410
 1437W        W 5501   7.110   5.789   9.583
 1438W        W 5502   4.194   5.273   1.976
 1439W        W 5503   5.967   4.779  10.658
 1440W        W 5504   8.490   2.876   0.915
 1441W        W 5505   0.887   6.542   3.271
 1442W        W 5506   9.511   1.347  10.272
 1443W        W 5507   3.388   4.350   0.304
 1444W        W 5508   9.417   4.963   2.441
 1445W        W 5509   9.326   3.277  11.452
 1446W        W 5510   9.500   4.699  10.285
 1447W        W 5511   2.839   8.358   2.293
 1448W        W 5512   0.433   5.895   1.522
 1449W        W 5513   8.586   8.232   3.573
 1450W        W 5514   5.320   1.847   3.515
 1451W        W 5515   7.648   5.820   9.604
 1452W        W 5516   3.536   7.997  10.919
 1453W        W 5517   3.165   6.250   2.391
 1454W        W 5518   1.397   0.941  10.388
 1455W        W 5519   5.168   5.194  11.060
 1456W        W 5520   5.712   4.387  11.961
 1457W        W 5521   6.969   6.462   8.966
 1458W        W 5522   7.025   2.836  10.267
 1459W        W 5523   7.956   8.612   1.629
 1460W        W 5524   9.780   9.790  11.916
 1461W        W 5525   1.731   1.150  11.690
 1462W        W 5526  10.369   4.503   0.685
 1463W        W 5527   5.649   4.227   0.476
 1464W        W 5528   9.845   3.052   3.468
 1465W        W 5529   6.027   1.284   1.198
 1466W        W 5530   0.264   0.952   2.276
 1467W        W 5531   3.615   0.746  10.220
 1468W        W 5532   4.433  10.479   1.534
 1469W        W 5533   8.820   3.171   3.314
 1470W        W 5534   4.240   0.828   9.454
 1471W        W 5535   6.471   2.484   0.400
 1472W        W 5536   6.567   0.306  10.933
 1473W        W 5537   2.722  10.319  11.139
 1474W        W 5538   5.307   9.759   1.727
 1475W        W 5539   3.271   1.371   1.180
 1476W        W 5540   2.277   0.050  11.035
 1477W        W 5541   1.361   5.721   1.476
 1478W        W 5542   7.942   0.295  11.543
 1479W        W 5543   9.082   3.735   0.167
 1480W        W 5544   1.724   1.182   9.256
 1481W        W 5545   7.144   1.284   1.223
 1482W        W 5546   9.782   3.305   1.287
 1483W        W 5547   3.650   5.062   3.129
 1484W        W 5548   8.530   5.188   1.241
 1485W        W 5549   8.355   3.653   9.407
 1486W        W 5550   2.693   8.155  10.367
 1487W        W 5551   3.617   7.475   0.711
 1488W        W 5552   5.992   5.090   9.318
 1489W        W 5553   8.365   9.259   0.252
 1490W        W 5554   7.059   9.410   1.455
 1491W        W 5555   6.197   7.492   9.318
 1492W        W 5556   8.113   4.020   0.821
 1493W        W 5557   8.200   9.965   9.478
 1494W        W 5558   0.819   0.589   1.013
 1495W        W 5559   7.326   5.093   0.670
 1496W        W 5560  10.462   1.350  11.366
 1497W        W 5561   3.829   9.304  10.356
 1498W        W 5562   2.760   7.389   2.297
 1499W        W 5563   8.970   3.159   0.926
 1500W        W 5564   4.026   7.453  11.992
 1501W        W 5565   6.758   7.752  11.038
 1502W        W 5566   9.558   4.098   3.425
 1503W        W 5567   1.628   5.108   3.259
 1504W        W 5568   4.677   9.982   9.847
 1505W        W 5569   0.937   8.193   0.400
 1506W        W 5570   9.932   3.642   1.669
 1507W        W 5571   8.817   6.103  11.363
 1508W        W 5572   5.163   7.995   3.191
 1509W        W 5573   1.268   2.109  11.397
 1510W        W 5574   6.469   6.502   2.697
 1511W        W 5575   0.652   5.662   9.067
 1512W        W 5576   1.808   4.389   9.279
 1513W        W 5577   8.545   4.709   0.989
 1514W        W 5578   0.896   8.982  10.854
 1515W        W 5579   6.214   7.938   8.537
 1516W        W 5580   6.002   9.007   1.707
 1517W        W 5581   8.150   5.004   9.551
 1518W        W 5582   2.750   4.242   8.864
 1519W        W 5583   9.497   9.403  10.613
 1520W        W 5584   3.728   7.666   3.221
 1521W        W 5585   0.855   6.014  11.335
 1522W        W 5586   9.945   2.417   1.155
 1523W        W 5587   8.597   1.467   1.069
 1524W        W 5588   3.264   2.916   0.498
 1525W        W 5589   4.117   4.930   3.280
 1526W        W 5590   0.250   7.821   8.890
 1527W        W 5591   3.783   0.905   2.241
 1528W        W 5592  10.259   0.832  11.436
 1529W        W 5593  10.251   0.957   2.274
 1530W        W 5594   3.366   4.263   2.236
 1531W        W 5595   0.795   7.379   9.440
 1532W        W 5596   5.746   6.330  11.641
 1533W        W 5597   1.941   1.550   0.215
 1534W        W 5598   2.844   0.914   2.906
 1535W        W 5599   1.953   2.208   1.437
 1536W        W 5600   2.593   7.996   9.486
 1537W        W 5601   4.200   2.763   9.921
 1538W        W 5602   6.972   7.914   1.038
 1539W        W 5603   6.744  10.027   8.942
 1540W        W 5604   3.191   6.664   1.051
 1541W        W 5605   4.270   7.520   2.050
 1542W        W 5606   5.997   5.730   2.195
 1543W        W 5607   8.819   7.420  11.497
 1544W        W 5608   3.331   0.422   0.669
 1545W        W 5609  10.215   0.458  11.800
 1546W        W 5610   2.442  10.419  10.031
 1547W        W 5611   7.751   6.551   3.268
 1548W        W 5612   9.034   9.869   1.455
 1549W        W 5613   5.146   9.584  10.741
 1550W        W 5614   7.882   5.719  11.217
 1551W        W 5615  10.362   1.663   1.590
 1552W        W 5616   1.747   3.554   0.843
 1553W        W 5617   4.965   5.014   3.398
 1554W        W 5618   3.749   3.651   2.644
 1555W        W 5619   4.182   4.203   0.909
 1556W        W 5620   3.672   0.312  10.551
 1557W        W 5621   6.690   0.629   3.221
 1558W        W 5622   0.761   4.769   0.314
 1559W        W 5623   6.828   2.686   3.273
 1560W        W 5624   0.955   1.756   9.388
 1561W        W 5625   7.659   9.041   8.557
 1562W        W 5626   8.169   3.195   9.279
 1563W        W 5627   5.464   8.008  10.841
 1564W        W 5628   3.579   3.653  10.893
 1565W        W 5629   5.057   7.842   9.914
 1566W        W 5630   3.262   6.196   0.826
 1567W        W 5631   1.137   9.451   2.257
 1568W        W 5632   2.586   8.081   2.727
 1569W        W 5633   5.095  10.438   9.308
 1570W        W 5634   8.404   4.434   2.890
 1571W        W 5635   9.991   4.148   1.473
 1572W        W 5636   2.151   2.722   2.578
 1573W        W 5637   9.239   0.300  11.495
 1574W        W 5638   9.855   7.964  10.618
 1575W        W 5639   5.140   7.544   8.262
 1576W        W 5640   1.613   9.879   9.946
 1577W        W 5641   1.234   5.672   9.555
 1578W        W 5642   6.545   5.996  11.504
 1579W        W 5643   4.504   4.484   0.575
 1580W        W 5644   1.213   4.756   9.375
 1581W        W 5645   8.653   6.254   1.256
 1582W        W 5646   3.564  10.008   1.409
 1583W        W 5647  10.489   2.814  11.142
 1584W        W 5648   6.148   4.675   2.946
 1585W        W 5649  10.394   9.468   1.093
 1586W        W 5650   9.841   9.284  11.932
 1587W        W 5651   5.040   3.712   8.503
 1588W        W 5652   2.716   0.659   9.453
 1589W        W 5653   7.942   5.413  10.769
 1590W        W 5654   5.136   2.350   0.783
 1591W        W 5655   8.289   7.833   2.298
 1592W        W 5656   1.903   2.356  11.150
 1593W        W 5657   3.228   3.784   2.453
 1594W        W 5658   7.039   8.509   2.740
 1595W        W 5659   7.562   3.357   2.681
 1596W        W 5660   1.330   4.728   3.507
 1597W        W 5661   3.252   1.956   2.943
 1598W        W 5662   8.302  10.316   1.816
 1599W        W 5663   2.420   2.450   1.383
 1600W        W 5664   3.461   6.907   1.961
 1601W        W 5665   7.673   0.004   2.517
 1602W        W 5666   1.349   6.963   9.017
 1603W        W 5667   7.206  10.325   2.662
 1604W        W 5668   6.542   2.229   2.318
 1605W        W 5669   1.844   9.143   2.326
 1606W        W 5670   3.682   7.230  10.067
 1607W        W 5671   2.806   2.587   1.887
 1608W        W 5672   4.895   0.254   2.594
 1609W        W 5673   7.723   1.933   3.205
 1610W        W 5674   2.952   3.610   1.092
 1611W        W 5675   3.564   2.622   0.196
 1612W        W 5676   6.729   0.152   1.566
 1613W        W 5677   8.451   4.597   1.992
 1614W        W 5678   8.055   6.136   3.113
 1615W        W 5679   1.040   9.980   9.237
 1616W        W 5680   8.530   9.249  10.439
 1617W        W 5681   8.090   0.532   9.698
 1618W        W 5682   0.219  10.398   1.602
 1619W        W 5683   8.521   0.688   9.123
 1620W        W 5684   4.750   6.446   9.439
 1621W        W 5685   3.201   9.117  11.973
 1622W        W 5686  10.059   9.948   9.587
 1623W        W 5687  10.087   4.737  10.949
 1624W        W 5688   2.164   1.668  11.714
 1625W        W 5689   1.069   0.785  11.172
 1626W        W 5690   8.875   8.001   0.150
 1627W        W 5691   3.901   5.137   0.809
 1628W        W 5692   5.561   5.867   1.014
 1629W        W 5693  10.299   8.859   9.753
 1630W        W 5694   0.229   7.886   9.393
 1631W        W 5695   6.220   6.485   3.169
 1632W        W 5696   3.177   6.052   3.576
 1633W        W 5697   9.497   2.941   9.568
 1634W        W 5698   6.452   1.861   0.479
 1635W        W 5699   0.873   1.259   2.873
 1636W        W 5700   1.718   1.506   2.368
 1637W        W 5701   5.295   7.542   9.286
 1638W        W 5702   8.827   9.981  10.752
 1639W        W 5703   8.238   7.856   0.294
 1640W        W 5704   1.411   1.978   9.509
 1641W        W 5705   4.172   9.946   9.995
 1642W        W 5706   4.938   6.488   1.452
 1643W        W 5707   2.016   8.010   0.946
 1644W        W 5708   1.291   0.769   9.044
 1645W        W 5709   6.963   0.405   9.997
 1646W        W 5710   7.237   1.836   3.353
 1647W        W 5711   3.647   1.747   0.205
 1648W        W 5712   3.159   3.562   2.913
 1649W        W 5713   2.117   3.847   0.163
 1650W        W 5714   9.443   3.238  10.005
 1651W        W 5715   8.286   6.280  10.805
 1652W        W 5716   6.646   4.990   0.436
 1653W        W 5717   1.086   5.160  11.408
 1654W        W 5718   0.465   1.313  10.005
 1655W        W 5719   9.873   7.638   2.689
 1656W        W 5720   0.088   7.071   2.229
 1657W        W 5721   4.235   5.141  11.013
 1658W        W 5722   3.098   8.210  11.822
 1659W        W 5723   1.033  10.000   0.172
 1660W        W 5724   9.610   6.231   9.949
 1661W        W 5725   8.686   6.034   2.245
 1662W        W 5726   7.504   2.419   3.174
 1663W        W 5727   4.102   0.323   2.277
 1664W        W 5728   1.941   1.714  10.641
 1665W        W 5729   1.740   4.057  11.815
 1666W        W 5730   0.503   2.697  10.196
 1667W        W 5731   6.924   2.554   9.279
 1668W        W 5732   6.958   5.872   0.862
 1669W        W 5733   6.223   0.915  11.927
 1670W        W 5734   2.915   5.586   2.956
 1671W        W 5735  10.334   3.722   1.964
 1672W        W 5736   9.193   3.755  11.342
 1673W        W 5737   6.237   4.029   3.115
 1674W        W 5738   6.282  10.098   0.875
 1675W        W 5739   0.681   0.874   1.409
 1676W        W 5740   8.766   4.627   0.308
 1677W        W 5741   4.576   4.775  11.225
 1678W        W 5742   1.421   1.874  10.495
 1679W        W 5743   5.811   9.844   1.753
 1680W        W 5744   5.144   8.568  11.573
 1681W        W 5745   4.062   7.511   0.975
 1682W        W 5746   4.680   5.574   2.971
 1683W        W 5747   4.563   0.321   2.058
 1684W        W 5748   9.542   1.128   9.060
 1685W        W 5749  10.220   1.862  11.063
 1686W        W 5750   6.675   7.681   8.533
 1687W        W 5751   7.912   6.040   2.628
 1688W        W 5752   5.020   3.345   8.957
 1689W        W 5753   3.678   6.349  11.769
 1690W        W 5754   7.887   5.934  10.732
 1691W        W 5755   3.802   5.962   2.703
 1692W        W 5756   4.222   5.178  11.550
 1693W        W 5757   6.551   5.713   3.379
 1694W        W 5758   2.988   4.702   8.920
 1695W        W 5759   2.714   3.749   2.673
 1696W        W 5760   0.834   2.797   3.265
 1697W        W 5761   6.006   9.156   0.196
 1698W        W 5762   5.521   8.932   1.982
 1699W        W 5763   7.019   6.083  11.324
 1700W        W 5764   1.353   9.128  11.753
 1701W        W 5765   3.440   8.005   2.947
 1702W        W 5766   2.637   4.086   9.356
 1703W        W 5767   5.049   3.648   3.751
 1704W        W 5768   7.085   2.828  11.856
 1705W        W 5769   8.171   4.167   1.326
 1706W        W 5770   5.168   3.289  11.239
 1707W        W 5771   5.655   1.872   1.400
 1708W        W 5772   4.042   3.236   1.885
 1709W        W 5773   7.385   0.809   2.126
 1710W        W 5774   7.032   1.435  11.722
 1711W        W 5775   8.016   4.091   2.882
 1712W        W 5776   5.242   1.685   0.511
 1713W        W 5777   9.457   0.845   3.525
 1714W        W 5778   8.365   8.864   1.379
 1715W        W 5779  10.118   7.132  10.085
 1716W        W 5780   0.400   2.267  10.467
 1717W        W 5781   4.063   1.984   3.310
 1718W        W 5782   3.051   1.696   1.970
 1719W        W 5783   8.414   5.975  10.412
 1720W        W 5784   2.225   0.906   9.445
 1721W        W 5785   0.429   3.886  11.889
 1722W        W 5786  10.058   1.754   2.365
 1723W        W 5787   4.220   9.620  10.389
 1724W        W 5788   5.242   6.633   9.476
 1725W        W 5789   9.072   1.297   3.555
 1726W        W 5790   5.404   5.568   1.390
 1727W        W 5791   7.438   6.231   9.360
 1728W        W 5792   5.200   4.799   0.860
 1729W        W 5793   1.710   9.434  11.939
 1730W        W 5794   2.840   8.840   0.215
 1731W        W 5795   0.277   5.010   3.122
 1732W        W 5796   8.917   4.571   1.697
 1733W        W 5797   4.755  10.329   2.956
 1734W        W 5798   5.702   4.520  11.182
 1735W        W 5799   7.703  10.415  10.445
 1736W        W 5800   8.155   6.766  11.553
 1737W        W 5801   0.459   7.225   0.051
 1738W        W 5802   7.434   4.814   9.499
 1739W        W 5803   5.947   7.874  10.106
 1740W        W 5804   0.117   7.504  10.502
 1741W        W 5805   7.951   9.224   9.617
 1742W        W 5806   6.277   7.018  10.050
 1743W        W 5807   8.598   5.131   0.363
 1744W        W 5808   9.406   4.697   0.525
 1745W        W 5809   5.535   4.788   2.328
 1746W        W 5810   5.580   3.629  11.251
 1747W        W 5811   7.996   8.799   9.890
 1748W        W 5812   9.461   0.351   0.426
 1749W        W 5813   8.972   7.216   9.402
 1750W        W 5814   8.877   8.065   9.653
 1751W        W 5815   7.642   5.597  10.409
 1752W        W 5816   5.062   1.276   2.852
 1753W        W 5817   2.203   0.765   0.286
 1754W        W 5818   3.614   3.528   9.832
 1755W        W 5819  10.320   6.150   2.045
 1756W        W 5820   4.253   3.690   0.971
 1757W        W 5821   9.338   7.443   9.095
 1758W        W 5822   2.155   3.790   1.552
 1759W        W 5823   9.044   6.222  11.824
 1760W        W 5824   4.704   1.323   3.308
 1761W        W 5825  10.467   1.862   2.092
 1762W        W 5826   9.723   5.130  10.469
 1763W        W 5827   1.492   1.705   9.999
 1764W        W 5828   1.270   3.394   3.324
 1765W        W 5829   4.694   9.832   0.305
 1766W        W 5830  10.016   8.526   1.429
 1767W        W 5831   2.185   5.040  10.717
 1768W        W 5832   9.599   2.149   8.903
 1769W        W 5833   4.775   7.632  10.728
 1770W        W 5834   8.204   5.375  11.422
 1771W        W 5835   6.922   0.376   2.842
 1772W        W 5836   7.073   9.836   1.187
 1773W        W 5837   2.951   8.361  11.346
 1774W        W 5838   3.246   1.045   3.311
 1775W        W 5839   6.531   5.710   9.092
 1776W        W 5840   7.873   4.529   9.578
 1777W        W 5841   4.276   4.051   0.407
 1778W        W 5842   9.616   0.327   1.726
 1779W        W 5843   9.658   7.963   3.051
 1780W        W 5844   2.206   6.412   2.075
 1781W        W 5845   9.987   6.846  10.495
 1782W        W 5846   2.640   0.788   1.692
 1783W        W 5847   8.350   2.337   9.264
 1784W        W 5848  10.125   7.459  11.799
 1785W        W 5849   7.543   4.384   9.210
 1786W        W 5850   0.381   3.608   3.220
 1787W        W 5851   7.958   7.378   8.739
 1788W        W 5852   1.054   8.354   0.936
 1789W        W 5853   0.886   1.605   2.472
 1790W        W 5854   0.342   1.399   0.736
 1791W        W 5855   9.423   0.799   1.423
 1792W        W 5856   0.487   4.797  11.877
 1793W        W 5857   6.137   2.742   9.961
 1794W        W 5858   6.670   0.882   9.128
 1795W        W 5859   7.217   8.316   9.536
 1796W        W 5860   4.573   9.497  10.038
 1797W        W 5861   7.072   3.720   8.730
 1798W        W 5862   0.854   7.095   0.352
 1799W        W 5863   6.411   8.741   3.432
 1800W        W 5864   8.043  10.433   3.275
 1801W        W 5865   8.318   3.741  11.028
 1802W        W 5866  10.108   6.600   2.814
 1803W        W 5867   7.389   5.721  11.387
 1804W        W 5868   6.003   5.628  10.845
 1805W        W 5869   1.654   7.344   9.904
 1806W        W 5870   3.830   2.725   1.757
 1807W        W 5871   2.122   0.084   1.378
 1808W        W 5872   8.437   7.473   1.963
 1809W        W 5873   4.218   4.972   2.368
 1810W        W 5874   8.830   2.123  10.362
 1811W        W 5875   4.696   5.500   0.709
 1812W        W 5876   4.654   7.880   0.439
 1813W        W 5877   7.443   2.732  11.476
 1814W        W 5878   9.130   7.075  11.726
 1815W        W 5879  10.462   6.984   2.722
 1816W        W 5880   6.495   4.896   9.491
 1817W        W 5881   6.037   5.242  10.440
 1818W        W 5882   1.610   9.632  10.463
 1819W        W 5883   0.218   9.008  10.359
 1820W        W 5884   9.966   9.458   9.793
 1821W        W 5885   2.857   4.719  11.163
 1822W        W 5886   5.410   4.094  11.161
 1823W        W 5887  10.403   0.191   3.452
 1824W        W 5888   3.734   2.895   2.798
 1825W        W 5889   2.372   3.633  11.151
 1826W        W 5890   4.189   7.055   1.229
 1827W        W 5891   7.098   5.454   1.774
 1828W        W 5892   5.923   9.452   9.155
 1829W        W 5893   1.176   6.503   9.154
 1830W        W 5894   4.658   4.048   0.784
 1831W        W 5895  10.226   8.814  11.257
 1832W        W 5896   1.206   1.848   2.148
 1833W        W 5897  10.013   0.954   9.826
 1834W        W 5898   7.109   0.842   2.971
 1835W        W 5899   0.188   0.790   1.388
 1836W        W 5900   2.906   5.790   9.864
 1837W        W 5901   8.082   7.743   1.747
 1838W        W 5902   2.200   9.821   2.986
 1839W        W 5903   0.283   2.591  11.535
 1840W        W 5904   2.977   5.226  11.319
 1841W        W 5905   0.258   5.222  11.695
 1842W        W 5906   2.803   3.200   1.360
 1843W        W 5907   6.764   6.499   3.128
 1844W        W 5908   7.867   5.782   0.953
 1845W        W 5909   7.549   4.664  11.281
 1846W        W 5910   0.253   0.930  11.459
 1847W        W 5911   1.456   1.842   3.644
 1848W        W 5912   8.555   6.366   9.428
 1849W        W 5913   5.145   4.264   0.670
 1850W        W 5914   5.698  10.256   2.966
 1851W        W 5915   5.677   2.883   1.433
 1852W        W 5916   0.217  10.061  11.858
 1853W        W 5917   2.704   2.358   0.792
 1854W        W 5918   4.496   0.270  10.912
 1855W        W 5919   3.390   9.466   2.948
 1856W        W 5920   9.980   9.375  10.298
 1857W        W 5921   9.046   9.386   9.995
 1858W        W 5922   3.626   4.527  11.405
 1859W        W 5923   1.814   1.232   1.919
 1860W        W 5924   6.727   4.984   8.269
 1861W        W 5925   8.551   9.489   9.996
 1862W        W 5926   9.421   1.468   0.206
 1863W        W 5927   6.094   5.445   0.809
 1864W        W 5928   9.202   0.486   2.608
 1865W        W 5929   2.918   5.489  10.832
 1866W        W 5930   4.130   3.606  10.867
 1867W        W 5931   1.452  10.392   2.367
 1868W        W 5932   4.993   2.717  10.558
 1869W        W 5933   4.056   1.277   9.638
 1870W        W 5934   1.783   4.779  11.102
 1871W        W 5935   9.372  10.187   2.253
 1872W        W 5936   3.231   7.523   1.025
 1873W        W 5937   5.630   0.758  10.235
 1874W        W 5938   3.291   2.719   9.803
 1875W        W 5939   3.281   9.166   8.666
 1876W        W 5940   9.930   0.203  10.822
 1877W        W 5941   5.602   5.505   0.646
 1878W        W 5942   2.257   6.907  10.476
 1879W        W 5943   5.795   4.001  10.345
 1880W        W 5944   8.590  10.271  11.690
 1881W        W 5945   3.746   5.055  10.114
 1882W        W 5946   1.934   3.366   0.365
 1883W        W 5947   6.481   3.850   0.500
 1884W        W 5948   8.906   0.186  11.900
 1885W        W 5949   6.475   6.317   9.220
 1886W        W 5950   8.296   4.703   0.502
 1887W        W 5951   6.115   2.326   3.131
 1888W        W 5952   4.530   6.645  11.665
 1889W        W 5953   9.169   1.924  11.987
 1890W        W 5954   1.471   0.750  10.841
 1891W        W 5955   1.654   8.869   8.410
 1892W        W 5956   3.798   5.190   1.672
 1893W        W 5957   2.500   6.239   2.832
 1894W        W 5958  10.227   0.293   8.928
 1895W        W 5959  10.010   2.765  10.984
 1896W        W 5960   6.223   7.444   8.802
 1897W        W 5961   5.502   4.289   9.877
 1898W        W 5962   8.795   8.948  10.093
 1899W        W 5963   8.355   2.669  10.535
 1900W        W 5964   5.437   9.189   1.269
 1901W        W 5965   3.298   2.619  10.864
 1902W        W 5966   9.221   0.957   9.432
 1903W        W 5967   7.333   3.338   8.418
 1904W        W 5968   6.133   7.007   0.988
 1905W        W 5969   5.686   0.238  10.422
 1906W        W 5970   9.736   8.440   9.922
 1907W        W 5971   0.426   6.998   9.470
 1908W        W 5972   2.591   3.359   0.817
 1909W        W 5973   0.724   6.508   9.536
 1910W        W 5974   1.680   8.184   2.315
 1911W        W 5975   7.901   2.893  10.410
 1912W        W 5976   4.688   0.824   9.711
 1913W        W 5977   9.862   1.453   8.658
 1914W        W 5978   5.724   2.958  10.163
 1915W        W 5979   4.279   9.003   9.957
 1916W        W 5980   5.512   8.361   0.221
 1917W        W 5981   1.460   0.457   0.660
 1918W        W 5982   4.172   9.733   1.268
 1919W        W 5983   2.035   5.535  10.514
 1920W        W 5984   7.874   7.509   9.736
 1921W        W 5985   2.315   8.770  11.870
 1922W        W 5986   3.044   1.697   8.696
 1923W        W 5987   5.216   8.923   3.312
 1924W        W 5988   6.060   0.916   9.994
 1925W        W 5989   6.171   7.593   2.171
 1926W        W 5990   2.158   7.754   0.079
 1927W        W 5991   7.519   9.938   2.483
 1928W        W 5992   8.631   2.651   3.486
 1929W        W 5993  10.478   5.164   1.701
 1930W        W 5994   9.825   4.565   1.809
 1931W        W 5995   7.896   7.173  10.616
 1932W        W 5996   8.133   8.157   1.474
 1933W        W 5997   4.683   3.437  11.167
 1934W        W 5998   9.268   0.237   2.172
 1935W        W 5999   7.451   0.827  10.456
 1936W        W 6000   0.051   0.345   1.153
 1937W        W 6001   1.380   3.686  11.589
 1938W        W 6002   9.997   5.452   0.526
 1939W        W 6003  10.125   9.292   3.305
 1940W        W 6004   3.624   4.058  11.232
 1941W        W 6005   4.967   9.070   1.421
 1942W        W 6006   4.632   8.420  11.957
 1943W        W 6007   1.573   5.269  11.297
 1944W        W 6008   1.655   0.763   2.089
 1945W        W 6009   3.820   9.613   1.631
 1946W        W 6010   2.767   1.833   3.130
 1947W        W 6011   1.830   4.048   3.126
 1948W        W 6012   9.887   2.040   2.745
 1949W        W 6013   6.429   8.004   2.358
 1950W        W 6014   2.860   6.436  10.588
 1951W        W 6015   3.071   5.047   2.770
 1952W        W 6016   1.246   9.067  10.473
 1953W        W 6017   2.212   7.070   3.432
 1954W        W 6018   5.123   4.695   9.230
 1955W        W 6019   8.745   6.201   9.892
 1956W        W 6020   2.246   7.351   0.432
 1957W        W 6021   6.853   4.229   9.853
 1958W        W 6022   4.654   6.088  10.965
 1959W        W 6023   7.437   4.483   4.202
 1960W        W 6024   2.756   0.991  11.801
 1961W        W 6025   8.985   8.022  11.108
 1962W        W 6026   8.886   6.363   9.041
 1963W        W 6027   7.630   4.137  11.439
 1964W        W 6028   9.716   6.237   2.880
 1965W        W 6029   9.305   2.350  10.505
 1966W        W 6030   8.212   4.589   2.444
 1967W        W 6031   0.448   6.894   2.566
 1968W        W 6032  10.453   2.255  11.349
 1969W        W 6033   2.684   6.881   3.529
 1970W        W 6034   8.044   9.062   3.497
 1971W        W 6035   5.492   8.855   0.310
 1972W        W 6036   2.536   9.885  11.760
 1973W        W 6037   4.505   3.183   9.886
 1974W        W 6038   2.232  10.287   0.965
 1975W        W 6039   0.858   9.005  11.786
 1976W        W 6040   3.605  10.488   1.208
 1977W        W 6041   8.300   5.137   0.786
 1978W        W 6042   7.530   0.519   8.492
 1979W        W 6043   0.771   1.112   2.375
 1980W        W 6044   9.534   0.178   9.980
 1981W        W 6045   9.101   2.853   3.625
 1982W        W 6046   6.609   7.118  11.009
 1983W        W 6047   5.606   7.954   9.255
 1984W        W 6048   1.987   6.970   0.225
 1985W        W 6049   6.026   4.076   3.581
 1986W        W 6050   2.768  10.049   0.984
 1987W        W 6051   9.671   3.424   9.558
 1988W        W 6052   0.731   8.555   2.483
 1989W        W 6053   0.665   8.662   0.821
 1990W        W 6054   5.804   9.967   8.930
 1991W        W 6055   7.636   3.181  10.758
 1992W        W 6056   3.566   0.230   9.052
 1993W        W 6057   2.896   2.134  10.468
 1994W        W 6058   3.906   1.323   0.319
 1995W        W 6059   0.356   5.848  10.648
 1996W        W 6060   8.338   4.741  11.030
 1997W        W 6061   3.327   9.463  10.358
 1998W        W 6062   5.148   6.219   3.779
 1999W        W 6063   7.161   4.280  11.333
 2000W        W 6064   5.467   0.929   2.667
 2001W        W 6065   7.889   2.781   3.240
 2002W        W 6066   0.349   2.522   9.672
 2003W        W 6067  10.240   7.407   3.433
 2004W        W 6068   5.773   2.713   0.939
 2005W        W 6069   7.443   2.696  10.518
 2006W        W 6070   2.234   2.901   8.946
 2007W        W 6071   6.880   8.064   1.511
 2008W        W 6072   6.516   0.623   1.681
 2009W        W 6073  10.002   8.340   9.006
 2010W        W 6074   7.329   8.727   9.251
 2011W        W 6075   3.373   3.190   3.841
 2012W        W 6076   8.329   1.255   2.833
 2013W        W 6077   9.251   1.567   3.171
 2014W        W 6078   7.244   7.628   1.383
 2015W        W 6079   0.740   1.893   2.862
 2016W        W 6080   1.279   8.064   2.021
 2017W        W 6081   5.765   3.905   2.268
 2018W        W 6082   4.996   0.411   9.687
 2019W        W 6083  10.343   7.481   9.507
 2020W        W 6084   9.659  10.299   3.100
 2021W        W 6085   5.119   8.058   9.453
 2022W        W 6086   0.459   4.531   9.998
 2023W        W 6087   5.162   9.069  11.480
 2024W        W 6088   9.137   8.332  11.481
 2025W        W 6089   2.844   9.238   2.254
 2026W        W 6090   7.771   9.424   3.206
 2027W        W 6091  10.258   8.411   9.997
 2028W        W 6092   2.726   0.726   0.240
 2029W        W 6093   1.490   7.609   0.737
 2030W        W 6094   8.064   1.421  10.361
 2031W        W 6095   3.820   7.588  11.040
 2032W        W 6096   4.206   4.494   2.244
 2033W        W 6097   7.412   7.949   0.743
 2034W        W 6098   9.047   1.591  11.593
 2035W        W 6099   1.217   8.564   3.261
 2036W        W 6100   0.465   1.393  11.363
 2037W        W 6101   9.856   8.387  10.973
 2038W        W 6102   3.789   0.394   0.950
 2039W        W 6103   8.547   1.379   0.573
 2040W        W 6104   5.723   2.888   2.345
 2041W        W 6105   3.390   5.738   3.212
 2042W        W 6106   8.398   2.798   9.523
 2043W        W 6107   8.857   6.236   1.776
 2044W        W 6108   2.346   0.361   3.226
 2045W        W 6109   8.659   9.041   1.782
 2046W        W 6110   6.701   1.793   9.199
 2047W        W 6111   1.492   9.950   9.447
 2048W        W 6112   1.876   8.078  11.470
 2049W        W 6113   1.711   6.201   8.521
 2050W        W 6114   1.325   1.074   1.824
 2051W        W 6115  10.083   6.978  11.610
 2052W        W 6116   3.577   2.283   9.101
 2053W        W 6117   2.307   5.686   2.739
 2054W        W 6118   7.410   2.584   9.514
 2055W        W 6119   2.397   9.671  11.300
 2056W        W 6120   1.246   9.388  11.022
 2057W        W 6121  10.420   5.701  10.867
 2058W        W 6122   9.971   1.358  11.533
 2059W        W 6123   0.301   1.476   9.504
 2060W        W 6124  10.374   2.408   9.540
 2061W        W 6125   6.187   6.529   0.707
 2062W        W 6126   2.372   9.635  10.125
 2063W        W 6127   1.074   7.396  10.458
 2064W        W 6128   4.601   5.150   8.860
 2065W        W 6129   5.145   9.528   2.650
 2066W        W 6130   2.362   2.104   0.512
 2067W        W 6131   3.903   4.153   3.987
 2068W        W 6132   4.701   2.432   3.146
 2069W        W 6133   2.764   4.626   8.461
 2070W        W 6134   5.571   4.368   3.568
 2071W        W 6135   5.246   0.886  11.433
 2072W        W 6136   4.516   4.663   1.428
 2073W        W 6137   5.650   0.747   3.132
 2074W        W 6138   1.493   8.930   1.545
 2075W        W 6139   1.106   8.983  11.322
 2076W        W 6140   2.341   6.014   2.349
 2077W        W 6141   0.823   2.625   9.260
 2078W        W 6142   3.900   1.904  10.250
 2079W        W 6143   0.854   7.679   1.864
 2080W        W 6144   5.291   4.449  11.506
 2081W        W 6145   5.255  10.499  10.843
 2082W        W 6146   2.860   3.990   1.422
 2083W        W 6147   7.458   6.112  11.025
 2084W        W 6148   5.921   3.197   9.758
 2085W        W 6149   8.493   9.511   9.500
 2086W        W 6150   9.615  10.186  11.613
 2087W        W 6151   8.300   5.104  10.495
 2088W        W 6152   2.638   7.109   9.201
 2089W        W 6153   6.318   9.379   8.840
 2090W        W 6154   0.823   5.247   0.537
 2091W        W 6155  10.109   1.427   9.702
 2092W        W 6156   6.498   1.134   1.883
 2093W        W 6157   0.054   9.564   2.974
 2094W        W 6158   9.480   2.893  11.792
 2095W        W 6159   3.668   9.335  11.786
 2096W        W 6160   9.871   5.218   2.879
 2097W        W 6161   6.565   4.336   0.433
 2098W        W 6162   8.288  10.462  11.280
 2099W        W 6163   9.161   6.127   2.157
 2100W        W 6164   0.451   2.051   0.390
 2101W        W 6165   3.006   8.706  11.738
 2102W        W 6166   5.477   2.138   0.447
 2103W        W 6167   8.992   7.523  11.021
 2104W        W 6168   8.747   3.558  11.240
 2105W        W 6169   5.064   5.200   9.103
 2106W        W 6170   8.992   8.372  10.618
 2107W        W 6171   2.287   4.869   8.452
 2108W        W 6172   3.687   0.866   0.186
 2109W        W 6173   4.259   9.251   3.732
 2110W        W 6174   9.156   2.398   8.872
 2111W        W 6175   2.692   0.576   2.514
 2112W        W 6176   8.477   7.953  10.970
 2113W        W 6177   7.040   3.573   2.270
 2114W        W 6178   3.684  10.381   8.694
 2115W        W 6179   6.262   6.734  11.061
 2116W        W 6180   3.544   1.722   2.155
 2117W        W 6181   9.833   1.514  11.050
 2118W        W 6182   3.757   0.405   1.471
 2119W        W 6183  10.088  10.265   3.472
 2120W        W 6184   8.363   8.109   1.014
 2121W        W 6185   8.815   9.243  11.829
 2122W        W 6186   2.945   7.673   2.935
 2123W        W 6187   9.956   9.280  10.781
 2124W        W 6188   5.673   6.704   9.759
 2125W        W 6189   7.956   6.227  11.213
 2126W        W 6190   7.461   0.323   1.908
 2127W        W 6191   6.819   9.398  11.584
 2128W        W 6192   8.151   1.331   0.872
 2129W        W 6193   1.172   2.632  11.562
 2130W        W 6194   8.929   9.961   2.480
 2131W        W 6195   4.966   5.997  10.075
 2132W        W 6196   1.012   4.703   2.210
 2133W        W 6197   2.796   8.905  10.890
 2134W        W 6198   4.258   0.315   0.716
 2135W        W 6199  10.370   0.395  10.529
 2136W        W 6200   4.052   9.842   2.293
 2137W        W 6201   9.110   3.851  10.409
 2138W        W 6202   5.728   0.206   1.487
 2139W        W 6203   3.240   3.451   8.606
 2140W        W 6204   3.641   9.047   0.804
 2141W        W 6205   0.839   0.788   9.387
 2142W        W 6206   2.385   1.240   0.345
 2143W        W 6207   0.850   6.959   9.756
 2144W        W 6208   1.709   2.208   8.732
 2145W        W 6209   3.423   1.411  11.365
 2146W        W 6210   5.782   7.372   1.228
 2147W        W 6211   0.804   5.849   0.773
 2148W        W 6212   6.086   7.943   9.061
 2149W        W 6213   1.939  10.409  10.147
 2150W        W 6214   6.168   1.688   2.470
 2151W        W 6215   1.852   6.737   3.551
 2152W        W 6216   1.393   5.927  10.968
 2153W        W 6217   1.485   2.667   1.760
 2154W        W 6218   7.885   1.696   0.585
 2155W        W 6219   9.751   1.818   0.368
 2156W        W 6220   2.077   5.421   0.925
 2157W        W 6221   3.955   6.494   3.323
 2158W        W 6222   4.253   9.544   1.876
 2159W        W 6223   2.866   5.550  11.726
 2160W        W 6224   9.257   9.843   3.328
 2161W        W 6225   8.031   2.284   2.994
 2162W        W 6226   2.188   2.210   3.276
 2163W        W 6227   7.986  10.129   2.323
 2164W        W 6228   6.911  10.336  11.460
 2165W        W 6229   2.771   3.637   8.763
 2166W        W 6230   7.823   8.497  11.613
 2167W        W 6231   9.108  10.299  11.573
 2168W        W 6232   6.958   2.709   0.349
 2169W        W 6233   3.125   0.894   1.462
 2170W        W 6234   1.039   4.990   8.914
 2171W        W 6235   0.690  10.347   1.418
 2172W        W 6236   7.089   2.305   0.061
 2173W        W 6237   6.536   4.661   2.604
 2174W        W 6238   8.570   2.738  10.026
 2175W        W 6239   3.629   7.976  10.370
 2176W        W 6240   9.075   6.990   1.183
 2177W        W 6241   8.027   4.431   3.255
 2178W        W 6242   1.412   4.663  11.469
 2179W        W 6243   4.709   8.913  10.719
 2180W        W 6244   6.711   7.210  11.896
 2181W        W 6245   8.023   9.842   8.563
 2182W        W 6246   9.491   4.082   2.243
 2183W        W 6247   9.373   8.033  10.487
 2184W        W 6248   5.021   3.293  10.754
 2185W        W 6249   5.655   5.829  11.673
 2186W        W 6250   3.652   9.548   8.942
 2187W        W 6251   4.085  10.466   9.020
 2188W        W 6252   5.640   8.480   2.191
 2189W        W 6253   3.318   6.647  10.857
 2190W        W 6254   1.647   6.628   0.073
 2191W        W 6255   8.069   1.226  10.867
 2192W        W 6256   3.271   6.648  10.332
 2193W        W 6257   9.537   1.809   2.443
 2194W        W 6258   8.951   0.833   3.375
 2195W        W 6259   7.340   4.372  11.834
 2196W        W 6260   1.183   2.735  10.673
 2197W        W 6261   1.168   4.501   0.518
 2198W        W 6262   3.383   2.049   1.816
 2199W        W 6263   2.186   7.011  10.976
 2200W        W 6264   4.515   3.182   0.811
 2201W        W 6265   5.642   6.026   0.559
 2202W        W 6266   5.345   6.818   1.908
 2203W        W 6267   1.733   3.636   1.334
 2204W        W 6268   7.631   4.055   9.592
 2205W        W 6269   9.432   7.622   1.801
 2206W        W 6270   6.976   1.943  11.709
 2207W        W 6271   1.709   5.215  10.801
 2208W        W 6272   2.833   0.568   0.810
 2209W        W 6273   9.528   6.995   9.330
 2210W        W 6274   2.614   4.109   1.874
 2211W        W 6275   2.440   6.263  11.943
 2212W        W 6276   6.181   4.739   1.575
 2213W        W 6277   0.606   8.153   0.793
 2214W        W 6278   9.007   8.309   9.230
 2215W        W 6279   9.751   1.636   8.157
 2216W        W 6280   6.438   5.216   9.102
 2217W        W 6281   3.690   5.719  11.206
 2218W        W 6282   2.557   5.581  10.446
 2219W        W 6283   5.359   1.740  10.388
 2220W        W 6284   5.279   1.285   0.158
 2221W        W 6285   8.831   7.841   1.004
 2222W        W 6286   8.780   5.085  10.335
 2223W        W 6287   6.712   5.664   2.877
 2224W        W 6288   3.180   5.304   0.428
 2225W        W 6289   8.665   2.259   0.803
 2226W        W 6290   0.653   7.911  11.003
 2227W        W 6291   8.540   9.049   8.672
 2228W        W 6292   3.359   3.050   3.126
 2229W        W 6293   2.331   0.245   2.721
 2230W        W 6294   5.230   2.123   2.627
 2231W        W 6295   6.927   8.033   9.864
 2232W        W 6296   1.879   0.132   2.215
 2233W        W 6297   2.883   9.886  10.869
 2234W        W 6298   4.028   9.111  11.483
 2235W        W 6299   1.873   2.202   3.680
 2236W        W 6300   7.104   4.059   3.544
 2237W        W 6301   0.325   0.503   9.772
 2238W        W 6302   9.008   2.321   2.849
 2239W        W 6303   2.878   2.688   1.401
 2240W        W 6304   7.122   7.943   3.003
 2241W        W 6305   3.194   1.820   9.184
 2242W        W 6306   4.646   1.288   1.997
 2243W        W 6307   9.428   9.253   9.569
 2244W        W 6308   0.400   0.738   8.765
 2245W        W 6309  10.289   8.314  11.242
 2246W        W 6310   5.413   0.443   8.842
 2247W        W 6311   0.822  10.320  11.485
 2248W        W 6312   8.448   9.522   0.699
 2249W        W 6313   7.963   2.320   3.497
 2250W        W 6314   3.491   8.928  10.341
 2251W        W 6315   4.215   6.060   0.956
 2252W        W 6316   5.270  10.491   9.781
 2253W        W 6317   7.351   8.389   3.155
 2254W        W 6318   6.649   0.226   2.453
 2255W        W 6319   1.616   9.578   2.091
 2256W        W 6320   4.369   1.962  10.461
 2257W        W 6321   1.525   4.697   2.265
 2258W        W 6322   3.145   9.508   9.023
 2259W        W 6323   8.954   1.120  11.356
 2260W        W 6324   3.071   2.199  11.739
 2261W        W 6325   3.373   8.346   9.351
 2262W        W 6326   1.400   7.560   9.513
 2263W        W 6327   0.923   7.388  11.910
 2264W        W 6328   5.151   9.040   2.819
 2265W        W 6329   6.982   7.005   1.832
 2266W        W 6330   1.864   2.153  10.357
 2267W        W 6331   8.997   0.531   0.296
 2268W        W 6332   7.555   6.811   9.828
 2269W        W 6333   6.666   1.169   0.010
 2270W        W 6334   1.423   5.134  11.785
 2271W        W 6335   4.581   9.292  11.051
 2272W        W 6336   4.647   9.369   3.420
 2273W        W 6337   3.369   7.875  11.555
 2274W        W 6338   1.060  10.477  11.926
 2275W        W 6339   8.919   1.529   0.269
 2276W        W 6340   3.652   5.561   1.977
 2277W        W 6341   6.205   1.866  10.457
 2278W        W 6342   3.024   6.918   3.137
 2279W        W 6343   1.085   1.902   1.388
 2280W        W 6344   7.333   9.664  11.055
 2281W        W 6345   8.173   9.458   2.878
 2282W        W 6346   3.278   4.261   8.802
 2283W        W 6347   2.272   9.071  11.442
 2284W        W 6348   1.524   6.193   2.883
 2285W        W 6349   8.183   2.565  11.009
 2286W        W 6350   5.669   2.048  11.987
 2287W        W 6351   1.571   1.776   1.274
 2288W        W 6352   0.407   7.120  10.658
 2289W        W 6353   0.443   2.114  11.447
 2290W        W 6354   1.225   3.824   8.547
 2291W        W 6355   1.952   7.010   0.978
 2292W        W 6356   0.970   0.277   0.630
 2293W        W 6357   3.709   2.204   3.039
 2294W        W 6358   8.981   4.164   0.426
 2295W        W 6359   2.392   8.619   0.361
 2296W        W 6360   1.766   4.240  10.971
 2297W        W 6361   1.881   8.426   8.556
 2298W        W 6362   4.250   7.044   0.193
 2299W        W 6363   9.232   7.462   2.256
 2300W        W 6364   0.654   3.904   2.921
 2301W        W 6365   2.145   7.978   9.703
 2302W        W 6366   7.170   6.592   4.085
 2303W        W 6367   9.438   6.168   0.710
 2304W        W 6368   7.691   9.717   0.841
 2305W        W 6369   1.065   9.431   2.792
 2306W        W 6370   6.884   1.285   2.198
 2307W        W 6371   2.354   4.821   3.323
 2308W        W 6372   3.838   8.464   1.405
 2309W        W 6373   8.897   8.402   0.953
 2310W        W 6374   3.957   6.726   1.983
 2311W        W 6375   9.199   3.593   8.897
 2312W        W 6376   5.548   9.875   2.181
 2313W        W 6377   0.467   6.129  11.653
 2314W        W 6378   8.810   6.693   0.552
 2315W        W 6379   6.131   1.851  11.545
 2316W        W 6380  10.447   1.342   1.965
 2317W        W 6381   9.841   1.733  10.011
 2318W        W 6382   9.993   1.167   0.013
 2319W        W 6383   9.004   1.984   1.614
 2320W        W 6384   7.983   2.709   1.716
 2321W        W 6385   1.563   5.368   0.218
 2322W        W 6386   0.857   8.058  10.578
 2323W        W 6387   6.686   8.003   0.251
 2324W        W 6388   5.475   5.203   2.659
 2325W        W 6389  10.437   8.402   2.629
 2326W        W 6390   9.993   2.611   3.304
 2327W        W 6391   3.121   3.535   1.729
 2328W        W 6392   9.856   3.238  11.828
 2329W        W 6393   7.197   3.006   9.316
 2330W        W 6394   1.312   0.495   8.580
 2331W        W 6395   3.471   4.157  10.753
 2332W        W 6396   7.651   5.975   8.378
 2333W        W 6397   4.835   2.786   0.925
 2334W        W 6398   1.737   5.858   9.716
 2335W        W 6399   7.359   6.034   1.798
 2336W        W 6400   4.152   8.832   2.402
 2337W        W 6401   4.533   3.633  10.131
 2338W        W 6402   0.734   1.647   0.494
 2339W        W 6403   1.628   6.482   1.843
 2340W        W 6404   4.335   0.998  11.403
 2341W        W 6405   7.023   7.623  10.163
 2342W        W 6406   1.694   0.065   0.365
 2343W        W 6407   4.393   2.642  11.062
 2344W        W 6408   4.232   3.403  11.420
 2345W        W 6409   3.546   1.716   0.867
 2346W        W 6410   6.449   0.211   1.989
 2347W        W 6411   5.140   4.066   8.137
 2348W        W 6412   3.194   4.636  10.047
 2349W        W 6413   1.452   0.770  11.878
 2350W        W 6414   8.946   8.436  10.095
 2351W        W 6415   8.991   7.921   1.530
 2352W        W 6416   2.916   0.277   0.404
 2353W        W 6417   9.974   8.779  11.939
 2354W        W 6418   2.220   6.037  10.999
 2355W        W 6419   3.626   2.594   0.740
 2356W        W 6420  10.153   8.723  10.739
 2357W        W 6421   1.862   7.412  11.149
 2358W        W 6422   0.237   0.252   8.868
 2359W        W 6423   7.473   7.540  11.437
 2360W        W 6424   8.535   6.552  11.794
 2361W        W 6425   9.612   6.636   0.909
 2362W        W 6426   7.244   3.195   1.008
 2363W        W 6427   7.742   9.127   9.074
 2364W        W 6428   8.898   7.860  10.624
 2365W        W 6429   3.366   6.963   8.544
 2366W        W 6430   6.688   1.675  10.266
 2367W        W 6431   3.291   7.885   0.675
 2368W        W 6432   4.579   9.829   3.167
 2369W        W 6433   9.699  10.224   9.801
 2370W        W 6434   9.871   5.444  11.526
 2371W        W 6435   7.933  10.186   0.862
 2372W        W 6436   6.639   8.735   2.992
 2373W        W 6437   0.433   1.446   2.694
 2374W        W 6438   0.152   6.727  10.885
 2375W        W 6439   7.582   5.552   1.698
 2376W        W 6440   6.688   1.670   9.740
 2377W        W 6441   6.385   5.723   1.611
 2378W        W 6442   3.391   9.763  11.628
 2379W        W 6443   4.761   1.240  11.867
 2380W        W 6444   1.151   6.079   3.266
 2381W        W 6445   6.282   3.659   0.937
 2382W        W 6446   8.142   3.071  10.825
 2383W        W 6447   7.160   5.460   2.780
 2384W        W 6448   5.667  10.278   2.461
 2385W        W 6449   1.370   6.574  10.194
 2386W        W 6450   8.102   7.542  10.304
 2387W        W 6451   8.019   2.254   2.480
 2388W        W 6452   7.054   3.367  11.579
 2389W        W 6453   2.746   8.812  10.057
 2390W        W 6454  10.081   0.147   1.609
 2391W        W 6455   1.867   6.443   3.152
 2392W        W 6456   1.671   9.214  10.766
 2393W        W 6457   2.699   4.474   0.039
 2394W        W 6458   4.495   6.604   2.711
 2395W        W 6459   1.409   7.225   1.524
 2396W        W 6460   2.238   6.009  10.454
 2397W        W 6461   7.428   4.554   1.321
 2398W        W 6462   4.701   9.361   0.065
 2399W        W 6463   8.754   5.162   3.310
 2400W        W 6464   9.826   6.960   0.581
 2401W        W 6465   4.841   5.042   1.209
 2402W        W 6466   3.143   6.355   8.360
 2403W        W 6467   2.583   3.862  11.929
 2404W        W 6468   7.492   7.500   1.857
 2405W        W 6469   6.938   0.869   1.902
 2406W        W 6470   9.472   1.512   0.728
 2407W        W 6471   7.536   5.472   1.193
 2408W        W 6472   5.037   9.657   2.168
 2409W        W 6473   1.995   2.870   9.399
 2410W        W 6474   6.905   5.597  11.523
 2411W        W 6475   9.820   5.608   0.043
 2412W        W 6476   4.254   8.369   9.185
 2413W        W 6477   2.356   2.259   2.795
 2414W        W 6478   6.993   4.195   0.187
 2415W        W 6479   0.437   7.636   3.338
 2416W        W 6480   7.010   9.855  11.769
 2417W        W 6481   5.104   5.395  11.508
 2418W        W 6482   3.823   6.479   9.638
 2419W        W 6483   2.943   9.859   9.478
 2420W        W 6484   7.931   3.332  11.622
 2421W        W 6485   3.534   4.317   9.506
 2422W        W 6486   0.793   1.150   0.968
 2423W        W 6487   7.180   5.818   4.052
 2424W        W 6488   3.836   9.871   8.564
 2425W        W 6489   4.204   7.942   0.679
 2426W        W 6490   9.093   2.372   0.565
 2427W        W 6491   8.457   2.838   1.567
 2428W        W 6492   9.386   4.575   2.088
 2429W        W 6493   8.203   1.033   1.844
 2430W        W 6494   2.965   9.251   3.150
 2431W        W 6495   5.011   0.366   3.074
 2432W        W 6496   8.548   7.990   1.871
 2433W        W 6497   8.128   6.600   9.527
 2434W        W 6498   5.199   4.636  10.515
 2435W        W 6499   6.046  10.131   9.396
 2436W        W 6500   8.330   1.715   0.268
 2437W        W 6501   1.935   7.373   1.814
 2438W        W 6502   3.246   9.407   0.572
 2439W        W 6503   3.978   1.156   3.526
 2440W        W 6504   9.969   1.360   9.196
 2441W        W 6505   5.904   4.101  11.418
 2442W        W 6506   8.047   5.621   1.880
 2443W        W 6507   7.464   8.209   2.688
 2444W        W 6508  10.316   7.887   2.608
 2445W        W 6509  10.123   6.756   0.972
 2446W        W 6510   5.720  10.289  10.676
 2447W        W 6511   5.667   0.734  11.701
 2448W        W 6512   4.223  10.323  10.843
 2449W        W 6513   3.712   6.956   2.410
 2450W        W 6514   7.016   9.935   3.630
 2451W        W 6515   3.261   3.812  11.504
 2452W        W 6516   1.203   5.655  11.366
 2453W        W 6517   2.116   3.164   0.783
 2454W        W 6518  10.480   7.003  10.413
 2455W        W 6519   4.014   2.266   9.885
 2456W        W 6520   5.912   2.650   9.517
 2457W        W 6521   3.575   6.571  11.324
 2458W        W 6522   4.735   3.211   9.401
 2459W        W 6523   3.835   2.429   2.606
 2460W        W 6524   6.362   6.671   3.690
 2461W        W 6525   0.092   6.485   2.693
 2462W        W 6526   8.375   6.426   3.446
 2463W        W 6527   4.572   8.008   9.464
 2464W        W 6528   3.662   1.362  11.838
 2465W        W 6529   5.695   7.972   8.728
 2466W        W 6530   0.819   5.013   1.255
 2467W        W 6531   0.975   3.292  10.918
 2468W        W 6532   6.549   4.369   1.400
 2469W        W 6533   6.994   2.022  10.962
 2470W        W 6534   7.621   6.705  10.364
 2471W        W 6535   4.093   9.628   9.224
 2472W        W 6536   5.021   7.738   1.592
 2473W        W 6537   1.141   8.961   3.561
 2474W        W 6538   4.090   3.100   1.051
 2475W        W 6539   1.334   1.462   3.276
 2476W        W 6540   3.846   9.854   9.610
 2477W        W 6541   3.308   1.369   1.681
 2478W        W 6542   8.465  10.259   0.236
 2479W        W 6543   3.262   8.943   2.868
 2480W        W 6544   8.028   8.212   1.991
 2481W        W 6545   0.740   9.031  10.358
 2482W        W 6546   7.314   2.864   3.409
 2483W        W 6547   9.236  10.325   0.555
 2484W        W 6548   5.961   0.340   1.917
 2485W        W 6549   7.164   4.188   1.575
 2486W        W 6550   6.137   9.103   3.210
 2487W        W 6551   8.653   3.574   8.992
 2488W        W 6552  10.483   5.307   0.386
 2489W        W 6553   8.934   2.493   1.515
 2490W        W 6554   6.499   1.915   8.708
 2491W        W 6555   6.192   7.799   3.173
 2492W        W 6556  10.010   9.221   0.852
 2493W        W 6557  10.462   8.002  10.252
 2494W        W 6558   7.985   7.304   0.816
 2495W        W 6559   3.328   9.994   8.884
 2496W        W 6560   5.963   9.119   9.543
 2497W        W 6561   8.843   0.414   3.061
 2498W        W 6562   4.361   7.021   8.426
 2499W        W 6563   1.187   8.525   2.271
 2500W        W 6564   8.632   7.050  11.792
 2501W        W 6565   5.241   8.683   1.146
 2502W        W 6566   3.531   3.827   3.095
 2503W        W 6567   6.039   1.231   1.703
 2504W        W 6568  10.338   5.677   3.093
 2505W        W 6569   3.282   0.248   2.138
 2506W        W 6570  10.408   5.758   0.696
 2507W        W 6571   9.485   2.696   3.354
 2508W        W 6572  10.076   3.036   0.362
 2509W        W 6573   1.677   7.083   3.238
 2510W        W 6574   3.619   6.732   0.695
 2511W        W 6575   8.149   7.081   9.693
 2512W        W 6576   4.213   7.036   2.331
 2513W        W 6577   5.606   8.941   9.181
 2514W        W 6578   9.297   3.311   1.434
 2515W        W 6579   8.829   7.159   2.203
 2516W        W 6580   3.528   7.513   0.033
 2517W        W 6581   2.786   6.447   1.363
 2518W        W 6582   3.067   3.146   0.907
 2519W        W 6583   8.595   3.312   0.620
 2520W        W 6584   7.463   1.380   9.165
 2521W        W 6585   0.488   9.426  10.573
 2522W        W 6586   7.352   6.762   1.534
 2523W        W 6587   5.329   3.921   4.334
 2524W        W 6588   1.271   9.426   1.755
 2525W        W 6589   8.032   3.797   9.807
 2526W        W 6590   8.149   7.047   9.142
 2527W        W 6591   1.256   0.484   9.474
 2528W        W 6592   5.586   3.178   1.012
 2529W        W 6593   1.693   2.192   0.950
 2530W        W 6594   8.458   0.232   3.454
 2531W        W 6595   2.861   8.355   1.212
 2532W        W 6596   5.263   9.869   8.588
 2533W        W 6597   0.772   6.117  10.372
 2534W        W 6598   6.704   0.132   3.381
 2535W        W 6599   2.317   6.245   1.251
 2536W        W 6600   8.466   2.177   3.304
 2537W        W 6601   2.255   0.456  10.727
 2538W        W 6602   3.143   2.776   2.768
 2539W        W 6603   0.363   0.191   2.020
 2540W        W 6604   7.520   7.667  10.057
 2541W        W 6605   7.059   8.348   9.053
 2542W        W 6606   7.289   9.547   3.401
 2543W        W 6607   2.388   0.797  10.373
 2544W        W 6608   4.692   8.374   1.921
 2545W        W 6609   5.560   8.110  11.778
 2546W        W 6610   0.191   3.614  11.507
 2547W        W 6611   8.890   9.120  11.093
 2548W        W 6612  10.380   6.503  10.522
 2549W        W 6613   0.244   2.825   8.821
 2550W        W 6614   0.040   1.663   9.897
 2551W        W 6615   1.427  10.043  11.225
 2552W        W 6616   4.473   5.173   1.545
 2553W        W 6617   6.119   2.556   2.166
 2554W        W 6618   3.246   0.902  11.929
 2555W        W 6619   2.136   6.631   9.855
 2556W        W 6620   8.077   4.126   1.824
 2557W        W 6621   7.997   8.173   2.538
 2558W        W 6622   7.056   8.576  10.512
 2559W        W 6623   7.622   2.301   1.683
 2560W        W 6624   9.341   4.012   2.732
 2561W        W 6625   9.987   4.228   0.948
 2562W        W 6626   7.467   9.449   0.431
 2563W        W 6627   9.051   0.773   0.784
 2564W        W 6628   3.080   5.622  10.349
 2565W        W 6629   6.429   5.420   8.636
 2566W        W 6630   5.680   3.024  11.947
 2567W        W 6631   4.264   0.782   1.390
 2568W        W 6632   2.762   9.272  11.277
 2569W        W 6633   3.614   2.725  11.263
 2570W        W 6634   7.183   9.361   0.927
 2571W        W 6635   5.693   1.867   9.975
 2572W        W 6636   3.676   2.127   0.544
 2573W        W 6637   0.010   5.195   9.066
 2574W        W 6638   4.657   9.830  11.267
 2575W        W 6639  10.098   4.979   1.964
 2576W        W 6640   7.465   9.326   1.767
 2577W        W 6641   4.281   7.596  10.801
 2578W        W 6642   3.176   4.587  11.915
 2579W        W 6643  10.200   4.967  10.505
 2580W        W 6644   5.601   5.525  11.227
 2581W        W 6645   0.495   4.621   2.883
 2582W        W 6646   8.120   3.890   0.310
 2583W        W 6647   2.410   8.519   2.505
 2584W        W 6648   1.282   4.203   9.328
 2585W        W 6649   7.969   0.790  11.364
 2586W        W 6650   3.377   0.897   1.920
 2587W        W 6651   5.654   5.003   0.706
 2588W        W 6652   1.975   1.621   1.572
 2589W        W 6653   4.060   5.763   9.190
 2590W        W 6654   6.555   8.457   1.261
 2591W        W 6655   3.676   6.677   8.849
 2592W        W 6656   1.804   1.059   0.168
 2593W        W 6657   5.101   7.368   3.009
 2594W        W 6658   6.144   8.648   2.925
 2595W        W 6659   1.380   5.883   0.260
 2596W        W 6660   3.059   6.524  11.362
 2597W        W 6661   0.865   9.302   8.981
 2598W        W 6662   3.105   9.962  10.272
 2599W        W 6663   2.509   7.197   1.898
 2600W        W 6664   0.401   7.743  10.145
 2601W        W 6665   7.270   3.657   0.771
 2602W        W 6666   2.931   1.713   1.438
 2603W        W 6667   1.939   3.079   3.228
 2604W        W 6668   3.732   1.875  10.753
 2605W        W 6669   9.358   2.853  10.400
 2606W        W 6670   0.844   1.382   1.455
 2607W        W 6671   1.306   3.486   2.009
 2608W        W 6672   3.064   8.811   2.419
 2609W        W 6673  10.286   9.857  10.302
 2610W        W 6674   3.779  10.437  11.706
 2611W        W 6675   1.409   5.215   9.189
 2612W        W 6676   1.321   8.300   0.064
 2613W        W 6677   6.076   4.788  10.143
 2614W        W 6678   1.306   2.341   3.543
 2615W        W 6679   3.435   5.019   3.630
 2616W        W 6680   3.980   5.724   0.174
 2617W        W 6681   6.692   3.662  10.516
 2618W        W 6682   8.462   1.871   9.902
 2619W        W 6683   2.716   6.731   2.742
 2620W        W 6684   4.239   9.865   0.726
 2621W        W 6685   8.212   6.495   1.292
 2622W        W 6686   8.944   0.075   9.528
 2623W        W 6687   5.086   9.420  10.248
 2624W        W 6688   6.512  10.300  11.104
 2625W        W 6689   7.226   7.276  11.796
 2626W        W 6690   6.604   1.243  11.018
 2627W        W 6691   2.025   1.845  11.218
 2628W        W 6692   9.570   5.516  10.776
 2629W        W 6693   0.512   4.644   2.346
 2630W        W 6694   9.407   4.734   1.561
 2631W        W 6695   8.471   4.272   9.000
 2632W        W 6696   8.309   8.794  10.441
 2633W        W 6697   6.737   8.456   9.638
 2634W        W 6698   6.481   8.076   9.428
 2635W        W 6699   2.258   3.400  11.972
 2636W        W 6700   6.433   7.914   9.930
 2637W        W 6701   0.718   5.402   2.817
 2638W        W 6702   2.771   0.743   8.591
 2639W        W 6703   8.608   0.489  10.800
 2640W        W 6704   7.503   6.227  11.515
 2641W        W 6705   1.963   0.838  10.931
 2642W        W 6706   6.067   9.965   3.254
 2643W        W 6707   8.891  10.399   2.198
 2644W        W 6708   6.416   5.511  11.653
 2645W        W 6709   7.057   4.426   9.417
 2646W        W 6710   8.615   5.912   0.470
 2647W        W 6711   5.806   9.922   0.892
 2648W        W 6712   1.947   3.884   2.646
 2649W        W 6713   7.386   2.261  11.229
 2650W        W 6714   5.663   7.819   1.883
 2651W        W 6715  10.299   0.688   8.614
 2652W        W 6716   1.389   8.488   8.659
 2653W        W 6717   9.841   3.852   0.644
 2654W        W 6718   0.869   2.213  11.732
 2655W        W 6719   9.717   0.262  11.725
 2656W        W 6720   2.139   0.848   3.327
 2657W        W 6721   4.829   6.891   1.917
 2658W        W 6722   0.265  10.379   0.312
 2659W        W 6723   1.630   0.742   9.975
 2660W        W 6724   9.241   2.723   0.204
 2661W        W 6725   8.894   0.626   2.127
 2662W        W 6726   4.403   6.549   8.176
 2663W        W 6727   4.013   2.892   9.045
 2664W        W 6728   8.562   3.362  10.769
 2665W        W 6729   9.959   3.519  10.532
 2666W        W 6730   8.904   4.537   9.165
 2667W        W 6731   0.508   9.044   1.647
 2668W        W 6732   5.147   0.410   0.198
 2669W        W 6733   8.341   8.082   8.634
 2670W        W 6734   4.400   1.669   3.613
 2671W        W 6735   7.713   0.339   9.416
 2672W        W 6736   8.831   4.631   3.095
 2673W        W 6737   3.815   5.368  11.866
 2674W        W 6738   2.834   2.107   1.741
 2675W        W 6739   7.540  10.471   9.009
 2676W        W 6740   2.528  10.158   9.355
 2677W        W 6741   7.812   5.310   0.761
 2678W        W 6742   6.560   7.727  11.828
 2679W        W 6743   3.085   4.305   9.275
 2680W        W 6744   4.799   7.343   0.368
 2681W        W 6745   7.923   8.043  11.804
 2682W        W 6746   3.797   3.317  10.546
 2683W        W 6747   2.183   5.713   9.052
 2684W        W 6748   0.024   6.100  11.912
 2685W        W 6749  10.199   0.316   2.550
 2686W        W 6750   3.216   9.100   9.952
 2687W        W 6751   9.443   4.743   1.040
 2688W        W 6752   5.999   1.266   2.228
 2689W        W 6753   8.743   6.703   8.690
 2690W        W 6754   2.851   2.873  10.807
 2691W        W 6755   5.081   8.162  11.880
 2692W        W 6756   9.311   2.867   0.676
 2693W        W 6757   1.387   4.168   1.447
 2694W        W 6758   7.399   9.504  10.248
 2695W        W 6759   4.080   0.592  10.356
 2696W        W 6760   4.237   1.907   8.899
 2697W        W 6761   8.939   5.523   2.903
 2698W        W 6762   4.502   2.838  10.585
 2699W        W 6763   2.820   4.569   2.033
 2700W        W 6764   7.656   8.490  11.140
 2701W        W 6765  10.269   2.361   1.968
 2702W        W 6766  10.257  10.423   0.346
 2703W        W 6767  10.163   2.672  11.503
 2704W        W 6768   7.859   2.251   9.063
 2705W        W 6769   8.094   0.914  11.892
 2706W        W 6770   4.101   5.163   2.818
 2707W        W 6771   3.324   4.655   8.473
 2708W        W 6772   8.499  10.226  10.434
 2709W        W 6773   8.146   5.689   9.796
 2710W        W 6774   3.172   3.969   3.426
 2711W        W 6775   9.489   6.247   1.228
 2712W        W 6776   4.999   1.251   9.715
 2713W        W 6777   3.047   8.272   3.124
 2714W        W 6778   0.425   9.998  11.372
 2715W        W 6779   0.703   4.818   9.274
 2716W        W 6780   1.832   4.669   3.072
 2717W        W 6781   8.332  10.126   3.574
 2718W        W 6782   2.452   8.202  11.245
 2719W        W 6783   7.137  10.458   1.758
 2720W        W 6784   2.873   1.856  10.989
 2721W        W 6785   1.173   5.097   0.901
 2722W        W 6786   6.392   5.283  10.805
 2723W        W 6787   5.680   6.497   2.167
 2724W        W 6788   4.545   1.476  10.436
 2725W        W 6789   2.466   1.197   2.626
 2726W        W 6790   4.141   7.419   9.919
 2727W        W 6791   5.439   1.321   8.950
 2728W        W 6792   3.707   6.006   2.215
 2729W        W 6793   6.111   0.811   1.988
 2730W        W 6794   0.272   6.347   9.749
 2731W        W 6795   6.230   8.493  11.440
 2732W        W 6796  10.321   8.962   1.184
 2733W        W 6797   4.203   2.516   3.471
 2734W        W 6798   7.656   1.175  10.087
 2735W        W 6799  10.188   2.629   0.689
 2736W        W 6800   3.656   6.517   1.183
 2737W        W 6801   6.262   6.940   2.838
 2738W        W 6802   9.017   1.298   0.759
 2739W        W 6803   9.111   7.936   2.040
 2740W        W 6804   2.800   9.003   1.681
 2741W        W 6805   2.643   1.480  11.800
 2742W        W 6806   0.305   9.449   1.995
 2743W        W 6807   1.307   6.850   0.436
 2744W        W 6808   4.773   2.144   3.594
 2745W        W 6809  10.225   3.068   1.209
 2746W        W 6810   5.509   3.793   9.966
 2747W        W 6811   7.817   4.210  10.043
 2748W        W 6812   4.875   1.676  11.473
 2749W        W 6813   6.470  10.337   0.411
 2750W        W 6814   2.535   1.878   0.970
 2751W        W 6815   7.045   7.873   8.852
 2752W        W 6816   0.299  10.210  10.940
 2753W        W 6817  10.446   6.112   9.377
 2754W        W 6818   3.792   7.932  11.874
 2755W        W 6819   1.201   0.891   0.824
 2756W        W 6820   5.208   1.357   3.387
 2757W        W 6821   2.283   5.238   1.403
 2758W        W 6822   2.731   4.992   1.363
 2759W        W 6823   0.788   9.580   9.400
 2760W        W 6824   3.394   4.363   4.260
 2761W        W 6825   4.058   9.301  10.962
 2762W        W 6826   3.034   7.125  10.878
 2763W        W 6827   0.872   2.020   3.651
 2764W        W 6828   9.625   5.121   9.572
 2765W        W 6829   8.607   3.797   0.400
 2766W        W 6830   0.406  10.480   9.274
 2767W        W 6831   4.540   5.697  10.053
 2768W        W 6832   3.165  10.478   8.745
 2769W        W 6833   7.105   8.828   3.189
 2770W        W 6834   7.880   2.797   9.508
 2771W        W 6835   9.308   9.072  11.694
 2772W        W 6836   5.597   0.906   9.726
 2773W        W 6837   8.266   4.186  11.776
 2774W        W 6838   8.819   5.517   9.156
 2775W        W 6839   5.059   3.434   4.229
 2776W        W 6840   4.385   4.306  11.331
 2777W        W 6841   9.508   5.934  11.796
 2778W        W 6842   2.769   4.400   9.772
 2779W        W 6843   2.189   6.029   3.217
 2780W        W 6844   5.147   1.073   1.405
 2781W        W 6845   7.765  10.417   9.861
 2782W        W 6846   4.683   2.187   8.850
 2783W        W 6847   0.411   0.004   9.799
 2784W        W 6848   8.489   0.769   2.756
 2785W        W 6849   6.574   7.423  11.419
 2786W        W 6850   4.371   8.771  11.650
 2787W        W 6851   3.778   9.956   0.955
 2788W        W 6852   8.415   2.630   2.024
 2789W        W 6853   9.563   8.658   1.600
 2790W        W 6854   2.083   9.404  10.505
 2791W        W 6855   0.058   4.517   2.586
 2792W        W 6856   8.401   4.750   3.335
 2793W        W 6857   8.486   9.593   8.519
 2794W        W 6858   2.683   7.850  10.828
 2795W        W 6859   4.424   1.993   0.999
 2796W        W 6860   6.089   7.672   2.688
 2797W        W 6861   1.689   6.348   9.873
 2798W        W 6862   7.970   0.334   1.106
 2799W        W 6863   1.822   0.467   1.213
 2800W        W 6864   8.073   1.479   9.851
 2801W        W 6865   7.435   2.647  10.014
 2802W        W 6866   8.931   3.949   2.439
 2803W        W 6867   3.182   0.211   3.244
 2804W        W 6868   9.963   5.664  11.063
 2805W        W 6869   2.870   5.654   3.455
 2806W        W 6870   8.795   4.218   9.993
 2807W        W 6871   9.916   7.079  11.134
 2808W        W 6872   8.380   5.874   2.685
 2809W        W 6873   8.354   3.520   2.310
 2810W        W 6874   4.594   2.762   9.591
 2811W        W 6875   4.521   6.161   9.844
 2812W        W 6876   0.421   9.787   0.767
 2813W        W 6877   0.508   4.639  11.048
 2814W        W 6878   1.749   4.606   1.482
 2815W        W 6879   5.277   8.411   9.877
 2816W        W 6880   5.509   4.640   1.736
 2817W        W 6881   0.951   4.469   9.023
 2818W        W 6882   2.744   8.569   8.850
 2819W        W 6883   0.982   0.986  10.716
 2820W        W 6884   0.346   7.476   9.693
 2821W        W 6885   4.791   4.609   3.001
 2822W        W 6886   5.091   5.914   1.833
 2823W        W 6887   8.427   4.252  10.337
 2824W        W 6888   6.980   9.404   1.958
 2825W        W 6889   2.274   6.462   3.491
 2826W        W 6890   5.258   1.395  11.176
 2827W        W 6891   7.407   4.195   0.502
 2828W        W 6892   0.273   8.799   2.631
 2829W        W 6893   2.468   0.251   1.023
 2830W        W 6894   7.882   1.350   2.593
 2831W        W 6895   8.197   6.000   2.215
 2832W        W 6896  10.215   8.874  10.267
 2833W        W 6897   1.381   8.817  10.909
 2834W        W 6898   4.262   1.252  10.967
 2835W        W 6899   1.879   8.448   1.204
 2836W        W 6900   3.916   8.813   9.489
 2837W        W 6901   5.238   2.349   3.684
 2838W        W 6902   0.822   9.024   1.146
 2839W        W 6903   7.389   1.838   1.822
 2840W        W 6904   7.638   9.539   8.747
 2841W        W 6905   5.946   0.494   8.639
 2842W        W 6906   8.031   3.827  11.469
 2843W        W 6907   1.314   4.461  10.943
 2844W        W 6908   0.410   4.981   0.684
 2845W        W 6909   8.904   5.798   0.071
 2846W        W 6910   6.985   1.299   8.945
 2847W        W 6911   7.800   9.856  11.153
 2848W        W 6912   6.849   8.492   0.401
 2849W        W 6913   5.154   0.831   9.967
 2850W        W 6914   5.593   5.023  10.334
 2851W        W 6915   3.600   8.591   9.975
 2852W        W 6916   8.790  10.366   1.681
 2853W        W 6917   2.569   3.567   0.333
 2854W        W 6918   8.487   1.484   9.546
 2855W        W 6919   5.032   5.696  10.908
 2856W        W 6920   8.584   9.131   1.007
 2857W        W 6921   3.351   2.645  11.695
 2858W        W 6922   0.123   7.481   2.507
 2859W        W 6923   5.689   2.156  10.416
 2860W        W 6924   5.861   6.058   9.022
 2861W        W 6925   9.471   6.655   9.714
 2862W        W 6926   1.155   4.712   9.941
 2863W        W 6927   9.385   2.288   2.491
 2864W        W 6928   4.688   4.625   8.905
 2865W        W 6929   4.217   2.765   2.676
 2866W        W 6930   3.119   5.316   1.399
 2867W        W 6931   0.834   7.039   2.230
 2868W        W 6932   8.413   0.267   0.246
 2869W        W 6933   1.738   1.243  10.731
 2870W        W 6934  10.420   8.105   0.532
 2871W        W 6935   7.211  10.008   9.734
 2872W        W 6936   3.559   2.864  10.526
 2873W        W 6937   4.147   4.779   4.147
 2874W        W 6938   3.938  10.317  10.345
 2875W        W 6939   0.447   9.973   9.333
 2876W        W 6940   6.083  10.426   2.191
 2877W        W 6941   6.546   8.586  10.599
 2878W        W 6942   2.456   0.600   8.999
 2879W        W 6943   5.604   5.990   1.968
 2880W        W 6944   7.596   4.025   1.939
 2881W        W 6945   9.478   8.568  11.819
 2882W        W 6946   1.902   0.323   9.815
 2883W        W 6947   8.920   7.509   1.837
 2884W        W 6948   7.579   4.208   3.336
 2885W        W 6949   3.219   7.869   9.070
 2886W        W 6950   3.706   8.706   0.405
 2887W        W 6951   1.228   2.405   8.677
 2888W        W 6952   1.223   2.423   0.943
 2889W        W 6953   3.753   9.063   9.904
 2890W        W 6954   0.353   3.242   0.301
 2891W        W 6955   4.367   2.629  11.727
 2892W        W 6956   0.275   7.403   9.188
 2893W        W 6957   8.522   7.523  10.603
 2894W        W 6958   5.256   6.182   2.272
 2895W        W 6959  10.400   0.441   0.668
 2896W        W 6960   1.358   1.204   9.963
 2897W        W 6961   7.038   5.689   8.236
 2898W        W 6962   4.206   8.269  11.707
 2899W        W 6963  10.355   5.411   2.148
 2900W        W 6964   4.492   6.542   9.007
 2901W        W 6965   4.225   4.897   9.106
 2902W        W 6966   1.385   8.513   1.276
 2903W        W 6967   3.454   5.372  11.514
 2904W        W 6968   3.243   3.323  10.452
 2905W        W 6969   3.650   4.032   9.918
 2906W        W 6970   1.782   9.871   1.700
 2907W        W 6971   4.013   2.093   9.379
 2908W        W 6972   9.358   7.508  10.096
 2909W        W 6973   7.556   0.580   3.567
 2910W        W 6974   2.061   9.607   2.345
 2911W        W 6975   0.616   5.387   0.979
 2912W        W 6976   0.391   3.319   8.959
 2913W        W 6977   6.618   5.985   8.312
 2914W        W 6978   2.440   1.681  10.790
 2915W        W 6979   9.222   7.532   0.791
 2916W        W 6980   8.957   1.178  11.884
 2917W        W 6981   6.053   4.648   9.586
 2918W        W 6982   3.115   5.678   9.414
 2919W        W 6983   6.742   6.414   0.434
 2920W        W 6984  10.486   0.731   9.088
 2921W        W 6985   5.517   1.796   3.013
 2922W        W 6986   3.778   5.481   9.818
 2923W        W 6987   7.010   9.392   9.500
 2924W        W 6988   5.624   7.503   8.494
 2925W        W 6989   8.448   9.383   1.448
 2926W        W 6990   2.119   8.883  10.561
 2927W        W 6991   1.699   9.391   1.469
 2928W        W 6992   9.878   5.911   3.268
 2929W        W 6993   1.091   9.430   3.326
 2930W        W 6994   6.517   4.222   3.737
 2931W        W 6995   6.512   8.923  10.991
 2932W        W 6996   6.777   3.614   0.850
 2933W        W 6997   1.750   3.566  11.937
 2934W        W 6998   1.506   8.057   1.021
 2935W        W 6999   0.756   5.690   1.936
 2936W        W 7000   1.713   1.762   2.866
 2937W        W 7001   7.229   6.723   9.413
 2938W        W 7002   2.171   5.686  11.385
 2939W        W 7003   4.776   9.956  10.783
 2940W        W 7004   7.811   5.097  10.366
 2941W        W 7005   9.760   5.027   0.430
 2942W        W 7006   3.412   8.824   9.542
 2943W        W 7007  10.412   8.857  11.728
 2944W        W 7008   6.417   5.587   9.931
 2945W        W 7009   1.149   4.043   2.831
 2946W        W 7010   9.514   9.136   1.813
 2947W        W 7011   1.865  10.242   9.241
 2948W        W 7012   8.370   4.659  11.948
 2949W        W 7013   4.058  10.461   0.152
 2950W        W 7014   2.571   1.613   1.805
 2951W        W 7015   0.304   9.091   9.831
 2952W        W 7016   8.491   1.220   0.078
 2953W        W 7017   5.062  10.387   0.907
 2954W        W 7018   7.453   0.339   9.853
 2955W        W 7019   6.042   9.545   2.971
 2956W        W 7020   8.790   4.522  11.009
 2957W        W 7021   8.503   4.708  10.053
 2958W        W 7022   0.976   2.613   0.059
 2959W        W 7023   6.695   2.410   1.317
 2960W        W 7024   3.840   2.213   0.056
 2961W        W 7025   7.046   4.657   2.401
 2962W        W 7026   6.006   6.150  10.875
 2963W        W 7027   2.486   3.055   3.325
 2964W        W 7028   6.660   7.270   9.127
 2965W        W 7029  10.271   8.787   0.697
 2966W        W 7030   4.127   0.013  11.315
 2967W        W 7031   2.646  10.424   0.666
 2968W        W 7032   7.929   6.334   8.610
 2969W        W 7033   2.713   9.039   2.718
 2970W        W 7034   0.714   2.189   9.516
 2971W        W 7035   5.989   3.771   1.804
 2972W        W 7036   2.140   2.876  10.403
 2973W        W 7037   7.693   5.959   7.863
 2974W        W 7038  10.452   3.870   3.244
 2975W        W 7039   1.361   1.199  11.046
 2976W        W 7040   2.615   8.377  11.728
 2977W        W 7041   2.876   4.155   2.354
 2978W        W 7042   1.336   7.155   2.336
 2979W        W 7043   9.338   4.254   9.073
 2980W        W 7044   8.801   7.097   8.346
 2981W        W 7045   9.943   5.736   0.943
 2982W        W 7046   7.530   6.774   2.430
 2983W        W 7047   7.081   5.252   7.956
 2984W        W 7048   4.091   3.645   9.363
 2985W        W 7049   2.162   7.980   3.007
 2986W        W 7050   8.560   0.216   8.868
 2987W        W 7051   0.315   8.432   2.228
 2988W        W 7052   9.594   8.088  11.419
 2989W        W 7053   2.820   9.547  10.347
 2990W        W 7054   3.852   2.671  11.767
 2991W        W 7055   8.955   7.342   2.675
 2992W        W 7056   2.360   2.536   0.191
 2993W        W 7057   8.391   8.783   3.255
 2994W        W 7058   1.792   3.301  10.544
 2995W        W 7059  10.380   0.593  10.991
 2996W        W 7060   1.138   0.687  10.007
 2997W        W 7061   9.432   1.307  11.323
 2998W        W 7062   9.515   6.068   9.478
 2999W        W 7063   6.126   4.252   1.710
 3000W        W 7064   5.373   7.078   8.196
 3001W        W 7065   5.584   9.333   2.837
 3002W        W 7066   0.888   8.160   1.696
 3003W        W 7067   4.631   7.510   0.817
 3004W        W 7068   4.131   3.807  10.392
 3005W        W 7069   0.268   0.727   0.454
 3006W        W 7070   3.668   7.470   1.373
 3007W        W 7071   3.922   5.238   8.095
 3008W        W 7072   1.241   8.537   1.769
 3009W        W 7073   4.760   2.242   1.728
 3010W        W 7074   6.526   2.221  10.975
 3011W        W 7075   8.968   8.207   2.448
 3012W        W 7076   9.026   3.653   3.416
 3013W        W 7077  10.404   3.798   9.322
 3014W        W 7078   6.606   8.183   0.769
 3015W        W 7079   8.865   9.485   0.269
 3016W        W 7080   5.673   8.418   9.015
 3017W        W 7081   2.229   3.747   9.300
 3018W        W 7082   9.117   6.514  10.055
 3019W        W 7083   3.350   3.156   9.582
 3020W        W 7084   5.241   1.778   9.333
 3021W        W 7085   3.989   8.024  10.750
 3022W        W 7086   6.918   4.233  10.870
 3023W        W 7087   0.846   8.011   3.309
 3024W        W 7088   8.341   9.732  10.415
 3025W        W 7089   5.001   7.100  10.446
 3026W        W 7090   0.965   0.932   0.019
 3027W        W 7091   0.882  10.443   9.084
 3028W        W 7092   7.828   4.028   8.966
 3029W        W 7093   3.715   5.472   3.952
 3030W        W 7094   6.526   2.640  11.400
 3031W        W 7095   8.489   7.724   3.642
 3032W        W 7096   6.929   1.778   0.217
 3033W        W 7097   1.245   3.961  10.916
 3034W        W 7098   4.039   3.027   8.515
 3035W        W 7099  10.367   9.719   1.938
 3036W        W 7100   3.052   2.624   0.095
 3037W        W 7101   0.439   0.991   3.587
 3038W        W 7102   0.054   2.647   2.849
 3039W        W 7103   7.599   2.222   2.189
 3040W        W 7104   1.267   8.100   3.038
 3041W        W 7105   9.456   7.326  11.096
 3042W        W 7106   1.733   4.372   3.498
 3043W        W 7107   3.143   1.839   2.456
 3044W        W 7108   4.406   2.007  11.401
 3045W        W 7109   4.526   1.262   8.914
 3046W        W 7110   2.205   0.668   0.907
 3047W        W 7111   9.955   5.854  10.075
 3048W        W 7112   9.364   3.787   9.338
 3049W        W 7113   3.450   4.320   3.141
 3050W        W 7114   6.667   1.134   3.143
 3051W        W 7115   9.347   1.999   9.359
 3052W        W 7116   5.664   0.331   0.481
 3053W        W 7117   8.383   7.348   0.351
 3054W        W 7118   3.667   4.632   3.926
 3055W        W 7119   0.809   6.173   1.767
 3056W        W 7120   0.193   5.582   8.756
 3057W        W 7121   9.023   6.230   0.380
 3058W        W 7122   8.729   3.534  10.231
 3059W        W 7123   8.571   6.938  11.261
 3060W        W 7124   9.867   6.614  11.930
 3061W        W 7125   3.815   4.628   2.928
 3062W        W 7126   4.947   9.022   0.360
 3063W        W 7127   6.719  10.031   9.882
 3064W        W 7128   6.206   5.893   8.673
 3065W        W 7129   8.945   7.449   1.336
 3066W        W 7130   5.569   7.939   0.809
 3067W        W 7131   5.308   3.104  10.391
 3068W        W 7132   5.954   1.390   0.702
 3069W        W 7133   5.783   3.640   0.947
 3070W        W 7134   1.382   6.353   0.448
 3071W        W 7135   3.640   3.109  11.571
 3072W        W 7136   0.560   6.405   2.899
 3073W        W 7137   4.625   6.974   0.941
 3074W        W 7138   0.823   6.892  11.866
 3075W        W 7139   9.440   3.794   0.935
 3076W        W 7140   7.556   1.148   2.932
 3077W        W 7141   7.030   2.142   1.023
 3078W        W 7142   8.903   4.026  10.992
 3079W        W 7143   3.577   7.584   8.794
 3080W        W 7144   3.270   0.756   9.280
 3081W        W 7145   3.683   4.160   1.077
 3082W        W 7146  10.393   7.394   1.734
 3083W        W 7147   6.058   9.937   1.320
 3084W        W 7148  10.432  10.330   9.084
 3085W        W 7149   8.613   8.081   0.585
 3086W        W 7150   7.591   7.564   1.015
 3087W        W 7151   5.181   7.448   8.794
 3088W        W 7152   2.219   1.429   2.190
 3089W        W 7153   6.447   4.059  10.758
 3090W        W 7154   9.918   8.430  10.405
 3091W        W 7155   1.610   4.289   2.734
 3092W        W 7156   2.390   8.143   1.893
 3093W        W 7157   8.364   3.135  11.811
 3094W        W 7158   6.730  10.235  11.950
 3095W        W 7159   9.914   3.526  10.022
 3096W        W 7160   5.254   4.532   1.278
 3097W        W 7161   3.022   1.820   3.557
 3098W        W 7162   0.928   4.273   8.556
 3099W        W 7163   7.190   8.041   3.529
 3100W        W 7164   6.846   8.327   3.210
 3101W        W 7165   5.547   6.377  10.727
 3102W        W 7166   2.114   8.965   3.216
 3103W        W 7167   6.058   8.526   1.378
 3104W        W 7168   1.859   4.537  11.982
 3105W        W 7169   9.971   0.399   9.725
 3106W        W 7170   6.097   8.153   2.820
 3107W        W 7171   3.910   5.932   4.085
 3108W        W 7172   5.037   5.132   9.613
 3109W        W 7173   7.002   9.010  10.784
 3110W        W 7174   8.912   1.710  10.086
 3111W        W 7175   7.325   0.962   1.576
 3112W        W 7176   9.878   4.827   9.074
 3113W        W 7177   2.856   2.718   3.229
 3114W        W 7178   7.904   2.477  10.059
 3115W        W 7179   4.700   1.074  10.708
 3116W        W 7180   7.133   5.698  10.514
 3117W        W 7181   2.742   3.193   2.493
 3118W        W 7182   6.004   5.229   9.876
 3119W        W 7183   1.320   6.647   2.521
 3120W        W 7184   7.838   5.147   3.167
 3121W        W 7185   9.754   1.722   9.494
 3122W        W 7186   6.527   3.145  11.213
 3123W        W 7187   7.039   0.935   3.468
 3124W        W 7188   5.983   0.028   0.240
 3125W        W 7189   7.417   8.528   0.382
 3126W        W 7190   8.466   4.796   8.934
 3127W        W 7191   8.607   5.738   1.272
 3128W        W 7192   8.878   6.433   2.488
 3129W        W 7193   7.458   2.619   2.483
 3130W        W 7194   3.730   5.120  11.142
 3131W        W 7195   3.011   9.384  10.809
 3132W        W 7196   4.031   0.431   9.222
 3133W        W 7197   4.019   1.818   2.289
 3134W        W 7198   8.148   0.533   1.955
 3135W        W 7199   8.140   5.560  10.304
 3136W        W 7200   3.789  10.363   3.235
 3137W        W 7201   5.119   9.016   9.417
 3138W        W 7202   0.187   3.094  11.535
 3139W        W 7203   8.829   5.071  10.895
 3140W        W 7204   0.896   9.989   0.668
 3141W        W 7205   5.449   5.120   3.178
 3142W        W 7206   7.828   0.856   9.183
 3143W        W 7207   9.558   1.204   9.778
 3144W        W 7208   2.288   4.354   9.085
 3145W        W 7209   9.300   8.048  11.863
 3146W        W 7210   5.136   9.961   3.045
 3147W        W 7211   5.579   5.356  10.739
 3148W        W 7212   2.249   6.595   2.543
 3149W        W 7213   5.689   2.142  11.485
 3150W        W 7214   5.923   1.395   9.100
 3151W        W 7215   7.672   5.177   8.452
 3152W        W 7216   9.846   0.228   3.377
 3153W        W 7217   0.495   4.246   8.814
 3154W        W 7218  10.378   2.324  10.370
 3155W        W 7219   4.824   6.927   3.002
 3156W        W 7220   9.432   1.012  10.898
 3157W        W 7221   9.910   9.395   1.998
 3158W        W 7222   3.672   2.640   8.710
 3159W        W 7223   7.872   6.822   8.759
 3160W        W 7224   4.664   5.265  11.296
 3161W        W 7225   1.883   7.555  11.656
 3162W        W 7226   4.604   7.303   3.279
 3163W        W 7227   6.240   6.415  11.880
 3164W        W 7228   8.512   5.575   2.154
 3165W        W 7229   0.801   0.320  11.322
 3166W        W 7230   5.178   2.307  11.505
 3167W        W 7231   5.005   8.478   3.496
 3168W        W 7232   2.644   0.835   9.934
 3169W        W 7233   8.770   7.690   2.338
 3170W        W 7234   1.050   1.921   9.889
 3171W        W 7235   8.402  10.345   9.186
 3172W        W 7236   6.076   3.775   2.687
 3173W        W 7237   9.818   9.993   2.674
 3174W        W 7238   7.451   9.787   2.973
 3175W        W 7239   6.900   5.209  10.738
 3176W        W 7240   9.440   3.699   3.110
 3177W        W 7241   4.171   7.267  10.416
 3178W        W 7242   8.533   7.861  10.226
 3179W        W 7243   9.341   1.088   3.120
 3180W        W 7244   1.377   2.763   9.960
 3181W        W 7245   2.173   3.973  10.814
 3182W        W 7246   2.211   5.444   0.353
 3183W        W 7247   4.756   2.741   1.464
 3184W        W 7248   6.196   5.555   9.482
 3185W        W 7249   6.926   0.228  11.775
 3186W        W 7250   0.666   6.360   8.533
 3187W        W 7251   1.834   3.409   9.337
 3188W        W 7252   5.119   6.115   9.591
 3189W        W 7253   6.405   5.109  11.302
 3190W        W 7254   2.336   5.550  10.906
 3191W        W 7255   8.686   5.525  10.579
 3192W        W 7256   0.846   7.457  11.034
 3193W        W 7257   4.536   1.746   0.549
 3194W        W 7258   1.950   2.741   1.563
 3195W        W 7259   0.739   5.166   3.266
 3196W        W 7260   8.591   7.573  11.943
 3197W        W 7261   9.675   1.316   3.465
 3198W        W 7262   2.426   9.118   0.283
 3199W        W 7263   6.055   6.531   8.998
 3200W        W 7264   4.701   2.441  11.395
 3201W        W 7265   2.319   9.152  10.954
 3202W        W 7266   9.072   0.249  10.971
 3203W        W 7267   1.040   1.248   0.502
 3204W        W 7268   7.256   6.171   8.102
 3205W        W 7269   0.531   0.297   3.229
 3206W        W 7270   9.118   8.410   1.504
 3207W        W 7271   6.969   5.898   3.588
 3208W        W 7272   8.322   7.087  10.229
 3209W        W 7273   1.423   3.531  11.110
 3210W        W 7274   3.721   3.588  11.429
 3211W        W 7275   8.144   1.889   9.503
 3212W        W 7276   1.228   2.364   2.299
 3213W        W 7277   5.241   2.405   1.629
 3214W        W 7278   1.253   1.977   2.667
 3215W        W 7279   8.907   9.802   9.741
 3216W        W 7280   9.867  10.443   2.432
 3217W        W 7281   3.415   9.897   0.516
 3218W        W 7282   4.531   5.559  10.882
 3219W        W 7283   3.819   4.375   0.596
 3220W        W 7284   5.314   2.850   0.707
 3221W        W 7285   7.948   7.910   8.949
 3222W        W 7286   0.191   6.457   0.235
 3223W        W 7287   5.219   6.715  10.954
 3224W        W 7288   3.487   5.518   4.407
 3225W        W 7289   7.831   4.418   1.011
 3226W        W 7290   4.742   5.523   3.465
 3227W        W 7291   9.810   3.629   2.190
 3228W        W 7292   8.008   1.309  11.367
 3229W        W 7293   2.172   5.217   2.519
 3230W        W 7294   5.793   0.353   0.973
 3231W        W 7295   0.255   9.113   3.064
 3232W        W 7296   0.913   8.254   9.359
 3233W        W 7297   3.850   8.301   2.797
 3234W        W 7298   2.763  10.457   2.715
 3235W        W 7299   8.684   5.013   1.735
 3236W        W 7300   3.577   3.062   0.951
 3237W        W 7301  10.025   0.782   2.697
 3238W        W 7302   6.137   4.349  10.479
 3239W        W 7303   8.441   4.081   3.258
 3240W        W 7304   0.013  10.393   8.558
 3241W        W 7305   7.359   3.514   9.493
 3242W        W 7306   9.268   8.111   1.118
 3243W        W 7307   5.569   5.234   8.965
 3244W        W 7308   4.183   8.525  10.707
 3245W        W 7309   1.953   0.227   0.784
 3246W        W 7310   1.011   0.783   2.700
 3247W        W 7311   2.683   0.239   8.733
 3248W        W 7312   8.430   9.041   9.719
 3249W        W 7313   9.928   7.561   0.258
 3250W        W 7314  10.302   9.340  11.730
 3251W        W 7315   0.264   4.710   9.016
 3252W        W 7316   3.771   9.433   1.139
 3253W        W 7317   4.719  10.340  11.104
 3254W        W 7318   2.707   5.999   1.054
 3255W        W 7319   2.424   0.372   0.524
 3256W        W 7320   9.360   0.859  10.392
 3257W        W 7321   5.991   9.531  11.501
 3258W        W 7322   0.732   1.467  10.776
 3259W        W 7323   6.892   7.219  10.452
 3260W        W 7324   6.154   7.493   9.829
 3261W        W 7325  10.065   1.784   0.777
 3262W        W 7326   6.239   3.922   9.217
 3263W        W 7327   8.528   6.671   9.848
 3264W        W 7328   2.193   0.540   2.330
 3265W        W 7329   4.082   8.443   3.270
 3266W        W 7330   4.159   5.626   3.712
 3267W        W 7331   1.327   3.283   9.266
 3268W        W 7332   8.894   3.109   2.809
 3269W        W 7333   9.172   2.278  11.299
 3270W        W 7334   8.962   5.401   1.492
 3271W        W 7335   6.216   4.478  11.021
 3272W        W 7336   0.435   3.245  10.805
 3273W        W 7337   5.653   6.019   3.817
 3274W        W 7338   1.701   8.954   2.799
 3275W        W 7339   8.027   5.554   2.900
 3276W        W 7340   5.666   1.208  11.447
 3277W        W 7341   2.902   5.443   2.465
 3278W        W 7342   0.515  10.259   2.435
 3279W        W 7343   1.897   8.397   9.088
 3280W        W 7344   3.112   6.154  10.983
 3281W        W 7345   3.256   5.330   9.775
 3282W        W 7346   7.816   3.650   1.620
 3283W        W 7347   6.780  10.085   0.804
 3284W        W 7348   1.175   0.502  10.518
 3285W        W 7349   0.237  10.090  10.067
 3286W        W 7350   0.984  10.368   2.743
 3287W        W 7351   3.309   8.937  10.808
 3288W        W 7352   8.099   8.830   8.768
 3289W        W 7353  10.360   8.356  11.751
 3290W        W 7354   2.152   2.759  11.380
 3291W        W 7355   6.380   0.899   1.253
 3292W        W 7356   0.762   9.467   1.398
 3293W        W 7357   6.630   8.175   8.761
 3294W        W 7358   7.521   8.669   9.748
 3295W        W 7359   6.242  10.114   0.018
 3296W        W 7360   9.546   1.947   0.971
 3297W        W 7361   0.912   6.505   1.375
 3298W        W 7362  10.368   2.415  10.863
 3299W        W 7363   6.934  10.366   2.230
 3300W        W 7364   1.859   2.367   1.917
 3301W        W 7365   1.974   4.596   9.912
 3302W        W 7366   5.166   9.444   3.175
 3303W        W 7367   5.455   0.950   3.569
 3304W        W 7368   8.934   3.220   9.848
 3305W        W 7369  10.193   4.909   0.215
 3306W        W 7370   3.859   7.796   2.739
 3307W        W 7371   3.837   8.232   0.449
 3308W        W 7372   8.693   9.957   9.319
 3309W        W 7373   4.622   6.887   1.443
 3310W        W 7374   3.797   5.938  10.513
 3311W        W 7375   9.285   4.432  11.018
 3312W        W 7376   8.370   7.597   9.838
 3313W        W 7377   9.885   4.613   1.276
 3314W        W 7378   9.418   7.660   1.258
 3315W        W 7379   3.180   4.016   0.867
 3316W        W 7380   2.895   4.388   0.544
 3317W        W 7381   0.484   2.830  11.119
 3318W        W 7382   8.813   2.589  11.581
 3319W        W 7383   8.160   6.016   0.200
 3320W        W 7384   3.403   0.279  11.688
 3321W        W 7385   6.467   7.963   1.245
 3322W        W 7386   0.781   3.500   1.538
 3323W        W 7387   9.485   6.653  11.163
 3324W        W 7388   6.489   5.705   0.629
 3325W        W 7389   7.451   9.820   0.049
 3326W        W 7390   4.291   0.843   2.065
 3327W        W 7391   3.682   2.296  11.030
 3328W        W 7392   7.812   4.822   0.641
 3329W        W 7393  10.328   1.329   0.792
 3330W        W 7394   4.619   3.208   1.312
 3331W        W 7395   8.170   0.866   8.798
 3332W        W 7396   1.994   1.744   3.466
 3333W        W 7397   5.941   4.057  10.905
 3334W        W 7398   4.083   8.478   8.702
 3335W        W 7399   8.784   4.286  11.890
 3336W        W 7400   6.023   5.116   8.771
 3337W        W 7401   1.524   9.433   2.569
 3338W        W 7402   2.207   8.939   2.707
 3339W        W 7403   8.048   8.402  10.209
 3340W        W 7404   1.051   0.237   3.141
 3341W        W 7405   7.296   3.991   9.971
 3342W        W 7406   1.668   2.130   3.223
 3343W        W 7407   0.918   5.288   9.302
 3344W        W 7408   8.175   5.042   1.614
 3345W        W 7409   2.558   9.928   3.340
 3346W        W 7410   5.459   4.824  11.829
 3347W        W 7411  10.288   9.796   3.354
 3348W        W 7412  10.462   6.132   1.500
 3349W        W 7413   4.218   7.496   2.542
 3350W        W 7414   6.614   9.757   2.133
 3351W        W 7415  10.416   1.419  11.881
 3352W        W 7416   9.031   7.008   1.716
 3353W        W 7417   0.241   9.445   1.480
 3354W        W 7418   7.861   3.543   2.145
 3355W        W 7419   2.967   5.116   0.001
 3356W        W 7420   5.520   6.571   8.899
 3357W        W 7421   6.056   2.228   8.763
 3358W        W 7422   3.853   7.137   8.630
 3359W        W 7423   3.825   8.904  10.748
 3360W        W 7424   8.122   8.974   0.881
 3361W        W 7425   5.207   2.656  10.102
 3362W        W 7426   0.983   9.484  10.565
 3363W        W 7427   3.145   1.366  11.790
 3364W        W 7428   7.509   5.542   8.124
 3365W        W 7429   6.764  10.455  10.164
 3366W        W 7430   6.703   5.023   2.280
 3367W        W 7431   0.323   0.283   2.510
 3368W        W 7432   6.890   9.418  11.055
 3369W        W 7433   5.988   8.949   2.218
 3370W        W 7434  10.094   4.299   9.274
 3371W        W 7435   9.183   6.406   2.891
 3372W        W 7436   7.121   1.919  10.456
 3373W        W 7437   5.947   5.125  11.024
 3374W        W 7438   2.685   5.519   1.229
 3375W        W 7439   6.933   2.519  11.064
 3376W        W 7440   9.506   1.167   1.810
 3377W        W 7441   1.770   0.341  10.870
 3378W        W 7442   4.947  10.073  11.600
 3379W        W 7443   6.481   3.093   9.819
 3380W        W 7444   1.187   3.959   0.570
 3381W        W 7445   0.469   6.272   1.180
 3382W        W 7446   5.145   5.735   0.746
 3383W        W 7447   2.581   8.641  10.499
 3384W        W 7448   9.529   9.587   2.934
 3385W        W 7449   1.319   7.039  11.951
 3386W        W 7450   2.224   8.120   8.792
 3387W        W 7451   6.435   8.839   1.956
 3388W        W 7452   9.332   8.666   0.563
 3389W        W 7453  10.346   5.032   2.871
 3390W        W 7454   4.615   7.796   3.208
 3391W        W 7455   7.557   8.070  11.440
 3392W        W 7456   4.710   7.041  11.961
 3393W        W 7457   3.349   2.168   0.133
 3394W        W 7458   4.656   9.414   2.447
 3395W        W 7459   4.976   9.065   0.900
 3396W        W 7460   1.102  10.477   1.837
 3397W        W 7461   6.326   9.292  11.806
 3398W        W 7462   4.564   0.816   8.148
 3399W        W 7463   8.116   6.718  11.044
 3400W        W 7464  10.400   2.311   3.454
 3401W        W 7465   8.801   8.064   8.823
 3402W        W 7466   4.671   3.628  10.627
 3403W        W 7467   7.235   4.736   9.029
 3404W        W 7468   4.143   8.140   1.149
 3405W        W 7469   3.533   5.598   1.470
 3406W        W 7470   8.499   2.171   2.786
 3407W        W 7471  10.347   1.792   3.365
 3408W        W 7472   6.526   6.126  10.419
 3409W        W 7473   8.987   2.275   3.397
 3410W        W 7474   4.245   4.908   0.475
 3411W        W 7475   5.062   7.633  11.563
 3412W        W 7476   8.869   0.629  11.242
 3413W        W 7477   5.124   0.505   3.544
 3414W        W 7478   2.041   8.863   9.313
 3415W        W 7479   5.570   1.413   2.543
 3416W        W 7480   5.054   4.304   1.685
 3417W        W 7481   7.142  10.456   3.654
 3418W        W 7482   9.403   4.535  11.645
 3419W        W 7483   4.609   1.501   1.011
 3420W        W 7484   6.596  10.362  10.619
 3421W        W 7485   6.501   3.523   9.469
 3422W        W 7486   6.101   5.105   0.413
 3423W        W 7487   2.882   1.332   3.545
 3424W        W 7488   4.459   8.612  10.285
 3425W        W 7489   3.486   1.914   3.404
 3426W        W 7490   5.718   5.572   3.172
 3427W        W 7491   7.048   7.367  11.158
 3428W        W 7492   7.398   3.393   0.289
 3429W        W 7493   3.685   5.981   1.148
 3430W        W 7494   6.312   6.402   8.561
 3431W        W 7495   5.368   1.725   2.161
 3432W        W 7496   4.737   2.178   2.248
 3433W        W 7497   1.064   7.875   0.771
 3434W        W 7498   7.203   8.380   2.252
 3435W        W 7499   5.888   5.630   1.716
 3436W        W 7500   7.990   0.962   3.290
 3437W        W 7501   5.443   4.314   8.977
 3438W        W 7502   7.736   6.456   1.424
 3439W        W 7503   6.044   5.992   3.266
 3440W        W 7504  10.191   3.179  11.451
 3441W        W 7505   9.889   7.046   1.354
 3442W        W 7506   8.035   6.692  10.031
 3443W        W 7507   9.848   1.859  11.418
 3444W        W 7508   6.424   5.156   0.009
 3445W        W 7509   9.421   5.428  11.768
 3446W        W 7510   4.067   0.438   2.788
 3447W        W 7511  10.302   4.422   0.199
 3448W        W 7512   1.805   2.156   9.245
 3449W        W 7513   0.268   0.421  11.704
 3450W        W 7514   1.309   1.382   1.002
 3451W        W 7515  10.352   5.195  10.912
 3452W        W 7516   4.372   2.596   1.135
 3453W        W 7517   1.755   8.432  10.020
 3454W        W 7518   4.789   4.519   1.007
 3455W        W 7519   1.256   6.767  11.534
 3456W        W 7520   3.291   7.375   3.167
 3457W        W 7521   1.256   1.397  10.552
 3458W        W 7522   1.409  10.384  10.814
 3459W        W 7523   0.419   3.760   0.392
 3460W        W 7524   3.711   8.025   8.519
 3461W        W 7525   2.523   1.227  11.385
 3462W        W 7526   5.120   4.605   2.102
 3463W        W 7527   2.859   9.368   0.252
 3464W        W 7528   3.923   1.878  11.237
 3465W        W 7529   9.353   4.695   8.766
 3466W        W 7530   2.873   8.450   9.351
 3467W        W 7531  10.273   5.192   1.238
 3468W        W 7532   6.083   0.935  11.442
 3469W        W 7533  10.376   7.735  10.875
 3470W        W 7534   3.227   0.348  10.269
 3471W        W 7535   4.724   0.465   0.510
 3472W        W 7536   6.907   5.718  10.057
 3473W        W 7537   7.202   9.030  11.696
 3474W        W 7538   6.506   7.782   1.726
 3475W        W 7539   1.599   9.430   9.641
 3476W        W 7540   4.284   6.118   2.450
 3477W        W 7541   8.550   6.809   2.472
 3478W        W 7542   5.197   0.339   0.698
 3479W        W 7543   8.518   0.391   9.934
 3480W        W 7544   1.425   7.247  11.445
 3481W        W 7545   9.978   7.002   9.058
 3482W        W 7546   7.113   7.391   8.654
 3483W        W 7547   4.105   9.368   8.747
 3484W        W 7548   2.581   6.649   1.816
 3485W        W 7549   6.199   2.318  11.773
 3486W        W 7550   5.002   3.339   1.795
 3487W        W 7551   9.331   6.630   0.485
 3488W        W 7552   8.868   2.834   1.925
 3489W        W 7553  10.276   7.449   9.001
 3490W        W 7554   4.897   6.337   8.222
 3491W        W 7555   9.824   5.728   2.779
 3492W        W 7556   7.928   1.455   3.129
 3493W        W 7557   5.514   6.120   8.643
 3494W        W 7558   0.293   8.123   9.832
 3495W        W 7559   1.010   2.712   1.922
 3496W        W 7560   8.428   8.559   1.790
 3497W        W 7561   6.842   6.442   8.450
 3498W        W 7562   1.063   2.616   1.403
 3499W        W 7563   7.420   0.013  11.393
 3500W        W 7564   9.545   2.020  10.824
 3501W        W 7565   8.353   5.208   9.994
 3502W        W 7566   2.058   7.414  10.643
 3503W        W 7567   0.259   2.747  10.658
 3504W        W 7568   5.739   3.874   0.094
 3505W        W 7569   2.829   7.876   0.451
 3506W        W 7570   7.469   0.497   9.005
 3507W        W 7571   3.197   1.516   3.163
 3508W        W 7572   2.401   0.618  11.821
 3509W        W 7573   4.687   6.377  10.277
 3510W        W 7574   2.101  10.363   1.845
 3511W        W 7575   3.331   5.066   8.783
 3512W        W 7576   9.132   8.694   2.806
 3513W        W 7577   8.454   7.398   9.384
 3514W        W 7578   4.232   0.790   8.927
 3515W        W 7579  10.466   9.785   9.315
 3516W        W 7580   1.347   8.903   9.967
 3517W        W 7581   7.398   3.552   1.905
 3518W        W 7582   1.663   5.718   9.223
 3519W        W 7583   5.631   2.212   0.921
 3520W        W 7584   6.836   9.122   0.607
 3521W        W 7585   6.050   7.495   0.787
 3522W        W 7586   4.190   2.229   0.446
 3523W        W 7587   5.151   5.154  10.564
 3524W        W 7588   9.663  10.395   1.428
 3525W        W 7589   4.068   1.224   9.130
 3526W        W 7590   0.479   1.823   9.146
 3527W        W 7591   3.041   7.394   8.863
 3528W        W 7592   1.464   7.617   1.847
 3529W        W 7593   6.626   4.160   8.000
 3530W        W 7594   7.651   5.948   1.387
 3531W        W 7595   6.890   2.187   0.528
 3532W        W 7596   8.434   4.619   1.478
 3533W        W 7597   9.010   3.638   0.672
 3534W        W 7598   3.281   6.979  11.295
 3535W        W 7599   7.403   7.051  11.325
 3536W        W 7600   5.540   1.252   2.043
 3537W        W 7601  10.414   8.728   2.211
 3538W        W 7602  10.254   1.511  10.703
 3539W        W 7603   0.341   8.850   1.192
 3540W        W 7604   2.921   1.158   1.945
 3541W        W 7605   2.613   3.596   1.641
 3542W        W 7606   3.160   5.771   1.139
 3543W        W 7607   8.426   8.399   0.234
 3544W        W 7608   0.350   0.518  11.183
 3545W        W 7609   9.804   3.735   2.709
 3546W        W 7610   2.361   8.636  10.969
 3547W        W 7611   0.341   6.748  11.709
 3548W        W 7612  10.390   7.035   1.381
 3549W        W 7613   4.122   6.139   3.648
 3550W        W 7614   3.889  10.429   2.715
 3551W        W 7615  10.041  10.459  11.506
 3552W        W 7616   6.035   9.094   2.700
 3553W        W 7617   0.022   9.919   0.392
 3554W        W 7618   8.567   1.898  11.200
 3555W        W 7619   9.097   6.505   0.943
 3556W        W 7620  10.449   5.663  10.113
 3557W        W 7621   4.531   6.436   0.699
 3558W        W 7622   8.144   4.872  11.503
 3559W        W 7623   9.551   5.025  11.471
 3560W        W 7624   9.469   3.570   0.454
 3561W        W 7625   7.617   6.051   3.399
 3562W        W 7626  10.397   1.159   9.368
 3563W        W 7627  10.473   4.779  11.789
 3564W        W 7628   5.319   9.493   3.671
 3565W        W 7629   8.354   9.868   3.124
 3566W        W 7630   5.037   9.542   9.760
 3567W        W 7631   4.691   8.416   2.539
 3568W        W 7632   5.844   4.025   9.574
 3569W        W 7633   6.557   6.224   3.516
 3570W        W 7634   8.665   8.570   2.681
 3571W        W 7635   1.683   6.513  11.568
 3572W        W 7636   5.507   7.823   1.367
 3573W        W 7637   8.835  10.363   3.521
 3574W        W 7638   0.865   3.196   1.951
 3575W        W 7639   2.859  10.315   3.191
 3576W        W 7640  10.309   9.155   2.803
 3577W        W 7641   4.245   3.174   0.374
 3578W        W 7642   5.431   9.907  11.531
 3579W        W 7643   9.755   0.401   8.714
 3580W        W 7644   6.882   0.099   0.268
 3581W        W 7645   3.722   4.643   3.423
 3582W        W 7646   8.573   6.881   9.373
 3583W        W 7647   7.536   6.105   8.866
 3584W        W 7648   8.828   0.062   0.417
 3585W        W 7649   4.429   5.920   3.291
 3586W        W 7650   2.071   5.208  11.198
 3587W        W 7651   7.674   4.115   1.437
 3588W        W 7652   1.604   1.293   1.442
 3589W        W 7653   7.687   8.524   2.334
 3590W        W 7654   6.885   5.111   8.874
 3591W        W 7655   1.798   6.025   1.254
 3592W        W 7656   0.977   2.831  11.111
 3593W        W 7657   5.913   5.143   2.929
 3594W        W 7658   5.492  10.432   8.916
 3595W        W 7659   2.175   3.355  10.205
 3596W        W 7660   9.747   0.325   2.878
 3597W        W 7661   6.151   8.471   2.393
 3598W        W 7662   2.267   1.747   3.022
 3599W        W 7663   6.020   7.947   9.586
 3600W        W 7664   7.607   3.085   2.273
 3601W        W 7665   7.432  10.102   3.417
 3602W        W 7666   4.493   3.608   0.530
 3603W        W 7667   3.848   6.687  10.933
 3604W        W 7668   6.933   1.229   2.697
 3605W        W 7669   1.478   8.309  10.830
 3606W        W 7670   8.266   9.886  11.393
 3607W        W 7671  10.416   0.270  11.375
 3608W        W 7672   9.321   9.149   9.070
 3609W        W 7673   6.459   2.597   9.538
 3610W        W 7674   3.642   1.249   8.857
 3611W        W 7675   5.963   9.025   0.676
 3612W        W 7676   9.341   9.893  11.313
 3613W        W 7677   4.233   6.629   3.733
 3614W        W 7678   4.577   9.104   8.668
 3615W        W 7679   0.123   1.859   2.588
 3616W        W 7680   7.171   9.726   8.879
 3617W        W 7681   6.684   4.478  11.259
 3618W        W 7682   0.930   6.576  10.551
 3619W        W 7683   9.005   4.273  11.424
 3620W        W 7684   6.526   7.683   0.832
 3621W        W 7685   9.737   2.682   2.477
 3622W        W 7686   8.103  10.406   2.770
 3623W        W 7687  10.034   0.086   8.426
 3624W        W 7688   6.401   9.263   2.293
 3625W        W 7689   4.132   4.279   8.552
 3626W        W 7690   1.159   6.427   2.053
 3627W        W 7691   1.994   8.963   1.376
 3628W        W 7692   4.245   7.010   8.928
 3629W        W 7693   2.117   0.770   1.869
 3630W        W 7694   9.970   0.798   9.008
 3631W        W 7695   6.973   5.032   3.454
 3632W        W 7696   5.245   5.294   0.964
 3633W        W 7697   8.796   9.935  11.285
 3634W        W 7698   8.602   5.691  10.029
 3635W        W 7699   4.693   0.827   9.173
 3636W        W 7700   4.293   9.487   0.373
 3637W        W 7701   0.353   9.462   9.096
 3638W        W 7702   5.657   8.279   1.685
 3639W        W 7703   7.027   4.497   2.895
 3640W        W 7704   4.669   8.116   8.954
 3641W        W 7705   2.132   5.566   1.818
 3642W        W 7706  10.262   3.600   2.457
 3643W        W 7707   5.569   2.254  10.974
 3644W        W 7708   7.416   5.620   8.643
 3645W        W 7709   5.138   3.523   2.271
 3646W        W 7710   0.694   9.435  11.989
 3647W        W 7711   0.914   6.011   8.788
 3648W        W 7712   7.320   8.907   2.347
 3649W        W 7713   3.743   7.945   0.896
 3650W        W 7714   1.816   3.427   2.133
 3651W        W 7715   0.814   0.750   0.498
 3652W        W 7716   6.928   3.454   1.293
 3653W        W 7717   3.850   3.190   0.020
 3654W        W 7718   8.068   7.905   9.456
 3655W        W 7719   4.313   0.153  10.450
 3656W        W 7720   0.965   4.693  11.235
 3657W        W 7721   5.335   6.582   8.029
 3658W        W 7722   3.716   4.833   0.420
 3659W        W 7723   2.868   5.942   1.550
 3660W        W 7724   7.191   8.080   0.296
 3661W        W 7725   3.169   1.365   0.688
 3662W        W 7726   5.023   6.660  11.822
 3663W        W 7727   8.032   1.244   1.398
 3664W        W 7728   7.108   3.586   2.788
 3665W        W 7729   1.176   9.845  10.244
 3666W        W 7730   5.087   0.871   0.469
 3667W        W 7731  10.455   6.646  10.058
 3668W        W 7732   6.071   5.996   0.828
 3669W        W 7733   7.125   0.480   1.544
 3670W        W 7734   4.287  10.453   3.123
 3671W        W 7735   4.033   1.775   0.705
 3672W        W 7736   0.473   9.511  11.499
 3673W        W 7737   6.060   3.628   8.824
 3674W        W 7738   0.509   2.799   1.962
 3675W        W 7739   8.889   7.128  10.700
 3676W        W 7740   9.090   2.165   1.098
 3677W        W 7741   6.838   8.031   2.029
 3678W        W 7742   5.732   7.569  10.954
 3679W        W 7743   0.763   0.525  10.853
 3680W        W 7744   5.535   6.919  11.482
 3681W        W 7745   1.962   9.506   3.290
 3682W        W 7746   5.028   8.795   1.891
 3683W        W 7747   2.310   3.305   1.279
 3684W        W 7748   0.740   0.354   2.765
 3685W        W 7749   1.173   6.901   3.518
 3686W        W 7750   5.222   4.118   3.862
 3687W        W 7751   6.275   3.276   1.779
 3688W        W 7752   8.828   7.613   0.463
 3689W        W 7753   5.869   3.050   3.193
 3690W        W 7754   3.080   9.900   1.386
 3691W        W 7755  10.491   8.406   9.533
 3692W        W 7756   7.498   8.158   8.810
 3693W        W 7757   5.953   4.932  11.915
 3694W        W 7758   1.922   3.424   2.840
 3695W        W 7759   0.852   8.402   2.953
 3696W        W 7760   0.078   7.686  11.697
 3697W        W 7761   4.085   3.383   8.913
 3698W        W 7762   8.384   4.573   9.425
 3699W        W 7763   4.535   2.125   9.354
 3700W        W 7764   2.620   4.283  11.022
 3701W        W 7765   2.859   6.672  10.013
 3702W        W 7766   4.978   2.824   9.120
 3703W        W 7767   8.837   4.728   3.583
 3704W        W 7768   3.275  10.168   0.971
 3705W        W 7769   1.889   2.843   0.368
 3706W        W 7770   7.396  10.167  10.999
 3707W        W 7771  10.112   7.834   0.886
 3708W        W 7772   1.479   4.139  11.367
 3709W        W 7773   6.825   5.542   2.398
 3710W        W 7774   9.471   6.327   0.113
 3711W        W 7775   2.351   1.310   3.479
 3712W        W 7776   2.238   2.217  10.019
 3713W        W 7777   8.565   4.551  11.479
 3714W        W 7778   8.512   8.104   9.260
 3715W        W 7779   4.991   6.195   8.711
 3716W        W 7780   5.177  10.041   2.491
 3717W        W 7781   1.045   4.232   3.581
 3718W        W 7782   7.507   1.642   2.835
 3719W        W 7783   7.422   4.771   2.708
 3720W        W 7784   0.687   0.860   9.872
 3721W        W 7785   5.069   2.452  11.025
 3722W        W 7786   7.573   2.185   0.233
 3723W        W 7787   1.388   2.423   0.439
 3724W        W 7788   1.246   8.471   9.746
 3725W        W 7789   8.153   0.988  10.011
 3726W        W 7790   5.958   8.656  10.455
 3727W        W 7791   8.893   8.475   0.414
 3728W        W 7792   3.219   2.299   3.591
 3729W        W 7793   0.941   6.038  11.873
 3730W        W 7794  10.144   7.933  11.558
 3731W        W 7795   5.572   3.865   8.606
 3732W        W 7796   6.962   7.545   2.695
 3733W        W 7797   6.855   5.133  11.745
 3734W        W 7798   9.825   6.463   0.448
 3735W        W 7799   0.995   2.598  10.237
 3736W        W 7800   3.640   0.304   3.016
 3737W        W 7801   8.640   9.741   1.127
 3738W        W 7802   6.174   5.990   3.765
 3739W        W 7803   6.686   7.570   2.212
 3740W        W 7804   5.325   4.071   9.434
 3741W        W 7805   9.497   2.273   0.268
 3742W        W 7806   0.517   7.677   0.961
 3743W        W 7807   7.020   1.745   2.731
 3744W        W 7808   8.207   0.114  10.659
 3745W        W 7809   3.749   1.369  10.926
 3746W        W 7810   7.810   3.595   0.035
 3747W        W 7811   4.133   0.862   3.111
 3748W        W 7812   3.609   5.536   9.339
 3749W        W 7813   2.699   6.612   9.025
 3750W        W 7814   8.907   2.996   1.410
 3751W        W 7815   5.500   2.639  10.532
 3752W        W 7816   5.192   3.056   0.222
 3753W        W 7817   4.265   1.651   9.337
 3754W        W 7818   4.314   5.124  10.503
 3755W        W 7819   1.324   7.664   3.314
 3756W        W 7820  10.213   3.000   3.020
 3757W        W 7821   5.734   7.416   9.022
 3758W        W 7822   4.812   7.986   2.795
 3759W        W 7823   3.727   4.193   9.052
 3760W        W 7824   4.794   2.869  11.907
 3761W        W 7825   4.678   5.090   2.036
 3762W        W 7826   1.382   5.326   8.671
 3763W        W 7827   3.822   3.222  11.074
 3764W        W 7828   5.654   4.101   8.064
 3765W        W 7829   1.467   3.091  10.870
 3766W        W 7830   0.058   4.217   9.071
 3767W        W 7831   2.408   8.893   9.681
 3768W        W 7832   9.873   1.398   1.023
 3769W        W 7833   3.154   1.164  10.590
 3770W        W 7834   6.792   0.438   1.147
 3771W        W 7835   7.882   7.442   0.310
 3772W        W 7836   7.959   1.900  10.534
 3773W        W 7837   1.515   7.733  11.357
 3774W        W 7838  10.498  10.219   3.129
 3775W        W 7839   4.141   1.370   2.725
 3776W        W 7840   0.965   4.949   1.725
 3777W        W 7841   5.555   5.673   0.164
 3778W        W 7842   2.765   7.446   1.266
 3779W        W 7843  10.270   1.820  10.298
 3780W        W 7844   1.528   4.479   9.690
 3781W        W 7845   8.633   8.297   1.403
 3782W        W 7846   7.816   0.450  10.564
 3783W        W 7847   5.163   3.619  10.356
 3784W        W 7848   4.985   5.476   9.970
 3785W        W 7849   1.592   5.635   0.973
 3786W        W 7850   1.917   2.905   2.043
 3787W        W 7851  10.207  10.085   2.268
 3788W        W 7852   1.803   4.097   9.909
 3789W        W 7853   6.094   5.519   3.532
 3790W        W 7854   5.554   6.967   1.458
 3791W        W 7855   7.646   5.009   1.693
 3792W        W 7856   5.691   5.598  10.301
 3793W        W 7857   1.900   4.311   2.318
 3794W        W 7858   7.690   3.771   0.514
 3795W        W 7859   3.009   9.049  10.416
 3796W        W 7860   0.049   4.629  10.819
 3797W        W 7861   3.539   9.975   2.303
 3798W        W 7862   3.283   0.452   1.674
 3799W        W 7863   9.789   7.419   8.810
 3800W        W 7864   2.486   4.791   8.904
 3801W        W 7865   0.215   1.344  10.880
 3802W        W 7866   6.934   5.433   0.536
 3803W        W 7867   0.852   9.935   1.172
 3804W        W 7868   6.409   8.853   0.455
 3805W        W 7869   7.164   7.608   9.680
 3806W        W 7870   7.457   3.225  11.298
 3807W        W 7871   9.975   1.865   1.851
 3808W        W 7872   3.090   7.953  11.099
 3809W        W 7873   0.427   7.311   2.896
 3810W        W 7874   4.494   6.439   1.211
 3811W        W 7875   4.996   3.025   9.829
 3812W        W 7876   0.888   3.922   1.240
 3813W        W 7877   1.998   9.552  10.977
 3814W        W 7878   1.169   2.244   1.801
 3815W        W 7879   7.905   2.408  10.561
 3816W        W 7880   5.720   1.607  11.759
 3817W        W 7881   5.580   1.261   3.057
 3818W        W 7882  10.245   7.649   2.161
 3819W        W 7883   9.485   5.484   2.214
 3820W        W 7884   0.875   4.139   0.197
 3821W        W 7885   0.357   7.230  10.146
 3822W        W 7886   4.720   5.053  10.824
 3823W        W 7887  10.358   3.452   9.706
 3824W        W 7888   9.329   2.654   2.155
 3825W        W 7889   4.977   6.462   2.860
 3826W        W 7890   7.449   6.620   8.970
 3827W        W 7891   8.947   5.597   9.647
 3828W        W 7892   7.327   5.208  10.472
 3829W        W 7893   8.374   4.243  10.863
 3830W        W 7894   8.205   1.811  11.572
 3831W        W 7895  10.466   7.082  11.951
 3832W        W 7896   3.272   7.223   2.313
 3833W        W 7897   6.038   0.391   3.302
 3834W        W 7898   9.415   3.383  10.506
 3835W        W 7899   0.794   0.270   9.478
 3836W        W 7900   8.324   9.869   8.971
 3837W        W 7901   5.884   0.433   2.810
 3838W        W 7902   0.360   0.200  10.780
 3839W        W 7903   9.402   9.208  11.169
 3840W        W 7904   2.020   9.367   1.894
 3841W        W 7905   0.863   6.523  10.047
 3842W        W 7906   7.017   5.621  11.030
 3843W        W 7907   2.097   5.162   3.029
 3844W        W 7908   8.692   7.198   8.971
 3845W        W 7909   4.746  10.294   2.432
 3846W        W 7910   7.598   9.973  10.103
 3847W        W 7911   2.381   8.460   3.010
 3848W        W 7912   8.747   2.005   0.346
 3849W        W 7913   0.178   5.608   0.029
 3850W        W 7914   6.416   8.946   1.416
 3851W        W 7915   9.156   5.769  10.504
 3852W        W 7916   7.795   4.116  11.983
 3853W        W 7917   2.385   6.034   1.774
 3854W        W 7918   4.162   1.868   2.807
 3855W        W 7919   5.926   6.890   3.843
 3856W        W 7920   2.110   7.147   9.856
 3857W        W 7921   4.007   7.924   2.260
 3858W        W 7922   4.678   0.852   8.651
 3859W        W 7923   7.309  10.005   1.621
 3860W        W 7924   7.019   2.191   3.026
 3861W        W 7925   1.931   3.337  11.029
 3862W        W 7926   1.190   9.710   8.820
 3863W        W 7927   7.435   3.736  11.140
 3864W        W 7928   5.950   3.469   1.403
 3865W        W 7929   2.345   3.152   2.843
 3866W        W 7930   7.377  10.499   0.308
 3867W        W 7931   7.826   6.511   2.756
 3868W        W 7932   2.886   6.955  11.835
 3869W        W 7933   4.967   4.676   0.430
 3870W        W 7934   2.373   4.779   2.769
 3871W        W 7935   0.659   0.618   2.295
 3872W        W 7936   9.959   4.523  10.468
 3873W        W 7937   7.154   0.437   3.302
 3874W        W 7938   1.662   1.640  11.789
 3875W        W 7939  10.202   0.625   1.421
 3876W        W 7940   9.384   4.653   9.781
 3877W        W 7941   2.821   7.032   0.410
 3878W        W 7942   8.428   6.488   0.821
 3879W        W 7943   1.350   4.369   3.159
 3880W        W 7944   3.611   6.478   1.699
 3881W        W 7945   1.296   0.240   9.018
 3882W        W 7946  10.244   6.724   0.302
 3883W        W 7947   6.943   3.682   0.350
 3884W        W 7948   4.402   0.095   2.640
 3885W        W 7949   7.486   8.792  10.764
 3886W        W 7950   3.392   1.026  11.023
 3887W        W 7951   4.651   2.348  10.723
 3888W        W 7952   4.930   8.479  10.452
 3889W        W 7953   9.323   8.536   3.250
 3890W        W 7954   4.717   9.375   2.930
 3891W        W 7955   6.019   4.113   8.696
 3892W        W 7956   9.273   7.943   8.944
 3893W        W 7957   8.117   8.379   9.044
 3894W        W 7958   7.153   2.265   1.496
 3895W        W 7959   3.379   0.580   9.788
 3896W        W 7960   2.314   7.815  11.577
 3897W        W 7961   0.452   5.203   0.189
 3898W        W 7962   1.963   4.569   0.886
 3899W        W 7963   2.825   5.959   0.048
 3900W        W 7964   6.181   1.916   3.478
 3901W        W 7965   2.597   2.535  10.266
 3902W        W 7966   6.680   0.304   9.386
 3903W        W 7967   2.925  10.342  10.652
 3904W        W 7968   8.655   4.223   1.231
 3905W        W 7969  10.276   4.546   8.787
 3906W        W 7970   6.731   1.242  10.531
 3907W        W 7971   7.551   5.593   3.105
 3908W        W 7972   5.281   6.180   9.123
 3909W        W 7973   2.362   6.755   1.165
 3910W        W 7974   4.734   3.290   0.208
 3911W        W 7975   6.033   7.530   1.682
 3912W        W 7976   7.001   6.458   1.778
 3913W        W 7977   9.647   3.413   8.591
 3914W        W 7978   4.159   1.247  11.824
 3915W        W 7979   7.973   7.461   2.665
 3916W        W 7980   7.820   9.955   9.077
 3917W        W 7981  10.222   3.659  11.305
 3918W        W 7982   2.628   5.034   2.357
 3919W        W 7983   1.313   1.875   9.000
 3920W        W 7984   5.077   4.632  11.037
 3921W        W 7985   9.336   6.522   1.856
 3922W        W 7986   5.152   8.558  11.048
 3923W        W 7987   3.711  10.445   2.217
 3924W        W 7988   9.427   7.224   1.500
 3925W        W 7989   7.431   2.078   0.704
 3926W        W 7990   5.150   7.690  11.066
 3927W        W 7991  10.385   0.698   9.588
 3928W        W 7992   4.052  10.386   0.892
 3929W        W 7993   7.561   3.570   9.951
 3930W        W 7994   4.716   1.718   9.064
 3931W        W 7995   0.226   8.635  11.401
 3932W        W 7996   0.892   5.683   0.284
 3933W        W 7997   7.073   6.687   2.237
 3934W        W 7998  10.088   3.724  11.797
 3935W        W 7999   5.649   0.779   2.205
 3936W        W 8000   4.277   9.095  10.524
 3937W        W 8001   1.261  10.445   9.443
 3938W        W 8002   6.967   9.955  10.768
 3939W        W 8003   7.937   4.096   2.351
 3940W        W 8004   2.654   0.810   3.360
 3941W        W 8005   1.701   8.322   1.798
 3942W        W 8006   8.976   0.880   2.844
 3943W        W 8007   6.962   9.019   2.723
 3944W        W 8008   2.635   2.748   2.759
 3945W        W 8009   4.614   3.657   1.570
 3946W        W 8010   0.475   0.773  11.999
 3947W        W 8011   0.347   5.356   9.879
 3948W        W 8012   2.317   8.983   1.763
 3949W        W 8013   3.717   8.952   1.323
 3950W        W 8014   8.477   0.285   9.422
 3951W        W 8015   7.010   0.324  11.270
 3952W        W 8016  10.363   4.940   2.381
 3953W        W 8017   4.593   6.884  10.270
 3954W        W 8018   7.213   9.003   0.279
 3955W        W 8019   6.219   4.335  11.754
 3956W        W 8020   4.189   1.058   8.505
 3957W        W 8021   1.934  10.417  10.650
 3958W        W 8022   7.964   0.005   0.369
 3959W        W 8023   4.367   5.774   8.253
 3960W        W 8024   9.909  10.340  11.985
 3961W        W 8025   6.110   2.327  11.264
 3962W        W 8026   8.919   4.770   2.171
 3963W        W 8027   5.198   6.661   8.513
 3964W        W 8028   6.969   2.423  10.569
 3965W        W 8029   1.067   9.105   0.241
 3966W        W 8030   5.468   4.682   0.343
 3967W        W 8031   6.954   7.727   0.570
 3968W        W 8032   9.968   3.205   2.609
 3969W        W 8033   2.404   2.927  11.836
 3970W        W 8034   2.642   6.103   3.518
 3971W        W 8035   9.435   9.034   2.540
 3972W        W 8036   6.849   9.055   1.152
 3973W        W 8037   2.352   7.662   1.730
 3974W        W 8038   9.531   8.306   9.248
 3975W        W 8039   3.695  10.331  10.813
 3976W        W 8040   9.771   4.284  10.908
 3977W        W 8041   6.501   1.477   2.796
 3978W        W 8042   5.665   2.373   2.352
 3979W        W 8043   1.212   9.562  11.986
 3980W        W 8044   6.273   7.474   1.243
 3981W        W 8045   5.574   7.367   2.774
 3982W        W 8046   8.285   0.103   8.430
 3983W        W 8047   1.703   0.493   2.523
 3984W        W 8048   7.394   5.206   8.944
 3985W        W 8049   2.725   3.594   9.269
 3986W        W 8050   2.722   0.286  10.880
 3987W        W 8051   5.076   2.249   9.186
 3988W        W 8052   2.344  10.308   2.987
 3989W        W 8053   4.324   1.672   1.895
 3990W        W 8054   4.348   6.618   9.710
 3991W        W 8055   0.763   8.869   9.859
 3992W        W 8056   6.916   9.874  11.272
 3993W        W 8057   7.247   1.744  11.316
 3994W        W 8058   9.316   5.631   9.284
 3995W        W 8059   6.199   3.107   3.582
 3996W        W 8060   0.762   8.563   1.967
 3997W        W 8061   9.435   1.781   8.571
 3998W        W 8062   4.755   8.857  11.274
 3999W        W 8063   5.283   9.876  10.091
 4000W        W 8064   1.351   8.035   1.511
 4001W        W 8065   1.227   2.930   0.403
 4002W        W 8066   1.757   5.960  10.214
 4003W        W 8067   9.379   0.695   1.965
 4004W        W 8068   2.258   2.246  11.514
 4005W        W 8069   4.542   3.912  11.017
 4006W        W 8070   0.882   7.032  10.783
 4007W        W 8071   1.518   0.259   3.361
 4008W        W 8072   0.560   1.789   9.821
 4009W        W 8073   9.531   7.140   1.005
 4010W        W 8074   0.326   7.312   1.423
 4011W        W 8075   3.207   4.818   1.283
 4012W        W 8076   2.808   5.918   2.077
 4013W        W 8077   4.185   7.982   8.804
 4014W        W 8078   6.119   4.275   8.207
 4015W        W 8079   6.477   3.339   0.565
 4016W        W 8080   2.970   7.847   8.615
 4017W        W 8081   7.112   0.934  11.866
 4018W        W 8082   3.176   0.249   9.401
 4019W        W 8083   2.697   9.947   2.822
 4020W        W 8084   8.564   7.909   3.171
 4021W        W 8085   6.957   9.508   2.957
 4022W        W 8086   6.071   7.110   2.007
 4023W        W 8087   6.533   7.400   3.130
 4024W        W 8088   1.159   0.734   2.209
 4025W        W 8089   4.543   9.777  11.780
 4026W        W 8090   0.022   4.639  10.298
 4027W        W 8091  10.446   7.597   1.254
 4028W        W 8092   2.634   4.350  11.533
 4029W        W 8093   5.214   1.709   9.841
 4030W        W 8094   4.538   0.396   9.433
 4031W        W 8095   5.124   1.184   2.332
 4032W        W 8096   6.125   7.265  10.825
 4033W        W 8097   0.397   0.676   1.850
 4034W        W 8098   5.719   5.171   1.642
 4035W        W 8099   4.892   0.390   8.641
 4036W        W 8100   7.980   9.377   0.580
 4037W        W 8101   4.228   5.641  10.473
 4038W        W 8102   9.728   8.927  10.480
 4039W        W 8103   4.266   6.203  10.526
 4040W        W 8104   8.592   9.098   3.594
 4041W        W 8105   0.746   3.577  10.279
 4042W        W 8106   2.294   7.683   1.223
 4043W        W 8107   0.997   8.759   9.412
 4044W        W 8108   4.598   4.064   8.796
 4045W        W 8109   3.355   3.823   1.335
 4046W        W 8110   7.545   2.769   1.463
 4047W        W 8111   9.566   5.574  10.264
 4048W        W 8112   3.136   6.477   2.907
 4049W        W 8113   9.534   9.372  10.073
 4050W        W 8114   2.557   7.582   8.925
 4051W        W 8115   7.496   3.655  11.636
 4052W        W 8116  10.371   5.706   1.218
 4053W        W 8117   4.552   4.697   3.445
 4054W        W 8118   2.784   1.319  10.928
 4055W        W 8119   7.876   0.259   1.621
 4056W        W 8120   1.547   5.653  10.554
 4057W        W 8121   7.535   7.065   0.169
 4058W        W 8122   0.395   9.051  10.884
 4059W        W 8123   2.860   7.504  11.169
 4060W        W 8124   6.569   9.463   1.325
 4061W        W 8125   5.635  10.421   1.938
 4062W        W 8126   7.429   5.325   9.513
 4063W        W 8127   8.047   2.264   1.399
 4064W        W 8128   6.017   3.683   9.927
 4065W        W 8129   5.824   7.470   0.325
 4066W        W 8130   3.407   7.955   1.878
 4067W        W 8131   5.730   6.914   9.199
 4068W        W 8132   6.053   9.079  10.831
 4069W        W 8133   8.414   6.444   2.102
 4070W        W 8134   0.357   8.547   1.681
 4071W        W 8135   6.907   5.002   2.770
 4072W        W 8136   4.129   3.899   8.928
 4073W        W 8137   9.047   4.008   1.531
 4074W        W 8138   4.856   6.831   8.085
 4075W        W 8139   6.145   1.393  11.234
 4076W        W 8140   7.979   8.999   2.965
 4077W        W 8141   3.262   7.109   0.733
 4078W        W 8142   4.965   0.420  10.783
 4079W        W 8143   4.057   3.946   1.382
 4080W        W 8144   6.542   2.977   0.237
 4081W        W 8145   2.261   3.485   3.252
 4082W        W 8146   1.685   7.164   0.580
 4083W        W 8147   6.033   3.156  11.104
 4084W        W 8148   4.701   3.772   3.001
 4085W        W 8149  10.271   4.132   2.853
 4086W        W 8150   7.996   3.707   3.283
 4087W        W 8151   8.451   0.732   3.281
 4088W        W 8152   8.398   1.705   3.052
 4089W        W 8153   1.369   6.484  10.811
 4090W        W 8154   4.068   5.622   1.631
 4091W        W 8155   3.276   2.444   3.124
 4092W        W 8156   2.672   9.294   9.874
 4093W        W 8157   6.211   1.765   9.941
 4094W        W 8158   0.759   4.107   1.699
 4095W        W 8159   5.485   7.046   8.690
 4096W        W 8160   6.175   8.546   0.830
 4097W        W 8161   9.177   5.955   9.993
 4098W        W 8162   3.782   3.582   1.157
 4099W        W 8163   9.072   4.634   2.647
 4100W        W 8164   9.872   0.940   1.221
 4101W        W 8165   5.009   9.524   9.255
 4102W        W 8166   2.390   2.588  10.763
 4103W        W 8167   1.374   6.569   0.913
 4104W        W 8168   2.907   8.911   9.585
 4105W        W 8169   0.950   3.802   3.298
 4106W        W 8170   4.232   1.213   1.690
 4107W        W 8171   0.694   7.321   8.892
 4108W        W 8172   5.566   3.823   1.421
 4109W        W 8173   9.036   0.337   9.968
 4110W        W 8174   0.986   3.047   2.869
 4111W        W 8175   2.957   7.201   2.717
 4112W        W 8176   3.158   3.832   9.088
 4113W        W 8177   8.362   0.313   2.950
 4114W        W 8178   9.777   8.991  11.522
 4115W        W 8179   5.043   6.693   0.768
 4116W        W 8180  10.487   2.829   1.936
 4117W        W 8181   8.648   6.651  10.791
 4118W        W 8182   4.242   9.108   2.835
 4119W        W 8183   9.967   3.066   9.326
 4120W        W 8184   7.445   9.313  10.713
 4121W        W 8185   5.977   5.292  11.502
 4122W        W 8186   9.428   4.286  10.541
 4123W        W 8187   6.696   4.285   2.312
 4124W        W 8188   3.732   9.835  10.297
 4125W        W 8189   7.301   2.189   9.229
 4126W        W 8190   9.734   0.777   0.226
 4127W        W 8191   5.064   3.737  11.002
 4128W        W 8192   0.506   8.265  10.267
 4129W        W 8193   0.778   7.900   2.728
 4130W        W 8194   5.123   3.073   3.036
 4131W        W 8195   9.922   0.282   0.730
 4132W        W 8196   7.475   6.301   0.032
 4133W        W 8197   3.568   1.109   9.855
 4134W        W 8198   8.284   4.280   9.844
 4135W        W 8199   2.254   3.257  11.469
 4136W        W 8200   4.154   6.167   8.904
 4137W        W 8201   4.596   4.653   0.101
 4138W        W 8202   7.879   1.301   8.850
 4139W        W 8203   9.537   0.873   2.710
 4140W        W 8204   6.645   2.300   1.813
 4141W        W 8205   4.767   1.869   1.390
 4142W        W 8206   5.812  10.363   3.430
 4143W        W 8207   4.360   7.440   9.435
 4144W        W 8208   5.796   3.177   1.882
 4145W        W 8209  10.419   3.282  10.610
 4146W        W 8210   5.138   9.081  10.958
 4147W        W 8211   8.613   2.885  10.963
 4148W        W 8212   5.538   0.685   1.253
 4149W        W 8213   4.224   7.767  10.308
 4150W        W 8214   2.336   5.623   8.359
 4151W        W 8215   1.336   6.099   2.426
 4152W        W 8216   4.700   4.965   0.736
 4153W        W 8217   0.296   7.977  10.631
 4154W        W 8218   7.436   6.069   0.935
 4155W        W 8219   4.609   5.225   2.583
 4156W        W 8220   5.239  10.068  10.566
 4157W        W 8221   5.756   6.220   9.873
 4158W        W 8222  10.427   1.133   2.927
 4159W        W 8223   7.521   1.074   3.433
 4160W        W 8224   5.652   9.018  10.170
 4161W        W 8225   2.705   5.717   9.061
 4162W        W 8226   3.620   1.616   9.920
 4163W        W 8227   5.717   2.387   1.398
 4164W        W 8228   3.404   5.784   9.971
 4165W        W 8229   8.027   2.935   0.671
 4166W        W 8230   3.410   6.107  11.395
 4167W        W 8231   2.439   6.498   8.603
 4168W        W 8232   2.396   1.947   1.474
 4169W        W 8233   4.570   5.598   1.808
 4170W        W 8234   6.912   2.145   9.592
 4171W        W 8235   0.367   0.025  11.349
 4172W        W 8236   8.399   6.953   2.015
 4173W        W 8237   6.446   3.362   1.306
 4174W        W 8238   9.402   6.204  10.404
 4175W        W 8239   9.065   6.852   9.069
 4176W        W 8240   2.458   2.893   1.624
 4177W        W 8241   0.768   8.332   9.836
 4178W        W 8242   1.939   8.446   2.713
 4179W        W 8243   2.734   9.249   8.846
 4180W        W 8244   8.924   9.113   9.596
 4181W        W 8245   5.984   6.758  11.615
 4182W        W 8246   8.680   4.980   9.354
 4183W        W 8247   5.067   2.712   3.387
 4184W        W 8248   1.666   3.232   1.685
 4185W        W 8249   4.296   6.448  11.002
 4186W        W 8250   2.688   9.108  11.787
 4187W        W 8251   0.788   9.409   1.895
 4188W        W 8252   7.447  10.300   2.121
 4189W        W 8253   9.769   4.356   9.987
 4190W        W 8254   4.100   0.393   3.328
 4191W        W 8255   4.518   8.951   0.661
 4192W        W 8256   7.236   5.719   2.179
 4193W        W 8257   0.776   3.738  10.766
 4194W        W 8258   3.082   2.248   2.165
 4195W        W 8259  10.412   9.839   1.433
 4196W        W 8260   5.942   9.591   3.575
 4197W        W 8261   6.935   8.152  10.786
 4198W        W 8262   0.782   5.164   2.157
 4199W        W 8263   0.517   1.900   2.257
 4200W        W 8264   1.194   6.398   8.570
 4201W        W 8265   4.499   1.722   2.386
 4202W        W 8266   0.833   3.058   8.975
 4203W        W 8267   2.728   6.472   0.846
 4204W        W 8268   0.524   7.704  11.438
 4205W        W 8269   3.710   0.450   1.982
 4206W        W 8270   0.834   1.793  11.393
 4207W        W 8271   4.945   4.233   9.122
 4208W        W 8272   7.748   0.793   1.792
 4209W        W 8273   5.497   6.722   3.575
 4210W        W 8274   1.251   6.069   9.924
 4211W        W 8275  10.001   4.024   0.208
 4212W        W 8276   8.362   1.296   3.411
 4213W        W 8277  10.249   5.469   2.640
 4214W        W 8278   5.772   7.093  10.054
 4215W        W 8279   7.467   2.695   1.969
 4216W        W 8280   9.196  10.296   9.876
 4217W        W 8281   0.314   5.440  11.053
 4218W        W 8282   4.774   7.946  10.318
 4219W        W 8283   8.864   1.489   9.180
 4220W        W 8284   1.214   3.984   1.923
 4221W        W 8285   3.746   5.838  11.715
 4222W        W 8286   6.553   8.337   2.723
 4223W        W 8287   3.237   6.970   9.058
 4224W        W 8288   1.362   2.279  11.878
 4225W        W 8289   7.868   9.486  10.471
 4226W        W 8290   6.739   4.002   9.293
 4227W        W 8291   8.393   2.615  11.901
 4228W        W 8292   8.045   9.997   0.394
 4229W        W 8293   7.579   6.620   0.484
 4230W        W 8294   8.770   9.532   2.249
 4231W        W 8295   4.650   4.198   3.280
 4232W        W 8296   6.118   8.409   9.286
 4233W        W 8297   3.760   1.326   1.917
 4234W        W 8298   0.864   6.912   9.226
 4235W        W 8299   7.866   1.804   0.062
 4236W        W 8300   6.675   6.498  11.350
 4237W        W 8301  10.414   8.322   3.150
 4238W        W 8302   9.652   3.853   8.881
 4239W        W 8303   4.231   7.406  11.279
 4240W        W 8304  10.412   9.419   0.589
 4241W        W 8305   4.637   8.916   3.144
 4242W        W 8306   3.194   3.721  10.088
 4243W        W 8307   6.053   9.567  10.985
 4244W        W 8308  10.491   9.702  11.433
 4245W        W 8309   1.507   3.709   2.940
 4246W        W 8310   7.619   1.301  10.624
 4247W        W 8311   8.369   7.081  10.785
 4248W        W 8312   4.326   5.270   8.432
 4249W        W 8313   2.335   3.922   8.832
 4250W        W 8314   4.755   6.041   1.020
 4251W        W 8315   1.897   3.061  11.903
 4252W        W 8316   3.314   7.149  10.462
 4253W        W 8317   9.326   2.835   1.688
 4254W        W 8318   3.538   2.729   2.319
 4255W        W 8319   4.722   7.028   2.480
 4256W        W 8320   6.123   2.241  10.136
 4257W        W 8321   1.837   6.001   1.759
 4258W        W 8322   7.798   9.742  11.664
 4259W        W 8323   6.682   6.167  11.960
 4260W        W 8324   9.374   9.066   1.305
 4261W        W 8325   9.404   0.015   2.651
 4262W        W 8326   1.936   9.753   0.704
 4263W        W 8327   2.052   9.942  10.401
 4264W        W 8328   0.386   2.891   0.700
 4265W        W 8329   2.169   4.500  10.856
 4266W        W 8330   3.296   4.443   3.624
 4267W        W 8331   0.035   2.815   0.337
 4268W        W 8332  10.297   8.214  10.734
 4269W        W 8333   5.242   9.479   0.779
 4270W        W 8334   4.798   2.325   1.180
 4271W        W 8335   1.716   8.475  11.782
 4272W        W 8336   3.214   7.207   1.415
 4273W        W 8337   0.318   5.157   3.582
 4274W        W 8338   8.934   6.209   8.536
 4275W        W 8339   6.945   4.071   0.685
 4276W        W 8340   1.347   7.855   0.310
 4277W        W 8341   2.860   9.840   1.872
 4278W        W 8342   2.105   6.630  11.807
 4279W        W 8343   1.938   9.437  11.472
 4280W        W 8344   5.971   4.337   9.151
 4281W        W 8345   8.009   9.689   9.914
 4282W        W 8346   8.160   8.649   2.645
 4283W        W 8347   9.363   1.713   9.847
 4284W        W 8348   3.599   3.583   2.154
 4285W        W 8349   3.563   9.539   9.905
 4286W        W 8350   1.387   3.191  11.848
 4287W        W 8351   2.184   3.725   9.821
 4288W        W 8352   3.185   8.832   3.394
 4289W        W 8353   8.368   5.247  10.968
 4290W        W 8354   3.268   0.648   2.999
 4291W        W 8355   3.855   4.668   8.304
 4292W        W 8356  10.215   6.089   2.826
 4293W        W 8357   6.546   4.876   1.261
 4294W        W 8358   3.728   4.526   1.958
 4295W        W 8359   2.624   1.954   8.882
 4296W        W 8360   4.416  10.109  10.426
 4297W        W 8361   7.057   2.308  10.072
 4298W        W 8362   9.567   2.983  10.838
 4299W        W 8363   1.685   7.564   9.075
 4300W        W 8364   6.816   6.219   3.961
 4301W        W 8365   1.794   7.052  11.760
 4302W        W 8366   0.028  10.227   9.589
 4303W        W 8367   0.271   3.103   1.196
 4304W        W 8368   9.494   5.640   0.717
 4305W        W 8369   8.990   5.030   8.942
 4306W        W 8370   8.544   6.635   1.646
 4307W        W 8371   0.888   4.761  10.726
 4308W        W 8372   2.337   4.752  11.257
 4309W        W 8373   3.849   8.298   9.504
 4310W        W 8374   2.082   1.015   1.304
 4311W        W 8375   6.359   9.770   9.220
 4312W        W 8376   5.079   4.222   8.626
 4313W        W 8377   6.150   2.218   1.657
 4314W        W 8378   4.667   5.890  10.499
 4315W        W 8379  10.320   2.978  11.901
 4316W        W 8380   8.426   4.264   0.253
 4317W        W 8381   7.814   9.006   2.471
 4318W        W 8382   2.840   8.548   2.780
 4319W        W 8383   3.374  10.362   2.928
 4320W        W 8384   0.026  10.463   0.777
 4321W        W 8385   2.761  10.326  11.669
 4322W        W 8386   8.198   6.692   3.038
 4323W        W 8387   0.248   6.540   9.272
 4324W        W 8388   4.135   9.231   1.436
 4325W        W 8389   3.481   0.358   8.552
 4326W        W 8390   6.554   3.646   1.996
 4327W        W 8391   8.964  10.193   0.065
 4328W        W 8392   0.377   8.953   2.140
 4329W        W 8393   1.341   1.301   0.036
 4330W        W 8394   8.852   9.967   2.999
 4331W        W 8395   0.562   0.978  11.030
 4332W        W 8396   5.909   6.411   3.581
 4333W        W 8397   6.181   0.959  10.938
 4334W        W 8398   7.877   0.840   0.366
 4335W        W 8399   9.568   7.366  11.879
 4336W        W 8400   2.362   1.104   8.970
 4337W        W 8401   2.030   9.822  11.811
 4338W        W 8402   3.359   7.488  11.231
 4339W        W 8403   0.045   2.663   1.053
 4340W        W 8404   2.752   2.191  11.363
 4341W        W 8405   5.228  10.000   0.014
 4342W        W 8406   6.512   8.351   1.761
 4343W        W 8407   4.723   5.504  11.825
 4344W        W 8408   1.675   7.917   9.896
 4345W        W 8409   1.308   2.778   2.600
 4346W        W 8410  10.165   7.272   0.981
 4347W        W 8411   6.552  10.271   9.384
 4348W        W 8412   4.117   8.516   9.871
 4349W        W 8413   5.979   0.006  11.755
 4350W        W 8414   0.113   5.344   0.889
 4351W        W 8415  10.273   6.555   9.070
 4352W        W 8416   8.118   4.115   9.382
 4353W        W 8417   3.351   2.398  10.408
 4354W        W 8418   7.670   5.278  11.419
 4355W        W 8419   6.628   6.905   0.376
 4356W        W 8420   6.133   1.866   0.059
 4357W        W 8421   9.307   0.302   1.303
 4358W        W 8422   5.908   5.735   9.861
 4359W        W 8423   9.039   5.667   2.381
 4360W        W 8424   9.537   0.001   0.935
 4361W        W 8425   0.470   6.077   9.352
 4362W        W 8426   7.486   6.146   2.918
 4363W        W 8427   6.092   6.078   9.480
 4364W        W 8428   6.713   3.050   9.370
 4365W        W 8429   0.759   9.009   2.702
 4366W        W 8430   4.929   2.674   1.955
 4367W        W 8431   3.060   0.196  11.310
 4368W        W 8432   4.235   1.066  10.473
 4369W        W 8433  10.419   6.975   8.753
 4370W        W 8434   3.751   3.362   3.063
 4371W        W 8435   7.583   3.983   4.351
 4372W        W 8436   9.340   6.161  11.372
 4373W        W 8437   2.696   7.417  11.663
 4374W        W 8438   0.522   7.736  11.958
 4375W        W 8439   7.154   4.967   1.907
 4376W        W 8440   0.328   5.030   2.630
 4377W        W 8441   4.140   6.285   2.906
 4378W        W 8442   3.613   3.765  10.374
 4379W        W 8443   5.566   1.674   0.921
 4380W        W 8444   3.695   0.721   8.942
 4381W        W 8445   7.551   1.347  11.122
 4382W        W 8446   2.697   9.760   9.039
 4383W        W 8447   4.712  10.038   0.801
 4384W        W 8448   6.687   8.471   2.244
 4385W        W 8449   5.053   4.006   9.867
 4386W        W 8450   6.890   0.808   9.612
 4387W        W 8451   2.113   6.894   1.934
 4388W        W 8452   8.817   2.915  11.995
 4389W        W 8453   5.077   6.673   2.333
 4390W        W 8454   0.781   2.236   1.167
 4391W        W 8455   9.036   8.924   0.886
 4392W        W 8456   9.963   8.231   2.768
 4393W        W 8457   3.323   7.591  10.226
 4394W        W 8458   4.913   6.199  11.554
 4395W        W 8459   7.043   5.404   1.031
 4396W        W 8460   7.910   6.285   0.933
 4397W        W 8461   8.337   5.921  11.367
 4398W        W 8462   6.328   2.713  10.924
 4399W        W 8463   8.323   6.377   2.619
 4400W        W 8464  10.030   6.170  10.972
 4401W        W 8465   2.074   8.469   2.139
 4402W        W 8466   8.948   2.645   1.006
 4403W        W 8467   9.434   5.520   1.700
 4404W        W 8468   4.090   8.886   0.982
 4405W        W 8469   2.583  10.007  10.438
 4406W        W 8470   5.079   9.561   1.292
 4407W        W 8471   7.144   7.471   9.174
 4408W        W 8472  10.143   6.670  10.953
 4409W        W 8473   4.128   3.763  11.794
 4410W        W 8474   9.919   2.983   8.807
 4411W        W 8475   2.917   9.913  11.402
 4412W        W 8476   5.521   0.745   0.737
 4413W        W 8477   0.191   7.202   3.353
 4414W        W 8478   5.592  10.346   9.407
 4415W        W 8479   7.916   3.309   9.695
 4416W        W 8480   7.384   1.452   8.639
 4417W        W 8481   5.420   5.532   1.882
 4418W        W 8482   9.530   4.463   2.585
 4419W        W 8483   9.946   4.078   1.970
 4420W        W 8484   9.295   8.830  10.812
 4421W        W 8485   5.994   3.499   9.329
 4422W        W 8486   2.830   8.338   0.246
 4423W        W 8487   1.477   4.701   0.903
 4424W        W 8488   9.770   8.887  11.021
 4425W        W 8489   9.824   5.195   0.971
 4426W        W 8490   1.461   6.167   9.434
 4427W        W 8491   8.082   6.091   9.478
 4428W        W 8492   5.190   0.271  10.333
 4429W        W 8493   4.985   3.759   0.513
 4430W        W 8494   2.713   1.187  10.323
 4431W        W 8495   8.544   1.699   2.545
 4432W        W 8496   4.574   3.849  11.526
 4433W        W 8497   5.217  10.017   9.616
 4434W        W 8498   1.365   6.669   3.055
 4435W        W 8499   0.401   8.266   2.764
 4436W        W 8500   6.118   4.286   2.615
 4437W        W 8501   8.064   0.204  10.157
 4438W        W 8502   3.550   9.894   3.189
 4439W        W 8503   5.447   8.560  10.372
 4440W        W 8504   9.456   7.278   0.373
 4441W        W 8505   2.368   7.103   2.529
 4442W        W 8506   2.787   1.832   9.510
 4443W        W 8507   2.354   7.765  10.459
 4444W        W 8508   6.113   4.174   0.256
 4445W        W 8509   4.296   8.056   2.875
 4446W        W 8510   2.686   4.620   9.330
 4447W        W 8511  10.369   8.428   1.777
 4448W        W 8512   1.814   0.299   8.884
 4449W        W 8513   2.236   4.126  11.298
 4450W        W 8514   4.778   6.059   0.012
 4451W        W 8515   6.034   0.860   2.546
 4452W        W 8516   4.658   9.024   9.190
 4453W        W 8517   8.526   1.096   1.433
 4454W        W 8518   8.363   2.630   2.535
 4455W        W 8519   4.686  10.327   1.936
 4456W        W 8520   9.059   0.707  10.776
 4457W        W 8521   0.722   8.538   3.444
 4458W        W 8522   6.119   1.689   1.483
 4459W        W 8523   5.243   8.223   2.725
 4460W        W 8524   0.331   1.687   1.787
 4461W        W 8525   7.399   7.176  10.492
 4462W        W 8526   8.340   5.124   3.000
 4463W        W 8527   7.001   5.411   3.784
 4464W        W 8528  10.298   4.198  11.755
 4465W        W 8529   0.347   7.539   1.909
 4466W        W 8530   9.916   5.521   1.410
 4467W        W 8531   5.651   3.508  11.753
 4468W        W 8532   4.068   2.391  11.371
 4469W        W 8533   6.024   4.093   0.771
 4470W        W 8534   8.015   3.565  10.659
 4471W        W 8535   3.146   0.300   2.650
 4472W        W 8536   5.745   9.153  11.771
 4473W        W 8537   2.830   0.746  10.599
 4474W        W 8538   6.688   1.401   0.465
 4475W        W 8539   7.395   5.563   9.978
 4476W        W 8540   4.183   3.442   1.432
 4477W        W 8541   3.590  10.047   0.007
 4478W        W 8542   4.267   9.612   2.752
 4479W        W 8543   5.644   6.586  10.261
 4480W        W 8544   9.384   1.514  10.788
 4481W        W 8545   8.259   3.761  10.262
 4482W        W 8546   0.700   5.507  11.375
 4483W        W 8547   0.436   1.893   0.887
 4484W        W 8548   4.156   7.051   0.710
 4485W        W 8549   4.235   0.734  11.834
 4486W        W 8550   5.289   8.545   9.344
 4487W        W 8551   1.779   2.124   9.828
 4488W        W 8552   3.318   6.131   9.576
 4489W        W 8553   7.044  10.093   0.319
 4490W        W 8554   1.676   7.747   3.690
 4491W        W 8555   8.421   3.306   9.812
 4492W        W 8556   6.568   2.133  11.482
 4493W        W 8557   1.776   6.964  10.275
 4494W        W 8558   0.341   6.043   2.004
 4495W        W 8559   5.971   7.091   9.595
 4496W        W 8560   2.725   5.160   3.346
 4497W        W 8561   1.874   0.344   1.753
 4498W        W 8562   1.703   7.969  11.947
 4499W        W 8563   6.264   8.249  10.309
 4500W        W 8564   7.058   2.212   2.502
 4501W        W 8565   6.142   8.905   9.079
 4502W        W 8566   8.890   6.194  10.397
 4503W        W 8567   6.316   2.795   3.197
 4504W        W 8568   7.095   2.732   1.205
 4505W        W 8569   9.915   6.518  11.417
 4506W        W 8570   9.510   3.770   1.426
 4507W        W 8571   0.856   6.051   2.276
 4508W        W 8572   7.786   8.146   1.037
 4509W        W 8573   4.274   3.262   3.539
 4510W        W 8574   0.545   8.956   0.217
 4511W        W 8575   5.676   0.277   2.341
 4512W        W 8576   2.171   0.348  10.244
 4513W        W 8577   9.862   6.583   9.391
 4514W        W 8578   3.788   2.974   0.471
 4515W        W 8579   8.857   4.607   9.665
 4516W        W 8580   0.973   9.436  11.535
 4517W        W 8581   1.334   1.440   2.748
 4518W        W 8582   1.844   5.729   0.008
 4519W        W 8583   7.911   7.162  11.185
 4520W        W 8584   9.196   0.038   3.135
 4521W        W 8585   1.495   9.511   0.883
 4522W        W 8586   8.572   0.248   1.996
 4523W        W 8587  10.436   4.188   1.724
 4524W        W 8588   7.217   5.117   1.413
 4525W        W 8589   8.405  10.449   2.363
 4526W        W 8590   3.183   3.320  11.545
 4527W        W 8591   4.647   6.862   0.449
 4528W        W 8592   3.396   5.732  10.774
 4529W        W 8593   9.702   5.680   8.923
 4530W        W 8594   7.861   9.098  10.959
 4531W        W 8595   2.933   0.495  11.769
 4532W        W 8596   9.099   3.743   9.910
 4533W        W 8597   5.718   5.281   2.209
 4534W        W 8598   4.248  10.314   2.233
 4535W        W 8599   0.435   8.069   1.893
 4536W        W 8600   0.901   6.616  11.079
 4537W        W 8601   0.808   3.944   8.208
 4538W        W 8602   5.759   6.896   2.800
 4539W        W 8603   8.368   2.133  10.774
 4540W        W 8604   6.747   0.782  10.853
 4541W        W 8605   5.833   1.518  10.318
 4542W        W 8606   8.272   7.275  11.516
 4543W        W 8607   5.055   9.107   2.311
 4544W        W 8608   7.010   5.252   9.859
 4545W        W 8609   9.839   5.946   0.468
 4546W        W 8610   6.975   3.263   9.775
 4547W        W 8611   4.781   3.822   2.489
 4548W        W 8612   8.644   7.164   9.821
 4549W        W 8613   5.516   7.594   3.219
 4550W        W 8614   3.555   7.152  10.903
 4551W        W 8615   3.029   0.660  11.059
 4552W        W 8616   8.054   8.970  11.917
 4553W        W 8617   9.820   5.102  11.915
 4554W        W 8618   8.916   1.828   9.591
 4555W        W 8619   6.138   3.782  11.787
 4556W        W 8620   7.370   0.325  10.355
 4557W        W 8621   1.120   2.218  10.915
 4558W        W 8622   3.316   3.315   1.321
 4559W        W 8623   8.947   7.830   2.821
 4560W        W 8624   4.745   9.417   0.597
 4561W        W 8625   7.055   1.763   1.397
 4562W        W 8626   2.232   8.643  10.122
 4563W        W 8627   4.344   9.719  10.870
 4564W        W 8628   3.138   5.560   1.850
 4565W        W 8629   5.705   3.076   9.312
 4566W        W 8630   7.184   8.092  10.319
 4567W        W 8631   6.723   5.336   1.439
 4568W        W 8632   9.820   0.770  11.700
 4569W        W 8633   3.930   9.798  11.693
 4570W        W 8634   3.685   6.961   1.509
 4571W        W 8635   1.471   0.195   1.499
 4572W        W 8636   6.061   5.795  11.329
 4573W        W 8637   3.847   4.058   2.214
 4574W        W 8638   4.069   4.250   2.663
 4575W        W 8639   3.244   4.771   3.222
 4576W        W 8640   9.108   6.864   2.653
 4577W        W 8641   2.646   8.435   3.491
 4578W        W 8642   3.851   0.866   1.706
 4579W        W 8643   4.847   6.685   9.879
 4580W        W 8644   2.559   0.227  11.449
 4581W        W 8645   3.345   3.134  10.915
 4582W        W 8646   9.593   9.363   3.379
 4583W        W 8647   6.964   2.921  11.369
 4584W        W 8648   1.266   1.566   1.720
 4585W        W 8649   5.081   6.936   1.226
 4586W        W 8650   7.055   7.199   2.312
 4587W        W 8651   8.000   6.949   2.357
 4588W        W 8652   5.493   3.789   2.684
 4589W        W 8653   8.730   9.829   3.473
 4590W        W 8654   3.654   4.716   1.502
 4591W        W 8655   5.969   8.340  11.947
 4592W        W 8656   1.228   8.084   2.535
 4593W        W 8657   7.883   0.368   2.822
 4594W        W 8658   1.895   8.815  11.011
 4595W        W 8659   1.889   9.486  10.045
 4596W        W 8660   4.703   2.868   2.800
 4597W        W 8661   9.913   1.424   1.542
 4598W        W 8662   6.175   0.404   2.385
 4599W        W 8663   6.572   7.061   1.294
 4600W        W 8664   3.823   4.086   0.153
 4601W        W 8665   3.680   0.725   3.333
 4602W        W 8666   7.834   5.296   9.876
 4603W        W 8667   7.092   8.519  10.007
 4604W        W 8668   4.719   9.043  10.214
 4605W        W 8669   0.834   0.937   1.886
 4606W        W 8670   4.255   7.483   0.470
 4607W        W 8671   2.751   1.043   0.662
 4608W        W 8672   2.783   0.409   2.997
 4609W        W 8673   7.660   3.302   0.722
 4610W        W 8674   4.189   5.333  10.054
 4611W        W 8675   0.540   2.785   2.840
 4612W        W 8676   4.237   4.388   9.037
 4613W        W 8677   7.371   3.866   0.101
 4614W        W 8678   1.929   6.457  10.334
 4615W        W 8679   3.701   4.580  11.954
 4616W        W 8680   8.479   9.041   2.819
 4617W        W 8681   6.422   8.103  10.823
 4618W        W 8682  10.428   6.465  11.327
 4619W        W 8683   6.012   5.555   9.026
 4620W        W 8684   0.722   5.903   2.778
 4621W        W 8685   0.068   6.592   1.245
 4622W        W 8686   8.661  10.465  10.872
 4623W        W 8687   0.032   2.680  10.040
 4624W        W 8688   9.837   5.168  11.048
 4625W        W 8689   5.063   2.816  11.417
 4626W        W 8690   0.602   9.003  11.336
 4627W        W 8691   2.559   2.313   8.527
 4628W        W 8692   8.728   1.063   9.384
 4629W        W 8693   3.492   4.164  11.771
 4630W        W 8694   8.801   8.855  10.630
 4631W        W 8695   8.502   5.067   2.218
 4632W        W 8696   1.125   2.931   0.931
 4633W        W 8697   9.379   6.490   9.238
 4634W        W 8698   7.120   8.351   0.811
 4635W        W 8699   9.861   2.321   1.657
 4636W        W 8700   5.630   4.737   2.833
 4637W        W 8701   2.933  10.431  10.159
 4638W        W 8702   4.512   0.569   2.499
 4639W        W 8703   6.768   6.179   9.938
 4640W        W 8704   5.910   8.582   3.402
 4641W        W 8705   3.068   8.046   2.611
 4642W        W 8706   5.071   8.949   8.899
 4643W        W 8707   6.542   3.602   9.994
 4644W        W 8708   2.542   3.305   9.848
 4645W        W 8709   0.970   6.159  10.851
 4646W        W 8710   8.888   7.471   3.186
 4647W        W 8711   6.902   6.646   3.622
 4648W        W 8712  10.344   4.716   9.824
 4649W        W 8713   5.472   0.443   1.852
 4650W        W 8714   5.494   3.615   1.911
 4651W        W 8715   8.511   7.741   1.421
 4652W        W 8716   6.488   4.556   4.125
 4653W        W 8717   1.800   9.808   1.182
 4654W        W 8718   8.631   4.141   9.481
 4655W        W 8719   0.368   2.879  11.950
 4656W        W 8720   4.966   8.574   2.958
 4657W        W 8721   8.268   5.248   3.461
 4658W        W 8722   8.045  10.335   8.818
 4659W        W 8723  10.437   2.484  11.938
 4660W        W 8724   4.306   8.592   2.836
 4661W        W 8725   9.571  10.075  10.900
 4662W        W 8726   3.888   4.640   9.372
 4663W        W 8727   1.159   7.428   9.079
 4664W        W 8728   4.782   2.093  11.767
 4665W        W 8729   8.765   0.136  11.367
 4666W        W 8730   3.929   5.603   8.472
 4667W        W 8731   3.744   2.280   1.515
 4668W        W 8732   2.236   2.367   9.014
 4669W        W 8733   7.387   4.595   0.819
 4670W        W 8734   5.152   0.840   9.437
 4671W        W 8735   7.027   8.473   1.783
 4672W        W 8736   9.348   3.205   3.298
 4673W        W 8737   0.828   1.008   8.896
 4674W        W 8738   1.160   7.967  11.059
 4675W        W 8739   0.012   0.520   2.187
 4676W        W 8740   5.653   7.038  10.948
 4677W        W 8741   6.563  10.111   3.447
 4678W        W 8742   8.513   1.485  10.854
 4679W        W 8743   7.537   4.804  10.739
 4680W        W 8744   4.682   4.697  10.461
 4681W        W 8745   3.770   0.896  11.682
 4682W        W 8746   9.605   3.843  10.315
 4683W        W 8747   8.669   3.205   9.351
 4684W        W 8748   3.326   5.526  11.993
 4685W        W 8749   5.664   4.812   9.863
 4686W        W 8750   0.258   0.823  10.173
 4687W        W 8751   3.205   5.873   8.530
 4688W        W 8752   1.822   7.908  10.417
 4689W        W 8753   6.580  10.226   1.875
 4690W        W 8754   8.094   9.864   1.897
 4691W        W 8755   4.630   7.878  11.181
 4692W        W 8756   2.611   0.894   1.155
 4693W        W 8757   6.213   7.411   0.000
 4694W        W 8758   9.321   2.472   9.545
 4695W        W 8759   1.806   6.787   2.784
 4696W        W 8760   1.658   6.849   9.797
 4697W        W 8761   0.220   2.025   9.520
 4698W        W 8762   8.532   6.051  11.831
 4699W        W 8763   3.167   2.856   8.839
 4700W        W 8764   9.936   0.932   1.733
 4701W        W 8765   5.473   8.995   0.802
 4702W        W 8766   6.115   3.259  11.656
 4703W        W 8767   9.992   1.723  11.916
 4704W        W 8768   2.998   4.107  11.822
 4705W        W 8769   1.774   1.286  10.234
 4706W        W 8770   3.574   0.066  11.245
 4707W        W 8771   0.399   6.913   8.961
 4708W        W 8772   7.153   5.779   1.356
 4709W        W 8773   5.492   2.847   9.715
 4710W        W 8774   8.501   2.182   1.689
 4711W        W 8775   8.455   9.755   0.243
 4712W        W 8776   6.441   9.350   0.363
 4713W        W 8777   6.959   4.669   4.341
 4714W        W 8778   8.549   3.807   9.850
 4715W        W 8779   3.241   2.335   1.438
 4716W        W 8780   1.374   5.210   1.391
 4717W        W 8781   0.202   0.693   3.179
 4718W        W 8782   7.896   4.997  11.056
 4719W        W 8783   0.707   4.973   9.777
 4720W        W 8784  10.279   5.671   9.627
 4721W        W 8785  10.102   3.618   8.512
 4722W        W 8786   9.120   4.742  10.645
 4723W        W 8787   7.614   0.422   0.361
 4724W        W 8788   5.259   4.044   2.294
 4725W        W 8789   9.781   9.840   3.341
 4726W        W 8790   1.955   8.298  11.024
 4727W        W 8791   9.253   4.049  11.800
 4728W        W 8792   1.400   5.560  10.046
 4729W        W 8793   2.161   8.467   9.654
 4730W        W 8794   8.450   6.430  11.288
 4731W        W 8795   8.338   8.349   3.025
 4732W        W 8796   7.702   9.972   1.307
 4733W        W 8797   7.077   3.579  10.175
 4734W        W 8798   9.392   6.008  10.892
 4735W        W 8799   7.784  10.237   1.748
 4736W        W 8800   4.744   5.786   9.573
 4737W        W 8801   6.172   6.243   2.293
 4738W        W 8802   7.532   2.184  10.248
 4739W        W 8803   6.616   0.221   0.702
 4740W        W 8804   6.157   0.938   8.428
 4741W        W 8805   7.380   0.884   0.403
 4742W        W 8806   9.593   3.874   9.802
 4743W        W 8807  10.379   9.211   2.079
 4744W        W 8808   6.123   8.046   1.908
 4745W        W 8809  10.210   1.555   0.332
 4746W        W 8810   7.107   5.083   0.192
 4747W        W 8811   8.575   3.041   2.323
 4748W        W 8812   2.809   5.189   9.046
 4749W        W 8813   8.245   6.203   9.933
 4750W        W 8814   4.220   6.722  10.564
 4751W        W 8815   3.635   3.665   8.925
 4752W        W 8816   0.768   3.565   8.670
 4753W        W 8817   4.312   3.306  10.459
 4754W        W 8818   3.689   6.729  10.059
 4755W        W 8819   0.775   0.739   3.182
 4756W        W 8820   2.789   8.351  10.859
 4757W        W 8821   4.666   4.922   9.344
 4758W        W 8822   5.520   5.864  10.765
 4759W        W 8823   5.310   5.055   1.939
 4760W        W 8824   7.553   0.789   9.605
 4761W        W 8825   5.148   6.212  11.045
 4762W        W 8826   6.502   6.086   3.036
 4763W        W 8827   5.476   1.330   9.472
 4764W        W 8828  10.431   3.513   0.461
 4765W        W 8829   2.483   5.246  11.502
 4766W        W 8830  10.176   3.969   3.667
 4767W        W 8831   9.417   6.484   2.395
 4768W        W 8832   2.647   1.187   9.505
 4769W        W 8833  10.408   9.124  10.894
 4770W        W 8834   0.869   3.109   0.068
 4771W        W 8835   4.682   6.405   3.706
 4772W        W 8836   2.447   5.154   0.002
 4773W        W 8837   7.766   0.651  10.085
 4774W        W 8838   0.843   0.303   3.631
 4775W        W 8839   3.129  10.426   1.418
 4776W        W 8840   8.382   7.285   2.420
 4777W        W 8841   8.495   7.579   2.796
 4778W        W 8842   0.853   7.653   0.356
 4779W        W 8843   0.941   9.515   0.920
 4780W        W 8844   0.936   9.865  11.263
 4781W        W 8845   8.732   9.778  11.792
 4782W        W 8846   1.041   6.306   2.801
 4783W        W 8847  10.444   9.964   0.911
 4784W        W 8848   4.579   2.987  11.428
 4785W        W 8849   1.845   0.868   2.889
 4786W        W 8850   1.703   2.558   2.362
 4787W        W 8851   5.999   0.527   0.137
 4788W        W 8852   8.081   4.864   1.146
 4789W        W 8853   2.665   2.407   2.394
 4790W        W 8854   0.283   3.646  10.510
 4791W        W 8855   3.629   6.223  10.052
 4792W        W 8856   6.570   5.237   0.884
 4793W        W 8857   6.586   5.912   9.553
 4794W        W 8858   6.704   8.686   0.843
 4795W        W 8859   2.346   0.744   2.860
 4796W        W 8860   6.763   9.118   0.034
 4797W        W 8861   1.735   3.157   8.918
 4798W        W 8862   4.994   7.329   9.957
 4799W        W 8863   1.920  10.010   0.274
 4800W        W 8864   8.983   1.544   8.378
 4801W        W 8865   6.555   0.691   2.205
 4802W        W 8866   9.459   6.617   3.289
 4803W        W 8867   2.280   3.410   8.848
 4804W        W 8868   1.773   7.448   0.171
 4805W        W 8869   1.313   6.121  10.449
 4806W        W 8870   3.841   4.641   8.822
 4807W        W 8871   3.739   8.582   9.070
 4808W        W 8872   4.068   2.388   8.957
 4809W        W 8873   1.194   7.980   9.682
 4810W        W 8874   4.317   4.851   8.115
 4811W        W 8875   3.936   2.743  10.870
 4812W        W 8876   4.025   0.006   1.821
 4813W        W 8877   6.575   9.977   1.275
 4814W        W 8878   6.981   6.167   2.190
 4815W        W 8879   4.296  10.056   9.468
 4816W        W 8880   3.656   0.818   0.688
 4817W        W 8881  10.407   3.570   0.976
 4818W        W 8882   1.234   1.080  11.558
 4819W        W 8883   9.581   7.875   0.795
 4820W        W 8884   5.552   3.447   8.962
 4821W        W 8885   7.005   2.426  11.556
 4822W        W 8886   0.989   4.203  11.323
 4823W        W 8887   9.457   0.024  10.710
 4824W        W 8888   1.240  10.221   9.898
 4825W        W 8889   4.336   0.497  11.339
 4826W        W 8890   2.711   9.982   9.935
 4827W        W 8891   4.151   2.946   3.155
 4828W        W 8892  10.456   9.434  10.515
 4829W        W 8893   3.281   8.425   1.574
 4830W        W 8894   3.381   3.215   2.620
 4831W        W 8895   3.243   5.122  10.248
 4832W        W 8896   5.233   0.013   2.289
 4833W        W 8897   9.497   1.882   1.478
 4834W        W 8898   4.139   8.940   3.323
 4835W        W 8899   2.339   5.284   8.795
 4836W        W 8900   7.927   8.463   0.123
 4837W        W 8901   0.484   4.335   9.319
 4838W        W 8902   4.608   6.954   3.960
 4839W        W 8903   9.870   4.671   0.760
 4840W        W 8904   8.140   9.060   1.790
 4841W        W 8905   0.676   9.878  10.826
 4842W        W 8906   5.187   0.421  11.666
 4843W        W 8907   4.947   7.052   9.526
 4844W        W 8908   9.750   4.158  11.798
 4845W        W 8909   1.328   5.841   8.496
 4846W        W 8910   5.731   9.889  10.343
 4847W        W 8911   2.357   4.585   2.284
 4848W        W 8912   4.138   6.921  10.067
 4849W        W 8913   6.935   4.419   1.045
 4850W        W 8914   5.737  10.074   0.028
 4851W        W 8915   9.399   2.956   8.642
 4852W        W 8916   8.117   4.336  11.313
 4853W        W 8917   6.623   9.918  10.384
 4854W        W 8918   5.491   3.595   3.978
 4855W        W 8919   2.952   6.430  11.876
 4856W        W 8920   6.787   7.212   3.547
 4857W        W 8921   2.346  10.456   2.293
 4858W        W 8922   9.734   2.174  10.250
 4859W        W 8923   6.976   4.607   0.543
 4860W        W 8924   3.685   9.503   2.166
 4861W        W 8925   0.264   4.194   3.020
 4862W        W 8926   3.096   0.463   8.912
 4863W        W 8927   0.701   6.668   1.894
 4864W        W 8928   6.642   2.587  11.905
 4865W        W 8929   6.358   9.191   3.681
 4866W        W 8930   4.712   1.834  10.064
 4867W        W 8931   0.671   3.682   2.494
 4868W        W 8932   4.469   0.345   8.921
 4869W        W 8933   0.882   6.353   0.872
 4870W        W 8934   0.336   2.342  11.007
 4871W        W 8935  10.365   0.849   0.981
 4872W        W 8936   3.610   3.665  11.931
 4873W        W 8937   7.563   8.776  11.947
 4874W        W 8938   8.524   1.363  10.069
 4875W        W 8939   7.110   7.626  10.659
 4876W        W 8940   0.339  10.032   1.223
 4877W        W 8941   5.135   6.908   0.281
 4878W        W 8942   4.920   0.041   1.402
 4879W        W 8943   4.331   7.012   1.827
 4880W        W 8944   6.465   0.277   9.859
 4881W        W 8945   0.773  10.387   0.357
 4882W        W 8946   8.393   3.144  10.332
 4883W        W 8947   2.989   5.308   0.893
 4884W        W 8948   5.957   3.217   2.694
 4885W        W 8949   2.436   6.487   9.447
 4886W        W 8950   4.978   3.220   3.485
 4887W        W 8951   6.939   0.784  10.389
 4888W        W 8952   6.354   4.595   2.084
 4889W        W 8953   1.900   8.425  10.520
 4890W        W 8954   2.636   0.722  11.380
 4891W        W 8955   7.934   1.582   8.428
 4892W        W 8956   9.478   6.733   1.385
 4893W        W 8957   0.982   0.246   1.378
 4894W        W 8958   7.198   7.692   2.245
 4895W        W 8959   5.139   7.585  10.387
 4896W        W 8960   9.416   9.531   1.529
 4897W        W 8961   0.004   8.491   1.296
 4898W        W 8962   7.371   6.686   2.903
 4899W        W 8963   8.663   2.227   8.830
 4900W        W 8964   8.193   9.979  11.882
 4901W        W 8965   2.097   2.567   8.568
 4902W        W 8966   6.634   4.925   1.776
 4903W        W 8967   0.175   8.486   0.812
 4904W        W 8968   9.283   2.751   2.710
 4905W        W 8969   4.417   6.182  11.441
 4906W        W 8970   3.123  10.315   0.478
 4907W        W 8971   8.945   1.185  10.790
 4908W        W 8972   2.781   1.253   8.607
 4909W        W 8973   8.854   2.620  10.444
 4910W        W 8974   7.793   4.991   9.187
 4911W        W 8975   0.856   4.456   9.641
 4912W        W 8976   6.412   2.851  10.431
 4913W        W 8977   0.238   8.980   0.657
 4914W        W 8978   6.449   1.157   2.412
 4915W        W 8979   5.941   3.636   4.228
 4916W        W 8980   6.490   7.355   2.623
 4917W        W 8981   7.591   3.792   2.940
 4918W        W 8982   9.648   3.232   1.789
 4919W        W 8983   9.377   1.812  11.255
 4920W        W 8984   9.446   7.775   0.295
 4921W        W 8985   1.467   8.787   0.131
 4922W        W 8986   7.030   5.478   9.190
 4923W        W 8987   0.037   4.157  10.511
 4924W        W 8988   7.697   8.085  10.381
 4925W        W 8989   0.718   7.074   3.291
 4926W        W 8990   0.624   9.839   2.140
 4927W        W 8991   2.188   1.310  11.015
 4928W        W 8992   3.296   6.014  11.873
 4929W        W 8993   0.033   3.317  11.101
 4930W        W 8994   8.550   3.312   1.189
 4931W        W 8995   4.485   6.476   1.722
 4932W        W 8996   5.983   2.610  10.437
 4933W        W 8997   1.690   7.990   2.788
 4934W        W 8998   6.959   9.526   9.986
 4935W        W 8999   7.203   6.572  11.219
 4936W        W 9000   2.491   7.565   2.729
 4937W        W 9001   7.287   1.679   0.953
 4938W        W 9002   6.257   4.487   3.388
 4939W        W 9003   6.030   0.425  10.108
 4940W        W 9004   0.150   4.724   1.967
 4941W        W 9005   0.523   4.066   3.446
 4942W        W 9006   9.953   3.518   0.260
 4943W        W 9007   7.974   7.203   1.891
 4944W        W 9008   4.711   4.050   3.768
 4945W        W 9009   9.994   9.047   2.385
 4946W        W 9010   8.553   4.928   8.419
 4947W        W 9011   7.469   4.123  10.433
 4948W        W 9012   2.238   1.142  11.865
 4949W        W 9013   0.778   3.696   2.007
 4950W        W 9014   9.090   1.668   1.205
 4951W        W 9015   4.431   4.205  11.888
 4952W        W 9016   5.574   1.394   1.546
 4953W        W 9017   7.476   0.748   2.621
 4954W        W 9018   6.635   4.721   3.655
 4955W        W 9019   1.005   8.993   1.667
 4956W        W 9020   1.985   6.261   9.474
 4957W        W 9021   3.714   2.674   3.253
 4958W        W 9022   2.352   4.269  10.033
 4959W        W 9023   7.632   7.965   3.212
 4960W        W 9024   8.871   8.985   3.159
 4961W        W 9025   0.178   4.763   0.294
 4962W        W 9026   2.771   4.829  11.645
 4963W        W 9027   6.234   8.359   9.790
 4964W        W 9028   1.032   3.545   2.860
 4965W        W 9029   6.843   8.977   2.210
 4966W        W 9030   2.661   8.513   1.653
 4967W        W 9031   6.945   3.824  11.312
 4968W        W 9032  10.401   8.856   3.336
 4969W        W 9033   1.977   2.551  11.845
 4970W        W 9034   5.604   0.875   9.194
 4971W        W 9035   7.505   8.729   2.782
 4972W        W 9036   0.825   4.315   3.136
 4973W        W 9037   5.426   3.302   9.920
 4974W        W 9038   3.080   4.075   2.887
 4975W        W 9039   7.836   4.526  11.694
 4976W        W 9040   1.397   3.005   2.143
 4977W        W 9041   7.601   9.793   1.982
 4978W        W 9042   0.792   3.165   0.575
 4979W        W 9043   3.598   6.443   2.714
 4980W        W 9044   2.762   9.079   0.694
 4981W        W 9045   8.949   6.441   3.374
 4982W        W 9046   5.477   0.613  10.698
 4983W        W 9047   0.853   9.850   2.596
 4984W        W 9048   7.556  10.056   8.662
 4985W        W 9049   4.209   7.765  11.627
 4986W        W 9050   1.989   1.009   2.393
 4987W        W 9051   2.164  10.082   1.432
 4988W        W 9052   3.649   1.961   2.599
 4989W        W 9053   7.437   4.279  10.914
 4990W        W 9054   7.164   1.789   8.950
 4991W        W 9055   8.592   6.832   1.173
 4992W        W 9056   7.932   2.695   2.223
 4993W        W 9057   9.449   5.574   9.773
 4994W        W 9058   4.633   7.869   1.914
 4995W        W 9059   4.823   0.335  11.303
 4996W        W 9060   6.406   0.849  10.475
 4997W        W 9061   1.627   2.817  10.443
 4998W        W 9062   0.702   1.667   3.322
 4999W        W 9063   4.541   7.131   9.823
 5000W        W 9064   2.024   3.103   8.500
 5001W        W 9065   9.804   5.924  10.581
 5002W        W 9066   4.855   7.565   9.517
 5003W        W 9067   3.427   6.568   9.296
 5004W        W 9068   0.483   2.552   0.309
 5005W        W 9069   1.880   4.214   8.793
 5006W        W 9070   2.243   1.593   8.875
 5007W        W 9071   2.704   3.799   9.785
 5008W        W 9072   4.827   1.172  11.372
 5009W        W 9073   1.650   5.186   0.701
 5010W        W 9074   9.923   6.115   9.128
 5011W        W 9075   9.025   4.210   2.025
 5012W        W 9076   9.198  10.057   9.399
 5013W        W 9077   6.516   9.462  10.224
 5014W        W 9078   8.277   4.493   8.552
 5015W        W 9079   8.820   2.079  11.628
 5016W        W 9080   8.133   9.227  10.117
 5017W        W 9081   9.969   2.121   3.243
 5018W        W 9082  10.212   5.666   9.092
 5019W        W 9083   7.104   6.780  10.346
 5020W        W 9084   9.961  10.281  10.515
 5021W        W 9085   2.253   0.735   8.537
 5022W        W 9086   4.746   6.003   0.524
 5023W        W 9087   8.111   6.727  10.541
 5024W        W 9088   1.176   1.936   3.195
 5025W        W 9089   8.475   5.464   1.667
 5026W        W 9090   5.536   3.353   2.948
 5027W        W 9091  10.340   7.433   2.930
 5028W        W 9092   8.862   4.159   2.902
 5029W        W 9093   0.183   5.650   9.281
 5030W        W 9094   7.615   4.607  10.285
 5031W        W 9095   6.241   0.199   1.517
 5032W        W 9096   4.303  10.033   1.765
 5033W        W 9097   7.956   9.582   0.126
 5034W        W 9098   6.467   4.551   9.922
 5035W        W 9099   9.285   8.357   9.699
 5036W        W 9100   4.164   2.232  10.875
 5037W        W 9101   0.315   4.965   1.189
 5038W        W 9102   3.870   7.211   1.923
 5039W        W 9103   1.602  10.359   1.849
 5040W        W 9104   4.669   7.488   2.784
 5041W        W 9105   8.875   9.828   8.865
 5042W        W 9106   2.085   7.198   2.944
 5043W        W 9107   1.810   1.260   3.245
 5044W        W 9108   8.064   2.138   0.415
 5045W        W 9109   7.023   6.269  10.350
 5046W        W 9110   0.716   4.343  11.746
 5047W        W 9111   5.939   7.843   0.002
 5048W        W 9112  10.349   0.933  10.509
 5049W        W 9113   9.963   6.026   1.375
 5050W        W 9114   7.527   3.608  10.471
 5051W        W 9115   1.447   0.063   0.987
 5052W        W 9116   5.943   6.601   0.266
 5053W        W 9117   2.673   7.460   0.180
 5054W        W 9118   0.211   4.071  10.048
 5055W        W 9119   5.939  10.037  11.560
 5056W        W 9120   9.326   7.882   9.454
 5057W        W 9121   4.433   0.352   8.377
 5058W        W 9122   7.937   7.683  11.337
 5059W        W 9123   6.138   5.927  11.817
 5060W        W 9124   1.844   8.965  11.708
 5061W        W 9125   6.438   6.938  11.514
 5062W        W 9126   4.741   3.385  11.697
 5063W        W 9127   8.491   2.195   2.276
 5064W        W 9128   6.900   5.143  11.242
 5065W        W 9129   5.570   7.879  11.335
 5066W        W 9130   9.369   3.725   1.903
 5067W        W 9131   2.943   0.634   2.066
 5068W        W 9132   5.293   0.455  11.157
 5069W        W 9133   2.869   8.575   0.722
 5070W        W 9134   4.069   1.546  10.587
 5071W        W 9135   1.839   4.917  11.595
 5072W        W 9136   2.806   0.147   2.249
 5073W        W 9137   4.147   0.792   0.892
 5074W        W 9138   6.137   6.750   2.363
 5075W        W 9139   3.697   6.128   0.233
 5076W        W 9140   8.799   5.974  10.855
 5077W        W 9141   7.884   9.927   3.310
 5078W        W 9142   4.146   7.486   3.534
 5079W        W 9143   2.578   7.139   3.053
 5080W        W 9144   2.760   1.247   1.484
 5081W        W 9145   1.970   7.516   0.826
 5082W        W 9146   1.221   5.764   2.826
 5083W        W 9147   8.499   7.443  11.100
 5084W        W 9148   3.925   6.791   2.899
 5085W        W 9149   6.996   7.630   0.073
 5086W        W 9150   7.964   0.077   2.095
 5087W        W 9151   0.298   2.324   2.439
 5088W        W 9152   7.978   0.868   2.777
 5089W        W 9153   5.777   3.363   8.477
 5090W        W 9154   5.280   4.618   3.179
 5091W        W 9155   6.525   1.980   2.780
 5092W        W 9156   6.654   0.673  11.777
 5093W        W 9157   1.915   9.915  11.318
 5094W        W 9158   4.709   0.905   1.673
 5095W        W 9159   9.869   8.360   1.907
 5096W        W 9160   7.557   5.704   2.599
 5097W        W 9161   0.324  10.399   3.450
 5098W        W 9162   8.150   1.814   2.208
 5099W        W 9163   9.004   1.166   1.248
 5100W        W 9164   3.865   6.452   4.069
 5101W        W 9165   6.866   3.200   8.745
 5102W        W 9166   8.715   0.353   2.523
 5103W        W 9167   1.138   6.891   1.809
 5104W        W 9168   7.940   0.943  10.465
 5105W        W 9169   9.060   9.487  11.461
 5106W        W 9170   5.060   1.252   0.901
 5107W        W 9171   9.932   0.451  11.284
 5108W        W 9172   5.950   1.059  10.492
 5109W        W 9173   9.960   6.535   1.414
 5110W        W 9174   5.580  10.201   1.434
 5111W        W 9175   7.449   2.901   0.453
 5112W        W 9176   8.629   1.677   8.747
 5113W        W 9177   6.105   9.920   2.182
 5114W        W 9178   2.281   4.661   0.258
 5115W        W 9179   1.693   8.775   0.603
 5116W        W 9180   0.319   1.178   9.050
 5117W        W 9181  10.290   5.283  11.879
 5118W        W 9182   4.044   6.660  11.932
 5119W        W 9183   8.238   0.993   9.494
 5120W        W 9184   4.330   1.770  10.950
 5121W        W 9185   5.729   5.283   1.126
 5122W        W 9186   1.677   3.162  10.073
 5123W        W 9187  10.161   7.880   3.084
 5124W        W 9188   5.559   8.882  11.213
 5125W        W 9189   4.727   0.271  10.122
 5126W        W 9190   3.647   2.445   9.577
 5127W        W 9191   3.634   2.230  11.575
 5128W        W 9192   0.509   6.342  10.774
 5129W        W 9193   9.003   0.369   1.705
 5130W        W 9194   7.129   6.683   0.218
 5131W        W 9195   7.541   9.490   1.277
 5132W        W 9196   1.643   2.535   9.561
 5133W        W 9197   1.397   6.090   8.935
 5134W        W 9198   2.476   4.148   0.365
 5135W        W 9199   0.887   8.992   2.190
 5136W        W 9200   2.290   0.556   1.419
 5137W        W 9201   6.423   9.345  11.256
 5138W        W 9202   1.546   8.590   3.654
 5139W        W 9203  10.164   6.989   1.945
 5140W        W 9204  10.369   9.312   9.507
 5141W        W 9205   0.737   9.423  11.056
 5142W        W 9206   2.498   5.117   0.929
 5143W        W 9207   0.800   2.395  11.260
 5144W        W 9208   4.181   1.226   1.181
 5145W        W 9209   6.012   5.725   0.394
 5146W        W 9210   2.247   4.237  11.857
 5147W        W 9211   9.073   8.810   0.067
 5148W        W 9212   9.466  10.025   0.223
 5149W        W 9213   4.783   6.548  11.220
 5150W        W 9214   9.404   2.215   1.893
 5151W        W 9215   1.726   7.149   9.375
 5152W        W 9216   3.884   5.488  10.805
 5153W        W 9217   4.625   3.760   0.043
 5154W        W 9218   4.363   4.283  10.420
 5155W        W 9219   2.841   0.949   9.053
 5156W        W 9220   5.309   6.241  11.883
 5157W        W 9221   4.194   0.296   1.232
 5158W        W 9222   3.180   2.375   0.558
 5159W        W 9223   8.922   1.648  10.586
 5160W        W 9224  10.356   3.716  10.226
 5161W        W 9225   6.291   9.020  10.374
 5162W        W 9226   9.558   3.246   9.069
 5163W        W 9227   1.731   9.053  10.281
 5164W        W 9228   6.104   3.636  11.293
 5165W        W 9229   0.865   1.195   3.383
 5166W        W 9230   3.533  10.492   1.725
 5167W        W 9231   4.977   9.434   8.750
 5168W        W 9232   0.353   9.102  11.774
 5169W        W 9233   2.230   8.698   8.816
 5170W        W 9234   0.356   1.305   1.246
 5171W        W 9235   6.454   3.817   1.504
 5172W        W 9236   2.813   5.929   2.590
 5173W        W 9237   0.224   5.504   2.792
 5174W        W 9238   0.904   4.441   2.646
 5175W        W 9239   3.527   2.161   9.993
 5176W        W 9240   4.632   6.061   9.114
 5177W        W 9241   7.016   6.383   0.903
 5178W        W 9242   8.115   8.717   2.151
 5179W        W 9243   5.177   7.221  10.903
 5180W        W 9244   8.957   1.582  11.098
 5181W        W 9245   9.777   4.383   8.878
 5182W        W 9246   0.389   1.424   2.204
 5183W        W 9247   1.283   7.646   2.798
 5184W        W 9248   0.473   5.992   0.179
 5185W        W 9249   6.244   6.515  10.596
 5186W        W 9250   8.279   3.654   1.829
 5187W        W 9251   9.013   6.081   9.453
 5188W        W 9252   0.639   5.373  10.518
 5189W        W 9253   2.209   0.215   8.542
 5190W        W 9254   1.656   8.685   2.348
 5191W        W 9255   5.635   8.509   0.712
 5192W        W 9256   5.212   6.020   0.318
 5193W        W 9257   4.543   1.925   3.199
 5194W        W 9258   4.091   3.763   9.868
 5195W        W 9259   2.914   6.050  11.521
 5196W        W 9260   0.876   1.390  11.739
 5197W        W 9261   6.281   1.679   0.962
 5198W        W 9262   8.219   0.419   2.450
 5199W        W 9263   9.476   7.118   3.086
 5200W        W 9264   3.151   8.059  10.575
 5201W        W 9265  10.157   2.150   9.922
 5202W        W 9266   7.714   8.988   0.383
 5203W        W 9267   5.836   6.526   1.417
 5204W        W 9268   4.571  10.050   1.306
 5205W        W 9269   7.127   8.571  11.038
 5206W        W 9270   1.457   6.110  11.800
 5207W        W 9271   8.679   5.575  11.196
 5208W        W 9272   2.179   7.852   9.206
 5209W        W 9273   4.226   4.028   3.549
 5210W        W 9274   1.686   9.968   3.172
 5211W        W 9275   6.946   4.116   8.410
 5212W        W 9276   8.039   9.540   9.252
 5213W        W 9277   1.942   5.030   0.115
 5214W        W 9278   4.280   8.358   2.247
 5215W        W 9279   0.433   4.161   2.538
 5216W        W 9280   5.385   6.363   1.704
 5217W        W 9281   7.341   9.017   1.316
 5218W        W 9282   7.716   3.751   1.028
 5219W        W 9283   1.365   4.752   2.745
 5220W        W 9284   4.232   6.200   9.420
 5221W        W 9285   6.092   3.032   1.205
 5222W        W 9286   6.169  10.006  10.585
 5223W        W 9287   7.659   1.846   9.343
 5224W        W 9288   8.079   7.577  11.865
 5225W        W 9289  10.244   1.867   9.499
 5226W        W 9290   5.070   5.047   2.379
 5227W        W 9291   5.795   8.175  10.505
 5228W        W 9292   9.197   5.537   8.789
 5229W        W 9293   1.710  10.280   1.321
 5230W        W 9294   2.677   2.277   9.265
 5231W        W 9295   7.730   6.031   0.497
 5232W        W 9296   4.355   8.579   1.294
 5233W        W 9297   6.881   3.951   1.229
 5234W        W 9298   9.383   5.578   3.194
 5235W        W 9299   5.093   8.608   0.109
 5236W        W 9300   4.823   2.288  10.252
 5237W        W 9301   9.373   1.961   2.903
 5238W        W 9302   2.415   2.782   2.147
 5239W        W 9303   8.735   1.199   2.506
 5240W        W 9304   1.514   9.484   3.058
 5241W        W 9305   7.215   0.570  10.851
 5242W        W 9306   0.812   4.194   2.197
 5243W        W 9307  10.246   4.477   2.125
 5244W        W 9308   5.430   6.129   3.371
 5245W        W 9309   8.633   0.487   0.661
 5246W        W 9310   4.507   4.047   9.328
 5247W        W 9311   6.593   7.430   0.349
 5248W        W 9312   1.487  10.204   0.074
 5249W        W 9313   0.832   2.109   8.501
 5250W        W 9314   2.932   8.112   1.865
 5251W        W 9315   8.477   6.475  10.314
 5252W        W 9316   2.110   4.209   1.861
 5253W        W 9317   4.841  10.116   8.420
 5254W        W 9318   2.041   1.837   1.092
 5255W        W 9319   0.367   3.421   9.465
 5256W        W 9320   9.459   3.298   0.892
 5257W        W 9321   4.963   7.799   1.105
 5258W        W 9322   6.514   3.767   3.481
 5259W        W 9323   9.915   3.055   9.844
 5260W        W 9324   0.477   5.065   1.682
 5261W        W 9325   2.163   2.014   8.605
 5262W        W 9326   9.114   8.681   2.310
 5263W        W 9327   9.470   0.002   9.460
 5264W        W 9328   6.441   8.212  11.845
 5265W        W 9329  10.436   9.752   9.831
 5266W        W 9330   9.675   2.159   9.743
 5267W        W 9331   8.925   0.668   1.276
 5268W        W 9332   9.419   7.409   9.606
 5269W        W 9333   4.865   1.349   0.447
 5270W        W 9334   2.011   6.160   2.731
 5271W        W 9335   6.107   2.230   2.623
 5272W        W 9336   9.757   9.496   0.414
 5273W        W 9337   9.899   1.188   3.017
 5274W        W 9338   3.394   2.816   1.412
 5275W        W 9339   1.774   5.154   2.196
 5276W        W 9340   4.621   3.633   3.484
 5277W        W 9341   4.615   0.944   0.669
 5278W        W 9342   7.611   8.846   3.259
 5279W        W 9343   1.681   5.728  11.517
 5280W        W 9344   4.836   4.382   9.589
 5281W        W 9345   5.542   7.427   0.753
 5282W        W 9346   7.809   8.014  10.935
 5283W        W 9347   3.194   5.541   8.933
 5284W        W 9348   3.923   6.154  11.354
 5285W        W 9349   9.276  10.440   1.771
 5286W        W 9350   6.996   0.765   2.443
 5287W        W 9351   5.234   6.987   2.687
 5288W        W 9352   0.521   6.828   1.393
 5289W        W 9353   2.935   3.214   3.507
 5290W        W 9354   0.854   2.378   2.683
 5291W        W 9355  10.007   4.111  11.353
 5292W        W 9356   0.101   6.048   8.395
 5293W        W 9357   5.092   7.089   3.533
 5294W        W 9358   9.717   2.897   2.950
 5295W        W 9359   7.400  10.007  11.480
 5296W        W 9360  10.424   3.095   0.752
 5297W        W 9361   9.420   9.502   1.002
 5298W        W 9362   4.625   8.120   0.904
 5299W        W 9363   8.861   9.952   0.499
 5300W        W 9364   4.294   0.417   9.897
 5301W        W 9365   8.472   5.396   9.530
 5302W        W 9366  10.423   2.148   9.096
 5303W        W 9367   2.578   9.669   2.266
 5304W        W 9368   5.278   7.403   1.196
 5305W        W 9369   1.739   6.169   0.763
 5306W        W 9370   9.510   0.500  10.980
 5307W        W 9371  10.032   8.857   1.880
 5308W        W 9372   9.716   0.811   9.449
 5309W        W 9373   9.336   5.889   2.785
 5310W        W 9374   5.207   8.303   1.931
 5311W        W 9375   2.149   0.413   9.351
 5312W        W 9376   4.021  10.225   1.377
 5313W        W 9377   0.322   0.296  10.258
 5314W        W 9378   4.060   4.984   1.307
 5315W        W 9379   3.187   0.871   0.443
 5316W        W 9380  10.046   2.401   8.817
 5317W        W 9381  10.356   5.231   3.340
 5318W        W 9382   9.071   3.219   0.404
 5319W        W 9383   6.973  10.446  10.960
 5320W        W 9384   4.057   4.455   1.342
 5321W        W 9385   6.036   9.014  11.350
 5322W        W 9386   1.977   4.239  10.399
 5323W        W 9387   7.581   1.453  11.634
 5324W        W 9388   2.900   9.835   0.470
 5325W        W 9389   7.643   5.222   2.685
 5326W        W 9390   0.918   8.424   8.876
 5327W        W 9391  10.303   4.529  11.359
 5328W        W 9392   0.763   4.498   1.339
 5329W        W 9393   3.075   0.985   9.692
 5330W        W 9394   1.175   8.886   8.949
 5331W        W 9395   7.494   3.812   2.416
 5332W        W 9396   5.230   5.851  11.368
 5333W        W 9397   4.344   7.088   2.845
 5334W        W 9398   7.494   3.740   3.432
 5335W        W 9399   0.243   3.099   3.171
 5336W        W 9400   7.491   7.001   1.969
 5337W        W 9401   2.705   6.505   3.204
 5338W        W 9402   5.130   2.589   2.857
 5339W        W 9403   2.369   6.868   0.615
 5340W        W 9404   9.020   6.945   3.194
 5341W        W 9405   8.356   0.891   0.499
 5342W        W 9406   5.370   6.517   1.206
 5343W        W 9407   2.261   7.538   2.225
 5344W        W 9408   5.041   9.508  11.233
 5345W        W 9409   9.808   0.734   3.198
 5346W        W 9410   9.362   2.878   1.182
 5347W        W 9411   0.805   7.427   9.970
 5348W        W 9412   5.183   4.725   8.737
 5349W        W 9413   6.441   1.376   9.002
 5350W        W 9414   1.511   2.781   1.253
 5351W        W 9415   9.404   8.538  10.329
 5352W        W 9416   0.639   6.441   0.009
 5353W        W 9417   1.359   8.446   9.170
 5354W        W 9418   7.579   7.066   1.174
 5355W        W 9419   4.243   6.757   4.253
 5356W        W 9420   0.485   0.354   1.439
 5357W        W 9421   8.165   8.004  10.556
 5358W        W 9422   4.143   6.151  11.901
 5359W        W 9423   7.959   5.879   9.055
 5360W        W 9424   9.950   7.870   1.777
 5361W        W 9425   5.593   8.947  10.679
 5362W        W 9426   7.828   1.385   2.003
 5363W        W 9427   0.106   0.200   2.959
 5364W        W 9428   1.260   3.665   1.533
 5365W        W 9429   8.399   6.996   0.724
 5366W        W 9430   1.262   7.066   9.514
 5367W        W 9431   4.116   5.354   8.902
 5368W        W 9432   6.124   3.538   2.241
 5369W        W 9433   9.829   2.734   1.972
 5370W        W 9434   6.541   6.177   0.845
 5371W        W 9435   9.403   4.728   9.280
 5372W        W 9436   1.561   1.309   0.550
 5373W        W 9437   9.472   5.637  11.279
 5374W        W 9438   0.767   2.988  10.536
 5375W        W 9439   2.436   5.574   3.220
 5376W        W 9440   0.654   9.405   2.397
 5377W        W 9441   2.424   0.376   9.787
 5378W        W 9442   9.973   1.874   1.276
 5379W        W 9443   2.248   7.293  11.902
 5380W        W 9444   6.943   3.784  11.838
 5381W        W 9445   4.589   8.321   3.214
 5382W        W 9446   5.607   9.838  10.870
 5383W        W 9447   8.346   6.581   8.997
 5384W        W 9448   8.830   9.872  10.247
 5385W        W 9449   4.536   9.067   1.154
 5386W        W 9450   3.195   9.187   1.021
 5387W        W 9451   3.711   8.078   9.017
 5388W        W 9452   5.977   3.576   3.553
 5389W        W 9453   8.365   0.064   0.873
 5390W        W 9454   2.011   9.415   0.347
 5391W        W 9455   4.735   1.500  11.007
 5392W        W 9456   2.344   9.181   2.260
 5393W        W 9457   6.603   4.821  10.907
 5394W        W 9458   0.304   7.475  11.020
 5395W        W 9459   9.250   1.892   0.492
 5396W        W 9460   4.176   0.465   1.760
 5397W        W 9461   2.317   4.366   8.558
 5398W        W 9462   4.114   3.556   2.295
 5399W        W 9463   7.416   6.461   8.497
 5400W        W 9464   2.924   0.375   9.842
 5401W        W 9465   4.763   7.070   8.950
 5402W        W 9466   0.793   3.117   9.491
 5403W        W 9467   0.037   1.165   0.341
 5404W        W 9468   7.497   5.679   9.146
 5405W        W 9469   1.284   1.903   0.870
 5406W        W 9470   5.152   8.965  10.454
 5407W        W 9471  10.402   0.054  10.921
 5408W        W 9472   3.152   7.711   2.237
 5409W        W 9473   2.848   6.142   9.336
 5410W        W 9474   7.084   6.956  10.863
 5411W        W 9475   0.354   5.023  10.761
 5412W        W 9476   3.767   1.271   0.870
 5413W        W 9477   9.088   0.261   0.818
 5414W        W 9478   7.945   3.358  10.200
 5415W        W 9479   8.125   2.736   9.050
 5416W        W 9480   9.882   9.779  10.618
 5417W        W 9481   4.295   8.796   8.344
 5418W        W 9482   6.282  10.294   9.826
 5419W        W 9483  10.337   4.752   9.300
 5420W        W 9484   3.198   6.257   0.294
 5421W        W 9485   5.024   3.839   1.890
 5422W        W 9486  10.215   5.753  11.725
 5423W        W 9487   3.327   5.264   2.250
 5424W        W 9488   1.231   6.567   9.679
 5425W        W 9489   1.696   7.849  10.905
 5426W        W 9490   7.262   7.195   9.996
 5427W        W 9491   5.759   1.778  10.751
 5428W        W 9492   3.039   3.257   9.978
 5429W        W 9493   7.308   6.090   9.950
 5430W        W 9494   6.421   1.206   0.850
 5431W        W 9495   7.549   0.221  11.869
 5432W        W 9496   1.961   9.385   2.807
 5433W        W 9497   8.534   6.899   3.360
 5434W        W 9498   0.317   6.804   3.066
 5435W        W 9499   6.187   0.144   9.431
 5436W        W 9500   1.915   7.573   9.547
 5437W        W 9501   7.157   4.538  10.512
 5438W        W 9502   5.235   2.652   2.360
 5439W        W 9503   5.719   3.900   9.103
 5440W        W 9504   4.310   9.987   8.930
 5441W        W 9505   3.395   7.429   1.847
 5442W        W 9506   5.671   0.289  11.449
 5443W        W 9507   1.249   7.086  10.047
 5444W        W 9508   7.467   8.274  11.912
 5445W        W 9509   2.915   1.033   2.430
 5446W        W 9510   0.071   7.538   0.201
 5447W        W 9511   5.023   7.575   3.455
 5448W        W 9512   1.252   3.721   9.561
 5449W        W 9513   4.681   4.721   2.446
 5450W        W 9514   4.214   9.365   0.873
 5451W        W 9515   3.183   1.467   9.588
 5452W        W 9516   3.217   7.069   3.576
 5453W        W 9517   1.164   5.384   1.883
 5454W        W 9518  10.026   7.046   9.578
 5455W        W 9519   9.857   7.784   8.449
 5456W        W 9520   7.513   8.161   9.908
 5457W        W 9521   9.955   6.475   3.307
 5458W        W 9522   6.532   0.240  11.438
 5459W        W 9523   1.975   4.767   8.969
 5460W        W 9524   5.649   0.905   1.693
 5461W        W 9525   2.430  10.485  10.545
 5462W        W 9526   0.154   9.794   2.348
 5463W        W 9527   2.615   4.275   2.807
 5464W        W 9528   6.102   8.807  11.837
 5465W        W 9529   4.698   6.035   1.528
 5466W        W 9530   7.534   4.291   2.828
 5467W        W 9531   5.272   3.597   0.948
 5468W        W 9532   4.592   5.920   3.775
 5469W        W 9533   9.952   9.513   3.742
 5470W        W 9534   3.428   1.827   1.369
 5471W        W 9535   4.423   5.685   1.270
 5472W        W 9536   7.700   9.976   9.581
 5473W        W 9537   6.058   9.497  10.479
 5474W        W 9538   8.336   7.023   8.660
 5475W        W 9539   8.526   8.065   2.673
 5476W        W 9540   2.870   7.579   1.819
 5477W        W 9541   1.926   1.305   3.741
 5478W        W 9542   3.605   9.185   0.280
 5479W        W 9543   1.424   7.101   1.018
 5480W        W 9544   1.684   0.208   9.367
 5481W        W 9545   6.739   6.571  10.773
 5482W        W 9546   5.621   9.824   9.380
 5483W        W 9547   0.343   0.965   9.522
 5484W        W 9548  10.455   6.168   0.986
 5485W        W 9549   5.074   6.147  10.569
 5486W        W 9550   0.106   9.182  11.341
 5487W        W 9551   7.080   7.139   1.341
 5488W        W 9552   4.970  10.410   8.817
 5489W        W 9553   3.742   6.194   9.180
 5490W        W 9554   3.333   0.464   1.174
 5491W        W 9555   4.809   2.913  10.990
 5492W        W 9556   2.743   3.227  11.257
 5493W        W 9557   6.494   9.950   2.972
 5494W        W 9558   4.252   9.543  11.379
 5495W        W 9559   0.723   9.137   0.646
 5496W        W 9560   9.009   2.089   8.447
 5497W        W 9561   9.955   6.648   9.909
 5498W        W 9562   5.162  10.014  11.104
 5499W        W 9563   7.033   2.655   2.788
 5500W        W 9564   3.797   2.939   9.664
 5501W        W 9565   3.220   2.363  11.281
 5502W        W 9566   6.585   3.742   8.882
 5503W        W 9567   1.031   7.897  11.914
 5504W        W 9568  10.331   3.156  10.123
 5505W        W 9569   3.028   2.803   2.278
 5506W        W 9570   0.472   5.645   2.361
 5507W        W 9571   7.753   1.550   1.068
 5508W        W 9572   1.142   9.730   9.737
 5509W        W 9573   2.163   6.125   9.945
 5510W        W 9574   9.291   6.508   8.741
 5511W        W 9575   0.122   5.953   3.425
 5512W        W 9576   8.071   6.455   0.458
 5513W        W 9577   7.545   1.922   1.337
 5514W        W 9578   9.815   3.366   3.079
 5515W        W 9579   5.434   2.962   8.878
 5516W        W 9580   6.089   6.604   1.863
 5517W        W 9581   6.179   0.844   3.049
 5518W        W 9582   7.585   1.586   9.764
 5519W        W 9583   0.432   6.477  11.264
 5520W        W 9584   6.295   6.151   0.344
 5521W        W 9585   3.819   3.146   2.350
 5522W        W 9586   2.839   0.456   1.320
 5523W        W 9587   3.735   9.517  11.303
 5524W        W 9588   0.668   3.649   3.675
 5525W        W 9589   8.007   6.676   1.821
 5526W        W 9590   9.231   2.823   9.140
 5527W        W 9591   1.294   0.987   9.517
 5528W        W 9592   1.383   1.482   9.534
 5529W        W 9593   1.840   3.795  11.265
 5530W        W 9594   9.071   5.286  11.418
 5531W        W 9595   4.231   8.020   0.155
 5532W        W 9596   5.083   4.100   2.807
 5533W        W 9597   3.732   3.299   9.291
 5534W        W 9598   6.078   3.261   0.186
 5535W        W 9599   3.534   8.015   2.401
 5536W        W 9600   3.324   0.687  10.630
 5537W        W 9601   0.121   7.077   0.900
 5538W        W 9602   4.502   7.595   0.047
 5539W        W 9603   1.888   0.805  10.427
 5540W        W 9604   7.431   5.350   4.045
 5541W        W 9605   1.788   6.661   0.602
 5542W        W 9606   3.944   5.525   1.141
 5543W        W 9607   8.634   8.826   2.239
 5544W        W 9608   5.058   4.898  11.481
 5545W        W 9609   9.078   5.755  11.592
 5546W        W 9610   5.272   6.413   9.960
 5547W        W 9611   5.730   6.407   0.884
 5548W        W 9612   2.416  10.419   3.475
 5549W        W 9613   2.473   0.888  10.929
 5550W        W 9614   1.044   5.680  10.452
 5551W        W 9615   7.133   2.263   1.998
 5552W        W 9616   3.990   0.309  10.937
 5553W        W 9617   7.445   6.265   2.421
 5554W        W 9618   2.274   1.925   9.282
 5555W        W 9619   5.923   7.618   3.538
 5556W        W 9620   4.406  10.336   0.509
 5557W        W 9621   4.139   6.598   8.628
 5558W        W 9622   5.746   2.528  11.825
 5559W        W 9623   6.979   7.149   9.538
 5560W        W 9624   7.419   2.243  10.734
 5561W        W 9625   6.445   5.683   0.131
 5562W        W 9626   3.357   9.657   8.497
 5563W        W 9627   2.172   5.915   0.872
 5564W        W 9628   5.989   2.819   0.432
 5565W        W 9629   6.513   2.430   8.567
 5566W        W 9630   0.815   2.813   2.393
 5567W        W 9631   2.070   8.459   0.725
 5568W        W 9632   4.213   6.107   0.432
 5569W        W 9633   5.734   1.275  10.926
 5570W        W 9634   6.402   9.124   0.914
 5571W        W 9635  10.462   6.384   3.186
 5572W        W 9636   5.161   1.819   8.815
 5573W        W 9637   5.903   0.955   0.445
 5574W        W 9638   2.072   9.976   3.471
 5575W        W 9639   4.677   9.430  10.569
 5576W        W 9640   7.053   8.585   1.269
 5577W        W 9641   1.690   8.531   9.527
 5578W        W 9642   8.082   7.873   2.944
 5579W        W 9643   6.106   0.491  11.129
 5580W        W 9644   1.176   0.426   0.179
 5581W        W 9645   1.513   4.258   0.247
 5582W        W 9646   9.329   4.549   3.570
 5583W        W 9647   3.142   3.614   9.574
 5584W        W 9648   8.891   8.806  11.550
 5585W        W 9649   9.793   7.449   0.717
 5586W        W 9650   3.285   1.570  10.866
 5587W        W 9651   7.405   1.633   0.457
 5588W        W 9652   5.916   8.022   2.362
 5589W        W 9653   6.990   2.758   9.745
 5590W        W 9654   2.660   2.857   0.976
 5591W        W 9655   3.041   9.792   3.181
 5592W        W 9656   9.557   7.197   2.571
 5593W        W 9657   8.036   6.149   3.694
 5594W        W 9658   4.708   0.337  11.952
 5595W        W 9659   0.273   5.434   1.371
 5596W        W 9660   5.990   7.982   1.414
 5597W        W 9661   6.555   3.640  11.029
 5598W        W 9662   7.146   1.362   3.155
 5599W        W 9663   9.963   7.086   2.885
 5600W        W 9664   9.817   0.975  11.220
 5601W        W 9665   5.231   3.177   9.402
 5602W        W 9666   9.303   6.042   8.978
 5603W        W 9667   1.312   9.948   1.893
 5604W        W 9668   6.972   8.109  11.832
 5605W        W 9669   3.130   6.664   0.552
 5606W        W 9670   7.283  10.403  10.044
 5607W        W 9671   7.525   2.378   1.136
 5608W        W 9672   6.596   2.102  10.013
 5609W        W 9673   9.461   1.051   0.935
 5610W        W 9674   2.240   9.135  10.097
 5611W        W 9675   8.085   1.412  11.853
 5612W        W 9676   5.637   3.407   2.355
 5613W        W 9677   3.796   5.955   9.624
 5614W        W 9678  10.450   1.951   0.049
 5615W        W 9679   4.166   1.312   2.225
 5616W        W 9680   4.683   9.289   1.975
 5617W        W 9681   7.838   5.606   0.207
 5618W        W 9682   5.551   8.917   2.504
 5619W        W 9683   0.793   5.181  10.983
 5620W        W 9684   8.991   4.579   0.776
 5621W        W 9685   5.251  10.003   9.088
 5622W        W 9686   0.226   6.940   0.399
 5623W        W 9687   8.021   4.529   9.059
 5624W        W 9688   0.256   2.819   2.396
 5625W        W 9689   7.468   3.137  10.240
 5626W        W 9690   1.419   9.262   3.857
 5627W        W 9691   2.268  10.048  10.915
 5628W        W 9692   8.878   8.836   1.354
 5629W        W 9693   6.576   7.845   2.847
 5630W        W 9694   0.931   8.629   0.130
 5631W        W 9695   4.184   6.111   1.475
 5632W        W 9696   6.559   8.665   0.006
 5633W        W 9697   2.427   1.719   0.184
 5634W        W 9698   0.174   9.924   8.865
 5635W        W 9699   7.590   8.027   2.219
 5636W        W 9700   2.281   5.106   1.995
 5637W        W 9701   2.729   3.570  10.275
 5638W        W 9702   5.289   2.639   1.176
 5639W        W 9703   5.933   9.002   1.185
 5640W        W 9704   7.853   3.239   3.529
 5641W        W 9705   4.669   7.940  11.707
 5642W        W 9706   1.960   8.923   0.204
 5643W        W 9707  10.482   0.246   9.382
 5644W        W 9708   4.980   4.454  10.101
 5645W        W 9709   0.495  10.373   2.941
 5646W        W 9710   4.590   2.859   3.468
 5647W        W 9711   7.260   3.177   1.539
 5648W        W 9712   8.406   8.129   9.791
 5649W        W 9713   1.575   8.547  11.303
 5650W        W 9714   0.872   7.980   1.229
 5651W        W 9715   8.162   3.663   1.239
 5652W        W 9716   1.924   7.873   1.982
 5653W        W 9717   2.868   9.411   1.389
 5654W        W 9718   8.500   2.464   1.240
 5655W        W 9719   1.838   1.176   9.741
 5656W        W 9720   3.329   5.036   1.780
 5657W        W 9721   7.066   5.970   9.090
 5658W        W 9722   0.119   5.392  10.503
 5659W        W 9723   6.077  10.272   1.706
 5660W        W 9724   4.083   2.909  11.380
 5661W        W 9725   6.423   9.262   9.351
 5662W        W 9726   6.917   8.950  11.292
 5663W        W 9727   3.473   2.201   1.015
 5664W        W 9728   3.341   6.738  11.750
 5665W        W 9729   0.600   4.987  11.418
 5666W        W 9730  10.361   5.425  11.354
 5667W        W 9731   5.535   4.127   1.848
 5668W        W 9732   0.818   2.294   3.216
 5669W        W 9733   5.248   7.047   9.127
 5670W        W 9734   3.257   5.154   9.287
 5671W        W 9735   0.473   8.252   9.110
 5672W        W 9736   1.018   7.371   0.788
 5673W        W 9737   1.007   2.133   0.225
 5674W        W 9738   7.854   6.648   0.012
 5675W        W 9739   9.338   0.569   3.088
 5676W        W 9740   4.581   4.522   3.934
 5677W        W 9741   6.425   0.154  11.961
 5678W        W 9742  10.492   3.927   0.149
 5679W        W 9743   6.087   9.316  10.000
 5680W        W 9744   4.554   5.310   9.677
 5681W        W 9745   8.543   5.884   9.537
 5682W        W 9746   9.900   8.288  11.980
 5683W        W 9747   5.646   1.811   8.978
 5684W        W 9748   1.241   0.317  11.033
 5685W        W 9749   3.209   8.332   8.855
 5686W        W 9750   9.467   7.827  10.979
 5687W        W 9751   9.928   9.796   1.682
 5688W        W 9752   5.702   3.476  10.344
 5689W        W 9753   7.357   3.152   8.872
 5690W        W 9754   1.841   7.903   0.470
 5691W        W 9755   1.356   3.831   1.042
 5692W        W 9756   5.145   8.640   0.625
 5693W        W 9757   0.745   0.891  11.550
 5694W        W 9758   1.405   0.235   9.880
 5695W        W 9759   8.152   5.981   1.355
 5696W        W 9760   9.499   5.737   1.227
 5697W        W 9761   0.875   5.432  10.022
 5698W        W 9762   3.667   5.900   3.633
 5699W        W 9763   3.494  10.301   9.390
 5700W        W 9764   7.668   1.815   8.844
 5701W        W 9765   1.304   4.958  10.960
 5702W        W 9766   7.740   6.338   9.773
 5703W        W 9767   5.086   3.648   1.411
 5704W        W 9768   1.206  10.255   1.400
 5705W        W 9769   6.604   3.257   3.303
 5706W        W 9770   0.831   3.982   9.456
 5707W        W 9771   1.319   7.844  10.560
 5708W        W 9772   3.386   7.556   2.694
 5709W        W 9773   2.819   4.076  10.199
 5710W        W 9774   1.664   2.794  11.518
 5711W        W 9775   0.853   6.469  11.562
 5712W        W 9776   5.433   8.440   3.167
 5713W        W 9777   2.170   3.282   1.776
 5714W        W 9778   5.993   5.448  11.979
 5715W        W 9779   7.643   0.104   0.764
 5716W        W 9780   2.126   9.312   9.615
 5717W        W 9781   7.665   1.220   0.666
 5718W        W 9782   3.706   3.616   1.660
 5719W        W 9783   7.128  10.454   3.150
 5720W        W 9784   5.685   0.788  11.138
 5721W        W 9785   7.996   2.623   0.245
 5722W        W 9786   3.337   0.727  11.463
 5723W        W 9787   8.788   2.299   9.828
 5724W        W 9788   2.765   1.485   9.903
 5725W        W 9789   6.930   4.943  10.279
 5726W        W 9790   4.424   5.156   3.638
 5727W        W 9791   1.237   9.276   1.265
 5728W        W 9792   2.406   5.678   9.965
 5729W        W 9793   3.212   3.315   9.117
 5730W        W 9794   9.125   3.284   1.916
 5731W        W 9795   5.497   3.725   0.516
 5732W        W 9796   0.196   9.570  11.953
 5733W        W 9797   5.100   3.154   1.167
 5734W        W 9798   5.655   6.511   3.130
 5735W        W 9799  10.350   7.197  10.860
 5736W        W 9800   9.871   9.044   1.434
 5737W        W 9801   6.884   9.929   2.608
 5738W        W 9802   4.610   2.381   0.695
 5739W        W 9803   1.352   0.877   0.356
 5740W        W 9804   6.148   0.058  10.762
 5741W        W 9805   3.758   5.008   2.140
 5742W        W 9806   1.255   0.997   3.102
 5743W        W 9807   3.880   0.897  11.187
 5744W        W 9808   7.458   9.563   9.760
 5745W        W 9809   7.033   8.150  11.312
 5746W        W 9810  10.109  10.450   2.905
 5747W        W 9811   1.848   1.685   9.596
 5748W        W 9812   4.736  10.461   9.669
 5749W        W 9813   6.303   9.901   8.699
 5750W        W 9814   2.877   7.574   9.341
 5751W        W 9815   2.419   6.110  11.468
 5752W        W 9816   7.613   5.381   2.177
 5753W        W 9817   4.559   3.110   1.823
 5754W        W 9818   8.970   0.405   9.134
 5755W        W 9819   8.316   2.229  10.263
 5756W        W 9820   9.160  10.319   1.269
 5757W        W 9821   6.981   6.095  10.819
 5758W        W 9822   4.445   7.735   1.232
 5759W        W 9823   9.492   2.196   3.397
 5760W        W 9824   4.181   6.984   3.325
 5761W        W 9825   4.586   8.813   2.150
 5762W        W 9826   2.153   2.392   9.539
 5763W        W 9827   4.666   8.381  11.447
 5764W        W 9828   4.517   5.504   9.214
 5765W        W 9829   5.174   0.951  10.935
 5766W        W 9830   9.560   4.826   2.945
 5767W        W 9831  10.403   2.864   3.471
 5768W        W 9832   4.625   0.436   1.530
 5769W        W 9833   3.474   5.610   8.173
 5770W        W 9834   8.609   0.981   0.927
 5771W        W 9835   1.468   9.280   8.763
 5772W        W 9836   2.213   6.412   0.786
 5773W        W 9837   2.910   4.796   0.872
 5774W        W 9838   8.096   8.531   1.124
 5775W        W 9839   8.865   7.411  10.241
 5776W        W 9840   0.973  10.201  10.561
 5777W        W 9841   7.349   4.113   1.031
 5778W        W 9842   1.154   6.512   0.002
 5779W        W 9843   2.484   9.599  10.761
 5780W        W 9844   7.100   9.946  10.234
 5781W        W 9845   3.087   7.989   9.558
 5782W        W 9846   0.427   5.223   9.389
 5783W        W 9847   9.037   8.030   3.328
 5784W        W 9848   0.310   8.604  11.917
 5785W        W 9849   7.444   5.619   3.609
 5786W        W 9850   0.535   8.631  10.619
 5787W        W 9851   8.386   9.467   1.946
 5788W        W 9852   8.938   6.616  11.491
 5789W        W 9853   0.873   2.149   9.028
 5790W        W 9854   7.513   6.490   1.951
 5791W        W 9855   4.533   4.139   1.298
 5792W        W 9856   0.463   4.559  10.533
 5793W        W 9857   3.706   0.791   2.766
 5794W        W 9858   5.521   3.320  10.840
 5795W        W 9859   2.503   1.731  11.329
 5796W        W 9860   2.376   0.310   1.897
 5797W        W 9861   3.205   5.276   3.233
 5798W        W 9862   4.233  10.204  11.721
 5799W        W 9863   0.495   4.620   3.421
 5800W        W 9864   9.144   6.633  10.571
 5801W        W 9865  10.278   7.210   0.477
 5802W        W 9866   0.719   6.076   9.840
 5803W        W 9867   0.184   8.132   0.085
 5804W        W 9868   2.122   2.093   0.022
 5805W        W 9869   3.695   5.042   4.231
 5806W        W 9870   4.631   5.734   2.435
 5807W        W 9871   7.532   2.642   0.006
 5808W        W 9872   8.993   9.455  10.495
 5809W        W 9873  10.001  10.240  11.065
 5810W        W 9874   3.343   8.383   0.607
 5811W        W 9875   0.962  10.404   0.973
 5812W        W 9876   8.454   1.753  10.409
 5813W        W 9877   3.152   4.797   0.384
 5814W        W 9878   5.649   2.299   2.888
 5815W        W 9879   0.501   1.122  10.504
 5816W        W 9880   3.664   8.163   3.378
 5817W        W 9881   9.362   9.429   0.057
 5818W        W 9882   1.763   3.742  10.273
 5819W        W 9883   6.227   7.675  11.132
 5820W        W 9884   2.611  10.383   1.350
 5821W        W 9885   9.102   9.898   0.944
 5822W        W 9886   0.667   8.231  11.966
 5823W        W 9887   9.979   4.618  11.792
 5824W        W 9888   1.481   3.451   2.512
 5825W        W 9889   3.797   9.329   2.674
 5826W        W 9890   3.067   9.599   9.895
 5827W        W 9891   0.348   3.908   9.599
 5828W        W 9892   1.371   3.750   9.054
 5829W        W 9893   0.872   8.577   1.395
 5830W        W 9894   4.059   7.490   8.990
 5831W        W 9895   3.333   0.466   0.160
 5832W        W 9896   9.466   9.986   1.754
 5833W        W 9897   2.314   5.975   0.366
 5834W        W 9898   3.816   0.424  11.953
 5835W        W 9899   1.080   9.926   3.535
 5836W        W 9900   9.507   3.448  11.014
 5837W        W 9901   2.117   4.344   2.773
 5838W        W 9902   4.937   7.126   8.482
 5839W        W 9903   4.238   1.806   9.827
 5840W        W 9904   0.499  10.296   0.793
 5841W        W 9905   2.679   5.950  10.792
 5842W        W 9906   0.789   0.316   9.986
 5843W        W 9907   6.566   1.649  11.832
 5844W        W 9908   4.560   5.080   3.083
 5845W        W 9909   3.934   5.040   3.747
 5846W        W 9910   1.945   4.701   1.985
 5847W        W 9911   1.850   7.033   8.891
 5848W        W 9912   8.292   2.351   9.766
 5849W        W 9913   4.651   5.013  11.757
 5850W        W 9914   5.122   4.969  10.105
 5851W        W 9915   0.221   6.939   1.773
 5852W        W 9916  10.284   0.070   2.097
 5853W        W 9917   6.789   7.003   9.993
 5854W        W 9918   1.051   3.977  10.409
 5855W        W 9919   6.937   4.517   1.936
 5856W        W 9920   5.958   6.445   2.725
 5857W        W 9921   1.966   9.765   9.437
 5858W        W 9922   3.062  10.007  11.975
 5859W        W 9923   2.578   6.601  11.574
 5860W        W 9924   4.724   0.733  11.625
 5861W        W 9925   7.132   1.707   9.986
 5862W        W 9926   2.596  10.276   1.855
 5863W        W 9927  10.036   9.602   2.921
 5864W        W 9928   2.161   2.286   2.321
 5865W        W 9929   1.301   3.107  11.354
 5866W        W 9930   3.753   9.345   9.471
 5867W        W 9931   0.516  10.484  11.871
 5868W        W 9932   0.968   3.364  11.630
 5869W        W 9933  10.322   7.949   9.738
 5870W        W 9934   6.127   6.609   9.513
 5871W        W 9935   0.489   5.735  10.178
 5872W        W 9936   6.720   5.044   4.063
 5873W        W 9937   7.840   3.102   0.193
 5874W        W 9938   3.767   7.132   0.364
 5875W        W 9939   6.475   4.084  10.196
 5876W        W 9940   7.734   8.412   3.496
 5877W        W 9941   6.617   2.605  10.044
 5878W        W 9942   5.990   5.703   1.234
 5879W        W 9943   4.127   4.261   1.801
 5880W        W 9944  10.467  10.412  10.382
 5881W        W 9945   5.544   9.594  11.950
 5882W        W 9946   5.520   0.230   3.193
 5883W        W 9947   6.439   4.036  11.373
 5884W        W 9948   9.501   1.332   2.287
 5885W        W 9949   8.326   5.754  10.878
 5886W        W 9950   5.716   2.133   3.396
 5887W        W 9951   3.106   9.378   1.855
 5888W        W 9952   5.035   5.040   2.886
 5889W        W 9953   2.510   2.759   9.389
 5890W        W 9954   0.346   3.037   9.812
 5891W        W 9955   4.106   3.886  11.294
 5892W        W 9956   1.258   8.987   2.538
 5893W        W 9957   1.977   0.393   3.557
 5894W        W 9958   7.843   8.405   2.993
 5895W        W 9959   6.501   7.286   1.760
 5896W        W 9960   7.242   0.849   9.995
 5897W        W 9961   1.274   8.147   3.538
 5898W        W 9962   6.600   5.724   3.898
 5899W        W 9963   2.320   5.193  10.206
 5900W        W 9964   5.011   3.374   8.044
 5901W        W 9965   1.139   4.312   1.005
 5902W        W 9966   1.596   4.954   9.919
 5903W        W 9967   8.698   1.677   3.509
 5904W        W 9968   3.534   3.121   1.907
 5905W        W 9969   2.214   5.249   3.551
 5906W        W 9970   5.567   2.620   3.315
 5907W        W 9971   7.243   6.219   0.478
 5908W        W 9972   5.228   1.345  11.674
 5909W        W 9973   9.145   7.039   0.686
 5910W        W 9974   2.296   2.790   9.885
 5911W        W 9975  10.034   4.026  10.514
 5912W        W 9976  10.081   1.324  10.216
 5913W        W 9977   7.729   9.479   2.644
 5914W        W 9978   0.868   1.634  10.280
 5915W        W 9979   3.778   8.454  11.019
 5916W        W 9980   3.082   0.026  11.998
 5917W        W 9981   1.983   9.350   1.015
 5918W        W 9982   5.423   6.995   3.157
 5919W        W 9983   9.718  10.416   0.442
 5920W        W 9984   4.306   2.439  10.312
 5921W        W 9985   7.710   8.018   0.288
 5922W        W 9986   4.706   1.388   1.506
 5923W        W 9987   6.579   9.700  11.987
 5924W        W 9988   3.269   5.764   2.307
 5925W        W 9989   6.025   4.285   9.973
 5926W        W 9990   4.999   1.305   9.206
 5927W        W 9991   6.968   9.494  10.528
 5928W        W 9992   0.662   6.635   0.460
 5929W        W 9993   8.913  10.360   9.054
 5930W        W 9994   9.132   7.027   9.848
 5931W        W 9995   9.354   5.159   0.760
 5932W        W 9996   9.895   7.547   9.852
 5933W        W 9997   9.688   0.434   2.389
 5934W        W 9998   2.321   9.776   1.045
 5935W        W 9999   8.183   3.120   1.999
 5936W        W10000   3.328   1.280   2.271
 5937W        W10001   6.041   1.822   2.969
 5938W        W10002   6.069   7.394  10.330
 5939W        W10003   2.432   9.468   2.692
 5940W        W10004   7.250   1.219   9.635
 5941W        W10005   2.687   1.985  10.036
 5942W        W10006   8.636   9.532  10.846
 5943W        W10007   9.309   6.952   2.172
 5944W        W10008   5.721   6.079   2.450
 5945W        W10009   3.925   1.363  11.394
 5946W        W10010   3.245   4.317   1.291
 5947W        W10011   4.537   4.067   9.861
 5948W        W10012   5.189   5.607   3.131
 5949W        W10013   7.995   3.636   2.653
 5950W        W10014   2.788   3.360  10.739
 5951W        W10015   4.807   9.901   8.863
 5952W        W10016   1.876  10.295   8.724
 5953W        W10017   7.427   4.991   9.995
 5954W        W10018   1.909   2.328   0.469
 5955W        W10019   1.091   5.555   1.083
 5956W        W10020  10.246   8.054   1.371
 5957W        W10021   0.836   8.100  11.471
 5958W        W10022   0.895   0.147   8.604
 5959W        W10023   5.427   7.566   4.194
 5960W        W10024   0.013   5.870   2.448
 5961W        W10025   5.428   0.359   9.398
 5962W        W10026  10.451   7.004   9.268
 5963W        W10027   4.615   7.398  11.614
 5964W        W10028   1.316   2.377   9.188
 5965W        W10029   6.997   7.690  11.547
 5966W        W10030   5.283   2.154  10.085
 5967W        W10031   5.478   3.998  11.679
 5968W        W10032   3.297   5.540   3.673
 5969W        W10033   1.813   7.597   3.155
 5970W        W10034   9.040   1.518   2.203
 5971W        W10035   4.363   4.526   9.505
 5972W        W10036   6.591   2.113   0.045
 5973W        W10037   4.639  10.473  11.582
 5974W        W10038   3.200   7.058   9.989
 5975W        W10039   4.632   4.418   8.416
 5976W        W10040   3.242   9.915   2.727
 5977W        W10041   3.361   3.471   3.401
 5978W        W10042   5.756   5.589   8.594
 5979W        W10043   6.054  10.063  11.065
 5980W        W10044   2.552   9.433   1.813
 5981W        W10045   2.940   6.060   3.116
 5982W        W10046  10.011   9.727   0.806
 5983W        W10047   9.768   1.681   3.118
 5984W        W10048   5.577   4.382   8.490
 5985W        W10049   2.538   9.159  10.499
 5986W        W10050   1.265  10.335   0.536
 5987W        W10051   9.174   0.966   2.364
 5988W        W10052   5.073   8.168   0.400
 5989W        W10053  10.202   8.865   9.097
 5990W        W10054   9.516   1.410   2.773
 5991W        W10055  10.033   1.829   8.990
 5992W        W10056   2.511   8.235   0.846
 5993W        W10057   8.467   1.077  10.517
 5994W        W10058   3.718   7.090   1.023
 5995W        W10059   6.624   6.595  10.253
 5996W        W10060   3.026   2.695   9.328
 5997W        W10061   8.920   5.911   3.235
 5998W        W10062   8.679   3.880   3.747
 5999W        W10063   9.123  10.265  11.048
 6000W        W10064   9.818   8.888   3.276
 6001W        W10065   5.713   4.752   9.000
 6002W        W10066   0.282   2.236   1.277
 6003W        W10067   2.662   3.849  10.748
 6004W        W10068  10.260   2.656   1.513
 6005W        W10069   3.365   8.459   2.612
 6006W        W10070   5.477   2.269   8.807
 6007W        W10071   3.696   4.114   3.526
 6008W        W10072   5.610   4.913   8.518
 6009W        W10073   3.308   7.523   9.726
 6010W        W10074   4.671   8.125   1.442
 6011W        W10075   9.041   1.580   2.704
 6012W        W10076   9.508   9.941   1.247
 6013W        W10077   8.687   2.717   9.071
 6014W        W10078   2.622   3.064  10.325
 6015W        W10079   2.294   3.841  10.314
 6016W        W10080   0.624   7.581  10.579
 6017W        W10081   6.702   1.669  11.302
 6018W        W10082   8.558   8.847   0.014
 6019W        W10083   2.262   9.864   1.910
 6020W        W10084   6.352   0.476   9.028
 6021W        W10085   7.341   5.748   0.234
 6022W        W10086   9.828   9.229   8.941
 6023W        W10087   6.703   7.843   3.367
 6024W        W10088   1.845   6.532   1.135
 6025W        W10089   8.073   9.444   1.087
 6026W        W10090   7.404   5.614   0.712
 6027W        W10091   0.284   4.750   9.561
 6028W        W10092   1.637   1.984   0.179
 6029W        W10093   2.220  10.293  11.945
 6030W        W10094   5.702   1.595   0.277
 6031W        W10095   0.752   1.288   9.329
 6032W        W10096   2.638   5.509   9.527
 6033W        W10097   2.732   4.242   3.317
 6034W        W10098   8.886  10.417   2.726
 6035W        W10099   1.863   3.708   8.920
 6036W        W10100   7.920  10.384   9.349
 6037W        W10101   5.225   1.887   1.688
 6038W        W10102   6.603   3.069  11.727
 6039W        W10103   6.385   3.282  10.706
 6040W        W10104   8.123   5.715  11.781
 6041W        W10105   8.949   5.304  11.960
 6042W        W10106   1.846   1.257   8.768
 6043W        W10107   8.797   0.176   1.243
 6044W        W10108   3.326   8.160   1.114
 6045W        W10109   0.689   9.818   8.905
 6046W        W10110   4.210   7.555   3.041
 6047W        W10111   5.490   5.006   9.418
 6048W        W10112   2.404   9.969   0.590
 6049W        W10113   1.758   5.713   2.816
 6050W        W10114   6.515  10.467   1.131
 6051W        W10115   5.073   0.795  10.459
 6052W        W10116   6.046   2.250  10.768
 6053W        W10117   8.191   9.670   2.403
 6054W        W10118   7.284   7.960   1.804
 6055W        W10119   4.196   1.482   3.202
 6056W        W10120   4.065   2.655   2.204
 6057W        W10121   0.258   9.599  11.005
 6058W        W10122   6.912   1.350   1.675
 6059W        W10123   5.160   9.287   1.830
 6060W        W10124   8.192   2.447   0.832
 6061W        W10125   3.792   0.887  10.688
 6062W        W10126   6.011   7.224   2.501
 6063W        W10127   3.344   5.795   0.452
 6064W        W10128   6.869   8.905   9.424
 6065W        W10129   7.650   7.625  10.543
 6066W        W10130   3.486   5.498   0.857
 6067W        W10131   2.027   5.354  11.731
 6068W        W10132   8.557   0.718   0.064
 6069W        W10133   0.400   2.386   0.791
 6070W        W10134   9.769   7.877   9.046
 6071W        W10135   1.803   2.671   0.849
 6072W        W10136   7.884  10.336  10.976
 6073W        W10137   9.152   0.335  10.454
 6074W        W10138   5.857   8.350   8.372
 6075W        W10139   5.110   5.168  11.972
 6076W        W10140   4.681   7.377   1.785
 6077W        W10141   4.316   4.699   2.796
 6078W        W10142   0.981   5.571   2.400
 6079W        W10143   6.135   0.476  11.646
 6080W        W10144   7.922   5.220  11.851
 6081W        W10145   7.154   1.701   9.461
 6082W        W10146   5.730   7.542   9.546
 6083W        W10147   9.264   8.760   9.387
 6084W        W10148   7.593   4.976   1.099
 6085W        W10149   8.814   0.711  10.314
 6086W        W10150   1.736   1.785   0.648
 6087W        W10151   1.690   0.801   1.577
 6088W        W10152   1.189   5.210   3.528
 6089W        W10153  10.241   2.795   2.404
 6090W        W10154   0.005   8.918   1.665
 6091W        W10155   5.691   1.691  11.249
 6092W        W10156   8.076   1.294   0.356
 6093W        W10157   2.188  10.458   9.580
 6094W        W10158   2.651   6.362  11.101
 6095W        W10159   4.159   9.443   3.234
 6096W        W10160   8.847   5.088   0.819
 6097W        W10161   9.536   9.068   0.782
 6098W        W10162   9.306   9.833  10.053
 6099W        W10163   2.857   3.154   9.479
 6100W        W10164   3.119   6.221  10.050
 6101W        W10165   6.688   3.196   2.242
 6102W        W10166   7.010   6.936   3.180
 6103W        W10167   8.679   2.396  11.117
 6104W        W10168   3.143   4.397  11.432
 6105W        W10169   4.179   0.045   9.539
 6106W        W10170   6.647   7.593   9.581
 6107W        W10171   2.444   1.636  10.286
 6108W        W10172   0.237   5.700  11.540
 6109W        W10173   8.409   7.768  11.470
 6110W        W10174   0.213   1.784  11.160
 6111W        W10175   4.539   9.493   9.030
 6112W        W10176   3.528   2.812   9.221
 6113W        W10177   0.077   1.363  10.340
 6114W        W10178   7.616   0.639   0.818
 6115W        W10179   2.194   8.151  10.172
 6116W        W10180   8.981   1.219  10.275
 6117W        W10181   3.831   8.027  11.359
 6118W        W10182   8.999   5.518   0.494
 6119W        W10183   6.538   4.452   8.433
 6120W        W10184   7.941   2.823  11.759
 6121W        W10185   6.394   0.975   0.394
 6122W        W10186   7.059   5.517   3.274
 6123W        W10187   3.462   5.029   0.023
 6124W        W10188   4.650   0.232   3.426
 6125W        W10189   1.582  10.126   3.679
 6126W        W10190   3.614   3.148   8.811
 6127W        W10191   2.850   4.632   2.541
 6128W        W10192   7.107   4.050   2.076
 6129W        W10193   9.820   7.484   3.170
 6130W        W10194   2.674   5.012   0.448
 6131W        W10195   8.877   7.712   9.235
 6132W        W10196   6.856   1.226   9.985
 6133W        W10197   5.890   8.139   0.447
 6134W        W10198   7.184   4.882   3.917
 6135W        W10199   4.560  10.495   1.010
 6136W        W10200   8.543   4.045  11.364
 6137W        W10201   3.170   5.694  11.238
 6138W        W10202   5.614   2.655   1.898
 6139W        W10203   6.362   8.785   9.531
 6140W        W10204   2.575   1.969   2.162
 6141W        W10205   3.370   9.810   1.838
 6142W        W10206   0.646   7.583   8.415
 6143W        W10207   5.632   8.306   1.174
 6144W        W10208   2.478   4.813   9.872
 6145W        W10209   0.246   4.354  11.965
 6146W        W10210   3.708   0.869   1.207
 6147W        W10211   0.442   3.821   9.109
 6148W        W10212   5.917   9.536   2.471
 6149W        W10213   1.702   3.819   1.795
 6150W        W10214   4.785   6.260   2.424
 6151W        W10215   1.742   8.104   3.307
 6152W        W10216   1.733   3.911   9.408
 6153W        W10217   4.716   0.765  11.095
 6154W        W10218   9.891   8.494  11.500
 6155W        W10219   0.417   6.176   2.476
 6156W        W10220   2.340   1.740   9.753
 6157W        W10221   8.008   5.083   2.079
 6158W        W10222   5.501  10.332  10.200
 6159W        W10223   3.318   2.339   2.603
 6160W        W10224   1.772   3.561   3.351
 6161W        W10225   5.132   9.556   0.274
 6162W        W10226   6.024   1.305   2.803
 6163W        W10227   8.956   2.009   2.426
 6164W        W10228   9.083   5.240   1.985
 6165W        W10229   0.700   7.173   1.752
 6166W        W10230   2.274   4.162   0.883
 6167W        W10231   7.132   1.246   0.713
 6168W        W10232   7.603   2.850   0.961
 6169W        W10233   6.801   6.924   2.699
 6170W        W10234   9.504   8.373   2.462
 6171W        W10235   1.233   2.828   9.469
 6172W        W10236   2.217   9.324  11.877
 6173W        W10237   7.496   5.631  10.884
 6174W        W10238   0.382   0.861   0.924
 6175W        W10239   5.594   4.291   2.595
 6176W        W10240   1.426   3.392   0.306
 6177W        W10241   8.928   9.476   1.772
 6178W        W10242   4.712   5.760  11.365
 6179W        W10243   7.237   2.544   0.744
 6180W        W10244   3.701   7.977   1.425
 6181W        W10245   7.733  10.229   0.001
 6182W        W10246   0.390   5.964  11.144
 6183W        W10247   0.797   0.426  11.819
 6184W        W10248   3.112   3.566   0.003
 6185W        W10249   0.344   8.628   3.122
 6186W        W10250   4.246   9.197   9.458
 6187W        W10251   2.374   3.071   0.344
 6188W        W10252   3.266   2.793   3.539
 6189W        W10253   5.216   3.835   8.971
 6190W        W10254   2.829   8.867   1.176
 6191W        W10255  10.293   5.712   1.732
 6192W        W10256   0.952   2.123  10.439
 6193W        W10257   5.544   2.631   0.292
 6194W        W10258   6.466   4.267   8.902
 6195W        W10259   3.264   9.281  11.468
 6196W        W10260   3.758   4.689   0.999
 6197W        W10261   0.832   1.444   1.969
 6198W        W10262   9.536   1.598  11.730
 6199W        W10263   8.078   8.278   0.601
 6200W        W10264   1.836   5.088  10.330
 6201W        W10265   9.893   6.458   1.941
 6202W        W10266   4.944   6.443   0.324
 6203W        W10267   3.384   9.908  10.683
 6204W        W10268   6.555   2.469   2.870
 6205W        W10269   5.273   3.257   8.489
 6206W        W10270   8.944   3.153   8.901
 6207W        W10271   3.201   1.368  10.121
 6208W        W10272   9.780   6.555   8.885
 6209W        W10273   9.959   7.024   8.519
 6210W        W10274   4.600   1.551   2.859
 6211W        W10275   4.591   2.651   2.341
 6212W        W10276   3.979   4.244  11.651
 6213W        W10277   4.419   8.724   9.532
 6214W        W10278   6.256   6.917   0.010
 6215W        W10279   6.114   4.943   0.923
 6216W        W10280   2.774  10.125   2.321
 6217W        W10281   2.129  10.014   9.865
 6218W        W10282   4.697   0.998  10.197
 6219W        W10283   6.562   1.922   1.392
 6220W        W10284   6.058  10.404  10.273
 6221W        W10285   9.365   9.586   2.059
 6222W        W10286   8.643   5.789   8.506
 6223W        W10287   5.483   1.231   0.598
 6224W        W10288   0.638   9.864   9.816
 6225W        W10289   6.850   0.905   1.401
 6226W        W10290   5.221   3.199  11.734
 6227W        W10291   6.093   2.662   9.033
 6228W        W10292   0.387   8.978   3.546
 6229W        W10293   8.124   3.576   8.926
 6230W        W10294   0.697   1.798  11.999
 6231W        W10295   0.972   6.049   9.314
 6232W        W10296   8.072   7.579  10.852
 6233W        W10297   7.937   9.488   1.601
 6234W        W10298   6.937   3.756   9.683
 6235W        W10299   6.059   2.075   1.158
 6236W        W10300   9.297   7.503  10.610
 6237W        W10301   6.628   2.981   2.851
 6238W        W10302   5.634   9.358   1.708
 6239W        W10303   7.079   8.609  11.974
 6240W        W10304   2.847   2.377  10.905
 6241W        W10305   8.576   9.429   9.012
 6242W        W10306   1.295   6.054   1.006
 6243W        W10307   5.264   1.843  10.932
 6244W        W10308   9.081   6.993  11.173
 6245W        W10309   0.009   1.708   1.109
 6246W        W10310   6.576   0.758  10.013
 6247W        W10311   5.994   3.781   8.298
 6248W        W10312   9.243   2.199  10.011
 6249W        W10313   4.071   6.623   1.482
 6250W        W10314   5.172   9.032   9.934
 6251W        W10315   6.101   2.775   1.693
 6252W        W10316   5.213   4.673   9.717
 6253W        W10317   1.676   3.943   3.820
 6254W        W10318   7.357   5.170  11.029
 6255W        W10319   4.525   3.617   9.615
 6256W        W10320   2.008   1.356   2.776
 6257W        W10321   3.080   2.292   8.957
 6258W        W10322   9.472   8.285   0.277
 6259W        W10323   0.856   1.586   8.894
 6260W        W10324   3.834   7.700   1.835
 6261W        W10325   5.592   9.346  10.971
 6262W        W10326   0.704   2.978   1.519
 6263W        W10327   6.864   5.905   1.760
 6264W        W10328   3.079   4.049  11.071
 6265W        W10329   3.069   8.928   9.104
 6266W        W10330   9.865   2.229   0.680
 6267W        W10331   7.939   6.161   1.792
 6268W        W10332  10.233   0.752   0.303
 6269W        W10333   7.508   3.615   8.978
 6270W        W10334   5.910   0.531   9.624
 6271W        W10335   7.913   4.551   2.045
 6272W        W10336   6.909   0.284  10.551
 6273W        W10337   2.164   0.494  11.242
 6274W        W10338   3.318   0.733   2.416
 6275W        W10339   5.822   0.046   9.821
 6276W        W10340  10.208   1.295   3.396
 6277W        W10341   1.231   4.272  11.796
 6278W        W10342   6.661   6.098   8.799
 6279W        W10343   8.002   0.447   3.338
 6280W        W10344   1.422   0.311   2.050
 6281W        W10345   0.329   3.802   1.728
 6282W        W10346   7.936   9.970  10.632
 6283W        W10347   4.140   2.692   0.187
 6284W        W10348   9.520   5.201   9.059
 6285W        W10349   4.179   3.755   1.841
 6286W        W10350   6.631   3.809   2.471
 6287W        W10351   7.710   3.153   1.781
 6288W        W10352   5.379   0.434   2.737
 6289W        W10353   4.927   9.802   3.553
 6290W        W10354   3.798   2.113   8.588
 6291W        W10355   5.474   5.287   9.888
 6292W        W10356   3.107   4.774  10.603
 6293W        W10357   6.961   4.074  10.357
 6294W        W10358   0.257   1.747   3.065
 6295W        W10359   5.588   0.284  11.967
 6296W        W10360   3.310  10.260   3.455
 6297W        W10361   3.460   7.536   3.649
 6298W        W10362   1.253   1.704   0.385
 6299W        W10363   1.785   8.597   4.109
 6300W        W10364   3.720   1.176   3.088
 6301W        W10365   6.036   8.034  11.531
 6302W        W10366   2.855   3.140   0.163
 6303W        W10367   4.245   5.715   9.647
 6304W        W10368   3.674   8.694   1.828
 6305W        W10369   5.556   9.831   0.445
 6306W        W10370   2.284   4.736  11.756
 6307W        W10371   4.167   0.904   2.574
 6308W        W10372   6.777   3.240   1.729
 6309W        W10373   2.449   7.315  10.217
 6310W        W10374   7.920   0.334  11.048
 6311W        W10375   7.357   3.703   1.387
 6312W        W10376   9.855   5.997  11.438
 6313W        W10377   6.242   6.985   9.167
 6314W        W10378   9.133   0.865   9.926
 6315W        W10379   2.761   5.124  10.489
 6316W        W10380   7.475   2.895   2.913
 6317W        W10381   2.262   5.756   1.354
 6318W        W10382   1.226   0.481  11.549
 6319W        W10383   9.461   1.088  11.851
 6320W        W10384   6.067   8.807   9.954
 6321W        W10385   1.415   3.919   3.403
 6322W        W10386   4.826   8.906  11.820
 6323W        W10387   3.305   5.978   2.779
 6324W        W10388   9.079   2.721   9.995
 6325W        W10389   5.275   3.109   2.562
 6326W        W10390   8.971   4.923   1.293
 6327W        W10391   3.772   3.146   1.448
 6328W        W10392   3.202   7.764   1.460
 6329W        W10393  10.128   3.929   9.759
 6330W        W10394   0.025   0.363   1.692
 6331W        W10395   7.120   3.777  10.754
 6332W        W10396   7.880   3.124   8.803
 6333W        W10397   0.209   7.818   2.926
 6334W        W10398   8.433   5.144  11.863
 6335W        W10399   9.075   5.527   1.016
 6336W        W10400   5.771   1.591   3.434
 6337W        W10401   4.048   1.401  10.117
 6338W        W10402   3.212   8.883   1.960
 6339W        W10403   3.343   0.047   9.864
 6340W        W10404   2.447   6.468  10.236
 6341W        W10405   9.365   5.859   0.278
 6342W        W10406   3.096   6.558   3.514
 6343W        W10407   3.809  10.058   1.877
 6344W        W10408   3.341  10.032   9.812
 6345W        W10409   5.018   0.230   1.872
 6346W        W10410   5.299   8.074  10.320
 6347W        W10411   1.381   9.013   2.044
 6348W        W10412   1.389   2.259  10.138
 6349W        W10413   1.825   2.610   3.400
 6350W        W10414   0.187   3.741   2.742
 6351W        W10415   5.765   6.583  11.158
 6352W        W10416   8.031   9.379  11.380
 6353W        W10417   6.174   1.853  11.043
 6354W        W10418   5.097   8.111  11.345
 6355W        W10419   4.522   1.376   9.916
 6356W        W10420   6.158   7.092   0.478
 6357W        W10421   3.063   1.845   0.964
 6358W        W10422   6.967   4.683   1.472
 6359W        W10423   1.030  10.164   8.671
 6360W        W10424   6.339   8.274   3.254
 6361W        W10425   2.472   4.266  10.525
 6362W        W10426   2.127   0.773   9.932
 6363W        W10427   7.202   9.807   0.704
 6364W        W10428   9.497   1.704   1.949
 6365W        W10429   1.797   9.313   9.179
 6366W        W10430   5.580   8.672  11.822
 6367W        W10431   9.773   4.591  11.311
 6368W        W10432   7.105   5.930   2.622
 6369W        W10433   1.832   5.666  11.002
 6370W        W10434   9.345   4.947  11.945
 6371W        W10435   3.201   1.297   9.104
 6372W        W10436   7.869  10.249  11.501
 6373W        W10437   1.559   0.211  11.871
 6374W        W10438   6.349   5.596   2.527
 6375W        W10439   8.541   0.994  11.051
 6376W        W10440   0.635   4.588   1.851
 6377W        W10441   7.519   7.135   0.671
 6378W        W10442   6.639   4.735   3.131
 6379W        W10443   8.526  10.352   3.099
 6380W        W10444   8.008   1.822   2.746
 6381W        W10445   7.066   0.480   0.625
 6382W        W10446   2.242   3.233   2.334
 6383W        W10447   3.207   4.714   9.559
 6384W        W10448   9.283   9.878  10.549
 6385W        W10449   5.337   3.078   2.064
 6386W        W10450   4.149   7.957   3.368
 6387W        W10451   2.368   4.073   2.387
 6388W        W10452   0.728   4.217   0.702
 6389W        W10453   9.463   9.644   9.129
 6390W        W10454   5.757   1.154  11.987
 6391W        W10455   8.906   2.315   1.999
 6392W        W10456   6.942   0.449   8.969
 6393W        W10457   8.936   5.739   1.870
 6394W        W10458   1.718   3.768  10.771
 6395W        W10459   9.687   3.550   3.548
 6396W        W10460   8.449   8.497  10.884
 6397W        W10461   8.090   0.441   0.614
 6398W        W10462   0.792   3.129  10.042
 6399W        W10463   6.222   9.600   0.974
 6400W        W10464   5.314   9.945   0.953
 6401W        W10465  10.056   3.186   2.091
 6402W        W10466  10.389   9.286  10.026
 6403W        W10467   6.010   7.144  11.295
 6404W        W10468   2.346   1.465   1.265
 6405W        W10469   6.709   3.219  10.270
 6406W        W10470   3.669   9.097   3.177
 6407W        W10471   2.852   6.148   8.802
 6408W        W10472   3.280   4.763   2.240
 6409W        W10473   3.578  10.473   0.698
 6410W        W10474   8.954   7.570   8.718
 6411W        W10475   9.687   8.761   9.093
 6412W        W10476  10.395   2.135   2.961
 6413W        W10477   2.374   2.109  10.502
 6414W        W10478   2.051   3.224   9.746
 6415W        W10479   6.868   1.833   1.868
 6416W        W10480   9.945   1.365   2.038
 6417W        W10481   9.814   9.153   2.856
 6418W        W10482   2.968   4.294  10.640
 6419W        W10483   5.590   4.504   9.429
 6420W        W10484   5.511   3.319   3.490
 6421W        W10485   0.370   7.245  11.557
 6422W        W10486   2.168   3.759  11.642
 6423W        W10487  10.029   3.481   8.994
 6424W        W10488   2.725   3.145   8.978
 6425W        W10489   8.617   3.854  10.615
 6426W        W10490   3.756   3.109   3.504
 6427W        W10491   7.294   7.181   2.813
 6428W        W10492   1.850   5.013   1.155
 6429W        W10493   6.860   9.866   9.405
 6430W        W10494   3.596   5.026   2.630
 6431W        W10495   0.387   7.860   0.458
 6432W        W10496   8.965   9.365   1.285
 6433W        W10497   5.778   1.756   9.470
 6434W        W10498   2.178   6.504   0.298
 6435W        W10499   5.327   2.877  10.955
 6436W        W10500   8.997   9.522   9.296
 6437W        W10501   7.157   5.215   8.463
 6438W        W10502   5.153   6.618  10.428
 6439W        W10503   9.488   4.056   0.264
 6440W        W10504   8.341   1.842   0.783
 6441W        W10505   9.115   6.056   3.696
 6442W        W10506   8.820   8.460   3.160
 6443W        W10507   1.720   0.553   0.235
 6444W        W10508   1.306  10.479  11.456
 6445W        W10509   9.985   8.536   2.379
 6446W        W10510   8.441   5.965   1.770
 6447W        W10511   1.204   7.176   3.074
 6448W        W10512   5.706   8.364   9.548
 6449W        W10513   4.283   4.781   8.618
 6450W        W10514   9.966   7.914  11.103
 6451W        W10515   7.313   5.103   3.079
 6452W        W10516   8.064   2.261   1.959
 6453W        W10517   6.455   9.839   0.469
 6454W        W10518   4.989   3.673   9.393
 6455W        W10519   6.167   6.314  11.360
 6456W        W10520   1.893   0.361   2.994
 6457W        W10521   2.194   4.683   9.456
 6458W        W10522   6.522   9.603   9.714
 6459W        W10523   4.940   8.048   2.288
 6460W        W10524   4.423   2.614   1.842
 6461W        W10525  10.249   9.650  10.970
 6462W        W10526   6.222   5.198   2.258
 6463W        W10527   5.465   3.330   1.495
 6464W        W10528   0.734   7.796   9.117
 6465W        W10529   6.262  10.426   3.165
 6466W        W10530   6.330   2.840   0.796
 6467W        W10531   5.456   1.140  10.511
 6468W        W10532   4.680   2.746  10.110
 6469W        W10533   1.812   6.140   2.255
 6470W        W10534   6.232   5.027   3.317
 6471W        W10535   1.613   6.563   8.846
 6472W        W10536   6.067   6.095   1.811
 6473W        W10537   5.702   4.316   1.387
 6474W        W10538   3.830   7.747   0.362
 6475W        W10539   0.387   6.458   3.479
 6476W        W10540   0.878   4.977  10.271
 6477W        W10541   0.156  10.216   2.074
 6478W        W10542   5.274   2.698  11.856
 6479W        W10543   9.573   3.121   0.255
 6480W        W10544  10.187   6.527   8.567
 6481W        W10545   5.245  10.439   2.818
 6482W        W10546   7.455   9.125   9.510
 6483W        W10547   4.471   6.471   0.151
 6484W        W10548   8.639   9.575   2.724
 6485W        W10549   2.385   4.233   1.406
 6486W        W10550  10.367   2.187   0.940
 6487W        W10551   7.989   7.929  10.001
 6488W        W10552   1.455   9.593  11.488
 6489W        W10553   5.618   7.223   3.570
 6490W        W10554   2.857   6.905   8.634
 6491W        W10555   3.023   3.490   0.529
 6492W        W10556   0.348   9.866   3.267
 6493W        W10557   5.490   9.374   2.246
 6494W        W10558   7.695   3.277   1.259
 6495W        W10559   6.251   4.034   4.118
 6496W        W10560   8.106   0.713   1.449
 6497W        W10561   0.415   4.108   1.325
 6498W        W10562   3.549   0.533  11.045
 6499W        W10563   4.795   9.847   1.747
 6500W        W10564   5.064   6.566   3.357
 6501W        W10565   1.844   1.387   0.986
 6502W        W10566   6.208   5.227   1.766
 6503W        W10567  10.035   5.773   2.297
 6504W        W10568   8.619   1.654  11.851
 6505W        W10569   6.039   8.541   1.891
 6506W        W10570   7.388   9.215   2.941
 6507W        W10571   8.860   8.386   1.961
 6508W        W10572   7.392   1.252   2.456
 6509W        W10573   9.575   9.496  11.556
 6510W        W10574   0.964   6.862   0.822
 6511W        W10575   7.004   0.804  11.382
 6512W        W10576   1.246   1.315   2.252
 6513W        W10577   1.636   9.086   3.403
 6514W        W10578   4.047   5.896  10.072
 6515W        W10579   2.648   2.487  11.773
 6516W        W10580   1.592   7.429  10.415
 6517W        W10581   1.174   1.002   1.334
 6518W        W10582   6.126   4.468   1.117
 6519W        W10583   3.343   2.583   1.873
 6520W        W10584   5.823   2.700  10.947
 6521W        W10585   8.352   7.311   1.160
 6522W        W10586   6.249   7.793   0.408
 6523W        W10587   0.546   4.069  10.442
 6524W        W10588   6.532   2.726   2.436
 6525W        W10589   2.194   2.815   1.141
 6526W        W10590   0.634  10.293   1.913
 6527W        W10591   6.310   1.326  10.221
 6528W        W10592   8.912   4.006   9.077
 6529W        W10593   8.819   2.796   0.524
 6530W        W10594   3.196   6.721   1.547
 6531W        W10595   5.192   0.887   1.893
 6532W        W10596   8.067   7.730   1.165
 6533W        W10597   8.265  10.440   9.738
 6534W        W10598   1.773   3.047   2.514
 6535W        W10599   1.791   6.109  10.703
 6536W        W10600   9.432   2.406   1.404
 6537W        W10601   4.933   6.391   1.943
 6538W        W10602   9.409   5.389   2.712
 6539W        W10603   4.814   8.657   9.869
 6540W        W10604   2.160   6.522  11.268
 6541W        W10605   4.609   3.366   2.619
 6542W        W10606   5.706   0.233  10.944
 6543W        W10607   1.393   8.523   2.765
 6544W        W10608   2.723   6.029  10.287
 6545W        W10609   2.787   2.209   0.240
 6546W        W10610   3.754   5.429   3.452
 6547W        W10611   4.563   6.053   2.021
 6548W        W10612   6.460   2.298   9.092
 6549W        W10613   1.848   2.241   2.746
 6550W        W10614   8.793   1.323   3.089
 6551W        W10615   7.178   1.065  10.807
 6552W        W10616   2.367   2.333   1.861
 6553W        W10617   0.931   1.129  10.229
 6554W        W10618   6.589   0.794   2.738
 6555W        W10619   0.372   9.914   2.774
 6556W        W10620   4.512   2.598   9.116
 6557W        W10621   2.202   1.411   9.361
 6558W        W10622   3.691   5.356   0.382
 6559W        W10623   8.544   6.360   0.260
 6560W        W10624   7.235  10.308  11.864
 6561W        W10625   3.618   8.459  10.529
 6562W        W10626   4.682   8.923   2.635
 6563W        W10627   7.906   2.708   2.737
 6564W        W10628   3.200   0.912   0.952
 6565W        W10629   1.581   3.102   0.726
 6566W        W10630   5.434   8.030   2.308
 6567W        W10631   9.335   3.604   2.404
 6568W        W10632   4.254   5.675  11.745
 6569W        W10633   1.038   2.869   8.535
 6570W        W10634   9.049   6.411  11.019
 6571W        W10635   3.776   6.958  10.495
 6572W        W10636   8.819   3.735   1.950
 6573W        W10637   9.961   7.812   3.535
 6574W        W10638   6.599   0.520   0.269
 6575W        W10639   3.312   6.598   9.785
 6576W        W10640  10.074   9.309  11.283
 6577W        W10641   5.789   4.298   3.092
 6578W        W10642   5.613   3.213   0.455
 6579W        W10643   0.766   8.999   3.203
 6580W        W10644   7.785   7.169  10.116
 6581W        W10645   8.468   6.035   9.037
 6582W        W10646   1.487   0.040   2.866
 6583W        W10647   0.427   0.329   0.770
 6584W        W10648   3.617   5.486  10.351
 6585W        W10649   8.830  10.320   0.869
 6586W        W10650   8.591   8.543   8.940
 6587W        W10651   5.860   4.394   2.157
 6588W        W10652   0.193   6.507   8.717
 6589W        W10653   6.570   6.779   8.813
 6590W        W10654   0.110   8.628  10.913
 6591W        W10655   7.845   3.666   9.347
 6592W        W10656   3.002   7.086   1.879
 6593W        W10657   7.868   7.607   2.185
 6594W        W10658   5.175  10.226   1.860
 6595W        W10659   5.727   4.073   3.997
 6596W        W10660   5.493   7.603  11.842
 6597W        W10661   6.168   2.803  11.946
 6598W        W10662   4.877   8.709   8.445
 6599W        W10663   5.519   0.752   0.205
 6600W        W10664   8.354   5.996   0.896
 6601W        W10665   5.146   5.990   2.748
 6602W        W10666   8.583   4.172   1.736
 6603W        W10667   6.205   3.715  10.408
 6604W        W10668   2.193   2.297   0.961
 6605W        W10669   9.432   5.361   0.269
 6606W        W10670   7.469   3.069   9.737
 6607W        W10671   5.800   4.760   3.326
 6608W        W10672   1.982   6.124  11.721
 6609W        W10673   4.135   4.893   9.784
 6610W        W10674   5.905   1.379   9.815
 6611W        W10675   1.850   6.946   1.478
 6612W        W10676   4.992   1.666   2.513
 6613W        W10677   3.746   2.251   2.111
 6614W        W10678   6.932   6.299   9.468
 6615W        W10679   3.411   1.898  11.244
 6616W        W10680   1.817   0.858   0.635
 6617W        W10681   3.334   4.493   0.802
 6618W        W10682   9.763   4.219   2.955
 6619W        W10683   4.462  10.401   8.640
 6620W        W10684   0.262   6.199  10.270
 6621W        W10685   3.306   1.111   2.785
 6622W        W10686   1.783   5.699   8.705
 6623W        W10687   8.425   8.605   8.425
 6624W        W10688   5.094   1.413  10.689
 6625W        W10689   0.787   5.469   1.487
 6626W        W10690   9.258   8.210   2.879
 6627W        W10691   6.518   5.609  11.170
 6628W        W10692  10.368   5.959  11.300
 6629W        W10693   9.459   6.881   0.065
 6630W        W10694   9.673   2.502  11.512
 6631W        W10695   7.499   8.546   8.382
 6632W        W10696   7.954   1.409   9.355
 6633W        W10697   0.808   7.498   1.369
 6634W        W10698   0.899   3.593   0.278
 6635W        W10699   1.605   0.813  11.328
 6636W        W10700  10.282   7.460  11.304
 6637W        W10701   8.428   8.059  11.870
 6638W        W10702   7.020   2.277   3.558
 6639W        W10703   3.105   3.550  11.086
 6640W        W10704   0.335   5.812   1.008
 6641W        W10705   4.259   0.742  10.875
 6642W        W10706   7.972   6.956   0.434
 6643W        W10707   1.401   7.559  11.848
 6644W        W10708   4.961   3.516   9.883
 6645W        W10709   1.884   7.194   2.327
 6646W        W10710   1.281   6.304  11.302
 6647W        W10711   4.202   8.553   1.784
 6648W        W10712   4.965  10.306  10.141
 6649W        W10713   7.976   4.109  10.527
 6650W        W10714   8.911   2.790   9.532
 6651W        W10715   2.410   6.175   9.040
 6652W        W10716   1.023   8.509  10.712
 6653W        W10717   8.998   9.952   1.966
 6654W        W10718   1.258   9.021   3.046
 6655W        W10719   7.244   3.955   9.269
 6656W        W10720   7.165   0.500   0.126
 6657W        W10721   8.719  10.408   9.985
 6658W        W10722   2.739   6.884   2.258
 6659W        W10723   4.746   7.358  11.144
 6660W        W10724   2.205   3.705   0.664
 6661W        W10725   4.764   3.600   1.007
 6662W        W10726   9.276   1.799   3.596
 6663W        W10727   9.881   3.796  10.959
 6664W        W10728   6.423   9.572   3.326
 6665W        W10729   3.314   4.584   2.733
 6666W        W10730   3.285   7.042   0.173
 6667W        W10731   6.719   9.573   0.855
 6668W        W10732   5.646   9.237   3.353
 6669W        W10733   4.253   1.305   0.697
 6670W        W10734   8.818   3.779  11.718
 6671W        W10735  10.039   2.223   0.211
 6672W        W10736   6.087   0.913   8.959
 6673W        W10737   6.335   0.766   3.543
 6674W        W10738   9.126   1.465   1.697
 6675W        W10739   2.294  10.232  11.439
 6676W        W10740   0.692   7.855   9.628
 6677W        W10741   4.335   3.092   2.286
 6678W        W10742   2.459   9.700   9.587
 6679W        W10743   0.782   1.927   1.817
 6680W        W10744   5.567   9.825   2.716
 6681W        W10745   0.027   0.684   2.679
 6682W        W10746   0.373   5.001  10.240
 6683W        W10747   2.841   7.414   9.895
 6684W        W10748   8.677   1.236   1.953
 6685W        W10749  10.011   4.852   3.239
 6686W        W10750  10.138   8.699   2.913
 6687W        W10751   2.664   6.242   9.820
 6688W        W10752   6.639   5.725  10.697
 6689W        W10753   2.160   8.235  11.884
 6690W        W10754   5.287   6.925  10.041
 6691W        W10755   0.225   6.005   2.924
 6692W        W10756   1.038   7.629  11.470
 6693W        W10757   8.127   3.508   0.752
 6694W        W10758  10.450  10.211  11.325
 6695W        W10759   0.568   9.460   2.897
 6696W        W10760   6.473   2.339  10.482
 6697W        W10761   4.217   7.076  11.676
 6698W        W10762   6.387   5.123   2.738
 6699W        W10763   2.223   1.625   0.655
 6700W        W10764   9.072   1.892   8.938
 6701W        W10765   2.231   2.680   3.072
 6702W        W10766   0.369   3.601   1.254
 6703W        W10767   8.834   8.610   9.623
 6704W        W10768   5.993   2.335   0.249
 6705W        W10769   6.327   9.797   1.717
 6706W        W10770   2.562   7.334  10.749
 6707W        W10771   3.233   8.897   0.539
 6708W        W10772   3.319   4.197  10.268
 6709W        W10773   0.008   8.444   9.027
 6710W        W10774   7.410  10.190   0.967
 6711W        W10775   3.148   1.852   9.902
 6712W        W10776   8.070   3.134   2.502
 6713W        W10777   6.037   4.610   8.608
 6714W        W10778   4.598   4.097   1.816
 6715W        W10779   0.175   9.007   8.879
 6716W        W10780   4.128   3.270   2.740
 6717W        W10781   2.666   5.679  11.261
 6718W        W10782   7.077  10.476   0.722
 6719W        W10783   2.288   1.163   0.846
 6720W        W10784   3.833   5.461   2.447
 6721W        W10785   4.019   4.137   9.478
 6722W        W10786   9.831   5.947   1.867
 6723W        W10787   3.229  10.225  11.069
 6724W        W10788   0.033   7.583   0.732
 6725W        W10789   4.118   5.949  10.925
 6726W        W10790   6.993   3.358  11.070
 6727W        W10791   1.271   9.934   2.895
 6728W        W10792   7.407  10.440   9.517
 6729W        W10793   2.337   7.550   3.244
 6730W        W10794  10.313   1.174   8.846
 6731W        W10795   5.181   6.039   1.323
 6732W        W10796   8.318   3.082   3.376
 6733W        W10797   9.875   7.014   3.401
 6734W        W10798   6.986   9.983   3.122
 6735W        W10799   4.284   1.671   1.395
 6736W        W10800   6.560   3.556  11.551
 6737W        W10801   1.338  10.015   0.946
 6738W        W10802   3.662   5.754   8.871
 6739W        W10803   9.968   3.364   0.771
 6740W        W10804   4.477   7.916   2.419
 6741W        W10805   6.519   5.708   1.126
 6742W        W10806   0.909   6.187   0.379
 6743W        W10807   0.883   5.973   1.294
 6744W        W10808  10.334   3.990   0.640
 6745W        W10809   6.563   7.034   2.216
 6746W        W10810   9.519  10.250  10.281
 6747W        W10811   9.593   2.410   2.946
 6748W        W10812   6.371   1.739   1.917
 6749W        W10813   2.185   8.966   0.723
 6750W        W10814   5.078   7.199   0.766
 6751W        W10815   3.274   6.090   1.894
 6752W        W10816   7.564  10.078   0.487
 6753W        W10817   0.389   9.427   0.405
 6754W        W10818   7.002   4.246   8.915
 6755W        W10819   5.689   6.039   1.465
 6756W        W10820   9.185   3.292  11.925
 6757W        W10821   6.558   8.640  10.084
 6758W        W10822   4.650   8.474  10.945
 6759W        W10823   9.953   3.836   3.212
 6760W        W10824   5.113   0.863  11.928
 6761W        W10825   0.242   5.849   9.749
 6762W        W10826   5.544   1.166   1.089
 6763W        W10827   4.227   3.565   3.151
 6764W        W10828   2.275   6.724   3.038
 6765W        W10829   7.664   0.858  10.932
 6766W        W10830   6.863   9.440   2.456
 6767W        W10831  10.253   7.932   9.223
 6768W        W10832   2.631   8.781   2.115
 6769W        W10833   8.976   6.674   0.054
 6770W        W10834   1.608   8.989   1.049
 6771W        W10835   7.999   0.441   0.037
 6772W        W10836   2.314   4.720   1.226
 6773W        W10837   2.594   9.848   1.458
 6774W        W10838   6.643   5.382  10.336
 6775W        W10839   7.531   2.835   8.509
 6776W        W10840   8.855   1.783   0.777
 6777W        W10841   1.231   5.448  10.901
 6778W        W10842   5.309   6.486  11.424
 6779W        W10843   2.359   8.665   1.135
 6780W        W10844   5.483   0.421   9.909
 6781W        W10845   8.865   2.584   2.426
 6782W        W10846   6.678   9.000   8.958
 6783W        W10847   5.443   7.134   9.602
 6784W        W10848   0.304   8.283   8.625
 6785W        W10849   8.568   4.264   0.729
 6786W        W10850   8.930   3.125  10.438
 6787W        W10851   5.144   0.875   3.159
 6788W        W10852   7.632   1.254   0.110
 6789W        W10853   7.642   9.153   0.888
 6790W        W10854   5.559   4.341  10.734
 6791W        W10855   9.808   2.890   0.926
 6792W        W10856   1.763  10.227   0.750
 6793W        W10857   2.393   4.667   1.741
 6794W        W10858   6.342   8.346   0.355
 6795W        W10859   0.258   4.556   1.492
 6796W        W10860   5.209   2.910   1.608
 6797W        W10861   6.765   9.500   9.055
 6798W        W10862   3.484   8.533   3.083
 6799W        W10863   1.448   8.614  10.407
 6800W        W10864   8.875   6.669   2.052
 6801W        W10865   1.725   8.607   3.167
 6802W        W10866   5.161   4.127   3.323
 6803W        W10867   8.180   9.555   3.499
 6804W        W10868   6.187   9.846  10.077
 6805W        W10869   7.798   5.922  10.071
 6806W        W10870   4.166   0.881   0.381
 6807W        W10871   9.849   7.461   9.329
 6808W        W10872   4.288   0.412   0.227
 6809W        W10873   7.126   6.048   8.585
 6810W        W10874   1.253   9.853  10.785
 6811W        W10875   9.376   0.555  11.945
 6812W        W10876  10.258   5.770   0.224
 6813W        W10877   1.640   0.760   3.353
 6814W        W10878   2.458   4.612   0.728
 6815W        W10879   5.537   7.963   9.799
 6816W        W10880   5.188   5.657  10.410
 6817W        W10881   4.709   9.134   9.697
 6818W        W10882   8.333   3.274  11.276
 6819W        W10883  10.055  10.446   9.464
 6820W        W10884   6.881   8.962   1.669
 6821W        W10885   3.247   0.195  10.813
 6822W        W10886   4.473   8.076  10.693
 6823W        W10887   6.812   4.281  11.704
 6824W        W10888   9.846   4.719   2.306
 6825W        W10889   5.780   6.144   0.102
 6826W        W10890   5.119   1.393   1.809
 6827W        W10891   3.558   4.658  10.402
 6828W        W10892   5.687   8.403  11.377
 6829W        W10893   4.572   1.011   2.918
 6830W        W10894   0.551   3.321   2.821
 6831W        W10895   0.133   8.893   9.370
 6832W        W10896   4.967   1.690   0.043
 6833W        W10897  10.349   3.277   1.666
 6834W        W10898   8.997   0.921   8.964
 6835W        W10899   6.429   0.322  10.400
 6836W        W10900   3.328   9.594   0.107
 6837W        W10901   9.946   4.190   2.464
 6838W        W10902  10.288   2.232   2.459
 6839W        W10903   1.200   3.078   1.598
 6840W        W10904   2.983   1.740  11.490
 6841W        W10905   5.419   5.686   2.364
 6842W        W10906   8.866   3.678   9.466
 6843W        W10907   0.769   3.294   3.301
 6844W        W10908   3.948   8.924  11.966
 6845W        W10909   9.396   7.039   3.591
 6846W        W10910   6.628   5.420   1.955
 6847W        W10911   7.590   0.580   1.344
 6848W        W10912   5.608   6.989   2.316
 6849W        W10913   7.131   1.308   0.201
 6850W        W10914   5.431  10.405   0.290
 6851W        W10915   8.558  10.211   8.667
 6852W        W10916   8.898   7.154   0.236
 6853W        W10917   4.069   7.134  10.889
 6854W        W10918   8.840   5.097   9.832
 6855W        W10919   3.736   5.080   9.101
 6856W        W10920   0.380   2.231  11.926
 6857W        W10921   7.182   8.792   8.746
 6858W        W10922   0.097   9.414   3.480
 6859W        W10923   0.296   1.723  11.714
 6860W        W10924   1.770   2.108  11.608
 6861W        W10925   7.562   1.942   8.367
 6862W        W10926   3.985   3.997   3.089
 6863W        W10927   3.281  10.278  11.585
 6864W        W10928   7.574   1.672  10.275
 6865W        W10929   9.298   5.091   3.443
 6866W        W10930   9.589  10.005   0.745
 6867W        W10931   0.583   3.316  11.292
 6868W        W10932   1.773   2.631   9.010
 6869W        W10933   4.925   6.063   3.270
 6870W        W10934   9.811   6.817   2.323
 6871W        W10935   2.469   5.534   2.226
 6872W        W10936   5.012   1.746   3.090
 6873W        W10937   6.752   2.586   0.836
 6874W        W10938   5.455   2.211   9.592
 6875W        W10939   6.421   1.168   9.747
 6876W        W10940   7.955   2.280  11.877
 6877W        W10941   1.309   2.847   8.962
 6878W        W10942   1.281   7.363   0.332
 6879W        W10943   4.932   1.875   0.885
 6880W        W10944   0.836   4.265  10.823
 6881W        W10945   7.369   9.114  11.170
 6882W        W10946  10.048   5.230   9.325
 6883W        W10947   4.329   3.124  11.866
 6884W        W10948   3.393   1.304   0.251
 6885W        W10949   9.939   5.372   9.902
 6886W        W10950   7.490   4.072   3.856
 6887W        W10951   6.257   4.045   2.179
 6888W        W10952   2.097   1.895   1.981
 6889W        W10953   0.623   7.555   2.339
 6890W        W10954   6.429   3.280   8.989
 6891W        W10955   9.677   6.904   1.819
 6892W        W10956   5.674   8.860   3.008
 6893W        W10957  10.453   1.390   2.473
 6894W        W10958   0.324   4.228   2.042
 6895W        W10959   3.957   1.773  11.733
 6896W        W10960   0.374   1.775  10.308
 6897W        W10961   6.640   3.718   2.984
 6898W        W10962   8.605   5.537   0.814
 6899W        W10963   7.951   4.838   3.559
 6900W        W10964   7.152   9.427  11.994
 6901W        W10965   1.782   6.153  11.225
 6902W        W10966   2.615   7.943  11.986
 6903W        W10967   8.500   0.906  11.565
 6904W        W10968  10.095   5.496  10.480
 6905W        W10969   8.479   5.636   3.149
 6906W        W10970   3.696   0.245   9.554
 6907W        W10971   6.040   9.443   1.987
 6908W        W10972   0.837   0.662   8.464
 6909W        W10973   0.509  10.308   8.751
 6910W        W10974   8.981   9.304   8.721
 6911W        W10975   6.158   1.371  11.736
 6912W        W10976   0.057   8.505  10.417
 6913W        W10977   6.508   9.807  10.948
 6914W        W10978   2.684   2.639   8.900
 6915W        W10979   7.903   2.959  11.268
 6916W        W10980   0.871   3.528   9.204
 6917W        W10981   6.647   4.472  10.488
 6918W        W10982   2.590   5.134  11.009
 6919W        W10983   8.615   5.575  11.681
 6920W        W10984   4.422   1.326   0.232
 6921W        W10985   5.215   6.223   0.810
 6922W        W10986   6.444  10.054   8.194
 6923W        W10987   4.231   5.700   2.771
 6924W        W10988   9.970   7.995  10.111
 6925W        W10989   2.412   7.746   0.723
 6926W        W10990   9.007   3.621   1.177
 6927W        W10991   7.359   5.408  11.824
 6928W        W10992   8.324   3.675  11.850
 6929W        W10993   6.474   7.115   9.599
 6930W        W10994   9.939   7.084   0.097
 6931W        W10995   3.785   5.520   2.958
 6932W        W10996  10.485   0.900  11.893
 6933W        W10997   7.626  10.284   2.975
 6934W        W10998   5.101  10.430   3.338
 6935W        W10999   9.550   4.230   1.223
 6936W        W11000   7.567   4.691   3.206
 6937W        W11001   3.219  10.345   2.441
 6938W        W11002   6.940   3.134   3.686
 6939W        W11003   9.362   8.332  10.964
 6940W        W11004   7.997   7.076   3.330
 6941W        W11005   7.527   7.827   9.389
 6942W        W11006   8.444   3.359   2.811
 6943W        W11007   4.606   3.551   2.092
 6944W        W11008   6.443   4.927  10.445
 6945W        W11009   7.558   1.436   1.528
 6946W        W11010   6.035   4.589   0.560
 6947W        W11011   3.834   7.292   2.833
 6948W        W11012   8.575   0.670   1.699
 6949W        W11013   8.522   1.413  11.390
 6950W        W11014   1.242   4.708   1.349
 6951W        W11015   7.467   7.758  11.901
 6952W        W11016  10.319   2.735   9.130
 6953W        W11017   7.945   9.918   2.799
 6954W        W11018   4.485   6.614   2.200
 6955W        W11019   0.825   4.711   0.844
 6956W        W11020   7.067   4.727  11.540
 6957W        W11021   5.205   2.228  10.590
 6958W        W11022   1.699   4.711   0.448
 6959W        W11023   8.530  10.233   1.269
 6960W        W11024   0.117   8.018   1.008
 6961W        W11025   4.628   7.419  10.294
 6962W        W11026   8.410   9.013  11.522
 6963W        W11027   7.206   9.207   9.051
 6964W        W11028   6.275   6.082   9.959
 6965W        W11029   9.886  10.419   8.931
 6966W        W11030   5.944   1.911   0.607
 6967W        W11031   2.768   2.753   0.487
 6968W        W11032   0.286   5.161   2.159
 6969W        W11033   4.074   9.040   1.918
 6970W        W11034   1.881   5.098   1.674
 6971W        W11035   9.024   4.076   0.925
 6972W        W11036   0.405   5.603   0.527
 6973W        W11037   6.711   4.232   3.277
 6974W        W11038  10.486   7.872   3.473
 6975W        W11039   1.986   1.728  10.108
 6976W        W11040   7.596   0.678   3.097
 6977W        W11041   7.610   2.010   3.724
 6978W        W11042   1.218   8.636  11.688
 6979W        W11043   2.786   5.309  10.012
 6980W        W11044   2.412   2.610   3.539
 6981W        W11045  10.333   2.157   1.493
 6982W        W11046   6.020   1.710   8.638
 6983W        W11047   9.371   8.608   1.104
 6984W        W11048   0.760   3.711   0.787
 6985W        W11049   4.178   7.444   1.552
 6986W        W11050   6.328   4.668   0.142
 6987W        W11051   3.554   1.934   9.528
 6988W        W11052   3.084   6.352   3.989
 6989W        W11053   8.611   4.857   2.674
 6990W        W11054   9.386   0.117   8.976
 6991W        W11055   3.637   4.162   1.614
 6992W        W11056   1.602   4.208   0.777
 6993W        W11057   3.391   7.417   9.245
 6994W        W11058   9.901   9.066   9.457
 6995W        W11059   5.643   4.532   0.888
 6996W        W11060   2.232   4.694  10.345
 6997W        W11061  10.021   2.118  10.669
 6998W        W11062   9.246   9.848  11.802
 6999W        W11063   5.112  10.047   0.501
 7000W        W11064   1.206   0.324   2.532
 7001W        W11065   7.480   0.983  11.475
 7002W        W11066   9.976   2.288  11.171
 7003W        W11067   3.381   1.815  10.370
 7004W        W11068   7.993   4.800   9.988
 7005W        W11069   9.376   7.564   2.877
 7006W        W11070   6.396   0.351   2.903
 7007W        W11071   1.721   4.879   9.420
 7008W        W11072   3.647   1.448   9.381
 7009W        W11073   9.912   8.049   0.441
 7010W        W11074   8.843   1.009   0.376
 7011W        W11075   5.499   7.189  10.474
 7012W        W11076   2.395   9.442   0.680
 7013W        W11077   3.841   4.239  10.407
 7014W        W11078   4.800   4.263   2.268
 7015W        W11079   4.601   2.418   0.152
 7016W        W11080   8.435   5.565   0.154
 7017W        W11081   3.668  10.060  11.309
 7018W        W11082   9.069   4.785  11.342
 7019W        W11083   9.637   7.082   9.930
 7020W        W11084   4.581   8.626   8.867
 7021W        W11085   4.801   4.030  10.333
 7022W        W11086   1.956   0.784   9.003
 7023W        W11087   8.449  10.047   2.664
 7024W        W11088  10.210   5.649   3.581
 7025W        W11089   5.210   2.217   3.183
 7026W        W11090   6.909   5.537   0.033
 7027W        W11091   2.245   0.019   9.031
 7028W        W11092   8.116   5.082   2.566
 7029W        W11093   8.306   0.600  10.365
 7030W        W11094  10.015   5.268   8.807
 7031W        W11095   9.233   9.034  10.351
 7032W        W11096  10.045   4.618   2.765
 7033W        W11097   9.010   4.664  10.152
 7034W        W11098   5.766   4.807   1.289
 7035W        W11099   7.238   6.416   3.298
 7036W        W11100   1.680   3.586   9.797
 7037W        W11101   7.559   4.865   2.223
 7038W        W11102   3.736   1.797   9.022
 7039W        W11103   8.523   5.400   2.628
 7040W        W11104   4.081   9.950   3.153
 7041W        W11105   4.227   2.921   1.497
 7042W        W11106   7.106   4.550   3.406
 7043W        W11107   6.938   6.946  11.487
 7044W        W11108   9.784   4.501   0.253
 7045W        W11109   6.640   4.132   1.838
 7046W        W11110   2.637   6.816  10.863
 7047W        W11111   6.896   9.586   0.379
 7048W        W11112   1.662   3.488   8.494
 7049W        W11113  10.352   4.080   8.331
 7050W        W11114   5.445   9.529   8.975
 7051W        W11115   8.947   7.575   9.755
 7052W        W11116   1.307   3.831   0.070
 7053W        W11117   1.164   4.711   8.519
 7054W        W11118   4.553   3.595   9.084
 7055W        W11119   5.547   1.569   8.511
 7056W        W11120   0.871   7.919  10.102
 7057W        W11121  10.444  10.486  11.825
 7058W        W11122   1.452   2.278   1.388
 7059W        W11123   7.369   9.433   2.291
 7060W        W11124   5.530   6.705  11.955
 7061W        W11125   8.852   2.406   0.070
 7062W        W11126   6.291   2.908   8.575
 7063W        W11127   8.942   0.685  11.733
 7064W        W11128   0.299   4.489  11.478
 7065W        W11129   4.703   6.676   8.578
 7066W        W11130   6.714   6.766   9.304
 7067W        W11131   0.564   1.164   0.330
 7068W        W11132   9.260   2.414  11.788
 7069W        W11133   5.298   1.852  11.670
 7070W        W11134   1.185   1.800  11.864
 7071W        W11135   0.004   4.287   9.594
 7072W        W11136   1.018   3.285   2.418
 7073W        W11137   2.711   7.916   1.464
 7074W        W11138   3.274   6.043   9.062
 7075W        W11139   9.822   2.225   2.213
 7076W        W11140   4.281   2.198   1.460
 7077W        W11141   6.518   6.283   1.724
 7078W        W11142   3.065   6.559   2.002
 7079W        W11143   5.449   6.488   2.651
 7080W        W11144   0.822   9.846   3.109
 7081W        W11145   2.758   0.322   3.556
 7082W        W11146   7.887   2.049   0.953
 7083W        W11147   0.475   6.696   0.913
 7084W        W11148   2.209   1.249  10.510
 7085W        W11149   8.450   0.538   1.128
 7086W        W11150   7.886   1.844   1.721
 7087W        W11151   6.480   5.891   2.090
 7088W        W11152   6.700  10.402   2.866
 7089W        W11153   6.990   6.419   2.675
 7090W        W11154   4.286   2.150  11.866
 7091W        W11155   6.502   9.319   1.796
 7092W        W11156   6.100   2.728   2.724
 7093W        W11157   0.706   8.572  11.591
 7094W        W11158   2.280   7.213   1.442
 7095W        W11159   4.172  10.017  11.251
 7096W        W11160  10.295   6.648   2.303
 7097W        W11161  10.335   1.804  11.550
 7098W        W11162   9.290   4.215  10.064
 7099W        W11163   1.302   6.939  11.055
 7100W        W11164   3.734   7.497  10.538
 7101W        W11165   1.308   1.573  11.424
 7102W        W11166   9.582   0.026  11.217
 7103W        W11167   1.143   1.705  10.958
 7104W        W11168   0.366   3.280   1.772
 7105W        W11169   6.523   4.655   0.814
 7106W        W11170   0.034   9.103   0.177
 7107W        W11171   1.833   3.157   1.202
 7108W        W11172   9.879   7.489  10.843
 7109W        W11173   1.437   9.812   0.452
 7110W        W11174   1.602   4.321   1.905
 7111W        W11175   4.668   1.012   1.169
 7112W        W11176   6.876   6.653   1.326
 7113W        W11177   2.819   6.997  10.409
 7114W        W11178   3.539   7.021   9.597
 7115W        W11179   5.108   0.564   1.489
 7116W        W11180   1.990   4.272   0.441
 7117W        W11181   2.761   9.352   9.361
 7118W        W11182   9.232   8.955   3.565
 7119W        W11183   8.426   7.667   8.946
 7120W        W11184   4.048   7.004   9.576
 7121W        W11185   4.338   6.251   4.097
 7122W        W11186   0.811   0.393   1.849
 7123W        W11187   9.477   2.456   0.901
 7124W        W11188   9.851   5.040   1.526
 7125W        W11189   2.550   7.819   9.984
 7126W        W11190  10.212   0.476   3.064
 7127W        W11191   2.854   0.204   1.754
 7128W        W11192   3.345   4.782  11.052
 7129W        W11193   3.572   6.215   8.660
 7130W        W11194   9.550   2.503  11.011
 7131W        W11195   9.640   8.650   2.855
 7132W        W11196   5.492   9.349   9.487
 7133W        W11197   8.455   8.596   9.972
 7134W        W11198   7.861   5.414   8.861
 7135W        W11199   6.997   2.684   2.249
 7136W        W11200   2.642   1.862   2.645
 7137W        W11201   9.783   7.543  11.417
 7138W        W11202   6.945   3.492   9.189
 7139W        W11203   2.283   3.477  10.676
 7140W        W11204   9.178   9.142   0.441
 7141W        W11205   6.566   0.020   8.931
 7142W        W11206   9.010   2.071  10.859
 7143W        W11207   0.914   7.126  11.418
 7144W        W11208   1.416   5.590   3.277
 7145W        W11209   0.342   2.908   9.315
 7146W        W11210  10.310   5.994  10.471
 7147W        W11211   9.146   5.167   9.427
 7148W        W11212   0.515   3.241   2.306
 7149W        W11213   7.467   2.206  11.721
 7150W        W11214   0.201   1.419   3.467
 7151W        W11215  10.265   4.233  10.929
 7152W        W11216  10.376   2.927   9.618
 7153W        W11217   5.480   7.860   0.286
 7154W        W11218   4.775   7.348   1.285
 7155W        W11219   4.623   2.844   0.440
 7156W        W11220   2.371   7.418  11.244
 7157W        W11221   9.317  10.030   2.801
 7158W        W11222   6.535   5.264   3.643
 7159W        W11223   3.621   0.244   3.531
 7160W        W11224   6.214   5.714  10.377
 7161W        W11225   2.589   0.183   0.008
 7162W        W11226   1.448   4.905   1.821
 7163W        W11227   1.860   8.921   9.805
 7164W        W11228  10.253   1.093  10.985
 7165W        W11229   4.290   4.720   0.957
 7166W        W11230   1.814  10.385  11.152
 7167W        W11231   0.399   6.205   0.659
 7168W        W11232   6.784   1.681   0.899
 7169W        W11233   0.912   3.860  11.741
 7170W        W11234   6.076   3.352   8.026
 7171W        W11235   3.590   6.632   0.197
 7172W        W11236   6.983   5.015   9.380
 7173W        W11237   7.346   9.499  11.530
 7174W        W11238   4.629   9.604   1.040
 7175W        W11239   2.602   4.711  10.730
 7176W        W11240   5.470   7.028   4.017
 7177W        W11241   9.737   7.529   2.210
 7178W        W11242   9.729   2.992  11.340
 7179W        W11243   6.233   5.275   1.280
 7180W        W11244   0.323   3.159  10.312
 7181W        W11245   0.496   8.576   9.504
 7182W        W11246   3.786   8.477   2.316
 7183W        W11247   9.602   8.774   2.142
 7184W        W11248   8.346   2.291  11.489
 7185W        W11249   0.176   2.156  10.003
 7186W        W11250   4.974   0.404   9.147
 7187W        W11251   5.110   7.704   0.628
 7188W        W11252  10.041  10.280   0.806
 7189W        W11253   2.317   6.447  10.722
 7190W        W11254   4.985   5.336   1.645
 7191W        W11255   9.468   1.359   1.331
 7192W        W11256   1.891   4.431  11.477
 7193W        W11257   7.705   6.656  11.349
 7194W        W11258   6.648   5.253   3.145
 7195W        W11259   1.253   5.899   1.958
 7196W        W11260   7.146   4.021   3.061
 7197W        W11261   1.815   6.170   0.240
 7198W        W11262   7.558   7.281   2.392
 7199W        W11263   5.548   9.426  10.466
 7200W        W11264   2.682   6.386   2.327
 7201W        W11265   4.057   9.052   0.479
 7202W        W11266   6.098   2.382   0.742
 7203W        W11267   0.803   8.086   2.239
 7204W        W11268   3.183   6.523   8.838
 7205W        W11269   1.693   8.835   8.930
 7206W        W11270   1.314   5.204  10.438
 7207W        W11271   5.591   2.816   2.831
 7208W        W11272   3.230   1.843   0.491
 7209W        W11273   1.612   6.993   1.935
 7210W        W11274   6.213   3.033   9.371
 7211W        W11275   4.826   8.014   3.588
 7212W        W11276   7.514   9.572   9.255
 7213W        W11277   6.664   1.723   2.349
 7214W        W11278   2.800   2.831   9.871
 7215W        W11279  10.264   2.807  10.528
 7216W        W11280   1.777   6.907  11.269
 7217W        W11281   5.939   8.092  11.024
 7218W        W11282   4.149   5.748   2.134
 7219W        W11283   9.923   7.599   1.304
 7220W        W11284   0.822   9.428  10.040
 7221W        W11285   4.189   5.590  11.259
 7222W        W11286   1.342   8.154  11.564
 7223W        W11287   8.608   3.749   1.458
 7224W        W11288   6.887   0.910   0.403
 7225W        W11289   4.733   5.400  10.427
 7226W        W11290   9.868   8.016   2.304
 7227W        W11291   7.108  10.294   8.702
 7228W        W11292   8.115   8.185  11.320
 7229W        W11293   3.034   2.357  10.027
 7230W        W11294   7.591   6.875  10.886
 7231W        W11295   4.092   4.280   9.962
 7232W        W11296  10.286   6.217   0.465
 7233W        W11297   6.406   9.670   2.577
 7234W        W11298   5.059   9.578  11.745
 7235W        W11299   8.682   4.392   2.439
 7236W        W11300   1.608   7.265   2.757
 7237W        W11301   7.486   7.048   3.296
 7238W        W11302   9.413   5.210   1.287
 7239W        W11303   8.290   9.175   2.365
 7240W        W11304   0.324   8.162  11.592
 7241W        W11305   9.778   1.819   3.619
 7242W        W11306   8.445   8.340   2.266
 7243W        W11307   6.969   4.669   8.601
 7244W        W11308   0.606   7.177   1.016
 7245W        W11309   0.775  10.437  10.971
 7246W        W11310   4.169   9.333   2.328
 7247W        W11311   6.516   2.141   0.910
 7248W        W11312   0.790   6.993  10.277
 7249W        W11313   2.836   5.859   3.941
 7250W        W11314   4.075   6.630  11.426
 7251W        W11315   5.940   6.912  10.507
 7252W        W11316   8.356   8.577   9.456
 7253W        W11317   9.426   0.632   9.054
 7254W        W11318   8.103   5.182   0.326
 7255W        W11319   4.784   4.187   0.277
 7256W        W11320   9.884   0.856  10.303
 7257W        W11321   2.922   6.629   9.480
 7258W        W11322   6.857   5.919   0.361
 7259W        W11323  10.367   6.573   1.746
 7260W        W11324   7.386   4.465   9.849
 7261W        W11325   7.966   3.237   3.003
 7262W        W11326   1.385   4.698   0.032
 7263W        W11327   6.281   0.420   1.078
 7264W        W11328   3.108   0.845  10.176
 7265W        W11329   9.494   8.077   1.603
 7266W        W11330   2.117   4.994   0.614
 7267W        W11331   4.212   9.373  11.881
 7268W        W11332   2.804   6.969   0.939
 7269W        W11333   2.749   3.836  11.429
 7270W        W11334   1.704  10.333   9.715
 7271W        W11335   0.892   5.522   8.616
 7272W        W11336   5.946   6.886   3.323
 7273W        W11337   7.406   7.572   0.394
 7274W        W11338   5.197   0.535   2.275
 7275W        W11339   3.289   9.691  11.132
 7276W        W11340   9.257   7.071  10.332
 7277W        W11341   4.978   5.576   0.283
 7278W        W11342   1.767   1.409  11.263
 7279W        W11343   0.548   5.182   8.893
 7280W        W11344   5.741   9.415   0.919
 7281W        W11345   5.022   6.985  11.379
 7282W        W11346   0.863   9.894   1.678
 7283W        W11347   1.684   9.788   8.991
 7284W        W11348   8.981   6.619   9.551
 7285W        W11349   9.908   2.661  11.967
 7286W        W11350   7.936   8.366   8.564
 7287W        W11351   1.976   5.648   2.311
 7288W        W11352   7.880   7.471   9.232
 7289W        W11353   5.481   5.721   9.022
 7290W        W11354   0.308   3.553   9.980
 7291W        W11355  10.362   6.581  11.819
 7292W        W11356   3.335   3.066  11.990
 7293W        W11357   4.555   7.707   9.891
 7294W        W11358   8.421   2.113  11.970
 7295W        W11359   6.530   7.517  10.648
 7296W        W11360   2.858   2.292   2.879
 7297W        W11361   7.405   2.085   9.751
 7298W        W11362   3.643   5.025   9.606
 7299W        W11363   9.400   7.880   2.488
 7300W        W11364   5.950   8.657   0.329
 7301W        W11365   3.594   3.819   9.414
 7302W        W11366   0.276   6.563   2.162
 7303W        W11367   2.370   5.130   9.307
 7304W        W11368   9.782   8.105   1.202
 7305W        W11369   9.337  10.097   8.896
 7306W        W11370   7.370   1.761  11.969
 7307W        W11371   1.487   3.164   2.934
 7308W        W11372   0.784  10.305  10.092
 7309W        W11373   0.902   7.592   3.601
 7310W        W11374   1.241   1.298   9.082
 7311W        W11375   8.090   0.336   9.069
 7312W        W11376   5.079   0.746   0.995
 7313ION    NA+11377   6.471   4.879   8.702
 7314ION    NA+11378   1.849  10.071   2.206
 7315ION    NA+11379   7.759   7.054  11.703
 7316ION    NA+11380   9.055   5.947   1.376
 7317ION    NA+11381   5.516   3.592   9.485
 7318ION    NA+11382   7.903   4.756   0.134
 7319ION    NA+11383   5.515   4.058   0.961
 7320ION    NA+11384   6.226   1.437  10.723
 7321ION    NA+11385   2.611   8.338   9.881
 7322ION    NA+11386   2.740   4.603  10.256
 7323ION    NA+11387   1.505   2.362  10.633
 7324ION    NA+11388  10.104   4.990  11.456
 7325ION    NA+11389   2.682   0.364  10.294
 7326ION    NA+11390   0.605   9.103   9.408
 7327ION    NA+11391   5.157   4.587   2.631
 7328ION    NA+11392   4.195   8.548   0.224
 7329ION    NA+11393   7.468   4.356   2.322
 7330ION    NA+11394   1.134   7.635   2.296
 7331ION    NA+11395   8.833   0.614   9.584
 7332ION    NA+11396   3.714   2.629  10.082
 7333ION    NA+11397   7.319   1.302   1.960
 7334ION    NA+11398   4.996   3.256   0.661
 7335ION    NA+11399   4.219   5.406   0.513
 7336ION    NA+11400   0.626   8.413  11.105
 7337ION    NA+11401   0.656   2.725   1.090
 7338ION    NA+11402   8.278   1.532   1.790
 7339ION    NA+11403   0.805   2.703   9.773
 7340ION    NA+11404   1.511   2.732   0.022
 7341ION    NA+11405   7.083   9.032   9.883
 7342ION    NA+11406   8.564   6.218   3.054
 7343ION    NA+11407   2.931   9.506   2.711
 7344ION    NA+11408   8.941   9.149   2.639
 7345ION    NA+11409   2.400   2.140  11.019
 7346ION    NA+11410   0.928   5.162  11.983
 7347ION    NA+11411   9.659   2.095  11.831
 7348ION    NA+11412   7.058   7.184   0.370
 7349ION    NA+11413   2.301   1.254   9.965
 7350ION    NA+11414   4.986   4.089  11.777
 7351ION    NA+11415   6.558   7.763   9.044
 7352ION    NA+11416   8.630   8.239  11.408
 7353ION    NA+11417   2.699   6.481   0.333
 7354ION    NA+11418   1.666   5.204   2.717
 7355ION    NA+11419   5.151   8.227   0.911
 7356ION    NA+11420   5.639   6.088  11.211
 7357ION    NA+11421   3.044   7.122   9.511
 7358ION    NA+11422   6.716   9.147   3.243
 7359ION    NA+11423   1.713   7.080  10.783
 7360ION    NA+11424  10.483   1.607   9.118
 7361ION    NA+11425   1.427   8.290   0.566
 7362ION    NA+11426   7.869   8.716   9.352
 7363ION    NA+11427   8.384   9.074  10.915
 7364ION    NA+11428   4.405   1.501  11.416
 7365ION    NA+11429   3.118   2.872  11.290
 7366ION    NA+11430   3.805   3.878   0.661
 7367ION    NA+11431   7.670   7.860   1.461
 7368ION    NA+11432   9.099   5.043   2.955
 7369ION    NA+11433   6.762   1.724   3.146
 7370ION    NA+11434   3.451   8.386  11.444
 7371ION    NA+11435   9.873   9.523   1.256
 7372ION    NA+11436   7.114   3.109   2.551
 7373ION    NA+11437   6.206   2.546   1.229
 7374ION    NA+11438   3.999   2.273   0.934
 7375ION    NA+11439   6.025   9.647   9.619
 7376ION    NA+11440   9.960   9.826  11.399
 7377ION    NA+11441   9.025  10.333  10.426
 7378ION    NA+11442   1.201   9.101   0.759
 7379ION    NA+11443   8.585   7.082   2.900
 7380ION    NA+11444   3.735   1.673   3.048
 7381ION    NA+11445   5.980   6.965   8.734
 7382ION    NA+11446   6.577   0.720   0.783
 7383ION    NA+11447   8.448   6.858   0.227
 7384ION    NA+11448   7.077   6.442  11.700
 7385ION    NA+11449   1.462   4.502   8.929
 7386ION    NA+11450   1.661   0.343  10.343
 7387ION    NA+11451   2.982   3.953   0.302
 7388ION    NA+11452   2.081   0.188  11.635
 7389ION    NA+11453   3.865  10.114   0.469
 7390ION    CL-11454   5.830   5.576   2.659
 7391ION    CL-11455   8.186   9.867   1.355
 7392ION    CL-11456   6.204   0.548   0.600
 7393ION    CL-11457   6.583   1.705  10.776
 7394ION    CL-11458   7.489   7.248   9.513
 7395ION    CL-11459  10.166   8.347   0.943
 7396ION    CL-11460   4.082   5.278   9.433
 7397ION    CL-11461   1.576   7.667   2.357
 7398ION    CL-11462   1.921   5.498  10.025
 7399ION    CL-11463   9.398   7.683   3.368
 7400ION    CL-11464   5.540   2.623  11.361
 7401ION    CL-11465   2.867   9.934   8.396
 7402ION    CL-11466   4.110   6.410  10.098
 7403ION    CL-11467   2.317   3.914   3.014
 7404ION    CL-11468   1.200   8.685   0.579
 7405ION    CL-11469  10.465   5.177   9.590
 7406ION    CL-11470   9.187   9.511   2.545
 7407ION    CL-11471   2.124   8.444   3.439
 7408ION    CL-11472  10.240   7.904   0.049
 7409ION    CL-11473   0.282   1.591   0.222
 7410ION    CL-11474   7.806   7.423   1.463
 7411ION    CL-11475   7.666   8.321   9.285
 7412ION    CL-11476   2.905   2.917  11.680
 7413ION    CL-11477   4.246   5.261   0.089
 7414ION    CL-11478   0.618   8.813   9.070
 7415ION    CL-11479   2.074   6.497   1.598
 7416ION    CL-11480   7.882   6.393   9.115
 7417ION    CL-11481   7.362   6.792  11.770
 7418ION    CL-11482   5.458   7.382  11.347
 7419ION    CL-11483   2.761   2.264   3.414
 7420ION    CL-11484   0.980   4.786  11.748
 7421ION    CL-11485   0.291   3.935   0.864
 7422ION    CL-11486   8.696   6.639   2.942
 7423ION    CL-11487   1.065   8.485  11.210
 7424ION    CL-11488  10.208  10.001  11.740
 7425ION    CL-11489   7.258   6.287   1.357
 7426ION    CL-11490   9.623   6.175   3.647
 7427ION    CL-11491   3.901   1.919   1.186
 7428ION    CL-11492   2.878   3.162   2.989
 7429ION    CL-11493   6.245   4.738   9.060
 7430ION    CL-11494   4.480   1.670  11.822
 7431ION    CL-11495   1.907   0.590  11.732
 7432ION    CL-11496   7.867   2.154  10.991
 7433ION    CL-11497   9.841   8.013   9.557
 7434ION    CL-11498   9.710   9.618  11.076
 7435ION    CL-11499   6.506   9.255   2.855
 7436ION    CL-11500  10.070   2.213  11.705
 7437ION    CL-11501   3.411   3.869   0.432
 7438ION    CL-11502   2.269   3.706   2.037
 7439ION    CL-11503   8.862   7.925  11.627
 7440ION    CL-11504   3.646   1.467   2.659
 7441ION    CL-11505  10.375   3.748  10.813
 7442ION    CL-11506   7.351   8.155   1.326
 7443ION    CL-11507   6.787   1.297   9.414
 7444ION    CL-11508   4.137   4.793   1.787
 7445ION    CL-11509   9.360   6.033   1.688
 7446ION    CL-11510   0.238   8.173  11.090
 7447ION    CL-11511   6.318   6.621   1.289
 7448ION    CL-11512   8.629   0.899   9.860
 7449ION    CL-11513   8.814   3.107  11.501
 7450ION    CL-11514   9.366   0.791  11.409
 7451ION    CL-11515   4.791   8.467   9.321
 7452ION    CL-11516   0.049   0.345   0.181
 7453ION    CL-11517   5.091   4.488  11.978
 7454ION    CL-11518   3.803  10.034   9.061
 7455ION    CL-11519   1.287   4.275   2.347
 7456ION    CL-11520   8.144   7.073  11.966
 7457ION    CL-11521   8.861   1.890   3.075
 7458ION    CL-11522   3.245   7.584  10.745
 7459ION    CL-11523   9.567   6.676  10.252
 7460ION    CL-11524   4.443   8.913   0.154
 7461ION    CL-11525   7.709   5.902   2.162
 7462ION    CL-11526   1.491   4.196  10.520
 7463ION    CL-11527   0.786   6.542   2.404
 7464ION    CL-11528   8.369   5.549   8.891
 7465ION    CL-11529  10.153   4.032   8.810
 7466ION    CL-11530   5.077   3.723  11.519
  10.50000  10.50000  12.00000
