Protein in INSANE! Membrane UpperLeaflet>POPC=1.0 LowerLeaflet>POPC=1.0
11125
    1AU     AUC    1   5.249   5.307   6.006
    1AU     AUC    2   5.528   5.319   5.831
    1AU     AUC    3   5.522   5.302   6.178
    1AU     AUC    4   4.966   5.296   5.837
    1AU     AUC    5   4.981   5.338   6.195
    1AU     AUC    6   5.070   5.583   6.003
    1AU     AUC    7   5.438   5.583   5.996
    1AU     AUC    8   5.065   5.041   6.010
    1AU     AUC    9   5.411   5.016   6.006
    1AU     AUC   10   5.250   5.137   6.287
    1AU     AUC   11   5.243   5.481   6.274
    1AU     AUC   12   5.248   5.139   5.727
    1AU     AUC   13   5.265   5.462   5.727
    1AU     AUC   14   5.842   5.323   5.661
    1AU     AUC   15   5.856   5.275   6.019
    1AU     AUC   16   5.804   5.279   6.356
    1AU     AUC   17   4.660   5.285   5.667
    1AU     AUC   18   4.640   5.326   6.032
    1AU     AUC   19   4.680   5.360   6.389
    1AU     AUC   20   4.897   5.888   5.976
    1AU     AUC   21   5.251   5.904   5.956
    1AU     AUC   22   5.629   5.864   5.986
    1AU     AUC   23   4.864   4.763   6.013
    1AU     AUC   24   5.213   4.708   6.005
    1AU     AUC   25   5.571   4.713   5.993
    1AU     AUC   26   5.233   4.962   6.584
    1AU     AUC   27   5.276   5.341   6.621
    1AU     AUC   28   5.265   5.674   6.559
    1AU     AUC   29   5.274   4.966   5.449
    1AU     AUC   30   5.267   5.298   5.393
    1AU     AUC   31   5.247   5.615   5.433
    1AU     AUC   32   5.524   5.118   6.502
    1AU     AUC   33   5.565   5.486   6.489
    1AU     AUC   34   5.584   5.164   5.500
    1AU     AUC   35   5.579   5.493   5.540
    1AU     AUC   36   4.946   5.179   6.526
    1AU     AUC   37   4.965   5.536   6.493
    1AU     AUC   38   4.951   5.114   5.542
    1AU     AUC   39   4.924   5.429   5.499
    1AU     AUC   40   5.785   5.591   5.855
    1AU     AUC   41   5.753   5.595   6.187
    1AU     AUC   42   4.752   5.593   5.830
    1AU     AUC   43   4.766   5.647   6.189
    1AU     AUC   44   5.718   4.999   5.827
    1AU     AUC   45   5.688   4.955   6.191
    1AU     AUC   46   4.730   4.997   5.857
    1AU     AUC   47   4.783   5.057   6.218
    1AU     AUC   48   5.072   5.840   6.267
    1AU     AUC   49   5.435   5.789   6.251
    1AU     AUC   50   5.049   4.836   6.314
    1AU     AUC   51   5.373   4.790   6.290
    1AU     AUC   52   5.063   5.736   5.689
    1AU     AUC   53   5.450   5.782   5.697
    1AU     AUC   54   5.055   4.831   5.710
    1AU     AUC   55   5.446   4.848   5.706
    1AU    AUSL   56   5.804   5.251   6.696
    1AU    AUSL   57   5.507   4.815   6.670
    1AU     AUL   58   5.829   4.846   6.840
    1AU       S   59   5.883   4.450   6.635
    1AU     LIG   60   5.797   4.328   7.012
    1AU     LIG   61   5.988   3.974   7.220
    1AU     LIG   62   6.232   3.627   7.417
    1AU     LIG   63   6.388   3.516   7.837
    1AU       S   64   6.076   5.221   6.769
    1AU     LIG   65   6.091   5.155   7.219
    1AU     LIG   66   6.174   5.057   7.678
    1AU     LIG   67   6.494   5.061   8.041
    1AU     LIG   68   6.860   5.145   8.343
    1AU    AUSL   69   5.422   5.163   6.898
    1AU    AUSL   70   5.127   5.506   6.909
    1AU     AUL   71   5.335   5.460   7.236
    1AU       S   72   5.614   5.135   7.097
    1AU     LIG   73   5.424   4.953   7.408
    1AU     LIG   74   5.587   4.798   7.818
    1AU     LIG   75   5.745   4.598   8.223
    1AU     LIG   76   5.907   4.637   8.662
    1AU       S   77   4.957   5.237   7.161
    1AU     LIG   78   5.003   5.163   7.624
    1AU     LIG   79   4.715   5.159   7.981
    1AU     LIG   80   4.545   5.193   8.414
    1AU     LIG   81   4.546   5.447   8.815
    1AU    AUSL   82   5.535   5.584   6.841
    1AU    AUSL   83   5.893   5.654   6.575
    1AU     AUL   84   5.834   5.541   6.972
    1AU       S   85   5.404   5.880   6.974
    1AU     LIG   86   5.643   5.845   7.360
    1AU     LIG   87   5.719   5.901   7.840
    1AU     LIG   88   5.760   5.936   8.329
    1AU     LIG   89   5.792   5.912   8.810
    1AU       S   90   5.966   5.924   6.758
    1AU     LIG   91   6.334   5.704   6.827
    1AU     LIG   92   6.651   5.860   7.144
    1AU     LIG   93   6.923   6.126   7.439
    1AU     LIG   94   7.182   6.410   7.717
    1AU    AUSL   95   5.803   5.450   5.273
    1AU    AUSL   96   5.586   5.783   5.471
    1AU     AUL   97   5.701   5.825   5.132
    1AU       S   98   5.769   5.499   4.828
    1AU     LIG   99   6.136   5.353   4.634
    1AU     LIG  100   6.226   5.053   4.313
    1AU     LIG  101   6.270   4.971   3.860
    1AU     LIG  102   6.488   5.047   3.450
    1AU       S  103   6.018   6.026   5.388
    1AU     LIG  104   6.044   6.212   4.989
    1AU     LIG  105   6.218   6.378   4.573
    1AU     LIG  106   6.476   6.655   4.292
    1AU     LIG  107   6.722   6.951   4.033
    1AU    AUSL  108   5.571   5.122   5.112
    1AU    AUSL  109   5.924   5.069   5.427
    1AU     AUL  110   5.987   5.200   5.117
    1AU       S  111   6.049   4.752   5.197
    1AU     LIG  112   6.185   4.444   4.860
    1AU     LIG  113   6.455   4.070   4.728
    1AU     LIG  114   6.737   3.763   4.488
    1AU     LIG  115   7.130   3.733   4.209
    1AU       S  116   5.663   5.349   4.820
    1AU     LIG  117   5.781   4.966   4.637
    1AU     LIG  118   5.822   4.755   4.201
    1AU     LIG  119   5.817   4.781   3.719
    1AU     LIG  120   6.040   4.841   3.300
    1AU    AUSL  121   5.378   5.493   5.231
    1AU    AUSL  122   5.156   5.099   5.226
    1AU     AUL  123   5.298   5.124   4.942
    1AU       S  124   4.850   5.128   4.807
    1AU     LIG  125   4.918   4.833   4.509
    1AU     LIG  126   4.701   4.659   4.131
    1AU     LIG  127   4.499   4.706   3.700
    1AU     LIG  128   4.586   4.767   3.243
    1AU       S  129   5.435   5.559   4.856
    1AU     LIG  130   5.502   5.374   4.371
    1AU     LIG  131   5.821   5.240   4.028
    1AU     LIG  132   5.953   5.272   3.570
    1AU     LIG  133   5.903   5.481   3.148
    1AU    AUSL  134   4.730   5.427   6.759
    1AU    AUSL  135   5.011   5.779   6.609
    1AU     AUL  136   4.876   5.734   6.955
    1AU       S  137   4.782   5.373   7.232
    1AU     LIG  138   4.542   5.020   7.396
    1AU     LIG  139   4.288   4.931   7.804
    1AU     LIG  140   4.112   4.952   8.255
    1AU     LIG  141   3.774   5.079   8.574
    1AU       S  142   4.580   6.024   6.718
    1AU     LIG  143   4.689   6.203   7.107
    1AU     LIG  144   4.537   6.478   7.453
    1AU     LIG  145   4.223   6.725   7.702
    1AU     LIG  146   4.007   6.867   8.100
    1AU    AUSL  147   5.049   5.144   6.690
    1AU    AUSL  148   4.594   5.035   6.623
    1AU     AUL  149   4.607   5.175   6.865
    1AU       S  150   4.411   4.762   6.857
    1AU     LIG  151   4.024   4.622   6.651
    1AU     LIG  152   3.817   4.235   6.778
    1AU     LIG  153   3.649   3.935   7.079
    1AU     LIG  154   3.406   3.700   7.388
    1AU       S  155   5.007   5.074   7.087
    1AU     LIG  156   4.966   4.725   7.363
    1AU     LIG  157   4.747   4.683   7.761
    1AU     LIG  158   4.567   4.701   8.192
    1AU     LIG  159   4.445   4.558   8.617
    1AU    AUSL  160   4.742   5.196   5.276
    1AU    AUSL  161   4.930   4.822   5.448
    1AU     AUL  162   4.968   4.817   5.116
    1AU       S  163   4.640   5.098   4.940
    1AU     LIG  164   4.416   4.876   4.605
    1AU     LIG  165   4.270   4.934   4.150
    1AU     LIG  166   4.014   4.925   3.747
    1AU     LIG  167   3.573   5.044   3.601
    1AU       S  168   4.558   4.714   5.275
    1AU     LIG  169   4.593   4.431   4.987
    1AU     LIG  170   4.262   4.126   4.859
    1AU     LIG  171   3.907   3.910   4.636
    1AU     LIG  172   3.628   3.740   4.293
    1AU    AUSL  173   4.995   5.493   5.070
    1AU    AUSL  174   4.536   5.545   5.422
    1AU     AUL  175   4.646   5.529   5.092
    1AU       S  176   4.255   5.721   5.252
    1AU     LIG  177   4.010   5.915   4.942
    1AU     LIG  178   3.969   6.216   4.612
    1AU     LIG  179   3.705   6.510   4.366
    1AU     LIG  180   3.246   6.487   4.198
    1AU       S  181   4.926   5.361   4.762
    1AU     LIG  182   4.662   5.272   4.368
    1AU     LIG  183   4.686   5.143   3.925
    1AU     LIG  184   4.622   5.223   3.473
    1AU     LIG  185   4.760   5.443   3.072
    1AU    AUSL  186   6.032   5.758   6.030
    1AU    AUSL  187   5.959   5.620   5.624
    1AU     AUL  188   6.285   5.896   5.824
    1AU       S  189   6.071   5.795   5.441
    1AU     LIG  190   6.198   5.700   5.034
    1AU     LIG  191   6.466   5.967   4.765
    1AU     LIG  192   6.744   6.282   4.540
    1AU     LIG  193   7.006   6.583   4.277
    1AU       S  194   6.479   5.612   6.155
    1AU     LIG  195   6.834   5.884   6.044
    1AU     LIG  196   7.276   6.080   6.073
    1AU     LIG  197   7.513   6.507   6.063
    1AU     LIG  198   7.759   6.759   6.370
    1AU    AUSL  199   6.207   5.374   5.864
    1AU    AUSL  200   6.160   5.031   6.187
    1AU     AUL  201   6.500   5.081   6.063
    1AU       S  202   6.367   5.464   5.902
    1AU     LIG  203   6.831   5.411   5.848
    1AU     LIG  204   7.272   5.595   5.878
    1AU     LIG  205   7.696   5.743   5.737
    1AU     LIG  206   8.065   5.469   5.560
    1AU       S  207   6.384   4.634   6.173
    1AU     LIG  208   6.849   4.654   6.166
    1AU     LIG  209   7.279   4.484   6.228
    1AU     LIG  210   7.700   4.380   6.352
    1AU     LIG  211   8.117   4.546   6.477
    1AU    AUSL  212   5.978   5.403   6.253
    1AU    AUSL  213   5.818   5.998   6.305
    1AU     AUL  214   6.121   5.825   6.340
    1AU       S  215   6.011   6.192   6.613
    1AU     LIG  216   6.378   6.234   6.903
    1AU     LIG  217   6.696   6.502   7.147
    1AU     LIG  218   6.847   6.948   7.271
    1AU     LIG  219   6.886   7.447   7.229
    1AU       S  220   6.319   5.425   6.346
    1AU     LIG  221   6.714   5.441   6.552
    1AU     LIG  222   7.113   5.584   6.367
    1AU     LIG  223   7.556   5.714   6.344
    1AU     LIG  224   7.994   5.796   6.510
    1AU    AUSL  225   4.576   5.861   6.021
    1AU    AUSL  226   4.637   5.662   6.422
    1AU     AUL  227   4.340   5.969   6.268
    1AU       S  228   4.488   5.802   6.668
    1AU     LIG  229   4.380   5.781   7.109
    1AU     LIG  230   4.166   6.139   7.342
    1AU     LIG  231   3.855   6.377   7.620
    1AU     LIG  232   3.560   6.460   7.990
    1AU       S  233   4.561   6.239   5.945
    1AU     LIG  234   4.091   6.176   5.863
    1AU     LIG  235   3.612   6.257   5.859
    1AU     LIG  236   3.197   6.498   5.880
    1AU     LIG  237   2.794   6.681   6.044
    1AU    AUSL  238   4.545   5.473   5.829
    1AU    AUSL  239   4.658   5.920   5.610
    1AU     AUL  240   4.359   5.792   5.702
    1AU       S  241   4.173   5.279   5.479
    1AU     LIG  242   3.858   5.642   5.563
    1AU     LIG  243   3.426   5.808   5.679
    1AU     LIG  244   3.114   6.126   5.519
    1AU     LIG  245   2.653   6.231   5.446
    1AU       S  246   4.479   6.170   5.434
    1AU     LIG  247   4.251   6.380   5.057
    1AU     LIG  248   4.197   6.664   4.692
    1AU     LIG  249   3.918   6.983   4.526
    1AU     LIG  250   3.614   7.280   4.699
    1AU    AUSL  251   4.317   5.516   6.201
    1AU    AUSL  252   4.294   5.146   5.901
    1AU     AUL  253   4.145   5.457   5.918
    1AU       S  254   4.097   5.063   6.172
    1AU     LIG  255   3.778   5.118   5.844
    1AU     LIG  256   3.392   4.888   5.719
    1AU     LIG  257   2.974   4.681   5.736
    1AU     LIG  258   2.566   4.823   5.633
    1AU       S  259   4.151   5.546   6.409
    1AU     LIG  260   3.733   5.520   6.211
    1AU     LIG  261   3.307   5.706   6.347
    1AU     LIG  262   2.881   5.931   6.402
    1AU     LIG  263   2.486   6.225   6.347
    1AU    AUSL  264   5.910   4.712   6.041
    1AU    AUSL  265   5.783   4.980   6.379
    1AU     AUL  266   6.091   4.871   6.431
    1AU       S  267   6.106   4.538   6.015
    1AU     LIG  268   6.469   4.182   5.954
    1AU     LIG  269   6.943   4.153   5.994
    1AU     LIG  270   7.397   3.994   6.078
    1AU     LIG  271   7.730   3.850   6.372
    1AU       S  272   6.005   4.436   6.484
    1AU     LIG  273   6.283   4.220   6.833
    1AU     LIG  274   6.513   4.001   7.186
    1AU     LIG  275   6.728   3.786   7.546
    1AU     LIG  276   7.019   3.827   7.926
    1AU    AUSL  277   5.903   5.092   5.842
    1AU    AUSL  278   5.854   4.685   5.624
    1AU     AUL  279   6.140   4.909   5.677
    1AU       S  280   6.358   4.649   5.955
    1AU     LIG  281   6.702   4.587   5.686
    1AU     LIG  282   7.166   4.529   5.724
    1AU     LIG  283   7.598   4.381   5.803
    1AU     LIG  284   7.999   4.344   5.582
    1AU       S  285   6.051   4.555   5.364
    1AU     LIG  286   6.138   4.097   5.240
    1AU     LIG  287   6.302   3.684   5.028
    1AU     LIG  288   6.581   3.344   4.820
    1AU     LIG  289   6.819   2.915   4.920
    1AU    AUSL  290   4.501   4.791   6.054
    1AU    AUSL  291   4.601   5.030   5.639
    1AU     AUL  292   4.251   4.851   5.768
    1AU       S  293   4.430   4.854   5.346
    1AU     LIG  294   4.097   4.526   5.165
    1AU     LIG  295   3.748   4.226   5.014
    1AU     LIG  296   3.397   4.021   4.760
    1AU     LIG  297   3.029   4.092   4.465
    1AU       S  298   4.074   4.830   6.200
    1AU     LIG  299   3.735   4.631   6.014
    1AU     LIG  300   3.286   4.546   6.122
    1AU     LIG  301   2.908   4.389   6.365
    1AU     LIG  302   2.551   4.047   6.340
    1AU    AUSL  303   4.565   5.181   6.236
    1AU    AUSL  304   4.820   4.815   6.333
    1AU     AUL  305   4.485   4.770   6.386
    1AU       S  306   4.495   4.575   6.792
    1AU     LIG  307   4.332   4.144   6.692
    1AU     LIG  308   4.018   3.742   6.764
    1AU     LIG  309   3.686   3.418   6.965
    1AU     LIG  310   3.243   3.283   7.129
    1AU       S  311   4.145   5.074   6.355
    1AU     LIG  312   3.628   5.026   6.337
    1AU     LIG  313   3.189   5.048   6.166
    1AU     LIG  314   2.757   4.891   6.160
    1AU     LIG  315   2.437   4.666   6.424
    1AU    AUSL  316   5.235   6.115   6.473
    1AU    AUSL  317   4.822   6.038   6.320
    1AU     AUL  318   5.027   6.123   6.708
    1AU       S  319   4.666   6.260   6.449
    1AU     LIG  320   4.352   6.454   6.800
    1AU     LIG  321   4.123   6.648   7.186
    1AU     LIG  322   3.925   7.045   7.394
    1AU     LIG  323   3.696   7.488   7.384
    1AU       S  324   5.267   6.444   6.437
    1AU     LIG  325   5.380   6.478   6.848
    1AU     LIG  326   5.500   6.886   7.011
    1AU     LIG  327   5.629   7.317   7.130
    1AU     LIG  328   5.664   7.682   7.422
    1AU    AUSL  329   5.075   6.248   6.058
    1AU    AUSL  330   5.404   6.174   5.710
    1AU     AUL  331   5.291   6.515   5.841
    1AU       S  332   5.105   6.517   6.266
    1AU     LIG  333   5.307   6.926   6.513
    1AU     LIG  334   5.357   7.375   6.683
    1AU     LIG  335   5.220   7.846   6.702
    1AU     LIG  336   4.867   8.153   6.842
    1AU       S  337   5.168   6.415   5.418
    1AU     LIG  338   5.516   6.750   5.446
    1AU     LIG  339   5.729   7.197   5.369
    1AU     LIG  340   5.991   7.628   5.304
    1AU     LIG  341   6.165   8.083   5.213
    1AU    AUSL  342   5.452   6.039   6.110
    1AU    AUSL  343   5.487   5.781   6.485
    1AU     AUL  344   5.560   6.108   6.541
    1AU       S  345   5.846   6.024   6.878
    1AU     LIG  346   6.126   5.941   7.239
    1AU     LIG  347   6.414   6.209   7.469
    1AU     LIG  348   6.680   6.532   7.683
    1AU     LIG  349   6.780   6.755   8.087
    1AU       S  350   5.527   6.399   6.202
    1AU     LIG  351   5.744   6.640   6.527
    1AU     LIG  352   5.807   7.105   6.660
    1AU     LIG  353   5.842   7.577   6.738
    1AU     LIG  354   5.853   8.034   6.764
    1AU    AUSL  355   5.192   4.609   6.460
    1AU    AUSL  356   5.603   4.596   6.305
    1AU     AUL  357   5.427   4.491   6.685
    1AU       S  358   5.177   4.144   6.516
    1AU     LIG  359   4.882   3.967   6.822
    1AU     LIG  360   4.823   3.501   6.912
    1AU     LIG  361   4.868   3.023   6.943
    1AU     LIG  362   4.692   2.622   7.163
    1AU       S  363   5.757   4.365   6.355
    1AU     LIG  364   5.885   3.952   6.635
    1AU     LIG  365   6.241   3.684   6.878
    1AU     LIG  366   6.626   3.475   7.112
    1AU     LIG  367   6.851   3.029   7.128
    1AU    AUSL  368   4.875   4.440   6.169
    1AU    AUSL  369   4.931   4.755   6.755
    1AU     AUL  370   4.851   4.477   6.526
    1AU       S  371   4.974   4.068   6.338
    1AU     LIG  372   4.779   3.651   6.414
    1AU     LIG  373   4.618   3.207   6.514
    1AU     LIG  374   4.481   2.782   6.695
    1AU     LIG  375   4.605   2.337   6.733
    1AU       S  376   4.716   4.682   6.944
    1AU     LIG  377   4.582   4.263   7.154
    1AU     LIG  378   4.174   4.012   7.172
    1AU     LIG  379   3.960   3.639   7.370
    1AU     LIG  380   4.030   3.399   7.777
    1AU    AUSL  381   5.303   4.368   6.120
    1AU    AUSL  382   5.075   4.605   5.826
    1AU     AUL  383   4.953   4.264   5.924
    1AU       S  384   5.306   4.160   5.676
    1AU     LIG  385   4.894   3.868   5.629
    1AU     LIG  386   4.731   3.398   5.585
    1AU     LIG  387   4.760   2.907   5.491
    1AU     LIG  388   4.626   2.497   5.272
    1AU       S  389   5.303   4.153   6.253
    1AU     LIG  390   5.296   3.681   6.325
    1AU     LIG  391   5.147   3.287   6.549
    1AU     LIG  392   5.341   2.873   6.684
    1AU     LIG  393   5.763   2.631   6.678
    1AU    AUSL  394   5.225   5.958   5.354
    1AU    AUSL  395   5.778   5.996   5.791
    1AU     AUL  396   5.567   6.153   5.439
    1AU       S  397   5.165   6.284   5.230
    1AU     LIG  398   5.535   6.458   5.029
    1AU     LIG  399   5.578   6.922   4.941
    1AU     LIG  400   5.514   7.288   4.639
    1AU     LIG  401   5.552   7.589   4.263
    1AU       S  402   5.974   6.163   5.639
    1AU     LIG  403   6.391   6.325   5.408
    1AU     LIG  404   6.536   6.466   4.978
    1AU     LIG  405   6.783   6.783   4.705
    1AU     LIG  406   7.118   7.139   4.647
    1AU    AUSL  407   5.041   5.962   5.756
    1AU    AUSL  408   4.959   5.642   5.456
    1AU     AUL  409   4.884   5.938   5.327
    1AU       S  410   4.949   6.320   5.585
    1AU     LIG  411   5.008   6.846   5.563
    1AU     LIG  412   5.193   7.259   5.380
    1AU     LIG  413   5.051   7.731   5.325
    1AU     LIG  414   4.772   8.039   5.082
    1AU       S  415   4.458   5.946   5.187
    1AU     LIG  416   4.477   6.042   4.733
    1AU     LIG  417   4.395   6.328   4.351
    1AU     LIG  418   4.165   6.705   4.164
    1AU     LIG  419   4.133   7.178   4.057
    1AU    AUSL  420   5.261   4.556   5.434
    1AU    AUSL  421   4.671   4.599   5.718
    1AU     AUL  422   4.928   4.441   5.481
    1AU       S  423   4.481   4.565   5.488
    1AU     LIG  424   4.400   4.145   5.384
    1AU     LIG  425   4.033   3.861   5.239
    1AU     LIG  426   3.678   3.620   5.005
    1AU     LIG  427   3.500   3.169   4.877
    1AU       S  428   5.305   4.143   5.457
    1AU     LIG  429   5.216   3.682   5.289
    1AU     LIG  430   4.983   3.260   5.153
    1AU     LIG  431   4.827   2.852   4.946
    1AU     LIG  432   4.737   2.581   4.549
    1AU    AUSL  433   5.502   4.572   5.814
    1AU    AUSL  434   5.515   4.887   5.451
    1AU     AUL  435   5.600   4.501   5.451
    1AU       S  436   5.541   4.171   5.771
    1AU     LIG  437   5.357   3.693   5.803
    1AU     LIG  438   5.227   3.263   5.611
    1AU     LIG  439   5.251   2.838   5.373
    1AU     LIG  440   5.396   2.379   5.422
    1AU       S  441   5.800   4.721   5.112
    1AU     LIG  442   5.715   4.288   5.007
    1AU     LIG  443   5.945   3.954   4.761
    1AU     LIG  444   6.220   3.656   4.503
    1AU     LIG  445   6.443   3.547   4.096
    2POPC   NC3  446  10.043   5.930   8.081
    2POPC   PO4  447  10.450   5.388   7.969
    2POPC   GL1  448  10.283   5.523   7.647
    2POPC   GL2  449  10.283   5.846   7.651
    2POPC   C1A  450  10.252   5.355   7.263
    2POPC   D2A  451  10.432   5.342   6.896
    2POPC   C3A  452  10.191   5.452   6.512
    2POPC   C4A  453  10.151   5.441   6.034
    2POPC   C1B  454  10.164   5.973   7.292
    2POPC   C2B  455  10.175   5.784   6.952
    2POPC   C3B  456  10.047   5.938   6.607
    2POPC   C4B  457  10.275   5.887   6.255
    3POPC   NC3  458   0.468   9.285   8.336
    3POPC   PO4  459   0.693   9.635   7.866
    3POPC   GL1  460   0.515   9.507   7.506
    3POPC   GL2  461   0.347   9.225   7.566
    3POPC   C1A  462   0.248   9.566   7.187
    3POPC   D2A  463   0.385   9.676   6.810
    3POPC   C3A  464   0.078   9.683   6.524
    3POPC   C4A  465   0.246   9.718   6.160
    3POPC   C1B  466   0.258   9.027   7.187
    3POPC   C2B  467   0.515   9.116   6.817
    3POPC   C3B  468   0.407   9.303   6.423
    3POPC   C4B  469   0.479   9.312   5.932
    4POPC   NC3  470   9.399   7.406   8.208
    4POPC   PO4  471   8.921   6.990   8.065
    4POPC   GL1  472   9.126   7.241   7.782
    4POPC   GL2  473   9.467   7.133   7.765
    4POPC   C1A  474   9.164   7.166   7.364
    4POPC   D2A  475   9.194   6.988   6.972
    4POPC   C3A  476   9.254   7.195   6.586
    4POPC   C4A  477   9.194   7.098   6.178
    4POPC   C1B  478   9.701   7.166   7.383
    4POPC   C2B  479   9.786   7.023   6.979
    4POPC   C3B  480   9.836   7.253   6.600
    4POPC   C4B  481   9.612   7.427   6.246
    5POPC   NC3  482   5.887   8.556   8.102
    5POPC   PO4  483   5.722   9.217   8.144
    5POPC   GL1  484   5.897   8.956   7.790
    5POPC   GL2  485   5.609   8.944   7.527
    5POPC   C1A  486   6.079   9.007   7.385
    5POPC   D2A  487   5.816   9.221   7.024
    5POPC   C3A  488   5.748   9.065   6.573
    5POPC   C4A  489   5.713   8.680   6.306
    5POPC   C1B  490   5.742   8.714   7.134
    5POPC   C2B  491   5.531   8.505   6.776
    5POPC   C3B  492   5.516   8.209   6.419
    5POPC   C4B  493   5.645   8.248   5.981
    6POPC   NC3  494   6.466   1.920   8.108
    6POPC   PO4  495   6.090   2.409   7.976
    6POPC   GL1  496   6.452   2.157   7.655
    6POPC   GL2  497   6.429   1.780   7.613
    6POPC   C1A  498   6.532   2.061   7.181
    6POPC   D2A  499   6.299   2.232   6.796
    6POPC   C3A  500   6.568   2.325   6.413
    6POPC   C4A  501   6.419   2.265   5.982
    6POPC   C1B  502   6.672   1.515   7.319
    6POPC   C2B  503   6.772   1.646   6.913
    6POPC   C3B  504   6.608   1.868   6.638
    6POPC   C4B  505   6.410   1.847   6.266
    7POPC   NC3  506   9.053   5.833   7.972
    7POPC   PO4  507   8.890   5.241   8.164
    7POPC   GL1  508   8.738   5.301   7.723
    7POPC   GL2  509   8.537   5.602   7.595
    7POPC   C1A  510   8.952   5.462   7.357
    7POPC   D2A  511   8.998   5.726   6.973
    7POPC   C3A  512   8.873   5.598   6.560
    7POPC   C4A  513   8.942   5.627   6.122
    7POPC   C1B  514   8.512   5.652   7.134
    7POPC   C2B  515   8.432   5.439   6.739
    7POPC   C3B  516   8.426   5.585   6.304
    7POPC   C4B  517   8.110   5.666   6.020
    8POPC   NC3  518   3.717   9.685   8.062
    8POPC   PO4  519   3.046   9.716   8.173
    8POPC   GL1  520   3.277   9.716   7.782
    8POPC   GL2  521   3.370   9.356   7.804
    8POPC   C1A  522   3.340   9.821   7.341
    8POPC   D2A  523   3.166   9.729   6.901
    8POPC   C3A  524   3.459   9.574   6.576
    8POPC   C4A  525   3.454   9.427   6.145
    8POPC   C1B  526   3.442   9.196   7.400
    8POPC   C2B  527   3.438   9.253   6.972
    8POPC   C3B  528   3.555   9.055   6.558
    8POPC   C4B  529   3.767   8.951   6.177
    9POPC   NC3  530   2.602   7.852   8.411
    9POPC   PO4  531   3.040   8.203   8.094
    9POPC   GL1  532   2.670   7.973   7.882
    9POPC   GL2  533   2.447   8.193   7.716
    9POPC   C1A  534   2.574   7.793   7.421
    9POPC   D2A  535   2.837   7.684   7.039
    9POPC   C3A  536   2.672   7.695   6.609
    9POPC   C4A  537   2.490   7.519   6.236
    9POPC   C1B  538   2.872   8.215   7.456
    9POPC   C2B  539   3.005   8.172   7.034
    9POPC   C3B  540   2.994   8.090   6.569
    9POPC   C4B  541   2.782   7.964   6.159
   10POPC   NC3  542   8.474   7.028   8.181
   10POPC   PO4  543   8.517   7.603   8.409
   10POPC   GL1  544   8.657   7.445   7.910
   10POPC   GL2  545   8.625   7.102   7.672
   10POPC   C1A  546   8.737   7.530   7.401
   10POPC   D2A  547   8.584   7.737   6.972
   10POPC   C3A  548   8.437   7.538   6.537
   10POPC   C4A  549   8.439   7.493   6.054
   10POPC   C1B  550   8.703   7.079   7.189
   10POPC   C2B  551   8.778   7.237   6.769
   10POPC   C3B  552   8.693   7.066   6.337
   10POPC   C4B  553   8.790   7.165   5.887
   11POPC   NC3  554   6.152   9.096   8.223
   11POPC   PO4  555   6.304   8.405   8.197
   11POPC   GL1  556   6.304   8.596   7.761
   11POPC   GL2  557   6.616   8.787   7.705
   11POPC   C1A  558   6.366   8.609   7.284
   11POPC   D2A  559   6.671   8.437   6.989
   11POPC   C3A  560   6.584   8.519   6.547
   11POPC   C4A  561   6.437   8.560   6.107
   11POPC   C1B  562   6.694   8.984   7.317
   11POPC   C2B  563   6.585   8.936   6.886
   11POPC   C3B  564   6.592   9.014   6.454
   11POPC   C4B  565   6.167   8.990   6.227
   12POPC   NC3  566   4.971   1.110   8.032
   12POPC   PO4  567   5.378   1.683   8.077
   12POPC   GL1  568   4.957   1.554   7.775
   12POPC   GL2  569   4.936   1.248   7.560
   12POPC   C1A  570   4.696   1.607   7.334
   12POPC   D2A  571   4.927   1.504   6.931
   12POPC   C3A  572   4.788   1.491   6.485
   12POPC   C4A  573   4.829   1.467   6.005
   12POPC   C1B  574   4.949   1.023   7.184
   12POPC   C2B  575   4.933   1.040   6.739
   12POPC   C3B  576   5.039   1.072   6.318
   12POPC   C4B  577   4.636   1.018   6.160
   13POPC   NC3  578   0.214   9.546   7.914
   13POPC   PO4  579   9.994   9.438   8.082
   13POPC   GL1  580  10.215   9.581   7.747
   13POPC   GL2  581  10.326   9.239   7.682
   13POPC   C1A  582  10.160   9.840   7.374
   13POPC   D2A  583  10.321   9.786   6.956
   13POPC   C3A  584  10.099   9.883   6.570
   13POPC   C4A  585  10.202   9.681   6.169
   13POPC   C1B  586  10.297   9.329   7.265
   13POPC   C2B  587  10.441   9.275   6.844
   13POPC   C3B  588  10.110   9.356   6.560
   13POPC   C4B  589   9.967   9.230   6.160
   14POPC   NC3  590   1.413   5.556   8.057
   14POPC   PO4  591   0.897   5.548   8.191
   14POPC   GL1  592   1.073   5.645   7.722
   14POPC   GL2  593   1.326   5.377   7.571
   14POPC   C1A  594   1.128   5.808   7.319
   14POPC   D2A  595   1.254   5.679   6.897
   14POPC   C3A  596   1.116   5.930   6.529
   14POPC   C4A  597   1.130   5.713   6.140
   14POPC   C1B  598   0.911   5.357   7.308
   14POPC   C2B  599   0.807   5.385   6.846
   14POPC   C3B  600   0.847   5.367   6.382
   14POPC   C4B  601   0.868   5.309   5.904
   15POPC   NC3  602   8.554   3.348   7.996
   15POPC   PO4  603   8.617   3.966   7.778
   15POPC   GL1  604   8.722   3.615   7.478
   15POPC   GL2  605   8.674   3.228   7.496
   15POPC   C1A  606   8.854   3.526   7.045
   15POPC   D2A  607   8.621   3.414   6.667
   15POPC   C3A  608   8.876   3.313   6.335
   15POPC   C4A  609   8.834   3.565   5.973
   15POPC   C1B  610   8.375   3.393   7.167
   15POPC   C2B  611   8.230   3.690   6.859
   15POPC   C3B  612   8.135   3.522   6.452
   15POPC   C4B  613   8.387   3.369   6.133
   16POPC   NC3  614   0.498   2.717   8.049
   16POPC   PO4  615   0.312   2.076   8.240
   16POPC   GL1  616   0.209   2.361   7.817
   16POPC   GL2  617   0.107   2.711   7.722
   16POPC   C1A  618   0.085   2.403   7.341
   16POPC   D2A  619   0.159   2.639   6.941
   16POPC   C3A  620   0.465   2.531   6.599
   16POPC   C4A  621   0.137   2.473   6.276
   16POPC   C1B  622   0.398   2.830   7.354
   16POPC   C2B  623   0.460   3.054   6.968
   16POPC   C3B  624   0.318   3.027   6.540
   16POPC   C4B  625   0.479   2.855   6.166
   17POPC   NC3  626   8.920   7.828   8.345
   17POPC   PO4  627   8.622   8.265   7.974
   17POPC   GL1  628   8.666   7.963   7.674
   17POPC   GL2  629   8.999   7.786   7.739
   17POPC   C1A  630   8.605   8.207   7.288
   17POPC   D2A  631   8.376   8.303   6.936
   17POPC   C3A  632   8.474   8.101   6.593
   17POPC   C4A  633   8.612   8.175   6.180
   17POPC   C1B  634   9.048   7.937   7.296
   17POPC   C2B  635   8.929   8.134   6.883
   17POPC   C3B  636   8.942   7.926   6.490
   17POPC   C4B  637   8.915   7.513   6.304
   18POPC   NC3  638   2.803  10.067   8.370
   18POPC   PO4  639   3.295  10.250   7.917
   18POPC   GL1  640   3.605  10.203   7.626
   18POPC   GL2  641   3.917  10.076   7.753
   18POPC   C1A  642   3.602  10.273   7.192
   18POPC   D2A  643   3.444  10.194   6.774
   18POPC   C3A  644   3.599  10.413   6.385
   18POPC   C4A  645   3.424  10.319   5.943
   18POPC   C1B  646   3.875   9.848   7.369
   18POPC   C2B  647   3.700   9.790   6.981
   18POPC   C3B  648   3.819   9.924   6.577
   18POPC   C4B  649   3.568   9.930   6.227
   19POPC   NC3  650   9.671   8.279   8.077
   19POPC   PO4  651   9.370   7.798   8.446
   19POPC   GL1  652   9.503   7.790   7.915
   19POPC   GL2  653   9.456   8.054   7.679
   19POPC   C1A  654   9.397   7.600   7.471
   19POPC   D2A  655   9.186   7.534   7.016
   19POPC   C3A  656   9.378   7.674   6.616
   19POPC   C4A  657   9.303   7.797   6.157
   19POPC   C1B  658   9.566   8.183   7.316
   19POPC   C2B  659   9.432   8.057   6.940
   19POPC   C3B  660   9.452   8.157   6.501
   19POPC   C4B  661   9.711   8.085   6.135
   20POPC   NC3  662   8.400   9.319   8.233
   20POPC   PO4  663   8.932   9.022   8.031
   20POPC   GL1  664   8.580   9.131   7.726
   20POPC   GL2  665   8.483   9.484   7.710
   20POPC   C1A  666   8.563   9.244   7.252
   20POPC   D2A  667   8.747   9.127   6.864
   20POPC   C3A  668   8.567   9.093   6.484
   20POPC   C4A  669   8.785   9.097   6.089
   20POPC   C1B  670   8.901   9.514   7.499
   20POPC   C2B  671   8.935   9.573   7.037
   20POPC   C3B  672   8.633   9.605   6.709
   20POPC   C4B  673   8.696   9.540   6.290
   21POPC   NC3  674   9.345   4.602   8.486
   21POPC   PO4  675   9.385   4.459   7.863
   21POPC   GL1  676   9.491   4.739   7.609
   21POPC   GL2  677   9.489   4.998   7.816
   21POPC   C1A  678   9.497   4.799   7.174
   21POPC   D2A  679   9.197   4.763   6.879
   21POPC   C3A  680   9.360   4.730   6.474
   21POPC   C4A  681   9.075   4.799   6.196
   21POPC   C1B  682   9.488   5.243   7.445
   21POPC   C2B  683   9.315   5.304   7.038
   21POPC   C3B  684   9.208   5.221   6.643
   21POPC   C4B  685   9.383   5.223   6.275
   22POPC   NC3  686   0.832   0.910   8.177
   22POPC   PO4  687   1.397   0.789   8.064
   22POPC   GL1  688   1.182   0.883   7.700
   22POPC   GL2  689   1.014   1.186   7.771
   22POPC   C1A  690   1.217   1.054   7.282
   22POPC   D2A  691   1.378   1.111   6.893
   22POPC   C3A  692   1.183   0.898   6.597
   22POPC   C4A  693   1.163   1.067   6.214
   22POPC   C1B  694   1.257   1.492   7.528
   22POPC   C2B  695   1.233   1.585   7.083
   22POPC   C3B  696   1.077   1.474   6.670
   22POPC   C4B  697   1.380   1.508   6.354
   23POPC   NC3  698   6.873   8.721   8.134
   23POPC   PO4  699   7.381   9.170   8.150
   23POPC   GL1  700   7.096   9.053   7.810
   23POPC   GL2  701   7.227   8.724   7.736
   23POPC   C1A  702   7.193   9.059   7.370
   23POPC   D2A  703   7.150   8.782   7.021
   23POPC   C3A  704   7.268   8.896   6.590
   23POPC   C4A  705   7.014   8.827   6.204
   23POPC   C1B  706   6.981   8.481   7.432
   23POPC   C2B  707   7.147   8.260   7.067
   23POPC   C3B  708   7.081   8.420   6.647
   23POPC   C4B  709   6.928   8.335   6.222
   24POPC   NC3  710   0.078   6.385   8.343
   24POPC   PO4  711   9.929   6.385   8.192
   24POPC   GL1  712   9.813   6.487   7.758
   24POPC   GL2  713  10.142   6.341   7.691
   24POPC   C1A  714   9.856   6.439   7.268
   24POPC   D2A  715   9.959   6.547   6.802
   24POPC   C3A  716   9.711   6.326   6.499
   24POPC   C4A  717   9.799   6.056   6.179
   24POPC   C1B  718  10.366   6.430   7.292
   24POPC   C2B  719  10.415   6.332   6.836
   24POPC   C3B  720  10.278   6.382   6.394
   24POPC   C4B  721  10.420   6.598   6.012
   25POPC   NC3  722   5.312   0.387   8.220
   25POPC   PO4  723   4.608   0.172   8.240
   25POPC   GL1  724   4.746   0.395   7.822
   25POPC   GL2  725   4.914   0.711   7.700
   25POPC   C1A  726   4.959   0.268   7.420
   25POPC   D2A  727   5.126   0.353   7.026
   25POPC   C3A  728   4.950   0.100   6.700
   25POPC   C4A  729   5.009   0.142   6.248
   25POPC   C1B  730   4.638   0.647   7.342
   25POPC   C2B  731   4.662   0.622   6.891
   25POPC   C3B  732   4.894   0.582   6.502
   25POPC   C4B  733   4.944   0.621   6.056
   26POPC   NC3  734   5.748   1.339   8.099
   26POPC   PO4  735   5.338   0.801   7.972
   26POPC   GL1  736   5.392   1.013   7.567
   26POPC   GL2  737   5.451   1.364   7.654
   26POPC   C1A  738   5.453   1.107   7.096
   26POPC   D2A  739   5.778   1.235   6.757
   26POPC   C3A  740   5.600   1.043   6.363
   26POPC   C4A  741   5.395   0.852   6.004
   26POPC   C1B  742   5.681   1.509   7.268
   26POPC   C2B  743   5.471   1.682   6.897
   26POPC   C3B  744   5.440   1.541   6.492
   26POPC   C4B  745   5.833   1.470   6.244
   27POPC   NC3  746   9.408   5.141   8.295
   27POPC   PO4  747   9.575   5.815   8.199
   27POPC   GL1  748   9.508   5.889   7.759
   27POPC   GL2  749   9.759   6.014   7.594
   27POPC   C1A  750   9.372   5.747   7.338
   27POPC   D2A  751   9.599   5.803   6.953
   27POPC   C3A  752   9.370   5.711   6.595
   27POPC   C4A  753   9.310   6.030   6.320
   27POPC   C1B  754   9.842   5.608   7.429
   27POPC   C2B  755   9.813   5.368   7.052
   27POPC   C3B  756   9.719   5.311   6.654
   27POPC   C4B  757   9.746   5.579   6.291
   28POPC   NC3  758   5.317   9.137   7.910
   28POPC   PO4  759   5.697   9.710   8.064
   28POPC   GL1  760   5.527   9.553   7.719
   28POPC   GL2  761   5.811   9.416   7.623
   28POPC   C1A  762   5.371   9.346   7.301
   28POPC   D2A  763   5.172   9.471   6.911
   28POPC   C3A  764   5.318   9.372   6.511
   28POPC   C4A  765   5.398   9.609   6.163
   28POPC   C1B  766   5.764   9.671   7.284
   28POPC   C2B  767   5.584   9.793   6.917
   28POPC   C3B  768   5.739   9.645   6.549
   28POPC   C4B  769   5.932   9.476   6.227
   29POPC   NC3  770   9.615   2.589   8.145
   29POPC   PO4  771   9.749   3.220   8.120
   29POPC   GL1  772   9.609   2.931   7.757
   29POPC   GL2  773   9.255   2.779   7.717
   29POPC   C1A  774   9.607   2.665   7.377
   29POPC   D2A  775   9.264   2.772   7.081
   29POPC   C3A  776   9.409   2.853   6.674
   29POPC   C4A  777   9.641   2.633   6.346
   29POPC   C1B  778   9.165   2.394   7.425
   29POPC   C2B  779   9.139   2.276   6.987
   29POPC   C3B  780   9.246   2.367   6.555
   29POPC   C4B  781   9.275   2.377   6.105
   30POPC   NC3  782   2.711   3.407   8.504
   30POPC   PO4  783   2.257   3.377   8.177
   30POPC   GL1  784   2.330   3.484   7.764
   30POPC   GL2  785   2.381   3.153   7.653
   30POPC   C1A  786   2.576   3.516   7.352
   30POPC   D2A  787   2.711   3.322   6.961
   30POPC   C3A  788   2.568   3.473   6.536
   30POPC   C4A  789   2.425   3.433   6.098
   30POPC   C1B  790   2.823   3.065   7.468
   30POPC   C2B  791   2.935   2.874   7.061
   30POPC   C3B  792   2.972   3.013   6.627
   30POPC   C4B  793   3.139   3.249   6.270
   31POPC   NC3  794   4.652  10.151   8.372
   31POPC   PO4  795   4.172   9.813   8.118
   31POPC   GL1  796   4.449   9.932   7.795
   31POPC   GL2  797   4.398  10.253   7.685
   31POPC   C1A  798   4.426   9.876   7.335
   31POPC   D2A  799   4.182   9.946   6.948
   31POPC   C3A  800   4.317   9.815   6.549
   31POPC   C4A  801   4.463   9.943   6.148
   31POPC   C1B  802   4.129  10.304   7.321
   31POPC   C2B  803   3.986  10.407   6.902
   31POPC   C3B  804   4.150  10.309   6.515
   31POPC   C4B  805   4.065   0.034   6.180
   32POPC   NC3  806   2.828   5.298   8.608
   32POPC   PO4  807   2.394   5.189   8.156
   32POPC   GL1  808   2.399   5.357   7.676
   32POPC   GL2  809   2.427   5.726   7.635
   32POPC   C1A  810   2.579   5.445   7.221
   32POPC   D2A  811   2.669   5.608   6.784
   32POPC   C3A  812   2.857   5.410   6.376
   32POPC   C4A  813   3.081   5.495   5.948
   32POPC   C1B  814   2.420   5.948   7.191
   32POPC   C2B  815   2.275   5.945   6.741
   32POPC   C3B  816   2.421   5.722   6.357
   32POPC   C4B  817   2.371   5.891   5.932
   33POPC   NC3  818   5.625  10.167   8.142
   33POPC   PO4  819   6.228  10.125   7.867
   33POPC   GL1  820   5.862  10.010   7.643
   33POPC   GL2  821   5.554  10.189   7.655
   33POPC   C1A  822   5.783  10.164   7.222
   33POPC   D2A  823   5.955  10.341   6.886
   33POPC   C3A  824   5.813  10.143   6.551
   33POPC   C4A  825   5.955  10.122   6.153
   33POPC   C1B  826   5.274  10.351   7.331
   33POPC   C2B  827   5.407  10.305   6.901
   33POPC   C3B  828   5.392  10.424   6.487
   33POPC   C4B  829   5.463  10.226   6.117
   34POPC   NC3  830   6.163   9.672   7.915
   34POPC   PO4  831   6.592   9.132   8.107
   34POPC   GL1  832   6.457   9.295   7.696
   34POPC   GL2  833   6.775   9.407   7.580
   34POPC   C1A  834   6.221   9.471   7.320
   34POPC   D2A  835   6.109   9.621   6.910
   34POPC   C3A  836   6.200   9.319   6.614
   34POPC   C4A  837   6.442   9.418   6.209
   34POPC   C1B  838   6.652   9.615   7.161
   34POPC   C2B  839   6.612   9.557   6.748
   34POPC   C3B  840   6.750   9.754   6.433
   34POPC   C4B  841   6.933   9.841   6.075
   35POPC   NC3  842   0.528   1.787   7.905
   35POPC   PO4  843  10.402   1.591   7.897
   35POPC   GL1  844   0.058   1.611   7.555
   35POPC   GL2  845   0.138   1.930   7.564
   35POPC   C1A  846   0.326   1.579   7.251
   35POPC   D2A  847   0.492   1.664   6.919
   35POPC   C3A  848   0.528   1.500   6.573
   35POPC   C4A  849   0.411   1.692   6.199
   35POPC   C1B  850   0.459   2.062   7.309
   35POPC   C2B  851   0.347   2.156   6.931
   35POPC   C3B  852   0.275   2.052   6.536
   35POPC   C4B  853   0.566   2.172   6.189
   36POPC   NC3  854   3.435   0.974   8.227
   36POPC   PO4  855   3.106   1.401   7.936
   36POPC   GL1  856   3.386   1.208   7.686
   36POPC   GL2  857   3.522   0.875   7.656
   36POPC   C1A  858   3.274   1.143   7.283
   36POPC   D2A  859   3.023   1.093   6.947
   36POPC   C3A  860   3.278   1.196   6.605
   36POPC   C4A  861   3.156   1.338   6.203
   36POPC   C1B  862   3.781   1.029   7.318
   36POPC   C2B  863   3.860   1.237   6.967
   36POPC   C3B  864   3.836   1.080   6.602
   36POPC   C4B  865   3.651   1.206   6.243
   37POPC   NC3  866   9.790   4.301   8.074
   37POPC   PO4  867   0.006   4.392   8.026
   37POPC   GL1  868  10.326   4.424   7.690
   37POPC   GL2  869  10.057   4.180   7.655
   37POPC   C1A  870  10.421   4.421   7.299
   37POPC   D2A  871  10.152   4.429   6.986
   37POPC   C3A  872  10.359   4.475   6.632
   37POPC   C4A  873  10.232   4.634   6.233
   37POPC   C1B  874  10.247   3.944   7.316
   37POPC   C2B  875  10.138   3.934   6.909
   37POPC   C3B  876   9.969   4.180   6.582
   37POPC   C4B  877  10.130   4.130   6.175
   38POPC   NC3  878   8.111   0.314   8.574
   38POPC   PO4  879   7.755   0.703   8.174
   38POPC   GL1  880   7.802   0.496   7.792
   38POPC   GL2  881   7.773   0.157   7.722
   38POPC   C1A  882   7.780   0.603   7.364
   38POPC   D2A  883   7.866   0.834   7.010
   38POPC   C3A  884   7.772   0.658   6.642
   38POPC   C4A  885   7.968   0.747   6.274
   38POPC   C1B  886   8.030   0.165   7.336
   38POPC   C2B  887   7.777   0.220   6.952
   38POPC   C3B  888   7.926   0.181   6.517
   38POPC   C4B  889   7.923   0.288   6.057
   39POPC   NC3  890   8.157   1.745   8.079
   39POPC   PO4  891   7.544   1.617   8.313
   39POPC   GL1  892   7.694   1.635   7.878
   39POPC   GL2  893   7.757   1.989   7.789
   39POPC   C1A  894   7.723   1.597   7.417
   39POPC   D2A  895   7.896   1.701   6.996
   39POPC   C3A  896   7.633   1.714   6.627
   39POPC   C4A  897   7.637   1.762   6.198
   39POPC   C1B  898   7.982   2.045   7.400
   39POPC   C2B  899   8.223   2.106   7.004
   39POPC   C3B  900   8.025   2.050   6.590
   39POPC   C4B  901   7.919   2.176   6.172
   40POPC   NC3  902  10.305   7.839   7.981
   40POPC   PO4  903   9.833   7.366   8.026
   40POPC   GL1  904   9.897   7.577   7.628
   40POPC   GL2  905   9.941   7.931   7.627
   40POPC   C1A  906   9.804   7.662   7.171
   40POPC   D2A  907   9.933   7.947   6.837
   40POPC   C3A  908  10.047   7.814   6.416
   40POPC   C4A  909  10.422   7.782   6.112
   40POPC   C1B  910  10.271   7.834   7.322
   40POPC   C2B  911  10.448   7.975   6.932
   40POPC   C3B  912  10.402   8.176   6.536
   40POPC   C4B  913  10.203   8.249   6.126
   41POPC   NC3  914   2.196   4.746   8.064
   41POPC   PO4  915   1.700   5.217   8.039
   41POPC   GL1  916   1.888   5.259   7.626
   41POPC   GL2  917   1.850   4.922   7.555
   41POPC   C1A  918   2.213   5.095   7.262
   41POPC   D2A  919   2.188   4.971   6.799
   41POPC   C3A  920   2.384   5.169   6.414
   41POPC   C4A  921   2.268   4.966   6.006
   41POPC   C1B  922   1.743   5.206   7.140
   41POPC   C2B  923   1.686   5.139   6.694
   41POPC   C3B  924   1.905   4.910   6.354
   41POPC   C4B  925   1.776   4.652   5.972
   42POPC   NC3  926   7.648   8.714   8.185
   42POPC   PO4  927   8.257   8.463   8.360
   42POPC   GL1  928   8.097   8.510   7.870
   42POPC   GL2  929   7.783   8.674   7.700
   42POPC   C1A  930   8.095   8.432   7.381
   42POPC   D2A  931   7.903   8.500   6.952
   42POPC   C3A  932   7.962   8.257   6.558
   42POPC   C4A  933   8.146   8.363   6.146
   42POPC   C1B  934   7.649   8.839   7.276
   42POPC   C2B  935   7.816   8.980   6.850
   42POPC   C3B  936   7.760   8.807   6.450
   42POPC   C4B  937   7.506   8.929   6.096
   43POPC   NC3  938   1.093   5.973   8.164
   43POPC   PO4  939   1.232   6.624   8.143
   43POPC   GL1  940   1.298   6.282   7.814
   43POPC   GL2  941   0.992   6.168   7.669
   43POPC   C1A  942   1.420   6.195   7.389
   43POPC   D2A  943   1.231   6.221   7.005
   43POPC   C3A  944   1.474   6.345   6.668
   43POPC   C4A  945   1.496   6.177   6.271
   43POPC   C1B  946   1.106   6.592   7.448
   43POPC   C2B  947   1.181   6.805   7.060
   43POPC   C3B  948   1.231   6.892   6.621
   43POPC   C4B  949   1.160   6.591   6.313
   44POPC   NC3  950   1.473   3.179   8.386
   44POPC   PO4  951   0.891   2.988   8.054
   44POPC   GL1  952   1.141   3.185   7.697
   44POPC   GL2  953   1.250   3.544   7.754
   44POPC   C1A  954   1.219   3.317   7.266
   44POPC   D2A  955   1.165   3.589   6.925
   44POPC   C3A  956   1.260   3.316   6.627
   44POPC   C4A  957   1.072   3.277   6.265
   44POPC   C1B  958   1.455   3.758   7.383
   44POPC   C2B  959   1.670   3.569   7.030
   44POPC   C3B  960   1.604   3.694   6.622
   44POPC   C4B  961   1.418   3.623   6.236
   45POPC   NC3  962   1.192   9.535   7.972
   45POPC   PO4  963   0.745   8.965   8.158
   45POPC   GL1  964   0.843   9.144   7.732
   45POPC   GL2  965   1.020   9.424   7.532
   45POPC   C1A  966   0.769   9.109   7.274
   45POPC   D2A  967   1.030   9.368   6.999
   45POPC   C3A  968   0.882   9.442   6.620
   45POPC   C4A  969   0.858   9.161   6.278
   45POPC   C1B  970   1.356   9.579   7.343
   45POPC   C2B  971   1.416   9.728   6.944
   45POPC   C3B  972   1.413   9.497   6.602
   45POPC   C4B  973   1.232   9.467   6.236
   46POPC   NC3  974   8.818   2.437   8.370
   46POPC   PO4  975   8.394   2.962   8.217
   46POPC   GL1  976   8.431   2.814   7.754
   46POPC   GL2  977   8.752   2.623   7.748
   46POPC   C1A  978   8.325   2.872   7.282
   46POPC   D2A  979   8.562   2.973   6.912
   46POPC   C3A  980   8.410   2.969   6.483
   46POPC   C4A  981   8.639   2.923   6.105
   46POPC   C1B  982   8.779   2.674   7.294
   46POPC   C2B  983   8.635   2.461   6.914
   46POPC   C3B  984   8.757   2.596   6.509
   46POPC   C4B  985   9.090   2.808   6.279
   47POPC   NC3  986   0.454   8.592   8.091
   47POPC   PO4  987   0.071   9.142   8.117
   47POPC   GL1  988   0.140   8.811   7.756
   47POPC   GL2  989   0.516   8.749   7.602
   47POPC   C1A  990   0.087   8.547   7.386
   47POPC   D2A  991   0.172   8.442   6.965
   47POPC   C3A  992   0.286   8.697   6.629
   47POPC   C4A  993   0.109   8.543   6.222
   47POPC   C1B  994   0.612   8.650   7.148
   47POPC   C2B  995   0.791   8.423   6.794
   47POPC   C3B  996   0.838   8.681   6.439
   47POPC   C4B  997   0.482   8.858   6.173
   48POPC   NC3  998   2.795   0.541   8.146
   48POPC   PO4  999   2.643  10.420   8.097
   48POPC   GL1 1000   2.548   0.275   7.756
   48POPC   GL2 1001   2.644   0.646   7.640
   48POPC   C1A 1002   2.521   0.266   7.308
   48POPC   D2A 1003   2.583   0.538   6.964
   48POPC   C3A 1004   2.723   0.344   6.576
   48POPC   C4A 1005   2.477   0.349   6.179
   48POPC   C1B 1006   2.953   0.718   7.298
   48POPC   C2B 1007   3.080   0.608   6.859
   48POPC   C3B 1008   3.013   0.779   6.515
   48POPC   C4B 1009   2.900   0.636   6.181
   49POPC   NC3 1010   9.892   0.321   8.339
   49POPC   PO4 1011   9.826   0.867   7.891
   49POPC   GL1 1012   9.598   0.558   7.579
   49POPC   GL2 1013   9.212   0.469   7.601
   49POPC   C1A 1014   9.505   0.314   7.199
   49POPC   D2A 1015   9.133   0.163   6.943
   49POPC   C3A 1016   9.296   0.194   6.519
   49POPC   C4A 1017   9.642   0.195   6.202
   49POPC   C1B 1018   9.236   0.738   7.198
   49POPC   C2B 1019   9.275   0.641   6.765
   49POPC   C3B 1020   9.376   0.671   6.340
   49POPC   C4B 1021   9.500   0.607   5.929
   50POPC   NC3 1022   3.909   1.027   7.927
   50POPC   PO4 1023   4.528   1.168   8.185
   50POPC   GL1 1024   4.497   1.003   7.782
   50POPC   GL2 1025   4.326   0.701   7.812
   50POPC   C1A 1026   4.462   1.117   7.356
   50POPC   D2A 1027   4.417   1.353   6.979
   50POPC   C3A 1028   4.373   1.213   6.581
   50POPC   C4A 1029   4.343   1.458   6.184
   50POPC   C1B 1030   4.134   0.672   7.398
   50POPC   C2B 1031   4.199   0.848   6.998
   50POPC   C3B 1032   4.220   0.724   6.588
   50POPC   C4B 1033   4.127   0.971   6.205
   51POPC   NC3 1034   3.223   2.695   8.024
   51POPC   PO4 1035   3.786   2.688   8.087
   51POPC   GL1 1036   3.621   2.714   7.650
   51POPC   GL2 1037   3.400   2.416   7.624
   51POPC   C1A 1038   3.642   2.917   7.205
   51POPC   D2A 1039   3.444   2.965   6.785
   51POPC   C3A 1040   3.633   3.021   6.362
   51POPC   C4A 1041   3.532   3.155   5.919
   51POPC   C1B 1042   3.291   2.513   7.196
   51POPC   C2B 1043   3.157   2.518   6.773
   51POPC   C3B 1044   3.306   2.635   6.388
   51POPC   C4B 1045   3.210   2.346   6.046
   52POPC   NC3 1046   2.506   1.188   7.950
   52POPC   PO4 1047   2.866   1.603   8.367
   52POPC   GL1 1048   2.700   1.617   7.776
   52POPC   GL2 1049   2.827   1.258   7.558
   52POPC   C1A 1050   2.655   1.607   7.253
   52POPC   D2A 1051   2.885   1.550   6.821
   52POPC   C3A 1052   2.738   1.216   6.496
   52POPC   C4A 1053   2.560   1.335   6.075
   52POPC   C1B 1054   2.579   1.047   7.248
   52POPC   C2B 1055   2.349   0.996   6.867
   52POPC   C3B 1056   2.453   0.773   6.508
   52POPC   C4B 1057   2.431   0.850   6.097
   53POPC   NC3 1058   3.458   7.935   8.079
   53POPC   PO4 1059   3.907   8.459   8.024
   53POPC   GL1 1060   3.664   8.339   7.627
   53POPC   GL2 1061   3.343   8.158   7.652
   53POPC   C1A 1062   3.530   8.232   7.183
   53POPC   D2A 1063   3.412   8.308   6.772
   53POPC   C3A 1064   3.477   8.027   6.419
   53POPC   C4A 1065   3.278   8.073   6.019
   53POPC   C1B 1066   3.257   7.832   7.350
   53POPC   C2B 1067   3.345   7.799   6.896
   53POPC   C3B 1068   3.173   7.609   6.508
   53POPC   C4B 1069   3.140   7.592   6.063
   54POPC   NC3 1070   3.618   8.815   7.918
   54POPC   PO4 1071   3.050   8.985   8.013
   54POPC   GL1 1072   3.044   8.929   7.593
   54POPC   GL2 1073   3.246   8.653   7.584
   54POPC   C1A 1074   2.955   8.707   7.183
   54POPC   D2A 1075   3.241   8.785   6.878
   54POPC   C3A 1076   3.196   8.680   6.485
   54POPC   C4A 1077   3.222   8.945   6.146
   54POPC   C1B 1078   3.590   8.731   7.249
   54POPC   C2B 1079   3.784   8.659   6.812
   54POPC   C3B 1080   3.678   8.494   6.378
   54POPC   C4B 1081   3.513   8.561   5.934
   55POPC   NC3 1082   1.402   4.141   8.122
   55POPC   PO4 1083   0.983   4.552   8.162
   55POPC   GL1 1084   0.948   4.353   7.753
   55POPC   GL2 1085   1.071   4.028   7.739
   55POPC   C1A 1086   1.190   4.401   7.358
   55POPC   D2A 1087   1.263   4.596   6.930
   55POPC   C3A 1088   1.013   4.503   6.572
   55POPC   C4A 1089   1.088   4.408   6.149
   55POPC   C1B 1090   0.995   3.929   7.300
   55POPC   C2B 1091   1.326   4.075   6.960
   55POPC   C3B 1092   1.253   4.048   6.510
   55POPC   C4B 1093   0.931   3.747   6.402
   56POPC   NC3 1094   9.024   8.559   8.053
   56POPC   PO4 1095   9.629   8.809   8.058
   56POPC   GL1 1096   9.458   8.596   7.698
   56POPC   GL2 1097   9.224   8.839   7.649
   56POPC   C1A 1098   9.510   8.704   7.236
   56POPC   D2A 1099   9.289   8.540   6.835
   56POPC   C3A 1100   9.493   8.661   6.503
   56POPC   C4A 1101   9.490   8.545   6.092
   56POPC   C1B 1102   9.114   9.080   7.290
   56POPC   C2B 1103   9.241   9.035   6.878
   56POPC   C3B 1104   9.081   8.952   6.478
   56POPC   C4B 1105   9.296   9.011   6.084
   57POPC   NC3 1106   1.068   7.851   8.146
   57POPC   PO4 1107   1.398   8.306   7.836
   57POPC   GL1 1108   1.238   7.950   7.654
   57POPC   GL2 1109   0.859   7.914   7.681
   57POPC   C1A 1110   1.385   7.991   7.241
   57POPC   D2A 1111   1.499   7.745   6.926
   57POPC   C3A 1112   1.335   7.873   6.560
   57POPC   C4A 1113   1.529   7.861   6.204
   57POPC   C1B 1114   0.825   7.724   7.285
   57POPC   C2B 1115   0.964   7.912   6.925
   57POPC   C3B 1116   0.813   7.920   6.525
   57POPC   C4B 1117   0.977   7.960   6.156
   58POPC   NC3 1118   2.067   7.324   8.002
   58POPC   PO4 1119   1.447   7.590   8.036
   58POPC   GL1 1120   1.601   7.302   7.697
   58POPC   GL2 1121   1.912   7.313   7.527
   58POPC   C1A 1122   1.549   7.088   7.291
   58POPC   D2A 1123   1.767   7.302   6.932
   58POPC   C3A 1124   1.616   7.216   6.492
   58POPC   C4A 1125   1.658   6.770   6.295
   58POPC   C1B 1126   2.321   7.334   7.364
   58POPC   C2B 1127   2.384   7.435   6.943
   58POPC   C3B 1128   2.121   7.474   6.599
   58POPC   C4B 1129   2.062   7.219   6.218
   59POPC   NC3 1130   6.962   9.440   8.130
   59POPC   PO4 1131   7.498   9.891   8.011
   59POPC   GL1 1132   7.224   9.659   7.733
   59POPC   GL2 1133   7.441   9.401   7.676
   59POPC   C1A 1134   7.132   9.552   7.270
   59POPC   D2A 1135   6.956   9.261   6.969
   59POPC   C3A 1136   7.051   9.351   6.562
   59POPC   C4A 1137   6.939   9.334   6.161
   59POPC   C1B 1138   7.625   9.364   7.294
   59POPC   C2B 1139   7.445   9.305   6.923
   59POPC   C3B 1140   7.576   9.337   6.529
   59POPC   C4B 1141   7.428   9.419   6.165
   60POPC   NC3 1142   0.524   7.555   7.880
   60POPC   PO4 1143   0.635   8.173   8.086
   60POPC   GL1 1144   0.435   8.236   7.691
   60POPC   GL2 1145   0.205   7.954   7.641
   60POPC   C1A 1146   0.566   8.173   7.271
   60POPC   D2A 1147   0.455   8.035   6.875
   60POPC   C3A 1148   0.407   8.227   6.501
   60POPC   C4A 1149   0.612   8.343   6.156
   60POPC   C1B 1150   0.292   7.727   7.251
   60POPC   C2B 1151   0.521   7.550   6.862
   60POPC   C3B 1152   0.293   7.724   6.483
   60POPC   C4B 1153   0.451   7.885   6.075
   61POPC   NC3 1154   2.665   1.955   8.170
   61POPC   PO4 1155   2.076   2.210   8.294
   61POPC   GL1 1156   2.298   2.175   7.798
   61POPC   GL2 1157   2.641   2.125   7.690
   61POPC   C1A 1158   2.371   2.049   7.286
   61POPC   D2A 1159   2.575   1.943   6.841
   61POPC   C3A 1160   2.446   2.159   6.416
   61POPC   C4A 1161   2.327   2.190   5.921
   61POPC   C1B 1162   2.986   1.973   7.429
   61POPC   C2B 1163   3.105   2.044   6.984
   61POPC   C3B 1164   2.993   2.035   6.549
   61POPC   C4B 1165   2.741   1.708   6.357
   62POPC   NC3 1166   4.208   2.516   8.091
   62POPC   PO4 1167   4.597   3.038   7.928
   62POPC   GL1 1168   4.356   2.769   7.583
   62POPC   GL2 1169   4.102   2.489   7.592
   62POPC   C1A 1170   4.179   2.736   7.131
   62POPC   D2A 1171   3.971   2.972   6.789
   62POPC   C3A 1172   4.152   3.007   6.375
   62POPC   C4A 1173   3.999   2.939   5.969
   62POPC   C1B 1174   3.787   2.429   7.258
   62POPC   C2B 1175   3.697   2.533   6.822
   62POPC   C3B 1176   3.892   2.563   6.409
   62POPC   C4B 1177   4.335   2.502   6.280
   63POPC   NC3 1178   2.808   8.602   8.005
   63POPC   PO4 1179   2.303   9.087   8.132
   63POPC   GL1 1180   2.557   8.995   7.771
   63POPC   GL2 1181   2.604   8.656   7.562
   63POPC   C1A 1182   2.626   9.102   7.357
   63POPC   D2A 1183   2.512   8.885   7.003
   63POPC   C3A 1184   2.737   8.876   6.629
   63POPC   C4A 1185   2.608   8.886   6.217
   63POPC   C1B 1186   2.473   8.398   7.216
   63POPC   C2B 1187   2.619   8.405   6.803
   63POPC   C3B 1188   2.670   8.417   6.379
   63POPC   C4B 1189   2.995   8.486   6.074
   64POPC   NC3 1190   5.747   0.546   7.942
   64POPC   PO4 1191   5.259  10.455   8.040
   64POPC   GL1 1192   5.478   0.181   7.713
   64POPC   GL2 1193   5.392   0.492   7.563
   64POPC   C1A 1194   5.678   0.157   7.290
   64POPC   D2A 1195   5.597   0.251   6.845
   64POPC   C3A 1196   5.846   0.161   6.472
   64POPC   C4A 1197   5.791   0.111   6.010
   64POPC   C1B 1198   5.709   0.666   7.251
   64POPC   C2B 1199   5.666   0.738   6.798
   64POPC   C3B 1200   5.461   0.538   6.430
   64POPC   C4B 1201   5.818   0.599   6.185
   65POPC   NC3 1202   8.965   4.264   7.806
   65POPC   PO4 1203   9.441   4.101   8.317
   65POPC   GL1 1204   9.469   3.986   7.801
   65POPC   GL2 1205   9.677   3.798   7.654
   65POPC   C1A 1206   9.508   4.193   7.316
   65POPC   D2A 1207   9.524   4.348   6.864
   65POPC   C3A 1208   9.132   4.286   6.609
   65POPC   C4A 1209   9.175   4.079   6.232
   65POPC   C1B 1210   9.750   3.771   7.201
   65POPC   C2B 1211   9.641   3.827   6.775
   65POPC   C3B 1212   9.642   3.896   6.343
   65POPC   C4B 1213   9.638   4.338   6.209
   66POPC   NC3 1214   1.438  10.232   8.245
   66POPC   PO4 1215   0.879   0.049   8.153
   66POPC   GL1 1216   1.166  10.403   7.797
   66POPC   GL2 1217   1.214  10.040   7.763
   66POPC   C1A 1218   1.350  10.469   7.386
   66POPC   D2A 1219   1.316  10.225   6.964
   66POPC   C3A 1220   1.426  10.393   6.596
   66POPC   C4A 1221   1.299  10.324   6.196
   66POPC   C1B 1222   1.062  10.005   7.346
   66POPC   C2B 1223   0.922   9.888   6.904
   66POPC   C3B 1224   1.095   9.928   6.468
   66POPC   C4B 1225   1.135   9.891   5.983
   67POPC   NC3 1226  10.245   1.198   8.060
   67POPC   PO4 1227   0.498   1.222   8.127
   67POPC   GL1 1228   0.305   1.227   7.763
   67POPC   GL2 1229   0.561   1.364   7.628
   67POPC   C1A 1230   0.257   1.095   7.322
   67POPC   D2A 1231   0.072   1.265   6.949
   67POPC   C3A 1232   0.172   1.097   6.568
   67POPC   C4A 1233   0.239   0.960   6.156
   67POPC   C1B 1234   0.801   1.392   7.274
   67POPC   C2B 1235   0.798   1.136   6.924
   67POPC   C3B 1236   0.692   1.020   6.503
   67POPC   C4B 1237   0.742   1.308   6.164
   68POPC   NC3 1238   8.738   6.592   7.935
   68POPC   PO4 1239   8.769   6.031   7.671
   68POPC   GL1 1240   8.838   6.335   7.412
   68POPC   GL2 1241   8.916   6.692   7.471
   68POPC   C1A 1242   8.773   6.253   6.989
   68POPC   D2A 1243   8.521   6.009   6.693
   68POPC   C3A 1244   8.781   6.075   6.331
   68POPC   C4A 1245   9.007   6.146   5.951
   68POPC   C1B 1246   8.479   6.640   7.268
   68POPC   C2B 1247   8.382   6.544   6.829
   68POPC   C3B 1248   8.502   6.574   6.351
   68POPC   C4B 1249   8.414   6.852   5.953
   69POPC   NC3 1250   7.734   9.496   8.073
   69POPC   PO4 1251   8.106   8.978   8.113
   69POPC   GL1 1252   7.990   9.168   7.710
   69POPC   GL2 1253   7.974   9.524   7.641
   69POPC   C1A 1254   8.074   9.117   7.269
   69POPC   D2A 1255   8.243   9.291   6.856
   69POPC   C3A 1256   8.070   9.241   6.442
   69POPC   C4A 1257   8.280   9.329   6.059
   69POPC   C1B 1258   8.129   9.624   7.255
   69POPC   C2B 1259   7.861   9.615   6.890
   69POPC   C3B 1260   7.808   9.826   6.497
   69POPC   C4B 1261   7.866   9.651   6.098
   70POPC   NC3 1262   1.291   4.901   8.203
   70POPC   PO4 1263   1.774   4.404   8.163
   70POPC   GL1 1264   1.460   4.611   7.774
   70POPC   GL2 1265   1.140   4.830   7.736
   70POPC   C1A 1266   1.413   4.870   7.333
   70POPC   D2A 1267   1.250   5.148   7.012
   70POPC   C3A 1268   1.190   5.019   6.606
   70POPC   C4A 1269   1.416   4.756   6.324
   70POPC   C1B 1270   0.900   4.837   7.356
   70POPC   C2B 1271   0.803   4.820   6.957
   70POPC   C3B 1272   0.697   4.899   6.558
   70POPC   C4B 1273   0.923   4.885   6.183
   71POPC   NC3 1274  10.340   2.049   7.964
   71POPC   PO4 1275   9.849   2.270   8.381
   71POPC   GL1 1276   9.862   2.211   7.853
   71POPC   GL2 1277   9.936   1.920   7.683
   71POPC   C1A 1278  10.031   2.271   7.358
   71POPC   D2A 1279  10.276   2.264   6.958
   71POPC   C3A 1280  10.217   2.010   6.572
   71POPC   C4A 1281  10.440   1.932   6.168
   71POPC   C1B 1282  10.166   1.781   7.302
   71POPC   C2B 1283  10.465   1.784   6.967
   71POPC   C3B 1284   0.030   1.604   6.568
   71POPC   C4B 1285  10.494   1.419   6.178
   72POPC   NC3 1286   7.307   1.376   8.622
   72POPC   PO4 1287   7.105   0.971   8.170
   72POPC   GL1 1288   7.233   0.946   7.749
   72POPC   GL2 1289   7.331   1.297   7.731
   72POPC   C1A 1290   6.940   1.046   7.392
   72POPC   D2A 1291   6.702   0.977   7.006
   72POPC   C3A 1292   6.848   1.087   6.607
   72POPC   C4A 1293   7.023   1.000   6.200
   72POPC   C1B 1294   7.225   1.476   7.350
   72POPC   C2B 1295   7.126   1.313   6.989
   72POPC   C3B 1296   7.199   1.440   6.589
   72POPC   C4B 1297   7.298   1.405   6.162
   73POPC   NC3 1298  10.472   3.946   7.928
   73POPC   PO4 1299   0.630   3.929   8.029
   73POPC   GL1 1300   0.553   4.027   7.635
   73POPC   GL2 1301   0.351   4.311   7.625
   73POPC   C1A 1302   0.376   3.925   7.237
   73POPC   D2A 1303   0.109   4.120   6.940
   73POPC   C3A 1304   0.003   4.000   6.532
   73POPC   C4A 1305   0.116   4.288   6.227
   73POPC   C1B 1306   0.688   4.354   7.279
   73POPC   C2B 1307   0.788   4.150   6.887
   73POPC   C3B 1308   0.591   4.157   6.495
   73POPC   C4B 1309   0.591   4.486   6.210
   74POPC   NC3 1310   1.654   6.427   8.158
   74POPC   PO4 1311   1.822   6.942   8.002
   74POPC   GL1 1312   1.613   6.680   7.683
   74POPC   GL2 1313   1.803   6.329   7.679
   74POPC   C1A 1314   1.648   6.598   7.222
   74POPC   D2A 1315   1.668   6.802   6.831
   74POPC   C3A 1316   2.043   6.901   6.626
   74POPC   C4A 1317   2.338   6.744   6.310
   74POPC   C1B 1318   1.925   6.143   7.269
   74POPC   C2B 1319   1.978   6.373   6.879
   74POPC   C3B 1320   1.971   6.345   6.452
   74POPC   C4B 1321   1.962   5.936   6.254
   75POPC   NC3 1322   9.952   0.265   7.851
   75POPC   PO4 1323  10.127   0.797   8.318
   75POPC   GL1 1324  10.273   0.663   7.822
   75POPC   GL2 1325  10.417   0.905   7.668
   75POPC   C1A 1326  10.052   0.604   7.331
   75POPC   D2A 1327   9.990   0.288   6.988
   75POPC   C3A 1328   9.784   0.437   6.621
   75POPC   C4A 1329   9.914   0.618   6.222
   75POPC   C1B 1330   0.042   0.644   7.302
   75POPC   C2B 1331  10.468   0.551   6.894
   75POPC   C3B 1332  10.352   0.630   6.480
   75POPC   C4B 1333  10.355   0.238   6.237
   76POPC   NC3 1334   6.459   7.973   8.252
   76POPC   PO4 1335   6.875   7.593   8.073
   76POPC   GL1 1336   6.543   7.823   7.774
   76POPC   GL2 1337   6.194   8.030   7.823
   76POPC   C1A 1338   6.502   8.164   7.456
   76POPC   D2A 1339   6.225   8.159   7.099
   76POPC   C3A 1340   6.373   8.086   6.705
   76POPC   C4A 1341   6.484   8.072   6.281
   76POPC   C1B 1342   6.181   7.756   7.418
   76POPC   C2B 1343   6.320   7.635   6.985
   76POPC   C3B 1344   6.307   7.623   6.520
   76POPC   C4B 1345   5.999   7.873   6.280
   77POPC   NC3 1346   1.875   8.931   8.150
   77POPC   PO4 1347   1.574   8.429   8.318
   77POPC   GL1 1348   1.829   8.535   7.835
   77POPC   GL2 1349   2.203   8.614   7.895
   77POPC   C1A 1350   1.655   8.599   7.330
   77POPC   D2A 1351   1.600   8.814   6.902
   77POPC   C3A 1352   1.708   8.646   6.477
   77POPC   C4A 1353   1.764   8.717   6.015
   77POPC   C1B 1354   2.132   8.743   7.442
   77POPC   C2B 1355   2.072   8.619   7.001
   77POPC   C3B 1356   2.234   8.678   6.600
   77POPC   C4B 1357   2.213   8.568   6.206
   78POPC   NC3 1358   1.966   9.964   8.256
   78POPC   PO4 1359   1.660   0.094   8.049
   78POPC   GL1 1360   1.713  10.223   7.755
   78POPC   GL2 1361   1.989  10.263   7.494
   78POPC   C1A 1362   1.597  10.028   7.335
   78POPC   D2A 1363   1.825  10.101   6.922
   78POPC   C3A 1364   1.636   9.950   6.538
   78POPC   C4A 1365   1.618   9.761   6.153
   78POPC   C1B 1366   2.137  10.479   7.141
   78POPC   C2B 1367   2.326   0.075   6.762
   78POPC   C3B 1368   2.185  10.359   6.410
   78POPC   C4B 1369   2.103   9.920   6.356
   79POPC   NC3 1370   0.478   7.168   8.394
   79POPC   PO4 1371   0.056   7.446   7.911
   79POPC   GL1 1372   0.300   7.138   7.703
   79POPC   GL2 1373   0.634   7.025   7.782
   79POPC   C1A 1374   0.398   7.242   7.277
   79POPC   D2A 1375   0.164   7.184   6.907
   79POPC   C3A 1376   0.362   7.208   6.505
   79POPC   C4A 1377   0.681   7.473   6.289
   79POPC   C1B 1378   0.588   6.773   7.356
   79POPC   C2B 1379   0.334   6.681   6.949
   79POPC   C3B 1380   0.289   6.651   6.491
   79POPC   C4B 1381   0.455   6.880   6.132
   80POPC   NC3 1382   1.851   0.862   8.070
   80POPC   PO4 1383   2.110   1.481   7.944
   80POPC   GL1 1384   2.062   1.112   7.658
   80POPC   GL2 1385   1.700   0.991   7.585
   80POPC   C1A 1386   2.128   1.265   7.258
   80POPC   D2A 1387   2.181   1.635   7.015
   80POPC   C3A 1388   2.344   1.505   6.643
   80POPC   C4A 1389   2.168   1.191   6.367
   80POPC   C1B 1390   1.780   0.917   7.143
   80POPC   C2B 1391   1.874   1.213   6.800
   80POPC   C3B 1392   1.667   1.101   6.412
   80POPC   C4B 1393   1.530   0.711   6.239
   81POPC   NC3 1394   2.881  10.070   7.867
   81POPC   PO4 1395   2.214  10.051   7.878
   81POPC   GL1 1396   2.501  10.280   7.580
   81POPC   GL2 1397   2.860  10.424   7.533
   81POPC   C1A 1398   2.576  10.235   7.138
   81POPC   D2A 1399   2.382  10.008   6.807
   81POPC   C3A 1400   2.617  10.034   6.444
   81POPC   C4A 1401   2.691  10.423   6.283
   81POPC   C1B 1402   3.082  10.240   7.164
   81POPC   C2B 1403   2.973  10.399   6.734
   81POPC   C3B 1404   3.127  10.193   6.361
   81POPC   C4B 1405   3.048   9.757   6.330
   82POPC   NC3 1406   7.963  10.322   8.039
   82POPC   PO4 1407   8.214   9.717   8.082
   82POPC   GL1 1408   8.201   9.985   7.703
   82POPC   GL2 1409   7.846  10.045   7.641
   82POPC   C1A 1410   8.185  10.140   7.259
   82POPC   D2A 1411   8.236   9.951   6.850
   82POPC   C3A 1412   8.215  10.256   6.554
   82POPC   C4A 1413   7.994  10.283   6.185
   82POPC   C1B 1414   7.690  10.310   7.287
   82POPC   C2B 1415   7.763  10.218   6.844
   82POPC   C3B 1416   7.541  10.311   6.454
   82POPC   C4B 1417   7.529  10.427   5.991
   83POPC   NC3 1418   1.377   7.075   8.083
   83POPC   PO4 1419   0.815   7.456   8.222
   83POPC   GL1 1420   1.037   7.422   7.776
   83POPC   GL2 1421   1.143   7.074   7.640
   83POPC   C1A 1422   1.277   7.513   7.369
   83POPC   D2A 1423   1.244   7.300   6.951
   83POPC   C3A 1424   1.071   7.437   6.602
   83POPC   C4A 1425   1.195   7.480   6.170
   83POPC   C1B 1426   0.894   7.187   7.309
   83POPC   C2B 1427   0.716   7.053   6.920
   83POPC   C3B 1428   0.742   6.859   6.549
   83POPC   C4B 1429   0.933   7.049   6.229
   84POPC   NC3 1430   7.021   9.992   8.103
   84POPC   PO4 1431   6.943   0.180   8.036
   84POPC   GL1 1432   7.046  10.423   7.647
   84POPC   GL2 1433   7.329  10.195   7.660
   84POPC   C1A 1434   7.170  10.253   7.193
   84POPC   D2A 1435   6.923   9.976   6.925
   84POPC   C3A 1436   6.838  10.225   6.583
   84POPC   C4A 1437   7.075  10.313   6.210
   84POPC   C1B 1438   7.498   9.863   7.343
   84POPC   C2B 1439   7.409   9.826   6.910
   84POPC   C3B 1440   7.264   9.824   6.498
   84POPC   C4B 1441   7.442   9.935   6.114
   85POPC   NC3 1442   4.331   0.543   8.334
   85POPC   PO4 1443   3.727   0.621   8.087
   85POPC   GL1 1444   3.927   0.359   7.761
   85POPC   GL2 1445   4.227   0.198   7.897
   85POPC   C1A 1446   3.859   0.233   7.331
   85POPC   D2A 1447   3.844   0.474   6.966
   85POPC   C3A 1448   3.903   0.298   6.588
   85POPC   C4A 1449   3.930   0.514   6.216
   85POPC   C1B 1450   4.391   0.223   7.476
   85POPC   C2B 1451   4.311   0.284   7.042
   85POPC   C3B 1452   4.433   0.238   6.603
   85POPC   C4B 1453   4.468   0.468   6.213
   86POPC   NC3 1454   1.669   2.395   8.425
   86POPC   PO4 1455   1.520   2.980   7.979
   86POPC   GL1 1456   1.652   2.805   7.587
   86POPC   GL2 1457   2.011   2.799   7.632
   86POPC   C1A 1458   1.607   2.540   7.221
   86POPC   D2A 1459   1.646   2.361   6.792
   86POPC   C3A 1460   1.497   2.531   6.472
   86POPC   C4A 1461   1.773   2.670   6.189
   86POPC   C1B 1462   2.129   2.501   7.353
   86POPC   C2B 1463   2.047   2.605   6.968
   86POPC   C3B 1464   2.102   2.573   6.564
   86POPC   C4B 1465   2.317   2.608   6.189
   87POPC   NC3 1466   8.436   5.070   8.070
   87POPC   PO4 1467   8.824   4.649   8.418
   87POPC   GL1 1468   8.990   4.790   7.941
   87POPC   GL2 1469   8.709   4.772   7.743
   87POPC   C1A 1470   9.058   4.958   7.435
   87POPC   D2A 1471   8.822   5.131   7.006
   87POPC   C3A 1472   8.790   4.952   6.594
   87POPC   C4A 1473   8.727   5.173   6.233
   87POPC   C1B 1474   8.592   4.809   7.317
   87POPC   C2B 1475   8.724   4.556   6.954
   87POPC   C3B 1476   8.638   4.463   6.515
   87POPC   C4B 1477   8.475   4.728   6.174
   88POPC   NC3 1478  10.161   9.860   8.199
   88POPC   PO4 1479   9.765  10.407   8.167
   88POPC   GL1 1480   9.961  10.265   7.746
   88POPC   GL2 1481  10.314  10.146   7.790
   88POPC   C1A 1482   9.815  10.401   7.299
   88POPC   D2A 1483   9.582  10.395   6.891
   88POPC   C3A 1484   9.843  10.344   6.533
   88POPC   C4A 1485  10.019  10.370   6.115
   88POPC   C1B 1486  10.316  10.348   7.374
   88POPC   C2B 1487  10.197  10.290   6.947
   88POPC   C3B 1488   0.013  10.201   6.641
   88POPC   C4B 1489  10.444  10.120   6.227
   89POPC   NC3 1490   0.755   1.965   8.359
   89POPC   PO4 1491   1.378   2.050   8.319
   89POPC   GL1 1492   1.375   2.073   7.880
   89POPC   GL2 1493   1.064   1.887   7.806
   89POPC   C1A 1494   1.446   1.960   7.461
   89POPC   D2A 1495   1.367   2.083   7.075
   89POPC   C3A 1496   1.287   1.949   6.654
   89POPC   C4A 1497   1.410   1.999   6.236
   89POPC   C1B 1498   0.968   2.086   7.396
   89POPC   C2B 1499   0.876   1.964   7.013
   89POPC   C3B 1500   0.769   1.976   6.620
   89POPC   C4B 1501   0.924   1.774   6.285
   90POPC   NC3 1502   8.660   5.087   8.539
   90POPC   PO4 1503   8.322   5.512   8.040
   90POPC   GL1 1504   8.204   5.235   7.645
   90POPC   GL2 1505   8.198   4.881   7.638
   90POPC   C1A 1506   8.285   5.183   7.188
   90POPC   D2A 1507   8.354   4.902   6.822
   90POPC   C3A 1508   8.210   5.084   6.422
   90POPC   C4A 1509   8.162   5.127   5.968
   90POPC   C1B 1510   8.109   4.675   7.215
   90POPC   C2B 1511   7.853   4.800   6.823
   90POPC   C3B 1512   7.711   4.906   6.378
   90POPC   C4B 1513   7.489   4.870   5.959
   91POPC   NC3 1514   5.682   2.136   7.984
   91POPC   PO4 1515   6.133   1.602   8.043
   91POPC   GL1 1516   5.821   1.737   7.697
   91POPC   GL2 1517   5.978   2.031   7.603
   91POPC   C1A 1518   5.601   2.002   7.292
   91POPC   D2A 1519   5.771   2.160   6.891
   91POPC   C3A 1520   5.523   2.159   6.501
   91POPC   C4A 1521   5.544   1.890   6.140
   91POPC   C1B 1522   6.085   1.839   7.223
   91POPC   C2B 1523   5.990   1.704   6.832
   91POPC   C3B 1524   5.957   1.902   6.461
   91POPC   C4B 1525   6.014   1.970   5.990
   92POPC   NC3 1526   1.676   8.029   8.075
   92POPC   PO4 1527   2.248   7.703   8.180
   92POPC   GL1 1528   2.115   7.758   7.701
   92POPC   GL2 1529   1.748   7.799   7.628
   92POPC   C1A 1530   2.068   7.751   7.203
   92POPC   D2A 1531   2.336   7.988   6.889
   92POPC   C3A 1532   2.318   8.008   6.410
   92POPC   C4A 1533   2.031   7.728   6.179
   92POPC   C1B 1534   1.939   8.181   7.435
   92POPC   C2B 1535   1.816   8.182   7.002
   92POPC   C3B 1536   1.849   7.982   6.612
   92POPC   C4B 1537   1.874   8.212   6.223
   93POPC   NC3 1538   9.577   3.658   8.196
   93POPC   PO4 1539   8.861   3.675   8.196
   93POPC   GL1 1540   9.096   3.645   7.820
   93POPC   GL2 1541   9.357   3.395   7.793
   93POPC   C1A 1542   9.229   3.745   7.389
   93POPC   D2A 1543   9.184   3.937   6.979
   93POPC   C3A 1544   9.143   3.698   6.589
   93POPC   C4A 1545   9.291   3.581   6.168
   93POPC   C1B 1546   9.218   3.229   7.381
   93POPC   C2B 1547   9.365   3.431   6.988
   93POPC   C3B 1548   9.556   3.369   6.582
   93POPC   C4B 1549   9.483   3.120   6.240
   94POPC   NC3 1550   0.524   4.398   8.117
   94POPC   PO4 1551   0.282   5.033   8.272
   94POPC   GL1 1552   0.271   4.799   7.817
   94POPC   GL2 1553   0.618   4.759   7.765
   94POPC   C1A 1554   0.345   4.712   7.318
   94POPC   D2A 1555   0.388   4.540   6.852
   94POPC   C3A 1556   0.233   4.751   6.454
   94POPC   C4A 1557   0.182   4.737   5.979
   94POPC   C1B 1558   0.496   5.148   7.512
   94POPC   C2B 1559   0.401   5.145   7.043
   94POPC   C3B 1560   0.344   5.259   6.588
   94POPC   C4B 1561   0.459   5.132   6.142
   95POPC   NC3 1562   1.210   8.648   8.102
   95POPC   PO4 1563   1.612   9.260   7.985
   95POPC   GL1 1564   1.404   8.917   7.701
   95POPC   GL2 1565   1.063   8.690   7.618
   95POPC   C1A 1566   1.277   8.984   7.274
   95POPC   D2A 1567   1.049   8.854   6.913
   95POPC   C3A 1568   1.247   9.011   6.568
   95POPC   C4A 1569   1.282   8.823   6.189
   95POPC   C1B 1570   1.102   8.433   7.226
   95POPC   C2B 1571   1.323   8.346   6.821
   95POPC   C3B 1572   1.273   8.341   6.355
   95POPC   C4B 1573   1.063   8.423   5.942
   96POPC   NC3 1574   6.662   0.947   7.990
   96POPC   PO4 1575   5.999   0.865   8.168
   96POPC   GL1 1576   6.174   0.976   7.775
   96POPC   GL2 1577   6.385   1.280   7.735
   96POPC   C1A 1578   6.362   0.888   7.378
   96POPC   D2A 1579   6.169   0.828   6.985
   96POPC   C3A 1580   6.354   0.925   6.607
   96POPC   C4A 1581   6.127   1.042   6.246
   96POPC   C1B 1582   6.166   1.360   7.370
   96POPC   C2B 1583   6.320   1.336   6.958
   96POPC   C3B 1584   6.310   1.433   6.532
   96POPC   C4B 1585   6.579   1.287   6.216
   97POPC   NC3 1586   3.272   1.723   8.210
   97POPC   PO4 1587   3.827   1.359   8.232
   97POPC   GL1 1588   3.749   1.554   7.798
   97POPC   GL2 1589   3.417   1.760   7.714
   97POPC   C1A 1590   3.654   1.526   7.335
   97POPC   D2A 1591   3.382   1.565   6.970
   97POPC   C3A 1592   3.474   1.668   6.522
   97POPC   C4A 1593   3.263   1.852   6.156
   97POPC   C1B 1594   3.501   2.008   7.326
   97POPC   C2B 1595   3.630   2.033   6.902
   97POPC   C3B 1596   3.504   2.181   6.502
   97POPC   C4B 1597   3.713   2.169   6.129
   98POPC   NC3 1598   6.289   0.544   8.363
   98POPC   PO4 1599   5.742   0.190   8.238
   98POPC   GL1 1600   5.996   0.104   7.788
   98POPC   GL2 1601   6.126   0.440   7.599
   98POPC   C1A 1602   6.165   0.014   7.328
   98POPC   D2A 1603   6.075   0.333   6.985
   98POPC   C3A 1604   6.291   0.409   6.578
   98POPC   C4A 1605   6.238   0.298   6.136
   98POPC   C1B 1606   6.500   0.402   7.281
   98POPC   C2B 1607   6.733   0.475   6.881
   98POPC   C3B 1608   6.774   0.607   6.472
   98POPC   C4B 1609   6.563   0.770   6.159
   99POPC   NC3 1610   1.298   2.584   7.925
   99POPC   PO4 1611   0.703   2.215   7.954
   99POPC   GL1 1612   0.655   2.461   7.581
   99POPC   GL2 1613   0.823   2.769   7.607
   99POPC   C1A 1614   0.723   2.486   7.113
   99POPC   D2A 1615   1.072   2.399   6.807
   99POPC   C3A 1616   1.025   2.339   6.360
   99POPC   C4A 1617   0.876   2.565   5.991
   99POPC   C1B 1618   1.161   2.794   7.315
   99POPC   C2B 1619   1.298   2.855   6.901
   99POPC   C3B 1620   1.061   2.835   6.518
   99POPC   C4B 1621   1.266   2.851   6.140
  100POPC   NC3 1622   1.973   3.970   8.132
  100POPC   PO4 1623   2.316   4.335   7.896
  100POPC   GL1 1624   1.923   4.397   7.677
  100POPC   GL2 1625   1.665   4.132   7.701
  100POPC   C1A 1626   1.698   4.446   7.283
  100POPC   D2A 1627   1.762   4.683   6.908
  100POPC   C3A 1628   1.776   4.430   6.529
  100POPC   C4A 1629   2.105   4.358   6.210
  100POPC   C1B 1630   1.916   3.982   7.361
  100POPC   C2B 1631   1.891   4.031   6.924
  100POPC   C3B 1632   2.048   3.947   6.520
  100POPC   C4B 1633   1.723   4.016   6.232
  101POPC   NC3 1634   8.015   2.735   8.089
  101POPC   PO4 1635   8.154   3.246   7.762
  101POPC   GL1 1636   7.917   2.884   7.596
  101POPC   GL2 1637   7.996   2.498   7.653
  101POPC   C1A 1638   7.822   2.994   7.170
  101POPC   D2A 1639   8.061   3.147   6.818
  101POPC   C3A 1640   7.912   3.037   6.399
  101POPC   C4A 1641   8.125   2.948   6.009
  101POPC   C1B 1642   7.956   2.516   7.232
  101POPC   C2B 1643   8.139   2.631   6.875
  101POPC   C3B 1644   8.057   2.556   6.501
  101POPC   C4B 1645   8.319   2.515   6.198
  102POPC   NC3 1646   1.221   0.350   8.033
  102POPC   PO4 1647   0.564   0.549   8.074
  102POPC   GL1 1648   0.746   0.268   7.717
  102POPC   GL2 1649   1.034   0.416   7.549
  102POPC   C1A 1650   0.840   0.003   7.336
  102POPC   D2A 1651   1.084   0.165   6.970
  102POPC   C3A 1652   0.915  10.448   6.600
  102POPC   C4A 1653   0.784   0.107   6.215
  102POPC   C1B 1654   1.402   0.563   7.306
  102POPC   C2B 1655   1.485   0.571   6.853
  102POPC   C3B 1656   1.282   0.358   6.493
  102POPC   C4B 1657   1.220   0.292   6.035
  103POPC   NC3 1658  10.370   4.951   8.101
  103POPC   PO4 1659   9.760   4.783   8.303
  103POPC   GL1 1660   9.948   4.741   7.862
  103POPC   GL2 1661  10.010   5.068   7.684
  103POPC   C1A 1662   9.941   4.631   7.412
  103POPC   D2A 1663   9.986   4.902   7.050
  103POPC   C3A 1664   9.847   4.744   6.640
  103POPC   C4A 1665   9.877   5.014   6.255
  103POPC   C1B 1666  10.382   4.906   7.441
  103POPC   C2B 1667  10.482   4.840   6.988
  103POPC   C3B 1668  10.296   4.970   6.605
  103POPC   C4B 1669  10.468   5.123   6.238
  104POPC   NC3 1670  10.202   7.102   7.949
  104POPC   PO4 1671   0.251   6.811   8.191
  104POPC   GL1 1672   0.004   6.717   7.759
  104POPC   GL2 1673  10.130   6.836   7.535
  104POPC   C1A 1674   0.077   6.874   7.342
  104POPC   D2A 1675  10.280   6.863   7.033
  104POPC   C3A 1676  10.369   6.874   6.636
  104POPC   C4A 1677  10.093   6.860   6.369
  104POPC   C1B 1678  10.209   7.279   7.318
  104POPC   C2B 1679  10.242   7.492   6.921
  104POPC   C3B 1680  10.368   7.405   6.514
  104POPC   C4B 1681  10.102   7.369   6.175
  105POPC   NC3 1682   8.489   5.950   8.049
  105POPC   PO4 1683   8.293   6.633   8.059
  105POPC   GL1 1684   8.366   6.346   7.674
  105POPC   GL2 1685   8.067   6.167   7.644
  105POPC   C1A 1686   8.336   6.147   7.217
  105POPC   D2A 1687   8.029   6.130   6.900
  105POPC   C3A 1688   8.086   6.313   6.502
  105POPC   C4A 1689   8.292   6.105   6.217
  105POPC   C1B 1690   7.970   6.495   7.285
  105POPC   C2B 1691   7.752   6.548   6.853
  105POPC   C3B 1692   7.594   6.246   6.506
  105POPC   C4B 1693   7.794   6.088   6.116
  106POPC   NC3 1694   1.786   1.858   8.136
  106POPC   PO4 1695   1.774   2.523   7.986
  106POPC   GL1 1696   1.814   2.243   7.635
  106POPC   GL2 1697   1.919   1.867   7.636
  106POPC   C1A 1698   1.871   2.090   7.178
  106POPC   D2A 1699   2.092   2.092   6.789
  106POPC   C3A 1700   1.889   2.140   6.386
  106POPC   C4A 1701   1.831   2.206   5.960
  106POPC   C1B 1702   1.735   1.591   7.287
  106POPC   C2B 1703   1.684   1.700   6.852
  106POPC   C3B 1704   1.872   1.624   6.465
  106POPC   C4B 1705   2.217   1.753   6.207
  107POPC   NC3 1706   9.509   6.275   8.310
  107POPC   PO4 1707   8.880   6.223   8.183
  107POPC   GL1 1708   9.189   6.311   7.797
  107POPC   GL2 1709   9.286   6.649   7.834
  107POPC   C1A 1710   9.324   6.244   7.314
  107POPC   D2A 1711   9.243   6.155   6.829
  107POPC   C3A 1712   9.145   6.481   6.499
  107POPC   C4A 1713   9.378   6.529   6.102
  107POPC   C1B 1714   9.439   6.727   7.401
  107POPC   C2B 1715   9.480   6.585   6.949
  107POPC   C3B 1716   9.562   6.800   6.555
  107POPC   C4B 1717   9.658   6.939   6.160
  108POPC   NC3 1718   2.229   2.603   8.075
  108POPC   PO4 1719   2.887   2.368   8.065
  108POPC   GL1 1720   2.885   2.570   7.653
  108POPC   GL2 1721   2.529   2.648   7.631
  108POPC   C1A 1722   2.788   2.413   7.249
  108POPC   D2A 1723   2.503   2.425   6.952
  108POPC   C3A 1724   2.595   2.678   6.656
  108POPC   C4A 1725   2.828   2.495   6.358
  108POPC   C1B 1726   2.434   2.874   7.217
  108POPC   C2B 1727   2.272   3.061   6.858
  108POPC   C3B 1728   2.299   3.047   6.418
  108POPC   C4B 1729   2.692   2.974   6.213
  109POPC   NC3 1730   6.553  10.456   7.907
  109POPC   PO4 1731   6.650   9.735   7.947
  109POPC   GL1 1732   6.544   9.875   7.570
  109POPC   GL2 1733   6.872   9.957   7.482
  109POPC   C1A 1734   6.272   9.987   7.223
  109POPC   D2A 1735   6.412  10.022   6.805
  109POPC   C3A 1736   6.237   9.823   6.439
  109POPC   C4A 1737   6.260   9.782   5.927
  109POPC   C1B 1738   6.663  10.322   7.251
  109POPC   C2B 1739   6.473   0.021   6.877
  109POPC   C3B 1740   6.282  10.381   6.474
  109POPC   C4B 1741   6.534  10.147   6.177
  110POPC   NC3 1742   2.073   5.506   8.049
  110POPC   PO4 1743   1.594   5.970   8.124
  110POPC   GL1 1744   1.584   5.840   7.690
  110POPC   GL2 1745   1.914   5.795   7.655
  110POPC   C1A 1746   1.612   5.716   7.252
  110POPC   D2A 1747   1.769   5.865   6.841
  110POPC   C3A 1748   1.554   5.697   6.478
  110POPC   C4A 1749   1.601   5.561   6.061
  110POPC   C1B 1750   2.085   5.589   7.289
  110POPC   C2B 1751   2.153   5.471   6.881
  110POPC   C3B 1752   1.994   5.470   6.482
  110POPC   C4B 1753   2.107   5.467   6.072
  111POPC   NC3 1754   0.787   3.440   8.004
  111POPC   PO4 1755   0.192   3.069   8.058
  111POPC   GL1 1756   0.454   3.163   7.723
  111POPC   GL2 1757   0.401   3.535   7.681
  111POPC   C1A 1758   0.716   3.269   7.363
  111POPC   D2A 1759   0.654   3.553   7.000
  111POPC   C3A 1760   0.726   3.331   6.621
  111POPC   C4A 1761   0.581   3.376   6.177
  111POPC   C1B 1762   0.219   3.420   7.287
  111POPC   C2B 1763   0.061   3.605   6.911
  111POPC   C3B 1764   0.286   3.584   6.538
  111POPC   C4B 1765   0.348   3.843   6.162
  112POPC   NC3 1766   6.306   2.807   7.970
  112POPC   PO4 1767   6.843   3.066   7.988
  112POPC   GL1 1768   6.662   2.935   7.611
  112POPC   GL2 1769   6.681   2.596   7.681
  112POPC   C1A 1770   6.363   3.060   7.277
  112POPC   D2A 1771   6.360   3.147   6.820
  112POPC   C3A 1772   6.692   3.028   6.513
  112POPC   C4A 1773   6.667   3.053   6.048
  112POPC   C1B 1774   6.486   2.560   7.284
  112POPC   C2B 1775   6.578   2.664   6.862
  112POPC   C3B 1776   6.272   2.710   6.531
  112POPC   C4B 1777   6.033   2.378   6.315
  113POPC   NC3 1778  10.068   8.971   8.073
  113POPC   PO4 1779  10.142   8.275   8.027
  113POPC   GL1 1780   9.964   8.445   7.646
  113POPC   GL2 1781   9.921   8.811   7.607
  113POPC   C1A 1782  10.060   8.316   7.223
  113POPC   D2A 1783   9.791   8.437   6.903
  113POPC   C3A 1784   9.919   8.373   6.525
  113POPC   C4A 1785   9.956   8.724   6.289
  113POPC   C1B 1786  10.151   8.824   7.210
  113POPC   C2B 1787  10.248   8.711   6.773
  113POPC   C3B 1788  10.394   8.954   6.418
  113POPC   C4B 1789  10.488   9.264   6.147
  114POPC   NC3 1790  10.196   3.034   8.063
  114POPC   PO4 1791  10.033   3.812   8.035
  114POPC   GL1 1792  10.041   3.470   7.760
  114POPC   GL2 1793  10.399   3.382   7.702
  114POPC   C1A 1794   9.724   3.323   7.421
  114POPC   D2A 1795   9.699   3.054   7.048
  114POPC   C3A 1796   9.915   3.000   6.633
  114POPC   C4A 1797   9.961   3.253   6.243
  114POPC   C1B 1798  10.195   3.440   7.268
  114POPC   C2B 1799   9.995   3.450   6.868
  114POPC   C3B 1800  10.091   3.677   6.480
  114POPC   C4B 1801  10.416   3.587   6.173
  115POPC   NC3 1802   7.248   0.518   8.112
  115POPC   PO4 1803   6.517   0.518   7.965
  115POPC   GL1 1804   6.901   0.509   7.642
  115POPC   GL2 1805   7.295   0.393   7.634
  115POPC   C1A 1806   6.997   0.251   7.258
  115POPC   D2A 1807   7.269   0.321   6.897
  115POPC   C3A 1808   7.057   0.189   6.551
  115POPC   C4A 1809   6.678   0.136   6.311
  115POPC   C1B 1810   7.276   0.684   7.285
  115POPC   C2B 1811   7.289   0.850   6.866
  115POPC   C3B 1812   7.283   0.664   6.471
  115POPC   C4B 1813   7.487   0.322   6.309
  116POPC   NC3 1814   9.235  10.237   8.214
  116POPC   PO4 1815   9.437   0.392   8.068
  116POPC   GL1 1816   9.480   0.044   7.739
  116POPC   GL2 1817   9.464  10.167   7.784
  116POPC   C1A 1818   9.302  10.364   7.354
  116POPC   D2A 1819   9.208  10.030   7.074
  116POPC   C3A 1820   9.146  10.200   6.652
  116POPC   C4A 1821   9.372  10.264   6.283
  116POPC   C1B 1822   9.649   9.951   7.445
  116POPC   C2B 1823   9.757   9.917   7.003
  116POPC   C3B 1824   9.570   9.887   6.579
  116POPC   C4B 1825   9.761   9.945   6.167
  117POPC   NC3 1826   7.595   1.137   8.139
  117POPC   PO4 1827   8.285   1.281   8.018
  117POPC   GL1 1828   8.059   1.261   7.659
  117POPC   GL2 1829   7.799   1.010   7.691
  117POPC   C1A 1830   8.242   1.083   7.291
  117POPC   D2A 1831   8.355   0.946   6.863
  117POPC   C3A 1832   8.063   1.152   6.610
  117POPC   C4A 1833   8.059   1.519   6.362
  117POPC   C1B 1834   7.570   1.105   7.318
  117POPC   C2B 1835   7.620   1.268   6.896
  117POPC   C3B 1836   7.568   1.104   6.477
  117POPC   C4B 1837   7.699   1.118   6.052
  118POPC   NC3 1838   9.377   9.234   8.036
  118POPC   PO4 1839   9.068   9.815   8.098
  118POPC   GL1 1840   9.340   9.656   7.731
  118POPC   GL2 1841   9.684   9.471   7.675
  118POPC   C1A 1842   9.373   9.557   7.283
  118POPC   D2A 1843   9.499   9.467   6.876
  118POPC   C3A 1844   9.156   9.477   6.561
  118POPC   C4A 1845   9.116   9.833   6.270
  118POPC   C1B 1846   9.738   9.179   7.296
  118POPC   C2B 1847   9.769   8.982   6.864
  118POPC   C3B 1848   9.590   9.152   6.483
  118POPC   C4B 1849   9.525   9.494   6.195
  119POPC   NC3 1850   0.412   5.466   8.131
  119POPC   PO4 1851   0.662   6.086   8.057
  119POPC   GL1 1852   0.596   5.778   7.764
  119POPC   GL2 1853   0.271   5.724   7.719
  119POPC   C1A 1854   0.633   5.796   7.328
  119POPC   D2A 1855   0.808   5.908   6.929
  119POPC   C3A 1856   0.612   5.793   6.544
  119POPC   C4A 1857   0.615   5.885   6.127
  119POPC   C1B 1858   0.208   5.535   7.339
  119POPC   C2B 1859   0.338   5.645   6.946
  119POPC   C3B 1860   0.100   5.731   6.627
  119POPC   C4B 1861   0.189   5.595   6.228
  120POPC   NC3 1862   4.251   1.539   8.300
  120POPC   PO4 1863   4.484   2.110   8.163
  120POPC   GL1 1864   4.371   1.896   7.743
  120POPC   GL2 1865   4.434   1.522   7.784
  120POPC   C1A 1866   4.067   2.019   7.377
  120POPC   D2A 1867   4.134   2.237   6.941
  120POPC   C3A 1868   4.068   2.074   6.517
  120POPC   C4A 1869   4.219   2.039   6.069
  120POPC   C1B 1870   4.160   1.521   7.402
  120POPC   C2B 1871   4.031   1.709   6.982
  120POPC   C3B 1872   3.990   1.568   6.563
  120POPC   C4B 1873   3.868   1.680   6.150
  121POPC   NC3 1874   2.101   9.503   8.051
  121POPC   PO4 1875   1.559   9.821   8.061
  121POPC   GL1 1876   1.766   9.683   7.666
  121POPC   GL2 1877   2.118   9.680   7.577
  121POPC   C1A 1878   1.838   9.587   7.184
  121POPC   D2A 1879   2.047   9.632   6.795
  121POPC   C3A 1880   1.901   9.454   6.442
  121POPC   C4A 1881   1.639   9.184   6.207
  121POPC   C1B 1882   2.150   9.262   7.427
  121POPC   C2B 1883   2.071   9.135   7.001
  121POPC   C3B 1884   2.305   9.180   6.611
  121POPC   C4B 1885   2.148   9.088   6.192
  122POPC   NC3 1886   8.765   1.343   8.123
  122POPC   PO4 1887   8.513   1.969   8.245
  122POPC   GL1 1888   8.618   1.828   7.811
  122POPC   GL2 1889   8.862   2.110   7.759
  122POPC   C1A 1890   8.362   1.719   7.408
  122POPC   D2A 1891   8.360   1.491   6.994
  122POPC   C3A 1892   8.426   1.758   6.639
  122POPC   C4A 1893   8.395   1.969   6.243
  122POPC   C1B 1894   8.681   2.153   7.359
  122POPC   C2B 1895   8.744   1.956   6.975
  122POPC   C3B 1896   8.818   2.083   6.522
  122POPC   C4B 1897   8.764   2.305   6.087
  123POPC   NC3 1898   8.641   9.908   7.986
  123POPC   PO4 1899   8.803  10.437   8.205
  123POPC   GL1 1900   8.966  10.372   7.770
  123POPC   GL2 1901   8.986  10.024   7.619
  123POPC   C1A 1902   8.791  10.411   7.330
  123POPC   D2A 1903   8.465   0.045   7.044
  123POPC   C3A 1904   8.648   0.046   6.646
  123POPC   C4A 1905   8.875  10.482   6.282
  123POPC   C1B 1906   8.655   9.919   7.298
  123POPC   C2B 1907   8.715  10.094   6.891
  123POPC   C3B 1908   8.665  10.042   6.438
  123POPC   C4B 1909   8.304   9.852   6.218
  124POPC   NC3 1910   1.912   3.206   7.937
  124POPC   PO4 1911   1.571   3.717   8.146
  124POPC   GL1 1912   1.794   3.630   7.721
  124POPC   GL2 1913   1.650   3.312   7.529
  124POPC   C1A 1914   2.067   3.493   7.340
  124POPC   D2A 1915   2.233   3.598   6.943
  124POPC   C3A 1916   2.027   3.428   6.601
  124POPC   C4A 1917   1.939   3.555   6.194
  124POPC   C1B 1918   1.839   3.051   7.175
  124POPC   C2B 1919   1.769   2.962   6.723
  124POPC   C3B 1920   1.657   3.146   6.337
  124POPC   C4B 1921   1.919   3.107   5.961
  125POPC   NC3 1922   4.965   1.961   8.091
  125POPC   PO4 1923   5.336   2.375   7.812
  125POPC   GL1 1924   5.260   1.961   7.670
  125POPC   GL2 1925   4.881   2.027   7.579
  125POPC   C1A 1926   5.197   1.691   7.338
  125POPC   D2A 1927   5.018   1.984   7.052
  125POPC   C3A 1928   5.068   1.919   6.633
  125POPC   C4A 1929   5.061   1.844   6.221
  125POPC   C1B 1930   4.552   2.084   7.232
  125POPC   C2B 1931   4.511   1.841   6.830
  125POPC   C3B 1932   4.585   1.950   6.397
  125POPC   C4B 1933   4.819   2.304   6.212
  126POPC   NC3 1934   2.800   9.302   8.226
  126POPC   PO4 1935   2.414   9.793   8.319
  126POPC   GL1 1936   2.571   9.660   7.873
  126POPC   GL2 1937   2.842   9.432   7.747
  126POPC   C1A 1938   2.583   9.721   7.394
  126POPC   D2A 1939   2.479   9.468   7.038
  126POPC   C3A 1940   2.670   9.555   6.653
  126POPC   C4A 1941   2.436   9.556   6.282
  126POPC   C1B 1942   3.005   9.435   7.339
  126POPC   C2B 1943   2.938   9.215   6.965
  126POPC   C3B 1944   3.080   9.240   6.557
  126POPC   C4B 1945   2.871   9.310   6.193
  127POPC   NC3 1946   7.419   2.056   8.165
  127POPC   PO4 1947   6.805   2.249   8.079
  127POPC   GL1 1948   7.136   2.210   7.741
  127POPC   GL2 1949   7.227   1.846   7.728
  127POPC   C1A 1950   7.463   2.139   7.378
  127POPC   D2A 1951   7.694   2.174   6.971
  127POPC   C3A 1952   7.551   2.236   6.559
  127POPC   C4A 1953   7.389   2.200   6.147
  127POPC   C1B 1954   7.009   1.921   7.318
  127POPC   C2B 1955   7.250   1.873   6.934
  127POPC   C3B 1956   7.134   1.927   6.500
  127POPC   C4B 1957   6.883   1.690   6.249
  128POPC   NC3 1958   3.487   0.166   7.954
  128POPC   PO4 1959   3.150   0.737   7.948
  128POPC   GL1 1960   3.089   0.366   7.639
  128POPC   GL2 1961   3.368   0.140   7.478
  128POPC   C1A 1962   3.016   0.233   7.163
  128POPC   D2A 1963   3.390   0.204   6.854
  128POPC   C3A 1964   3.224   0.274   6.417
  128POPC   C4A 1965   3.042   0.177   5.997
  128POPC   C1B 1966   3.440   0.558   7.281
  128POPC   C2B 1967   3.504   0.849   6.939
  128POPC   C3B 1968   3.539   0.667   6.571
  128POPC   C4B 1969   3.420   0.722   6.192
  129POPC   NC3 1970   8.200   0.792   7.972
  129POPC   PO4 1971   8.891   0.883   8.047
  129POPC   GL1 1972   8.673   1.073   7.696
  129POPC   GL2 1973   8.956   0.933   7.550
  129POPC   C1A 1974   8.732   1.395   7.361
  129POPC   D2A 1975   8.873   1.469   6.900
  129POPC   C3A 1976   8.590   1.299   6.558
  129POPC   C4A 1977   8.441   0.955   6.325
  129POPC   C1B 1978   8.743   0.919   7.189
  129POPC   C2B 1979   8.898   0.972   6.789
  129POPC   C3B 1980   8.950   0.988   6.350
  129POPC   C4B 1981   9.208   1.025   6.000
  130POPC   NC3 1982   8.303   8.012   8.216
  130POPC   PO4 1983   7.739   7.797   7.996
  130POPC   GL1 1984   7.792   8.128   7.712
  130POPC   GL2 1985   8.153   8.030   7.691
  130POPC   C1A 1986   7.597   8.329   7.336
  130POPC   D2A 1987   7.641   8.061   6.940
  130POPC   C3A 1988   7.458   8.092   6.521
  130POPC   C4A 1989   7.427   8.453   6.268
  130POPC   C1B 1990   8.116   7.949   7.225
  130POPC   C2B 1991   7.996   7.694   6.864
  130POPC   C3B 1992   7.845   7.698   6.452
  130POPC   C4B 1993   8.173   7.871   6.263
  131POPC   NC3 1994   7.293   7.787   8.061
  131POPC   PO4 1995   7.255   8.456   8.164
  131POPC   GL1 1996   7.276   8.201   7.759
  131POPC   GL2 1997   6.918   8.162   7.858
  131POPC   C1A 1998   7.422   7.870   7.383
  131POPC   D2A 1999   7.219   7.762   6.954
  131POPC   C3A 2000   7.329   7.600   6.521
  131POPC   C4A 2001   7.443   7.660   6.077
  131POPC   C1B 2002   6.938   7.937   7.450
  131POPC   C2B 2003   6.739   7.930   7.046
  131POPC   C3B 2004   6.872   7.961   6.614
  131POPC   C4B 2005   6.962   7.814   6.203
  132POPC   NC3 2006   0.204   0.848   8.089
  132POPC   PO4 2007  10.406   0.175   7.955
  132POPC   GL1 2008   0.246   0.374   7.679
  132POPC   GL2 2009   0.405   0.727   7.641
  132POPC   C1A 2010   0.504   0.410   7.264
  132POPC   D2A 2011   0.450   0.760   6.961
  132POPC   C3A 2012   0.354   0.626   6.556
  132POPC   C4A 2013   0.415   0.478   6.179
  132POPC   C1B 2014   0.746   0.870   7.402
  132POPC   C2B 2015   0.962   0.665   7.051
  132POPC   C3B 2016   0.825   0.492   6.665
  132POPC   C4B 2017   0.899   0.619   6.256
  133POPC   NC3 2018   4.186   8.072   8.118
  133POPC   PO4 2019   3.800   7.635   8.085
  133POPC   GL1 2020   3.881   7.883   7.704
  133POPC   GL2 2021   4.241   7.890   7.657
  133POPC   C1A 2022   3.934   7.931   7.226
  133POPC   D2A 2023   3.898   8.137   6.785
  133POPC   C3A 2024   3.969   7.895   6.372
  133POPC   C4A 2025   3.660   7.658   6.078
  133POPC   C1B 2026   4.417   8.125   7.323
  133POPC   C2B 2027   4.372   7.961   6.931
  133POPC   C3B 2028   4.487   7.963   6.530
  133POPC   C4B 2029   4.505   8.023   6.120
  134POPC   NC3 2030   8.522   8.702   8.065
  134POPC   PO4 2031   9.154   8.132   8.066
  134POPC   GL1 2032   9.025   8.308   7.639
  134POPC   GL2 2033   8.771   8.601   7.619
  134POPC   C1A 2034   9.096   8.436   7.281
  134POPC   D2A 2035   8.839   8.679   7.067
  134POPC   C3A 2036   8.753   8.578   6.661
  134POPC   C4A 2037   9.037   8.425   6.353
  134POPC   C1B 2038   8.455   8.768   7.386
  134POPC   C2B 2039   8.335   8.806   6.959
  134POPC   C3B 2040   8.254   8.690   6.547
  134POPC   C4B 2041   8.544   8.671   6.196
  135POPC   NC3 2042   0.400   0.019   8.057
  135POPC   PO4 2043   0.123   9.895   8.198
  135POPC   GL1 2044   0.331  10.060   7.770
  135POPC   GL2 2045   0.692  10.166   7.730
  135POPC   C1A 2046   0.330  10.415   7.417
  135POPC   D2A 2047   0.152   0.082   7.014
  135POPC   C3A 2048   0.385   0.103   6.596
  135POPC   C4A 2049   0.294  10.473   6.165
  135POPC   C1B 2050   0.560   9.984   7.299
  135POPC   C2B 2051   0.492  10.187   6.901
  135POPC   C3B 2052   0.500  10.075   6.462
  135POPC   C4B 2053   0.687  10.131   6.062
  136POPC   NC3 2054   9.739   1.154   8.243
  136POPC   PO4 2055  10.026   1.781   8.242
  136POPC   GL1 2056   9.851   1.487   7.879
  136POPC   GL2 2057  10.064   1.336   7.610
  136POPC   C1A 2058   9.693   1.570   7.381
  136POPC   D2A 2059   9.923   1.428   6.999
  136POPC   C3A 2060   9.763   1.574   6.609
  136POPC   C4A 2061  10.013   1.635   6.265
  136POPC   C1B 2062  10.204   1.092   7.273
  136POPC   C2B 2063  10.170   0.960   6.879
  136POPC   C3B 2064  10.172   1.225   6.560
  136POPC   C4B 2065  10.175   1.046   6.192
  137POPC   NC3 2066   0.524   6.504   7.961
  137POPC   PO4 2067   0.019   6.017   8.090
  137POPC   GL1 2068   0.141   6.212   7.679
  137POPC   GL2 2069   0.465   6.221   7.565
  137POPC   C1A 2070   0.167   6.038   7.220
  137POPC   D2A 2071   0.395   6.172   6.855
  137POPC   C3A 2072   0.248   6.156   6.442
  137POPC   C4A 2073   0.157   6.156   6.040
  137POPC   C1B 2074   0.739   6.297   7.248
  137POPC   C2B 2075   0.816   6.488   6.887
  137POPC   C3B 2076   0.767   6.307   6.507
  137POPC   C4B 2077   0.592   6.395   6.148
  138POPC   NC3 2078   9.343   0.830   7.924
  138POPC   PO4 2079   9.360   1.422   8.176
  138POPC   GL1 2080   9.163   1.339   7.765
  138POPC   GL2 2081   9.479   1.227   7.670
  138POPC   C1A 2082   9.205   1.282   7.265
  138POPC   D2A 2083   9.447   1.254   6.903
  138POPC   C3A 2084   9.325   1.299   6.485
  138POPC   C4A 2085   9.478   1.534   6.138
  138POPC   C1B 2086   9.680   1.047   7.311
  138POPC   C2B 2087   9.708   0.791   6.985
  138POPC   C3B 2088   9.734   0.962   6.575
  138POPC   C4B 2089   9.684   1.073   6.149
  139POPC   NC3 2090   2.154  10.498   7.968
  139POPC   PO4 2091   2.360   0.746   8.057
  139POPC   GL1 2092   2.104   0.578   7.719
  139POPC   GL2 2093   1.714   0.503   7.743
  139POPC   C1A 2094   2.199   0.680   7.319
  139POPC   D2A 2095   2.051   0.483   6.977
  139POPC   C3A 2096   1.944   0.723   6.638
  139POPC   C4A 2097   2.030   0.547   6.261
  139POPC   C1B 2098   1.804   0.257   7.401
  139POPC   C2B 2099   1.665   0.115   7.002
  139POPC   C3B 2100   1.825   0.207   6.599
  139POPC   C4B 2101   1.681   0.196   6.191
  140POPC   NC3 2102   5.312   9.533   8.245
  140POPC   PO4 2103   4.836   9.070   8.046
  140POPC   GL1 2104   4.843   9.229   7.682
  140POPC   GL2 2105   5.006   9.502   7.691
  140POPC   C1A 2106   4.921   9.083   7.292
  140POPC   D2A 2107   4.698   9.138   6.960
  140POPC   C3A 2108   4.868   9.158   6.593
  140POPC   C4A 2109   4.771   8.913   6.267
  140POPC   C1B 2110   4.841   9.591   7.274
  140POPC   C2B 2111   4.724   9.681   6.820
  140POPC   C3B 2112   4.828   9.633   6.408
  140POPC   C4B 2113   4.926   9.559   5.977
  141POPC   NC3 2114   9.589   1.899   8.229
  141POPC   PO4 2115   9.203   2.392   8.080
  141POPC   GL1 2116   9.380   2.109   7.775
  141POPC   GL2 2117   9.427   1.770   7.772
  141POPC   C1A 2118   9.560   2.078   7.343
  141POPC   D2A 2119   9.819   1.962   6.973
  141POPC   C3A 2120   9.712   2.127   6.570
  141POPC   C4A 2121   9.626   2.019   6.155
  141POPC   C1B 2122   9.135   1.786   7.418
  141POPC   C2B 2123   9.296   1.770   6.986
  141POPC   C3B 2124   9.285   1.830   6.534
  141POPC   C4B 2125   9.112   1.909   6.110
  142POPC   NC3 2126  10.272   2.107   8.475
  142POPC   PO4 2127  10.184   2.562   7.995
  142POPC   GL1 2128  10.080   2.695   7.610
  142POPC   GL2 2129  10.074   3.002   7.570
  142POPC   C1A 2130  10.072   2.724   7.141
  142POPC   D2A 2131   9.793   2.544   6.876
  142POPC   C3A 2132  10.084   2.509   6.552
  142POPC   C4A 2133  10.040   2.319   6.183
  142POPC   C1B 2134  10.433   2.997   7.350
  142POPC   C2B 2135  10.447   3.112   6.945
  142POPC   C3B 2136  10.368   3.251   6.564
  142POPC   C4B 2137  10.334   2.900   6.325
  143POPC   NC3 2138   4.505   9.495   8.060
  143POPC   PO4 2139   3.903   9.174   8.000
  143POPC   GL1 2140   4.234   9.199   7.728
  143POPC   GL2 2141   4.127   9.544   7.675
  143POPC   C1A 2142   4.443   9.295   7.372
  143POPC   D2A 2143   4.326   9.479   7.018
  143POPC   C3A 2144   4.390   9.325   6.597
  143POPC   C4A 2145   4.440   9.426   6.165
  143POPC   C1B 2146   3.922   9.335   7.288
  143POPC   C2B 2147   3.895   9.357   6.810
  143POPC   C3B 2148   3.925   9.382   6.396
  143POPC   C4B 2149   4.007   9.678   6.171
  144POPC   NC3 2150   4.917   8.594   8.110
  144POPC   PO4 2151   5.480   8.718   7.979
  144POPC   GL1 2152   5.137   8.742   7.643
  144POPC   GL2 2153   4.763   8.723   7.646
  144POPC   C1A 2154   5.241   8.708   7.206
  144POPC   D2A 2155   5.337   8.995   6.898
  144POPC   C3A 2156   5.264   8.858   6.492
  144POPC   C4A 2157   5.159   8.531   6.252
  144POPC   C1B 2158   4.780   8.513   7.230
  144POPC   C2B 2159   4.828   8.665   6.795
  144POPC   C3B 2160   4.688   8.438   6.435
  144POPC   C4B 2161   4.536   8.520   6.026
  145POPC   NC3 2162   8.688   4.115   8.227
  145POPC   PO4 2163   8.345   4.627   8.057
  145POPC   GL1 2164   8.343   4.383   7.665
  145POPC   GL2 2165   8.636   4.342   7.436
  145POPC   C1A 2166   8.202   4.155   7.271
  145POPC   D2A 2167   8.307   4.262   6.854
  145POPC   C3A 2168   8.212   4.041   6.460
  145POPC   C4A 2169   8.026   4.131   6.050
  145POPC   C1B 2170   8.693   4.025   7.115
  145POPC   C2B 2171   8.686   3.927   6.679
  145POPC   C3B 2172   8.673   4.004   6.229
  145POPC   C4B 2173   8.825   4.398   6.038
  146POPC   NC3 2174   7.019   2.658   8.050
  146POPC   PO4 2175   7.648   2.438   8.064
  146POPC   GL1 2176   7.480   2.583   7.644
  146POPC   GL2 2177   7.159   2.756   7.570
  146POPC   C1A 2178   7.449   2.611   7.175
  146POPC   D2A 2179   7.639   2.705   6.788
  146POPC   C3A 2180   7.413   2.862   6.445
  146POPC   C4A 2181   7.646   2.619   6.212
  146POPC   C1B 2182   6.977   2.428   7.295
  146POPC   C2B 2183   6.902   2.247   6.881
  146POPC   C3B 2184   7.078   2.428   6.528
  146POPC   C4B 2185   6.968   2.684   6.236
  147POPC   NC3 2186   4.820  10.401   7.917
  147POPC   PO4 2187   4.894   9.775   8.199
  147POPC   GL1 2188   5.164   9.945   7.858
  147POPC   GL2 2189   4.906  10.023   7.593
  147POPC   C1A 2190   5.301   9.846   7.379
  147POPC   D2A 2191   5.060   9.980   7.021
  147POPC   C3A 2192   5.211   9.930   6.576
  147POPC   C4A 2193   4.990  10.061   6.187
  147POPC   C1B 2194   4.727  10.314   7.285
  147POPC   C2B 2195   4.522  10.319   6.928
  147POPC   C3B 2196   4.665  10.192   6.558
  147POPC   C4B 2197   4.565  10.434   6.200
  148POPC   NC3 2198   8.937   0.358   8.089
  148POPC   PO4 2199   8.173   0.215   8.133
  148POPC   GL1 2200   8.322   0.364   7.710
  148POPC   GL2 2201   8.640   0.552   7.712
  148POPC   C1A 2202   8.329   0.581   7.288
  148POPC   D2A 2203   8.199   0.464   6.887
  148POPC   C3A 2204   8.359   0.482   6.500
  148POPC   C4A 2205   8.373   0.155   6.231
  148POPC   C1B 2206   8.813   0.422   7.303
  148POPC   C2B 2207   8.727   0.498   6.875
  148POPC   C3B 2208   8.873   0.485   6.441
  148POPC   C4B 2209   8.926   0.602   6.005
  149POPC   NC3 2210   4.206   8.812   8.065
  149POPC   PO4 2211   4.588   8.278   8.094
  149POPC   GL1 2212   4.314   8.472   7.687
  149POPC   GL2 2213   4.004   8.724   7.601
  149POPC   C1A 2214   4.386   8.798   7.308
  149POPC   D2A 2215   4.194   8.969   6.947
  149POPC   C3A 2216   4.319   8.837   6.515
  149POPC   C4A 2217   4.280   8.960   6.081
  149POPC   C1B 2218   4.026   8.445   7.229
  149POPC   C2B 2219   4.307   8.454   6.853
  149POPC   C3B 2220   4.183   8.362   6.398
  149POPC   C4B 2221   4.027   8.541   6.009
  150POPC   NC3 2222   9.797  10.241   4.150
  150POPC   PO4 2223   9.189  10.305   3.748
  150POPC   GL1 2224   9.260   9.949   4.168
  150POPC   GL2 2225   9.495  10.007   4.464
  150POPC   C1A 2226   9.063  10.101   4.675
  150POPC   D2A 2227   9.046  10.366   5.087
  150POPC   C3A 2228   9.221  10.213   5.468
  150POPC   C4A 2229   9.057  10.229   5.876
  150POPC   C1B 2230   9.716  10.211   4.808
  150POPC   C2B 2231   9.846  10.081   5.211
  150POPC   C3B 2232   9.888  10.362   5.562
  150POPC   C4B 2233   9.585  10.323   5.844
  151POPC   NC3 2234   6.355   9.787   3.896
  151POPC   PO4 2235   6.848  10.041   3.666
  151POPC   GL1 2236   6.735  10.031   4.132
  151POPC   GL2 2237   6.535  10.341   4.219
  151POPC   C1A 2238   6.461   9.926   4.524
  151POPC   D2A 2239   6.280   9.999   4.938
  151POPC   C3A 2240   6.546   9.927   5.268
  151POPC   C4A 2241   6.641   9.999   5.682
  151POPC   C1B 2242   6.264  10.398   4.603
  151POPC   C2B 2243   6.241   0.056   5.031
  151POPC   C3B 2244   6.326  10.367   5.397
  151POPC   C4B 2245   6.254  10.351   5.822
  152POPC   NC3 2246   0.862   9.593   4.007
  152POPC   PO4 2247   1.335   9.084   3.952
  152POPC   GL1 2248   1.296   9.371   4.272
  152POPC   GL2 2249   1.585   9.607   4.166
  152POPC   C1A 2250   1.036   9.279   4.665
  152POPC   D2A 2251   1.047   9.052   5.085
  152POPC   C3A 2252   0.803   9.167   5.458
  152POPC   C4A 2253   0.984   9.372   5.815
  152POPC   C1B 2254   1.532   9.724   4.595
  152POPC   C2B 2255   1.405   9.477   4.958
  152POPC   C3B 2256   1.253   9.448   5.379
  152POPC   C4B 2257   1.480   9.480   5.770
  153POPC   NC3 2258   1.647  10.173   3.789
  153POPC   PO4 2259   0.999  10.000   3.737
  153POPC   GL1 2260   1.200  10.250   4.074
  153POPC   GL2 2261   1.219   9.949   4.242
  153POPC   C1A 2262   1.211  10.413   4.528
  153POPC   D2A 2263   0.900  10.362   4.887
  153POPC   C3A 2264   0.873  10.452   5.335
  153POPC   C4A 2265   1.034  10.380   5.767
  153POPC   C1B 2266   0.987   9.855   4.616
  153POPC   C2B 2267   1.058   9.874   5.044
  153POPC   C3B 2268   1.107   9.950   5.471
  153POPC   C4B 2269   1.516   9.994   5.678
  154POPC   NC3 2270   1.262   1.249   3.681
  154POPC   PO4 2271   1.753   0.826   3.942
  154POPC   GL1 2272   1.529   1.159   4.227
  154POPC   GL2 2273   1.208   1.306   4.247
  154POPC   C1A 2274   1.564   1.426   4.627
  154POPC   D2A 2275   1.380   1.478   5.068
  154POPC   C3A 2276   1.572   1.472   5.504
  154POPC   C4A 2277   1.536   1.230   5.906
  154POPC   C1B 2278   1.040   1.388   4.678
  154POPC   C2B 2279   0.856   1.401   5.081
  154POPC   C3B 2280   0.756   1.146   5.412
  154POPC   C4B 2281   1.030   1.214   5.731
  155POPC   NC3 2282   8.777   7.798   3.876
  155POPC   PO4 2283   8.262   8.317   3.881
  155POPC   GL1 2284   8.269   8.136   4.286
  155POPC   GL2 2285   8.584   7.933   4.328
  155POPC   C1A 2286   8.266   8.051   4.712
  155POPC   D2A 2287   8.562   8.120   5.009
  155POPC   C3A 2288   8.534   8.011   5.435
  155POPC   C4A 2289   8.284   7.980   5.795
  155POPC   C1B 2290   8.852   7.844   4.674
  155POPC   C2B 2291   8.817   7.686   5.104
  155POPC   C3B 2292   9.028   7.842   5.491
  155POPC   C4B 2293   8.841   7.836   5.910
  156POPC   NC3 2294   2.755   1.162   3.958
  156POPC   PO4 2295   3.120   1.578   3.622
  156POPC   GL1 2296   3.122   1.381   4.179
  156POPC   GL2 2297   2.764   1.405   4.372
  156POPC   C1A 2298   3.131   1.397   4.690
  156POPC   D2A 2299   3.035   1.069   5.029
  156POPC   C3A 2300   3.077   1.194   5.467
  156POPC   C4A 2301   2.899   1.034   5.865
  156POPC   C1B 2302   2.560   1.222   4.702
  156POPC   C2B 2303   2.595   1.391   5.127
  156POPC   C3B 2304   2.580   1.292   5.543
  156POPC   C4B 2305   2.314   0.981   5.634
  157POPC   NC3 2306   0.546   3.282   3.931
  157POPC   PO4 2307  10.381   3.331   3.872
  157POPC   GL1 2308   0.119   3.527   4.244
  157POPC   GL2 2309   0.384   3.330   4.397
  157POPC   C1A 2310   0.041   3.593   4.700
  157POPC   D2A 2311   0.272   3.489   5.063
  157POPC   C3A 2312   0.141   3.421   5.473
  157POPC   C4A 2313   0.359   3.147   5.755
  157POPC   C1B 2314   0.652   3.372   4.708
  157POPC   C2B 2315   0.802   3.439   5.076
  157POPC   C3B 2316   0.742   3.345   5.474
  157POPC   C4B 2317   0.536   3.642   5.740
  158POPC   NC3 2318   8.783   5.377   3.823
  158POPC   PO4 2319   8.867   6.048   3.932
  158POPC   GL1 2320   8.816   5.774   4.313
  158POPC   GL2 2321   8.472   5.775   4.306
  158POPC   C1A 2322   8.951   5.543   4.725
  158POPC   D2A 2323   8.780   5.493   5.131
  158POPC   C3A 2324   8.877   5.542   5.540
  158POPC   C4A 2325   8.562   5.382   5.811
  158POPC   C1B 2326   8.473   5.700   4.737
  158POPC   C2B 2327   8.287   5.675   5.117
  158POPC   C3B 2328   8.443   5.814   5.473
  158POPC   C4B 2329   8.577   5.873   5.878
  159POPC   NC3 2330   7.907   4.897   3.855
  159POPC   PO4 2331   8.433   4.729   3.923
  159POPC   GL1 2332   8.223   4.793   4.315
  159POPC   GL2 2333   7.861   4.732   4.343
  159POPC   C1A 2334   8.223   4.868   4.785
  159POPC   D2A 2335   8.110   4.698   5.206
  159POPC   C3A 2336   7.862   4.833   5.592
  159POPC   C4A 2337   7.963   4.661   6.012
  159POPC   C1B 2338   7.736   5.000   4.727
  159POPC   C2B 2339   7.812   5.157   5.182
  159POPC   C3B 2340   7.593   5.259   5.603
  159POPC   C4B 2341   7.703   5.327   6.050
  160POPC   NC3 2342   2.179  10.260   4.068
  160POPC   PO4 2343   1.756   0.132   3.814
  160POPC   GL1 2344   1.789   0.042   4.257
  160POPC   GL2 2345   1.707  10.166   4.311
  160POPC   C1A 2346   2.066   0.117   4.651
  160POPC   D2A 2347   2.227  10.425   5.064
  160POPC   C3A 2348   2.026   0.077   5.475
  160POPC   C4A 2349   2.107   0.061   5.939
  160POPC   C1B 2350   1.888  10.132   4.751
  160POPC   C2B 2351   1.854  10.106   5.235
  160POPC   C3B 2352   2.001  10.107   5.679
  160POPC   C4B 2353   1.789  10.214   6.085
  161POPC   NC3 2354   1.851   4.485   4.043
  161POPC   PO4 2355   1.807   3.819   3.856
  161POPC   GL1 2356   2.039   4.006   4.222
  161POPC   GL2 2357   1.777   4.105   4.413
  161POPC   C1A 2358   2.185   4.011   4.697
  161POPC   D2A 2359   1.945   4.119   5.080
  161POPC   C3A 2360   2.171   4.012   5.490
  161POPC   C4A 2361   2.213   3.936   5.956
  161POPC   C1B 2362   1.755   4.476   4.687
  161POPC   C2B 2363   1.764   4.661   5.085
  161POPC   C3B 2364   1.765   4.429   5.447
  161POPC   C4B 2365   1.782   4.176   5.776
  162POPC   NC3 2366   7.088   0.611   4.004
  162POPC   PO4 2367   7.685   0.467   3.835
  162POPC   GL1 2368   7.578   0.597   4.234
  162POPC   GL2 2369   7.394   0.273   4.279
  162POPC   C1A 2370   7.543   0.523   4.689
  162POPC   D2A 2371   7.469   0.405   5.132
  162POPC   C3A 2372   7.380   0.713   5.469
  162POPC   C4A 2373   7.416   0.701   5.949
  162POPC   C1B 2374   7.103   0.284   4.675
  162POPC   C2B 2375   6.979   0.268   5.110
  162POPC   C3B 2376   7.081   0.301   5.582
  162POPC   C4B 2377   7.042   0.367   6.049
  163POPC   NC3 2378   7.951   0.111   3.924
  163POPC   PO4 2379   8.619   0.115   3.763
  163POPC   GL1 2380   8.352   0.246   4.197
  163POPC   GL2 2381   8.108   0.561   4.182
  163POPC   C1A 2382   7.965   0.215   4.540
  163POPC   D2A 2383   7.761  10.454   4.877
  163POPC   C3A 2384   7.838   0.082   5.315
  163POPC   C4A 2385   7.610   0.297   5.652
  163POPC   C1B 2386   8.008   0.718   4.598
  163POPC   C2B 2387   7.961   0.480   4.980
  163POPC   C3B 2388   7.877   0.645   5.360
  163POPC   C4B 2389   7.905   0.717   5.774
  164POPC   NC3 2390   8.803  10.278   4.046
  164POPC   PO4 2391   8.738   9.642   3.931
  164POPC   GL1 2392   8.830   9.803   4.336
  164POPC   GL2 2393   8.610  10.062   4.451
  164POPC   C1A 2394   8.732   9.678   4.769
  164POPC   D2A 2395   8.838   9.921   5.120
  164POPC   C3A 2396   8.965   9.779   5.521
  164POPC   C4A 2397   8.753   9.841   5.903
  164POPC   C1B 2398   8.656  10.410   4.755
  164POPC   C2B 2399   8.543  10.457   5.186
  164POPC   C3B 2400   8.651  10.223   5.549
  164POPC   C4B 2401   8.506  10.249   5.985
  165POPC   NC3 2402   2.223   2.642   3.929
  165POPC   PO4 2403   1.585   2.685   3.759
  165POPC   GL1 2404   1.648   2.713   4.220
  165POPC   GL2 2405   1.973   2.770   4.346
  165POPC   C1A 2406   1.559   2.777   4.701
  165POPC   D2A 2407   1.779   2.778   5.131
  165POPC   C3A 2408   1.529   2.878   5.386
  165POPC   C4A 2409   1.567   2.798   5.740
  165POPC   C1B 2410   2.072   2.679   4.761
  165POPC   C2B 2411   2.333   2.485   5.054
  165POPC   C3B 2412   2.172   2.354   5.441
  165POPC   C4B 2413   2.035   2.613   5.762
  166POPC   NC3 2414   6.643   8.350   3.733
  166POPC   PO4 2415   6.144   8.770   3.810
  166POPC   GL1 2416   6.139   8.731   4.364
  166POPC   GL2 2417   6.507   8.750   4.541
  166POPC   C1A 2418   6.250   8.401   4.753
  166POPC   D2A 2419   6.497   8.515   5.139
  166POPC   C3A 2420   6.327   8.412   5.566
  166POPC   C4A 2421   6.154   8.176   5.890
  166POPC   C1B 2422   6.223   8.911   4.849
  166POPC   C2B 2423   6.138   9.027   5.258
  166POPC   C3B 2424   6.386   8.911   5.585
  166POPC   C4B 2425   6.605   9.027   5.931
  167POPC   NC3 2426  10.219   7.213   3.967
  167POPC   PO4 2427   9.790   6.785   3.841
  167POPC   GL1 2428   9.799   7.037   4.277
  167POPC   GL2 2429  10.116   7.161   4.444
  167POPC   C1A 2430   9.777   7.024   4.775
  167POPC   D2A 2431   9.950   6.862   5.140
  167POPC   C3A 2432  10.028   7.087   5.483
  167POPC   C4A 2433  10.073   6.982   5.874
  167POPC   C1B 2434  10.230   7.380   4.836
  167POPC   C2B 2435  10.437   7.199   5.214
  167POPC   C3B 2436   0.027   6.959   5.643
  167POPC   C4B 2437   0.000   7.070   6.135
  168POPC   NC3 2438   8.269   1.595   4.207
  168POPC   PO4 2439   8.209   0.965   3.885
  168POPC   GL1 2440   8.203   1.086   4.270
  168POPC   GL2 2441   7.844   1.074   4.289
  168POPC   C1A 2442   8.386   1.112   4.684
  168POPC   D2A 2443   8.180   0.929   5.053
  168POPC   C3A 2444   8.299   0.983   5.493
  168POPC   C4A 2445   8.180   1.143   5.906
  168POPC   C1B 2446   7.897   1.221   4.689
  168POPC   C2B 2447   7.866   1.315   5.118
  168POPC   C3B 2448   7.786   1.145   5.525
  168POPC   C4B 2449   7.635   1.514   5.745
  169POPC   NC3 2450   4.917   8.473   4.012
  169POPC   PO4 2451   4.888   9.179   3.877
  169POPC   GL1 2452   4.874   8.955   4.268
  169POPC   GL2 2453   4.575   8.749   4.287
  169POPC   C1A 2454   4.763   9.043   4.702
  169POPC   D2A 2455   4.604   8.941   5.097
  169POPC   C3A 2456   4.780   8.822   5.450
  169POPC   C4A 2457   4.949   8.712   5.826
  169POPC   C1B 2458   4.806   8.529   4.641
  169POPC   C2B 2459   4.923   8.527   5.076
  169POPC   C3B 2460   4.892   8.322   5.492
  169POPC   C4B 2461   4.945   8.200   5.925
  170POPC   NC3 2462   7.777   6.508   3.919
  170POPC   PO4 2463   7.537   7.034   4.057
  170POPC   GL1 2464   7.791   6.734   4.399
  170POPC   GL2 2465   8.038   6.473   4.359
  170POPC   C1A 2466   7.944   6.544   4.846
  170POPC   D2A 2467   7.852   6.304   5.231
  170POPC   C3A 2468   7.842   6.541   5.633
  170POPC   C4A 2469   8.049   6.526   6.028
  170POPC   C1B 2470   8.214   6.151   4.629
  170POPC   C2B 2471   8.349   6.198   5.041
  170POPC   C3B 2472   8.310   6.400   5.424
  170POPC   C4B 2473   8.111   6.107   5.724
  171POPC   NC3 2474   5.683   2.288   3.979
  171POPC   PO4 2475   5.354   1.694   3.825
  171POPC   GL1 2476   5.523   1.715   4.241
  171POPC   GL2 2477   5.833   1.867   4.253
  171POPC   C1A 2478   5.693   1.587   4.666
  171POPC   D2A 2479   5.882   1.668   5.055
  171POPC   C3A 2480   5.596   1.763   5.378
  171POPC   C4A 2481   5.736   1.622   5.760
  171POPC   C1B 2482   5.650   2.089   4.635
  171POPC   C2B 2483   5.749   2.169   5.081
  171POPC   C3B 2484   5.865   2.188   5.537
  171POPC   C4B 2485   5.659   2.343   5.931
  172POPC   NC3 2486   1.417   3.780   4.114
  172POPC   PO4 2487   0.916   3.437   3.719
  172POPC   GL1 2488   0.921   3.543   4.198
  172POPC   GL2 2489   0.967   3.202   4.344
  172POPC   C1A 2490   1.019   3.732   4.651
  172POPC   D2A 2491   1.242   3.722   5.081
  172POPC   C3A 2492   0.970   3.790   5.457
  172POPC   C4A 2493   1.024   3.582   5.868
  172POPC   C1B 2494   1.288   3.277   4.698
  172POPC   C2B 2495   1.223   3.186   5.119
  172POPC   C3B 2496   1.347   3.388   5.482
  172POPC   C4B 2497   1.421   3.253   5.882
  173POPC   NC3 2498   0.495   2.236   4.061
  173POPC   PO4 2499   0.657   2.864   4.086
  173POPC   GL1 2500   0.687   2.560   4.400
  173POPC   GL2 2501   0.356   2.526   4.459
  173POPC   C1A 2502   0.716   2.451   4.827
  173POPC   D2A 2503   0.494   2.496   5.161
  173POPC   C3A 2504   0.641   2.665   5.551
  173POPC   C4A 2505   0.396   2.482   5.834
  173POPC   C1B 2506   0.460   2.891   4.754
  173POPC   C2B 2507   0.466   3.010   5.194
  173POPC   C3B 2508   0.164   2.768   5.457
  173POPC   C4B 2509   0.004   2.813   5.870
  174POPC   NC3 2510   1.785   7.167   4.020
  174POPC   PO4 2511   2.460   7.093   3.947
  174POPC   GL1 2512   2.194   7.078   4.330
  174POPC   GL2 2513   1.930   7.308   4.479
  174POPC   C1A 2514   2.156   7.000   4.801
  174POPC   D2A 2515   2.089   7.228   5.204
  174POPC   C3A 2516   2.149   6.923   5.522
  174POPC   C4A 2517   2.012   6.822   5.922
  174POPC   C1B 2518   1.667   7.142   4.803
  174POPC   C2B 2519   1.675   6.950   5.210
  174POPC   C3B 2520   1.696   7.133   5.611
  174POPC   C4B 2521   1.659   7.421   5.959
  175POPC   NC3 2522   7.218   7.364   4.014
  175POPC   PO4 2523   6.763   7.914   3.867
  175POPC   GL1 2524   7.072   7.814   4.273
  175POPC   GL2 2525   7.387   8.015   4.373
  175POPC   C1A 2526   7.105   7.769   4.744
  175POPC   D2A 2527   7.267   7.733   5.200
  175POPC   C3A 2528   7.073   7.717   5.633
  175POPC   C4A 2529   7.043   7.372   5.948
  175POPC   C1B 2530   7.335   8.269   4.718
  175POPC   C2B 2531   7.401   8.394   5.131
  175POPC   C3B 2532   7.270   8.186   5.487
  175POPC   C4B 2533   7.264   8.107   5.916
  176POPC   NC3 2534   1.611   2.217   3.691
  176POPC   PO4 2535   1.482   1.573   3.898
  176POPC   GL1 2536   1.496   1.828   4.294
  176POPC   GL2 2537   1.169   1.810   4.455
  176POPC   C1A 2538   1.509   1.910   4.783
  176POPC   D2A 2539   1.415   1.993   5.189
  176POPC   C3A 2540   1.110   1.741   5.444
  176POPC   C4A 2541   1.231   1.634   5.893
  176POPC   C1B 2542   1.016   1.855   4.913
  176POPC   C2B 2543   0.939   2.189   5.192
  176POPC   C3B 2544   0.745   2.167   5.572
  176POPC   C4B 2545   0.996   2.088   5.903
  177POPC   NC3 2546   5.041   0.586   3.801
  177POPC   PO4 2547   4.446   0.626   4.050
  177POPC   GL1 2548   4.647   0.601   4.416
  177POPC   GL2 2549   4.901   0.368   4.257
  177POPC   C1A 2550   4.687   0.707   4.860
  177POPC   D2A 2551   4.625   0.465   5.190
  177POPC   C3A 2552   4.769   0.602   5.561
  177POPC   C4A 2553   4.712   0.239   5.811
  177POPC   C1B 2554   4.957   0.302   4.695
  177POPC   C2B 2555   5.118   0.475   5.075
  177POPC   C3B 2556   5.176   0.309   5.490
  177POPC   C4B 2557   5.343   0.326   5.912
  178POPC   NC3 2558   3.484   1.851   3.829
  178POPC   PO4 2559   2.938   1.808   4.069
  178POPC   GL1 2560   3.271   1.882   4.367
  178POPC   GL2 2561   3.620   1.998   4.303
  178POPC   C1A 2562   3.197   1.884   4.846
  178POPC   D2A 2563   3.417   1.938   5.207
  178POPC   C3A 2564   3.198   1.686   5.461
  178POPC   C4A 2565   2.947   1.588   5.817
  178POPC   C1B 2566   3.496   2.234   4.680
  178POPC   C2B 2567   3.625   2.404   5.066
  178POPC   C3B 2568   3.731   2.285   5.471
  178POPC   C4B 2569   3.471   2.038   5.717
  179POPC   NC3 2570   6.573   2.279   3.926
  179POPC   PO4 2571   6.854   1.670   4.038
  179POPC   GL1 2572   6.661   1.812   4.380
  179POPC   GL2 2573   6.333   1.789   4.293
  179POPC   C1A 2574   6.646   1.971   4.790
  179POPC   D2A 2575   6.802   1.892   5.191
  179POPC   C3A 2576   6.605   2.128   5.514
  179POPC   C4A 2577   6.620   1.823   5.815
  179POPC   C1B 2578   6.142   1.944   4.703
  179POPC   C2B 2579   6.244   2.028   5.157
  179POPC   C3B 2580   6.183   1.784   5.533
  179POPC   C4B 2581   6.221   1.490   5.911
  180POPC   NC3 2582   9.054   0.267   3.773
  180POPC   PO4 2583   9.366  10.409   4.214
  180POPC   GL1 2584   8.964   0.112   4.399
  180POPC   GL2 2585   8.828   0.444   4.283
  180POPC   C1A 2586   8.919   0.372   4.793
  180POPC   D2A 2587   9.144   0.397   5.185
  180POPC   C3A 2588   8.931   0.166   5.497
  180POPC   C4A 2589   8.678   0.194   5.830
  180POPC   C1B 2590   8.499   0.584   4.611
  180POPC   C2B 2591   8.470   0.472   5.079
  180POPC   C3B 2592   8.326   0.442   5.522
  180POPC   C4B 2593   8.375   0.604   5.957
  181POPC   NC3 2594  10.378   0.452   3.934
  181POPC   PO4 2595   9.711   0.654   3.828
  181POPC   GL1 2596   9.875   0.498   4.263
  181POPC   GL2 2597  10.194   0.377   4.410
  181POPC   C1A 2598   9.801   0.220   4.652
  181POPC   D2A 2599   9.663   0.471   5.033
  181POPC   C3A 2600   9.859   0.403   5.438
  181POPC   C4A 2601  10.005   0.300   5.834
  181POPC   C1B 2602  10.147   0.512   4.828
  181POPC   C2B 2603  10.094   0.747   5.171
  181POPC   C3B 2604  10.368   0.678   5.502
  181POPC   C4B 2605  10.374   0.650   5.954
  182POPC   NC3 2606   8.494   2.548   4.004
  182POPC   PO4 2607   8.948   3.072   3.852
  182POPC   GL1 2608   8.949   2.840   4.218
  182POPC   GL2 2609   8.626   2.964   4.357
  182POPC   C1A 2610   9.106   2.735   4.625
  182POPC   D2A 2611   8.911   2.864   4.992
  182POPC   C3A 2612   8.980   2.596   5.342
  182POPC   C4A 2613   8.966   2.654   5.779
  182POPC   C1B 2614   8.603   2.575   4.633
  182POPC   C2B 2615   8.588   2.461   5.049
  182POPC   C3B 2616   8.521   2.807   5.338
  182POPC   C4B 2617   8.446   2.675   5.725
  183POPC   NC3 2618   4.695  10.263   3.891
  183POPC   PO4 2619   5.289   0.131   3.841
  183POPC   GL1 2620   5.266  10.479   4.239
  183POPC   GL2 2621   5.088  10.195   4.180
  183POPC   C1A 2622   5.341  10.469   4.669
  183POPC   D2A 2623   5.081  10.443   5.045
  183POPC   C3A 2624   5.270  10.320   5.422
  183POPC   C4A 2625   5.072  10.384   5.804
  183POPC   C1B 2626   4.842  10.276   4.572
  183POPC   C2B 2627   4.776  10.036   4.958
  183POPC   C3B 2628   4.968   9.887   5.333
  183POPC   C4B 2629   4.766   9.959   5.727
  184POPC   NC3 2630   9.428   1.037   3.954
  184POPC   PO4 2631   9.950   1.527   3.906
  184POPC   GL1 2632   9.829   1.160   4.234
  184POPC   GL2 2633   9.501   1.156   4.434
  184POPC   C1A 2634   9.814   0.837   4.626
  184POPC   D2A 2635   9.666   0.987   5.004
  184POPC   C3A 2636   9.788   1.157   5.365
  184POPC   C4A 2637   9.538   1.268   5.700
  184POPC   C1B 2638   9.332   1.324   4.797
  184POPC   C2B 2639   9.342   1.373   5.232
  184POPC   C3B 2640   9.064   1.221   5.544
  184POPC   C4B 2641   8.998   1.468   5.909
  185POPC   NC3 2642   2.437   8.806   4.006
  185POPC   PO4 2643   2.914   8.433   3.764
  185POPC   GL1 2644   2.749   8.441   4.237
  185POPC   GL2 2645   2.375   8.509   4.409
  185POPC   C1A 2646   2.781   8.582   4.700
  185POPC   D2A 2647   2.978   8.737   5.088
  185POPC   C3A 2648   2.759   9.066   5.358
  185POPC   C4A 2649   2.851   8.917   5.789
  185POPC   C1B 2650   2.267   8.396   4.829
  185POPC   C2B 2651   2.436   8.679   5.116
  185POPC   C3B 2652   2.645   8.583   5.479
  185POPC   C4B 2653   2.551   8.397   5.878
  186POPC   NC3 2654   7.271  10.175   3.794
  186POPC   PO4 2655   6.921   0.175   4.066
  186POPC   GL1 2656   7.131  10.321   4.280
  186POPC   GL2 2657   7.245   9.938   4.224
  186POPC   C1A 2658   6.911  10.175   4.621
  186POPC   D2A 2659   6.687  10.336   4.969
  186POPC   C3A 2660   6.844  10.369   5.390
  186POPC   C4A 2661   6.766  10.465   5.828
  186POPC   C1B 2662   7.342   9.882   4.622
  186POPC   C2B 2663   7.247  10.098   5.008
  186POPC   C3B 2664   7.065   9.918   5.375
  186POPC   C4B 2665   7.166  10.144   5.736
  187POPC   NC3 2666   7.148   9.181   3.838
  187POPC   PO4 2667   7.585   9.484   4.048
  187POPC   GL1 2668   7.351   9.257   4.334
  187POPC   GL2 2669   7.051   9.457   4.278
  187POPC   C1A 2670   7.210   9.299   4.754
  187POPC   D2A 2671   7.294   9.600   5.039
  187POPC   C3A 2672   7.228   9.423   5.404
  187POPC   C4A 2673   7.250   9.619   5.754
  187POPC   C1B 2674   6.873   9.659   4.675
  187POPC   C2B 2675   6.811   9.519   5.121
  187POPC   C3B 2676   6.815   9.126   5.377
  187POPC   C4B 2677   7.095   9.066   5.745
  188POPC   NC3 2678   9.130   8.880   3.841
  188POPC   PO4 2679   9.688   8.572   3.822
  188POPC   GL1 2680   9.719   8.775   4.208
  188POPC   GL2 2681   9.419   8.629   4.317
  188POPC   C1A 2682   9.741   8.796   4.676
  188POPC   D2A 2683   9.630   8.848   5.101
  188POPC   C3A 2684   9.917   8.813   5.442
  188POPC   C4A 2685   9.772   8.890   5.846
  188POPC   C1B 2686   9.223   8.789   4.728
  188POPC   C2B 2687   9.163   8.675   5.158
  188POPC   C3B 2688   9.278   8.742   5.599
  188POPC   C4B 2689   8.966   8.660   5.907
  189POPC   NC3 2690   3.709  10.146   3.774
  189POPC   PO4 2691   3.050   9.785   3.835
  189POPC   GL1 2692   3.154   9.880   4.248
  189POPC   GL2 2693   3.506   9.893   4.187
  189POPC   C1A 2694   2.947   9.888   4.663
  189POPC   D2A 2695   3.100  10.078   5.054
  189POPC   C3A 2696   3.050   9.902   5.477
  189POPC   C4A 2697   3.235   9.826   5.867
  189POPC   C1B 2698   3.428  10.154   4.578
  189POPC   C2B 2699   3.606  10.139   5.010
  189POPC   C3B 2700   3.529  10.171   5.455
  189POPC   C4B 2701   3.835  10.483   5.673
  190POPC   NC3 2702   8.337   9.411   3.871
  190POPC   PO4 2703   8.369  10.091   3.961
  190POPC   GL1 2704   8.380   9.632   4.303
  190POPC   GL2 2705   8.705   9.308   4.276
  190POPC   C1A 2706   8.404   9.279   4.643
  190POPC   D2A 2707   8.603   9.206   5.049
  190POPC   C3A 2708   8.590   9.520   5.297
  190POPC   C4A 2709   8.627   9.412   5.706
  190POPC   C1B 2710   8.935   9.217   4.647
  190POPC   C2B 2711   9.095   9.394   5.051
  190POPC   C3B 2712   9.061   9.270   5.484
  190POPC   C4B 2713   9.084   9.456   5.924
  191POPC   NC3 2714   2.510   0.589   3.745
  191POPC   PO4 2715   3.099   0.871   3.761
  191POPC   GL1 2716   2.792   0.631   4.143
  191POPC   GL2 2717   2.882   0.293   4.212
  191POPC   C1A 2718   2.679   0.708   4.637
  191POPC   D2A 2719   2.546   0.870   5.068
  191POPC   C3A 2720   2.741   0.818   5.417
  191POPC   C4A 2721   2.660   0.574   5.752
  191POPC   C1B 2722   2.566   0.227   4.572
  191POPC   C2B 2723   2.430   0.383   4.965
  191POPC   C3B 2724   2.492   0.263   5.387
  191POPC   C4B 2725   2.583   0.067   5.768
  192POPC   NC3 2726   8.776   6.525   3.883
  192POPC   PO4 2727   8.147   6.787   3.980
  192POPC   GL1 2728   8.498   6.656   4.290
  192POPC   GL2 2729   8.540   6.291   4.271
  192POPC   C1A 2730   8.473   6.609   4.749
  192POPC   D2A 2731   8.758   6.532   5.118
  192POPC   C3A 2732   8.749   6.727   5.556
  192POPC   C4A 2733   8.902   6.677   6.021
  192POPC   C1B 2734   8.746   6.142   4.668
  192POPC   C2B 2735   8.805   5.993   5.095
  192POPC   C3B 2736   8.779   6.189   5.502
  192POPC   C4B 2737   8.541   6.368   5.868
  193POPC   NC3 2738   9.709   8.065   3.844
  193POPC   PO4 2739   9.033   8.171   3.975
  193POPC   GL1 2740   9.209   8.170   4.356
  193POPC   GL2 2741   9.548   8.086   4.329
  193POPC   C1A 2742   9.454   8.339   4.753
  193POPC   D2A 2743   9.595   8.091   5.096
  193POPC   C3A 2744   9.430   8.230   5.497
  193POPC   C4A 2745   9.194   8.201   5.888
  193POPC   C1B 2746   9.371   7.842   4.695
  193POPC   C2B 2747   9.320   7.655   5.103
  193POPC   C3B 2748   9.554   7.703   5.501
  193POPC   C4B 2749   9.863   7.683   5.856
  194POPC   NC3 2750   1.188   2.879   3.934
  194POPC   PO4 2751   1.131   2.141   3.788
  194POPC   GL1 2752   1.159   2.301   4.248
  194POPC   GL2 2753   1.172   2.666   4.378
  194POPC   C1A 2754   1.204   2.308   4.724
  194POPC   D2A 2755   1.356   2.494   5.091
  194POPC   C3A 2756   1.188   2.456   5.545
  194POPC   C4A 2757   1.370   2.410   5.969
  194POPC   C1B 2758   1.002   2.858   4.743
  194POPC   C2B 2759   0.944   2.774   5.170
  194POPC   C3B 2760   1.071   2.949   5.570
  194POPC   C4B 2761   0.853   3.063   5.882
  195POPC   NC3 2762   6.621   1.031   3.490
  195POPC   PO4 2763   7.214   1.061   3.872
  195POPC   GL1 2764   7.022   1.075   4.242
  195POPC   GL2 2765   7.122   1.361   4.406
  195POPC   C1A 2766   6.941   0.800   4.614
  195POPC   D2A 2767   7.110   0.764   5.009
  195POPC   C3A 2768   6.858   0.715   5.363
  195POPC   C4A 2769   6.931   0.789   5.762
  195POPC   C1B 2770   7.424   1.018   4.570
  195POPC   C2B 2771   7.594   0.920   4.991
  195POPC   C3B 2772   7.360   1.194   5.270
  195POPC   C4B 2773   7.295   1.146   5.717
  196POPC   NC3 2774   1.923   1.295   3.921
  196POPC   PO4 2775   2.443   1.575   4.023
  196POPC   GL1 2776   2.183   1.447   4.371
  196POPC   GL2 2777   2.011   1.121   4.371
  196POPC   C1A 2778   2.062   1.349   4.804
  196POPC   D2A 2779   2.108   1.106   5.136
  196POPC   C3A 2780   2.091   1.395   5.442
  196POPC   C4A 2781   2.094   1.383   5.871
  196POPC   C1B 2782   1.706   0.946   4.674
  196POPC   C2B 2783   1.611   0.968   5.104
  196POPC   C3B 2784   1.790   0.964   5.532
  196POPC   C4B 2785   1.925   0.927   5.972
  197POPC   NC3 2786   3.535   9.380   3.968
  197POPC   PO4 2787   4.127   9.160   4.116
  197POPC   GL1 2788   3.752   9.128   4.389
  197POPC   GL2 2789   3.544   9.442   4.457
  197POPC   C1A 2790   3.722   9.197   4.850
  197POPC   D2A 2791   3.705   9.204   5.290
  197POPC   C3A 2792   3.901   9.562   5.417
  197POPC   C4A 2793   3.715   9.742   5.756
  197POPC   C1B 2794   3.405   9.679   4.788
  197POPC   C2B 2795   3.454   9.698   5.198
  197POPC   C3B 2796   3.349   9.495   5.502
  197POPC   C4B 2797   3.028   9.377   5.725
  198POPC   NC3 2798   8.376  10.285   3.510
  198POPC   PO4 2799   7.758  10.188   3.818
  198POPC   GL1 2800   7.942  10.224   4.238
  198POPC   GL2 2801   7.644  10.294   4.391
  198POPC   C1A 2802   8.192  10.276   4.616
  198POPC   D2A 2803   8.327   9.999   4.971
  198POPC   C3A 2804   8.151  10.134   5.386
  198POPC   C4A 2805   8.146  10.477   5.714
  198POPC   C1B 2806   7.837   9.934   4.648
  198POPC   C2B 2807   7.772   9.825   5.073
  198POPC   C3B 2808   7.582  10.004   5.424
  198POPC   C4B 2809   7.814  10.049   5.780
  199POPC   NC3 2810   4.901   1.894   3.773
  199POPC   PO4 2811   4.498   2.337   3.915
  199POPC   GL1 2812   4.708   1.986   4.243
  199POPC   GL2 2813   5.002   1.715   4.247
  199POPC   C1A 2814   4.676   1.701   4.646
  199POPC   D2A 2815   4.903   1.665   5.066
  199POPC   C3A 2816   4.686   1.682   5.485
  199POPC   C4A 2817   4.682   1.940   5.865
  199POPC   C1B 2818   5.204   1.803   4.643
  199POPC   C2B 2819   5.213   2.078   5.009
  199POPC   C3B 2820   4.961   2.105   5.396
  199POPC   C4B 2821   5.210   2.007   5.763
  200POPC   NC3 2822   2.556   2.036   4.152
  200POPC   PO4 2823   2.113   2.238   3.702
  200POPC   GL1 2824   1.907   2.256   4.118
  200POPC   GL2 2825   2.042   1.956   4.250
  200POPC   C1A 2826   1.736   2.311   4.557
  200POPC   D2A 2827   1.854   2.258   5.022
  200POPC   C3A 2828   1.676   2.344   5.458
  200POPC   C4A 2829   1.460   2.019   5.682
  200POPC   C1B 2830   1.980   1.842   4.673
  200POPC   C2B 2831   1.853   1.724   5.119
  200POPC   C3B 2832   1.944   1.867   5.568
  200POPC   C4B 2833   1.739   1.710   5.977
  201POPC   NC3 2834   2.996   3.530   4.038
  201POPC   PO4 2835   2.429   3.167   3.893
  201POPC   GL1 2836   2.301   3.281   4.293
  201POPC   GL2 2837   2.672   3.336   4.407
  201POPC   C1A 2838   2.277   3.483   4.695
  201POPC   D2A 2839   2.598   3.394   5.027
  201POPC   C3A 2840   2.535   3.310   5.445
  201POPC   C4A 2841   2.826   3.261   5.806
  201POPC   C1B 2842   2.695   3.758   4.695
  201POPC   C2B 2843   2.555   3.886   5.170
  201POPC   C3B 2844   2.621   3.778   5.669
  201POPC   C4B 2845   2.858   3.693   6.094
  202POPC   NC3 2846   5.315   9.382   3.885
  202POPC   PO4 2847   4.766   9.797   3.929
  202POPC   GL1 2848   4.893   9.727   4.343
  202POPC   GL2 2849   5.076   9.429   4.327
  202POPC   C1A 2850   4.967   9.591   4.791
  202POPC   D2A 2851   4.668   9.445   5.069
  202POPC   C3A 2852   4.741   9.435   5.503
  202POPC   C4A 2853   4.676   9.141   5.823
  202POPC   C1B 2854   5.256   9.169   4.663
  202POPC   C2B 2855   5.111   9.037   5.107
  202POPC   C3B 2856   5.154   9.120   5.579
  202POPC   C4B 2857   5.178   9.125   6.051
  203POPC   NC3 2858   9.419   2.834   3.878
  203POPC   PO4 2859   9.295   2.168   3.771
  203POPC   GL1 2860   9.281   2.419   4.170
  203POPC   GL2 2861   9.520   2.675   4.343
  203POPC   C1A 2862   9.340   2.262   4.580
  203POPC   D2A 2863   9.318   2.271   5.057
  203POPC   C3A 2864   9.744   2.325   5.273
  203POPC   C4A 2865   9.757   2.340   5.752
  203POPC   C1B 2866   9.633   2.608   4.771
  203POPC   C2B 2867   9.397   2.777   5.087
  203POPC   C3B 2868   9.444   2.647   5.499
  203POPC   C4B 2869   9.462   2.781   5.883
  204POPC   NC3 2870   2.214   5.115   4.089
  204POPC   PO4 2871   1.561   4.919   3.988
  204POPC   GL1 2872   1.700   5.168   4.312
  204POPC   GL2 2873   1.903   4.870   4.397
  204POPC   C1A 2874   1.682   5.440   4.721
  204POPC   D2A 2875   1.874   5.438   5.150
  204POPC   C3A 2876   1.631   5.415   5.541
  204POPC   C4A 2877   1.798   5.138   5.881
  204POPC   C1B 2878   2.036   5.052   4.785
  204POPC   C2B 2879   2.161   4.970   5.197
  204POPC   C3B 2880   2.056   4.834   5.555
  204POPC   C4B 2881   2.184   4.475   5.718
  205POPC   NC3 2882   2.196   5.721   3.639
  205POPC   PO4 2883   1.610   5.721   3.915
  205POPC   GL1 2884   1.970   5.570   4.140
  205POPC   GL2 2885   2.155   5.860   4.164
  205POPC   C1A 2886   2.168   5.533   4.581
  205POPC   D2A 2887   2.140   5.798   4.933
  205POPC   C3A 2888   2.265   5.741   5.384
  205POPC   C4A 2889   2.158   5.347   5.586
  205POPC   C1B 2890   1.818   5.899   4.507
  205POPC   C2B 2891   1.680   6.004   4.898
  205POPC   C3B 2892   1.789   5.941   5.330
  205POPC   C4B 2893   1.909   5.808   5.744
  206POPC   NC3 2894   5.822   0.673   3.973
  206POPC   PO4 2895   6.054   0.052   3.997
  206POPC   GL1 2896   5.815   0.004   4.353
  206POPC   GL2 2897   5.659   0.303   4.302
  206POPC   C1A 2898   5.813   0.094   4.779
  206POPC   D2A 2899   5.533   0.183   5.102
  206POPC   C3A 2900   5.697   0.157   5.473
  206POPC   C4A 2901   6.098   0.281   5.616
  206POPC   C1B 2902   5.547   0.510   4.684
  206POPC   C2B 2903   5.537   0.769   5.042
  206POPC   C3B 2904   5.384   0.776   5.453
  206POPC   C4B 2905   5.706   0.608   5.693
  207POPC   NC3 2906   6.581   1.310   3.989
  207POPC   PO4 2907   6.649   0.709   3.852
  207POPC   GL1 2908   6.542   0.965   4.315
  207POPC   GL2 2909   6.224   1.046   4.434
  207POPC   C1A 2910   6.648   1.215   4.678
  207POPC   D2A 2911   6.579   1.037   5.085
  207POPC   C3A 2912   6.854   1.231   5.406
  207POPC   C4A 2913   6.888   1.399   5.826
  207POPC   C1B 2914   6.180   1.428   4.658
  207POPC   C2B 2915   6.379   1.539   5.051
  207POPC   C3B 2916   6.301   1.297   5.430
  207POPC   C4B 2917   6.506   1.074   5.749
  208POPC   NC3 2918   6.932   3.157   3.610
  208POPC   PO4 2919   6.813   2.669   4.001
  208POPC   GL1 2920   7.140   2.660   4.297
  208POPC   GL2 2921   7.253   2.311   4.301
  208POPC   C1A 2922   7.272   2.954   4.643
  208POPC   D2A 2923   7.263   3.173   5.055
  208POPC   C3A 2924   7.296   3.024   5.498
  208POPC   C4A 2925   7.176   3.088   5.968
  208POPC   C1B 2926   7.373   2.463   4.698
  208POPC   C2B 2927   7.274   2.644   5.062
  208POPC   C3B 2928   7.454   2.547   5.453
  208POPC   C4B 2929   7.286   2.600   5.847
  209POPC   NC3 2930   9.903   3.686   3.678
  209POPC   PO4 2931  10.436   3.930   3.947
  209POPC   GL1 2932  10.205   4.127   4.251
  209POPC   GL2 2933  10.312   4.417   4.361
  209POPC   C1A 2934   9.963   4.170   4.643
  209POPC   D2A 2935   9.728   4.334   5.010
  209POPC   C3A 2936   9.929   4.091   5.305
  209POPC   C4A 2937   9.972   4.104   5.697
  209POPC   C1B 2938  10.474   4.112   4.679
  209POPC   C2B 2939  10.395   3.958   5.080
  209POPC   C3B 2940  10.413   4.246   5.404
  209POPC   C4B 2941  10.371   4.406   5.787
  210POPC   NC3 2942   7.839   3.296   4.109
  210POPC   PO4 2943   8.242   3.704   4.009
  210POPC   GL1 2944   8.142   3.547   4.436
  210POPC   GL2 2945   8.129   3.162   4.519
  210POPC   C1A 2946   8.188   3.528   4.904
  210POPC   D2A 2947   8.148   3.171   5.206
  210POPC   C3A 2948   8.085   3.321   5.649
  210POPC   C4A 2949   7.963   3.622   5.970
  210POPC   C1B 2950   7.753   3.295   4.816
  210POPC   C2B 2951   7.681   3.376   5.286
  210POPC   C3B 2952   7.545   3.440   5.727
  210POPC   C4B 2953   7.574   3.367   6.197
  211POPC   NC3 2954   0.261   8.906   4.004
  211POPC   PO4 2955   0.573   8.339   3.975
  211POPC   GL1 2956   0.553   8.545   4.330
  211POPC   GL2 2957   0.200   8.586   4.402
  211POPC   C1A 2958   0.512   8.365   4.731
  211POPC   D2A 2959   0.454   8.082   5.035
  211POPC   C3A 2960   0.426   8.314   5.398
  211POPC   C4A 2961   0.514   8.575   5.731
  211POPC   C1B 2962   0.412   8.950   4.627
  211POPC   C2B 2963   0.482   9.105   5.026
  211POPC   C3B 2964   0.357   8.900   5.383
  211POPC   C4B 2965   0.164   8.964   5.771
  212POPC   NC3 2966   2.296   6.676   3.918
  212POPC   PO4 2967   1.651   6.718   3.980
  212POPC   GL1 2968   1.759   6.802   4.387
  212POPC   GL2 2969   2.050   6.583   4.373
  212POPC   C1A 2970   1.746   6.642   4.794
  212POPC   D2A 2971   1.712   6.427   5.152
  212POPC   C3A 2972   1.779   6.564   5.552
  212POPC   C4A 2973   1.858   6.336   5.952
  212POPC   C1B 2974   2.109   6.273   4.710
  212POPC   C2B 2975   2.198   6.242   5.150
  212POPC   C3B 2976   2.163   6.219   5.570
  212POPC   C4B 2977   2.368   6.431   5.893
  213POPC   NC3 2978  10.128   4.470   3.870
  213POPC   PO4 2979  10.011   5.133   3.746
  213POPC   GL1 2980   9.976   4.873   4.145
  213POPC   GL2 2981  10.281   4.926   4.256
  213POPC   C1A 2982   9.962   4.685   4.607
  213POPC   D2A 2983  10.217   4.490   4.979
  213POPC   C3A 2984  10.032   4.577   5.398
  213POPC   C4A 2985   9.894   4.576   5.844
  213POPC   C1B 2986  10.290   5.067   4.684
  213POPC   C2B 2987  10.121   4.993   5.083
  213POPC   C3B 2988   9.959   5.063   5.500
  213POPC   C4B 2989  10.189   4.972   5.847
  214POPC   NC3 2990   3.319   2.574   3.771
  214POPC   PO4 2991   3.184   3.137   4.140
  214POPC   GL1 2992   3.490   2.781   4.251
  214POPC   GL2 2993   3.329   2.459   4.272
  214POPC   C1A 2994   3.769   2.735   4.651
  214POPC   D2A 2995   3.866   2.852   5.100
  214POPC   C3A 2996   3.661   2.795   5.525
  214POPC   C4A 2997   3.592   2.646   5.958
  214POPC   C1B 2998   3.278   2.688   4.705
  214POPC   C2B 2999   3.262   2.751   5.155
  214POPC   C3B 3000   3.185   2.603   5.588
  214POPC   C4B 3001   3.117   2.846   5.958
  215POPC   NC3 3002   1.576   8.719   3.762
  215POPC   PO4 3003   2.187   9.119   3.760
  215POPC   GL1 3004   2.005   8.894   4.226
  215POPC   GL2 3005   1.701   8.689   4.270
  215POPC   C1A 3006   2.004   8.802   4.672
  215POPC   D2A 3007   1.872   8.648   5.074
  215POPC   C3A 3008   2.058   8.772   5.440
  215POPC   C4A 3009   2.309   8.829   5.781
  215POPC   C1B 3010   1.633   8.426   4.667
  215POPC   C2B 3011   1.659   8.166   5.020
  215POPC   C3B 3012   1.875   8.218   5.386
  215POPC   C4B 3013   2.048   8.367   5.761
  216POPC   NC3 3014   0.302   9.471   3.720
  216POPC   PO4 3015  10.343   9.002   3.806
  216POPC   GL1 3016  10.433   9.148   4.280
  216POPC   GL2 3017   0.272   9.355   4.300
  216POPC   C1A 3018   0.004   9.245   4.742
  216POPC   D2A 3019   0.178   9.548   5.039
  216POPC   C3A 3020   0.280   9.394   5.455
  216POPC   C4A 3021   0.012   9.578   5.748
  216POPC   C1B 3022   0.553   9.497   4.686
  216POPC   C2B 3023   0.683   9.563   5.177
  216POPC   C3B 3024   0.674   9.733   5.677
  216POPC   C4B 3025   0.742   9.654   6.181
  217POPC   NC3 3026   4.197   7.936   3.893
  217POPC   PO4 3027   3.690   8.314   3.888
  217POPC   GL1 3028   3.744   8.032   4.280
  217POPC   GL2 3029   4.104   7.905   4.385
  217POPC   C1A 3030   3.754   7.815   4.719
  217POPC   D2A 3031   3.768   8.036   5.124
  217POPC   C3A 3032   3.890   7.811   5.523
  217POPC   C4A 3033   4.155   7.734   5.890
  217POPC   C1B 3034   4.318   8.036   4.803
  217POPC   C2B 3035   4.295   7.984   5.260
  217POPC   C3B 3036   4.623   7.885   5.590
  217POPC   C4B 3037   4.859   7.684   5.929
  218POPC   NC3 3038   0.552   7.104   4.010
  218POPC   PO4 3039   0.034   7.091   3.659
  218POPC   GL1 3040   0.118   7.121   4.236
  218POPC   GL2 3041   0.379   7.436   4.350
  218POPC   C1A 3042   0.177   7.147   4.712
  218POPC   D2A 3043   0.421   7.334   5.056
  218POPC   C3A 3044   0.323   7.358   5.509
  218POPC   C4A 3045   0.303   7.422   5.960
  218POPC   C1B 3046   0.702   7.199   4.633
  218POPC   C2B 3047   0.860   7.026   5.019
  218POPC   C3B 3048   0.819   7.264   5.383
  218POPC   C4B 3049   0.698   7.138   5.784
  219POPC   NC3 3050   0.653   0.822   4.133
  219POPC   PO4 3051   0.308   0.251   3.828
  219POPC   GL1 3052   0.416   0.401   4.237
  219POPC   GL2 3053   0.193   0.646   4.288
  219POPC   C1A 3054   0.540   0.547   4.703
  219POPC   D2A 3055   0.723   0.385   5.071
  219POPC   C3A 3056   0.791   0.618   5.436
  219POPC   C4A 3057   0.762   0.402   5.800
  219POPC   C1B 3058   0.112   0.311   4.633
  219POPC   C2B 3059   0.084   0.411   5.054
  219POPC   C3B 3060   0.325   0.389   5.387
  219POPC   C4B 3061   0.209   0.342   5.759
  220POPC   NC3 3062   6.491   2.780   4.312
  220POPC   PO4 3063   6.122   2.328   4.071
  220POPC   GL1 3064   6.396   2.286   4.426
  220POPC   GL2 3065   6.742   2.319   4.388
  220POPC   C1A 3066   6.385   2.412   4.854
  220POPC   D2A 3067   6.437   2.686   5.205
  220POPC   C3A 3068   6.267   2.540   5.586
  220POPC   C4A 3069   6.254   2.740   6.012
  220POPC   C1B 3070   6.885   2.436   4.733
  220POPC   C2B 3071   6.838   2.390   5.124
  220POPC   C3B 3072   6.920   2.653   5.436
  220POPC   C4B 3073   6.740   2.608   5.800
  221POPC   NC3 3074   1.729   8.162   4.100
  221POPC   PO4 3075   1.580   7.567   3.948
  221POPC   GL1 3076   1.991   7.740   4.219
  221POPC   GL2 3077   2.017   8.073   4.494
  221POPC   C1A 3078   2.283   7.650   4.606
  221POPC   D2A 3079   2.307   7.883   4.995
  221POPC   C3A 3080   2.135   7.715   5.385
  221POPC   C4A 3081   2.136   7.435   5.740
  221POPC   C1B 3082   1.750   7.768   4.672
  221POPC   C2B 3083   1.740   7.576   5.055
  221POPC   C3B 3084   1.632   7.634   5.466
  221POPC   C4B 3085   1.816   7.888   5.766
  222POPC   NC3 3086   1.073   7.799   3.801
  222POPC   PO4 3087   1.353   8.405   4.011
  222POPC   GL1 3088   1.265   8.226   4.363
  222POPC   GL2 3089   1.323   7.887   4.246
  222POPC   C1A 3090   1.098   8.273   4.780
  222POPC   D2A 3091   0.938   8.195   5.192
  222POPC   C3A 3092   1.282   8.249   5.476
  222POPC   C4A 3093   1.534   8.294   5.861
  222POPC   C1B 3094   1.243   7.788   4.630
  222POPC   C2B 3095   1.290   7.820   5.038
  222POPC   C3B 3096   1.121   7.770   5.402
  222POPC   C4B 3097   1.285   7.849   5.781
  223POPC   NC3 3098   0.199   7.932   3.905
  223POPC   PO4 3099   0.701   7.824   3.525
  223POPC   GL1 3100   0.657   7.848   4.107
  223POPC   GL2 3101   0.357   8.029   4.357
  223POPC   C1A 3102   0.748   7.883   4.603
  223POPC   D2A 3103   0.819   7.635   4.987
  223POPC   C3A 3104   0.621   7.768   5.384
  223POPC   C4A 3105   0.771   8.092   5.692
  223POPC   C1B 3106   0.203   7.754   4.727
  223POPC   C2B 3107   0.092   7.708   5.184
  223POPC   C3B 3108   0.178   7.831   5.629
  223POPC   C4B 3109   0.143   8.229   5.835
  224POPC   NC3 3110  10.133   3.633   4.136
  224POPC   PO4 3111   9.679   3.233   3.792
  224POPC   GL1 3112   9.852   3.219   4.260
  224POPC   GL2 3113  10.201   3.172   4.325
  224POPC   C1A 3114   9.942   3.414   4.713
  224POPC   D2A 3115  10.201   3.475   5.097
  224POPC   C3A 3116  10.013   3.599   5.506
  224POPC   C4A 3117   9.965   3.689   5.971
  224POPC   C1B 3118   0.000   3.089   4.601
  224POPC   C2B 3119  10.487   3.035   5.031
  224POPC   C3B 3120  10.275   3.074   5.411
  224POPC   C4B 3121  10.244   3.252   5.820
  225POPC   NC3 3122   2.047   0.454   3.948
  225POPC   PO4 3123   2.323   1.007   3.844
  225POPC   GL1 3124   2.298   0.732   4.267
  225POPC   GL2 3125   1.896   0.582   4.391
  225POPC   C1A 3126   2.198   0.802   4.708
  225POPC   D2A 3127   1.946   0.578   4.956
  225POPC   C3A 3128   2.133   0.615   5.335
  225POPC   C4A 3129   2.157   0.517   5.760
  225POPC   C1B 3130   1.593   0.321   4.642
  225POPC   C2B 3131   1.713   0.118   5.041
  225POPC   C3B 3132   1.661   0.434   5.363
  225POPC   C4B 3133   1.640   0.528   5.784
  226POPC   NC3 3134   7.300   1.594   3.960
  226POPC   PO4 3135   7.936   1.429   3.936
  226POPC   GL1 3136   7.683   1.588   4.326
  226POPC   GL2 3137   7.363   1.822   4.390
  226POPC   C1A 3138   7.507   1.530   4.764
  226POPC   D2A 3139   7.571   1.725   5.154
  226POPC   C3A 3140   7.231   1.685   5.458
  226POPC   C4A 3141   7.204   1.800   5.880
  226POPC   C1B 3142   7.171   1.987   4.766
  226POPC   C2B 3143   7.276   2.142   5.175
  226POPC   C3B 3144   7.099   2.196   5.596
  226POPC   C4B 3145   6.908   2.186   6.044
  227POPC   NC3 3146   7.877   8.047   3.965
  227POPC   PO4 3147   8.382   7.565   3.989
  227POPC   GL1 3148   8.161   7.642   4.355
  227POPC   GL2 3149   7.873   7.864   4.427
  227POPC   C1A 3150   8.067   7.568   4.784
  227POPC   D2A 3151   8.169   7.796   5.158
  227POPC   C3A 3152   8.115   7.571   5.550
  227POPC   C4A 3153   7.926   7.555   5.945
  227POPC   C1B 3154   7.625   7.831   4.795
  227POPC   C2B 3155   7.698   7.979   5.201
  227POPC   C3B 3156   7.667   7.886   5.642
  227POPC   C4B 3157   7.748   8.057   6.069
  228POPC   NC3 3158   4.301   2.743   3.852
  228POPC   PO4 3159   3.774   2.297   3.859
  228POPC   GL1 3160   3.902   2.417   4.268
  228POPC   GL2 3161   4.243   2.521   4.329
  228POPC   C1A 3162   3.983   2.284   4.708
  228POPC   D2A 3163   4.154   2.390   5.108
  228POPC   C3A 3164   4.140   2.610   5.478
  228POPC   C4A 3165   4.040   2.452   5.859
  228POPC   C1B 3166   4.286   2.717   4.752
  228POPC   C2B 3167   4.363   2.945   5.151
  228POPC   C3B 3168   4.303   3.080   5.591
  228POPC   C4B 3169   4.515   2.931   5.995
  229POPC   NC3 3170   9.666   5.349   3.986
  229POPC   PO4 3171   9.127   5.087   3.672
  229POPC   GL1 3172   9.243   4.929   4.205
  229POPC   GL2 3173   9.535   5.035   4.340
  229POPC   C1A 3174   9.153   5.060   4.660
  229POPC   D2A 3175   9.298   5.277   5.040
  229POPC   C3A 3176   9.201   5.075   5.450
  229POPC   C4A 3177   9.136   5.241   5.851
  229POPC   C1B 3178   9.696   5.115   4.737
  229POPC   C2B 3179   9.631   4.872   5.111
  229POPC   C3B 3180   9.545   4.696   5.494
  229POPC   C4B 3181   9.487   4.857   5.923
  230POPC   NC3 3182   7.935   7.217   3.915
  230POPC   PO4 3183   7.489   7.739   3.952
  230POPC   GL1 3184   7.607   7.453   4.345
  230POPC   GL2 3185   7.913   7.220   4.411
  230POPC   C1A 3186   7.605   7.315   4.799
  230POPC   D2A 3187   7.757   7.464   5.209
  230POPC   C3A 3188   7.544   7.385   5.629
  230POPC   C4A 3189   7.571   7.163   6.051
  230POPC   C1B 3190   8.102   7.022   4.784
  230POPC   C2B 3191   8.059   6.886   5.269
  230POPC   C3B 3192   7.981   7.053   5.736
  230POPC   C4B 3193   8.081   7.146   6.209
  231POPC   NC3 3194  10.416   6.373   3.907
  231POPC   PO4 3195   9.928   6.036   4.036
  231POPC   GL1 3196  10.160   6.281   4.340
  231POPC   GL2 3197  10.190   6.661   4.294
  231POPC   C1A 3198  10.306   6.318   4.768
  231POPC   D2A 3199  10.072   6.318   5.122
  231POPC   C3A 3200  10.229   6.068   5.459
  231POPC   C4A 3201  10.189   6.164   5.854
  231POPC   C1B 3202  10.295   6.813   4.749
  231POPC   C2B 3203  10.420   6.685   5.181
  231POPC   C3B 3204  10.134   6.581   5.570
  231POPC   C4B 3205   9.909   6.524   6.032
  232POPC   NC3 3206   5.654  10.334   3.894
  232POPC   PO4 3207   5.899   9.700   3.883
  232POPC   GL1 3208   5.903   9.994   4.233
  232POPC   GL2 3209   5.555  10.051   4.289
  232POPC   C1A 3210   5.818  10.085   4.703
  232POPC   D2A 3211   5.851  10.225   5.137
  232POPC   C3A 3212   6.036   9.970   5.462
  232POPC   C4A 3213   5.756  10.215   5.699
  232POPC   C1B 3214   5.256   9.983   4.599
  232POPC   C2B 3215   5.371  10.010   5.008
  232POPC   C3B 3216   5.525   9.887   5.389
  232POPC   C4B 3217   5.276   9.912   5.766
  233POPC   NC3 3218   0.674  10.394   3.846
  233POPC   PO4 3219   0.400   9.812   3.994
  233POPC   GL1 3220   0.485  10.103   4.292
  233POPC   GL2 3221   0.289  10.409   4.232
  233POPC   C1A 3222   0.505  10.036   4.737
  233POPC   D2A 3223   0.586  10.054   5.174
  233POPC   C3A 3224   0.274   9.893   5.428
  233POPC   C4A 3225   0.224  10.061   5.806
  233POPC   C1B 3226   0.546   0.039   4.573
  233POPC   C2B 3227   0.387   0.002   4.986
  233POPC   C3B 3228   0.269  10.399   5.396
  233POPC   C4B 3229   0.532  10.460   5.719
  234POPC   NC3 3230  10.493  10.079   3.984
  234POPC   PO4 3231  10.086   0.089   4.036
  234POPC   GL1 3232  10.270  10.349   4.354
  234POPC   GL2 3233  10.103  10.041   4.486
  234POPC   C1A 3234  10.276  10.438   4.771
  234POPC   D2A 3235  10.044   0.067   5.100
  234POPC   C3A 3236  10.318   0.166   5.434
  234POPC   C4A 3237  10.410  10.453   5.806
  234POPC   C1B 3238  10.487   9.904   4.635
  234POPC   C2B 3239   0.068  10.081   5.016
  234POPC   C3B 3240  10.327  10.146   5.385
  234POPC   C4B 3241  10.186  10.004   5.785
  235POPC   NC3 3242   3.431   0.643   4.024
  235POPC   PO4 3243   3.415  10.476   3.892
  235POPC   GL1 3244   3.606   0.139   4.269
  235POPC   GL2 3245   3.372   0.340   4.413
  235POPC   C1A 3246   3.657   0.085   4.743
  235POPC   D2A 3247   3.306   0.049   5.092
  235POPC   C3A 3248   3.390   0.157   5.545
  235POPC   C4A 3249   3.560   0.306   5.949
  235POPC   C1B 3250   3.072   0.346   4.708
  235POPC   C2B 3251   2.938   0.518   5.045
  235POPC   C3B 3252   2.984   0.388   5.416
  235POPC   C4B 3253   3.175   0.597   5.752
  236POPC   NC3 3254   9.652   6.347   3.838
  236POPC   PO4 3255   9.138   6.636   4.143
  236POPC   GL1 3256   9.605   6.544   4.294
  236POPC   GL2 3257   9.624   6.180   4.427
  236POPC   C1A 3258   9.849   6.546   4.669
  236POPC   D2A 3259   9.536   6.630   4.964
  236POPC   C3A 3260   9.656   6.492   5.344
  236POPC   C4A 3261   9.656   6.745   5.667
  236POPC   C1B 3262   9.632   6.145   4.916
  236POPC   C2B 3263   9.223   6.285   5.173
  236POPC   C3B 3264   9.222   6.424   5.599
  236POPC   C4B 3265   9.581   6.210   5.766
  237POPC   NC3 3266   1.153   4.604   3.927
  237POPC   PO4 3267   0.845   5.201   3.875
  237POPC   GL1 3268   1.117   4.967   4.289
  237POPC   GL2 3269   1.406   4.688   4.386
  237POPC   C1A 3270   1.063   4.796   4.751
  237POPC   D2A 3271   0.960   5.057   5.113
  237POPC   C3A 3272   1.051   4.953   5.553
  237POPC   C4A 3273   1.312   5.081   5.925
  237POPC   C1B 3274   1.526   4.958   4.728
  237POPC   C2B 3275   1.476   5.117   5.132
  237POPC   C3B 3276   1.551   4.890   5.507
  237POPC   C4B 3277   1.342   4.542   5.727
  238POPC   NC3 3278   8.653   8.381   4.107
  238POPC   PO4 3279   8.448   8.982   3.989
  238POPC   GL1 3280   8.546   8.818   4.364
  238POPC   GL2 3281   8.914   8.747   4.337
  238POPC   C1A 3282   8.676   8.803   4.774
  238POPC   D2A 3283   8.660   8.592   5.129
  238POPC   C3A 3284   8.750   8.852   5.455
  238POPC   C4A 3285   8.467   8.946   5.749
  238POPC   C1B 3286   8.920   8.374   4.700
  238POPC   C2B 3287   9.067   8.170   5.086
  238POPC   C3B 3288   8.916   8.345   5.492
  238POPC   C4B 3289   8.515   8.441   5.725
  239POPC   NC3 3290   7.213   8.147   3.923
  239POPC   PO4 3291   6.911   8.764   3.796
  239POPC   GL1 3292   7.020   8.843   4.219
  239POPC   GL2 3293   7.202   8.552   4.316
  239POPC   C1A 3294   7.002   8.858   4.665
  239POPC   D2A 3295   7.209   8.892   5.072
  239POPC   C3A 3296   6.989   8.623   5.354
  239POPC   C4A 3297   6.777   8.588   5.740
  239POPC   C1B 3298   7.523   8.749   4.630
  239POPC   C2B 3299   7.730   8.762   5.061
  239POPC   C3B 3300   7.521   8.835   5.487
  239POPC   C4B 3301   7.268   8.596   5.791
  240POPC   NC3 3302   4.319   1.035   3.822
  240POPC   PO4 3303   3.861   1.572   3.823
  240POPC   GL1 3304   4.004   1.238   4.159
  240POPC   GL2 3305   4.322   1.141   4.305
  240POPC   C1A 3306   3.946   1.252   4.622
  240POPC   D2A 3307   4.149   1.271   5.041
  240POPC   C3A 3308   4.064   1.123   5.456
  240POPC   C4A 3309   3.947   1.265   5.841
  240POPC   C1B 3310   4.280   0.892   4.650
  240POPC   C2B 3311   4.183   0.736   5.038
  240POPC   C3B 3312   4.238   0.649   5.440
  240POPC   C4B 3313   4.364   0.776   5.813
  241POPC   NC3 3314   9.837   9.274   3.898
  241POPC   PO4 3315  10.076   9.909   3.987
  241POPC   GL1 3316   9.806   9.689   4.225
  241POPC   GL2 3317  10.124   9.543   4.339
  241POPC   C1A 3318   9.794   9.689   4.690
  241POPC   D2A 3319  10.160   9.590   4.956
  241POPC   C3A 3320  10.139   9.652   5.402
  241POPC   C4A 3321   9.874   9.611   5.789
  241POPC   C1B 3322   9.996   9.223   4.597
  241POPC   C2B 3323  10.087   9.052   4.993
  241POPC   C3B 3324  10.343   9.162   5.314
  241POPC   C4B 3325  10.194   9.187   5.716
  242POPC   NC3 3326   6.339   7.763   3.988
  242POPC   PO4 3327   6.330   8.359   4.084
  242POPC   GL1 3328   6.729   8.336   4.253
  242POPC   GL2 3329   6.623   8.029   4.375
  242POPC   C1A 3330   6.835   8.378   4.693
  242POPC   D2A 3331   6.962   8.149   5.062
  242POPC   C3A 3332   6.746   8.155   5.423
  242POPC   C4A 3333   6.727   8.087   5.836
  242POPC   C1B 3334   6.538   7.977   4.822
  242POPC   C2B 3335   6.549   7.741   5.200
  242POPC   C3B 3336   6.384   7.793   5.614
  242POPC   C4B 3337   6.507   7.633   6.026
  243POPC   NC3 3338   8.642   0.833   3.943
  243POPC   PO4 3339   8.645   1.547   3.935
  243POPC   GL1 3340   8.715   1.249   4.258
  243POPC   GL2 3341   9.042   1.354   4.307
  243POPC   C1A 3342   8.874   0.958   4.616
  243POPC   D2A 3343   8.689   0.935   5.059
  243POPC   C3A 3344   8.784   0.764   5.491
  243POPC   C4A 3345   8.692   1.024   5.878
  243POPC   C1B 3346   8.818   1.455   4.729
  243POPC   C2B 3347   8.789   1.442   5.178
  243POPC   C3B 3348   8.593   1.433   5.594
  243POPC   C4B 3349   8.511   1.480   6.079
  244POPC   NC3 3350   2.393   9.520   3.872
  244POPC   PO4 3351   2.467   9.121   4.336
  244POPC   GL1 3352   2.542   9.537   4.407
  244POPC   GL2 3353   2.826   9.500   4.211
  244POPC   C1A 3354   2.521   9.571   4.830
  244POPC   D2A 3355   2.336   9.206   5.042
  244POPC   C3A 3356   2.267   9.247   5.465
  244POPC   C4A 3357   2.491   9.289   5.847
  244POPC   C1B 3358   2.981   9.402   4.654
  244POPC   C2B 3359   2.939   9.584   5.099
  244POPC   C3B 3360   2.644   9.599   5.445
  244POPC   C4B 3361   2.715   9.740   5.893
  245POPC   NC3 3362   5.781   8.592   4.017
  245POPC   PO4 3363   5.321   8.263   4.065
  245POPC   GL1 3364   5.316   8.674   4.297
  245POPC   GL2 3365   5.617   8.838   4.440
  245POPC   C1A 3366   5.278   8.681   4.754
  245POPC   D2A 3367   5.441   8.470   5.099
  245POPC   C3A 3368   5.308   8.657   5.447
  245POPC   C4A 3369   5.446   8.701   5.862
  245POPC   C1B 3370   5.797   8.629   4.746
  245POPC   C2B 3371   5.958   8.559   5.149
  245POPC   C3B 3372   5.811   8.492   5.536
  245POPC   C4B 3373   5.984   8.694   5.867
  246POPC   NC3 3374   9.224   3.440   3.767
  246POPC   PO4 3375   9.682   3.709   4.087
  246POPC   GL1 3376   9.396   3.518   4.311
  246POPC   GL2 3377   9.353   3.173   4.238
  246POPC   C1A 3378   9.423   3.603   4.731
  246POPC   D2A 3379   9.677   3.754   5.039
  246POPC   C3A 3380   9.489   3.633   5.433
  246POPC   C4A 3381   9.600   3.388   5.817
  246POPC   C1B 3382   9.541   3.100   4.665
  246POPC   C2B 3383   9.630   3.241   5.112
  246POPC   C3B 3384   9.335   3.130   5.478
  246POPC   C4B 3385   9.099   3.147   5.877
  247POPC   NC3 3386   1.028   1.736   3.981
  247POPC   PO4 3387   0.705   2.003   4.390
  247POPC   GL1 3388   0.441   1.706   4.457
  247POPC   GL2 3389   0.133   1.707   4.311
  247POPC   C1A 3390   0.284   1.771   4.830
  247POPC   D2A 3391   0.503   1.947   5.146
  247POPC   C3A 3392   0.587   1.676   5.437
  247POPC   C4A 3393   0.742   1.671   5.811
  247POPC   C1B 3394   0.041   2.113   4.550
  247POPC   C2B 3395   0.082   2.191   5.000
  247POPC   C3B 3396   0.173   2.229   5.437
  247POPC   C4B 3397   0.312   1.973   5.781
  248POPC   NC3 3398   9.625   0.198   3.951
  248POPC   PO4 3399   9.101   0.699   3.940
  248POPC   GL1 3400   9.350   0.676   4.303
  248POPC   GL2 3401   9.392   0.375   4.403
  248POPC   C1A 3402   9.307   0.725   4.753
  248POPC   D2A 3403   9.183   0.902   5.142
  248POPC   C3A 3404   9.480   0.776   5.464
  248POPC   C4A 3405   9.917   0.837   5.732
  248POPC   C1B 3406   9.351   0.118   4.801
  248POPC   C2B 3407   9.531   0.018   5.206
  248POPC   C3B 3408   9.426   0.222   5.592
  248POPC   C4B 3409   9.204   0.193   5.973
  249POPC   NC3 3410   8.513   3.309   3.908
  249POPC   PO4 3411   8.889   3.845   3.818
  249POPC   GL1 3412   8.731   3.662   4.197
  249POPC   GL2 3413   8.906   3.399   4.232
  249POPC   C1A 3414   8.593   3.447   4.614
  249POPC   D2A 3415   8.625   3.279   5.043
  249POPC   C3A 3416   8.454   3.565   5.343
  249POPC   C4A 3417   8.416   3.718   5.751
  249POPC   C1B 3418   9.050   3.251   4.639
  249POPC   C2B 3419   9.140   3.346   5.068
  249POPC   C3B 3420   8.937   3.457   5.473
  249POPC   C4B 3421   8.596   3.201   5.679
  250POPC   NC3 3422  10.203   5.711   3.806
  250POPC   PO4 3423   0.345   5.651   3.937
  250POPC   GL1 3424   0.092   5.551   4.307
  250POPC   GL2 3425  10.288   5.740   4.300
  250POPC   C1A 3426  10.484   5.524   4.760
  250POPC   D2A 3427   0.004   5.325   5.178
  250POPC   C3A 3428  10.249   5.506   5.497
  250POPC   C4A 3429  10.465   5.749   5.799
  250POPC   C1B 3430  10.102   5.872   4.648
  250POPC   C2B 3431  10.107   5.809   5.055
  250POPC   C3B 3432   9.762   5.901   5.354
  250POPC   C4B 3433   9.875   5.773   5.763
  251POPC   NC3 3434   9.057   9.865   3.693
  251POPC   PO4 3435   9.390   9.251   3.789
  251POPC   GL1 3436   9.204   9.428   4.159
  251POPC   GL2 3437   9.302   9.128   4.313
  251POPC   C1A 3438   9.225   9.623   4.594
  251POPC   D2A 3439   9.377   9.852   4.987
  251POPC   C3A 3440   9.467   9.703   5.401
  251POPC   C4A 3441   9.396   9.842   5.824
  251POPC   C1B 3442   9.485   9.223   4.715
  251POPC   C2B 3443   9.680   9.373   5.049
  251POPC   C3B 3444   9.787   9.285   5.407
  251POPC   C4B 3445   9.505   9.284   5.717
  252POPC   NC3 3446   3.084   5.491   4.037
  252POPC   PO4 3447   2.444   5.482   3.933
  252POPC   GL1 3448   2.616   5.578   4.298
  252POPC   GL2 3449   2.598   5.927   4.401
  252POPC   C1A 3450   2.659   5.507   4.733
  252POPC   D2A 3451   2.414   5.378   5.072
  252POPC   C3A 3452   2.645   5.315   5.478
  252POPC   C4A 3453   2.585   5.367   5.938
  252POPC   C1B 3454   2.590   6.004   4.859
  252POPC   C2B 3455   2.744   5.765   5.213
  252POPC   C3B 3456   2.772   5.779   5.659
  252POPC   C4B 3457   2.816   6.146   5.945
  253POPC   NC3 3458   2.023   3.420   3.832
  253POPC   PO4 3459   1.375   3.321   4.062
  253POPC   GL1 3460   1.751   3.230   4.240
  253POPC   GL2 3461   1.847   3.549   4.318
  253POPC   C1A 3462   1.884   3.164   4.664
  253POPC   D2A 3463   1.700   3.284   5.065
  253POPC   C3A 3464   1.884   3.232   5.466
  253POPC   C4A 3465   2.137   3.509   5.689
  253POPC   C1B 3466   1.804   3.678   4.746
  253POPC   C2B 3467   2.072   3.625   5.134
  253POPC   C3B 3468   1.752   3.729   5.396
  253POPC   C4B 3469   1.660   3.686   5.795
  254POPC   NC3 3470   0.238   4.224   3.796
  254POPC   PO4 3471   0.886   4.205   3.801
  254POPC   GL1 3472   0.571   4.291   4.171
  254POPC   GL2 3473   0.256   4.135   4.278
  254POPC   C1A 3474   0.507   4.365   4.639
  254POPC   D2A 3475   0.269   4.321   5.032
  254POPC   C3A 3476   0.380   4.445   5.432
  254POPC   C4A 3477   0.376   4.237   5.802
  254POPC   C1B 3478   0.482   3.850   4.547
  254POPC   C2B 3479   0.576   3.894   4.987
  254POPC   C3B 3480   0.322   3.924   5.382
  254POPC   C4B 3481  10.480   3.868   5.738
  255POPC   NC3 3482   5.066   1.320   3.912
  255POPC   PO4 3483   4.696   0.862   3.603
  255POPC   GL1 3484   4.760   0.992   4.083
  255POPC   GL2 3485   5.030   0.873   4.233
  255POPC   C1A 3486   4.770   1.155   4.537
  255POPC   D2A 3487   4.637   1.250   4.929
  255POPC   C3A 3488   4.554   1.006   5.289
  255POPC   C4A 3489   4.506   1.234   5.693
  255POPC   C1B 3490   5.138   0.801   4.649
  255POPC   C2B 3491   5.074   1.002   5.055
  255POPC   C3B 3492   4.967   1.257   5.390
  255POPC   C4B 3493   4.988   1.045   5.772
  256POPC   NC3 3494   8.063   8.795   3.819
  256POPC   PO4 3495   7.584   8.387   4.043
  256POPC   GL1 3496   7.811   8.382   4.380
  256POPC   GL2 3497   8.051   8.632   4.306
  256POPC   C1A 3498   7.831   8.300   4.808
  256POPC   D2A 3499   8.088   8.333   5.172
  256POPC   C3A 3500   7.784   8.372   5.502
  256POPC   C4A 3501   7.749   8.530   5.887
  256POPC   C1B 3502   8.225   8.598   4.729
  256POPC   C2B 3503   8.224   8.855   5.133
  256POPC   C3B 3504   8.030   8.814   5.562
  256POPC   C4B 3505   8.081   8.863   6.059
  257POPC   NC3 3506   2.759   4.413   3.631
  257POPC   PO4 3507   2.308   4.666   4.033
  257POPC   GL1 3508   2.224   4.454   4.419
  257POPC   GL2 3509   2.500   4.223   4.348
  257POPC   C1A 3510   2.219   4.520   4.880
  257POPC   D2A 3511   2.533   4.541   5.204
  257POPC   C3A 3512   2.626   4.286   5.556
  257POPC   C4A 3513   2.585   4.423   5.990
  257POPC   C1B 3514   2.641   4.258   4.776
  257POPC   C2B 3515   2.970   4.189   5.072
  257POPC   C3B 3516   3.139   4.247   5.491
  257POPC   C4B 3517   3.004   4.152   5.911
  258POPC   NC3 3518   5.734   1.372   3.801
  258POPC   PO4 3519   5.405   0.880   3.924
  258POPC   GL1 3520   5.439   1.200   4.246
  258POPC   GL2 3521   5.790   1.273   4.285
  258POPC   C1A 3522   5.289   1.287   4.680
  258POPC   D2A 3523   5.542   1.282   5.090
  258POPC   C3A 3524   5.432   1.276   5.554
  258POPC   C4A 3525   5.350   1.379   6.009
  258POPC   C1B 3526   5.761   1.026   4.648
  258POPC   C2B 3527   6.026   1.017   5.013
  258POPC   C3B 3528   5.861   1.018   5.426
  258POPC   C4B 3529   5.812   1.115   5.862
  259POPC   NC3 3530   9.250   5.851   4.075
  259POPC   PO4 3531   9.762   5.681   3.679
  259POPC   GL1 3532   9.701   5.696   4.312
  259POPC   GL2 3533   9.397   5.544   4.468
  259POPC   C1A 3534   9.688   5.645   4.826
  259POPC   D2A 3535   9.802   5.406   5.157
  259POPC   C3A 3536   9.544   5.450   5.495
  259POPC   C4A 3537   9.687   5.304   5.868
  259POPC   C1B 3538   9.249   5.920   4.714
  259POPC   C2B 3539   9.271   5.779   5.138
  259POPC   C3B 3540   9.238   5.899   5.549
  259POPC   C4B 3541   9.395   5.723   5.928
  260POPC   NC3 3542   6.150   9.229   3.874
  260POPC   PO4 3543   5.588   9.022   3.988
  260POPC   GL1 3544   5.780   9.288   4.277
  260POPC   GL2 3545   5.586   9.554   4.291
  260POPC   C1A 3546   5.816   9.192   4.754
  260POPC   D2A 3547   5.619   8.960   5.101
  260POPC   C3A 3548   5.706   9.012   5.547
  260POPC   C4A 3549   5.679   9.114   6.013
  260POPC   C1B 3550   5.511   9.589   4.734
  260POPC   C2B 3551   5.419   9.437   5.181
  260POPC   C3B 3552   5.486   9.464   5.665
  260POPC   C4B 3553   5.765   9.739   5.842
  261POPC   NC3 3554   9.357   6.984   3.916
  261POPC   PO4 3555   9.664   7.575   3.759
  261POPC   GL1 3556   9.577   7.580   4.196
  261POPC   GL2 3557   9.354   7.327   4.305
  261POPC   C1A 3558   9.701   7.474   4.615
  261POPC   D2A 3559   9.778   7.461   5.054
  261POPC   C3A 3560   9.556   7.198   5.345
  261POPC   C4A 3561   9.627   7.243   5.769
  261POPC   C1B 3562   9.144   7.386   4.682
  261POPC   C2B 3563   9.264   7.087   4.949
  261POPC   C3B 3564   9.196   6.820   5.289
  261POPC   C4B 3565   9.204   6.937   5.704
  262POPC   NC3 3566   2.682   1.807   3.692
  262POPC   PO4 3567   2.897   2.448   3.955
  262POPC   GL1 3568   2.889   2.251   4.451
  262POPC   GL2 3569   2.805   1.869   4.545
  262POPC   C1A 3570   2.745   2.172   4.917
  262POPC   D2A 3571   3.031   2.286   5.215
  262POPC   C3A 3572   2.976   2.122   5.632
  262POPC   C4A 3573   2.798   2.061   6.024
  262POPC   C1B 3574   2.461   1.726   4.746
  262POPC   C2B 3575   2.297   1.961   5.081
  262POPC   C3B 3576   2.519   1.993   5.443
  262POPC   C4B 3577   2.461   1.731   5.768
  263POPC   NC3 3578   4.132   1.993   3.889
  263POPC   PO4 3579   4.655   1.541   3.922
  263POPC   GL1 3580   4.303   1.656   4.276
  263POPC   GL2 3581   4.218   2.007   4.368
  263POPC   C1A 3582   4.140   1.710   4.753
  263POPC   D2A 3583   3.908   1.946   5.081
  263POPC   C3A 3584   3.877   1.779   5.501
  263POPC   C4A 3585   4.233   1.664   5.732
  263POPC   C1B 3586   4.468   2.163   4.714
  263POPC   C2B 3587   4.459   1.976   5.122
  263POPC   C3B 3588   4.329   2.129   5.531
  263POPC   C4B 3589   4.545   2.448   5.789
  264POPC   NC3 3590   3.022  10.242   3.884
  264POPC   PO4 3591   2.432   0.150   3.948
  264POPC   GL1 3592   2.660  10.333   4.237
  264POPC   GL2 3593   2.616   9.981   4.159
  264POPC   C1A 3594   2.920  10.373   4.627
  264POPC   D2A 3595   2.788   0.014   5.050
  264POPC   C3A 3596   2.960  10.389   5.463
  264POPC   C4A 3597   2.912  10.202   5.884
  264POPC   C1B 3598   2.452  10.040   4.625
  264POPC   C2B 3599   2.588  10.022   5.081
  264POPC   C3B 3600   2.518  10.103   5.531
  264POPC   C4B 3601   2.396  10.124   5.986
  265POPC   NC3 3602   4.217   0.392   3.741
  265POPC   PO4 3603   3.805   0.880   3.828
  265POPC   GL1 3604   3.949   0.711   4.241
  265POPC   GL2 3605   4.074   0.347   4.249
  265POPC   C1A 3606   3.798   0.635   4.678
  265POPC   D2A 3607   3.554   0.485   5.050
  265POPC   C3A 3608   3.785   0.454   5.444
  265POPC   C4A 3609   3.840   0.758   5.785
  265POPC   C1B 3610   4.254   0.375   4.664
  265POPC   C2B 3611   4.073   0.233   5.029
  265POPC   C3B 3612   4.243   0.135   5.394
  265POPC   C4B 3613   4.200   0.306   5.800
  266POPC   NC3 3614   1.208   6.812   3.887
  266POPC   PO4 3615   0.917   7.396   4.014
  266POPC   GL1 3616   1.119   7.118   4.288
  266POPC   GL2 3617   1.416   7.308   4.371
  266POPC   C1A 3618   1.288   6.849   4.604
  266POPC   D2A 3619   1.266   6.694   5.043
  266POPC   C3A 3620   1.238   6.883   5.492
  266POPC   C4A 3621   1.347   6.989   5.959
  266POPC   C1B 3622   1.196   7.320   4.782
  266POPC   C2B 3623   1.310   7.311   5.212
  266POPC   C3B 3624   1.216   7.364   5.664
  266POPC   C4B 3625   0.834   7.606   5.819
  267POPC   NC3 3626   7.560   2.438   3.907
  267POPC   PO4 3627   8.080   2.915   3.998
  267POPC   GL1 3628   8.013   2.556   4.226
  267POPC   GL2 3629   7.689   2.630   4.343
  267POPC   C1A 3630   8.089   2.426   4.634
  267POPC   D2A 3631   8.156   2.693   4.989
  267POPC   C3A 3632   8.108   2.506   5.388
  267POPC   C4A 3633   7.867   2.496   5.777
  267POPC   C1B 3634   7.758   2.806   4.704
  267POPC   C2B 3635   7.702   2.887   5.122
  267POPC   C3B 3636   7.819   2.917   5.506
  267POPC   C4B 3637   7.653   2.973   5.875
  268POPC   NC3 3638   1.770   9.189   3.915
  268POPC   PO4 3639   1.971   9.865   3.929
  268POPC   GL1 3640   2.077   9.772   4.325
  268POPC   GL2 3641   2.056   9.423   4.266
  268POPC   C1A 3642   2.025   9.627   4.758
  268POPC   D2A 3643   2.180   9.702   5.187
  268POPC   C3A 3644   1.909   9.622   5.524
  268POPC   C4A 3645   2.049   9.580   5.949
  268POPC   C1B 3646   1.744   9.245   4.551
  268POPC   C2B 3647   1.815   9.167   4.973
  268POPC   C3B 3648   1.696   9.160   5.369
  268POPC   C4B 3649   1.873   9.137   5.761
  269POPC   NC3 3650   9.082   1.756   3.840
  269POPC   PO4 3651   8.432   2.071   4.014
  269POPC   GL1 3652   8.800   2.140   4.277
  269POPC   GL2 3653   8.736   1.806   4.377
  269POPC   C1A 3654   8.891   2.156   4.751
  269POPC   D2A 3655   8.687   1.967   5.121
  269POPC   C3A 3656   8.715   2.195   5.511
  269POPC   C4A 3657   8.685   1.884   5.818
  269POPC   C1B 3658   8.421   2.030   4.672
  269POPC   C2B 3659   8.184   2.118   5.038
  269POPC   C3B 3660   8.252   1.998   5.445
  269POPC   C4B 3661   8.282   2.203   5.806
  270POPC   NC3 3662   2.826   2.901   3.974
  270POPC   PO4 3663   2.387   2.435   4.301
  270POPC   GL1 3664   2.512   2.810   4.364
  270POPC   GL2 3665   2.867   2.780   4.438
  270POPC   C1A 3666   2.449   3.011   4.729
  270POPC   D2A 3667   2.187   3.099   5.065
  270POPC   C3A 3668   2.261   2.873   5.403
  270POPC   C4A 3669   2.389   2.979   5.817
  270POPC   C1B 3670   2.792   2.655   4.822
  270POPC   C2B 3671   2.732   2.794   5.201
  270POPC   C3B 3672   2.647   2.515   5.495
  270POPC   C4B 3673   2.716   2.545   5.880
  271POPC   NC3 3674  10.082   8.668   3.624
  271POPC   PO4 3675  10.165   8.020   3.704
  271POPC   GL1 3676  10.082   8.354   4.064
  271POPC   GL2 3677  10.233   8.656   4.160
  271POPC   C1A 3678   9.931   8.373   4.509
  271POPC   D2A 3679  10.043   8.504   4.970
  271POPC   C3A 3680   9.952   8.325   5.359
  271POPC   C4A 3681   9.855   8.395   5.769
  271POPC   C1B 3682  10.278   8.774   4.601
  271POPC   C2B 3683   0.021   8.756   5.003
  271POPC   C3B 3684  10.403   8.659   5.450
  271POPC   C4B 3685  10.254   8.700   5.881
  272POPC   NC3 3686   8.894   4.747   3.923
  272POPC   PO4 3687   9.161   5.396   4.083
  272POPC   GL1 3688   8.793   5.262   4.327
  272POPC   GL2 3689   8.728   4.933   4.341
  272POPC   C1A 3690   8.625   5.171   4.757
  272POPC   D2A 3691   8.862   5.001   5.079
  272POPC   C3A 3692   8.672   5.048   5.434
  272POPC   C4A 3693   8.798   4.871   5.795
  272POPC   C1B 3694   8.798   4.678   4.692
  272POPC   C2B 3695   8.599   4.574   5.037
  272POPC   C3B 3696   8.566   4.532   5.421
  272POPC   C4B 3697   8.337   4.727   5.688
  273POPC   NC3 3698  10.094   2.982   3.859
  273POPC   PO4 3699   9.771   2.510   3.938
  273POPC   GL1 3700  10.030   2.687   4.306
  273POPC   GL2 3701  10.355   2.523   4.275
  273POPC   C1A 3702  10.039   2.905   4.749
  273POPC   D2A 3703   9.880   2.816   5.183
  273POPC   C3A 3704   9.824   2.990   5.589
  273POPC   C4A 3705   9.967   2.806   5.982
  273POPC   C1B 3706  10.452   2.603   4.734
  273POPC   C2B 3707  10.291   2.555   5.149
  273POPC   C3B 3708  10.175   2.577   5.560
  273POPC   C4B 3709  10.404   2.320   5.851
  274POPC   NC3 3710   0.457   0.656   3.657
  274POPC   PO4 3711   0.865   1.155   3.885
  274POPC   GL1 3712   0.692   1.278   4.327
  274POPC   GL2 3713   0.342   1.217   4.251
  274POPC   C1A 3714   0.638   1.052   4.771
  274POPC   D2A 3715   0.390   0.831   5.133
  274POPC   C3A 3716   0.355   0.836   5.617
  274POPC   C4A 3717   0.672   0.892   5.897
  274POPC   C1B 3718   0.182   1.305   4.653
  274POPC   C2B 3719   0.353   1.353   5.071
  274POPC   C3B 3720   0.265   1.292   5.436
  274POPC   C4B 3721   0.375   1.335   5.827
  275POPC   NC3 3722   4.411   9.735   3.644
  275POPC   PO4 3723   4.314  10.445   3.722
  275POPC   GL1 3724   4.228  10.335   4.149
  275POPC   GL2 3725   3.906  10.219   4.241
  275POPC   C1A 3726   4.324  10.370   4.599
  275POPC   D2A 3727   4.572   0.026   4.953
  275POPC   C3A 3728   4.673  10.345   5.377
  275POPC   C4A 3729   4.398  10.305   5.747
  275POPC   C1B 3730   3.950  10.030   4.648
  275POPC   C2B 3731   4.134  10.197   5.062
  275POPC   C3B 3732   4.027  10.063   5.485
  275POPC   C4B 3733   3.982  10.108   5.956
  276POPC   NC3 3734   6.525   8.768   4.053
  276POPC   PO4 3735   6.575   9.388   3.981
  276POPC   GL1 3736   6.620   9.192   4.333
  276POPC   GL2 3737   6.269   9.233   4.418
  276POPC   C1A 3738   6.634   9.206   4.771
  276POPC   D2A 3739   6.319   9.441   5.008
  276POPC   C3A 3740   6.416   9.467   5.448
  276POPC   C4A 3741   6.737   9.499   5.733
  276POPC   C1B 3742   6.043   9.622   4.599
  276POPC   C2B 3743   5.880   9.699   5.044
  276POPC   C3B 3744   5.914   9.470   5.412
  276POPC   C4B 3745   6.106   9.278   5.794
  277POPC   NC3 3746   1.328   5.332   3.948
  277POPC   PO4 3747   1.041   5.965   3.931
  277POPC   GL1 3748   1.023   5.618   4.245
  277POPC   GL2 3749   1.380   5.626   4.349
  277POPC   C1A 3750   1.069   5.337   4.646
  277POPC   D2A 3751   0.884   5.550   5.001
  277POPC   C3A 3752   1.032   5.456   5.427
  277POPC   C4A 3753   0.887   5.772   5.707
  277POPC   C1B 3754   1.252   5.809   4.695
  277POPC   C2B 3755   1.379   5.648   5.094
  277POPC   C3B 3756   1.307   5.867   5.446
  277POPC   C4B 3757   1.448   5.996   5.807
  278POPC   NC3 3758   1.129   3.836   3.672
  278POPC   PO4 3759   1.432   4.258   4.063
  278POPC   GL1 3760   1.254   4.177   4.412
  278POPC   GL2 3761   0.990   4.413   4.411
  278POPC   C1A 3762   1.442   4.096   4.801
  278POPC   D2A 3763   1.353   4.342   5.156
  278POPC   C3A 3764   1.377   4.074   5.494
  278POPC   C4A 3765   1.299   4.016   5.927
  278POPC   C1B 3766   0.952   4.234   4.828
  278POPC   C2B 3767   0.829   4.269   5.244
  278POPC   C3B 3768   0.890   4.282   5.673
  278POPC   C4B 3769   0.791   4.022   6.009
  279POPC   NC3 3770  10.400   1.444   3.919
  279POPC   PO4 3771   0.142   2.022   3.875
  279POPC   GL1 3772  10.219   1.942   4.146
  279POPC   GL2 3773   9.949   2.171   4.293
  279POPC   C1A 3774  10.171   1.775   4.602
  279POPC   D2A 3775  10.350   1.565   4.984
  279POPC   C3A 3776   0.045   1.743   5.316
  279POPC   C4A 3777  10.445   1.635   5.722
  279POPC   C1B 3778  10.051   2.285   4.715
  279POPC   C2B 3779  10.108   2.017   5.069
  279POPC   C3B 3780  10.176   2.078   5.473
  279POPC   C4B 3781  10.034   1.919   5.850
  280POPC   NC3 3782   9.274   3.981   4.046
  280POPC   PO4 3783   9.837   4.150   3.688
  280POPC   GL1 3784   9.713   4.221   4.170
  280POPC   GL2 3785   9.584   4.526   4.247
  280POPC   C1A 3786   9.472   4.118   4.621
  280POPC   D2A 3787   9.254   4.062   5.017
  280POPC   C3A 3788   9.429   4.156   5.429
  280POPC   C4A 3789   9.508   3.942   5.846
  280POPC   C1B 3790   9.447   4.636   4.676
  280POPC   C2B 3791   9.186   4.593   5.052
  280POPC   C3B 3792   9.062   4.547   5.483
  280POPC   C4B 3793   9.284   4.412   5.850
  281POPC   NC3 3794   2.600   8.108   3.725
  281POPC   PO4 3795   2.087   8.427   4.005
  281POPC   GL1 3796   2.410   8.059   4.187
  281POPC   GL2 3797   2.524   7.691   4.153
  281POPC   C1A 3798   2.618   8.086   4.617
  281POPC   D2A 3799   2.706   8.235   5.085
  281POPC   C3A 3800   2.392   8.160   5.426
  281POPC   C4A 3801   2.339   7.935   5.834
  281POPC   C1B 3802   2.816   7.628   4.548
  281POPC   C2B 3803   2.835   7.759   4.979
  281POPC   C3B 3804   2.651   7.726   5.374
  281POPC   C4B 3805   2.704   7.588   5.792
  282POPC   NC3 3806   0.606   6.106   3.975
  282POPC   PO4 3807   0.257   6.646   4.052
  282POPC   GL1 3808   0.511   6.474   4.340
  282POPC   GL2 3809   0.724   6.761   4.339
  282POPC   C1A 3810   0.371   6.482   4.781
  282POPC   D2A 3811   0.263   6.229   5.137
  282POPC   C3A 3812   0.107   6.382   5.534
  282POPC   C4A 3813   0.371   6.579   5.748
  282POPC   C1B 3814   0.878   6.566   4.704
  282POPC   C2B 3815   0.784   6.491   5.119
  282POPC   C3B 3816   0.748   6.745   5.456
  282POPC   C4B 3817   0.908   6.691   5.874
  283POPC   NC3 3818  10.084   7.582   3.577
  283POPC   PO4 3819  10.440   7.587   4.112
  283POPC   GL1 3820  10.098   7.652   4.355
  283POPC   GL2 3821  10.004   7.885   4.209
  283POPC   C1A 3822   9.923   7.903   4.714
  283POPC   D2A 3823  10.091   7.913   5.101
  283POPC   C3A 3824  10.123   7.587   5.395
  283POPC   C4A 3825  10.343   7.430   5.732
  283POPC   C1B 3826  10.352   8.108   4.475
  283POPC   C2B 3827  10.486   8.238   4.883
  283POPC   C3B 3828  10.449   8.178   5.330
  283POPC   C4B 3829  10.201   8.009   5.675
  284POPC   NC3 3830   8.415   7.131   4.148
  284POPC   PO4 3831   8.916   6.967   3.755
  284POPC   GL1 3832   8.911   7.094   4.207
  284POPC   GL2 3833   8.802   7.447   4.300
  284POPC   C1A 3834   8.831   6.977   4.659
  284POPC   D2A 3835   8.765   7.060   5.116
  284POPC   C3A 3836   9.046   7.310   5.384
  284POPC   C4A 3837   9.180   7.464   5.795
  284POPC   C1B 3838   8.560   7.421   4.728
  284POPC   C2B 3839   8.327   7.309   5.132
  284POPC   C3B 3840   8.437   7.163   5.516
  284POPC   C4B 3841   8.630   7.531   5.580
  285POPC   NC3 3842   6.484   0.278   3.928
  285POPC   PO4 3843   6.125   1.033   3.926
  285POPC   GL1 3844   6.237   0.586   4.227
  285POPC   GL2 3845   6.627   0.487   4.342
  285POPC   C1A 3846   6.107   0.499   4.669
  285POPC   D2A 3847   5.984   0.498   5.128
  285POPC   C3A 3848   6.275   0.728   5.418
  285POPC   C4A 3849   6.167   0.731   5.846
  285POPC   C1B 3850   6.589   0.283   4.687
  285POPC   C2B 3851   6.518   0.491   5.033
  285POPC   C3B 3852   6.567   0.302   5.412
  285POPC   C4B 3853   6.583   0.427   5.797
  286POPC   NC3 3854   4.527   9.390   4.096
  286POPC   PO4 3855   3.993   9.775   3.809
  286POPC   GL1 3856   4.241   9.806   4.193
  286POPC   GL2 3857   4.081   9.551   4.448
  286POPC   C1A 3858   4.449   9.859   4.601
  286POPC   D2A 3859   4.233   9.700   4.969
  286POPC   C3A 3860   4.442   9.829   5.338
  286POPC   C4A 3861   4.305   9.692   5.740
  286POPC   C1B 3862   4.244   9.200   4.753
  286POPC   C2B 3863   4.124   8.991   5.136
  286POPC   C3B 3864   4.259   9.205   5.512
  286POPC   C4B 3865   3.976   9.298   5.857
  287POPC   NC3 3866   8.488   4.088   3.949
  287POPC   PO4 3867   9.042   4.384   4.180
  287POPC   GL1 3868   8.629   4.432   4.286
  287POPC   GL2 3869   8.678   4.104   4.426
  287POPC   C1A 3870   8.337   4.396   4.629
  287POPC   D2A 3871   8.490   4.085   4.931
  287POPC   C3A 3872   8.357   4.067   5.356
  287POPC   C4A 3873   8.450   4.213   5.788
  287POPC   C1B 3874   8.955   3.812   4.634
  287POPC   C2B 3875   8.848   3.751   5.049
  287POPC   C3B 3876   8.865   4.060   5.370
  287POPC   C4B 3877   8.985   3.998   5.767
  288POPC   NC3 3878   8.243   1.727   3.741
  288POPC   PO4 3879   7.588   1.988   3.906
  288POPC   GL1 3880   7.746   2.122   4.278
  288POPC   GL2 3881   8.026   2.005   4.348
  288POPC   C1A 3882   7.685   2.087   4.719
  288POPC   D2A 3883   7.736   2.377   5.040
  288POPC   C3A 3884   7.764   2.138   5.383
  288POPC   C4A 3885   7.647   2.023   5.750
  288POPC   C1B 3886   8.011   1.718   4.763
  288POPC   C2B 3887   8.291   1.593   5.099
  288POPC   C3B 3888   8.113   1.521   5.520
  288POPC   C4B 3889   8.079   1.739   5.901
  289POPC   NC3 3890   9.754   2.042   3.843
  289POPC   PO4 3891   9.467   1.438   3.731
  289POPC   GL1 3892   9.485   1.572   4.133
  289POPC   GL2 3893   9.426   1.918   4.206
  289POPC   C1A 3894   9.695   1.619   4.521
  289POPC   D2A 3895   9.659   1.952   4.828
  289POPC   C3A 3896   9.570   1.850   5.263
  289POPC   C4A 3897   9.553   1.786   5.700
  289POPC   C1B 3898   9.207   1.771   4.558
  289POPC   C2B 3899   9.145   1.773   4.991
  289POPC   C3B 3900   9.079   1.802   5.449
  289POPC   C4B 3901   9.226   2.193   5.637
  290POPC   NC3 3902   3.342   8.539   3.672
  290POPC   PO4 3903   2.946   7.917   3.955
  290POPC   GL1 3904   3.231   7.855   4.349
  290POPC   GL2 3905   3.366   7.541   4.334
  290POPC   C1A 3906   3.372   8.152   4.730
  290POPC   D2A 3907   3.226   8.193   5.185
  290POPC   C3A 3908   3.494   8.120   5.567
  290POPC   C4A 3909   3.786   8.119   5.937
  290POPC   C1B 3910   3.287   7.649   4.798
  290POPC   C2B 3911   3.404   7.696   5.226
  290POPC   C3B 3912   3.147   7.760   5.581
  290POPC   C4B 3913   2.872   8.084   5.661
  291POPC   NC3 3914   0.340   5.185   3.914
  291POPC   PO4 3915   0.060   4.607   3.966
  291POPC   GL1 3916   0.254   4.692   4.297
  291POPC   GL2 3917   0.247   5.061   4.406
  291POPC   C1A 3918   0.101   4.660   4.692
  291POPC   D2A 3919   0.134   4.840   5.061
  291POPC   C3A 3920  10.495   4.813   5.459
  291POPC   C4A 3921   0.126   5.172   5.703
  291POPC   C1B 3922   0.594   4.885   4.608
  291POPC   C2B 3923   0.620   4.700   5.013
  291POPC   C3B 3924   0.538   4.914   5.402
  291POPC   C4B 3925   0.646   4.747   5.784
  292POPC   NC3 3926   0.957   8.608   3.869
  292POPC   PO4 3927   0.607   9.186   3.903
  292POPC   GL1 3928   0.853   8.975   4.268
  292POPC   GL2 3929   1.183   8.783   4.313
  292POPC   C1A 3930   0.876   8.749   4.700
  292POPC   D2A 3931   0.713   8.645   5.110
  292POPC   C3A 3932   0.974   8.671   5.477
  292POPC   C4A 3933   0.885   8.881   5.869
  292POPC   C1B 3934   1.391   8.873   4.711
  292POPC   C2B 3935   1.362   8.613   5.098
  292POPC   C3B 3936   1.556   8.673   5.505
  292POPC   C4B 3937   1.365   8.993   5.730
  293POPC   NC3 3938   7.940   9.773   3.986
  293POPC   PO4 3939   7.971   9.224   3.663
  293POPC   GL1 3940   7.993   9.163   4.182
  293POPC   GL2 3941   7.935   9.452   4.397
  293POPC   C1A 3942   7.965   9.036   4.674
  293POPC   D2A 3943   8.105   9.365   5.028
  293POPC   C3A 3944   8.176   9.296   5.466
  293POPC   C4A 3945   8.206   9.703   5.707
  293POPC   C1B 3946   7.680   9.451   4.731
  293POPC   C2B 3947   7.634   9.257   5.138
  293POPC   C3B 3948   7.716   9.503   5.515
  293POPC   C4B 3949   7.813   9.229   5.835
  294POPC   NC3 3950   3.459   1.209   3.784
  294POPC   PO4 3951   3.173   0.868   4.314
  294POPC   GL1 3952   3.531   1.106   4.351
  294POPC   GL2 3953   3.590   1.484   4.249
  294POPC   C1A 3954   3.522   1.088   4.805
  294POPC   D2A 3955   3.734   0.954   5.120
  294POPC   C3A 3956   3.461   0.850   5.426
  294POPC   C4A 3957   3.408   1.046   5.824
  294POPC   C1B 3958   3.605   1.627   4.669
  294POPC   C2B 3959   3.680   1.491   5.073
  294POPC   C3B 3960   3.595   1.347   5.458
  294POPC   C4B 3961   3.498   1.536   5.847
  295POPC   NC3 3962   3.257   8.237   4.054
  295POPC   PO4 3963   3.514   8.902   3.902
  295POPC   GL1 3964   3.549   8.632   4.279
  295POPC   GL2 3965   3.232   8.570   4.440
  295POPC   C1A 3966   3.661   8.708   4.695
  295POPC   D2A 3967   3.503   8.783   5.060
  295POPC   C3A 3968   3.516   8.586   5.405
  295POPC   C4A 3969   3.135   8.513   5.591
  295POPC   C1B 3970   3.263   8.993   4.629
  295POPC   C2B 3971   3.238   9.198   5.050
  295POPC   C3B 3972   3.248   9.005   5.452
  295POPC   C4B 3973   3.505   9.094   5.767
  296POPC   NC3 3974   2.874   7.316   3.982
  296POPC   PO4 3975   3.456   7.100   4.043
  296POPC   GL1 3976   3.115   7.083   4.384
  296POPC   GL2 3977   2.797   6.887   4.286
  296POPC   C1A 3978   3.048   7.205   4.838
  296POPC   D2A 3979   3.009   7.368   5.282
  296POPC   C3A 3980   3.003   7.181   5.737
  296POPC   C4A 3981   2.886   7.180   6.208
  296POPC   C1B 3982   2.599   7.179   4.599
  296POPC   C2B 3983   2.546   7.345   5.016
  296POPC   C3B 3984   2.547   7.230   5.469
  296POPC   C4B 3985   2.477   7.085   5.911
  297POPC   NC3 3986   1.451   6.152   4.025
  297POPC   PO4 3987   0.830   6.522   3.864
  297POPC   GL1 3988   1.092   6.432   4.236
  297POPC   GL2 3989   0.938   6.150   4.394
  297POPC   C1A 3990   1.340   6.335   4.649
  297POPC   D2A 3991   1.202   6.176   5.052
  297POPC   C3A 3992   1.308   6.377   5.446
  297POPC   C4A 3993   1.388   6.503   5.865
  297POPC   C1B 3994   0.739   6.065   4.797
  297POPC   C2B 3995   0.754   5.991   5.251
  297POPC   C3B 3996   0.855   6.262   5.612
  297POPC   C4B 3997   1.027   6.188   6.029
  298POPC   NC3 3998   0.767   5.641   3.756
  298POPC   PO4 3999   0.224   6.104   3.696
  298POPC   GL1 4000   0.185   6.062   4.220
  298POPC   GL2 4001   0.524   5.838   4.378
  298POPC   C1A 4002   0.173   5.995   4.672
  298POPC   D2A 4003   0.385   5.735   4.976
  298POPC   C3A 4004   0.193   5.785   5.356
  298POPC   C4A 4005   0.424   6.017   5.650
  298POPC   C1B 4006   0.560   5.434   4.575
  298POPC   C2B 4007   0.477   5.226   4.973
  298POPC   C3B 4008   0.532   5.415   5.383
  298POPC   C4B 4009   0.439   5.541   5.794
  299POPC   NC3 4010   1.455   0.471   3.887
  299POPC   PO4 4011   0.819   0.473   3.884
  299POPC   GL1 4012   1.078   0.430   4.253
  299POPC   GL2 4013   1.370   0.675   4.329
  299POPC   C1A 4014   1.054   0.406   4.688
  299POPC   D2A 4015   1.224   0.261   5.070
  299POPC   C3A 4016   1.206   0.301   5.520
  299POPC   C4A 4017   1.544   0.021   5.725
  299POPC   C1B 4018   1.183   0.907   4.632
  299POPC   C2B 4019   1.071   0.826   5.051
  299POPC   C3B 4020   1.273   0.824   5.451
  299POPC   C4B 4021   1.171   0.740   5.836
  300POPC   NC3 4022   3.952   8.737   3.993
  300POPC   PO4 4023   4.490   8.271   4.009
  300POPC   GL1 4024   4.151   8.404   4.315
  300POPC   GL2 4025   4.104   8.754   4.476
  300POPC   C1A 4026   3.916   8.299   4.691
  300POPC   D2A 4027   3.932   8.521   5.104
  300POPC   C3A 4028   3.960   8.340   5.494
  300POPC   C4A 4029   4.269   8.207   5.721
  300POPC   C1B 4030   4.344   8.587   4.816
  300POPC   C2B 4031   4.439   8.472   5.252
  300POPC   C3B 4032   4.314   8.707   5.599
  300POPC   C4B 4033   3.905   8.843   5.618
  301POPC   NC3 4034   9.841   1.134   3.673
  301POPC   PO4 4035   0.028   0.973   3.888
  301POPC   GL1 4036  10.350   1.118   4.296
  301POPC   GL2 4037  10.231   0.859   4.345
  301POPC   C1A 4038  10.105   1.251   4.678
  301POPC   D2A 4039   9.839   1.495   4.991
  301POPC   C3A 4040   9.996   1.614   5.417
  301POPC   C4A 4041  10.004   1.387   5.825
  301POPC   C1B 4042   0.013   0.831   4.713
  301POPC   C2B 4043  10.446   1.068   5.049
  301POPC   C3B 4044  10.281   1.201   5.396
  301POPC   C4B 4045  10.426   1.113   5.770
  302W        W 4046  10.387   3.603   8.985
  303W        W 4047   3.404   7.418   2.211
  304W        W 4048   8.006   2.765   1.837
  305W        W 4049   6.078   0.501   0.250
  306W        W 4050   9.135   2.094   8.575
  307W        W 4051   9.873   3.071   8.698
  308W        W 4052   8.193   5.501   9.715
  309W        W 4053   2.278   3.570   0.847
  310W        W 4054  10.005   3.182   0.992
  311W        W 4055   0.249   7.411  10.552
  312W        W 4056   5.255   1.882   2.172
  313W        W 4057   9.722   7.158   9.570
  314W        W 4058   9.866   7.974   8.943
  315W        W 4059   8.429   5.664   0.074
  316W        W 4060   8.929   0.844   3.184
  317W        W 4061   5.235   6.458   1.659
  318W        W 4062   8.013   6.174   1.454
  319W        W 4063   5.655  10.453  11.889
  320W        W 4064   6.527  10.329   1.465
  321W        W 4065   1.851   5.704  11.739
  322W        W 4066   3.494   6.666  11.482
  323W        W 4067   6.430   8.065   0.325
  324W        W 4068   8.986   7.675   9.872
  325W        W 4069   0.976   1.859   9.798
  326W        W 4070  10.277   1.780   9.113
  327W        W 4071   4.646   0.729  10.104
  328W        W 4072   9.996   8.587  10.914
  329W        W 4073   9.754   2.285   0.755
  330W        W 4074   1.866   6.994   2.807
  331W        W 4075   1.348   6.999   1.760
  332W        W 4076   9.554   2.107  11.791
  333W        W 4077   6.345   3.129  10.009
  334W        W 4078   2.178   2.849   2.528
  335W        W 4079   0.412   1.056   9.379
  336W        W 4080   8.720   2.237   2.177
  337W        W 4081   8.907   8.827  10.586
  338W        W 4082   4.963   0.447   1.511
  339W        W 4083   2.737   9.475  11.146
  340W        W 4084   3.539   7.367   2.998
  341W        W 4085   9.075   0.951   2.696
  342W        W 4086   1.377   2.549   0.098
  343W        W 4087   2.368   4.697   2.650
  344W        W 4088   6.743   0.155   3.506
  345W        W 4089  10.472   4.227   9.667
  346W        W 4090   7.007  10.318   1.724
  347W        W 4091   7.409   3.678   9.889
  348W        W 4092   1.655   6.804  10.295
  349W        W 4093  10.321   5.064   2.026
  350W        W 4094   8.434   5.608   0.604
  351W        W 4095   3.554   6.897  11.017
  352W        W 4096   6.982   4.113   1.885
  353W        W 4097   4.698   4.155  10.394
  354W        W 4098   8.517   7.613   9.114
  355W        W 4099   5.148  10.114  10.715
  356W        W 4100   8.556   7.657   9.621
  357W        W 4101   6.503   9.105   2.052
  358W        W 4102   2.301   1.275   1.680
  359W        W 4103   7.582   4.690   9.355
  360W        W 4104   0.880   0.779   0.269
  361W        W 4105   4.807   8.454   9.714
  362W        W 4106   5.309   4.775   0.317
  363W        W 4107   8.406   3.176   1.922
  364W        W 4108   0.441   0.760   1.404
  365W        W 4109   8.914   8.150   0.198
  366W        W 4110   5.176   3.033  11.391
  367W        W 4111   9.324   2.586   3.461
  368W        W 4112   2.144   1.874   3.042
  369W        W 4113   4.855   0.932   1.758
  370W        W 4114   8.460   0.238   1.723
  371W        W 4115   8.973   9.134  10.170
  372W        W 4116   9.239   1.386   1.122
  373W        W 4117   8.035   6.032   2.900
  374W        W 4118   6.142   3.714   0.676
  375W        W 4119   4.916   7.941   0.241
  376W        W 4120   8.711   9.780  10.934
  377W        W 4121   0.952   8.637   9.463
  378W        W 4122   5.692   9.441  10.215
  379W        W 4123   0.992   7.165   2.586
  380W        W 4124   1.928   0.962   1.743
  381W        W 4125   4.598   9.921   9.799
  382W        W 4126   6.701   9.698  11.721
  383W        W 4127   0.966   4.682   2.946
  384W        W 4128   7.133   3.550  10.470
  385W        W 4129   8.124   7.319   1.657
  386W        W 4130   4.783   2.175   2.906
  387W        W 4131   9.655   9.851   0.738
  388W        W 4132   8.453   9.522   3.172
  389W        W 4133   6.691   4.588   9.185
  390W        W 4134   7.019   9.446  10.242
  391W        W 4135   0.760   7.755   0.024
  392W        W 4136   5.438   7.588  10.497
  393W        W 4137   7.483   6.259  11.808
  394W        W 4138   1.621   0.579   1.749
  395W        W 4139   7.871   1.351   2.975
  396W        W 4140   0.919   3.731   8.810
  397W        W 4141   3.523   2.392  11.388
  398W        W 4142   4.056   9.637   9.787
  399W        W 4143   3.095   5.269   2.790
  400W        W 4144   7.210   4.346   3.329
  401W        W 4145   9.420   8.072   2.559
  402W        W 4146   7.699   1.432   9.477
  403W        W 4147   2.336   5.486   8.581
  404W        W 4148   8.176   3.768   2.929
  405W        W 4149   9.803   8.553   1.541
  406W        W 4150   7.592   4.612   3.134
  407W        W 4151   0.773  10.334   0.651
  408W        W 4152   2.605   2.732   2.232
  409W        W 4153   8.126   9.264   9.301
  410W        W 4154   1.757   4.497   8.679
  411W        W 4155   0.399   4.375   9.927
  412W        W 4156   7.884  10.266  10.578
  413W        W 4157   1.181   9.174  11.191
  414W        W 4158   7.043   8.189  11.957
  415W        W 4159   1.268   3.603   9.607
  416W        W 4160   6.353   9.779  11.324
  417W        W 4161   3.650   0.449   0.486
  418W        W 4162   9.254   7.208   2.911
  419W        W 4163   6.696   9.394  11.241
  420W        W 4164   8.074   1.201  10.121
  421W        W 4165   7.856   0.435  11.996
  422W        W 4166   7.744   2.688   8.809
  423W        W 4167  10.036   3.264   3.435
  424W        W 4168   1.035   0.025   1.808
  425W        W 4169   4.202   2.501  11.773
  426W        W 4170   4.763   4.120   2.219
  427W        W 4171   5.317   6.087   3.394
  428W        W 4172   7.375   8.585   3.653
  429W        W 4173   2.191   0.932   3.360
  430W        W 4174   4.262   0.805   1.881
  431W        W 4175  10.095   6.843  11.794
  432W        W 4176   1.994   9.106   1.235
  433W        W 4177   7.531   7.689   2.717
  434W        W 4178   1.791   2.096   0.397
  435W        W 4179   9.909   2.819  10.068
  436W        W 4180   0.240   4.661   9.540
  437W        W 4181   4.508   3.139   3.634
  438W        W 4182   6.517   5.017  11.586
  439W        W 4183   7.891   1.662   3.387
  440W        W 4184   1.865   0.629   8.919
  441W        W 4185   4.982   6.696   0.305
  442W        W 4186   3.738   3.742   1.958
  443W        W 4187   4.116   8.520  10.935
  444W        W 4188   1.259   0.455   2.755
  445W        W 4189   4.552   1.704   1.929
  446W        W 4190   8.188   5.730   9.216
  447W        W 4191   6.916   9.908   0.365
  448W        W 4192   3.466   0.830   0.792
  449W        W 4193   9.550   5.579   2.167
  450W        W 4194   6.662   9.941   3.168
  451W        W 4195   9.002   4.317   3.682
  452W        W 4196   5.090   5.247  11.398
  453W        W 4197   6.616   9.579   2.816
  454W        W 4198  10.389  10.367   2.424
  455W        W 4199   8.401   0.232  11.316
  456W        W 4200   2.862   1.294   8.791
  457W        W 4201   6.095   3.787  11.193
  458W        W 4202   0.741   8.625   1.744
  459W        W 4203   2.134   7.208   1.277
  460W        W 4204   9.513   9.553   2.453
  461W        W 4205   6.692   4.091  11.841
  462W        W 4206   6.935   4.139   9.297
  463W        W 4207   3.220   2.314   2.882
  464W        W 4208   8.169   3.746   0.297
  465W        W 4209   1.778   2.257  11.879
  466W        W 4210   8.047   1.184   3.453
  467W        W 4211   1.485  10.316  11.893
  468W        W 4212   5.494   6.634   9.412
  469W        W 4213   2.080   0.785   0.896
  470W        W 4214   5.955   8.163   0.507
  471W        W 4215  10.398   2.026   1.527
  472W        W 4216   6.625   4.086   9.695
  473W        W 4217   9.017   0.277   9.129
  474W        W 4218   8.032   4.674   2.897
  475W        W 4219   5.141   2.492   1.702
  476W        W 4220   3.059   8.298   2.543
  477W        W 4221   7.411   8.925  11.733
  478W        W 4222   2.885   0.336  11.791
  479W        W 4223  10.228   0.238   1.659
  480W        W 4224   1.954   0.886   0.411
  481W        W 4225   9.253   8.377   3.557
  482W        W 4226   9.838   6.406   9.007
  483W        W 4227   6.040   9.173  11.936
  484W        W 4228   9.413   6.630  10.844
  485W        W 4229   7.627   8.922   9.191
  486W        W 4230   2.390   4.238   9.867
  487W        W 4231   5.497   3.291   1.266
  488W        W 4232   4.498   9.967  11.311
  489W        W 4233   5.224   3.747   1.176
  490W        W 4234   5.058   0.778   9.773
  491W        W 4235   5.148   0.795   9.269
  492W        W 4236   1.272   4.999   3.543
  493W        W 4237   8.133   4.187  10.012
  494W        W 4238   2.919   2.387   3.297
  495W        W 4239   8.542   8.435  11.464
  496W        W 4240   9.768   2.365  10.308
  497W        W 4241   2.371   6.292   8.802
  498W        W 4242   5.976   6.292   9.479
  499W        W 4243   6.129   3.742   1.188
  500W        W 4244   2.808   7.421   0.981
  501W        W 4245   9.331   5.158  10.501
  502W        W 4246   6.849   2.124   1.664
  503W        W 4247   7.219   5.343   2.100
  504W        W 4248   6.095   6.034   2.528
  505W        W 4249   3.265   1.375   2.470
  506W        W 4250   0.052   3.872   0.874
  507W        W 4251   0.169   1.279   2.292
  508W        W 4252  10.076   3.972   8.728
  509W        W 4253   7.296   5.856   8.157
  510W        W 4254   2.785   5.860   9.464
  511W        W 4255  10.165   4.268  10.086
  512W        W 4256   2.168   5.205   2.931
  513W        W 4257   3.829   2.792  11.526
  514W        W 4258   8.311   6.487   0.035
  515W        W 4259   6.867   0.107  10.845
  516W        W 4260   6.646   4.557   1.912
  517W        W 4261   5.633   6.529   3.251
  518W        W 4262   6.143   3.714   2.837
  519W        W 4263   7.718   3.573   2.899
  520W        W 4264   6.554   5.947   1.809
  521W        W 4265   4.621   5.454   2.414
  522W        W 4266   2.930   3.396   0.308
  523W        W 4267   5.084   0.831   0.674
  524W        W 4268   1.404   7.606   1.141
  525W        W 4269   2.821   2.717  11.767
  526W        W 4270   6.504   1.437   2.718
  527W        W 4271   1.777   5.891   9.385
  528W        W 4272   3.590   2.361   2.189
  529W        W 4273  10.014   0.032  10.470
  530W        W 4274   6.503   1.663  10.078
  531W        W 4275   5.814   6.240   4.206
  532W        W 4276   6.695   7.038   0.097
  533W        W 4277   7.717   4.326  11.840
  534W        W 4278   9.314   8.580   9.502
  535W        W 4279   9.048  10.234  10.890
  536W        W 4280   9.122   4.684  10.556
  537W        W 4281   4.229   1.247  10.590
  538W        W 4282   9.902   4.753   1.230
  539W        W 4283   1.664   6.100   0.756
  540W        W 4284   9.662   4.168  10.063
  541W        W 4285   3.446   2.274   3.350
  542W        W 4286   0.475   5.279   9.781
  543W        W 4287   0.364   4.532   2.453
  544W        W 4288   2.403   6.040  10.320
  545W        W 4289   5.539  10.447  10.479
  546W        W 4290   1.942   0.721   2.188
  547W        W 4291   7.662   3.531   8.920
  548W        W 4292   7.990   1.867   9.329
  549W        W 4293   6.631   5.459   0.468
  550W        W 4294   9.810   7.168  10.562
  551W        W 4295  10.148   4.681  10.389
  552W        W 4296   3.755   6.612  10.645
  553W        W 4297   9.595   2.563   3.031
  554W        W 4298   7.567   1.149  11.476
  555W        W 4299   6.638   8.623   2.689
  556W        W 4300   4.604   1.813   3.287
  557W        W 4301   5.055   2.770   8.048
  558W        W 4302   4.194   0.594   9.885
  559W        W 4303   6.469   5.664   2.249
  560W        W 4304   8.917   5.058   9.533
  561W        W 4305   8.933   2.173   0.496
  562W        W 4306   8.504   2.746   2.208
  563W        W 4307   2.173   4.713   9.879
  564W        W 4308   1.400   0.713   0.343
  565W        W 4309   7.869   7.439   1.220
  566W        W 4310   6.904   3.154   1.217
  567W        W 4311  10.119   5.070  10.056
  568W        W 4312   0.797   2.785   9.703
  569W        W 4313   5.234   4.320   2.324
  570W        W 4314   1.204   4.766   9.616
  571W        W 4315   6.582   5.879   0.202
  572W        W 4316   2.021   8.010  11.919
  573W        W 4317   4.724   4.947  11.629
  574W        W 4318   0.661   1.680   1.737
  575W        W 4319   7.095   5.587  11.932
  576W        W 4320   3.353   1.876   2.167
  577W        W 4321   8.852   4.242   1.530
  578W        W 4322   0.362   9.923   1.779
  579W        W 4323   0.482   5.631   1.908
  580W        W 4324   8.552   8.962   8.775
  581W        W 4325   6.081   6.947   2.761
  582W        W 4326   6.254   6.541   9.857
  583W        W 4327   2.712   5.187   3.141
  584W        W 4328   7.143   6.531   9.382
  585W        W 4329   3.789   2.587   0.044
  586W        W 4330   3.256   8.245   0.554
  587W        W 4331   9.367   7.329   9.207
  588W        W 4332   6.688   9.243   0.670
  589W        W 4333   3.073   3.359   2.572
  590W        W 4334   9.418   7.533   2.488
  591W        W 4335   9.054   4.110   0.414
  592W        W 4336   4.516   4.111   0.692
  593W        W 4337   5.214   7.084   9.323
  594W        W 4338   5.124   9.932   9.041
  595W        W 4339   1.962   6.709   9.880
  596W        W 4340   3.785   6.084  10.499
  597W        W 4341   5.929   9.794   3.388
  598W        W 4342   9.427   3.763   0.453
  599W        W 4343   0.879   0.339  10.491
  600W        W 4344   2.362   4.577   0.991
  601W        W 4345   6.680   1.774   8.658
  602W        W 4346   2.702   3.555   3.324
  603W        W 4347   7.716   3.780   3.874
  604W        W 4348   6.041   3.220  10.804
  605W        W 4349   1.307   3.818   9.138
  606W        W 4350   9.547   4.739   1.969
  607W        W 4351   0.884   8.342  11.195
  608W        W 4352   3.561   1.555   3.392
  609W        W 4353   1.193   7.508   8.726
  610W        W 4354   4.787   1.028   1.208
  611W        W 4355   7.690   2.835   1.361
  612W        W 4356   1.352   2.391  11.062
  613W        W 4357   4.603   2.157  10.586
  614W        W 4358   3.262   9.755   9.159
  615W        W 4359   9.301   6.294   9.806
  616W        W 4360   4.085   8.392   9.062
  617W        W 4361   6.979   1.847  11.013
  618W        W 4362   4.118   5.999  11.771
  619W        W 4363   3.446   1.005   2.119
  620W        W 4364   9.068   1.702   0.671
  621W        W 4365   5.151   3.834   0.660
  622W        W 4366   3.361   5.022   9.860
  623W        W 4367   2.141   5.714   9.993
  624W        W 4368   4.562   2.812   8.816
  625W        W 4369   1.586   0.219   9.066
  626W        W 4370   6.937   7.032   3.519
  627W        W 4371   7.677   1.033   9.805
  628W        W 4372   2.394   7.343   0.241
  629W        W 4373   7.628   4.129  10.009
  630W        W 4374   6.121   8.350   1.872
  631W        W 4375   4.807   4.592   2.442
  632W        W 4376   7.254   3.627  11.970
  633W        W 4377   3.630   6.145   2.676
  634W        W 4378   4.720   7.336   0.950
  635W        W 4379   2.425   6.561  10.094
  636W        W 4380   7.486   0.852  11.864
  637W        W 4381   5.056   6.493  10.347
  638W        W 4382   3.218  10.295  11.384
  639W        W 4383   9.889   8.469   9.040
  640W        W 4384   9.215   5.720   0.691
  641W        W 4385   0.416   5.972   0.359
  642W        W 4386  10.132   2.797   1.742
  643W        W 4387   5.509   5.129  10.937
  644W        W 4388   2.145   2.077   9.943
  645W        W 4389   3.292   8.422  10.491
  646W        W 4390   4.686   0.010   2.005
  647W        W 4391  10.073   8.283   9.947
  648W        W 4392   5.662   4.140   9.526
  649W        W 4393   4.085   2.349   2.305
  650W        W 4394   4.507   4.240   1.203
  651W        W 4395   7.992  10.448   0.467
  652W        W 4396   9.474   6.756   9.919
  653W        W 4397   0.040   6.582  11.065
  654W        W 4398   1.792   6.867   3.307
  655W        W 4399   9.044   4.225   0.987
  656W        W 4400   1.937   8.800  10.504
  657W        W 4401   8.636   7.220   2.311
  658W        W 4402   9.827   1.377   0.253
  659W        W 4403   3.294   5.077   8.374
  660W        W 4404   2.351   2.076   1.030
  661W        W 4405   9.313   7.714   2.960
  662W        W 4406   6.744   6.005   8.716
  663W        W 4407   5.231   5.781   9.092
  664W        W 4408   7.623   5.690   2.119
  665W        W 4409   4.837   2.685  11.257
  666W        W 4410   9.086   2.364   1.352
  667W        W 4411   5.634   5.590   1.088
  668W        W 4412   5.912   8.640   1.494
  669W        W 4413   4.062   3.286   2.300
  670W        W 4414   6.123   0.310   2.489
  671W        W 4415   9.478   9.416   8.920
  672W        W 4416   3.835   0.055   1.686
  673W        W 4417   5.005   3.215   3.628
  674W        W 4418  10.052   3.638   1.731
  675W        W 4419   1.217   4.211   1.955
  676W        W 4420   0.502   3.356   3.420
  677W        W 4421   8.071   8.617  11.012
  678W        W 4422   6.522   3.602  11.726
  679W        W 4423   5.360  10.372   2.950
  680W        W 4424   5.114   6.029   1.378
  681W        W 4425   8.011   1.731   0.842
  682W        W 4426   0.826   0.955  11.799
  683W        W 4427   9.826   6.979   0.964
  684W        W 4428   1.946   3.650  11.922
  685W        W 4429   6.551   0.545   2.224
  686W        W 4430   0.322   2.076   1.866
  687W        W 4431   0.356   3.954  10.544
  688W        W 4432   6.228   4.687   0.519
  689W        W 4433   9.622   0.588   0.086
  690W        W 4434   0.517   4.726   1.976
  691W        W 4435   9.969   2.301   1.702
  692W        W 4436  10.225   7.796   9.741
  693W        W 4437   6.742   7.265   2.214
  694W        W 4438   0.797   8.563   2.231
  695W        W 4439   2.345   1.564   9.987
  696W        W 4440   8.636   6.522   1.893
  697W        W 4441   4.689   0.332   3.525
  698W        W 4442   1.930  10.356   3.394
  699W        W 4443   0.268   4.803  11.138
  700W        W 4444   7.190   1.881   8.589
  701W        W 4445   2.005   3.955   9.340
  702W        W 4446   3.724   7.630   2.598
  703W        W 4447   8.931   3.121   0.565
  704W        W 4448   7.786   3.135   3.131
  705W        W 4449   3.783   0.122   3.537
  706W        W 4450   7.977   8.352   3.077
  707W        W 4451   4.746   0.346   0.029
  708W        W 4452   5.182   6.028   1.931
  709W        W 4453   8.503   9.497   2.662
  710W        W 4454   1.269   5.680   8.554
  711W        W 4455   5.611   3.426   8.987
  712W        W 4456   7.901   5.279   9.093
  713W        W 4457   1.002   8.109   9.491
  714W        W 4458   2.301   7.015   8.923
  715W        W 4459   6.998  10.464   8.534
  716W        W 4460   7.131   7.387   1.865
  717W        W 4461   1.673  10.310   2.411
  718W        W 4462   3.244   0.365   0.810
  719W        W 4463   5.159   7.878  10.837
  720W        W 4464   7.111   4.218  10.930
  721W        W 4465   8.408   8.837   9.282
  722W        W 4466   5.674   8.927   2.184
  723W        W 4467   9.776   6.961   9.099
  724W        W 4468   5.108   7.165   0.481
  725W        W 4469   5.518   5.134   2.626
  726W        W 4470   6.455   7.446   0.347
  727W        W 4471   8.195   4.875   8.503
  728W        W 4472   6.421   7.508  11.253
  729W        W 4473   7.725   0.559   9.982
  730W        W 4474   1.434   1.438   1.741
  731W        W 4475   0.313   7.871   2.311
  732W        W 4476   1.544   8.398   1.699
  733W        W 4477   6.037   4.231  11.464
  734W        W 4478   0.098   4.705   0.419
  735W        W 4479   3.646   9.947  10.004
  736W        W 4480   9.549   5.276  10.969
  737W        W 4481   9.738   0.127   9.988
  738W        W 4482   3.785   1.866   0.408
  739W        W 4483   1.262   3.800   0.034
  740W        W 4484   0.381   5.792  11.040
  741W        W 4485   9.917   2.567   3.440
  742W        W 4486   1.109   7.831   3.242
  743W        W 4487   5.661   1.818   0.026
  744W        W 4488   2.104   9.279   8.911
  745W        W 4489   7.565   6.654   1.106
  746W        W 4490   5.603   9.550   8.829
  747W        W 4491   5.686   2.199   2.909
  748W        W 4492  10.057   3.525  10.730
  749W        W 4493   7.480   9.824   8.858
  750W        W 4494   1.731   7.600  11.816
  751W        W 4495   1.464   0.071  11.301
  752W        W 4496   4.320   6.649   1.584
  753W        W 4497   9.976   8.806   9.998
  754W        W 4498   0.612  10.480  10.779
  755W        W 4499   4.167  10.088   2.376
  756W        W 4500   5.352  10.062   9.521
  757W        W 4501   4.490   1.304   8.731
  758W        W 4502   0.440   0.824  11.007
  759W        W 4503   9.392   9.878   9.487
  760W        W 4504   2.079   3.154   0.031
  761W        W 4505   9.030   2.716  11.251
  762W        W 4506   7.270   7.922   9.127
  763W        W 4507   3.282   7.918   2.294
  764W        W 4508   1.352   1.967  10.755
  765W        W 4509   6.982   2.622   1.853
  766W        W 4510   8.969   3.120   0.061
  767W        W 4511   2.594  10.483   8.978
  768W        W 4512   2.147   8.943  11.811
  769W        W 4513   6.567   4.068   1.001
  770W        W 4514   9.892   9.977   9.284
  771W        W 4515   3.083   6.247   3.706
  772W        W 4516   1.706  10.371   1.298
  773W        W 4517   2.318   9.452   2.778
  774W        W 4518   9.610   8.435   0.299
  775W        W 4519   3.347   1.933  10.367
  776W        W 4520   1.298   0.620   1.210
  777W        W 4521   7.417   8.149  10.090
  778W        W 4522   2.735   6.424  10.984
  779W        W 4523   3.790   4.758   0.572
  780W        W 4524   7.714   5.770   1.319
  781W        W 4525   6.180   7.080  11.444
  782W        W 4526   0.360   2.265   1.392
  783W        W 4527   6.143   5.483   0.993
  784W        W 4528   5.546   6.049  10.237
  785W        W 4529   5.077   3.329   2.211
  786W        W 4530   0.806   6.174  11.427
  787W        W 4531   5.775   1.246  10.241
  788W        W 4532   6.333   9.521   3.253
  789W        W 4533   5.611   6.736   2.787
  790W        W 4534   0.238   2.361   8.634
  791W        W 4535   4.293   3.069   1.873
  792W        W 4536   6.643   0.329   1.353
  793W        W 4537   2.679   5.603   9.004
  794W        W 4538   0.135   9.467   3.257
  795W        W 4539   3.236   0.806   1.681
  796W        W 4540   0.255   6.600  10.560
  797W        W 4541   3.111   4.281   2.783
  798W        W 4542   4.276   9.351   8.891
  799W        W 4543   1.234   1.841   2.997
  800W        W 4544   3.016   4.293   8.578
  801W        W 4545   8.270   1.068  10.981
  802W        W 4546   7.261   2.828   0.026
  803W        W 4547   5.242   6.484   1.154
  804W        W 4548   7.222   4.214   8.560
  805W        W 4549  10.022   3.991  10.916
  806W        W 4550   4.783   0.347  11.522
  807W        W 4551   4.150   2.766   9.601
  808W        W 4552   8.953   0.189   8.611
  809W        W 4553   6.790   5.356   1.300
  810W        W 4554   9.336   4.085   1.394
  811W        W 4555   8.957   7.910   1.801
  812W        W 4556   6.982   7.569  10.372
  813W        W 4557   0.945   0.834  10.226
  814W        W 4558   3.703   4.010   3.743
  815W        W 4559   4.671   9.348  10.954
  816W        W 4560   7.534   7.331   3.623
  817W        W 4561  10.234   9.480  10.478
  818W        W 4562   6.949   3.680   9.538
  819W        W 4563  10.226   7.458  10.566
  820W        W 4564   5.617   2.240  11.191
  821W        W 4565   1.017   1.428   8.988
  822W        W 4566   0.127   5.563   9.519
  823W        W 4567   5.181   0.983   3.490
  824W        W 4568   3.609   4.245   1.817
  825W        W 4569   3.743   7.817   2.096
  826W        W 4570   7.121   1.194   0.787
  827W        W 4571   5.982   8.366  11.497
  828W        W 4572   2.619   6.997   3.075
  829W        W 4573   6.704   1.494   2.227
  830W        W 4574   8.061   2.885  11.222
  831W        W 4575   4.499   1.642   0.904
  832W        W 4576   8.513   9.492  10.557
  833W        W 4577   2.662   2.664   9.440
  834W        W 4578   7.886  10.181  10.081
  835W        W 4579   2.530   0.570   3.232
  836W        W 4580   7.431   5.572   8.578
  837W        W 4581   7.941   6.547  11.174
  838W        W 4582   6.020   3.289   0.930
  839W        W 4583   5.625   6.746   1.927
  840W        W 4584   9.215   1.078   2.090
  841W        W 4585   7.113   4.723   0.242
  842W        W 4586   4.860   6.190   0.349
  843W        W 4587   1.086   9.684  11.308
  844W        W 4588   0.787   9.849   2.459
  845W        W 4589   4.786   4.718   0.444
  846W        W 4590   4.734   3.676   9.496
  847W        W 4591   2.229   7.378  11.762
  848W        W 4592   6.205   4.228  11.945
  849W        W 4593   9.827  10.005   3.264
  850W        W 4594   6.565   8.351  10.363
  851W        W 4595   2.886   2.666  10.311
  852W        W 4596   7.851   4.622   8.194
  853W        W 4597   3.344   5.748   2.818
  854W        W 4598   1.801   1.736   2.362
  855W        W 4599   3.081   6.459   2.261
  856W        W 4600   4.071   8.624  11.432
  857W        W 4601   3.342   8.493   1.443
  858W        W 4602   2.147   2.427   2.261
  859W        W 4603   7.745   2.479   9.988
  860W        W 4604   2.248   3.808   3.185
  861W        W 4605   6.677   7.097  11.404
  862W        W 4606   0.587   8.638   3.523
  863W        W 4607   2.744   5.978   0.046
  864W        W 4608   6.688   4.789   2.418
  865W        W 4609   1.313   7.262  11.649
  866W        W 4610   8.923   7.481  10.876
  867W        W 4611   1.116   9.149   3.066
  868W        W 4612   3.654   2.754  10.038
  869W        W 4613   8.059   6.452  10.686
  870W        W 4614   6.451   3.238   0.550
  871W        W 4615   8.667   3.585   2.057
  872W        W 4616   9.529   6.626   1.188
  873W        W 4617   4.159   9.825  10.950
  874W        W 4618   1.459   0.577   2.303
  875W        W 4619   7.881   3.285  10.483
  876W        W 4620   0.324   3.193   9.126
  877W        W 4621   1.746   5.080   3.252
  878W        W 4622   4.125   0.362  10.743
  879W        W 4623   2.571   6.513   2.137
  880W        W 4624   0.538   0.919   9.906
  881W        W 4625   7.510   9.968   1.019
  882W        W 4626   2.056   1.023  11.783
  883W        W 4627   7.429   4.968   9.784
  884W        W 4628   8.465   4.655  10.786
  885W        W 4629  10.050   0.912  10.607
  886W        W 4630   9.643   6.630   2.205
  887W        W 4631   9.382   6.121  10.773
  888W        W 4632   4.995   2.603   8.982
  889W        W 4633   8.485   4.588   8.835
  890W        W 4634   4.675   2.203  11.456
  891W        W 4635  10.220   7.960   1.438
  892W        W 4636   9.108   2.842   0.981
  893W        W 4637   6.570   5.129   0.879
  894W        W 4638   8.184   3.618   8.932
  895W        W 4639  10.419   3.289   9.429
  896W        W 4640   0.669   9.749  10.463
  897W        W 4641   0.871   0.913   1.187
  898W        W 4642   8.121   4.783  11.216
  899W        W 4643   9.352   9.415  10.434
  900W        W 4644   0.478   7.575   0.832
  901W        W 4645   3.998   7.685   1.288
  902W        W 4646   3.592  10.039   0.499
  903W        W 4647   4.745   1.716   8.924
  904W        W 4648   5.621   9.395  11.747
  905W        W 4649   4.263   3.646   0.667
  906W        W 4650   7.511   7.659  10.317
  907W        W 4651   0.817   8.023   2.384
  908W        W 4652   2.535   1.173  11.467
  909W        W 4653   0.950   9.172   1.881
  910W        W 4654   0.838   3.050   2.349
  911W        W 4655   7.978   9.330   3.161
  912W        W 4656   7.599   1.001   3.268
  913W        W 4657   8.425   0.444   0.644
  914W        W 4658   8.406   1.978  11.952
  915W        W 4659   6.971   1.482   0.410
  916W        W 4660   6.540   2.732   3.306
  917W        W 4661   2.248   9.345  11.268
  918W        W 4662   8.108   1.385   9.146
  919W        W 4663   1.812   7.200   8.883
  920W        W 4664   2.173   4.101  10.722
  921W        W 4665   6.514   0.727   0.404
  922W        W 4666   9.889   2.716  11.133
  923W        W 4667   6.400   6.817  10.555
  924W        W 4668   0.932   8.759  10.351
  925W        W 4669   3.544   0.919   1.285
  926W        W 4670   3.316   6.802   0.210
  927W        W 4671  10.018   7.347  11.874
  928W        W 4672   8.871   4.224  10.493
  929W        W 4673   7.030   6.963   9.974
  930W        W 4674   1.523   8.131  11.891
  931W        W 4675   9.078   9.472  11.841
  932W        W 4676   0.593   9.137  11.126
  933W        W 4677   5.495   6.664   4.074
  934W        W 4678   8.370  10.165   8.332
  935W        W 4679   0.580   4.826   0.538
  936W        W 4680   9.384   6.176   8.794
  937W        W 4681   6.608   3.772   1.422
  938W        W 4682   9.401   6.425  10.320
  939W        W 4683   4.353  10.348   2.917
  940W        W 4684   3.891   7.320   2.204
  941W        W 4685   8.392   0.739  11.353
  942W        W 4686   4.565   5.773  11.892
  943W        W 4687   8.719   9.321   2.173
  944W        W 4688   3.693   6.075   1.259
  945W        W 4689   8.332   9.437   0.871
  946W        W 4690   5.188   5.245   9.556
  947W        W 4691   7.896   4.038   1.127
  948W        W 4692   1.839   1.595   0.535
  949W        W 4693   5.069   5.176   0.800
  950W        W 4694   1.743   4.133   3.173
  951W        W 4695   3.244   8.376   9.531
  952W        W 4696   9.928   3.143   9.220
  953W        W 4697   6.089   2.468  10.358
  954W        W 4698   1.896   9.402  10.827
  955W        W 4699   5.595   6.487   2.354
  956W        W 4700   2.606   9.966   9.127
  957W        W 4701   0.990   9.038   2.391
  958W        W 4702   3.819   9.395  11.780
  959W        W 4703   2.756   7.985   3.265
  960W        W 4704   4.564   4.053   8.913
  961W        W 4705   3.666   7.567   3.458
  962W        W 4706   2.391   0.298  11.817
  963W        W 4707   5.655   8.037  11.296
  964W        W 4708   1.430   5.637   2.475
  965W        W 4709   5.248   0.951  11.359
  966W        W 4710   7.580   6.987   8.682
  967W        W 4711   2.905   3.183   8.922
  968W        W 4712   2.614   8.972   9.987
  969W        W 4713   5.658   7.579   8.858
  970W        W 4714   4.087   2.221   8.888
  971W        W 4715   5.977   6.795   9.500
  972W        W 4716   9.841  10.275  11.439
  973W        W 4717   4.240   0.346   2.783
  974W        W 4718   7.449   1.080   2.803
  975W        W 4719   4.318   8.620   2.729
  976W        W 4720   1.834   5.071   9.965
  977W        W 4721   8.880   4.525   2.013
  978W        W 4722   3.202   6.111   9.640
  979W        W 4723   9.024   0.841  11.424
  980W        W 4724   5.541   1.675  10.520
  981W        W 4725   2.809   8.091   1.769
  982W        W 4726   6.650   8.131   2.780
  983W        W 4727   6.650  10.023   1.021
  984W        W 4728   6.700   4.454   0.636
  985W        W 4729   4.826   9.755   0.838
  986W        W 4730  10.430   1.395   0.844
  987W        W 4731  10.312   4.703  11.420
  988W        W 4732   3.536   5.278   9.422
  989W        W 4733   5.466   4.326   1.670
  990W        W 4734   0.174   0.124   1.839
  991W        W 4735   0.811   6.970   3.599
  992W        W 4736   4.558   2.669   2.763
  993W        W 4737   1.164   6.067  10.847
  994W        W 4738   9.100   9.731   2.178
  995W        W 4739   8.817   9.873  11.535
  996W        W 4740   6.872   8.332   2.325
  997W        W 4741   0.206   9.198   2.409
  998W        W 4742   8.966   0.077  10.490
  999W        W 4743  10.290   3.250  11.360
 1000W        W 4744   2.378   2.058   2.016
 1001W        W 4745   7.823   3.294   1.123
 1002W        W 4746   0.784   0.519  11.564
 1003W        W 4747   4.936   4.471   2.989
 1004W        W 4748   2.299   7.835   0.353
 1005W        W 4749   9.877   9.233   2.612
 1006W        W 4750   4.045   3.956   9.147
 1007W        W 4751   5.351   7.885   2.651
 1008W        W 4752   6.609   5.729  11.720
 1009W        W 4753   5.942   2.244  10.777
 1010W        W 4754   5.692   8.562   0.720
 1011W        W 4755  10.300  10.013  11.771
 1012W        W 4756   1.675   9.073   9.118
 1013W        W 4757   2.658   2.770   3.526
 1014W        W 4758   7.456   1.334   1.693
 1015W        W 4759   1.148   1.849   1.610
 1016W        W 4760   3.142   6.121  11.780
 1017W        W 4761   7.938   9.129   0.783
 1018W        W 4762   3.546   7.677   1.643
 1019W        W 4763   3.665   4.697   8.223
 1020W        W 4764   7.086   4.740  10.391
 1021W        W 4765   9.410   3.735  10.148
 1022W        W 4766   8.571   5.670   3.069
 1023W        W 4767   4.020   4.432   1.543
 1024W        W 4768   9.138   3.583  11.334
 1025W        W 4769   9.546   6.364   0.177
 1026W        W 4770   2.536   2.633   3.047
 1027W        W 4771   9.331   7.833  11.501
 1028W        W 4772   8.339  10.196   0.185
 1029W        W 4773   5.538  10.479   8.867
 1030W        W 4774   5.819   9.855   9.581
 1031W        W 4775   1.334   0.767   9.522
 1032W        W 4776   1.232   5.103   3.021
 1033W        W 4777   5.667  10.386   1.990
 1034W        W 4778   5.765   0.650   1.295
 1035W        W 4779   1.794   8.574   3.143
 1036W        W 4780   1.287   0.768   3.528
 1037W        W 4781  10.446   1.766  10.110
 1038W        W 4782   2.387   3.719  11.064
 1039W        W 4783   8.875   5.726   2.666
 1040W        W 4784   8.093   9.271   9.817
 1041W        W 4785   5.220   3.540   1.713
 1042W        W 4786   1.877   8.454  10.145
 1043W        W 4787   5.603   3.677  11.958
 1044W        W 4788   8.324   3.320  10.804
 1045W        W 4789   6.613   8.517   9.844
 1046W        W 4790   2.801   0.394   9.772
 1047W        W 4791   7.548   0.282   2.270
 1048W        W 4792  10.198   5.110   3.266
 1049W        W 4793   1.267   5.949   3.337
 1050W        W 4794   4.582   1.885  11.052
 1051W        W 4795   4.310   3.340  11.254
 1052W        W 4796   8.293  10.285   8.817
 1053W        W 4797   9.749   4.041   1.691
 1054W        W 4798  10.164   5.983   9.032
 1055W        W 4799   2.566   4.500   8.764
 1056W        W 4800   6.651   7.507   1.745
 1057W        W 4801   5.788   6.203  11.518
 1058W        W 4802   6.864   5.174   9.539
 1059W        W 4803   0.926   3.572  10.812
 1060W        W 4804   4.066   0.203  11.234
 1061W        W 4805  10.005   3.239   9.736
 1062W        W 4806   0.798   7.974   2.899
 1063W        W 4807   1.357   9.991  10.615
 1064W        W 4808   0.598   0.592   9.128
 1065W        W 4809   7.089   1.059   8.947
 1066W        W 4810   0.791   2.591   3.098
 1067W        W 4811   8.703   7.302  11.843
 1068W        W 4812   7.152   3.381   8.937
 1069W        W 4813   4.413   0.011   2.438
 1070W        W 4814   7.845   5.174  11.424
 1071W        W 4815   9.544   7.123  11.003
 1072W        W 4816   4.152  10.081  10.027
 1073W        W 4817   6.998   6.095   9.621
 1074W        W 4818   0.147   7.507   9.628
 1075W        W 4819   7.106   4.617   4.259
 1076W        W 4820   7.466   0.872  10.889
 1077W        W 4821   5.252   8.307   0.486
 1078W        W 4822   4.690   9.277   0.952
 1079W        W 4823   9.255   1.603   1.979
 1080W        W 4824   5.128   8.989   1.951
 1081W        W 4825   3.626   8.580   8.937
 1082W        W 4826   6.937   0.174  11.831
 1083W        W 4827   9.913   1.857   1.448
 1084W        W 4828   7.570   5.396  10.995
 1085W        W 4829   8.659   6.831   1.471
 1086W        W 4830   5.779   4.643   1.371
 1087W        W 4831   5.115  10.411   1.512
 1088W        W 4832   8.344   6.205   2.162
 1089W        W 4833   6.153   3.688   1.694
 1090W        W 4834  10.389   1.283   2.729
 1091W        W 4835   3.561   2.736   1.840
 1092W        W 4836   5.249   9.004  11.451
 1093W        W 4837   1.783   7.177   9.834
 1094W        W 4838   9.880   7.064   3.001
 1095W        W 4839   3.670   9.608   0.223
 1096W        W 4840   6.861   2.226  10.684
 1097W        W 4841   9.419   1.207   9.984
 1098W        W 4842   5.343   0.415  10.596
 1099W        W 4843   3.277  10.181  10.865
 1100W        W 4844   8.139   8.387   0.300
 1101W        W 4845   6.492   3.350   2.777
 1102W        W 4846   4.630   7.877   2.320
 1103W        W 4847   2.246   8.352   1.353
 1104W        W 4848   6.099   9.680  10.463
 1105W        W 4849   6.091   1.030   0.190
 1106W        W 4850   3.290   0.507   2.809
 1107W        W 4851   3.916   4.646   2.728
 1108W        W 4852   2.837   3.518  11.803
 1109W        W 4853   5.280   1.343  10.996
 1110W        W 4854   2.939   4.589   9.632
 1111W        W 4855   6.321   1.460  10.528
 1112W        W 4856   3.183   4.637  11.607
 1113W        W 4857   6.556  10.221   0.548
 1114W        W 4858   9.865   1.389  10.695
 1115W        W 4859   0.137   8.317   0.355
 1116W        W 4860   3.389   3.678  10.467
 1117W        W 4861   0.167   6.205   9.875
 1118W        W 4862   4.943   5.639  10.269
 1119W        W 4863   6.155   6.492   1.220
 1120W        W 4864   5.630   3.132  11.138
 1121W        W 4865   4.690   9.113   9.149
 1122W        W 4866   9.540   9.576   0.033
 1123W        W 4867   5.013   4.517   1.905
 1124W        W 4868   1.740   6.025   9.911
 1125W        W 4869   2.181   9.484   9.851
 1126W        W 4870   0.375   2.733   1.184
 1127W        W 4871   2.920   5.960   0.520
 1128W        W 4872   2.224   0.942  10.548
 1129W        W 4873   0.211   1.678  11.073
 1130W        W 4874   3.527   1.697  11.999
 1131W        W 4875   9.962   6.172   1.379
 1132W        W 4876   8.063   7.188   8.533
 1133W        W 4877   5.971   7.496   1.504
 1134W        W 4878   3.692   3.515   1.470
 1135W        W 4879   8.484   5.929   9.589
 1136W        W 4880   1.025   5.958   9.520
 1137W        W 4881   2.823   8.873   2.186
 1138W        W 4882   4.800   3.148   2.695
 1139W        W 4883   9.903   6.027   0.007
 1140W        W 4884   4.987   4.203   8.679
 1141W        W 4885  10.386   7.221   0.219
 1142W        W 4886   9.564   7.067  11.931
 1143W        W 4887   7.577   5.781  11.920
 1144W        W 4888   3.710   1.424   9.353
 1145W        W 4889   0.795   7.008  10.588
 1146W        W 4890   9.191   1.736  10.814
 1147W        W 4891   8.946   3.312   1.093
 1148W        W 4892  10.314   0.468   0.685
 1149W        W 4893   0.292   7.017  10.237
 1150W        W 4894   8.412   5.060   9.595
 1151W        W 4895   0.345   2.822   3.244
 1152W        W 4896   4.418   9.553  10.124
 1153W        W 4897   7.882  10.233   9.563
 1154W        W 4898   2.681   5.655   1.726
 1155W        W 4899   7.185   7.007   0.194
 1156W        W 4900   5.427   7.306   3.714
 1157W        W 4901   8.382  10.472  11.744
 1158W        W 4902   6.468   1.388   9.615
 1159W        W 4903   1.760   4.288   0.628
 1160W        W 4904   9.863   8.905  11.578
 1161W        W 4905   3.511   7.549   1.155
 1162W        W 4906   1.660   3.130   2.968
 1163W        W 4907   6.971   6.051   0.949
 1164W        W 4908   0.504   2.080   0.927
 1165W        W 4909   7.167   9.320   3.338
 1166W        W 4910   2.694   1.932   9.924
 1167W        W 4911   3.717   8.857   0.893
 1168W        W 4912   1.359   0.869  10.539
 1169W        W 4913   9.978   5.707  10.304
 1170W        W 4914   8.740  10.093  10.496
 1171W        W 4915   3.123   9.802  11.361
 1172W        W 4916   1.830   5.731  11.221
 1173W        W 4917   0.854   1.367   3.380
 1174W        W 4918   9.537   7.058   3.446
 1175W        W 4919  10.353   9.843   1.660
 1176W        W 4920   5.756   7.015   2.361
 1177W        W 4921   7.409   5.667   9.091
 1178W        W 4922   2.855   4.810   2.802
 1179W        W 4923   9.532   3.500   3.339
 1180W        W 4924   9.560   4.508   0.420
 1181W        W 4925   5.681   1.321   8.691
 1182W        W 4926   7.050   3.972   2.403
 1183W        W 4927   5.637   3.741   1.981
 1184W        W 4928   7.690   3.830  11.856
 1185W        W 4929   7.169   2.652  10.628
 1186W        W 4930  10.429   4.357   0.754
 1187W        W 4931   7.195   1.278  11.868
 1188W        W 4932   2.924   2.913   8.417
 1189W        W 4933   5.564   2.211   8.759
 1190W        W 4934   8.178   1.884   2.816
 1191W        W 4935   3.333   0.517   2.291
 1192W        W 4936   7.936   7.378   2.720
 1193W        W 4937   0.280   1.358   9.811
 1194W        W 4938   2.401   1.860   8.632
 1195W        W 4939   0.664   8.921   0.914
 1196W        W 4940   6.150   6.002   1.027
 1197W        W 4941   9.080   3.757  10.532
 1198W        W 4942   4.281   1.188   0.903
 1199W        W 4943   2.693   3.746   0.614
 1200W        W 4944   7.890   5.109   0.208
 1201W        W 4945   7.857   8.275  11.340
 1202W        W 4946   7.928   6.608  11.678
 1203W        W 4947   1.182   7.359   3.028
 1204W        W 4948   1.431   6.472  11.014
 1205W        W 4949   7.574   7.905  11.069
 1206W        W 4950   1.642   2.704   3.244
 1207W        W 4951   6.055   1.964   0.751
 1208W        W 4952   2.138   8.579   2.310
 1209W        W 4953   6.889   7.896   9.972
 1210W        W 4954   1.375   5.565   9.407
 1211W        W 4955   1.887   5.918  10.400
 1212W        W 4956   1.853   7.646   8.603
 1213W        W 4957   7.198   1.487  11.330
 1214W        W 4958   2.286   3.792   8.890
 1215W        W 4959  10.023   3.812  10.287
 1216W        W 4960   0.033   9.330   1.388
 1217W        W 4961   9.840   5.504   9.835
 1218W        W 4962   7.774   9.243   8.522
 1219W        W 4963   3.160   2.767   9.360
 1220W        W 4964   7.299   4.417   0.598
 1221W        W 4965   2.957   7.572   8.646
 1222W        W 4966   4.022   7.958   3.375
 1223W        W 4967   3.535   3.165   3.273
 1224W        W 4968   8.185   4.688   0.165
 1225W        W 4969   5.561   1.656   2.505
 1226W        W 4970   3.209   4.092  10.838
 1227W        W 4971   9.518   0.702  11.599
 1228W        W 4972   5.654   8.462   0.218
 1229W        W 4973   2.176   7.335  11.254
 1230W        W 4974   4.579   5.025  10.800
 1231W        W 4975   3.773   1.335  10.363
 1232W        W 4976   2.321   8.381   8.918
 1233W        W 4977   8.930   0.055   1.871
 1234W        W 4978   6.021   5.805   9.575
 1235W        W 4979   0.697   9.688   3.503
 1236W        W 4980   5.724   9.580   2.989
 1237W        W 4981   9.429   1.738   1.503
 1238W        W 4982   3.504   1.690   0.776
 1239W        W 4983   7.005   0.282   9.558
 1240W        W 4984   9.460   0.973   0.900
 1241W        W 4985   9.361   9.624   2.963
 1242W        W 4986   9.313   5.093   9.208
 1243W        W 4987   1.498   7.754   2.923
 1244W        W 4988   2.147   5.797   2.324
 1245W        W 4989   6.180   6.465   3.900
 1246W        W 4990   5.266   3.790   2.335
 1247W        W 4991   0.523   8.288   9.484
 1248W        W 4992   6.217   2.715  10.781
 1249W        W 4993   4.944   3.724   7.843
 1250W        W 4994   4.273   3.895  10.326
 1251W        W 4995   7.389   6.780   3.648
 1252W        W 4996   5.397   7.093  10.560
 1253W        W 4997   5.978   8.391   9.531
 1254W        W 4998   7.198   7.311   0.673
 1255W        W 4999   5.107   0.746   2.162
 1256W        W 5000   4.753   2.704  10.753
 1257W        W 5001   3.382   2.802   0.273
 1258W        W 5002   7.922   0.838   8.806
 1259W        W 5003   5.993   3.908  10.201
 1260W        W 5004   2.193   5.779   8.973
 1261W        W 5005   2.790   4.704   1.934
 1262W        W 5006   9.726   7.151   1.455
 1263W        W 5007   8.598   3.358   3.393
 1264W        W 5008   5.021   8.003   9.791
 1265W        W 5009   1.698   4.682   9.676
 1266W        W 5010   9.102   8.196   9.211
 1267W        W 5011   7.514   5.208   3.600
 1268W        W 5012   6.510   7.345   2.754
 1269W        W 5013   4.560   8.128  10.031
 1270W        W 5014   4.515   9.674   8.549
 1271W        W 5015   7.842  10.401  11.974
 1272W        W 5016   4.084   1.405   0.407
 1273W        W 5017   1.312   6.476   0.333
 1274W        W 5018   8.103   8.909   0.329
 1275W        W 5019   0.118   6.825   8.698
 1276W        W 5020   4.611   5.025   2.680
 1277W        W 5021   9.356   2.439   9.976
 1278W        W 5022  10.124   0.466   9.908
 1279W        W 5023   1.825   1.656  10.052
 1280W        W 5024   1.266   2.153   1.175
 1281W        W 5025   7.958   8.832   3.311
 1282W        W 5026  10.262   6.458   9.674
 1283W        W 5027   0.471   3.460  10.597
 1284W        W 5028   7.049   5.388   0.773
 1285W        W 5029   5.566   9.416   1.443
 1286W        W 5030   3.533   8.337   3.260
 1287W        W 5031   7.470   5.031   0.476
 1288W        W 5032   7.212   9.306   1.929
 1289W        W 5033   9.097   1.342   0.244
 1290W        W 5034   2.863   4.032   3.264
 1291W        W 5035   9.778   0.463   1.824
 1292W        W 5036   1.826   5.570   0.246
 1293W        W 5037   3.113  10.491   9.616
 1294W        W 5038   1.846  10.323  11.528
 1295W        W 5039  10.220   1.901   1.985
 1296W        W 5040   6.887   7.581   1.225
 1297W        W 5041   6.482   3.537  10.746
 1298W        W 5042   8.744  10.426   9.485
 1299W        W 5043   3.249   5.983   2.349
 1300W        W 5044   4.420   4.616   0.802
 1301W        W 5045  10.468   5.420   2.378
 1302W        W 5046   3.053   0.668   3.257
 1303W        W 5047   6.708   5.543  10.846
 1304W        W 5048   8.913   7.656   0.358
 1305W        W 5049   8.415   8.604   3.299
 1306W        W 5050   2.402   0.287   9.430
 1307W        W 5051   8.361   1.827   0.437
 1308W        W 5052   0.768   2.411   8.619
 1309W        W 5053   0.691   4.180   2.229
 1310W        W 5054   6.974   2.269   8.849
 1311W        W 5055   4.646   7.052   1.654
 1312W        W 5056   0.391   6.418  11.889
 1313W        W 5057   3.181   7.648   3.240
 1314W        W 5058   4.171   7.873   9.794
 1315W        W 5059   2.529   9.573   8.794
 1316W        W 5060   7.667   6.525   1.564
 1317W        W 5061   6.838   2.316  11.744
 1318W        W 5062   1.170   7.581  11.264
 1319W        W 5063   4.571   9.960   2.665
 1320W        W 5064   7.957   6.020   4.167
 1321W        W 5065   4.845   1.315  11.251
 1322W        W 5066   6.544   5.852   2.724
 1323W        W 5067   9.921   7.506   1.836
 1324W        W 5068   6.494   0.959   9.321
 1325W        W 5069   2.393   1.470   9.021
 1326W        W 5070   4.738   6.530   1.848
 1327W        W 5071   4.626   6.155  10.370
 1328W        W 5072   6.993   9.456   1.464
 1329W        W 5073   4.149   4.707   9.962
 1330W        W 5074   2.695   3.258  10.876
 1331W        W 5075   4.188   0.321   1.261
 1332W        W 5076   7.689   8.306   0.527
 1333W        W 5077   9.372   0.217   9.542
 1334W        W 5078   2.822   1.441   9.831
 1335W        W 5079   3.256   4.054  11.347
 1336W        W 5080   7.425   9.764   0.501
 1337W        W 5081   1.205   6.495   1.776
 1338W        W 5082  10.376   0.168   1.142
 1339W        W 5083   8.831   3.173   9.525
 1340W        W 5084   6.084   7.365   3.075
 1341W        W 5085   5.064   7.421  10.060
 1342W        W 5086   7.702   7.344   9.941
 1343W        W 5087   3.815   2.229   1.767
 1344W        W 5088   2.596   3.117  11.993
 1345W        W 5089   3.962   2.629   8.585
 1346W        W 5090   7.854   7.033   9.529
 1347W        W 5091   3.928   3.661  11.069
 1348W        W 5092   6.075   0.362   0.896
 1349W        W 5093   2.198   4.336   8.442
 1350W        W 5094   6.222   0.043  10.852
 1351W        W 5095   7.533   2.934   2.295
 1352W        W 5096   5.553   4.363  11.408
 1353W        W 5097   8.257   5.766   3.844
 1354W        W 5098   9.014   7.714   9.364
 1355W        W 5099   4.743   7.240   9.496
 1356W        W 5100   7.939   1.151   1.898
 1357W        W 5101   7.853   8.352   9.836
 1358W        W 5102   3.689   1.391   1.441
 1359W        W 5103   7.433   7.442  11.269
 1360W        W 5104   6.578   6.859   2.706
 1361W        W 5105   8.484   4.596   3.094
 1362W        W 5106   7.936   5.105   8.072
 1363W        W 5107   4.580  10.360  10.076
 1364W        W 5108   5.764   4.637   2.932
 1365W        W 5109   9.694  10.418   1.240
 1366W        W 5110  10.081   0.509  11.823
 1367W        W 5111   5.109   6.155  11.048
 1368W        W 5112   2.326   6.180   3.788
 1369W        W 5113   1.937   1.138   8.804
 1370W        W 5114   1.800   3.205  10.992
 1371W        W 5115   4.110   2.370   0.447
 1372W        W 5116   9.422   0.389   8.592
 1373W        W 5117   2.899   4.016   2.374
 1374W        W 5118   8.955   2.720  10.746
 1375W        W 5119   4.478   6.777  11.821
 1376W        W 5120   0.156   9.329  11.281
 1377W        W 5121  10.266   6.333   2.514
 1378W        W 5122   5.858   7.689   1.969
 1379W        W 5123   2.702   9.862   3.284
 1380W        W 5124   8.406   4.177   9.559
 1381W        W 5125   5.723   8.315   1.162
 1382W        W 5126   4.713   3.214   9.703
 1383W        W 5127   2.621   1.216  10.274
 1384W        W 5128   7.794  10.330   1.248
 1385W        W 5129   8.284   0.218   0.188
 1386W        W 5130   7.078   8.823   3.314
 1387W        W 5131   7.850   9.378   2.648
 1388W        W 5132   2.305   9.837   1.441
 1389W        W 5133   5.991   2.970  10.351
 1390W        W 5134   7.254   7.861   1.713
 1391W        W 5135   1.717   2.658   9.513
 1392W        W 5136   5.434   0.839  10.899
 1393W        W 5137   9.817   0.659   3.263
 1394W        W 5138   1.262   0.529  11.390
 1395W        W 5139   8.553   1.775   1.367
 1396W        W 5140   2.453   2.213   9.566
 1397W        W 5141   1.944   3.310   1.516
 1398W        W 5142   5.697   8.227   2.735
 1399W        W 5143   1.001   2.331   9.577
 1400W        W 5144   0.705   2.910  11.420
 1401W        W 5145   7.685   1.977  10.261
 1402W        W 5146   5.448   0.804   3.060
 1403W        W 5147   3.936   5.651  10.229
 1404W        W 5148   2.914   4.583  10.963
 1405W        W 5149   8.953   6.208   2.793
 1406W        W 5150   5.559   2.048   0.972
 1407W        W 5151   1.614   8.042  10.050
 1408W        W 5152   2.796   6.996   3.560
 1409W        W 5153   7.555   1.359   3.613
 1410W        W 5154   2.792   3.745   1.948
 1411W        W 5155  10.352   3.081   8.945
 1412W        W 5156   9.121   6.681   2.661
 1413W        W 5157   1.201   3.330   0.245
 1414W        W 5158   5.534   0.911   8.418
 1415W        W 5159   3.570   3.227  10.690
 1416W        W 5160   1.444   2.258   9.332
 1417W        W 5161   0.414   6.928  10.927
 1418W        W 5162   2.132   7.705   1.205
 1419W        W 5163   1.335   4.319   8.993
 1420W        W 5164   2.604   2.701   0.821
 1421W        W 5165   9.126   5.569   9.260
 1422W        W 5166   0.296   4.128  11.954
 1423W        W 5167   2.424   0.843   1.919
 1424W        W 5168   2.397   6.116   9.794
 1425W        W 5169   5.005   3.790   9.048
 1426W        W 5170   8.908   5.298   0.452
 1427W        W 5171   6.208   5.492   0.088
 1428W        W 5172   1.476   5.072   1.899
 1429W        W 5173   0.236   0.557   0.969
 1430W        W 5174   6.163   8.392  10.056
 1431W        W 5175   0.311   0.406  11.356
 1432W        W 5176   9.487   4.142   0.075
 1433W        W 5177   7.967   8.740   1.690
 1434W        W 5178  10.247   8.420   3.170
 1435W        W 5179   4.808   4.575   1.447
 1436W        W 5180   0.817   0.286   0.433
 1437W        W 5181   8.901   9.818   3.168
 1438W        W 5182   1.042  10.413   0.162
 1439W        W 5183   8.002   4.618   2.390
 1440W        W 5184  10.300  10.030   8.969
 1441W        W 5185   8.818   5.529   9.706
 1442W        W 5186   8.837   9.048  11.996
 1443W        W 5187   4.769   1.239   0.733
 1444W        W 5188   7.959   6.494   2.658
 1445W        W 5189   5.435   2.146  10.730
 1446W        W 5190   4.217   5.855  10.641
 1447W        W 5191   2.228   2.199  11.129
 1448W        W 5192   5.215   4.236   3.625
 1449W        W 5193   3.732   5.896   2.190
 1450W        W 5194   1.730   9.618   9.048
 1451W        W 5195   5.296   0.058  10.993
 1452W        W 5196   6.183   9.893   2.945
 1453W        W 5197   2.163   6.542   1.826
 1454W        W 5198   8.188   5.790   8.458
 1455W        W 5199   1.662   4.605   0.243
 1456W        W 5200   7.637   3.264  11.936
 1457W        W 5201   2.849   5.763  10.382
 1458W        W 5202   6.586   6.614   3.148
 1459W        W 5203   6.814   2.067  10.194
 1460W        W 5204   5.745   3.754   2.498
 1461W        W 5205   5.176   1.756   0.826
 1462W        W 5206   3.804   3.550   9.374
 1463W        W 5207  10.204   6.037   0.936
 1464W        W 5208   4.245   1.421   9.586
 1465W        W 5209   2.994   0.915   2.368
 1466W        W 5210   3.555   0.151  11.274
 1467W        W 5211   4.600   0.297   9.824
 1468W        W 5212   1.718   3.134   2.475
 1469W        W 5213   1.017   8.295   0.479
 1470W        W 5214   3.532   6.717   8.686
 1471W        W 5215   2.267   5.474  11.987
 1472W        W 5216   6.430   5.230   2.568
 1473W        W 5217   2.226   0.248   3.498
 1474W        W 5218   7.555   1.490   0.720
 1475W        W 5219   9.740  10.137  10.287
 1476W        W 5220   9.599   2.245   1.248
 1477W        W 5221   1.805   7.304  10.376
 1478W        W 5222   0.829   4.167   3.263
 1479W        W 5223   1.681   7.624  11.303
 1480W        W 5224   8.551   5.271   1.284
 1481W        W 5225   5.739   7.132   4.073
 1482W        W 5226   4.547   8.141   8.976
 1483W        W 5227   9.812   7.679   9.381
 1484W        W 5228   4.988   7.909   8.810
 1485W        W 5229   8.756   5.828   0.947
 1486W        W 5230   3.294   6.335   1.434
 1487W        W 5231   6.853   8.104   8.879
 1488W        W 5232   8.983   3.377   1.596
 1489W        W 5233   9.501   4.724  10.963
 1490W        W 5234   2.803   4.584   0.708
 1491W        W 5235   9.867   2.230   0.181
 1492W        W 5236  10.400   6.098   0.286
 1493W        W 5237   3.155   5.657   1.924
 1494W        W 5238   7.875   7.183  10.400
 1495W        W 5239   6.195   0.531  10.739
 1496W        W 5240   7.853   9.735  11.438
 1497W        W 5241   3.969   8.418   3.056
 1498W        W 5242   0.259   8.555   9.137
 1499W        W 5243   5.296   4.496   1.217
 1500W        W 5244   8.474   6.379   1.262
 1501W        W 5245   7.602   9.545   3.523
 1502W        W 5246   3.726  10.084   9.115
 1503W        W 5247   8.549   0.997   2.870
 1504W        W 5248   4.271   1.486  11.102
 1505W        W 5249   3.578   4.303   0.445
 1506W        W 5250   4.550   6.951   0.627
 1507W        W 5251   8.459   9.009   2.506
 1508W        W 5252   2.036   7.717   2.201
 1509W        W 5253   8.483   8.274  11.946
 1510W        W 5254   1.728   2.108   2.818
 1511W        W 5255   5.667   1.304   0.236
 1512W        W 5256   7.027   7.563   3.551
 1513W        W 5257   0.203   5.940  11.880
 1514W        W 5258   9.442   5.023   1.274
 1515W        W 5259   4.280   1.102   9.994
 1516W        W 5260   0.002   8.407  10.982
 1517W        W 5261   9.338   0.545  10.473
 1518W        W 5262   3.136   6.956   2.142
 1519W        W 5263   7.660   4.169   8.312
 1520W        W 5264   1.478   5.469  11.464
 1521W        W 5265   5.101   0.024   3.366
 1522W        W 5266   9.531   5.437   0.980
 1523W        W 5267   9.046   5.853   3.156
 1524W        W 5268   8.778   7.050   2.775
 1525W        W 5269   3.818   8.614   2.596
 1526W        W 5270   2.751  10.404  11.580
 1527W        W 5271   3.489   2.782  10.997
 1528W        W 5272   7.283   2.302   9.760
 1529W        W 5273   3.228   9.229   3.597
 1530W        W 5274  10.334   6.194   2.995
 1531W        W 5275   1.876   3.730  10.934
 1532W        W 5276   7.480   6.097   9.417
 1533W        W 5277   6.051   7.427   2.571
 1534W        W 5278   5.622   8.307   3.613
 1535W        W 5279   2.234   5.793   1.442
 1536W        W 5280   5.524   6.850   0.404
 1537W        W 5281   3.222   1.164   3.330
 1538W        W 5282  10.377   6.451   9.090
 1539W        W 5283   6.764   8.469   0.299
 1540W        W 5284   9.827   5.246  10.448
 1541W        W 5285   4.482   7.526   1.483
 1542W        W 5286   3.683   6.733   9.187
 1543W        W 5287   1.456   5.555   2.989
 1544W        W 5288   5.588   3.095   9.389
 1545W        W 5289   7.535   8.897   1.955
 1546W        W 5290  10.153   5.974   9.870
 1547W        W 5291   9.863   6.014   8.601
 1548W        W 5292   6.158   9.897   9.971
 1549W        W 5293   9.855   3.254  11.130
 1550W        W 5294   6.105   6.478  11.819
 1551W        W 5295   4.490   7.478   1.998
 1552W        W 5296   2.411   7.594  10.161
 1553W        W 5297   4.454   7.244  11.071
 1554W        W 5298   5.616   1.295   9.225
 1555W        W 5299   7.240   4.449   9.022
 1556W        W 5300   7.668   6.943   0.320
 1557W        W 5301  10.240   4.970   2.519
 1558W        W 5302   8.933   6.251   3.482
 1559W        W 5303   8.099   1.261  11.457
 1560W        W 5304   6.765   5.681   9.848
 1561W        W 5305   1.502   1.905   1.986
 1562W        W 5306   4.866   5.641   9.419
 1563W        W 5307   5.098   1.186   3.020
 1564W        W 5308   3.602   3.738   8.931
 1565W        W 5309   7.475   6.759  11.857
 1566W        W 5310   5.678   2.798   1.600
 1567W        W 5311   3.702   5.877   3.149
 1568W        W 5312   6.121   5.929  11.817
 1569W        W 5313   2.810   0.726  11.487
 1570W        W 5314   7.354   2.357  11.767
 1571W        W 5315   5.295   9.324   2.945
 1572W        W 5316   9.668   5.440   9.334
 1573W        W 5317   2.180   8.057  10.162
 1574W        W 5318   8.046   4.386   3.920
 1575W        W 5319   9.568   0.457   0.586
 1576W        W 5320   4.550   0.744   0.860
 1577W        W 5321   2.183   4.089   0.853
 1578W        W 5322   1.363   9.386  11.620
 1579W        W 5323   1.050   8.385  10.702
 1580W        W 5324   1.584   0.766   0.806
 1581W        W 5325   7.803   1.146   2.441
 1582W        W 5326   9.208   5.572   3.589
 1583W        W 5327   1.822   9.251   0.337
 1584W        W 5328   9.886   0.293   2.814
 1585W        W 5329   1.396   8.460   9.262
 1586W        W 5330   8.830   0.785   9.029
 1587W        W 5331   6.546   5.029  11.073
 1588W        W 5332   8.936   7.926   3.376
 1589W        W 5333   5.421   7.117   8.775
 1590W        W 5334   1.850   8.037   9.134
 1591W        W 5335   6.360   2.430  11.935
 1592W        W 5336   1.226   1.113   0.038
 1593W        W 5337   3.353   8.755   0.454
 1594W        W 5338   5.724   0.195  11.426
 1595W        W 5339   7.097   6.573   1.531
 1596W        W 5340   8.005   7.680  10.630
 1597W        W 5341   9.266   2.386  10.479
 1598W        W 5342   9.822   6.136   2.309
 1599W        W 5343   7.267   2.943   0.922
 1600W        W 5344   0.955   5.163   0.565
 1601W        W 5345  10.365   4.533   1.236
 1602W        W 5346   3.559   3.664   9.802
 1603W        W 5347   8.956   3.586   0.284
 1604W        W 5348   6.013   5.207  10.132
 1605W        W 5349   9.760   8.161  10.771
 1606W        W 5350   8.888   4.368   2.594
 1607W        W 5351   7.393   6.582   1.970
 1608W        W 5352   1.310   5.737   9.932
 1609W        W 5353   0.026   8.740   2.257
 1610W        W 5354   7.620   8.116   1.459
 1611W        W 5355   6.943   4.537  11.818
 1612W        W 5356   5.491   6.231   2.788
 1613W        W 5357   8.212   0.683   9.672
 1614W        W 5358   6.038   9.161   1.743
 1615W        W 5359   5.309   9.872   0.938
 1616W        W 5360   7.645   9.532  11.025
 1617W        W 5361   7.116   3.601   2.065
 1618W        W 5362   4.720   3.649   0.919
 1619W        W 5363   8.515   1.489   9.942
 1620W        W 5364   8.446   3.794   2.470
 1621W        W 5365   2.498   1.598   0.914
 1622W        W 5366   4.130   6.573   9.382
 1623W        W 5367   3.353   2.306   9.628
 1624W        W 5368   9.627   3.468  11.552
 1625W        W 5369   6.139   0.321   1.422
 1626W        W 5370   5.202   3.914   9.518
 1627W        W 5371   4.895   9.044   2.858
 1628W        W 5372   3.293   7.576   3.807
 1629W        W 5373   9.377   9.782   1.699
 1630W        W 5374   1.728  10.356   2.928
 1631W        W 5375   8.476   2.790   9.476
 1632W        W 5376   4.107   4.135   1.951
 1633W        W 5377   1.301   9.419   9.247
 1634W        W 5378   2.829   7.365   0.481
 1635W        W 5379   8.938   3.169  11.029
 1636W        W 5380   5.022  10.470   0.318
 1637W        W 5381   1.240   2.755   1.438
 1638W        W 5382   8.537   5.542  10.546
 1639W        W 5383   2.661   6.022   2.894
 1640W        W 5384   0.176   2.692   9.113
 1641W        W 5385   6.959   6.025   3.564
 1642W        W 5386   4.444   5.670  10.230
 1643W        W 5387   4.323   1.453   3.529
 1644W        W 5388   4.103   6.113   2.904
 1645W        W 5389   7.175   3.207  11.698
 1646W        W 5390   5.940   5.638  10.420
 1647W        W 5391   1.355   6.882   2.853
 1648W        W 5392   0.921   2.696  10.179
 1649W        W 5393   7.237   3.689   2.884
 1650W        W 5394   4.986   5.171   0.307
 1651W        W 5395   7.046   0.374   1.679
 1652W        W 5396   6.033   2.445   2.212
 1653W        W 5397   5.586   2.440   1.958
 1654W        W 5398   7.857   5.703   8.831
 1655W        W 5399   2.164   7.787  11.461
 1656W        W 5400   8.553   0.703   1.486
 1657W        W 5401   5.523  10.233  11.437
 1658W        W 5402   4.768   8.087  11.692
 1659W        W 5403   4.633   5.996   1.158
 1660W        W 5404  10.459   3.031   2.914
 1661W        W 5405   1.947   1.366   9.257
 1662W        W 5406   4.765   3.620  10.471
 1663W        W 5407   0.531   5.209   0.894
 1664W        W 5408   0.561   9.375   0.700
 1665W        W 5409   9.834   2.360   9.806
 1666W        W 5410   2.783   7.893   2.770
 1667W        W 5411   1.230   6.575   2.281
 1668W        W 5412   1.004   9.331   8.404
 1669W        W 5413   6.140   1.050  11.429
 1670W        W 5414   2.201   6.806   2.352
 1671W        W 5415   2.136   4.311   0.135
 1672W        W 5416   0.427   6.509   8.974
 1673W        W 5417   3.968   3.087   3.597
 1674W        W 5418   5.481   3.388   3.663
 1675W        W 5419   4.714   1.272   2.658
 1676W        W 5420   5.178   1.211   1.484
 1677W        W 5421   3.872   8.920   3.024
 1678W        W 5422   1.593   9.180  10.479
 1679W        W 5423   1.114   8.515   1.420
 1680W        W 5424   6.192   1.412   2.315
 1681W        W 5425   3.833   2.804   0.548
 1682W        W 5426   7.550   3.067   9.169
 1683W        W 5427   1.359   2.445  11.585
 1684W        W 5428   5.121   2.227   0.632
 1685W        W 5429   6.365   7.307  10.409
 1686W        W 5430   9.821   1.800  11.459
 1687W        W 5431   1.022   1.374   1.441
 1688W        W 5432   6.379   1.989   1.540
 1689W        W 5433   5.659   8.511   3.145
 1690W        W 5434   4.171   6.742   2.388
 1691W        W 5435   2.304   0.878   2.855
 1692W        W 5436   5.648   3.273   1.784
 1693W        W 5437   7.366   6.853   0.698
 1694W        W 5438   4.478   2.175   0.073
 1695W        W 5439   2.737   5.648  11.246
 1696W        W 5440   7.630   4.098   3.032
 1697W        W 5441  10.242   5.727  11.803
 1698W        W 5442   8.062   1.655  11.790
 1699W        W 5443   5.640   3.138   3.258
 1700W        W 5444   7.912   1.933  10.726
 1701W        W 5445   2.094   4.215   1.854
 1702W        W 5446   5.547  10.260   0.362
 1703W        W 5447   2.244  10.403   9.763
 1704W        W 5448   5.233   2.050   2.672
 1705W        W 5449   2.322   5.153   0.372
 1706W        W 5450   4.779   7.155   9.008
 1707W        W 5451   2.838   9.057   8.990
 1708W        W 5452  10.098   9.386   1.690
 1709W        W 5453   6.942   6.572   0.024
 1710W        W 5454   5.667   2.206   0.494
 1711W        W 5455   9.680   1.801  10.960
 1712W        W 5456   5.517   7.372   1.251
 1713W        W 5457   0.293   4.694   0.933
 1714W        W 5458   9.864   8.070  11.262
 1715W        W 5459   7.343   9.666  11.502
 1716W        W 5460   4.178   9.126   0.729
 1717W        W 5461   9.268   5.463   0.099
 1718W        W 5462   4.643   8.216   2.710
 1719W        W 5463   0.252   2.873  10.891
 1720W        W 5464   6.399   2.479   0.863
 1721W        W 5465   3.339   0.736  10.015
 1722W        W 5466   2.783   1.406  11.874
 1723W        W 5467   0.645   5.070   2.760
 1724W        W 5468  10.258   3.200   0.319
 1725W        W 5469   2.715   7.214   9.803
 1726W        W 5470   2.923   9.034  10.479
 1727W        W 5471   2.854   6.990   0.115
 1728W        W 5472   7.675   7.974   0.973
 1729W        W 5473   0.807  10.123   2.010
 1730W        W 5474   3.950   5.205  11.460
 1731W        W 5475   6.175   2.418   1.352
 1732W        W 5476  10.247   6.498  10.641
 1733W        W 5477   6.252   8.551   0.350
 1734W        W 5478   4.154   6.875   0.227
 1735W        W 5479   2.150   6.089  10.790
 1736W        W 5480   2.607   5.522   2.212
 1737W        W 5481  10.440   6.996  10.741
 1738W        W 5482   5.094   3.111  10.887
 1739W        W 5483   3.050   1.870   1.717
 1740W        W 5484   7.433   7.167   2.711
 1741W        W 5485   6.097   3.391   2.426
 1742W        W 5486   0.276   6.204  11.413
 1743W        W 5487   7.513   8.616   1.468
 1744W        W 5488   9.133   7.096   2.384
 1745W        W 5489   8.686   4.806   0.399
 1746W        W 5490   1.160   7.580   9.368
 1747W        W 5491   4.338   9.941   0.877
 1748W        W 5492   2.466   9.889  11.931
 1749W        W 5493   4.162   2.242   1.407
 1750W        W 5494   7.712   4.826  11.777
 1751W        W 5495   9.166   3.446   2.924
 1752W        W 5496   2.816   6.094   8.997
 1753W        W 5497   0.479   7.359   0.343
 1754W        W 5498   1.495   1.956   9.755
 1755W        W 5499   9.132   7.536   0.792
 1756W        W 5500  10.465   0.799   2.907
 1757W        W 5501   4.968   3.329   1.326
 1758W        W 5502   2.299   3.516  11.557
 1759W        W 5503   9.874   1.337   2.647
 1760W        W 5504   4.983   1.234   8.991
 1761W        W 5505   4.327   3.740   2.190
 1762W        W 5506   9.851   8.358  11.827
 1763W        W 5507   7.444   4.046   1.647
 1764W        W 5508   2.635   3.571   2.399
 1765W        W 5509   4.578   7.234   3.423
 1766W        W 5510   3.257   1.373   9.576
 1767W        W 5511   0.384   8.071   9.004
 1768W        W 5512   8.375   7.056   3.119
 1769W        W 5513   5.857   8.932   8.830
 1770W        W 5514   3.525   6.410  11.933
 1771W        W 5515   2.473   5.203  11.145
 1772W        W 5516   2.860   9.888   1.287
 1773W        W 5517   3.536   4.515   1.372
 1774W        W 5518   7.004  10.464  11.356
 1775W        W 5519   2.902   7.662  10.051
 1776W        W 5520   9.441   2.655   2.028
 1777W        W 5521   5.124   8.310  10.570
 1778W        W 5522   2.699   8.625   8.660
 1779W        W 5523   0.584   3.507   1.642
 1780W        W 5524   5.486   4.700  10.137
 1781W        W 5525   2.327   7.212   2.684
 1782W        W 5526   4.087   6.672   8.863
 1783W        W 5527   5.357   7.970   1.261
 1784W        W 5528   0.054   5.728  11.416
 1785W        W 5529   7.593   0.475   9.038
 1786W        W 5530   5.481   2.644   9.144
 1787W        W 5531   5.724   9.556   0.944
 1788W        W 5532   3.024   2.211   1.336
 1789W        W 5533   8.891   8.564  11.845
 1790W        W 5534   3.290   1.442  11.095
 1791W        W 5535   2.843   6.251  10.517
 1792W        W 5536   8.017   2.241   3.817
 1793W        W 5537   1.138   6.973   0.451
 1794W        W 5538   5.948   6.968   1.373
 1795W        W 5539   2.110   4.288   2.854
 1796W        W 5540   7.156   8.180   1.263
 1797W        W 5541   5.714   5.585  10.911
 1798W        W 5542   4.184   2.882   0.178
 1799W        W 5543   5.936   1.205   1.913
 1800W        W 5544   6.159   6.162   0.262
 1801W        W 5545   5.198   2.873   0.293
 1802W        W 5546   0.002   2.117  11.062
 1803W        W 5547   3.081   2.705  11.314
 1804W        W 5548   6.601   1.889   2.536
 1805W        W 5549   9.837   9.874   1.358
 1806W        W 5550   4.852   9.869  11.690
 1807W        W 5551   7.418   7.288  11.774
 1808W        W 5552   6.055   1.635   9.292
 1809W        W 5553   9.500   8.482   2.242
 1810W        W 5554   3.887   3.645  10.547
 1811W        W 5555   4.905   7.488  11.101
 1812W        W 5556   3.715   9.573   1.489
 1813W        W 5557   3.569   2.659   3.014
 1814W        W 5558   5.163   3.406   9.404
 1815W        W 5559   4.578   6.892   1.174
 1816W        W 5560  10.488   9.123  11.905
 1817W        W 5561   1.902   0.401   9.433
 1818W        W 5562   3.553   8.970   1.359
 1819W        W 5563   6.176   0.638   9.588
 1820W        W 5564   2.047   3.787   1.269
 1821W        W 5565   3.529   2.235   1.339
 1822W        W 5566   5.566   6.058   9.728
 1823W        W 5567   4.206   9.150   9.849
 1824W        W 5568   5.743  10.083   0.820
 1825W        W 5569   8.585   8.570   2.293
 1826W        W 5570   7.062   0.995  11.433
 1827W        W 5571   9.578   2.678   2.526
 1828W        W 5572   0.122   4.088   2.323
 1829W        W 5573   1.702   2.380   9.967
 1830W        W 5574   6.209   7.503   9.968
 1831W        W 5575   6.558   4.532   0.135
 1832W        W 5576   7.675   7.514   2.247
 1833W        W 5577  10.196   2.269   2.329
 1834W        W 5578   6.534   2.809   9.473
 1835W        W 5579   7.557   3.952   0.735
 1836W        W 5580   4.701   0.244   3.000
 1837W        W 5581   8.641   1.711   2.740
 1838W        W 5582   4.068   6.472  11.936
 1839W        W 5583   8.897   7.055   3.264
 1840W        W 5584   6.883   6.811   0.545
 1841W        W 5585   2.774   9.398   1.420
 1842W        W 5586   4.428   4.570   2.802
 1843W        W 5587   7.926   2.792   0.361
 1844W        W 5588   6.146   8.984   2.420
 1845W        W 5589   5.056  10.420  11.444
 1846W        W 5590   1.709   3.794   0.762
 1847W        W 5591   2.181   2.628   9.747
 1848W        W 5592   5.623   7.056   3.289
 1849W        W 5593   0.696   4.893   9.538
 1850W        W 5594   1.209   9.571   2.205
 1851W        W 5595   3.884   7.093   3.269
 1852W        W 5596   6.952   3.289   0.695
 1853W        W 5597   4.353   4.737   1.291
 1854W        W 5598  10.172   8.273  10.482
 1855W        W 5599   8.842   4.963   9.025
 1856W        W 5600   0.942   7.973   8.633
 1857W        W 5601   3.688   4.924   2.334
 1858W        W 5602   1.417   4.104  11.487
 1859W        W 5603   7.922   9.051  11.861
 1860W        W 5604   7.146   9.812   1.780
 1861W        W 5605  10.319   9.906   3.221
 1862W        W 5606   8.476   4.762   2.623
 1863W        W 5607   0.327   2.675   1.733
 1864W        W 5608  10.407   1.153   1.868
 1865W        W 5609   9.719   8.732   1.020
 1866W        W 5610   6.987   1.656   3.423
 1867W        W 5611   2.077   2.720  10.945
 1868W        W 5612   0.276   0.436   3.225
 1869W        W 5613   4.543   6.769  11.273
 1870W        W 5614   5.166   3.500   2.732
 1871W        W 5615   3.669   6.280   9.460
 1872W        W 5616   1.734   2.720   2.197
 1873W        W 5617   9.511   5.645   3.164
 1874W        W 5618   5.831   3.776   8.630
 1875W        W 5619   3.060   0.850   1.133
 1876W        W 5620   5.155   9.267  10.767
 1877W        W 5621   8.522   8.139   2.559
 1878W        W 5622   5.910   2.978   9.780
 1879W        W 5623   0.207   5.550   2.893
 1880W        W 5624   2.315   4.215   1.370
 1881W        W 5625   6.592   2.007   0.815
 1882W        W 5626   1.818   9.892  10.937
 1883W        W 5627   0.668   8.048   1.012
 1884W        W 5628  10.372   2.681   9.896
 1885W        W 5629   1.711   1.784  11.591
 1886W        W 5630   0.926   7.792   1.894
 1887W        W 5631   1.242   3.766   0.528
 1888W        W 5632   6.293   2.629   9.892
 1889W        W 5633   0.815   1.861  10.280
 1890W        W 5634   8.303   6.103   0.860
 1891W        W 5635   1.790   8.113   1.262
 1892W        W 5636   4.829   4.006   9.869
 1893W        W 5637   9.297   0.688   1.765
 1894W        W 5638  10.424   7.052   3.144
 1895W        W 5639   3.180   5.648  11.992
 1896W        W 5640   5.760   7.729   2.880
 1897W        W 5641   1.743   3.981   8.899
 1898W        W 5642   9.327  10.043   3.305
 1899W        W 5643   7.484   8.674  10.013
 1900W        W 5644   3.794   7.350   0.781
 1901W        W 5645   8.552   0.454   9.315
 1902W        W 5646   3.658   6.079   0.691
 1903W        W 5647   2.818   7.181   8.931
 1904W        W 5648   6.106   4.428   9.477
 1905W        W 5649   3.452   2.743   8.500
 1906W        W 5650   3.186   1.795  11.453
 1907W        W 5651   9.496   5.231   1.775
 1908W        W 5652  10.257   7.703   9.120
 1909W        W 5653   3.842   6.108   0.215
 1910W        W 5654   6.446   2.354   2.478
 1911W        W 5655   4.980   6.260   9.062
 1912W        W 5656   5.666   4.073   0.692
 1913W        W 5657   1.206   7.882   0.269
 1914W        W 5658   4.390  10.372   9.610
 1915W        W 5659   0.510   8.325  10.820
 1916W        W 5660   4.204   4.870   1.778
 1917W        W 5661   1.726   6.626   2.470
 1918W        W 5662  10.229   5.657   1.355
 1919W        W 5663   6.282   3.628   0.189
 1920W        W 5664   7.673   9.444   2.165
 1921W        W 5665   8.134   6.534   9.251
 1922W        W 5666   7.027   5.795   0.472
 1923W        W 5667   6.476   4.883   2.954
 1924W        W 5668   6.441   6.357  10.314
 1925W        W 5669  10.365   2.634   0.410
 1926W        W 5670   6.038   1.134   9.501
 1927W        W 5671   1.367   8.972   9.576
 1928W        W 5672  10.461   4.572   3.054
 1929W        W 5673   9.530   5.870   0.315
 1930W        W 5674   3.698   9.983  11.067
 1931W        W 5675   5.214   0.356   2.965
 1932W        W 5676   6.384   1.890   9.611
 1933W        W 5677   3.093   2.101   3.669
 1934W        W 5678   4.531   3.601   9.980
 1935W        W 5679   8.331   8.059  10.496
 1936W        W 5680   2.917   3.695  11.049
 1937W        W 5681   9.911   6.195   0.527
 1938W        W 5682   0.801   2.670   1.992
 1939W        W 5683   0.199   1.926   0.516
 1940W        W 5684   7.993   4.225   0.292
 1941W        W 5685   8.051   4.385   8.609
 1942W        W 5686   9.869   3.555   8.938
 1943W        W 5687   9.446   4.595   0.986
 1944W        W 5688  -0.000   0.034   3.454
 1945W        W 5689   3.152   7.836   9.052
 1946W        W 5690   3.363   0.844   0.299
 1947W        W 5691  10.354   0.021   8.798
 1948W        W 5692  10.021   1.207   8.675
 1949W        W 5693   6.106   7.457   9.092
 1950W        W 5694   7.474   3.110   0.422
 1951W        W 5695   6.175   1.229   0.971
 1952W        W 5696   5.070   1.608   1.780
 1953W        W 5697  10.404   2.123   2.775
 1954W        W 5698   5.683   3.711   1.479
 1955W        W 5699   6.605   2.541  10.346
 1956W        W 5700   1.455   9.153   3.460
 1957W        W 5701   8.014   0.229   1.455
 1958W        W 5702   0.802   0.195   2.852
 1959W        W 5703   1.370   3.684  11.068
 1960W        W 5704   6.901   2.871   9.036
 1961W        W 5705   4.791   9.446  10.466
 1962W        W 5706   0.220   6.954   0.500
 1963W        W 5707   0.960   5.648   1.695
 1964W        W 5708   2.338   5.560   0.995
 1965W        W 5709   4.749   6.610   8.600
 1966W        W 5710   8.557   3.729   1.586
 1967W        W 5711   2.640   0.831  11.044
 1968W        W 5712   5.569   7.418   0.171
 1969W        W 5713   0.718   5.093   8.968
 1970W        W 5714   1.315   1.475   9.860
 1971W        W 5715   1.753  10.230   9.043
 1972W        W 5716   5.762   5.422   0.623
 1973W        W 5717   4.952   6.987  10.326
 1974W        W 5718   9.848   6.000   2.830
 1975W        W 5719   7.160   4.116   9.752
 1976W        W 5720  10.486   5.579   3.379
 1977W        W 5721   5.420   8.048   3.201
 1978W        W 5722   7.958   7.360   0.394
 1979W        W 5723   4.788   4.959   9.405
 1980W        W 5724   5.379   6.213   8.741
 1981W        W 5725   6.644   4.957   0.385
 1982W        W 5726  10.185   4.566   2.102
 1983W        W 5727   8.369   1.295   0.862
 1984W        W 5728   0.055   6.678  11.576
 1985W        W 5729   8.223   4.141   0.749
 1986W        W 5730   2.618   4.463   9.264
 1987W        W 5731   4.591   2.640   9.314
 1988W        W 5732   1.786   5.649   1.657
 1989W        W 5733   4.265   7.950   1.950
 1990W        W 5734  10.466   4.571  11.933
 1991W        W 5735   3.632   5.400  11.814
 1992W        W 5736   1.710   3.796   9.784
 1993W        W 5737   2.948   0.722   0.633
 1994W        W 5738   6.011   1.578   9.788
 1995W        W 5739   0.443   4.289   8.711
 1996W        W 5740  10.403   2.275   9.003
 1997W        W 5741   4.504   3.594   8.095
 1998W        W 5742   9.500  10.344   0.749
 1999W        W 5743   9.280   8.784   1.868
 2000W        W 5744   8.807   5.273   3.305
 2001W        W 5745   9.036  10.252   2.894
 2002W        W 5746  10.183   7.874  10.888
 2003W        W 5747   9.709   9.155   8.453
 2004W        W 5748   0.529   6.973   2.407
 2005W        W 5749   3.093   7.684   1.888
 2006W        W 5750  10.285   5.821   2.648
 2007W        W 5751   2.336   9.916   2.456
 2008W        W 5752   4.653   7.644   9.779
 2009W        W 5753   7.828   4.631   9.861
 2010W        W 5754   5.067   5.161   1.908
 2011W        W 5755   0.528   6.433  10.996
 2012W        W 5756   6.807   3.150   3.127
 2013W        W 5757   2.137   2.569  11.465
 2014W        W 5758   5.489   6.914   1.002
 2015W        W 5759   2.399  10.440   3.129
 2016W        W 5760   8.519   3.597   0.988
 2017W        W 5761   6.020   6.999   9.972
 2018W        W 5762   3.694   3.082  11.949
 2019W        W 5763   0.229   0.001   9.163
 2020W        W 5764   6.582  10.082   1.932
 2021W        W 5765   0.835   9.873   9.084
 2022W        W 5766   5.992   4.196   8.890
 2023W        W 5767   2.112   9.849  11.513
 2024W        W 5768   6.597   9.508   1.099
 2025W        W 5769   8.747   6.455   0.314
 2026W        W 5770   1.278   3.413  10.415
 2027W        W 5771   8.062   0.030  10.985
 2028W        W 5772   0.945   8.642   0.140
 2029W        W 5773   1.433   5.342   8.922
 2030W        W 5774   6.636   8.597   0.782
 2031W        W 5775   3.187   8.031   8.561
 2032W        W 5776   3.408   3.114   2.259
 2033W        W 5777   0.759   5.193   1.761
 2034W        W 5778   1.013   9.486   1.432
 2035W        W 5779   8.811   5.557  11.292
 2036W        W 5780   2.253   0.763   1.402
 2037W        W 5781   3.271   1.683   8.734
 2038W        W 5782   2.320   4.677   2.151
 2039W        W 5783   1.713   6.689   9.329
 2040W        W 5784  10.348  10.334  11.385
 2041W        W 5785   0.300   1.761   1.390
 2042W        W 5786   0.165   2.567   3.822
 2043W        W 5787   5.332   8.528   8.434
 2044W        W 5788   8.583   0.807   0.980
 2045W        W 5789   1.970   0.336   3.056
 2046W        W 5790   9.846   5.166  11.381
 2047W        W 5791   6.695   4.433   2.780
 2048W        W 5792   5.211   0.993   0.196
 2049W        W 5793   1.927   2.291   3.240
 2050W        W 5794   0.272   6.092   1.768
 2051W        W 5795   2.370   6.116   9.287
 2052W        W 5796   3.529   9.694   3.584
 2053W        W 5797   3.181   4.576  10.078
 2054W        W 5798   1.794   2.280  10.839
 2055W        W 5799   9.244   5.425  11.566
 2056W        W 5800  10.345   1.359   3.317
 2057W        W 5801   8.650   3.586   2.919
 2058W        W 5802   4.534   6.684  10.350
 2059W        W 5803   6.992   3.239   0.183
 2060W        W 5804   4.239  10.295   9.139
 2061W        W 5805   3.074   1.179  11.501
 2062W        W 5806   2.139   6.961   0.487
 2063W        W 5807   7.502   2.598  11.343
 2064W        W 5808   6.108   3.976   9.718
 2065W        W 5809   6.994   8.691  11.879
 2066W        W 5810   4.635   3.617   3.459
 2067W        W 5811   2.666   5.281  10.273
 2068W        W 5812   8.498   7.189  10.950
 2069W        W 5813   3.835   3.577   0.034
 2070W        W 5814   5.178   3.511   3.238
 2071W        W 5815   0.134  10.051   9.975
 2072W        W 5816   1.658   5.184   2.728
 2073W        W 5817   1.940   1.725   8.873
 2074W        W 5818   4.298   7.040   9.193
 2075W        W 5819   9.873   9.968   1.855
 2076W        W 5820   6.996   2.222   2.197
 2077W        W 5821   5.716   6.837  10.897
 2078W        W 5822   2.086   4.835   0.031
 2079W        W 5823   7.902   1.652   2.406
 2080W        W 5824   5.949   5.533   1.483
 2081W        W 5825   1.118   4.521  11.451
 2082W        W 5826   2.738   5.567  11.741
 2083W        W 5827   2.746   8.490  11.217
 2084W        W 5828   7.075   1.751   1.958
 2085W        W 5829   1.339   1.127   1.140
 2086W        W 5830   4.207   2.340   3.508
 2087W        W 5831   0.545   7.798   9.538
 2088W        W 5832   2.961   9.995  11.859
 2089W        W 5833   1.335   0.912  11.058
 2090W        W 5834   5.614   4.644   9.637
 2091W        W 5835   7.965   3.634   2.435
 2092W        W 5836   8.971   5.365   0.990
 2093W        W 5837   7.908   2.159  11.892
 2094W        W 5838   0.728   6.075   3.471
 2095W        W 5839   3.863   7.108   2.692
 2096W        W 5840   3.599   4.179   8.592
 2097W        W 5841   8.918   2.692   9.256
 2098W        W 5842   7.752   2.804   0.851
 2099W        W 5843   4.702   4.018  11.918
 2100W        W 5844   0.942  10.123   9.561
 2101W        W 5845   8.791   7.918  10.629
 2102W        W 5846   5.233   2.315   3.138
 2103W        W 5847   1.829   3.108   3.477
 2104W        W 5848   3.313   9.668  10.894
 2105W        W 5849   8.617   0.906  11.837
 2106W        W 5850  10.415   4.665  10.817
 2107W        W 5851   7.122   7.985   2.634
 2108W        W 5852   4.298   9.253   3.423
 2109W        W 5853   2.341   3.189   3.394
 2110W        W 5854   7.683   1.299  11.000
 2111W        W 5855   9.416   3.111   1.801
 2112W        W 5856   7.438   7.049   3.217
 2113W        W 5857   5.443   9.402   1.995
 2114W        W 5858   4.763   0.792   0.262
 2115W        W 5859   6.047   6.066   1.541
 2116W        W 5860   5.589   4.071   8.252
 2117W        W 5861   7.643   1.503  10.030
 2118W        W 5862   3.304   7.225   1.732
 2119W        W 5863   0.317   2.843   0.301
 2120W        W 5864   4.692   1.443  10.786
 2121W        W 5865   2.284   6.704   2.850
 2122W        W 5866   1.203   7.973  10.942
 2123W        W 5867   7.439  10.065  10.291
 2124W        W 5868   8.100   0.610   1.086
 2125W        W 5869   8.450   4.075   8.685
 2126W        W 5870   7.048   3.842   3.322
 2127W        W 5871   1.599   9.744   0.311
 2128W        W 5872   8.393   8.406   9.015
 2129W        W 5873   1.426   9.408   1.717
 2130W        W 5874   1.634   4.130   1.634
 2131W        W 5875   7.508   8.102  10.600
 2132W        W 5876   9.018   6.644   1.152
 2133W        W 5877   1.714   1.066   3.496
 2134W        W 5878   2.792   2.215   0.857
 2135W        W 5879   8.920   6.168   1.324
 2136W        W 5880   1.283   3.806  10.084
 2137W        W 5881   0.411   0.526   2.738
 2138W        W 5882   0.458   8.773   9.572
 2139W        W 5883   7.959   0.674   3.393
 2140W        W 5884   9.132   0.790   9.872
 2141W        W 5885   8.072   2.852  10.221
 2142W        W 5886   1.233   6.354   3.637
 2143W        W 5887   8.488   1.890   9.616
 2144W        W 5888   9.550  10.364   2.984
 2145W        W 5889   7.046   2.402   0.205
 2146W        W 5890   8.819   0.262   2.328
 2147W        W 5891   1.828   8.739   0.425
 2148W        W 5892  10.313   8.976   2.695
 2149W        W 5893   1.017   5.299  11.257
 2150W        W 5894   3.172   2.820   9.879
 2151W        W 5895   0.682   1.742   3.059
 2152W        W 5896   7.468   7.403   0.279
 2153W        W 5897   9.979   4.685   2.916
 2154W        W 5898   4.690   3.746   0.392
 2155W        W 5899   9.926   1.211   0.796
 2156W        W 5900   9.279   0.284  11.411
 2157W        W 5901   1.395   9.879   9.460
 2158W        W 5902   2.909   4.807   8.578
 2159W        W 5903   9.068   6.694   0.641
 2160W        W 5904   8.913   8.427   3.129
 2161W        W 5905   8.084   3.539  11.811
 2162W        W 5906   6.820   8.991   0.244
 2163W        W 5907   6.129   9.530   1.366
 2164W        W 5908   7.923   6.038   2.386
 2165W        W 5909   7.769   7.622  11.973
 2166W        W 5910   4.401   2.766   3.301
 2167W        W 5911   4.090   5.023   0.917
 2168W        W 5912   3.334   9.923   1.491
 2169W        W 5913   7.722   9.410   9.028
 2170W        W 5914  10.340   8.444   2.637
 2171W        W 5915   5.249   1.455  11.997
 2172W        W 5916   7.036   0.399  10.468
 2173W        W 5917   2.580   2.076   1.557
 2174W        W 5918   4.446   2.761   0.599
 2175W        W 5919   1.297   6.853  11.963
 2176W        W 5920   2.670   1.192   2.685
 2177W        W 5921   4.213   4.801   2.334
 2178W        W 5922   0.006   4.703   1.715
 2179W        W 5923   7.245  10.315   2.885
 2180W        W 5924   4.630   8.970  10.618
 2181W        W 5925   9.302   5.720   1.719
 2182W        W 5926   8.469   2.348   0.361
 2183W        W 5927   3.379   9.193   2.924
 2184W        W 5928   3.105   2.741   2.090
 2185W        W 5929  10.361   2.545   3.044
 2186W        W 5930   5.083   9.801   1.987
 2187W        W 5931  10.257   9.705  10.027
 2188W        W 5932   5.585   9.298   0.255
 2189W        W 5933   1.734   8.623   2.635
 2190W        W 5934   7.024   2.833   0.480
 2191W        W 5935   9.877   8.580   9.541
 2192W        W 5936   5.586   9.984   2.721
 2193W        W 5937   7.074   4.927   9.138
 2194W        W 5938   1.789   6.706  11.775
 2195W        W 5939   8.085   5.041  10.022
 2196W        W 5940   2.546   8.076   9.817
 2197W        W 5941   0.328   6.884   1.371
 2198W        W 5942   5.035   4.928  11.017
 2199W        W 5943   8.581   1.467  11.873
 2200W        W 5944   5.855   9.849  11.477
 2201W        W 5945   8.232   7.786   1.818
 2202W        W 5946   9.663   1.365   2.177
 2203W        W 5947   8.310   0.730   0.212
 2204W        W 5948   7.076  10.167   0.767
 2205W        W 5949   9.258   5.072   3.182
 2206W        W 5950   7.027   9.861  10.537
 2207W        W 5951   2.787   0.707   2.806
 2208W        W 5952   9.974   9.371  11.307
 2209W        W 5953   3.986   0.782   0.776
 2210W        W 5954   5.116   7.086  11.517
 2211W        W 5955   8.025   2.287   9.013
 2212W        W 5956   9.785   1.837   0.498
 2213W        W 5957   4.402   7.058   8.671
 2214W        W 5958   8.626  10.496   2.718
 2215W        W 5959   8.143   7.312   2.201
 2216W        W 5960   4.635   2.582  10.268
 2217W        W 5961   2.818   1.715   1.294
 2218W        W 5962   0.340   1.771  11.555
 2219W        W 5963   1.573   2.780  10.798
 2220W        W 5964   4.132   5.257   2.574
 2221W        W 5965   4.109   4.381  10.361
 2222W        W 5966   4.143   8.338   9.559
 2223W        W 5967   2.055   1.500   8.443
 2224W        W 5968   6.006   2.451  11.523
 2225W        W 5969   9.046   3.844   1.767
 2226W        W 5970  10.354  10.439   0.683
 2227W        W 5971   8.390   5.193   0.266
 2228W        W 5972   8.440   7.448   2.741
 2229W        W 5973   7.635   2.727   2.777
 2230W        W 5974   5.622   8.483   1.909
 2231W        W 5975   3.725   9.351   1.033
 2232W        W 5976   0.700   2.588  11.008
 2233W        W 5977   6.169   9.871   0.991
 2234W        W 5978   6.070  10.353   1.193
 2235W        W 5979   8.336   8.554  10.601
 2236W        W 5980   2.410   1.249  10.917
 2237W        W 5981   8.288  10.292   1.334
 2238W        W 5982  10.100   7.479   0.928
 2239W        W 5983   7.124   5.125   1.629
 2240W        W 5984   8.550   3.740  10.483
 2241W        W 5985   6.935   7.482  11.202
 2242W        W 5986   1.025   5.681  11.631
 2243W        W 5987   7.472   4.309   1.160
 2244W        W 5988   3.080   3.258  10.523
 2245W        W 5989   8.406   8.800  11.861
 2246W        W 5990   2.499   2.787  10.611
 2247W        W 5991   9.905   6.052  11.489
 2248W        W 5992   1.034   7.151   9.091
 2249W        W 5993   5.676   1.793  11.500
 2250W        W 5994   6.504   7.104   3.207
 2251W        W 5995   8.393   7.928   3.576
 2252W        W 5996   1.876   5.604   0.750
 2253W        W 5997   2.675   6.512   3.623
 2254W        W 5998   9.454   0.313   3.202
 2255W        W 5999   3.704   4.752   1.843
 2256W        W 6000   8.457   0.957   1.939
 2257W        W 6001   3.172   6.076   3.221
 2258W        W 6002   1.181   2.259  10.062
 2259W        W 6003   4.292   9.876   1.487
 2260W        W 6004   3.306   5.698   0.728
 2261W        W 6005   5.473   0.855  10.060
 2262W        W 6006   6.361   4.979   9.398
 2263W        W 6007   3.620   5.377  11.129
 2264W        W 6008   0.232   5.103   3.353
 2265W        W 6009   2.332   6.059   1.884
 2266W        W 6010   3.046   8.157   9.955
 2267W        W 6011   7.942   3.329   9.401
 2268W        W 6012   7.391   4.040  11.338
 2269W        W 6013   2.327   6.513   0.813
 2270W        W 6014   4.440   4.608   9.553
 2271W        W 6015   8.461   7.703  10.989
 2272W        W 6016   5.725   1.196   2.363
 2273W        W 6017   9.222   0.282  10.047
 2274W        W 6018   9.942   6.956   0.288
 2275W        W 6019   6.291   6.192  11.395
 2276W        W 6020   5.482   5.867  11.285
 2277W        W 6021   5.050   6.960   9.814
 2278W        W 6022   2.839   7.495  11.975
 2279W        W 6023   8.056   4.524   1.883
 2280W        W 6024   8.963   6.044   9.411
 2281W        W 6025   7.178   1.691   1.473
 2282W        W 6026  10.309   9.890   2.177
 2283W        W 6027   5.566   7.057   9.687
 2284W        W 6028   1.426   7.542   9.795
 2285W        W 6029   6.574   6.227  11.835
 2286W        W 6030   7.166   9.221  11.327
 2287W        W 6031   5.249   7.911  11.854
 2288W        W 6032   2.887   1.063   0.265
 2289W        W 6033   3.392   0.382  11.731
 2290W        W 6034   4.926   4.403   9.533
 2291W        W 6035  10.176   1.439   2.223
 2292W        W 6036   9.373   8.126  11.106
 2293W        W 6037   8.021   0.300   2.475
 2294W        W 6038   1.583   3.364  10.017
 2295W        W 6039   1.527   8.257   0.548
 2296W        W 6040   7.066   3.090   2.192
 2297W        W 6041   0.098   4.018  10.119
 2298W        W 6042   9.221   1.391   2.487
 2299W        W 6043   6.470   2.436   1.892
 2300W        W 6044   0.319   6.466   0.395
 2301W        W 6045   1.283   6.951   3.370
 2302W        W 6046   1.986  10.453   0.746
 2303W        W 6047   2.833   6.413   8.572
 2304W        W 6048   0.496   2.296   9.049
 2305W        W 6049   8.013   4.172   2.667
 2306W        W 6050   6.976   8.922   9.065
 2307W        W 6051   1.158   5.041   1.491
 2308W        W 6052   9.598  10.312  10.867
 2309W        W 6053   8.372  10.479   2.272
 2310W        W 6054   1.593   5.181   0.860
 2311W        W 6055   9.461   0.911   3.016
 2312W        W 6056   0.758   3.419   2.743
 2313W        W 6057   2.760   8.509   1.368
 2314W        W 6058   0.042   2.235   3.413
 2315W        W 6059   1.268   3.189  10.864
 2316W        W 6060   0.312   2.365  10.764
 2317W        W 6061   3.594   4.071   0.889
 2318W        W 6062   5.069   8.411  11.054
 2319W        W 6063   0.451   1.830   9.835
 2320W        W 6064   0.871   0.915  11.280
 2321W        W 6065   2.017   7.093   9.358
 2322W        W 6066   5.221   6.661  10.791
 2323W        W 6067   0.931   6.351   1.368
 2324W        W 6068   2.250  10.203  10.759
 2325W        W 6069   7.400   5.746   3.542
 2326W        W 6070   6.261   2.887  11.702
 2327W        W 6071   3.390   7.079   9.531
 2328W        W 6072   8.098   8.130   0.765
 2329W        W 6073   3.725   6.876  11.906
 2330W        W 6074   1.337   9.324   0.139
 2331W        W 6075   5.604   6.076   1.217
 2332W        W 6076   3.664   7.175  10.569
 2333W        W 6077  10.102   6.563  11.359
 2334W        W 6078   7.466   3.273  10.194
 2335W        W 6079   6.668   3.712   0.642
 2336W        W 6080   7.084   4.555   1.576
 2337W        W 6081   0.537   1.891  10.725
 2338W        W 6082   3.807   8.718   3.499
 2339W        W 6083   9.568   2.786   9.060
 2340W        W 6084   5.597   7.953   0.221
 2341W        W 6085   9.281   9.860   9.994
 2342W        W 6086   7.250   2.644   8.573
 2343W        W 6087   5.275   7.574   3.079
 2344W        W 6088   3.693   3.807  11.528
 2345W        W 6089   5.591   1.714   9.517
 2346W        W 6090   8.721   1.279   2.489
 2347W        W 6091   8.001   3.658   0.786
 2348W        W 6092   9.139   2.700   2.835
 2349W        W 6093  10.043   7.087   3.489
 2350W        W 6094   8.896   5.713  11.825
 2351W        W 6095   4.195   3.801   9.623
 2352W        W 6096   7.491   5.044   8.866
 2353W        W 6097   0.476   4.593   0.082
 2354W        W 6098   3.209   5.399  10.232
 2355W        W 6099   3.257   1.285   0.942
 2356W        W 6100   1.687   9.800   9.878
 2357W        W 6101   6.107   1.232   8.986
 2358W        W 6102   1.675   9.673  10.384
 2359W        W 6103   0.482   2.129  11.211
 2360W        W 6104   1.520  10.338   1.869
 2361W        W 6105   7.176   5.068   1.142
 2362W        W 6106   7.352   3.150   2.806
 2363W        W 6107   6.477   4.505  11.605
 2364W        W 6108   0.709   1.259  10.960
 2365W        W 6109   4.332   2.732   1.425
 2366W        W 6110   5.566   8.959   1.680
 2367W        W 6111   6.552   0.046   9.632
 2368W        W 6112   3.217   3.671   3.552
 2369W        W 6113   2.304   9.431  11.775
 2370W        W 6114  10.299   9.128   8.948
 2371W        W 6115   4.655   3.726   1.420
 2372W        W 6116   1.893   9.552   8.538
 2373W        W 6117   9.093   4.587   0.615
 2374W        W 6118   8.089   6.611   9.742
 2375W        W 6119   2.805   3.949   1.483
 2376W        W 6120  10.126   5.646   9.430
 2377W        W 6121   2.956   8.623  10.149
 2378W        W 6122   3.654   7.971  11.821
 2379W        W 6123   6.826   5.519   1.779
 2380W        W 6124   3.825   8.319   2.143
 2381W        W 6125   0.263   1.315  10.730
 2382W        W 6126   3.307   1.321  10.080
 2383W        W 6127   9.008   8.319   8.518
 2384W        W 6128   5.286   3.017   2.555
 2385W        W 6129  10.342   9.178  10.077
 2386W        W 6130   2.080   2.843   8.842
 2387W        W 6131   2.656   5.022   2.370
 2388W        W 6132   8.933   9.807   1.252
 2389W        W 6133   3.171   6.134   0.970
 2390W        W 6134   8.736   0.446   0.128
 2391W        W 6135   1.254   8.144   2.667
 2392W        W 6136   4.598   1.669   9.885
 2393W        W 6137   6.598   2.230   0.350
 2394W        W 6138   3.017   4.105   9.426
 2395W        W 6139   8.951   9.323  10.771
 2396W        W 6140   8.609   4.624   9.363
 2397W        W 6141   4.487  10.485   0.273
 2398W        W 6142   0.146   9.773  10.489
 2399W        W 6143   7.906   4.734  10.752
 2400W        W 6144   1.451   9.128   2.146
 2401W        W 6145   5.938   7.627  10.391
 2402W        W 6146   5.096   8.169   3.625
 2403W        W 6147   0.809   3.535   2.241
 2404W        W 6148   9.808   6.167  10.457
 2405W        W 6149   5.984   8.679  11.888
 2406W        W 6150   3.381   6.819  10.375
 2407W        W 6151   4.684   2.648  11.754
 2408W        W 6152   4.253   1.762   8.750
 2409W        W 6153   3.788   7.606   3.978
 2410W        W 6154   8.928   7.527   2.591
 2411W        W 6155   7.646   0.195   8.266
 2412W        W 6156  10.070   9.457   1.194
 2413W        W 6157   1.598   4.586   3.634
 2414W        W 6158   8.527   9.377  10.060
 2415W        W 6159   5.351   4.813   2.162
 2416W        W 6160   8.847  10.437  11.388
 2417W        W 6161   2.841   0.245   3.551
 2418W        W 6162   7.583   2.674   9.526
 2419W        W 6163   5.536   8.315  11.761
 2420W        W 6164  10.470   7.905   3.310
 2421W        W 6165   6.517   0.466  11.953
 2422W        W 6166   2.390   6.851   9.630
 2423W        W 6167   2.805   8.118   9.349
 2424W        W 6168   8.396   4.158   1.273
 2425W        W 6169   5.560   5.146  10.368
 2426W        W 6170   9.926   1.876   9.939
 2427W        W 6171   4.770   3.675   2.462
 2428W        W 6172  10.117   8.397   0.280
 2429W        W 6173   5.076   9.241   0.229
 2430W        W 6174   4.684   1.190  10.324
 2431W        W 6175   0.681   2.272   9.975
 2432W        W 6176   2.244   4.770   9.083
 2433W        W 6177   8.889   9.561   1.734
 2434W        W 6178   7.255   6.473   9.903
 2435W        W 6179   0.405   4.316   0.521
 2436W        W 6180   9.224   5.771   1.206
 2437W        W 6181   2.765   9.342   3.028
 2438W        W 6182   2.721   7.832   0.678
 2439W        W 6183   2.547   0.299  11.315
 2440W        W 6184   6.152   4.735  11.277
 2441W        W 6185   2.912   0.300   9.254
 2442W        W 6186   0.924   0.481   8.457
 2443W        W 6187   9.858   3.738   1.270
 2444W        W 6188   4.936   3.964   4.106
 2445W        W 6189   7.159   7.739  10.813
 2446W        W 6190   8.919   5.916   8.901
 2447W        W 6191   1.669   4.199  10.773
 2448W        W 6192   7.092   4.586   9.528
 2449W        W 6193   0.762   1.430  10.002
 2450W        W 6194   8.855   0.266   0.888
 2451W        W 6195  10.302   7.190   8.989
 2452W        W 6196   2.126   1.859  10.768
 2453W        W 6197   3.735   0.987   9.103
 2454W        W 6198   2.305   8.466   9.415
 2455W        W 6199   4.195   1.303   1.838
 2456W        W 6200   7.552   8.051   3.545
 2457W        W 6201   6.925   0.802   9.580
 2458W        W 6202   1.876   1.366   2.024
 2459W        W 6203   7.445   8.405  11.661
 2460W        W 6204   2.720   2.139   2.899
 2461W        W 6205  10.451  10.048  10.929
 2462W        W 6206   3.212   8.056   3.543
 2463W        W 6207   8.031   0.861   2.891
 2464W        W 6208   2.391   7.659   2.975
 2465W        W 6209   2.603   2.270   2.432
 2466W        W 6210  10.383   3.706   0.035
 2467W        W 6211   6.487   6.992   1.822
 2468W        W 6212   6.121  10.455   1.769
 2469W        W 6213   3.886   0.107   8.948
 2470W        W 6214   3.822   0.536   9.316
 2471W        W 6215   7.194   7.837   0.874
 2472W        W 6216   5.051   3.552   9.876
 2473W        W 6217   8.082   9.299  10.348
 2474W        W 6218   1.750   0.867   1.289
 2475W        W 6219   1.871   2.104  10.366
 2476W        W 6220   6.684   2.888   0.868
 2477W        W 6221   4.597   8.571  11.889
 2478W        W 6222   9.954   9.596   8.592
 2479W        W 6223   6.240   8.856  11.481
 2480W        W 6224   0.425   4.169   1.009
 2481W        W 6225   6.067   6.332   3.408
 2482W        W 6226   8.279   7.959   8.790
 2483W        W 6227   4.169   7.685   0.812
 2484W        W 6228   5.232  10.159  11.917
 2485W        W 6229  10.153   8.499   1.174
 2486W        W 6230   5.142   2.508  10.020
 2487W        W 6231   3.224  10.414   1.324
 2488W        W 6232   5.015   6.013  11.891
 2489W        W 6233   7.588   8.780   8.690
 2490W        W 6234   8.929   3.165   9.031
 2491W        W 6235   0.904   7.449  10.299
 2492W        W 6236   0.379   1.600  10.309
 2493W        W 6237   0.876   8.983   1.407
 2494W        W 6238  10.093   8.142   9.408
 2495W        W 6239   7.156   2.879  11.080
 2496W        W 6240   2.923   0.226   1.601
 2497W        W 6241   2.514   7.252   9.316
 2498W        W 6242   3.866   8.084   1.638
 2499W        W 6243   5.423   4.276   3.143
 2500W        W 6244   9.938   2.445  11.661
 2501W        W 6245   3.393   0.329   1.815
 2502W        W 6246   7.551   3.819  10.425
 2503W        W 6247   4.315   3.904  11.274
 2504W        W 6248   0.040   5.906   2.211
 2505W        W 6249   0.685   6.538  10.285
 2506W        W 6250   7.916   2.317   2.818
 2507W        W 6251   9.402   3.168   1.288
 2508W        W 6252   3.770   1.231   0.943
 2509W        W 6253   4.611   8.004   3.602
 2510W        W 6254   1.231   5.322  10.298
 2511W        W 6255   5.723   9.904   1.305
 2512W        W 6256   0.720   7.434   2.217
 2513W        W 6257   7.937  10.029  11.046
 2514W        W 6258   9.424   7.672  10.180
 2515W        W 6259   5.678   4.500   9.153
 2516W        W 6260   8.052   1.802   1.922
 2517W        W 6261   7.827   7.054   0.862
 2518W        W 6262   8.041   0.336   2.979
 2519W        W 6263   9.349   2.817   0.496
 2520W        W 6264   2.135   7.475   1.751
 2521W        W 6265   4.159   8.628   0.869
 2522W        W 6266   8.910   5.975  10.954
 2523W        W 6267   9.598   9.991   3.769
 2524W        W 6268  10.028   4.457   1.632
 2525W        W 6269   2.380   5.324   1.457
 2526W        W 6270  10.047   4.873  11.849
 2527W        W 6271   8.123   2.458   1.435
 2528W        W 6272   9.162   3.641   9.177
 2529W        W 6273   6.272   2.905   1.168
 2530W        W 6274  10.284   1.281   9.974
 2531W        W 6275  10.427   2.406   1.907
 2532W        W 6276   6.478   2.789   2.805
 2533W        W 6277   8.468   7.165   8.853
 2534W        W 6278   9.977  10.279   2.726
 2535W        W 6279   0.808   6.813   1.156
 2536W        W 6280   3.252   0.227  10.035
 2537W        W 6281   2.156   2.691   3.437
 2538W        W 6282   4.062   5.272   0.452
 2539W        W 6283   6.219   6.932   9.077
 2540W        W 6284   2.870   4.151   9.910
 2541W        W 6285   3.207   9.700   9.912
 2542W        W 6286   5.964   6.640  11.325
 2543W        W 6287   8.155   4.044  11.838
 2544W        W 6288   7.240   5.593   1.187
 2545W        W 6289   0.906   9.148   9.424
 2546W        W 6290   5.223   0.288   1.932
 2547W        W 6291   6.248   1.205  10.046
 2548W        W 6292   7.875   5.441   1.746
 2549W        W 6293   7.440   8.100   3.049
 2550W        W 6294   5.456   7.835   3.726
 2551W        W 6295   7.039   6.079   0.035
 2552W        W 6296   1.893   4.254   9.858
 2553W        W 6297   5.001   2.931   8.557
 2554W        W 6298   3.155   3.467   3.077
 2555W        W 6299   9.288   9.225   3.294
 2556W        W 6300   6.289   4.930   2.103
 2557W        W 6301   4.513   7.700  11.444
 2558W        W 6302   9.008   4.515  11.034
 2559W        W 6303   8.554   9.277  11.137
 2560W        W 6304   5.966   3.498   9.878
 2561W        W 6305  10.269   0.420   3.176
 2562W        W 6306   3.586   2.254   8.745
 2563W        W 6307   8.146   9.328  11.505
 2564W        W 6308   4.720   8.366   0.446
 2565W        W 6309   8.960   1.516   1.561
 2566W        W 6310   6.944   0.843  10.958
 2567W        W 6311   4.597   6.652   9.084
 2568W        W 6312   9.156   3.449   2.074
 2569W        W 6313   8.457   7.454   0.354
 2570W        W 6314   4.676   9.081  10.108
 2571W        W 6315   1.910   6.465   3.606
 2572W        W 6316   5.205   1.287   2.503
 2573W        W 6317   3.632   8.399  10.875
 2574W        W 6318   5.617   1.711   0.544
 2575W        W 6319   3.825   7.514   9.762
 2576W        W 6320   5.629   5.143   1.318
 2577W        W 6321   9.402   7.902   2.070
 2578W        W 6322   7.223   1.361   9.772
 2579W        W 6323   8.514   6.751   9.977
 2580W        W 6324   9.852   9.746   2.814
 2581W        W 6325   4.052   1.526  11.559
 2582W        W 6326   0.717   6.144   9.912
 2583W        W 6327   1.383   8.482  11.084
 2584W        W 6328   3.341   1.456  10.589
 2585W        W 6329   0.019  10.485   9.673
 2586W        W 6330   2.649   4.912   3.593
 2587W        W 6331   5.748   0.730  10.509
 2588W        W 6332   0.780   4.339   1.736
 2589W        W 6333   6.002   7.311   9.559
 2590W        W 6334   0.854   4.649   8.675
 2591W        W 6335   4.596   8.480  11.350
 2592W        W 6336   2.215   3.194  10.699
 2593W        W 6337   6.632   8.317   1.848
 2594W        W 6338   0.338   5.733   9.987
 2595W        W 6339   9.634   5.394   0.478
 2596W        W 6340   9.799   3.066   0.069
 2597W        W 6341   4.314   9.526  11.868
 2598W        W 6342   1.737   3.659  10.438
 2599W        W 6343   0.384   0.507   0.329
 2600W        W 6344   1.711   5.783   8.812
 2601W        W 6345  10.207   2.812  11.949
 2602W        W 6346   5.803   2.489   9.947
 2603W        W 6347   6.583   2.945   1.916
 2604W        W 6348   6.486   3.920  10.345
 2605W        W 6349   7.533   2.219   8.766
 2606W        W 6350   6.518  10.361  10.111
 2607W        W 6351   2.283   9.540   9.310
 2608W        W 6352   4.761   6.445   1.349
 2609W        W 6353   3.598  10.421  10.311
 2610W        W 6354   2.931   5.646   3.102
 2611W        W 6355   6.325  10.292   3.252
 2612W        W 6356   9.492   3.067   2.864
 2613W        W 6357   8.052   1.799   8.807
 2614W        W 6358   8.929   9.535   9.799
 2615W        W 6359   9.462   2.229   1.733
 2616W        W 6360   8.525   0.245   8.866
 2617W        W 6361   5.388   9.572   9.826
 2618W        W 6362   6.974   2.191   3.273
 2619W        W 6363   7.881   3.880  11.334
 2620W        W 6364   1.134   1.397  11.214
 2621W        W 6365   7.079   5.026  11.813
 2622W        W 6366   8.299   7.112   1.215
 2623W        W 6367   4.231   6.529   1.084
 2624W        W 6368   2.742   9.902  10.011
 2625W        W 6369   5.442   7.623   1.667
 2626W        W 6370   7.114   5.736  10.227
 2627W        W 6371   8.426   0.731   8.718
 2628W        W 6372   7.270   9.273   9.286
 2629W        W 6373   6.053   1.988  11.214
 2630W        W 6374   7.341   5.187  10.237
 2631W        W 6375   1.980   9.933   0.634
 2632W        W 6376   9.978   9.308  11.878
 2633W        W 6377   4.601   0.679  10.645
 2634W        W 6378   9.841   9.459  10.803
 2635W        W 6379   9.488   1.808   2.407
 2636W        W 6380   9.543   0.409   9.100
 2637W        W 6381   5.195   1.933  10.252
 2638W        W 6382   2.790   9.292   2.515
 2639W        W 6383   1.121   0.976   0.700
 2640W        W 6384   5.947   3.018   9.032
 2641W        W 6385   6.521  10.171  11.597
 2642W        W 6386   6.942   8.512  10.706
 2643W        W 6387   0.364   2.664  10.047
 2644W        W 6388   2.436   9.541   0.614
 2645W        W 6389   0.519   7.431  10.987
 2646W        W 6390   3.792   0.421   2.529
 2647W        W 6391   5.237   5.045  11.852
 2648W        W 6392   3.730   6.726   9.704
 2649W        W 6393   9.766   6.620   9.501
 2650W        W 6394   0.010   3.370   0.813
 2651W        W 6395   9.466   9.824  10.723
 2652W        W 6396   2.225  10.436  10.277
 2653W        W 6397   0.202   3.351  11.030
 2654W        W 6398   6.116   1.113   2.733
 2655W        W 6399   2.865   6.040   1.426
 2656W        W 6400   5.639   0.076   0.890
 2657W        W 6401   8.957   4.745   2.923
 2658W        W 6402   8.521   4.134   2.855
 2659W        W 6403   3.655   7.116  10.041
 2660W        W 6404   5.252   6.484   9.847
 2661W        W 6405   6.114   7.713   0.099
 2662W        W 6406   7.556   3.923   2.554
 2663W        W 6407   6.077   1.481   0.528
 2664W        W 6408   4.625   8.364   2.121
 2665W        W 6409   7.064   4.828   2.032
 2666W        W 6410   7.958   7.651   3.647
 2667W        W 6411   8.501   3.401   0.507
 2668W        W 6412   5.584   6.474  10.517
 2669W        W 6413   6.339   8.199   8.689
 2670W        W 6414   9.296   4.281   1.880
 2671W        W 6415   4.494   3.224   1.433
 2672W        W 6416   4.216   8.052  10.787
 2673W        W 6417   9.457   6.742   3.059
 2674W        W 6418   1.489   1.928   0.761
 2675W        W 6419   9.747   9.025   1.835
 2676W        W 6420   6.824   8.277   8.395
 2677W        W 6421  10.308   2.749  11.451
 2678W        W 6422   1.833   0.395   0.508
 2679W        W 6423   8.871   5.498   1.899
 2680W        W 6424   0.247   1.326  11.769
 2681W        W 6425   1.631   4.161   2.653
 2682W        W 6426   8.485   4.582   1.621
 2683W        W 6427   6.673   4.460  10.572
 2684W        W 6428   6.688   3.139  11.540
 2685W        W 6429   7.627   0.478   1.237
 2686W        W 6430   9.884   9.110  10.414
 2687W        W 6431  10.355   2.587  10.975
 2688W        W 6432   4.485   5.579   0.370
 2689W        W 6433   1.379   6.001   1.652
 2690W        W 6434   2.214   1.265   0.671
 2691W        W 6435   3.686   1.882   9.574
 2692W        W 6436   9.654   1.890   2.920
 2693W        W 6437   8.387   5.699  11.569
 2694W        W 6438   9.841   1.659   8.828
 2695W        W 6439   0.241   5.070   8.789
 2696W        W 6440   0.308   4.952  10.613
 2697W        W 6441   5.876   7.579   3.860
 2698W        W 6442   8.491   7.569   1.360
 2699W        W 6443   9.225   8.106   9.712
 2700W        W 6444   1.085   7.659   2.623
 2701W        W 6445   4.192   8.900   1.721
 2702W        W 6446   8.824   0.560   1.903
 2703W        W 6447   0.813   9.481  10.026
 2704W        W 6448   4.981   3.986   3.229
 2705W        W 6449   7.456   5.535  11.484
 2706W        W 6450   1.159   4.310  10.354
 2707W        W 6451   2.323   2.666  11.950
 2708W        W 6452   4.503   6.541   0.310
 2709W        W 6453   0.390   9.818   1.243
 2710W        W 6454   2.178   7.234   3.177
 2711W        W 6455   9.749   6.467  11.731
 2712W        W 6456   7.933   8.485   9.236
 2713W        W 6457   7.521   4.745   2.259
 2714W        W 6458   4.361   4.216   9.922
 2715W        W 6459   5.804   9.305   9.636
 2716W        W 6460   8.622   9.378  11.640
 2717W        W 6461   3.104   1.513   0.371
 2718W        W 6462   9.458   6.212  11.269
 2719W        W 6463   9.203   0.694   9.376
 2720W        W 6464   8.361   3.302  10.262
 2721W        W 6465   1.832   0.669  10.335
 2722W        W 6466   3.506   6.923   0.708
 2723W        W 6467   1.387   5.608  11.978
 2724W        W 6468   8.840   7.148   0.629
 2725W        W 6469   0.366   0.230  10.404
 2726W        W 6470   8.610   4.787  11.879
 2727W        W 6471   2.701   9.786   1.768
 2728W        W 6472   7.858   5.256   8.566
 2729W        W 6473  10.322   5.237  11.610
 2730W        W 6474   7.428   6.978   9.171
 2731W        W 6475   2.110  10.291   2.136
 2732W        W 6476   8.594   7.820  10.143
 2733W        W 6477   1.883   6.192   1.585
 2734W        W 6478   6.383   0.681   2.713
 2735W        W 6479   3.202   9.599   2.667
 2736W        W 6480   5.816   4.528   0.870
 2737W        W 6481   0.422  10.364   0.254
 2738W        W 6482   6.202   1.640   1.858
 2739W        W 6483   1.882   8.585   9.102
 2740W        W 6484   6.583  10.293  11.120
 2741W        W 6485   9.257   2.366   0.862
 2742W        W 6486   3.187   0.973  10.440
 2743W        W 6487   1.516   1.011   2.060
 2744W        W 6488   8.718   8.199   9.830
 2745W        W 6489   6.118   4.293  10.983
 2746W        W 6490   3.785   7.667  11.440
 2747W        W 6491   0.474   1.859   0.052
 2748W        W 6492   8.005   3.143   8.874
 2749W        W 6493   7.022   9.181   1.039
 2750W        W 6494   7.591   0.563   2.896
 2751W        W 6495  10.479   4.671   9.997
 2752W        W 6496   9.390   9.375   9.923
 2753W        W 6497   7.479   0.150  11.313
 2754W        W 6498   7.840   6.972   1.397
 2755W        W 6499  10.309   1.210  10.959
 2756W        W 6500   5.151   1.335  10.510
 2757W        W 6501   3.053  10.256   9.155
 2758W        W 6502   0.964   7.059   8.568
 2759W        W 6503   7.093   8.851   0.646
 2760W        W 6504   2.287   8.825   1.533
 2761W        W 6505  10.282   6.076   3.475
 2762W        W 6506   0.365   0.942   0.084
 2763W        W 6507  10.363   4.131  10.571
 2764W        W 6508   8.593   2.631   1.190
 2765W        W 6509   8.414   0.232   9.745
 2766W        W 6510   0.661   7.363   9.329
 2767W        W 6511   8.378   5.542   1.731
 2768W        W 6512   8.701   4.171   9.114
 2769W        W 6513   0.828   3.709   9.348
 2770W        W 6514   6.177   4.416   2.131
 2771W        W 6515   8.387   6.532  11.469
 2772W        W 6516   2.553   4.730  11.272
 2773W        W 6517   9.938   6.935   1.885
 2774W        W 6518   8.274   9.647   0.406
 2775W        W 6519   3.423   3.265  10.120
 2776W        W 6520   0.086   6.008   1.286
 2777W        W 6521   2.021   8.258   0.396
 2778W        W 6522  10.423   6.433   1.549
 2779W        W 6523   6.849   5.308  10.180
 2780W        W 6524   2.656   5.997   0.962
 2781W        W 6525   7.469   5.885  10.785
 2782W        W 6526   6.154  10.001   1.555
 2783W        W 6527   9.150   1.804   2.799
 2784W        W 6528   8.595   5.069   1.752
 2785W        W 6529   0.293   8.513   2.933
 2786W        W 6530   8.360   9.731  11.309
 2787W        W 6531   5.723   7.092   9.174
 2788W        W 6532   7.246   1.841  10.008
 2789W        W 6533   6.111   8.647  10.507
 2790W        W 6534   1.760   5.990   3.516
 2791W        W 6535   5.919   4.100   3.114
 2792W        W 6536   7.026   0.698   0.719
 2793W        W 6537   2.521   8.275   0.534
 2794W        W 6538   9.769   5.929   1.829
 2795W        W 6539   8.418   9.086   3.487
 2796W        W 6540   8.533   2.859  10.488
 2797W        W 6541   3.285   3.248   8.585
 2798W        W 6542   3.137   2.234  11.113
 2799W        W 6543   9.063   1.215   8.687
 2800W        W 6544   8.903   7.018   1.897
 2801W        W 6545   0.205   3.087  10.396
 2802W        W 6546  10.415   8.223   2.125
 2803W        W 6547   2.176   6.410  11.616
 2804W        W 6548  10.448   6.045   9.444
 2805W        W 6549   3.064   2.406   0.117
 2806W        W 6550   3.918   3.307   0.503
 2807W        W 6551   5.571   3.299  11.616
 2808W        W 6552   8.550   8.580   2.808
 2809W        W 6553   8.792  10.329   8.977
 2810W        W 6554   1.914   8.021   1.781
 2811W        W 6555   5.308   9.573   3.400
 2812W        W 6556   3.860   2.328   9.804
 2813W        W 6557   4.527   7.931   0.582
 2814W        W 6558   8.128   1.693  10.302
 2815W        W 6559   9.844   0.515  10.332
 2816W        W 6560   9.865   0.954  10.064
 2817W        W 6561   5.944   2.717   8.380
 2818W        W 6562   7.966   8.872   1.210
 2819W        W 6563   1.278   4.268   3.475
 2820W        W 6564   6.036  -0.000   0.220
 2821W        W 6565   9.996   7.397   9.939
 2822W        W 6566   1.186   8.931   1.018
 2823W        W 6567   8.355  10.454   0.843
 2824W        W 6568   3.169   5.282   1.503
 2825W        W 6569   1.886   3.722   1.805
 2826W        W 6570   8.464   6.074   1.675
 2827W        W 6571   0.008   0.183   0.261
 2828W        W 6572   0.034   1.157   8.482
 2829W        W 6573   7.615   1.063  10.336
 2830W        W 6574   7.804   6.193   0.999
 2831W        W 6575   4.078   9.011   1.235
 2832W        W 6576  10.107   2.653   0.853
 2833W        W 6577   9.505   8.893   0.517
 2834W        W 6578   1.067   5.167   9.317
 2835W        W 6579   5.962   8.823   9.842
 2836W        W 6580   9.409   2.321   0.374
 2837W        W 6581   8.064   6.180   8.846
 2838W        W 6582   7.184   5.465  10.640
 2839W        W 6583   8.358   5.425   3.480
 2840W        W 6584   0.305   9.953  11.926
 2841W        W 6585   9.320   5.357   9.694
 2842W        W 6586   3.298   1.293   9.067
 2843W        W 6587   1.026   4.786   1.947
 2844W        W 6588   8.576   6.183   3.144
 2845W        W 6589   9.421   6.295   9.302
 2846W        W 6590   6.948  10.434   0.304
 2847W        W 6591   0.010   0.784   2.379
 2848W        W 6592   6.685   7.818  11.957
 2849W        W 6593   5.304   1.427  11.502
 2850W        W 6594   6.257   8.872   2.929
 2851W        W 6595   1.408   0.972  10.032
 2852W        W 6596   7.929   2.151   2.328
 2853W        W 6597   0.977   5.863   0.333
 2854W        W 6598   8.665   0.021   0.455
 2855W        W 6599   4.637   8.934   9.615
 2856W        W 6600   5.548   3.205   0.160
 2857W        W 6601   1.823   6.732  11.248
 2858W        W 6602   4.125   6.352   0.601
 2859W        W 6603   3.458  10.046   0.014
 2860W        W 6604   2.588   4.090  10.342
 2861W        W 6605   5.285   8.692   3.763
 2862W        W 6606   0.489   8.957   2.051
 2863W        W 6607   1.329   2.015  11.855
 2864W        W 6608   0.400   7.154   2.872
 2865W        W 6609   3.223   1.830   9.864
 2866W        W 6610   7.256   0.384  10.015
 2867W        W 6611   4.732   3.119  10.247
 2868W        W 6612   4.557   9.437   9.586
 2869W        W 6613   8.474   4.382   3.544
 2870W        W 6614   8.593   3.866   0.045
 2871W        W 6615   9.272   1.749   3.326
 2872W        W 6616   3.053   2.664   1.075
 2873W        W 6617   1.288  10.346   9.257
 2874W        W 6618   6.628   5.666   0.930
 2875W        W 6619   4.424   5.830  11.398
 2876W        W 6620   7.968   8.151  10.836
 2877W        W 6621   1.384   4.744  11.841
 2878W        W 6622   1.901   9.908   1.125
 2879W        W 6623   3.010   9.156  11.882
 2880W        W 6624   8.809   9.512   0.295
 2881W        W 6625   4.170   7.415  10.127
 2882W        W 6626   8.501   1.341  10.441
 2883W        W 6627   3.036   0.056   2.085
 2884W        W 6628   0.421   7.098   1.910
 2885W        W 6629   9.291   9.301   1.934
 2886W        W 6630   7.405   0.086   1.475
 2887W        W 6631   1.086   8.264   1.916
 2888W        W 6632   5.047   8.740   9.302
 2889W        W 6633   4.579   9.096  11.978
 2890W        W 6634   1.498   9.320   1.159
 2891W        W 6635   2.808   9.494   9.240
 2892W        W 6636   5.928   8.017   8.946
 2893W        W 6637   7.857   9.761  10.433
 2894W        W 6638   6.174   4.219   0.712
 2895W        W 6639   3.332   0.464  10.470
 2896W        W 6640   8.285   2.328   1.964
 2897W        W 6641   4.621   2.638   1.894
 2898W        W 6642  10.164   5.230   0.505
 2899W        W 6643   6.776   1.686  10.559
 2900W        W 6644   2.091   2.169   1.440
 2901W        W 6645   8.347   6.939  11.790
 2902W        W 6646   6.905   6.595  10.301
 2903W        W 6647   8.065   5.216  10.943
 2904W        W 6648   8.784   5.703   1.453
 2905W        W 6649   4.073   4.684  11.643
 2906W        W 6650   6.014   5.297   9.629
 2907W        W 6651   9.859   4.174  11.406
 2908W        W 6652   4.298   3.077   9.980
 2909W        W 6653   1.574   4.573  11.120
 2910W        W 6654   2.399   4.284   3.297
 2911W        W 6655   7.152   6.935  11.219
 2912W        W 6656   5.637   4.214   2.671
 2913W        W 6657   2.825   9.333   0.881
 2914W        W 6658   3.043   4.786   1.144
 2915W        W 6659  10.303   3.499   1.279
 2916W        W 6660   4.885   8.647   2.508
 2917W        W 6661   5.186   0.483   0.285
 2918W        W 6662   8.208   3.702   8.035
 2919W        W 6663   7.885   6.890   3.514
 2920W        W 6664   2.694   9.459   9.734
 2921W        W 6665  10.165   5.968  10.743
 2922W        W 6666   9.805   5.533   2.616
 2923W        W 6667   5.129   7.570   9.553
 2924W        W 6668   3.582   4.008   9.403
 2925W        W 6669   1.110   0.113  11.686
 2926W        W 6670   1.676  10.269   0.370
 2927W        W 6671  10.459   7.469  10.103
 2928W        W 6672   7.703   6.582   9.025
 2929W        W 6673   8.318   5.802   1.263
 2930W        W 6674   4.590   6.288  11.868
 2931W        W 6675   3.380   4.519  11.130
 2932W        W 6676   9.986   1.328   9.192
 2933W        W 6677   0.214   5.273  10.223
 2934W        W 6678   0.981   1.617  10.712
 2935W        W 6679   1.678   7.427   1.969
 2936W        W 6680   0.219   0.389  10.864
 2937W        W 6681   7.011   4.878   0.710
 2938W        W 6682   6.850   8.778   1.847
 2939W        W 6683   4.545   8.543   9.290
 2940W        W 6684   7.525   4.775   1.388
 2941W        W 6685   4.181   8.292   0.497
 2942W        W 6686   5.129   3.191  11.874
 2943W        W 6687   4.702   6.008   1.689
 2944W        W 6688   8.631   8.075   9.332
 2945W        W 6689   0.194   4.480  10.421
 2946W        W 6690   6.376   2.032  10.522
 2947W        W 6691   0.208   7.992   0.743
 2948W        W 6692   9.814   0.380  11.307
 2949W        W 6693   8.475   7.509  10.528
 2950W        W 6694   1.180   5.196  11.757
 2951W        W 6695   6.539   3.752   2.357
 2952W        W 6696   5.208   7.388   2.620
 2953W        W 6697   3.844   1.288  11.963
 2954W        W 6698   2.556   6.695   0.387
 2955W        W 6699   5.548   8.070   2.210
 2956W        W 6700   5.073   8.379   0.030
 2957W        W 6701   0.363   1.334   3.179
 2958W        W 6702   6.274   2.135  10.029
 2959W        W 6703   8.125   5.517   2.197
 2960W        W 6704   4.252   4.806   0.352
 2961W        W 6705   1.296   2.807   1.939
 2962W        W 6706   0.301   4.258   3.305
 2963W        W 6707   5.271   3.493  11.206
 2964W        W 6708   1.968   8.287  10.628
 2965W        W 6709   5.687   2.114  10.273
 2966W        W 6710   9.042   1.207   9.244
 2967W        W 6711   9.296   7.919  10.645
 2968W        W 6712   7.818   6.033   3.675
 2969W        W 6713   4.217   2.084  10.234
 2970W        W 6714   0.558   8.543   1.283
 2971W        W 6715   8.547   5.117   0.787
 2972W        W 6716   9.050   1.833   8.141
 2973W        W 6717   4.071   3.236  10.800
 2974W        W 6718   4.171   6.110  10.158
 2975W        W 6719   2.261   7.905   8.783
 2976W        W 6720   0.431   4.686   3.605
 2977W        W 6721   1.656   9.486   2.479
 2978W        W 6722   3.788   1.394   9.850
 2979W        W 6723   9.735   8.408   3.347
 2980W        W 6724   0.929   3.215   9.474
 2981W        W 6725   7.033   4.076   1.330
 2982W        W 6726   0.702   2.771   9.198
 2983W        W 6727   5.143   4.050   2.751
 2984W        W 6728   3.001   6.906   0.634
 2985W        W 6729   4.023   6.861   0.716
 2986W        W 6730   9.104   4.613   9.336
 2987W        W 6731   3.740   5.773   9.464
 2988W        W 6732   5.511   4.299   8.704
 2989W        W 6733   7.904   2.655   3.228
 2990W        W 6734   1.708   1.671  10.549
 2991W        W 6735   3.673   7.139  11.456
 2992W        W 6736   8.383   2.421   3.514
 2993W        W 6737   6.988   0.469  11.388
 2994W        W 6738   2.382   8.451  10.391
 2995W        W 6739   1.650   3.550   0.312
 2996W        W 6740   3.172   6.452   8.976
 2997W        W 6741  10.357   4.190  11.249
 2998W        W 6742   5.209   2.311   3.688
 2999W        W 6743   4.254   3.342   3.220
 3000W        W 6744   3.602   5.901  11.829
 3001W        W 6745   9.527   4.111   0.807
 3002W        W 6746   6.195   5.726   0.557
 3003W        W 6747   0.956   3.300  11.795
 3004W        W 6748   2.739   4.982   1.507
 3005W        W 6749   0.886   7.096  11.095
 3006W        W 6750   3.250   5.893  10.085
 3007W        W 6751   8.567   1.830   1.881
 3008W        W 6752   6.622   9.811   1.503
 3009W        W 6753   7.052  10.405   9.927
 3010W        W 6754   4.998   9.363  11.739
 3011W        W 6755   4.236   7.038   1.960
 3012W        W 6756   7.829   9.617   0.824
 3013W        W 6757   7.115   8.566   8.693
 3014W        W 6758  10.044   5.723   0.399
 3015W        W 6759  10.046   3.500   8.449
 3016W        W 6760   1.265   3.372   3.116
 3017W        W 6761   4.250   6.155   1.463
 3018W        W 6762   4.728   7.495   0.463
 3019W        W 6763   0.979   5.542   8.970
 3020W        W 6764   5.728   0.388  10.946
 3021W        W 6765   5.522   0.985  11.805
 3022W        W 6766   8.052   8.886   8.908
 3023W        W 6767   6.023  10.347   8.988
 3024W        W 6768   1.447   0.227   0.203
 3025W        W 6769   9.747   1.383   1.256
 3026W        W 6770   8.555   5.218   2.261
 3027W        W 6771   2.694   6.030   3.418
 3028W        W 6772   4.660   3.147   9.210
 3029W        W 6773   9.911   5.250   1.279
 3030W        W 6774   5.180   0.325   0.794
 3031W        W 6775   2.820   1.782   9.015
 3032W        W 6776   5.183   5.591  10.961
 3033W        W 6777   2.638   3.087   2.593
 3034W        W 6778   9.607   2.152   3.364
 3035W        W 6779   8.975   6.539   9.277
 3036W        W 6780   1.059   9.601   0.467
 3037W        W 6781   6.482   9.966   0.105
 3038W        W 6782   4.523   4.469  11.698
 3039W        W 6783   1.800   5.886   1.196
 3040W        W 6784   5.978   8.890   9.344
 3041W        W 6785   7.557   9.611   9.521
 3042W        W 6786   3.737   7.013   1.174
 3043W        W 6787   7.036   4.052   0.801
 3044W        W 6788   8.042   5.031   2.067
 3045W        W 6789   8.468   0.293  10.451
 3046W        W 6790   6.542   4.041  10.849
 3047W        W 6791   4.635   0.851   8.583
 3048W        W 6792   8.927   1.788  11.672
 3049W        W 6793  10.186   7.507   3.094
 3050W        W 6794   3.193   4.942   3.163
 3051W        W 6795   5.922   3.575   3.278
 3052W        W 6796   1.498   7.567  10.802
 3053W        W 6797   0.444   2.255  11.715
 3054W        W 6798   4.683   9.606   1.335
 3055W        W 6799   8.049   3.407  11.332
 3056W        W 6800   5.178   7.497   9.038
 3057W        W 6801   2.202  10.334   1.209
 3058W        W 6802   1.952   5.151   1.724
 3059W        W 6803   9.087   5.035  10.947
 3060W        W 6804   4.601   2.525   1.035
 3061W        W 6805   1.908   3.184  11.530
 3062W        W 6806   3.783   6.252  11.487
 3063W        W 6807  10.321   1.793   9.626
 3064W        W 6808   1.284   3.889  10.606
 3065W        W 6809   9.445   5.517  10.156
 3066W        W 6810  10.011   5.633   3.210
 3067W        W 6811   6.618   6.148   2.275
 3068W        W 6812   3.842   7.119   8.844
 3069W        W 6813   3.103   6.366  11.329
 3070W        W 6814   1.861   5.030   8.867
 3071W        W 6815   2.597   3.666  10.084
 3072W        W 6816   7.988   9.830   8.776
 3073W        W 6817   4.275   8.409  10.419
 3074W        W 6818   0.716   7.890  10.981
 3075W        W 6819  10.484   7.024   9.805
 3076W        W 6820   4.206   9.390   1.603
 3077W        W 6821   2.028   0.273  11.376
 3078W        W 6822   8.162   2.909   1.190
 3079W        W 6823   2.032   8.504   1.820
 3080W        W 6824   1.180   1.320  10.332
 3081W        W 6825   7.465   6.611   2.468
 3082W        W 6826   7.449   0.873   8.577
 3083W        W 6827   6.750   1.797   1.250
 3084W        W 6828   0.196   7.061   9.322
 3085W        W 6829   2.802   1.267   9.310
 3086W        W 6830   7.490   4.086   0.253
 3087W        W 6831   2.578   2.785   8.942
 3088W        W 6832   4.409   0.654   3.227
 3089W        W 6833   7.475   5.534   0.379
 3090W        W 6834   3.327   7.479   9.842
 3091W        W 6835   4.818   0.370   8.651
 3092W        W 6836   0.502   9.476   9.190
 3093W        W 6837   3.547   8.654  11.302
 3094W        W 6838   6.508   0.015   0.973
 3095W        W 6839  10.259   5.166   9.264
 3096W        W 6840   2.584   1.461   0.385
 3097W        W 6841   7.212   7.478   9.936
 3098W        W 6842   3.898   6.586   2.790
 3099W        W 6843   3.324   1.750   1.247
 3100W        W 6844   7.481   0.151   0.282
 3101W        W 6845   6.458   5.524   9.478
 3102W        W 6846   9.140   5.856   2.237
 3103W        W 6847   4.493   9.901   3.166
 3104W        W 6848   5.923   7.594  11.299
 3105W        W 6849   6.693   3.419  10.283
 3106W        W 6850   9.234   1.216   3.356
 3107W        W 6851   6.751   2.779  11.952
 3108W        W 6852   3.134   6.084  10.902
 3109W        W 6853   7.435   0.083   9.344
 3110W        W 6854   1.929   4.479   2.399
 3111W        W 6855   5.712   5.610   9.966
 3112W        W 6856   6.483   6.364   2.708
 3113W        W 6857   3.466   0.058   9.264
 3114W        W 6858   8.509   9.044   3.004
 3115W        W 6859   0.690   0.220   3.450
 3116W        W 6860   9.470   4.643   8.991
 3117W        W 6861   3.970   2.944   3.114
 3118W        W 6862   2.223   9.061   0.757
 3119W        W 6863   2.282   1.984   9.142
 3120W        W 6864   2.888   9.521  10.633
 3121W        W 6865   1.324   9.913   8.949
 3122W        W 6866   9.054   7.495   2.089
 3123W        W 6867   7.422   1.476   3.157
 3124W        W 6868   8.989   2.165   9.088
 3125W        W 6869   0.771   6.368   9.361
 3126W        W 6870   0.017  10.464  10.678
 3127W        W 6871   9.749   7.236   2.241
 3128W        W 6872   2.582   7.642   1.931
 3129W        W 6873   5.923   2.547   8.870
 3130W        W 6874   2.724   9.520   0.175
 3131W        W 6875   4.232   8.222   2.406
 3132W        W 6876   9.960   3.301   2.941
 3133W        W 6877   3.786   9.457  10.789
 3134W        W 6878   0.244   4.437  11.510
 3135W        W 6879   6.576   4.616   9.687
 3136W        W 6880   7.487  10.425   1.932
 3137W        W 6881   0.150   0.446  11.840
 3138W        W 6882   6.471   3.097  11.061
 3139W        W 6883   0.068   9.472   0.854
 3140W        W 6884   8.310   8.400   9.559
 3141W        W 6885   3.776   6.491  10.160
 3142W        W 6886   7.334   5.612   1.688
 3143W        W 6887   1.444   8.941   8.461
 3144W        W 6888   8.447   1.654  11.423
 3145W        W 6889   1.753   3.683  11.443
 3146W        W 6890   6.230   1.508   0.018
 3147W        W 6891   2.716   6.951   2.461
 3148W        W 6892   0.035   1.837  10.617
 3149W        W 6893   7.214   6.185   8.552
 3150W        W 6894   8.874   6.943  10.268
 3151W        W 6895   0.802   6.805   1.657
 3152W        W 6896   7.566  10.249   0.607
 3153W        W 6897   5.323   3.823   8.632
 3154W        W 6898   9.497   0.071  10.437
 3155W        W 6899   2.297   8.103   2.590
 3156W        W 6900   1.656   8.658   2.129
 3157W        W 6901   8.202   2.580  11.986
 3158W        W 6902   4.671   5.212  10.328
 3159W        W 6903   0.046   0.847  10.682
 3160W        W 6904   9.917   4.494   0.789
 3161W        W 6905   0.918   6.587   0.715
 3162W        W 6906   7.398   9.482  10.579
 3163W        W 6907   5.142  10.291   2.024
 3164W        W 6908  10.456   6.384   2.055
 3165W        W 6909   3.022   1.867  11.955
 3166W        W 6910   4.841   3.367   8.803
 3167W        W 6911   7.701   0.939   1.471
 3168W        W 6912   5.739   2.683  10.915
 3169W        W 6913   3.106   6.246   2.757
 3170W        W 6914   6.333   9.065   0.361
 3171W        W 6915   6.181   4.309  10.492
 3172W        W 6916   2.323   8.119   2.076
 3173W        W 6917   7.634   9.930  11.839
 3174W        W 6918   5.132   5.529   1.171
 3175W        W 6919   4.186   1.573  10.170
 3176W        W 6920   3.610   5.220   2.747
 3177W        W 6921   6.147   0.197   9.339
 3178W        W 6922   4.118   1.367   9.073
 3179W        W 6923   4.955   2.707   0.713
 3180W        W 6924   0.935   8.429   9.926
 3181W        W 6925  10.371   8.223   8.995
 3182W        W 6926   2.264   5.645   9.485
 3183W        W 6927   0.924   0.989   9.236
 3184W        W 6928   2.534   4.202   0.452
 3185W        W 6929   5.586   8.053  10.371
 3186W        W 6930   6.889   3.019   2.656
 3187W        W 6931   3.299   4.544  10.617
 3188W        W 6932   6.926   5.392  11.488
 3189W        W 6933   0.483   3.775  11.008
 3190W        W 6934   9.870   1.400   9.690
 3191W        W 6935   6.263   5.631   9.987
 3192W        W 6936   5.970   5.069   1.700
 3193W        W 6937   8.924   8.087  11.675
 3194W        W 6938   8.535   8.555   1.765
 3195W        W 6939   6.621   1.285   8.915
 3196W        W 6940   2.127   9.662   0.231
 3197W        W 6941   5.170   7.552   0.955
 3198W        W 6942   4.169   6.170   8.834
 3199W        W 6943   8.103   0.451   9.086
 3200W        W 6944   2.771   4.466   1.442
 3201W        W 6945   2.643   4.515   8.254
 3202W        W 6946   2.166   1.506  11.673
 3203W        W 6947   6.005   6.128  10.531
 3204W        W 6948   3.139   4.135  10.340
 3205W        W 6949   3.187   0.359   0.230
 3206W        W 6950   9.935  10.256   0.455
 3207W        W 6951   8.876   8.827   1.282
 3208W        W 6952   7.246   3.567   3.732
 3209W        W 6953   9.348   6.909  10.432
 3210W        W 6954   0.637   8.451  11.656
 3211W        W 6955   4.591   7.148   9.993
 3212W        W 6956   8.129   9.539  10.878
 3213W        W 6957   9.439   7.552   0.358
 3214W        W 6958   3.178   8.344   9.015
 3215W        W 6959   1.920   8.509  11.954
 3216W        W 6960   6.061   9.502   0.341
 3217W        W 6961   4.052   4.890  10.465
 3218W        W 6962   4.611   9.113   1.924
 3219W        W 6963   8.380   5.103   3.005
 3220W        W 6964   0.241   5.528   1.445
 3221W        W 6965   4.062   9.705  11.450
 3222W        W 6966   1.490   3.491   3.605
 3223W        W 6967   0.681   7.490   8.744
 3224W        W 6968   1.356   5.591  10.976
 3225W        W 6969   9.440   6.172   1.459
 3226W        W 6970   4.764  10.373  11.853
 3227W        W 6971   0.862   6.116   1.839
 3228W        W 6972   0.444   9.984  10.877
 3229W        W 6973   7.890   0.174   0.908
 3230W        W 6974   5.618   8.017   9.571
 3231W        W 6975   6.320   5.421   1.830
 3232W        W 6976   9.919   3.742   2.700
 3233W        W 6977   2.846   5.117  11.480
 3234W        W 6978   8.435   9.716   9.662
 3235W        W 6979   9.902   0.375   1.320
 3236W        W 6980   6.365   9.438  10.839
 3237W        W 6981   9.280   4.941   0.273
 3238W        W 6982   0.762   3.630   0.280
 3239W        W 6983   4.999   4.829  10.294
 3240W        W 6984  10.398   8.021  11.365
 3241W        W 6985   6.779   1.213  10.025
 3242W        W 6986   0.620   1.634   0.495
 3243W        W 6987   1.983   6.318   9.564
 3244W        W 6988   6.064   9.356  11.430
 3245W        W 6989  10.197   7.343   9.476
 3246W        W 6990   6.145   3.488   8.925
 3247W        W 6991   3.805   6.339   8.451
 3248W        W 6992   2.849   6.110   1.938
 3249W        W 6993   5.232   6.936   2.375
 3250W        W 6994   7.798   4.411   0.747
 3251W        W 6995   8.094   9.784   2.908
 3252W        W 6996   6.792   6.507   8.587
 3253W        W 6997  10.239   9.061   0.927
 3254W        W 6998   9.081   8.051  10.200
 3255W        W 6999   5.202   0.371   8.986
 3256W        W 7000   0.406   2.003   2.683
 3257W        W 7001   5.993   5.096   2.800
 3258W        W 7002   3.631   7.873   3.049
 3259W        W 7003   2.857   0.254   3.002
 3260W        W 7004   9.380   1.219   1.604
 3261W        W 7005   7.931   3.305   9.975
 3262W        W 7006   8.205   1.038   1.349
 3263W        W 7007   3.156   4.995   2.359
 3264W        W 7008   6.688   0.999   2.952
 3265W        W 7009   6.111   8.112  10.541
 3266W        W 7010   1.907   5.573   3.233
 3267W        W 7011   7.229   5.457   9.792
 3268W        W 7012  10.494   5.308   1.034
 3269W        W 7013   0.690   5.270  11.656
 3270W        W 7014   9.105  10.296   0.416
 3271W        W 7015   8.658   4.663  10.286
 3272W        W 7016   9.992   0.291   3.586
 3273W        W 7017   5.304   8.403   9.580
 3274W        W 7018   9.613   6.697  11.302
 3275W        W 7019   7.865   4.232  10.459
 3276W        W 7020   8.386   6.969   9.485
 3277W        W 7021   7.357   6.268   3.741
 3278W        W 7022   5.534   3.790   2.958
 3279W        W 7023   5.796   5.796   0.260
 3280W        W 7024   3.111   2.713   1.569
 3281W        W 7025   5.108   6.748   8.955
 3282W        W 7026   7.896   4.236   9.564
 3283W        W 7027   2.699   6.675   8.993
 3284W        W 7028   3.605   9.490  11.293
 3285W        W 7029   7.919   0.393  11.466
 3286W        W 7030   7.797   5.587   8.166
 3287W        W 7031   8.618   5.421   9.235
 3288W        W 7032   8.302   0.497   3.715
 3289W        W 7033   2.653   6.457   2.620
 3290W        W 7034   5.334   5.579   3.155
 3291W        W 7035   7.472   0.536   3.387
 3292W        W 7036   3.757   9.163   1.771
 3293W        W 7037   6.601   6.013   9.271
 3294W        W 7038   6.444   8.621   2.209
 3295W        W 7039   0.110   8.471  11.536
 3296W        W 7040   5.925   7.125   8.173
 3297W        W 7041   1.414   2.396  10.489
 3298W        W 7042   7.438   3.434   0.824
 3299W        W 7043   0.999   1.823   2.100
 3300W        W 7044   7.371  10.351  11.710
 3301W        W 7045   6.176   3.255   1.943
 3302W        W 7046   7.928   4.758   8.948
 3303W        W 7047   4.297   9.642   0.365
 3304W        W 7048  10.067   5.476  10.823
 3305W        W 7049   6.415   8.096   2.261
 3306W        W 7050   0.009   7.440  11.004
 3307W        W 7051   1.182   0.477   9.947
 3308W        W 7052   1.665   1.790   9.296
 3309W        W 7053   5.744   1.770   2.038
 3310W        W 7054   2.996   2.815  10.802
 3311W        W 7055   9.878   5.194   2.205
 3312W        W 7056   8.557   9.801   2.093
 3313W        W 7057  10.383   9.867   1.148
 3314W        W 7058   4.329   7.113   2.955
 3315W        W 7059   3.999   6.303   3.370
 3316W        W 7060   4.334   1.398   2.329
 3317W        W 7061   9.982   9.780   0.231
 3318W        W 7062   5.239   4.761   9.280
 3319W        W 7063   2.213  10.280   8.605
 3320W        W 7064   4.719   7.504   8.622
 3321W        W 7065   3.681   7.853   0.720
 3322W        W 7066   7.410   7.645   1.287
 3323W        W 7067   8.559   9.839   3.531
 3324W        W 7068   2.710   4.978   9.044
 3325W        W 7069   6.491   9.247  11.700
 3326W        W 7070   1.882   2.621  10.421
 3327W        W 7071   8.560   1.079   3.489
 3328W        W 7072   8.197   1.202   0.033
 3329W        W 7073   5.558   3.616   0.460
 3330W        W 7074   7.017   4.501   1.048
 3331W        W 7075   2.331   0.432  10.468
 3332W        W 7076   2.770   9.433   3.547
 3333W        W 7077   0.665   0.436  10.026
 3334W        W 7078   9.331   7.455   1.241
 3335W        W 7079  10.256   7.045   0.691
 3336W        W 7080   4.722   7.675   9.208
 3337W        W 7081   0.145   7.991   9.954
 3338W        W 7082   8.143   7.558  10.128
 3339W        W 7083   9.112   0.305   0.436
 3340W        W 7084   8.945   9.375   8.797
 3341W        W 7085   1.777   1.226   0.908
 3342W        W 7086   5.670   3.646   0.953
 3343W        W 7087   7.312   1.763   9.453
 3344W        W 7088   4.069  10.181   3.353
 3345W        W 7089   1.845   2.221   8.977
 3346W        W 7090   3.640   0.503  10.917
 3347W        W 7091   3.433   4.560   0.044
 3348W        W 7092   2.405   1.930  10.348
 3349W        W 7093   1.275   5.100   2.383
 3350W        W 7094   1.059   5.186   8.582
 3351W        W 7095   4.362   3.676  10.804
 3352W        W 7096   0.314   3.345   2.419
 3353W        W 7097   8.950   7.953   2.325
 3354W        W 7098   4.584   8.311   0.937
 3355W        W 7099   3.928   4.609   8.667
 3356W        W 7100   3.021  10.354   0.860
 3357W        W 7101   8.341   5.006   9.096
 3358W        W 7102   2.518   8.510   3.387
 3359W        W 7103   5.349   0.748   1.658
 3360W        W 7104   8.418   6.078   0.358
 3361W        W 7105   5.137   3.347   0.851
 3362W        W 7106   6.992   9.925   2.237
 3363W        W 7107   2.094   8.958  10.011
 3364W        W 7108   0.780   5.200   2.264
 3365W        W 7109   5.697   9.902  11.971
 3366W        W 7110   8.140   3.641   1.326
 3367W        W 7111   5.705   7.576   3.362
 3368W        W 7112   6.772   2.844   9.933
 3369W        W 7113   5.848   4.489   0.236
 3370W        W 7114  10.461   9.480   8.505
 3371W        W 7115   5.427   2.140   9.810
 3372W        W 7116   8.842   2.639   3.261
 3373W        W 7117   4.211   8.420   1.805
 3374W        W 7118  10.019  10.477   3.189
 3375W        W 7119   4.972   7.675   1.411
 3376W        W 7120   1.854   2.798   0.739
 3377W        W 7121   5.736   7.844  10.832
 3378W        W 7122   3.796   0.563  11.459
 3379W        W 7123   6.630   8.562   8.907
 3380W        W 7124   9.615   2.799   0.930
 3381W        W 7125   9.446   8.920  10.166
 3382W        W 7126   6.215   2.553   3.641
 3383W        W 7127   3.568   8.918  10.778
 3384W        W 7128   3.149   7.770   0.390
 3385W        W 7129   4.089   4.017   0.982
 3386W        W 7130   1.342   5.512   0.486
 3387W        W 7131   7.693   8.167   2.613
 3388W        W 7132   5.112   9.869   1.408
 3389W        W 7133   3.242   6.934   9.056
 3390W        W 7134   8.090   5.511   3.051
 3391W        W 7135   9.369   0.467   1.048
 3392W        W 7136   8.822   3.229  10.035
 3393W        W 7137   9.026   9.353  11.340
 3394W        W 7138   5.730   2.748   3.724
 3395W        W 7139   1.789   5.524  10.717
 3396W        W 7140   6.933   4.267  11.397
 3397W        W 7141   4.236   3.920   0.176
 3398W        W 7142   2.195   8.096  11.063
 3399W        W 7143   6.171   7.677   8.622
 3400W        W 7144   1.766   1.246   9.732
 3401W        W 7145   5.391   6.485   0.031
 3402W        W 7146   1.314   7.156  10.109
 3403W        W 7147   8.923   3.573  11.780
 3404W        W 7148   6.042   5.176  11.632
 3405W        W 7149   0.505   7.860  10.492
 3406W        W 7150   7.444   6.522  11.363
 3407W        W 7151   8.131   7.870   2.744
 3408W        W 7152   2.538   0.187   1.952
 3409W        W 7153  10.194   0.526  10.940
 3410W        W 7154   6.388  10.452   2.242
 3411W        W 7155   2.746   5.093   4.062
 3412W        W 7156   8.331  10.331  10.308
 3413W        W 7157   9.002   3.517   8.665
 3414W        W 7158   7.178   3.698   0.469
 3415W        W 7159   8.220   7.977   9.827
 3416W        W 7160   0.693   1.212  10.459
 3417W        W 7161   6.757   9.311   9.386
 3418W        W 7162   1.144   0.508   1.905
 3419W        W 7163   4.198   9.359  11.114
 3420W        W 7164   4.972   7.422  10.595
 3421W        W 7165   8.160   6.908   0.271
 3422W        W 7166   4.704   5.433   9.852
 3423W        W 7167   3.998   6.587  11.098
 3424W        W 7168   7.042   8.299   3.426
 3425W        W 7169   3.844   1.966   3.468
 3426W        W 7170   7.363   6.332   0.769
 3427W        W 7171   4.242   3.198   8.901
 3428W        W 7172   0.872   0.418   2.364
 3429W        W 7173   4.351   0.980   0.454
 3430W        W 7174   5.232   1.251   0.976
 3431W        W 7175   7.478   4.766   0.895
 3432W        W 7176   6.942   3.736  10.916
 3433W        W 7177   7.136   1.697   0.933
 3434W        W 7178   5.462   4.887   0.914
 3435W        W 7179   7.240   0.405   8.648
 3436W        W 7180   1.908   6.231   9.044
 3437W        W 7181   6.082   6.808   3.238
 3438W        W 7182   6.477   4.807  10.239
 3439W        W 7183   2.131   9.881   8.912
 3440W        W 7184   3.580   0.871  11.811
 3441W        W 7185   6.544   6.300   3.539
 3442W        W 7186   3.679   9.973  10.558
 3443W        W 7187   7.538   9.101   2.989
 3444W        W 7188   6.449   8.270   9.338
 3445W        W 7189   0.300   1.576   9.341
 3446W        W 7190   9.399   4.857   9.648
 3447W        W 7191   6.092   2.860   0.687
 3448W        W 7192   1.146   4.286   2.468
 3449W        W 7193   8.929   4.864   2.421
 3450W        W 7194   9.485   3.589   1.610
 3451W        W 7195   4.342   2.797   2.313
 3452W        W 7196   0.686   9.210  10.455
 3453W        W 7197   3.849   8.523   1.288
 3454W        W 7198   1.049   2.831   8.805
 3455W        W 7199   4.762   3.023   4.072
 3456W        W 7200   7.038   1.906   0.007
 3457W        W 7201   0.615   6.660   8.507
 3458W        W 7202   1.700   6.087   2.517
 3459W        W 7203   6.975   7.911   3.124
 3460W        W 7204   5.173   8.335   2.831
 3461W        W 7205   5.366   8.837   0.413
 3462W        W 7206   8.947   5.411   8.804
 3463W        W 7207   7.003   9.248  11.828
 3464W        W 7208  10.427  10.186   0.217
 3465W        W 7209   1.470   3.253   0.694
 3466W        W 7210   7.053   6.670   1.043
 3467W        W 7211  10.369   0.677   0.217
 3468W        W 7212   9.947   4.181   9.625
 3469W        W 7213   3.331   5.012  11.308
 3470W        W 7214   7.884   6.909   2.959
 3471W        W 7215   4.702   3.042   1.000
 3472W        W 7216   4.098   4.143  11.711
 3473W        W 7217   9.438   8.311   1.777
 3474W        W 7218   0.879   2.845   0.986
 3475W        W 7219   2.916   5.205   1.946
 3476W        W 7220   0.998   2.284   9.073
 3477W        W 7221   9.870   7.107  11.431
 3478W        W 7222   5.682   7.128  11.353
 3479W        W 7223  10.118   4.589   0.337
 3480W        W 7224   5.493  10.048   3.316
 3481W        W 7225   5.159   1.250   9.500
 3482W        W 7226   1.244   4.260   2.963
 3483W        W 7227   9.716   3.984   9.203
 3484W        W 7228   3.746   8.199  11.371
 3485W        W 7229   0.436   8.645  11.195
 3486W        W 7230  10.225   2.159   0.592
 3487W        W 7231   5.089   0.686  11.801
 3488W        W 7232   7.235   1.897  10.535
 3489W        W 7233   3.838   8.801   9.933
 3490W        W 7234   8.070   3.246   0.218
 3491W        W 7235   1.844   7.892   0.779
 3492W        W 7236   5.526   8.807   1.164
 3493W        W 7237   1.285   8.105  11.432
 3494W        W 7238   9.893   4.707   3.442
 3495W        W 7239   2.687   3.003   1.246
 3496W        W 7240   6.535   8.975   1.123
 3497W        W 7241   1.956   3.495   2.744
 3498W        W 7242   8.732   0.536  10.103
 3499W        W 7243   6.617   6.726   1.369
 3500W        W 7244   5.640   9.966  10.072
 3501W        W 7245   8.786   3.643  10.949
 3502W        W 7246  10.002   0.278   0.300
 3503W        W 7247   9.844   8.303   2.855
 3504W        W 7248   3.183   1.287   1.450
 3505W        W 7249   5.653   6.311   3.718
 3506W        W 7250   4.486   7.649   8.097
 3507W        W 7251   2.722   8.076  10.334
 3508W        W 7252   6.713   5.929  11.255
 3509W        W 7253   2.560  10.275   3.632
 3510W        W 7254   1.390  10.085  11.137
 3511W        W 7255   1.882   6.958   1.942
 3512W        W 7256   3.208   4.781   1.659
 3513W        W 7257   7.119   0.275   3.134
 3514W        W 7258   7.948   0.803  10.661
 3515W        W 7259   2.320   2.880   0.430
 3516W        W 7260   3.075   1.847  10.793
 3517W        W 7261   1.299   3.038   3.471
 3518W        W 7262   8.077   3.518   3.373
 3519W        W 7263  10.245   9.441   2.953
 3520W        W 7264   2.914   1.217  10.787
 3521W        W 7265   0.270   4.282   1.889
 3522W        W 7266   9.669  10.301   9.604
 3523W        W 7267   1.331   1.816  10.249
 3524W        W 7268   7.273   7.884   9.640
 3525W        W 7269   4.490   0.810   2.753
 3526W        W 7270   5.755   8.055   1.614
 3527W        W 7271   1.188   4.288  11.909
 3528W        W 7272   3.163   9.902  10.427
 3529W        W 7273   6.595   0.182   1.842
 3530W        W 7274   5.369   0.483   3.446
 3531W        W 7275   5.075   9.972   2.480
 3532W        W 7276   0.629   0.245  11.954
 3533W        W 7277   6.578   4.494  11.096
 3534W        W 7278   0.733   0.409  11.049
 3535W        W 7279   2.925   1.637  10.303
 3536W        W 7280   3.180   7.867   0.920
 3537W        W 7281   2.601   4.223  11.901
 3538W        W 7282   2.284   1.663  11.210
 3539W        W 7283   4.670   9.628   9.089
 3540W        W 7284   3.738   0.385   1.000
 3541W        W 7285   5.050   6.047   0.850
 3542W        W 7286   3.353   2.672  11.779
 3543W        W 7287   0.472   3.995   1.523
 3544W        W 7288   7.591   7.438  10.774
 3545W        W 7289   7.115   6.224  11.067
 3546W        W 7290   8.432   8.932   0.980
 3547W        W 7291   0.617   2.439   3.589
 3548W        W 7292   0.385   7.459  11.851
 3549W        W 7293   3.534   4.989  10.727
 3550W        W 7294   7.077   8.857   9.596
 3551W        W 7295   9.768   4.274   3.184
 3552W        W 7296   3.645   8.512  11.800
 3553W        W 7297   3.979   0.055   2.175
 3554W        W 7298   6.876   7.887   2.047
 3555W        W 7299   1.370   4.959  11.365
 3556W        W 7300   0.296   5.286  11.326
 3557W        W 7301   7.528   3.179   9.684
 3558W        W 7302  10.031   9.100   9.436
 3559W        W 7303   7.123   0.402   1.167
 3560W        W 7304   0.505   1.393   8.911
 3561W        W 7305   5.703   6.513   1.446
 3562W        W 7306   8.866   0.552  10.638
 3563W        W 7307   0.812   7.000  10.081
 3564W        W 7308   4.547   7.648  10.770
 3565W        W 7309   2.356   6.896   8.063
 3566W        W 7310   4.748   6.835   3.147
 3567W        W 7311   2.860   3.153  11.443
 3568W        W 7312  10.352   2.986   1.285
 3569W        W 7313   0.545   7.027   8.915
 3570W        W 7314   9.968   9.496   9.085
 3571W        W 7315   4.266   3.655   2.700
 3572W        W 7316   8.563   6.660   3.432
 3573W        W 7317   0.806   7.817   9.105
 3574W        W 7318   1.923   2.193   9.503
 3575W        W 7319   7.129   9.425   2.851
 3576W        W 7320   1.496   7.975   9.520
 3577W        W 7321   6.720   6.976  10.917
 3578W        W 7322   4.578   0.763  11.787
 3579W        W 7323   1.294   1.022  11.553
 3580W        W 7324   5.204   4.271   9.137
 3581W        W 7325   6.706   7.381   9.969
 3582W        W 7326   4.002   3.120   1.404
 3583W        W 7327   4.696   6.961   2.152
 3584W        W 7328   5.559   2.558  10.466
 3585W        W 7329   6.258   8.725   8.580
 3586W        W 7330   4.032   8.027   8.693
 3587W        W 7331   2.231   6.606   9.216
 3588W        W 7332  10.270   7.977   2.840
 3589W        W 7333   3.095   1.907   3.201
 3590W        W 7334  10.435   0.906  11.767
 3591W        W 7335   7.488  10.079   1.541
 3592W        W 7336   1.228   3.267   2.635
 3593W        W 7337   3.353   6.128   1.882
 3594W        W 7338   0.860   4.709   2.433
 3595W        W 7339   6.057   1.999  11.748
 3596W        W 7340   8.621   9.379   1.288
 3597W        W 7341   6.551   2.320   2.993
 3598W        W 7342   6.946   6.441  11.510
 3599W        W 7343   4.544   1.132   9.248
 3600W        W 7344   0.811   8.437   2.719
 3601W        W 7345  10.186   0.770   3.578
 3602W        W 7346   4.290   9.421  10.604
 3603W        W 7347   0.488   2.842   8.727
 3604W        W 7348   4.177   4.205   3.601
 3605W        W 7349   4.626  10.034   0.453
 3606W        W 7350   2.216   3.758   9.760
 3607W        W 7351   5.593   5.112   9.847
 3608W        W 7352   5.487   9.873  11.062
 3609W        W 7353   9.267   8.970   8.723
 3610W        W 7354   1.399   9.235   0.641
 3611W        W 7355   9.377   8.091  11.948
 3612W        W 7356   1.378   9.955   2.785
 3613W        W 7357   2.447   1.773   0.015
 3614W        W 7358   5.937   7.936   9.976
 3615W        W 7359   0.876  10.159   2.860
 3616W        W 7360   1.233   2.832   2.961
 3617W        W 7361   5.684   3.595   4.285
 3618W        W 7362   0.367   8.962  11.574
 3619W        W 7363   2.644   7.538  11.490
 3620W        W 7364   7.466  10.108  11.266
 3621W        W 7365   1.770   2.799   1.704
 3622W        W 7366   1.711   9.315  10.004
 3623W        W 7367  10.379   5.927   8.576
 3624W        W 7368   2.090   7.098   8.460
 3625W        W 7369  10.032   7.823  10.225
 3626W        W 7370   1.239   3.647  11.560
 3627W        W 7371   7.258   0.190   3.685
 3628W        W 7372   4.013   0.858  10.893
 3629W        W 7373   7.768   6.123  10.450
 3630W        W 7374   7.678   1.972   9.744
 3631W        W 7375   7.869   7.846   3.175
 3632W        W 7376   1.717   5.211  11.884
 3633W        W 7377   5.072   4.098   8.182
 3634W        W 7378   8.076   1.996  11.396
 3635W        W 7379   5.312   4.442   0.701
 3636W        W 7380   8.751   2.624   0.699
 3637W        W 7381   6.858   1.737   9.682
 3638W        W 7382   6.957   4.033  10.489
 3639W        W 7383   1.363   4.336   9.887
 3640W        W 7384   5.295   6.663   8.484
 3641W        W 7385  10.040   2.208  11.199
 3642W        W 7386   2.509   1.356   3.538
 3643W        W 7387   5.809   5.096   2.190
 3644W        W 7388   6.957   0.173   0.746
 3645W        W 7389  10.275   9.006   3.248
 3646W        W 7390   9.990   2.811   2.799
 3647W        W 7391   4.698   3.127  11.580
 3648W        W 7392   2.273   9.949   2.986
 3649W        W 7393  10.274   3.079  10.866
 3650W        W 7394   9.492   1.110  11.951
 3651W        W 7395   4.416   8.900  11.117
 3652W        W 7396   0.873   6.672   2.648
 3653W        W 7397   7.973   4.101   2.167
 3654W        W 7398   6.363   9.000   9.019
 3655W        W 7399   5.207   8.381   8.906
 3656W        W 7400   4.964  10.445   9.729
 3657W        W 7401   4.468   9.574   2.338
 3658W        W 7402   1.161   0.469   0.743
 3659W        W 7403   4.862   0.250  10.569
 3660W        W 7404   3.890   9.913   1.139
 3661W        W 7405   4.179   7.900  10.306
 3662W        W 7406   3.720   1.931  11.543
 3663W        W 7407  10.298   8.429   1.652
 3664W        W 7408   7.622   1.835   1.654
 3665W        W 7409   7.509   9.955  10.773
 3666W        W 7410   8.831   9.026   1.766
 3667W        W 7411   1.794   8.121  11.458
 3668W        W 7412   0.998   5.529   3.233
 3669W        W 7413   9.453   7.909   3.432
 3670W        W 7414   9.403   8.597  11.861
 3671W        W 7415   8.599   4.295  11.775
 3672W        W 7416   3.628  10.320   3.106
 3673W        W 7417   4.128   4.379  11.237
 3674W        W 7418   9.738   0.966   1.863
 3675W        W 7419   7.571   8.912   4.017
 3676W        W 7420   2.623   2.439   0.373
 3677W        W 7421   9.857   9.773  11.688
 3678W        W 7422   4.417   3.613   9.129
 3679W        W 7423   9.370   2.246   2.648
 3680W        W 7424   4.223   6.565   9.919
 3681W        W 7425   1.009   2.388   0.774
 3682W        W 7426   6.269   0.758   1.166
 3683W        W 7427   5.988   5.688  11.376
 3684W        W 7428   4.239   8.908  10.301
 3685W        W 7429   8.495   8.004   1.033
 3686W        W 7430   0.492   5.108   0.126
 3687W        W 7431   7.815   9.370   0.349
 3688W        W 7432   2.841   8.944   3.366
 3689W        W 7433   2.209   1.215   1.171
 3690W        W 7434   9.903   2.299   2.733
 3691W        W 7435   1.829   1.416   1.435
 3692W        W 7436   0.290   4.915  11.685
 3693W        W 7437   8.913   7.988   2.849
 3694W        W 7438   8.936   1.723   9.354
 3695W        W 7439   4.572   9.071   2.448
 3696W        W 7440   8.346   2.353   2.512
 3697W        W 7441   3.578   1.295   0.439
 3698W        W 7442   8.289   6.301   3.782
 3699W        W 7443   1.814   4.819  11.582
 3700W        W 7444   6.754   6.738   9.048
 3701W        W 7445   7.631   0.894   0.708
 3702W        W 7446   8.579   1.454  10.973
 3703W        W 7447   2.080   9.303  10.364
 3704W        W 7448   9.843   4.629   9.906
 3705W        W 7449   3.803   9.140  10.360
 3706W        W 7450   0.655   9.395   2.262
 3707W        W 7451   2.641   2.235  11.896
 3708W        W 7452   2.779   3.080   3.118
 3709W        W 7453   9.979   6.406   1.871
 3710W        W 7454   1.435   3.608   8.680
 3711W        W 7455   9.420   3.945  11.547
 3712W        W 7456   8.298   9.988  10.701
 3713W        W 7457   1.989   4.901   3.690
 3714W        W 7458   0.744   6.531   2.122
 3715W        W 7459   0.634   0.358   1.900
 3716W        W 7460   9.643   4.245   8.754
 3717W        W 7461   0.881   2.768  11.874
 3718W        W 7462   8.106   7.948  11.788
 3719W        W 7463   6.441   8.470  10.852
 3720W        W 7464   3.545   7.597   9.347
 3721W        W 7465   3.289   3.806   2.659
 3722W        W 7466   6.014   6.095  10.019
 3723W        W 7467  10.398   8.181  11.913
 3724W        W 7468   9.797   5.015   0.807
 3725W        W 7469   7.474   4.589  11.020
 3726W        W 7470   5.188   8.395  10.085
 3727W        W 7471  10.329   5.135  10.540
 3728W        W 7472  10.298   7.021   1.202
 3729W        W 7473   7.146   7.226  10.802
 3730W        W 7474   7.583   9.098   9.700
 3731W        W 7475   8.586   9.232   9.567
 3732W        W 7476   9.597   3.483   9.405
 3733W        W 7477   0.049   0.883   9.739
 3734W        W 7478   9.892   9.319   9.913
 3735W        W 7479   9.894   6.127   9.470
 3736W        W 7480   6.924  10.161  11.877
 3737W        W 7481   5.465  10.005   1.728
 3738W        W 7482   5.496   3.317   9.840
 3739W        W 7483   9.562   6.635   1.690
 3740W        W 7484   5.061   8.507  11.547
 3741W        W 7485   3.740  10.472  10.823
 3742W        W 7486   9.365   9.479   0.512
 3743W        W 7487   4.779   8.682   8.857
 3744W        W 7488   9.335  10.309  11.854
 3745W        W 7489   3.704   8.646   1.777
 3746W        W 7490  10.350   5.523   9.962
 3747W        W 7491   1.488   3.685   2.768
 3748W        W 7492   6.650   8.453   1.337
 3749W        W 7493   2.902   7.416   2.289
 3750W        W 7494   3.047   5.083  10.899
 3751W        W 7495   5.268   9.665   0.054
 3752W        W 7496   0.025   3.192   9.929
 3753W        W 7497   9.385   3.277   0.284
 3754W        W 7498   8.909   8.338   1.075
 3755W        W 7499   4.269   6.753   3.320
 3756W        W 7500  10.000   8.825   0.561
 3757W        W 7501   2.420   3.390   0.376
 3758W        W 7502   7.389   2.441   0.929
 3759W        W 7503   6.610   0.271   8.741
 3760W        W 7504   2.624   6.934   8.524
 3761W        W 7505   0.266   3.342   0.336
 3762W        W 7506   9.400   6.233   3.043
 3763W        W 7507   7.569   0.039   9.830
 3764W        W 7508   2.994   6.755   2.846
 3765W        W 7509   1.440   8.202   3.135
 3766W        W 7510   2.862   2.884   0.355
 3767W        W 7511   1.230   9.795   8.453
 3768W        W 7512   5.780   4.242   3.612
 3769W        W 7513   0.193   4.180   2.813
 3770W        W 7514   9.767   5.859  11.033
 3771W        W 7515   5.973  10.376   9.928
 3772W        W 7516   4.229   7.324   0.458
 3773W        W 7517   7.338   9.022   0.217
 3774W        W 7518  10.293   9.476   2.458
 3775W        W 7519   3.253   7.077  11.737
 3776W        W 7520   2.484   7.855  11.848
 3777W        W 7521   5.705   0.722  11.407
 3778W        W 7522   9.179   2.254   3.111
 3779W        W 7523   3.756   3.195  11.189
 3780W        W 7524   4.732   3.168   3.192
 3781W        W 7525   7.389   6.972   1.638
 3782W        W 7526   2.406   9.922   9.617
 3783W        W 7527   8.317   3.771  11.058
 3784W        W 7528   5.650   9.096   0.758
 3785W        W 7529   3.843   9.422   2.906
 3786W        W 7530   1.746   9.513  11.293
 3787W        W 7531   1.855   6.475   2.943
 3788W        W 7532   3.359   7.389   8.924
 3789W        W 7533   0.311   1.602   8.421
 3790W        W 7534   6.541   0.181  11.493
 3791W        W 7535   4.699   4.580  11.198
 3792W        W 7536   8.239   2.645   0.751
 3793W        W 7537   6.199   8.205   1.384
 3794W        W 7538   0.800   9.302  11.559
 3795W        W 7539   5.122   6.042   2.450
 3796W        W 7540   2.693   8.109  10.857
 3797W        W 7541   6.133   4.257   1.238
 3798W        W 7542   4.742   8.574  10.274
 3799W        W 7543   5.610   9.038  10.539
 3800W        W 7544   7.545   0.072  10.329
 3801W        W 7545   4.506   4.714  10.352
 3802W        W 7546   7.151   4.921   3.347
 3803W        W 7547   4.933   7.374   8.140
 3804W        W 7548   8.020   3.205   1.590
 3805W        W 7549   5.450  10.423   9.908
 3806W        W 7550   9.170   6.700   0.136
 3807W        W 7551   9.590   8.967   9.689
 3808W        W 7552   2.234   0.752   9.633
 3809W        W 7553   8.058   6.674  10.242
 3810W        W 7554   5.247   7.124   4.200
 3811W        W 7555   7.361   7.143  10.334
 3812W        W 7556   3.045   6.628  11.768
 3813W        W 7557   0.285   2.914   9.577
 3814W        W 7558   6.233   7.052   4.001
 3815W        W 7559   1.800   6.713   1.495
 3816W        W 7560   1.131   5.264   1.033
 3817W        W 7561   8.712   7.432   3.556
 3818W        W 7562   1.323   7.089  10.633
 3819W        W 7563   8.828  10.251   0.905
 3820W        W 7564   7.068   7.095   8.824
 3821W        W 7565   1.791   4.954   2.306
 3822W        W 7566   4.227   5.210  10.087
 3823W        W 7567   6.188   8.358   2.833
 3824W        W 7568   5.058   3.362   0.355
 3825W        W 7569   3.170   1.015   2.842
 3826W        W 7570  10.438   0.618   1.395
 3827W        W 7571   1.561   7.779   2.416
 3828W        W 7572   6.916   6.254   8.140
 3829W        W 7573   5.947   9.645  11.023
 3830W        W 7574   4.458   1.700   2.805
 3831W        W 7575   8.155   2.782   2.793
 3832W        W 7576   8.590   6.780   0.937
 3833W        W 7577   4.835   1.321   2.131
 3834W        W 7578   9.411  10.157   2.105
 3835W        W 7579  10.008  10.150   0.946
 3836W        W 7580   7.667   8.140   0.036
 3837W        W 7581   3.305   5.993   9.162
 3838W        W 7582   2.259   5.992  11.895
 3839W        W 7583   8.388   7.032  10.410
 3840W        W 7584   0.211   7.166   0.960
 3841W        W 7585   8.521   2.833   9.983
 3842W        W 7586   5.127   6.479   2.163
 3843W        W 7587   1.401   6.909   8.862
 3844W        W 7588   5.636   3.327   2.789
 3845W        W 7589   8.147   6.496   3.164
 3846W        W 7590   4.675   9.859  10.819
 3847W        W 7591   9.002   4.736   1.541
 3848W        W 7592   1.761   2.887   9.976
 3849W        W 7593   7.068   8.922   2.817
 3850W        W 7594   6.122   6.513  10.847
 3851W        W 7595   1.335   3.293   2.151
 3852W        W 7596   7.052   2.734  11.549
 3853W        W 7597   9.845  10.213  11.956
 3854W        W 7598   3.728   8.046   9.535
 3855W        W 7599   3.202   1.435   1.945
 3856W        W 7600   6.468   0.215   0.461
 3857W        W 7601   5.071   1.790  10.748
 3858W        W 7602   2.285   5.551  11.487
 3859W        W 7603   5.359   5.707   8.591
 3860W        W 7604   2.250   7.418   9.694
 3861W        W 7605   6.151   8.079  11.085
 3862W        W 7606   1.826   7.576   9.476
 3863W        W 7607   6.953   3.493   2.535
 3864W        W 7608   1.889   4.517   1.419
 3865W        W 7609   0.371   1.022   2.704
 3866W        W 7610   0.913   5.078   9.973
 3867W        W 7611   0.473   4.840  10.124
 3868W        W 7612   4.640   5.373  11.190
 3869W        W 7613   5.135   3.811   0.141
 3870W        W 7614   4.316   4.592  10.817
 3871W        W 7615   5.590   3.315   2.280
 3872W        W 7616   2.146   9.759  10.554
 3873W        W 7617   7.617   9.598   1.662
 3874W        W 7618   4.123   6.029   0.989
 3875W        W 7619  10.331   1.789  11.456
 3876W        W 7620   8.957   2.887   1.461
 3877W        W 7621   0.592   5.913   1.427
 3878W        W 7622   7.441   0.562   9.557
 3879W        W 7623   8.536   3.895   3.329
 3880W        W 7624   9.070   2.244  11.468
 3881W        W 7625   9.348   4.611  10.095
 3882W        W 7626   1.950   9.071   2.813
 3883W        W 7627   1.795   0.899   9.346
 3884W        W 7628   9.433   1.270  10.931
 3885W        W 7629   8.576   4.584  11.307
 3886W        W 7630   8.484   2.709   8.958
 3887W        W 7631   8.803   1.941   3.143
 3888W        W 7632   7.222   7.837   8.596
 3889W        W 7633   1.957   7.606   2.717
 3890W        W 7634   9.881   0.693   0.945
 3891W        W 7635   1.175   4.035   1.441
 3892W        W 7636   5.737   1.270  10.745
 3893W        W 7637   8.051   7.830  11.255
 3894W        W 7638   2.275   5.244   3.442
 3895W        W 7639   8.001   9.782   9.303
 3896W        W 7640   2.673   8.962  10.983
 3897W        W 7641  10.486   1.843  11.956
 3898W        W 7642   9.445   8.612   2.721
 3899W        W 7643   3.186   4.699   3.611
 3900W        W 7644   9.750   0.852  11.020
 3901W        W 7645   7.156   6.699  10.742
 3902W        W 7646   9.036   0.713   0.740
 3903W        W 7647   9.967   9.956  10.791
 3904W        W 7648   5.253   9.723  10.369
 3905W        W 7649   7.511   8.600   3.159
 3906W        W 7650   5.708   6.461   0.922
 3907W        W 7651   1.402   9.548  10.891
 3908W        W 7652   9.796   3.723   9.821
 3909W        W 7653   6.995   0.109   9.053
 3910W        W 7654   6.481   6.635  11.210
 3911W        W 7655   1.749   6.193  11.878
 3912W        W 7656   5.247   4.458  11.019
 3913W        W 7657   5.689   4.208   2.152
 3914W        W 7658   5.574   5.088   3.137
 3915W        W 7659   1.945   3.247   9.664
 3916W        W 7660   6.159   3.336  11.427
 3917W        W 7661   6.383   7.738   1.268
 3918W        W 7662   5.634   0.268   0.402
 3919W        W 7663   3.260   4.979   4.035
 3920W        W 7664   8.195   6.678   2.234
 3921W        W 7665   1.071   3.533   1.489
 3922W        W 7666   4.808   9.480   3.205
 3923W        W 7667  10.452  10.499  10.174
 3924W        W 7668   9.304   4.039   2.496
 3925W        W 7669   8.374   1.875   2.342
 3926W        W 7670   3.695   4.019   1.375
 3927W        W 7671   1.067   7.102   9.636
 3928W        W 7672   9.649   4.742  10.473
 3929W        W 7673   2.789   1.198   0.767
 3930W        W 7674   2.256   8.310  11.562
 3931W        W 7675   8.037   8.465  11.768
 3932W        W 7676   1.843  10.006   1.644
 3933W        W 7677   6.538   9.344  10.349
 3934W        W 7678   9.626   3.805  10.609
 3935W        W 7679  10.480   0.813  11.252
 3936W        W 7680   1.355   1.459   2.246
 3937W        W 7681   9.442   2.695   1.495
 3938W        W 7682   4.877  10.242   2.947
 3939W        W 7683   4.127   2.693   9.074
 3940W        W 7684   9.400  10.021   2.620
 3941W        W 7685   5.622   6.648   8.914
 3942W        W 7686   8.069   2.877  10.719
 3943W        W 7687   1.805   2.764  11.805
 3944W        W 7688   3.594   0.895   2.594
 3945W        W 7689   8.491   8.923  10.292
 3946W        W 7690   0.277   4.210   9.236
 3947W        W 7691   1.527   1.427   8.938
 3948W        W 7692   4.953   2.240  11.884
 3949W        W 7693   8.581  10.488  10.861
 3950W        W 7694   2.132   1.078  10.052
 3951W        W 7695   0.962   6.992   2.106
 3952W        W 7696   8.084   0.667   1.713
 3953W        W 7697   7.282   6.226  10.371
 3954W        W 7698   9.333   0.723   3.490
 3955W        W 7699  10.499   5.096   9.718
 3956W        W 7700   8.823   5.103  10.492
 3957W        W 7701   8.997   4.508   8.860
 3958W        W 7702   4.891   3.682   8.416
 3959W        W 7703   4.967   5.680   0.279
 3960W        W 7704   2.406   0.342   2.780
 3961W        W 7705   9.708   8.979   3.486
 3962W        W 7706  10.442   8.606  10.100
 3963W        W 7707   6.338  10.339   2.740
 3964W        W 7708   4.242   5.348  10.579
 3965W        W 7709   7.082   3.357  11.228
 3966W        W 7710   1.445   1.674   0.231
 3967W        W 7711   7.428   5.233   9.354
 3968W        W 7712   3.310   0.434   1.313
 3969W        W 7713   1.240   3.675   1.015
 3970W        W 7714   7.079   6.108   9.088
 3971W        W 7715   5.984   2.113   9.114
 3972W        W 7716   9.840   1.824   9.386
 3973W        W 7717   0.851   1.709   2.577
 3974W        W 7718   3.314   9.572  11.822
 3975W        W 7719   6.581   0.500   0.867
 3976W        W 7720   3.350   3.943   3.133
 3977W        W 7721   3.396   5.416   3.212
 3978W        W 7722   7.229   4.115  11.816
 3979W        W 7723   1.224   6.106  11.866
 3980W        W 7724   0.860   9.634   9.538
 3981W        W 7725   7.172   7.520   2.364
 3982W        W 7726   9.393   3.670   1.104
 3983W        W 7727   3.919   9.679   0.686
 3984W        W 7728   5.526   1.727   3.003
 3985W        W 7729   3.271   4.869   0.566
 3986W        W 7730   5.088   4.059  10.742
 3987W        W 7731   8.052   5.378   1.240
 3988W        W 7732   4.515   4.127   9.411
 3989W        W 7733   5.341   9.769  11.556
 3990W        W 7734   7.491   9.603  10.058
 3991W        W 7735   6.870   9.386  10.730
 3992W        W 7736   0.190   6.175   0.799
 3993W        W 7737   2.643   5.665   9.918
 3994W        W 7738   3.178   4.192   1.263
 3995W        W 7739  10.210   6.853   9.374
 3996W        W 7740   9.616   7.411   0.818
 3997W        W 7741   7.061   5.238   0.290
 3998W        W 7742   5.979   0.749  10.048
 3999W        W 7743   8.111   8.461   2.597
 4000W        W 7744   6.581   6.675   2.241
 4001W        W 7745   6.933   4.873   9.937
 4002W        W 7746   3.863   3.074   9.250
 4003W        W 7747   1.761   2.239  11.355
 4004W        W 7748   6.852  10.336   2.507
 4005W        W 7749   1.390  10.376  10.272
 4006W        W 7750   5.955   4.746  10.337
 4007W        W 7751   4.945   7.879   8.272
 4008W        W 7752   8.458   3.612   8.487
 4009W        W 7753  10.286   0.795   8.785
 4010W        W 7754   8.979   2.511   1.828
 4011W        W 7755   2.891   4.598   4.085
 4012W        W 7756   4.623   6.482   2.350
 4013W        W 7757   5.028   7.168   1.326
 4014W        W 7758   0.690   6.154   0.944
 4015W        W 7759   9.543   0.049   0.263
 4016W        W 7760   2.879   3.721  10.534
 4017W        W 7761   3.240   8.321  11.516
 4018W        W 7762   7.872   2.409  10.501
 4019W        W 7763   0.871   1.366   0.932
 4020W        W 7764   9.500   1.835   0.941
 4021W        W 7765   7.198   2.633   2.546
 4022W        W 7766   1.438   8.447   1.029
 4023W        W 7767   3.113   2.506   0.600
 4024W        W 7768   7.548   6.143   2.730
 4025W        W 7769   5.636   1.137   1.262
 4026W        W 7770   7.022   9.654   0.827
 4027W        W 7771   9.584   7.203  10.106
 4028W        W 7772   5.960   6.726   4.294
 4029W        W 7773   4.605   3.223  10.807
 4030W        W 7774  10.069   0.997   1.427
 4031W        W 7775   0.382   8.947   1.541
 4032W        W 7776   2.718   7.897   1.211
 4033W        W 7777  10.382   8.519   0.737
 4034W        W 7778   9.961   5.456   1.756
 4035W        W 7779   6.664   5.291  11.980
 4036W        W 7780   5.069   7.887  10.295
 4037W        W 7781   9.945   4.958  10.847
 4038W        W 7782   9.840   1.437  10.196
 4039W        W 7783   4.243   4.436   9.084
 4040W        W 7784   5.593   9.498  10.715
 4041W        W 7785   4.521   6.000   0.675
 4042W        W 7786   7.691   5.593   3.968
 4043W        W 7787   2.147   0.367   9.975
 4044W        W 7788   6.503   9.966   2.441
 4045W        W 7789   5.243   9.441   0.655
 4046W        W 7790   9.662   9.803  11.205
 4047W        W 7791   7.969   0.286  10.539
 4048W        W 7792   0.803   7.923  11.506
 4049W        W 7793  10.272  10.315   1.924
 4050W        W 7794   5.698   3.588  10.927
 4051W        W 7795   2.307   5.047  11.615
 4052W        W 7796  10.067   5.696   2.192
 4053W        W 7797   4.722   2.720   9.789
 4054W        W 7798   6.057   7.215   3.552
 4055W        W 7799   7.586   6.657  10.445
 4056W        W 7800   1.655   8.597  11.534
 4057W        W 7801   5.977   7.139   1.880
 4058W        W 7802   8.753   2.072   3.625
 4059W        W 7803   4.496   7.941   8.514
 4060W        W 7804   8.515   6.171   9.118
 4061W        W 7805   3.396   4.646   8.659
 4062W        W 7806   8.369   9.268   0.065
 4063W        W 7807   1.341   6.383   2.731
 4064W        W 7808  10.190   4.142   2.908
 4065W        W 7809   7.461   5.834   0.805
 4066W        W 7810   0.003   1.777   2.416
 4067W        W 7811   2.934   2.052   9.473
 4068W        W 7812   0.117   1.609   1.847
 4069W        W 7813   4.062   6.918  10.298
 4070W        W 7814   6.761   4.589   3.267
 4071W        W 7815   7.178   2.665   1.367
 4072W        W 7816   4.863   2.825   2.306
 4073W        W 7817   4.855   9.525   2.689
 4074W        W 7818   5.136   4.675  11.479
 4075W        W 7819   8.946   0.380   1.417
 4076W        W 7820   4.027   7.531   3.058
 4077W        W 7821   1.815   3.238   1.990
 4078W        W 7822   1.574   9.439   3.017
 4079W        W 7823   7.134   7.878  11.475
 4080W        W 7824   1.283   4.269   0.405
 4081W        W 7825   9.393   8.550   8.991
 4082W        W 7826   0.811   3.827  11.786
 4083W        W 7827   0.697   7.100   0.744
 4084W        W 7828   3.368   8.854   3.284
 4085W        W 7829   9.618  10.435   3.507
 4086W        W 7830   1.189   2.867   0.498
 4087W        W 7831   6.941   9.964  11.376
 4088W        W 7832   2.316   3.848   2.681
 4089W        W 7833   4.948   4.193   0.950
 4090W        W 7834   4.646   4.935   9.904
 4091W        W 7835   2.726   1.067   3.179
 4092W        W 7836   8.998   8.410   2.580
 4093W        W 7837   3.288   2.383  10.125
 4094W        W 7838   1.788   6.232  11.332
 4095W        W 7839   4.620   7.627  10.272
 4096W        W 7840   6.485   3.033  10.510
 4097W        W 7841   7.348   1.034   9.395
 4098W        W 7842   7.025   7.468   9.446
 4099W        W 7843   4.096  10.107   0.359
 4100W        W 7844   8.385   1.984  10.976
 4101W        W 7845   5.672   1.140   0.723
 4102W        W 7846   8.181   6.624   1.624
 4103W        W 7847   9.391   3.119  11.257
 4104W        W 7848   0.286   7.825   0.260
 4105W        W 7849   0.232   1.859   8.876
 4106W        W 7850   4.467   1.033  10.992
 4107W        W 7851   7.480   2.735   1.807
 4108W        W 7852   8.334   0.914   9.204
 4109W        W 7853   4.686   3.030   0.114
 4110W        W 7854   5.868   2.385   0.046
 4111W        W 7855   7.372   5.028  11.379
 4112W        W 7856   7.459   3.258   1.880
 4113W        W 7857   1.220   7.455   2.174
 4114W        W 7858   4.177   0.773  10.387
 4115W        W 7859   6.735   1.468  11.956
 4116W        W 7860   2.663   3.870  11.486
 4117W        W 7861   6.947   0.978   0.285
 4118W        W 7862   1.434   8.677  10.507
 4119W        W 7863   8.321   9.829  10.190
 4120W        W 7864   8.044   6.018  11.999
 4121W        W 7865   1.901   8.529  11.094
 4122W        W 7866   9.763   9.837   9.840
 4123W        W 7867   3.792   1.815   9.028
 4124W        W 7868   4.453   8.104   0.094
 4125W        W 7869   5.145   9.418   1.151
 4126W        W 7870   1.362  10.306   9.771
 4127W        W 7871   6.533   3.645   3.219
 4128W        W 7872   2.810   8.557  10.636
 4129W        W 7873   5.547   6.408  11.111
 4130W        W 7874   7.052   8.664   1.117
 4131W        W 7875   5.121   8.960   0.861
 4132W        W 7876  10.154  10.276   1.423
 4133W        W 7877   1.442   9.058   2.664
 4134W        W 7878   4.624   5.523   1.887
 4135W        W 7879   1.272   8.476   8.748
 4136W        W 7880   4.477  10.456  11.432
 4137W        W 7881  10.412   3.629   2.149
 4138W        W 7882   8.079   7.493   9.588
 4139W        W 7883   4.066   6.826  11.538
 4140W        W 7884   7.409   7.593   3.201
 4141W        W 7885  10.064   6.831   2.407
 4142W        W 7886   2.804   4.511  10.485
 4143W        W 7887   6.105   0.204  11.762
 4144W        W 7888   0.277   0.359   2.269
 4145W        W 7889   2.788   5.527   0.750
 4146W        W 7890   4.594  10.326  10.568
 4147W        W 7891   6.092   0.348   8.832
 4148W        W 7892   5.653  10.398   1.466
 4149W        W 7893   6.916   3.800  10.044
 4150W        W 7894   2.853   8.856   2.830
 4151W        W 7895   7.579   5.267   1.384
 4152W        W 7896   2.318   5.677   0.485
 4153W        W 7897   9.403   7.615  11.048
 4154W        W 7898   7.399   9.127   2.464
 4155W        W 7899   8.664   2.404  11.883
 4156W        W 7900   8.904   5.991   9.917
 4157W        W 7901   8.926  10.050   1.809
 4158W        W 7902   3.718   8.094  10.458
 4159W        W 7903   3.295   2.142   0.896
 4160W        W 7904   0.054   2.875   0.809
 4161W        W 7905   0.747   2.885   1.506
 4162W        W 7906   4.146   8.842   9.437
 4163W        W 7907   3.623   8.071   9.040
 4164W        W 7908   1.671   2.245   2.342
 4165W        W 7909   0.270   6.005   3.195
 4166W        W 7910   4.793  10.389  11.016
 4167W        W 7911   0.255   6.035   2.672
 4168W        W 7912   0.932   5.492   9.684
 4169W        W 7913   5.050   6.513   2.664
 4170W        W 7914   1.918   9.902   9.432
 4171W        W 7915   7.999   8.821   9.594
 4172W        W 7916   5.166   1.283  10.014
 4173W        W 7917   4.795   2.043   1.003
 4174W        W 7918   6.630   4.253   2.314
 4175W        W 7919   2.744   0.693   1.506
 4176W        W 7920   3.348   8.600   2.841
 4177W        W 7921   6.138   0.471  11.285
 4178W        W 7922   7.749   0.433  10.970
 4179W        W 7923   2.519   7.001   0.830
 4180W        W 7924   9.991   5.511   8.929
 4181W        W 7925   8.102   3.030  11.725
 4182W        W 7926   5.487   0.778   2.516
 4183W        W 7927   5.550   7.295   0.678
 4184W        W 7928   2.213   8.573   2.824
 4185W        W 7929   3.316   3.711   1.177
 4186W        W 7930   7.235   3.888   8.966
 4187W        W 7931   2.777   8.528   9.684
 4188W        W 7932   6.072   3.849  10.694
 4189W        W 7933   7.675   4.222   3.539
 4190W        W 7934   2.410   4.779   3.149
 4191W        W 7935   0.288   1.234  11.259
 4192W        W 7936   8.022   7.377  11.036
 4193W        W 7937   6.483   5.852  10.396
 4194W        W 7938   0.264   9.519  10.059
 4195W        W 7939   5.049   6.653  11.252
 4196W        W 7940   2.171   6.085   2.761
 4197W        W 7941   9.250   9.030   0.946
 4198W        W 7942   0.066   3.778   9.432
 4199W        W 7943   2.200   3.318   2.334
 4200W        W 7944   7.099   1.149   3.367
 4201W        W 7945   3.229   7.652   2.715
 4202W        W 7946   9.419   5.049   2.346
 4203W        W 7947   8.710   1.772  10.619
 4204W        W 7948   3.176   5.580  10.989
 4205W        W 7949   1.727   0.262   2.610
 4206W        W 7950   9.997   2.734   2.239
 4207W        W 7951   6.739   4.839   1.285
 4208W        W 7952   3.055   8.802  11.465
 4209W        W 7953   8.790   8.912  11.480
 4210W        W 7954   2.134   8.978  10.930
 4211W        W 7955   5.879   7.658   0.564
 4212W        W 7956   8.472   8.114   3.092
 4213W        W 7957   3.629   5.613   0.303
 4214W        W 7958   4.999   6.872   0.882
 4215W        W 7959   2.311   9.344   1.659
 4216W        W 7960   2.621   2.390  11.410
 4217W        W 7961   2.863   5.082   9.857
 4218W        W 7962   8.009   2.354   9.536
 4219W        W 7963   6.718   2.337   9.765
 4220W        W 7964   0.930   8.342   3.235
 4221W        W 7965   8.907   4.622   9.823
 4222W        W 7966   1.863   6.527   0.569
 4223W        W 7967   3.405   8.160   1.860
 4224W        W 7968   4.261  10.263   1.845
 4225W        W 7969   3.359   5.780  10.557
 4226W        W 7970   6.011   1.738  10.257
 4227W        W 7971   1.384   3.717   1.859
 4228W        W 7972   3.410   9.596   0.696
 4229W        W 7973   7.078   6.567   3.297
 4230W        W 7974   5.440   2.012   1.707
 4231W        W 7975   2.123   4.665   0.532
 4232W        W 7976   4.907   1.434   3.446
 4233W        W 7977   9.266   8.488  10.410
 4234W        W 7978   8.561   8.063   1.526
 4235W        W 7979   3.773   3.204   1.880
 4236W        W 7980   0.247   6.487   9.444
 4237W        W 7981   5.983   1.748  10.765
 4238W        W 7982   3.701   4.881   3.138
 4239W        W 7983   2.126   1.329   0.177
 4240W        W 7984   2.743   2.373  10.808
 4241W        W 7985   7.983   1.342   0.481
 4242W        W 7986   6.976   4.187   0.269
 4243W        W 7987   5.623   0.476  11.890
 4244W        W 7988   2.280   6.733   1.268
 4245W        W 7989   9.807   9.276   0.356
 4246W        W 7990   4.071   8.993  10.764
 4247W        W 7991   7.186   1.865   2.960
 4248W        W 7992   7.010   8.429   9.249
 4249W        W 7993   8.863   4.066  11.396
 4250W        W 7994   2.251   4.461  10.329
 4251W        W 7995  10.026   5.548   0.883
 4252W        W 7996   6.927   7.120   1.463
 4253W        W 7997   3.096   5.008   9.385
 4254W        W 7998   8.049   8.926   2.820
 4255W        W 7999   9.225   0.592   2.271
 4256W        W 8000   5.676   0.373   9.193
 4257W        W 8001   2.708   3.597   9.137
 4258W        W 8002   8.942   1.467  10.224
 4259W        W 8003   0.681   9.252   2.750
 4260W        W 8004   7.887   5.064   3.241
 4261W        W 8005   0.799   1.804   1.243
 4262W        W 8006   6.634   8.596   3.211
 4263W        W 8007   7.461   3.435   2.408
 4264W        W 8008   0.004   5.571   0.222
 4265W        W 8009   4.644   5.549   1.375
 4266W        W 8010   3.181   5.131  11.879
 4267W        W 8011   3.289   0.466   9.568
 4268W        W 8012   7.628   4.750  10.318
 4269W        W 8013   4.345   4.930  11.278
 4270W        W 8014   1.587   8.836  10.036
 4271W        W 8015   6.008   6.605  10.304
 4272W        W 8016   4.293   1.756  10.647
 4273W        W 8017   8.479   6.677  10.971
 4274W        W 8018   0.287   8.635  11.976
 4275W        W 8019   7.394  10.494   0.993
 4276W        W 8020   6.629   9.910   9.241
 4277W        W 8021   7.221   0.893   9.991
 4278W        W 8022   6.263   2.872   2.350
 4279W        W 8023   3.721   8.219   0.268
 4280W        W 8024   8.417   3.219   9.202
 4281W        W 8025  10.412   0.331   2.680
 4282W        W 8026   4.012   4.285   9.541
 4283W        W 8027   4.171   3.531   1.733
 4284W        W 8028   6.756   3.717   9.035
 4285W        W 8029   9.594   7.610  11.881
 4286W        W 8030   3.831   2.821   2.267
 4287W        W 8031   0.539   9.329   1.214
 4288W        W 8032   6.285   3.186   3.223
 4289W        W 8033   9.874   4.275  10.522
 4290W        W 8034   7.720   2.720  11.882
 4291W        W 8035   3.641   6.897   2.259
 4292W        W 8036   1.205   8.745   1.920
 4293W        W 8037   4.187   3.959   1.481
 4294W        W 8038   4.037   9.950   2.868
 4295W        W 8039   2.626   5.945  10.849
 4296W        W 8040   8.431   0.511   2.689
 4297W        W 8041   5.695   0.347   1.715
 4298W        W 8042   0.993   7.498  10.787
 4299W        W 8043   6.651   0.507   3.122
 4300W        W 8044   6.137   8.172   3.666
 4301W        W 8045   2.856   8.792   0.794
 4302W        W 8046   2.342   7.708   3.509
 4303W        W 8047   5.984   7.207   0.340
 4304W        W 8048   6.754   9.549   3.526
 4305W        W 8049   4.282   9.928  10.482
 4306W        W 8050   9.384   7.805   9.002
 4307W        W 8051   4.187   3.131  11.733
 4308W        W 8052   6.469   4.064   1.851
 4309W        W 8053   6.258   7.907  11.595
 4310W        W 8054   3.291   0.171   3.266
 4311W        W 8055   4.240   8.123  11.308
 4312W        W 8056   1.391   5.795  10.464
 4313W        W 8057   5.851   1.870   1.410
 4314W        W 8058   2.109   5.126  10.799
 4315W        W 8059   7.957   2.282   0.443
 4316W        W 8060   5.738   9.327   3.557
 4317W        W 8061   8.507   2.741   1.684
 4318W        W 8062   4.129  10.408  11.903
 4319W        W 8063   8.762   6.602  11.804
 4320W        W 8064   6.919   0.436   0.287
 4321W        W 8065   0.358   1.519   2.701
 4322W        W 8066   0.209   6.023   9.004
 4323W        W 8067   2.821   0.347   1.092
 4324W        W 8068   3.836   3.849   0.481
 4325W        W 8069   2.977   7.910  11.696
 4326W        W 8070   3.954   8.284  10.029
 4327W        W 8071   2.713   6.877  10.729
 4328W        W 8072   4.085   0.089   9.959
 4329W        W 8073   3.775   9.551   8.988
 4330W        W 8074   2.793   8.045   0.183
 4331W        W 8075   4.665   2.056   9.536
 4332W        W 8076   5.988   5.000   0.964
 4333W        W 8077   2.644   6.601  11.440
 4334W        W 8078   6.625   0.255   2.640
 4335W        W 8079   2.692   2.296   9.078
 4336W        W 8080   0.475   1.719   2.220
 4337W        W 8081   9.812   7.962   0.202
 4338W        W 8082   2.621   8.025  11.360
 4339W        W 8083   9.940   7.956   3.245
 4340W        W 8084   4.450   2.400  11.042
 4341W        W 8085  10.412   8.949   1.764
 4342W        W 8086   2.763   5.891   3.905
 4343W        W 8087   8.877   8.746   0.759
 4344W        W 8088   4.093   7.980   2.827
 4345W        W 8089   5.669   6.237   1.876
 4346W        W 8090  10.448   6.608  10.134
 4347W        W 8091   9.902   3.628   2.217
 4348W        W 8092   3.859   5.090   9.766
 4349W        W 8093   0.813   4.174   9.055
 4350W        W 8094   3.290   8.971   1.922
 4351W        W 8095   8.553   6.694   9.049
 4352W        W 8096   9.402   9.376  11.015
 4353W        W 8097   6.042  10.010   0.366
 4354W        W 8098   3.174  10.447  11.880
 4355W        W 8099   9.797   7.449   8.921
 4356W        W 8100   5.996   9.366   9.157
 4357W        W 8101   1.932   1.779   0.044
 4358W        W 8102   2.540   8.520   1.864
 4359W        W 8103   7.599   5.654  10.341
 4360W        W 8104   5.152   5.237  10.067
 4361W        W 8105  10.341   0.910   0.970
 4362W        W 8106   8.094   3.153   0.712
 4363W        W 8107   9.127   8.609   0.303
 4364W        W 8108   3.616   4.224   2.739
 4365W        W 8109   0.540   1.312   1.385
 4366W        W 8110   0.998   6.118  10.352
 4367W        W 8111   9.343   4.935  11.404
 4368W        W 8112   0.832   9.655   1.879
 4369W        W 8113   0.324   9.959   3.261
 4370W        W 8114   2.701   4.691  11.745
 4371W        W 8115   5.263   7.680   0.487
 4372W        W 8116   9.364   9.534   1.032
 4373W        W 8117   2.821   3.660   9.628
 4374W        W 8118   1.763   2.937   1.224
 4375W        W 8119   1.378   2.747   0.959
 4376W        W 8120   4.672   0.071   9.050
 4377W        W 8121   9.842   3.556   0.234
 4378W        W 8122   2.804   7.190   1.807
 4379W        W 8123   1.156   2.828  11.220
 4380W        W 8124   1.870   9.528   1.472
 4381W        W 8125   7.606   2.325   1.387
 4382W        W 8126   4.935   2.236  10.971
 4383W        W 8127  10.228   8.034   0.922
 4384W        W 8128   8.349   7.103   3.628
 4385W        W 8129   5.917   3.964   0.272
 4386W        W 8130   7.513   8.456   0.979
 4387W        W 8131   3.701   4.524   3.574
 4388W        W 8132   9.032   5.520  10.742
 4389W        W 8133   0.538   5.737  11.519
 4390W        W 8134   6.113   2.863   0.174
 4391W        W 8135   1.632   4.130  10.275
 4392W        W 8136   4.348   2.184   1.893
 4393W        W 8137   3.401  10.070   9.536
 4394W        W 8138   3.832   2.628   1.406
 4395W        W 8139   9.700   0.174  11.768
 4396W        W 8140   9.855   8.806   3.012
 4397W        W 8141   5.467   7.241   1.993
 4398W        W 8142   2.110   3.954  10.218
 4399W        W 8143   7.981   5.614   0.327
 4400W        W 8144   2.327   7.879  10.597
 4401W        W 8145   2.248   5.520  10.454
 4402W        W 8146   8.599   5.770   2.217
 4403W        W 8147   4.910   0.708   3.160
 4404W        W 8148   0.460   2.199   3.152
 4405W        W 8149   8.202   4.730   0.669
 4406W        W 8150   3.718   1.436   1.971
 4407W        W 8151   0.783  10.199   3.347
 4408W        W 8152   8.122   8.513   2.105
 4409W        W 8153   2.831   4.519   2.396
 4410W        W 8154   0.756   3.111   0.297
 4411W        W 8155   2.804   3.765   2.838
 4412W        W 8156   9.508   9.009   2.312
 4413W        W 8157   8.690   6.731   2.362
 4414W        W 8158   6.429   4.138   9.188
 4415W        W 8159   7.306   9.217   8.762
 4416W        W 8160   9.878   5.055   9.593
 4417W        W 8161   3.247  10.498   2.771
 4418W        W 8162   6.883   5.503   2.556
 4419W        W 8163   3.595   1.325   2.935
 4420W        W 8164   3.830   9.036   9.045
 4421W        W 8165   6.987   3.153   1.704
 4422W        W 8166   0.820   8.942   9.886
 4423W        W 8167   3.389   3.090  11.509
 4424W        W 8168   4.033   7.526   1.768
 4425W        W 8169   0.345   6.603   1.808
 4426W        W 8170   9.386   4.404  11.361
 4427W        W 8171   3.193   5.336   0.389
 4428W        W 8172   6.221   3.940   3.526
 4429W        W 8173   4.714   7.100   0.134
 4430W        W 8174   4.740   3.509  11.949
 4431W        W 8175   5.649   1.753   8.977
 4432W        W 8176   8.852   4.751   3.417
 4433W        W 8177   1.373   5.228   9.798
 4434W        W 8178   8.374   3.262   9.725
 4435W        W 8179   7.941   9.111  11.076
 4436W        W 8180   0.780   1.280   2.870
 4437W        W 8181   3.268   8.811   9.257
 4438W        W 8182   7.561   2.005   0.673
 4439W        W 8183   7.525   8.241   8.524
 4440W        W 8184   7.441   7.882   0.433
 4441W        W 8185   8.510   6.533  10.451
 4442W        W 8186   0.675   6.853   9.385
 4443W        W 8187   5.643   5.073   9.334
 4444W        W 8188   5.941   1.309   3.219
 4445W        W 8189   5.122   0.798   8.718
 4446W        W 8190   5.636   0.037   3.413
 4447W        W 8191   5.928   7.318   1.002
 4448W        W 8192   1.268   9.902   1.810
 4449W        W 8193   6.910   5.158   2.940
 4450W        W 8194   7.941   9.757   9.829
 4451W        W 8195   6.397   6.961   0.521
 4452W        W 8196   9.479   9.932   8.981
 4453W        W 8197   9.794   4.676  11.458
 4454W        W 8198   5.983   2.768   3.244
 4455W        W 8199   4.640  10.083   8.872
 4456W        W 8200   4.410   3.644   8.620
 4457W        W 8201   8.973   6.586   3.127
 4458W        W 8202   4.730   6.933   2.646
 4459W        W 8203   2.717   7.444   3.309
 4460W        W 8204   5.654   0.785   0.319
 4461W        W 8205   3.303   5.956   4.055
 4462W        W 8206   9.708   5.712   1.376
 4463W        W 8207   1.780   4.613  10.203
 4464W        W 8208   9.163   9.810  11.152
 4465W        W 8209   7.922   8.963   2.310
 4466W        W 8210   6.997   2.162   9.351
 4467W        W 8211   4.788   1.765   0.501
 4468W        W 8212   4.810   7.328   2.967
 4469W        W 8213   1.346   1.278   9.391
 4470W        W 8214   9.793  10.461   1.741
 4471W        W 8215  10.229   5.092   8.736
 4472W        W 8216   7.628   6.575   9.531
 4473W        W 8217   2.214   2.208   0.151
 4474W        W 8218   8.469   2.903   0.348
 4475W        W 8219   8.309   6.535   0.583
 4476W        W 8220   5.623   5.697   2.744
 4477W        W 8221   5.179   4.361  10.355
 4478W        W 8222   6.445   2.180   8.890
 4479W        W 8223   3.283   9.113   0.815
 4480W        W 8224   4.324   3.384  10.391
 4481W        W 8225   4.887   1.548   1.201
 4482W        W 8226   7.522   1.824  11.807
 4483W        W 8227   8.112   3.980   3.602
 4484W        W 8228   3.634   2.726   9.533
 4485W        W 8229   2.836   4.330  11.404
 4486W        W 8230   9.394   1.832   9.109
 4487W        W 8231   3.402   4.440   4.003
 4488W        W 8232   9.261   3.273  10.335
 4489W        W 8233   7.767   3.227  10.975
 4490W        W 8234   1.369   5.588   1.966
 4491W        W 8235   1.819   8.189   2.264
 4492W        W 8236   7.914   3.703  10.782
 4493W        W 8237   5.294   4.673   2.683
 4494W        W 8238   1.872   7.131   0.043
 4495W        W 8239   6.940   1.295   1.261
 4496W        W 8240   5.440   7.440  11.685
 4497W        W 8241   1.755   4.614   9.170
 4498W        W 8242   8.642   4.197  10.023
 4499W        W 8243   5.151   8.014  11.354
 4500W        W 8244  10.196   6.674   2.899
 4501W        W 8245   4.716  10.137   1.186
 4502W        W 8246  10.251   7.259   2.147
 4503W        W 8247   4.593   3.263   0.567
 4504W        W 8248   1.897   4.759   2.841
 4505W        W 8249   0.210   7.449   3.289
 4506W        W 8250   3.943   9.911  11.905
 4507W        W 8251   8.105   8.250   1.675
 4508W        W 8252   9.373   7.194   8.703
 4509W        W 8253   3.160   0.902   9.354
 4510W        W 8254   1.973   3.254   0.551
 4511W        W 8255   5.920   2.099   9.630
 4512W        W 8256   5.236   7.541   8.535
 4513W        W 8257   6.766   8.881  11.455
 4514W        W 8258   9.134   3.129   3.357
 4515W        W 8259  10.104   2.209   1.128
 4516W        W 8260   1.360   7.121   0.902
 4517W        W 8261   8.597   2.154   8.756
 4518W        W 8262   7.312   2.225   1.783
 4519W        W 8263   8.472   0.277   1.214
 4520W        W 8264  10.423   0.885   9.247
 4521W        W 8265   0.779   2.938   3.598
 4522W        W 8266   9.885   6.622   3.330
 4523W        W 8267   3.838   5.681   2.677
 4524W        W 8268   8.451  10.243   1.835
 4525W        W 8269   8.628   4.166  10.942
 4526W        W 8270   4.164   9.866   8.867
 4527W        W 8271   1.177   2.338   2.203
 4528W        W 8272   6.927   7.594   8.950
 4529W        W 8273   1.446   3.123   9.581
 4530W        W 8274   2.802  10.414  11.063
 4531W        W 8275   8.240   5.970  10.438
 4532W        W 8276   6.683   1.555   1.689
 4533W        W 8277   3.803   8.615  10.426
 4534W        W 8278   4.245   0.340   0.752
 4535W        W 8279   2.469   7.661  11.021
 4536W        W 8280   3.217   2.991   2.887
 4537W        W 8281   1.757   0.222   2.090
 4538W        W 8282   8.532   6.164   8.578
 4539W        W 8283   7.497   2.155   0.200
 4540W        W 8284   6.938   7.445  11.708
 4541W        W 8285   3.302   6.510   9.960
 4542W        W 8286   6.056   3.782  11.731
 4543W        W 8287   2.067   4.742  11.162
 4544W        W 8288   2.424   5.101   1.914
 4545W        W 8289   3.223   7.908  10.392
 4546W        W 8290   0.729   7.885   0.527
 4547W        W 8291  10.237   7.042  10.284
 4548W        W 8292   2.038   5.041   9.477
 4549W        W 8293   4.645   5.124   1.100
 4550W        W 8294   2.298   0.696  11.501
 4551W        W 8295   4.072   9.092   2.581
 4552W        W 8296   7.138   9.340   9.772
 4553W        W 8297   9.812   6.108   3.326
 4554W        W 8298   9.706  10.426   9.096
 4555W        W 8299   7.463   7.463   8.918
 4556W        W 8300   5.710   4.155  11.840
 4557W        W 8301   6.605   7.591   3.201
 4558W        W 8302  10.091   5.600  11.314
 4559W        W 8303   8.979   8.866   2.823
 4560W        W 8304   2.367   3.656  10.551
 4561W        W 8305   5.677   0.319   2.248
 4562W        W 8306   0.231  10.439  11.718
 4563W        W 8307  10.261   1.817   3.575
 4564W        W 8308   0.328   0.138   0.686
 4565W        W 8309   3.286   3.804   1.679
 4566W        W 8310   7.103   9.007  10.472
 4567W        W 8311   7.371   7.145   1.141
 4568W        W 8312   4.610   6.110   2.703
 4569W        W 8313   8.675   6.968  11.394
 4570W        W 8314   5.960   8.608  11.033
 4571W        W 8315   1.251   3.192   1.158
 4572W        W 8316   8.208   9.406   2.250
 4573W        W 8317   6.478   4.073   0.343
 4574W        W 8318   3.202   9.871   1.985
 4575W        W 8319   2.662   7.669   9.057
 4576W        W 8320   0.713   4.325  11.713
 4577W        W 8321   4.222   9.109  11.577
 4578W        W 8322   8.008   7.527   9.015
 4579W        W 8323   3.285   1.253  11.974
 4580W        W 8324   8.143   6.675   8.705
 4581W        W 8325   3.545   1.412  11.546
 4582W        W 8326   3.924   9.619  10.284
 4583W        W 8327   1.672   2.764  11.302
 4584W        W 8328   5.353   9.557   2.491
 4585W        W 8329   9.220  10.305   9.264
 4586W        W 8330   7.274   8.500   0.286
 4587W        W 8331   8.001  10.092   0.843
 4588W        W 8332   9.509   2.809  10.388
 4589W        W 8333   5.057   0.359  10.083
 4590W        W 8334   7.334   8.534   2.277
 4591W        W 8335   7.155   5.037   2.501
 4592W        W 8336   3.109  10.438  10.445
 4593W        W 8337   2.444   3.297   9.759
 4594W        W 8338   2.429   5.590   2.690
 4595W        W 8339   7.872   5.548   3.499
 4596W        W 8340  10.454   6.571   3.379
 4597W        W 8341   7.777   8.766  11.422
 4598W        W 8342   7.851   3.162   2.620
 4599W        W 8343   2.314   0.243   0.377
 4600W        W 8344   0.804   3.960   0.687
 4601W        W 8345   3.864   4.072  10.004
 4602W        W 8346   1.370   6.510  11.541
 4603W        W 8347   6.679   2.307   1.230
 4604W        W 8348   1.207   1.527  11.713
 4605W        W 8349   2.213   9.926   3.493
 4606W        W 8350   9.470   7.037   0.473
 4607W        W 8351   1.326   2.324   1.710
 4608W        W 8352  10.319   9.249   0.425
 4609W        W 8353   0.124   1.791   3.105
 4610W        W 8354   4.705   3.622  11.463
 4611W        W 8355   5.097   1.741   9.745
 4612W        W 8356   7.704   3.596   1.581
 4613W        W 8357   1.172   0.574  11.900
 4614W        W 8358   5.427   7.964   9.105
 4615W        W 8359   9.451   2.312   8.909
 4616W        W 8360   2.289   6.744   3.382
 4617W        W 8361   2.733   7.063  11.628
 4618W        W 8362   6.100   6.573   2.394
 4619W        W 8363   4.470   4.372   0.213
 4620W        W 8364   6.896   0.685   2.596
 4621W        W 8365   5.239   3.020   1.610
 4622W        W 8366   1.304   2.375   2.715
 4623W        W 8367   0.161   5.184   0.556
 4624W        W 8368   7.040   2.683   9.513
 4625W        W 8369   3.558   6.377   3.119
 4626W        W 8370   0.087   7.962   9.404
 4627W        W 8371   1.413   8.931   1.485
 4628W        W 8372   1.690   4.044   0.178
 4629W        W 8373   6.680   7.474  10.771
 4630W        W 8374  10.052   2.652   8.967
 4631W        W 8375   9.869  10.129   8.685
 4632W        W 8376   8.926   9.647  10.313
 4633W        W 8377   3.673   3.103   0.939
 4634W        W 8378   0.878   4.080   9.941
 4635W        W 8379   2.366   4.228  11.225
 4636W        W 8380   1.903   6.396   1.101
 4637W        W 8381   9.069   5.016   1.961
 4638W        W 8382   0.714   1.367  11.533
 4639W        W 8383   3.336   9.258   9.035
 4640W        W 8384   5.409   7.589  11.195
 4641W        W 8385   6.956   2.358  11.190
 4642W        W 8386   5.415   8.545   2.421
 4643W        W 8387   9.342  10.274  11.318
 4644W        W 8388   3.801   1.362   2.463
 4645W        W 8389   5.343   3.624   8.155
 4646W        W 8390   6.400   9.489   2.354
 4647W        W 8391   2.855   3.214   2.112
 4648W        W 8392   5.726   8.813   3.539
 4649W        W 8393   8.539   6.084  11.301
 4650W        W 8394   1.034   1.375   0.403
 4651W        W 8395  10.447   9.614   0.094
 4652W        W 8396   0.226   1.118  10.256
 4653W        W 8397   3.961   6.616   1.946
 4654W        W 8398   3.422   5.178   1.948
 4655W        W 8399   2.748   7.194  10.315
 4656W        W 8400   6.271   1.708   1.126
 4657W        W 8401   6.691   9.145   3.138
 4658W        W 8402   4.104   9.192   0.203
 4659W        W 8403   2.351   1.247   9.583
 4660W        W 8404   4.285   0.350  11.712
 4661W        W 8405   7.442   4.959   4.061
 4662W        W 8406   7.845  10.243   9.062
 4663W        W 8407   0.678   6.838   0.291
 4664W        W 8408   8.053   6.124  11.502
 4665W        W 8409   6.226   6.995  11.949
 4666W        W 8410   7.170   1.404  10.293
 4667W        W 8411   0.794   2.603   0.338
 4668W        W 8412   0.935   4.773  10.436
 4669W        W 8413   9.431   8.989  10.662
 4670W        W 8414   6.059   2.869  11.245
 4671W        W 8415   3.156   1.866   2.650
 4672W        W 8416   6.445   5.470  11.308
 4673W        W 8417   3.891   3.146  10.291
 4674W        W 8418   2.866   8.287   0.909
 4675W        W 8419   4.543   3.174   8.432
 4676W        W 8420   4.569   4.086   8.392
 4677W        W 8421   7.995   6.065  10.992
 4678W        W 8422   8.224   7.437  11.911
 4679W        W 8423   8.139   1.171   9.618
 4680W        W 8424   9.353   6.280   2.472
 4681W        W 8425   7.430   3.591   9.374
 4682W        W 8426   1.195   8.903   9.071
 4683W        W 8427   0.691   4.349  11.209
 4684W        W 8428   8.366   8.959   2.013
 4685W        W 8429   7.834   0.905   0.234
 4686W        W 8430  10.462   7.049   2.638
 4687W        W 8431   4.007   1.663   0.839
 4688W        W 8432   4.373   3.930   4.005
 4689W        W 8433   8.679   9.972   0.497
 4690W        W 8434   9.438   3.275   8.942
 4691W        W 8435   0.204   1.409   0.301
 4692W        W 8436   8.401   4.773   1.159
 4693W        W 8437   3.231   9.429   1.682
 4694W        W 8438   2.494   9.099   8.607
 4695W        W 8439   5.185   6.965   2.896
 4696W        W 8440   9.551   1.046   9.483
 4697W        W 8441   4.088   8.755  11.932
 4698W        W 8442   7.638   3.067  11.461
 4699W        W 8443   6.322   6.922   1.012
 4700W        W 8444   5.248   8.063   1.782
 4701W        W 8445   0.066   6.856   2.190
 4702W        W 8446   9.682   5.943   0.914
 4703W        W 8447   3.645   4.372  11.560
 4704W        W 8448   9.864   3.873  11.829
 4705W        W 8449   4.633   2.659   8.324
 4706W        W 8450   7.719   5.390   9.935
 4707W        W 8451   7.626   7.888  11.576
 4708W        W 8452   8.378  10.226  11.273
 4709W        W 8453   0.929   2.130  10.978
 4710W        W 8454   7.566   6.058   1.740
 4711W        W 8455   4.875   8.181   1.383
 4712W        W 8456   4.025   1.614   3.141
 4713W        W 8457   1.624   0.327  11.719
 4714W        W 8458   4.145   5.748   1.845
 4715W        W 8459   7.484   1.774  10.984
 4716W        W 8460   7.741   6.338   9.991
 4717W        W 8461   7.080   3.304   8.418
 4718W        W 8462   3.708   6.036   9.927
 4719W        W 8463   1.372   2.887  10.313
 4720W        W 8464   2.398   8.347   0.050
 4721W        W 8465   8.132   7.625   0.816
 4722W        W 8466   3.624   6.381   2.235
 4723W        W 8467   2.661   6.471   3.127
 4724W        W 8468   5.279   0.422  11.402
 4725W        W 8469   0.347   8.358   2.428
 4726W        W 8470   3.708   2.332  10.882
 4727W        W 8471   5.114   8.497   1.996
 4728W        W 8472   5.220   0.346   2.460
 4729W        W 8473   4.178   5.619   9.773
 4730W        W 8474   3.755   5.458  10.655
 4731W        W 8475   0.499   2.977   2.761
 4732W        W 8476   9.306   4.343   2.931
 4733W        W 8477   2.214   6.190   3.269
 4734W        W 8478   8.989   4.572  11.596
 4735W        W 8479   7.037   5.191  11.041
 4736W        W 8480   7.984   5.506  11.811
 4737W        W 8481   2.622   9.948  11.420
 4738W        W 8482  10.091  10.266   3.640
 4739W        W 8483   8.965   9.850   9.003
 4740W        W 8484   4.646  10.036   2.177
 4741W        W 8485   5.562   9.381  11.236
 4742W        W 8486   3.169   8.648  10.970
 4743W        W 8487   9.563   6.565   0.660
 4744W        W 8488   2.630  10.464  10.568
 4745W        W 8489   2.141   2.576   1.119
 4746W        W 8490   6.997   1.399   2.889
 4747W        W 8491   8.420   9.402   1.762
 4748W        W 8492   4.796   4.474  10.011
 4749W        W 8493   9.358   7.927   1.475
 4750W        W 8494   3.524   7.944   9.975
 4751W        W 8495   5.962   4.175   1.711
 4752W        W 8496   9.866   2.986  11.571
 4753W        W 8497   6.878   3.222  10.785
 4754W        W 8498   8.885  10.068   8.541
 4755W        W 8499  10.362   6.130  10.301
 4756W        W 8500   2.311   0.323   0.931
 4757W        W 8501   0.716   5.999  11.914
 4758W        W 8502   6.013   5.207  11.138
 4759W        W 8503  10.316   3.662   9.874
 4760W        W 8504   5.754   8.950  11.458
 4761W        W 8505   9.857   6.399   9.981
 4762W        W 8506   4.895   1.170  11.741
 4763W        W 8507   9.912   4.384  11.912
 4764W        W 8508   8.873   7.210   9.437
 4765W        W 8509   4.727   0.360   0.546
 4766W        W 8510   7.424   5.281   3.073
 4767W        W 8511   3.918  10.085   9.582
 4768W        W 8512   8.750   0.918  10.990
 4769W        W 8513   1.382   5.492   1.420
 4770W        W 8514   6.659   1.498   0.838
 4771W        W 8515   0.947   7.696   1.363
 4772W        W 8516  10.275   7.521  11.447
 4773W        W 8517   3.579   9.983   2.614
 4774W        W 8518   5.906   2.422   0.919
 4775W        W 8519   2.163   4.021  11.657
 4776W        W 8520   3.177   8.006   1.426
 4777W        W 8521   1.298   2.806   2.443
 4778W        W 8522   7.060   8.422   2.920
 4779W        W 8523   2.244   3.058   0.963
 4780W        W 8524   7.872   9.957   0.299
 4781W        W 8525   7.003   8.572  10.196
 4782W        W 8526   6.136   8.849   0.789
 4783W        W 8527   9.447   3.776   8.748
 4784W        W 8528   3.234   3.600   2.148
 4785W        W 8529   8.522   9.768  11.957
 4786W        W 8530   5.603   8.544  10.446
 4787W        W 8531   9.082   9.311   2.511
 4788W        W 8532   2.541   0.926  11.913
 4789W        W 8533   1.301  10.249   3.224
 4790W        W 8534   5.621   5.984   2.316
 4791W        W 8535   1.469   8.156  10.524
 4792W        W 8536   9.503   4.563   1.502
 4793W        W 8537   5.954   8.431   2.335
 4794W        W 8538   5.869   8.895   0.344
 4795W        W 8539   4.290   1.881   0.469
 4796W        W 8540   6.117   9.858   9.110
 4797W        W 8541   8.902   1.212   0.768
 4798W        W 8542   4.652   4.990   2.138
 4799W        W 8543   6.729   1.175  10.582
 4800W        W 8544   3.386   3.181   9.092
 4801W        W 8545   8.214   9.364   8.783
 4802W        W 8546   3.738   2.305  10.335
 4803W        W 8547   7.408   7.074   2.158
 4804W        W 8548   9.011   3.679   3.344
 4805W        W 8549   5.065   9.455  11.243
 4806W        W 8550   7.405  10.146   8.444
 4807W        W 8551   0.775   3.810   1.171
 4808W        W 8552   5.460   6.833  10.147
 4809W        W 8553   2.948   7.709  11.095
 4810W        W 8554   9.876   0.284   9.492
 4811W        W 8555   6.785   3.701   0.147
 4812W        W 8556   4.978   7.397   1.836
 4813W        W 8557   9.375   6.034   3.552
 4814W        W 8558   7.411   9.712   2.510
 4815W        W 8559  10.124   8.476  11.394
 4816W        W 8560   5.506   2.164   9.297
 4817W        W 8561   3.326   5.476   2.376
 4818W        W 8562   1.459   4.664   3.168
 4819W        W 8563   7.740   5.646   9.493
 4820W        W 8564   0.692   8.321  10.359
 4821W        W 8565  10.268   1.149   0.418
 4822W        W 8566   4.759   9.629   0.139
 4823W        W 8567   8.916   6.429  10.168
 4824W        W 8568   0.255  10.150   0.855
 4825W        W 8569   6.391   2.709   8.997
 4826W        W 8570   4.970   6.625  11.765
 4827W        W 8571   2.686   7.667   9.575
 4828W        W 8572   5.630   0.781   9.516
 4829W        W 8573   9.999   7.371  11.007
 4830W        W 8574   6.788   4.223   8.818
 4831W        W 8575  10.347   9.535  11.608
 4832W        W 8576   3.186   8.097   2.984
 4833W        W 8577   8.501   9.799   8.726
 4834W        W 8578   3.216   5.484  11.500
 4835W        W 8579   0.566   7.588   2.660
 4836W        W 8580   9.331   5.337   2.761
 4837W        W 8581   3.362   9.400  10.442
 4838W        W 8582   7.874   2.057   8.390
 4839W        W 8583   5.478   6.701  11.545
 4840W        W 8584   6.911   6.970   9.473
 4841W        W 8585   0.400   1.570   0.935
 4842W        W 8586  10.204   0.709   1.856
 4843W        W 8587   1.820   8.638   1.340
 4844W        W 8588   3.082   5.203   3.595
 4845W        W 8589   3.802   1.870  10.602
 4846W        W 8590   0.879   9.472  10.871
 4847W        W 8591   0.141   0.443   9.987
 4848W        W 8592   4.273   1.687  11.996
 4849W        W 8593   5.444   7.762   9.968
 4850W        W 8594   0.414   8.752  10.496
 4851W        W 8595   7.132   5.945  11.556
 4852W        W 8596   0.364   9.472  10.825
 4853W        W 8597   3.551   0.831   3.123
 4854W        W 8598   0.123   8.232   1.201
 4855W        W 8599   4.152   5.540  11.052
 4856W        W 8600   9.801   1.654   3.388
 4857W        W 8601   7.614   2.740  10.875
 4858W        W 8602   5.565   3.122   0.702
 4859W        W 8603   3.218   2.996   0.714
 4860W        W 8604   3.619   4.893  11.710
 4861W        W 8605   2.311   9.455   3.307
 4862W        W 8606   5.698   3.428  10.308
 4863W        W 8607   0.754   9.772  11.728
 4864W        W 8608   8.527   2.866  10.993
 4865W        W 8609   4.812   2.555   0.244
 4866W        W 8610   9.973   3.782   3.199
 4867W        W 8611   5.440   1.394   3.376
 4868W        W 8612   4.195   5.004   3.005
 4869W        W 8613   3.593   8.157   2.622
 4870W        W 8614   0.794  10.393   9.082
 4871W        W 8615   7.473   0.941   2.007
 4872W        W 8616   9.351   8.731   3.200
 4873W        W 8617  10.150   9.878  11.289
 4874W        W 8618   0.469   3.931   9.681
 4875W        W 8619   1.255   1.414   2.739
 4876W        W 8620   0.973   7.505   0.906
 4877W        W 8621   5.636   3.814  11.439
 4878W        W 8622   7.087   8.323   0.726
 4879W        W 8623   3.835   0.408  11.981
 4880W        W 8624   5.989   0.207  10.402
 4881W        W 8625   6.314   5.151   1.339
 4882W        W 8626   7.900   2.351  11.034
 4883W        W 8627   8.960   0.955  10.319
 4884W        W 8628   3.612   5.254   0.687
 4885W        W 8629   3.736   7.900  10.947
 4886W        W 8630   4.934   9.384   2.209
 4887W        W 8631   1.106   4.123   9.490
 4888W        W 8632   4.135   9.259   2.105
 4889W        W 8633   6.514   6.520   0.283
 4890W        W 8634   7.016   3.028  10.337
 4891W        W 8635   3.118  10.295   0.368
 4892W        W 8636   4.931   4.224   0.389
 4893W        W 8637   5.175  10.442   9.244
 4894W        W 8638   0.835   2.415   1.276
 4895W        W 8639   0.515   3.468  11.447
 4896W        W 8640   2.394   8.979   3.089
 4897W        W 8641   0.691   2.196   2.287
 4898W        W 8642   5.391   0.297   1.282
 4899W        W 8643   0.134   2.226   9.849
 4900W        W 8644   0.018   3.301   3.354
 4901W        W 8645   6.275   4.752  10.746
 4902W        W 8646   4.385   5.368  11.637
 4903W        W 8647   2.422   0.258   1.440
 4904W        W 8648   3.800   2.148   0.858
 4905W        W 8649   2.885   8.543   0.315
 4906W        W 8650   6.585   3.250   2.297
 4907W        W 8651   2.366   7.933   1.589
 4908W        W 8652   9.698   7.493   3.227
 4909W        W 8653   8.116   5.486  10.260
 4910W        W 8654   2.450   2.186   3.333
 4911W        W 8655   1.864   1.140   2.999
 4912W        W 8656   4.409   0.306  10.309
 4913W        W 8657   9.395   6.229   1.968
 4914W        W 8658   4.795   1.755  11.979
 4915W        W 8659   9.138   9.887   0.726
 4916W        W 8660   6.420   7.243   1.377
 4917W        W 8661   3.769   5.658   0.938
 4918W        W 8662   8.384   5.681  11.015
 4919W        W 8663   6.610   8.754   9.392
 4920W        W 8664   0.496   3.108  11.866
 4921W        W 8665   3.728   6.508   0.943
 4922W        W 8666   0.879   5.762  11.134
 4923W        W 8667   9.629   2.981   3.347
 4924W        W 8668   7.564   4.518   1.799
 4925W        W 8669   9.607   0.610   9.789
 4926W        W 8670   0.323   8.973  10.040
 4927W        W 8671   7.576   8.475  10.968
 4928W        W 8672   1.852   5.441   9.183
 4929W        W 8673   1.727   3.630   2.301
 4930W        W 8674   5.198   0.180  11.860
 4931W        W 8675   1.902   5.629   2.723
 4932W        W 8676   7.648   6.984  11.417
 4933W        W 8677   8.334   1.940   3.302
 4934W        W 8678  10.337   5.121  11.115
 4935W        W 8679   2.339   7.342  10.621
 4936W        W 8680   9.015   1.995   1.720
 4937W        W 8681   5.995   3.296  11.910
 4938W        W 8682   7.154   2.133   1.242
 4939W        W 8683   4.591   2.210   9.032
 4940W        W 8684   6.114  10.363  11.341
 4941W        W 8685   2.643  10.221   2.167
 4942W        W 8686   3.354   7.869  11.325
 4943W        W 8687   4.319   6.248   1.962
 4944W        W 8688   1.520   7.716   3.475
 4945W        W 8689   9.846   0.846   9.091
 4946W        W 8690   4.615   8.811   0.794
 4947W        W 8691   2.791   8.386  11.739
 4948W        W 8692   7.978   0.212   1.967
 4949W        W 8693   3.172   5.730   3.587
 4950W        W 8694   0.214   6.650   2.909
 4951W        W 8695   7.321   2.586   9.090
 4952W        W 8696   5.452   3.918   3.962
 4953W        W 8697   1.916   0.370   1.323
 4954W        W 8698   4.281   6.371  11.470
 4955W        W 8699   9.073   2.678  11.760
 4956W        W 8700   0.489   4.655   9.084
 4957W        W 8701   0.020   7.508   0.610
 4958W        W 8702   7.726   1.616  11.403
 4959W        W 8703   3.527   4.865   9.095
 4960W        W 8704   8.923   1.360   2.978
 4961W        W 8705   1.890   3.405   8.851
 4962W        W 8706   2.684   0.746   9.396
 4963W        W 8707   7.134   9.809   3.243
 4964W        W 8708   4.224  10.316   1.270
 4965W        W 8709   8.370   0.496   2.157
 4966W        W 8710   2.395   7.233   2.156
 4967W        W 8711   9.240   6.510  11.628
 4968W        W 8712  10.366   8.929  11.392
 4969W        W 8713   4.082   0.831  11.788
 4970W        W 8714   2.231   3.804   2.165
 4971W        W 8715   3.135   5.696   8.763
 4972W        W 8716   0.459   5.974   9.497
 4973W        W 8717   0.881   6.546   3.324
 4974W        W 8718   5.628   2.357   1.370
 4975W        W 8719   2.093   0.169   8.983
 4976W        W 8720   9.012   9.940   0.054
 4977W        W 8721   0.933   6.605   9.788
 4978W        W 8722  10.473   6.561   1.070
 4979W        W 8723   9.450   4.626  11.858
 4980W        W 8724   5.938   6.062  11.042
 4981W        W 8725   6.626   5.028   1.724
 4982W        W 8726   8.503   7.918  11.463
 4983W        W 8727   5.677   0.221   2.756
 4984W        W 8728   6.179   1.765   3.215
 4985W        W 8729   0.834   3.106   3.131
 4986W        W 8730   6.605  10.232  10.609
 4987W        W 8731   5.551   3.830   9.943
 4988W        W 8732   9.943   8.211   2.370
 4989W        W 8733   5.997   6.414   2.888
 4990W        W 8734   5.053  10.316   0.825
 4991W        W 8735   5.549   1.754  11.026
 4992W        W 8736   5.265   8.885   8.827
 4993W        W 8737   8.308   0.510  10.897
 4994W        W 8738   5.070   8.854   9.874
 4995W        W 8739   8.849   1.867  11.157
 4996W        W 8740   3.111  10.134   2.420
 4997W        W 8741   9.563   0.991  10.498
 4998W        W 8742   1.619   7.177   1.362
 4999W        W 8743   5.720   7.572   8.356
 5000W        W 8744   4.760   4.125  11.414
 5001W        W 8745   1.233  10.247   1.431
 5002W        W 8746   3.529  10.474   0.731
 5003W        W 8747   6.604   9.115   2.624
 5004W        W 8748   5.877  10.315   3.005
 5005W        W 8749   4.859   8.309   8.533
 5006W        W 8750   2.632   1.619   1.794
 5007W        W 8751   1.897   2.595   0.270
 5008W        W 8752   1.691   8.896   0.892
 5009W        W 8753   2.320   8.524   9.906
 5010W        W 8754   7.569   6.020  11.289
 5011W        W 8755   8.897   3.725  10.066
 5012W        W 8756   0.977   6.521  10.707
 5013W        W 8757   5.170   8.546   3.296
 5014W        W 8758   4.562   3.264   2.262
 5015W        W 8759   7.659   6.495   8.534
 5016W        W 8760   0.251   4.259  10.944
 5017W        W 8761   0.420   3.420   9.581
 5018W        W 8762   5.511   8.532  11.318
 5019W        W 8763   5.327   1.174   2.000
 5020W        W 8764   6.448   6.804   3.614
 5021W        W 8765   4.225   3.838   3.231
 5022W        W 8766   5.232   1.874  11.724
 5023W        W 8767   1.826   8.133   2.793
 5024W        W 8768   6.452   7.830   9.056
 5025W        W 8769   8.815   5.227   2.783
 5026W        W 8770  10.316   8.788  10.544
 5027W        W 8771   0.671   9.852   0.773
 5028W        W 8772   1.267  10.454   2.728
 5029W        W 8773   7.981   2.486  11.518
 5030W        W 8774   5.153   7.708   2.190
 5031W        W 8775   2.783   6.383   9.414
 5032W        W 8776   2.878   0.311   2.491
 5033W        W 8777   7.456   2.122   2.604
 5034W        W 8778   5.119   9.387   9.005
 5035W        W 8779   1.361   4.834   8.872
 5036W        W 8780   9.470   3.839   2.066
 5037W        W 8781   1.392   7.631  10.301
 5038W        W 8782   9.460   8.555  10.885
 5039W        W 8783   5.113   3.006   9.907
 5040W        W 8784   9.803   5.030   9.046
 5041W        W 8785   0.681   4.385   9.508
 5042W        W 8786   7.833   0.844   9.336
 5043W        W 8787   8.904   8.007   0.713
 5044W        W 8788   9.865   1.353  11.700
 5045W        W 8789  10.494   7.855  10.436
 5046W        W 8790   3.025   1.475   2.954
 5047W        W 8791   8.627   8.712  11.020
 5048W        W 8792  10.425   7.661  11.939
 5049W        W 8793   4.267   7.260  11.943
 5050W        W 8794   5.342   2.395   0.169
 5051W        W 8795   0.280   2.568  11.302
 5052W        W 8796   6.189   8.364   0.908
 5053W        W 8797   6.969   6.871   1.945
 5054W        W 8798   4.790   1.309   0.231
 5055W        W 8799   3.252   8.199   0.034
 5056W        W 8800   0.471   4.674   3.067
 5057W        W 8801   4.721   0.307   1.069
 5058W        W 8802   2.170   0.660  11.007
 5059W        W 8803   9.793   3.141   0.556
 5060W        W 8804   0.506   8.822   2.561
 5061W        W 8805   6.134   2.414   0.453
 5062W        W 8806   2.642   9.103  11.509
 5063W        W 8807   5.706   6.344   0.416
 5064W        W 8808   0.197   7.902  10.904
 5065W        W 8809   0.945   9.971  10.895
 5066W        W 8810   6.150   9.360   2.794
 5067W        W 8811   6.977   6.991   3.001
 5068W        W 8812  10.314   6.256  11.745
 5069W        W 8813   3.260   7.351  11.265
 5070W        W 8814   1.756   1.231   2.500
 5071W        W 8815   0.410   2.734   2.314
 5072W        W 8816   7.452   0.418   0.747
 5073W        W 8817  10.061   7.374   2.618
 5074W        W 8818   8.924   3.801   1.259
 5075W        W 8819   6.998   9.590   8.986
 5076W        W 8820   1.211   0.432  10.889
 5077W        W 8821   6.738   4.166   3.568
 5078W        W 8822   9.836   6.695  10.397
 5079W        W 8823   9.794   3.163   2.470
 5080W        W 8824   1.892   9.448   0.829
 5081W        W 8825   9.980   2.730  10.612
 5082W        W 8826   0.951  10.496  10.020
 5083W        W 8827   6.144   0.165   3.515
 5084W        W 8828   9.348   8.035   0.463
 5085W        W 8829   1.820  10.266  10.004
 5086W        W 8830   3.054   4.950  10.394
 5087W        W 8831   2.564   9.440  10.241
 5088W        W 8832   3.645   4.134  10.499
 5089W        W 8833   2.408   8.584   0.926
 5090W        W 8834   6.098   3.896   2.166
 5091W        W 8835   3.207   8.113  10.894
 5092W        W 8836  10.132   9.456   3.485
 5093W        W 8837   3.713   1.363   8.744
 5094W        W 8838   6.004   5.509   2.442
 5095W        W 8839   5.992   3.258   1.428
 5096W        W 8840   4.101   6.083  11.087
 5097W        W 8841   4.728   8.966  11.507
 5098W        W 8842   2.143   4.440   9.458
 5099W        W 8843   7.440   3.732   8.512
 5100W        W 8844   4.777   7.400   2.401
 5101W        W 8845   8.389   5.530   2.630
 5102W        W 8846   5.035   8.867  11.896
 5103W        W 8847   7.089   3.186   9.407
 5104W        W 8848   0.423   8.198   3.336
 5105W        W 8849   4.353   2.793  11.380
 5106W        W 8850   9.885   3.206   1.481
 5107W        W 8851   3.778   3.614   3.398
 5108W        W 8852   2.955   9.830   0.789
 5109W        W 8853   2.517   4.873   9.532
 5110W        W 8854   2.775   1.369   2.229
 5111W        W 8855   6.184   1.358  11.017
 5112W        W 8856   2.602   3.225  10.345
 5113W        W 8857   4.317   7.497   8.955
 5114W        W 8858   6.543   7.360   3.678
 5115W        W 8859   1.296   6.080   2.166
 5116W        W 8860   9.237   5.952  10.315
 5117W        W 8861   5.032   9.414   1.668
 5118W        W 8862   3.890   1.160   3.392
 5119W        W 8863   3.652   9.628   9.484
 5120W        W 8864   9.767   0.491   2.337
 5121W        W 8865   5.163   2.326  11.408
 5122W        W 8866   1.961   1.702   1.014
 5123W        W 8867   6.947   9.421   2.382
 5124W        W 8868   9.314  10.361   8.743
 5125W        W 8869   5.075   5.601   1.664
 5126W        W 8870   1.499   7.168   9.357
 5127W        W 8871   8.796   0.913   0.338
 5128W        W 8872   9.421   7.551   9.672
 5129W        W 8873   9.074   0.871   1.231
 5130W        W 8874   6.565   6.200   1.297
 5131W        W 8875   0.847   4.811  11.799
 5132W        W 8876   6.592   3.558  11.233
 5133W        W 8877   8.839   7.199   1.143
 5134W        W 8878   6.462   8.421  11.352
 5135W        W 8879   4.317   0.399   8.833
 5136W        W 8880   9.390   3.652  11.958
 5137W        W 8881   2.459   0.864   0.496
 5138W        W 8882   1.274   0.109   2.247
 5139W        W 8883   8.267  10.494   9.296
 5140W        W 8884   8.254   1.383   2.665
 5141W        W 8885   4.118   7.513   8.485
 5142W        W 8886   2.396   6.491  10.605
 5143W        W 8887   5.748   6.526   9.873
 5144W        W 8888   3.327   6.449   0.587
 5145W        W 8889   4.724   1.188   9.772
 5146W        W 8890   6.711   6.461  10.767
 5147W        W 8891   2.276   6.944  10.969
 5148W        W 8892   3.616   7.676   0.247
 5149W        W 8893   5.188   4.175  11.750
 5150W        W 8894   0.390   6.921   3.320
 5151W        W 8895   6.550   0.717  11.496
 5152W        W 8896   2.740   5.525   0.255
 5153W        W 8897   3.816   0.589   8.780
 5154W        W 8898   4.596   7.817   1.078
 5155W        W 8899   8.587   2.897  11.840
 5156W        W 8900   8.860   7.227   8.500
 5157W        W 8901   4.588   6.289   9.449
 5158W        W 8902  10.114  10.218   9.890
 5159W        W 8903   1.932   5.235  11.299
 5160W        W 8904  10.066   4.014   0.877
 5161W        W 8905   8.032   5.906   1.887
 5162W        W 8906   1.989   0.002   1.684
 5163W        W 8907   6.119   0.810   1.655
 5164W        W 8908   4.319   7.211   2.444
 5165W        W 8909   2.242   1.105   2.353
 5166W        W 8910   7.712   6.004   8.438
 5167W        W 8911   7.656   4.612   0.265
 5168W        W 8912   2.751   8.122   8.828
 5169W        W 8913   6.928   5.883   1.443
 5170W        W 8914   9.109   9.465   9.320
 5171W        W 8915   7.472   2.588   0.454
 5172W        W 8916   5.596   1.238   2.850
 5173W        W 8917   0.139   6.147  10.774
 5174W        W 8918   4.152   2.384  10.640
 5175W        W 8919   3.292  10.116   3.455
 5176W        W 8920   6.080   7.859   9.433
 5177W        W 8921   1.435   7.572   0.627
 5178W        W 8922   8.154   6.978  11.323
 5179W        W 8923   5.199   2.692  11.781
 5180W        W 8924   0.368   3.616  11.911
 5181W        W 8925   4.593   7.558   3.850
 5182W        W 8926   9.017   2.626   2.343
 5183W        W 8927   2.710   5.453  10.761
 5184W        W 8928   6.962   2.648   3.004
 5185W        W 8929   0.358   8.001  11.777
 5186W        W 8930  10.258   1.667   0.418
 5187W        W 8931   1.417   6.235   1.197
 5188W        W 8932   2.429   3.748   0.011
 5189W        W 8933   2.723   3.216   0.766
 5190W        W 8934   8.536   8.132   2.038
 5191W        W 8935   6.598   0.442   9.257
 5192W        W 8936   3.128   3.109  11.942
 5193W        W 8937   2.383   3.002  11.553
 5194W        W 8938   0.308   2.342   0.216
 5195W        W 8939   4.874   8.816   0.364
 5196W        W 8940   6.699   7.720   2.490
 5197W        W 8941   4.774   0.807  11.321
 5198W        W 8942   1.930   1.388  10.892
 5199W        W 8943   9.582   4.215  10.943
 5200W        W 8944   3.759   1.858  10.077
 5201W        W 8945   0.914  10.218  10.444
 5202W        W 8946   7.444   1.348   1.193
 5203W        W 8947   5.136   8.810  10.532
 5204W        W 8948   5.802   8.441   8.640
 5205W        W 8949   8.152   0.891   0.664
 5206W        W 8950   4.520   4.249   3.204
 5207W        W 8951   8.461  10.011   2.562
 5208W        W 8952  10.444   8.787   0.301
 5209W        W 8953   1.928   9.053   2.312
 5210W        W 8954   5.732   6.916  11.926
 5211W        W 8955   4.658   2.327   1.495
 5212W        W 8956   5.134   4.796   9.787
 5213W        W 8957   3.377   8.891  10.278
 5214W        W 8958   2.911   0.940   9.826
 5215W        W 8959   6.979   3.759  11.532
 5216W        W 8960   1.416   2.472   8.864
 5217W        W 8961   3.766   7.054   1.760
 5218W        W 8962  10.360   9.922   0.629
 5219W        W 8963   2.702  10.369   1.255
 5220W        W 8964   3.642   9.586   2.023
 5221W        W 8965   5.473   4.597  11.870
 5222W        W 8966   1.678   4.110   2.142
 5223W        W 8967  10.453   5.540   1.866
 5224W        W 8968   0.484   7.158   9.751
 5225W        W 8969   2.433   7.432   8.658
 5226W        W 8970   2.601   4.965  10.676
 5227W        W 8971   5.335   0.342   9.615
 5228W        W 8972   0.786   8.775  10.852
 5229W        W 8973   9.545   0.959   2.485
 5230W        W 8974   4.341   0.357   9.351
 5231W        W 8975   9.719   1.832   1.942
 5232W        W 8976   8.087   6.642   1.077
 5233W        W 8977   6.556   6.713  11.710
 5234W        W 8978   0.478   5.551   8.792
 5235W        W 8979   3.265   1.990   0.397
 5236W        W 8980   5.449   8.897  10.987
 5237W        W 8981   0.944   8.864   8.624
 5238W        W 8982   9.311   8.939  11.511
 5239W        W 8983   6.087   0.825   0.668
 5240W        W 8984   6.120   6.619   1.748
 5241W        W 8985   1.160   1.805   9.323
 5242W        W 8986   5.472   8.016   8.590
 5243W        W 8987   4.804   3.132   1.831
 5244W        W 8988  10.486   1.320   8.984
 5245W        W 8989   2.907   5.695   2.581
 5246W        W 8990   9.406   7.037   1.947
 5247W        W 8991   0.064   7.535   2.772
 5248W        W 8992   0.346   0.032   2.632
 5249W        W 8993   2.429   8.940  10.485
 5250W        W 8994   9.623   9.430   9.458
 5251W        W 8995   7.664   8.092   9.401
 5252W        W 8996   6.383   3.898   8.713
 5253W        W 8997   8.869   2.343  10.080
 5254W        W 8998   2.887   3.882   0.164
 5255W        W 8999   3.507   3.006   1.407
 5256W        W 9000   7.568   0.046   3.248
 5257W        W 9001   1.344   3.842   3.223
 5258W        W 9002   8.729   0.874   9.543
 5259W        W 9003   4.666   5.962   2.207
 5260W        W 9004   2.684   5.348   9.456
 5261W        W 9005   6.464   1.789  10.979
 5262W        W 9006   5.688   9.972  10.591
 5263W        W 9007   1.689   9.892   2.132
 5264W        W 9008   4.245   5.274   2.080
 5265W        W 9009   5.525   8.870  10.080
 5266W        W 9010   5.408   7.139   8.259
 5267W        W 9011   5.533   8.901  11.921
 5268W        W 9012   3.093   4.267   1.801
 5269W        W 9013   1.680   6.009   3.016
 5270W        W 9014   3.049   7.410   9.342
 5271W        W 9015   3.556   6.101   3.588
 5272W        W 9016   9.453   8.912   1.411
 5273W        W 9017   0.461  10.254   9.532
 5274W        W 9018   1.501   7.331   2.640
 5275W        W 9019   8.839   2.217   2.686
 5276W        W 9020   6.578   1.038   2.413
 5277W        W 9021   6.199  10.191   9.491
 5278W        W 9022   8.330   9.046  10.753
 5279W        W 9023   0.598   8.249   0.169
 5280W        W 9024   2.304   1.685   1.386
 5281W        W 9025   0.009   6.732   0.084
 5282W        W 9026   4.335   6.064   0.226
 5283W        W 9027   2.922   9.905   9.534
 5284W        W 9028   7.006   5.805   2.164
 5285W        W 9029   9.077   5.063  10.042
 5286W        W 9030  10.297   4.859   0.836
 5287W        W 9031   2.446   9.930   0.954
 5288W        W 9032   4.290   2.100   0.947
 5289W        W 9033   0.759   1.865   8.873
 5290W        W 9034   6.489   3.246   1.510
 5291W        W 9035   5.317   3.322   8.570
 5292W        W 9036   5.386   9.893   3.817
 5293W        W 9037   5.126   8.987   1.432
 5294W        W 9038   5.243   2.863   3.920
 5295W        W 9039   7.888   1.798   0.263
 5296W        W 9040   7.863   6.381   2.010
 5297W        W 9041   1.659   6.029  10.858
 5298W        W 9042   0.298   0.926   8.865
 5299W        W 9043   5.759   2.871   1.108
 5300W        W 9044   8.685   5.646   8.422
 5301W        W 9045   0.544   5.501   0.467
 5302W        W 9046   7.509   4.694   3.619
 5303W        W 9047   7.964   5.711   0.854
 5304W        W 9048   7.877   2.304   0.970
 5305W        W 9049   0.278  10.409  11.148
 5306W        W 9050   8.207   5.925   3.365
 5307W        W 9051   7.017   8.084  10.436
 5308W        W 9052   7.940  10.247   1.741
 5309W        W 9053   6.104  10.399   0.695
 5310W        W 9054   7.319   4.526   9.990
 5311W        W 9055   3.547   2.600   0.942
 5312W        W 9056   4.751   2.270   3.435
 5313W        W 9057   3.914   3.951   2.415
 5314W        W 9058   2.276   7.091  10.079
 5315W        W 9059   7.455  10.044   9.787
 5316W        W 9060   1.325   1.904   2.501
 5317W        W 9061   5.786   4.651   1.901
 5318W        W 9062   9.490   2.661  11.467
 5319W        W 9063   3.182   3.502   0.738
 5320W        W 9064   9.503   3.861   2.961
 5321W        W 9065   5.744   4.644   2.419
 5322W        W 9066   0.493   3.819   2.555
 5323W        W 9067   4.145   7.321  11.464
 5324W        W 9068   8.424   4.300   2.370
 5325W        W 9069  10.495   5.698   0.698
 5326W        W 9070   0.892   0.129   9.531
 5327W        W 9071   8.494   5.738  10.061
 5328W        W 9072  10.484   2.620  10.442
 5329W        W 9073   5.582   1.471   1.676
 5330W        W 9074   8.937   6.420   8.787
 5331W        W 9075   7.916   4.924   1.069
 5332W        W 9076   7.542   4.423   4.039
 5333W        W 9077   3.793   5.408   2.224
 5334W        W 9078  10.288   1.378  11.972
 5335W        W 9079   9.007   8.385   2.066
 5336W        W 9080   5.551   3.927   9.067
 5337W        W 9081   8.082   9.363   1.335
 5338W        W 9082   8.925   4.184   9.566
 5339W        W 9083   9.027   8.606   9.959
 5340W        W 9084   3.765   3.098   8.734
 5341W        W 9085   7.032   6.933   2.474
 5342W        W 9086   5.401  10.012   8.596
 5343W        W 9087   7.652   9.263  11.456
 5344W        W 9088   9.222   6.997   1.469
 5345W        W 9089   0.133   5.019   2.849
 5346W        W 9090   6.763   6.548   9.777
 5347W        W 9091   9.787   9.313   3.110
 5348W        W 9092   9.571   6.948   2.604
 5349W        W 9093   4.219   6.377  10.642
 5350W        W 9094   3.813   0.549   2.031
 5351W        W 9095   5.850   3.238   8.563
 5352W        W 9096   8.533   4.324   0.290
 5353W        W 9097   8.595   5.193  10.932
 5354W        W 9098   0.286   5.113   9.292
 5355W        W 9099   5.533   6.162   9.229
 5356W        W 9100   9.434   0.030   2.512
 5357W        W 9101   7.149   8.979   1.503
 5358W        W 9102   9.359   4.598   3.386
 5359W        W 9103   5.060   6.012  10.578
 5360W        W 9104   1.409   4.597   1.656
 5361W        W 9105   9.199  10.496   1.147
 5362W        W 9106   0.293   3.143   1.468
 5363W        W 9107   6.988   0.703  11.850
 5364W        W 9108   0.298   3.601   1.224
 5365W        W 9109   0.899   6.505  11.817
 5366W        W 9110   0.493   3.579   0.759
 5367W        W 9111   0.566   9.627  11.259
 5368W        W 9112   3.308   1.782   9.248
 5369W        W 9113   1.420  10.481  10.768
 5370W        W 9114   5.011   1.982   1.451
 5371W        W 9115   4.898   8.076   3.172
 5372W        W 9116   3.224   2.291   9.121
 5373W        W 9117   5.414   5.616  10.472
 5374W        W 9118  10.290   4.030   1.355
 5375W        W 9119   7.582   5.327   0.880
 5376W        W 9120   1.983   6.394  10.286
 5377W        W 9121   6.993   4.705  10.890
 5378W        W 9122   0.821   9.964   1.487
 5379W        W 9123   5.635   3.617   9.472
 5380W        W 9124  10.317   0.339  11.411
 5381W        W 9125   6.481   1.148   1.417
 5382W        W 9126   3.702   8.577   9.458
 5383W        W 9127   6.447   0.932  10.999
 5384W        W 9128   0.995   1.847   0.769
 5385W        W 9129   1.299   2.691   9.818
 5386W        W 9130   6.154   6.428   0.698
 5387W        W 9131   2.778   6.504   1.186
 5388W        W 9132   2.976   3.208   3.593
 5389W        W 9133  10.321   1.289  11.460
 5390W        W 9134   9.167   6.207   0.479
 5391W        W 9135   9.884   1.185   3.154
 5392W        W 9136   8.564   5.219  10.062
 5393W        W 9137   3.748   7.379  11.021
 5394W        W 9138   7.983   0.852  11.725
 5395W        W 9139   8.866   4.046   2.198
 5396W        W 9140   7.977  10.222   3.192
 5397W        W 9141   3.601  10.439   9.806
 5398W        W 9142   0.881   7.233  11.981
 5399W        W 9143   7.493   8.561   9.517
 5400W        W 9144   3.674   4.593   9.783
 5401W        W 9145   9.021   1.362  11.210
 5402W        W 9146   7.623   8.687   2.667
 5403W        W 9147   1.861   6.885   0.961
 5404W        W 9148   3.837   0.386  10.315
 5405W        W 9149   9.144   3.998  10.978
 5406W        W 9150   9.786   9.634  10.311
 5407W        W 9151   5.059   6.008   2.956
 5408W        W 9152   3.713   9.208   0.535
 5409W        W 9153   8.476   7.978   0.437
 5410W        W 9154   9.768   4.602   9.380
 5411W        W 9155   7.509   2.431   2.212
 5412W        W 9156   7.817   4.381  11.333
 5413W        W 9157   8.449   4.742   2.120
 5414W        W 9158   8.910   1.780   2.318
 5415W        W 9159   1.594   4.210   9.437
 5416W        W 9160   5.539   5.326   1.794
 5417W        W 9161   5.424   4.207   0.253
 5418W        W 9162   8.971   1.280  10.701
 5419W        W 9163   3.070   6.869  11.256
 5420W        W 9164   9.792   7.783   2.786
 5421W        W 9165   4.209   3.552   1.179
 5422W        W 9166   1.337   4.822  10.115
 5423W        W 9167   2.326   9.192   0.232
 5424W        W 9168   5.683   2.727   0.388
 5425W        W 9169   3.166   5.252   0.963
 5426W        W 9170   8.770   6.315   0.815
 5427W        W 9171   7.685  10.072   2.771
 5428W        W 9172   1.805   5.484   9.684
 5429W        W 9173   8.722   8.337   3.599
 5430W        W 9174   9.222   0.299  11.931
 5431W        W 9175   4.186   1.251   2.808
 5432W        W 9176   0.767   9.977   0.250
 5433W        W 9177   7.910   0.469   0.498
 5434W        W 9178   1.852  10.397  11.015
 5435W        W 9179   0.337   2.501   2.778
 5436W        W 9180   4.288   5.513   0.926
 5437W        W 9181   5.509   8.860   9.583
 5438W        W 9182   5.621   5.447   8.969
 5439W        W 9183   3.421   4.074   2.254
 5440W        W 9184   6.673   7.956  11.271
 5441W        W 9185   7.793   5.195  10.501
 5442W        W 9186   3.235   9.510   1.172
 5443W        W 9187   1.649   0.238   9.986
 5444W        W 9188   4.944   5.774  11.392
 5445W        W 9189   6.480   8.106   3.274
 5446W        W 9190   2.342   4.648   1.652
 5447W        W 9191   9.983   0.965  11.995
 5448W        W 9192   4.975   7.590  11.584
 5449W        W 9193   5.375   1.671   1.282
 5450W        W 9194   2.833   3.401   1.573
 5451W        W 9195   1.394   0.377  10.412
 5452W        W 9196   4.665   8.082  10.533
 5453W        W 9197   1.613   3.018   0.231
 5454W        W 9198   5.540   8.300  10.873
 5455W        W 9199   7.627   7.406   1.708
 5456W        W 9200   2.613   8.458   2.387
 5457W        W 9201   1.852   2.199   0.950
 5458W        W 9202   3.345   3.838   0.378
 5459W        W 9203   8.498   2.289   9.264
 5460W        W 9204   1.629   1.342  11.327
 5461W        W 9205   3.572   1.890   3.006
 5462W        W 9206   1.153   9.552  10.437
 5463W        W 9207   1.771   0.062   8.572
 5464W        W 9208   0.157   9.200  10.467
 5465W        W 9209   3.892  10.428   2.674
 5466W        W 9210   4.431   7.591   2.750
 5467W        W 9211   0.716   3.294   1.177
 5468W        W 9212   3.608   5.708   1.680
 5469W        W 9213   4.098   9.357   9.364
 5470W        W 9214   4.070   7.505  10.628
 5471W        W 9215   2.031   1.461   3.365
 5472W        W 9216   4.963   9.974   3.448
 5473W        W 9217   0.215   7.374   2.304
 5474W        W 9218   1.798   5.445   2.169
 5475W        W 9219   4.693   0.673   9.058
 5476W        W 9220   0.493   3.858   3.055
 5477W        W 9221   4.326   5.140   9.567
 5478W        W 9222   1.896   2.881   8.351
 5479W        W 9223   8.181   5.043  11.794
 5480W        W 9224   8.049   8.632   0.762
 5481W        W 9225   3.236   7.374  10.340
 5482W        W 9226   7.138   0.768   3.032
 5483W        W 9227   0.709   3.096  10.913
 5484W        W 9228  10.497   9.431   1.991
 5485W        W 9229   6.186   9.062   3.393
 5486W        W 9230   1.110   0.451   9.145
 5487W        W 9231   6.159   6.189   2.040
 5488W        W 9232   4.028   9.670   3.307
 5489W        W 9233   7.026   4.582   3.746
 5490W        W 9234   9.234   3.402   9.790
 5491W        W 9235   4.594   4.149  10.910
 5492W        W 9236   5.057   2.382   9.474
 5493W        W 9237   1.225   4.203  11.028
 5494W        W 9238   8.640   6.735   8.541
 5495W        W 9239   9.341   0.834   8.896
 5496W        W 9240   8.908   1.700   8.842
 5497W        W 9241   5.079   6.103   9.541
 5498W        W 9242   6.100   1.954   0.249
 5499W        W 9243   0.621   6.314   2.935
 5500W        W 9244   4.258   3.646  11.721
 5501W        W 9245   3.299   6.159   8.582
 5502W        W 9246   0.663   8.871   9.079
 5503W        W 9247   5.763   1.774   8.420
 5504W        W 9248   4.604   9.244   0.460
 5505W        W 9249   0.961   1.775   0.114
 5506W        W 9250  10.356   4.484   2.567
 5507W        W 9251   8.629   7.561   0.835
 5508W        W 9252   9.380   1.525   9.535
 5509W        W 9253   9.875   1.349  11.196
 5510W        W 9254   4.285   3.120   2.738
 5511W        W 9255   2.872   2.153  10.356
 5512W        W 9256   4.242   5.235   1.387
 5513W        W 9257   7.605   8.803   0.581
 5514W        W 9258   4.738   1.709  10.362
 5515W        W 9259   6.166   7.586   8.092
 5516W        W 9260   9.273   6.238   0.965
 5517W        W 9261   8.473   6.061   2.644
 5518W        W 9262   3.214   7.129   1.137
 5519W        W 9263   2.790   9.741   2.272
 5520W        W 9264   9.461   3.546   2.513
 5521W        W 9265   6.433   2.299  10.974
 5522W        W 9266   6.173   9.661  11.841
 5523W        W 9267   6.454   2.167  11.461
 5524W        W 9268   5.971   4.650  11.751
 5525W        W 9269   7.216   6.714   8.378
 5526W        W 9270   7.129   1.972  11.497
 5527W        W 9271   1.449   7.905   1.937
 5528W        W 9272   9.079   6.992  11.727
 5529W        W 9273   9.181   2.237  10.949
 5530W        W 9274   0.447   6.944  11.856
 5531W        W 9275   7.389   8.003   2.206
 5532W        W 9276   1.210  10.078   0.508
 5533W        W 9277   0.431   7.646   1.862
 5534W        W 9278   3.435   3.657  10.981
 5535W        W 9279   5.758  10.325  10.966
 5536W        W 9280   2.625   8.821  11.952
 5537W        W 9281   1.363   0.939   2.643
 5538W        W 9282   4.621  10.352   3.356
 5539W        W 9283   9.107   8.909  11.052
 5540W        W 9284   2.205   2.512   9.222
 5541W        W 9285   9.363   8.219   3.044
 5542W        W 9286   6.399   5.350  10.426
 5543W        W 9287   6.535   1.735   0.390
 5544W        W 9288   3.256   2.381  10.638
 5545W        W 9289   5.669   8.382   9.948
 5546W        W 9290   7.481   1.552   2.661
 5547W        W 9291   7.899   7.992  10.246
 5548W        W 9292  10.271   2.802   9.409
 5549W        W 9293   1.609   5.069  10.940
 5550W        W 9294   7.184   9.676   3.775
 5551W        W 9295   1.257   4.168   0.904
 5552W        W 9296   9.772   2.803   9.558
 5553W        W 9297   0.881   0.418   1.452
 5554W        W 9298   6.456   0.762   8.842
 5555W        W 9299   4.742  10.091   1.688
 5556W        W 9300   7.534   9.031   3.506
 5557W        W 9301   8.804   1.540   3.451
 5558W        W 9302   8.056   8.026   2.256
 5559W        W 9303   5.602   2.637   2.454
 5560W        W 9304   1.929   9.086   3.314
 5561W        W 9305   7.155   9.729  11.963
 5562W        W 9306   0.664   0.066  11.436
 5563W        W 9307   8.520   3.223   1.403
 5564W        W 9308   9.018   6.041  11.468
 5565W        W 9309   8.320   2.447  10.769
 5566W        W 9310   3.267   7.303   0.199
 5567W        W 9311   8.312   7.129   0.707
 5568W        W 9312   4.255   0.303   1.789
 5569W        W 9313   0.748   4.769   1.489
 5570W        W 9314   0.895  10.180   8.569
 5571W        W 9315   3.403  10.024   0.992
 5572W        W 9316   5.638   4.128   1.201
 5573W        W 9317   7.371   3.157  10.689
 5574W        W 9318   3.644   3.527   2.438
 5575W        W 9319   8.058   9.777   3.463
 5576W        W 9320   9.812   4.715   2.421
 5577W        W 9321   6.527   6.082   0.664
 5578W        W 9322   9.993   4.490  11.020
 5579W        W 9323  10.314   6.126  11.197
 5580W        W 9324   4.220   0.883   8.939
 5581W        W 9325   1.816   7.394   0.927
 5582W        W 9326   4.225   9.495   1.099
 5583W        W 9327   0.895   2.267  11.972
 5584W        W 9328   5.641   7.242   2.822
 5585W        W 9329   4.739   6.468  10.801
 5586W        W 9330   5.551   2.694  11.393
 5587W        W 9331   7.479   8.953   1.054
 5588W        W 9332   2.806   9.060   0.377
 5589W        W 9333   8.120   4.220   3.161
 5590W        W 9334   8.089   5.112   2.580
 5591W        W 9335   6.560   2.661  11.353
 5592W        W 9336   8.082   4.969   1.563
 5593W        W 9337   1.383   1.640   1.202
 5594W        W 9338   9.709   2.261   2.228
 5595W        W 9339   8.369   2.425  10.269
 5596W        W 9340   3.720   0.438   9.817
 5597W        W 9341   8.821   3.129   2.461
 5598W        W 9342   4.035   9.444   8.443
 5599W        W 9343   7.520   1.915   2.146
 5600W        W 9344   8.944   2.636   0.242
 5601W        W 9345   7.037   6.943  11.707
 5602W        W 9346   5.052   2.356  10.491
 5603W        W 9347   5.981   7.914   2.439
 5604W        W 9348   0.058   2.381   0.934
 5605W        W 9349   6.251   4.659   1.588
 5606W        W 9350   2.416   3.394   2.919
 5607W        W 9351   1.973   4.569   3.301
 5608W        W 9352   7.689   6.436   3.388
 5609W        W 9353   7.076  10.171  10.931
 5610W        W 9354   2.217  10.272   9.263
 5611W        W 9355   7.899   0.291   9.532
 5612W        W 9356   3.022   8.475   3.264
 5613W        W 9357   3.126   0.703  10.892
 5614W        W 9358   2.426  10.254   1.692
 5615W        W 9359   8.582   9.505   9.146
 5616W        W 9360   0.699  10.094  11.322
 5617W        W 9361   7.591   2.814  10.373
 5618W        W 9362   8.553   6.446   9.558
 5619W        W 9363   6.955  10.421   1.219
 5620W        W 9364   4.541   0.332  11.047
 5621W        W 9365   0.350   4.479   1.411
 5622W        W 9366   0.702  10.260  11.826
 5623W        W 9367   2.766   8.590   9.177
 5624W        W 9368   3.072   4.305   0.366
 5625W        W 9369   4.606   0.064   1.504
 5626W        W 9370   0.434   9.402   1.736
 5627W        W 9371   0.988   4.656   9.176
 5628W        W 9372  10.184   2.237  10.669
 5629W        W 9373   7.027   9.891  10.012
 5630W        W 9374   4.630   7.206  11.580
 5631W        W 9375   5.544   3.073  10.635
 5632W        W 9376  10.304   1.542   1.351
 5633W        W 9377   4.087   2.586   0.956
 5634W        W 9378   0.925   2.119   3.321
 5635W        W 9379   1.746   0.736  11.389
 5636W        W 9380   3.198   8.698  11.945
 5637W        W 9381   5.822   8.068   4.050
 5638W        W 9382   8.452   8.495   1.258
 5639W        W 9383   8.631   5.290  11.793
 5640W        W 9384   2.233   4.523  11.637
 5641W        W 9385   9.370   4.234  10.484
 5642W        W 9386   2.407   2.950   8.456
 5643W        W 9387   5.600   7.546   9.367
 5644W        W 9388   6.505   3.414   1.028
 5645W        W 9389   8.064   1.639   9.783
 5646W        W 9390   3.254   3.213   1.784
 5647W        W 9391   4.533  10.416   0.789
 5648W        W 9392   1.798   4.701   0.939
 5649W        W 9393   2.620   4.272   2.837
 5650W        W 9394   1.387   1.948   8.873
 5651W        W 9395   4.721   0.427   2.492
 5652W        W 9396   5.761   5.999   3.154
 5653W        W 9397   1.752   4.355  11.778
 5654W        W 9398   4.702   8.031  11.077
 5655W        W 9399   0.834   5.663  10.152
 5656W        W 9400   0.386  10.210  10.401
 5657W        W 9401   2.341   7.006   1.699
 5658W        W 9402   9.771   8.603  10.441
 5659W        W 9403   3.825  10.051   1.631
 5660W        W 9404   5.096   2.569   2.709
 5661W        W 9405   5.227   1.635   8.683
 5662W        W 9406   8.440   0.642   3.218
 5663W        W 9407   6.999   1.208   1.924
 5664W        W 9408   9.099   2.188  11.989
 5665W        W 9409   2.323   9.422   2.265
 5666W        W 9410   3.405   0.924   8.725
 5667W        W 9411   5.303   8.486   1.495
 5668W        W 9412   2.464   6.189   0.420
 5669W        W 9413   3.083   0.786  11.890
 5670W        W 9414   7.459   0.658  11.372
 5671W        W 9415   0.519   6.052   2.214
 5672W        W 9416   7.314   6.134   3.190
 5673W        W 9417   5.644   4.099  10.973
 5674W        W 9418   4.364   8.570   1.333
 5675W        W 9419  10.344   7.025  11.256
 5676W        W 9420   5.914   7.076  10.476
 5677W        W 9421   4.990   8.004   0.802
 5678W        W 9422   6.443   3.650   9.919
 5679W        W 9423   1.701   3.541   9.320
 5680W        W 9424   2.756   1.948   0.397
 5681W        W 9425   2.881   6.928   9.400
 5682W        W 9426   0.923   6.660   8.926
 5683W        W 9427   7.972   2.672   2.335
 5684W        W 9428   4.021   2.651   2.712
 5685W        W 9429   0.906   6.190   2.492
 5686W        W 9430  10.285   7.921   0.407
 5687W        W 9431   8.477   0.139   3.175
 5688W        W 9432   0.126   0.921   3.374
 5689W        W 9433   3.467   0.554   3.540
 5690W        W 9434   4.619   4.120   7.883
 5691W        W 9435   7.351   6.538   0.304
 5692W        W 9436   3.154  10.029   2.941
 5693W        W 9437   6.987   9.908   2.747
 5694W        W 9438   7.702   1.871   2.970
 5695W        W 9439  10.442   8.886   9.684
 5696W        W 9440   3.800   2.748  10.571
 5697W        W 9441   9.377   9.086   0.035
 5698W        W 9442  10.386   2.717   8.569
 5699W        W 9443   8.860   5.814   0.332
 5700W        W 9444   5.003   0.821   2.666
 5701W        W 9445   6.633   6.451   1.794
 5702W        W 9446   8.964   7.437   1.572
 5703W        W 9447   5.311   2.755   3.425
 5704W        W 9448  10.042   0.896   9.587
 5705W        W 9449   2.393   5.688   3.171
 5706W        W 9450   6.446   1.145   1.932
 5707W        W 9451   2.686   8.374   2.897
 5708W        W 9452   7.883   7.431  11.520
 5709W        W 9453   6.179   2.044   2.785
 5710W        W 9454   4.165   7.120   1.463
 5711W        W 9455   8.880   8.890   3.353
 5712W        W 9456   3.402   2.678   2.532
 5713W        W 9457   2.963   0.941   8.415
 5714W        W 9458   9.311   3.049   9.410
 5715W        W 9459   8.819   7.524   3.072
 5716W        W 9460   5.141   5.251   9.057
 5717W        W 9461   9.731   5.598  11.687
 5718W        W 9462  10.082   2.126   3.197
 5719W        W 9463  10.421   2.674   2.542
 5720W        W 9464   6.419   6.068  10.862
 5721W        W 9465   7.340   9.619   8.419
 5722W        W 9466   8.624   4.460   0.797
 5723W        W 9467   4.195   3.107   0.908
 5724W        W 9468   4.342   9.534   2.840
 5725W        W 9469   6.135   8.551   3.328
 5726W        W 9470   7.436  10.458   8.845
 5727W        W 9471   9.364   7.967   0.970
 5728W        W 9472   4.752   4.526   9.073
 5729W        W 9473   2.901   6.691  10.304
 5730W        W 9474   3.587   2.362   0.451
 5731W        W 9475   1.445   8.566   0.129
 5732W        W 9476  10.064   6.483   0.144
 5733W        W 9477   6.207  10.033  10.874
 5734W        W 9478   1.604   8.225   3.604
 5735W        W 9479   4.588   9.073   1.406
 5736W        W 9480   9.051   9.096   0.450
 5737W        W 9481   7.377   3.252   1.353
 5738W        W 9482   5.924   2.604   9.411
 5739W        W 9483   3.671   6.282   8.944
 5740W        W 9484   8.026   2.862   9.723
 5741W        W 9485   0.230   3.046  11.430
 5742W        W 9486   2.107   3.428  10.148
 5743W        W 9487   0.872   2.395  11.450
 5744W        W 9488   1.829   3.387   1.028
 5745W        W 9489   1.713   4.151   1.127
 5746W        W 9490   9.739   4.283   2.142
 5747W        W 9491   1.001   0.526   3.186
 5748W        W 9492   2.689   5.877   8.555
 5749W        W 9493   6.155   1.734   8.787
 5750W        W 9494   9.469   5.463   8.849
 5751W        W 9495   4.077   0.931   2.382
 5752W        W 9496   2.395   4.237   2.376
 5753W        W 9497   8.891   9.939   9.495
 5754W        W 9498   8.713   2.373  11.072
 5755W        W 9499   6.009   3.850   9.244
 5756W        W 9500   1.559   0.734   3.090
 5757W        W 9501   1.445   4.602   2.178
 5758W        W 9502   2.262   2.336  10.632
 5759W        W 9503   6.157   9.382  10.014
 5760W        W 9504   8.994   8.867   2.285
 5761W        W 9505   9.384   7.306  11.485
 5762W        W 9506   1.144   7.944   9.953
 5763W        W 9507   9.291   5.049   0.758
 5764W        W 9508   3.765   3.597   0.930
 5765W        W 9509   9.895   9.515   2.127
 5766W        W 9510   9.567   4.843   3.820
 5767W        W 9511   6.916   6.564   3.773
 5768W        W 9512   9.468   4.802   2.799
 5769W        W 9513   3.330   3.227   9.599
 5770W        W 9514   7.437   2.335   3.071
 5771W        W 9515   4.087   8.259  11.789
 5772W        W 9516   8.977   7.500   8.900
 5773W        W 9517   2.510   0.727  10.078
 5774W        W 9518   9.429   9.111   2.820
 5775W        W 9519   0.222   9.550   2.768
 5776W        W 9520   8.374   6.247  10.014
 5777W        W 9521  10.014   4.553   8.935
 5778W        W 9522   8.403   6.981   1.904
 5779W        W 9523  10.274   4.084   1.890
 5780W        W 9524   1.849   0.744   2.674
 5781W        W 9525   1.079   9.989   1.021
 5782W        W 9526   5.819   0.316   9.714
 5783W        W 9527   3.687   2.248   2.658
 5784W        W 9528   2.361   6.251   1.335
 5785W        W 9529   2.281   3.000   9.340
 5786W        W 9530   9.757   7.675  10.637
 5787W        W 9531   4.636   1.349   1.584
 5788W        W 9532   2.418   9.371  10.756
 5789W        W 9533   9.376   5.836   2.701
 5790W        W 9534   9.435   0.275   1.510
 5791W        W 9535   5.913   6.887   0.733
 5792W        W 9536   7.574   4.584   8.638
 5793W        W 9537   3.148   7.021   9.976
 5794W        W 9538   1.876   9.444   1.985
 5795W        W 9539   5.582   9.914   2.208
 5796W        W 9540   9.094   7.212   0.183
 5797W        W 9541   5.120   5.563   2.679
 5798W        W 9542   6.524   0.233  10.471
 5799W        W 9543   2.215   4.984  10.317
 5800W        W 9544   8.512   8.411   0.733
 5801W        W 9545   9.843   2.668   0.411
 5802W        W 9546   9.596   0.800   1.373
 5803W        W 9547   8.330   0.478  11.770
 5804W        W 9548   7.529   0.560  10.476
 5805W        W 9549   8.138   7.952   9.304
 5806W        W 9550   2.262   0.181  10.901
 5807W        W 9551   2.308   1.588   2.207
 5808W        W 9552   1.840   9.540   3.546
 5809W        W 9553   1.151   9.085  10.685
 5810W        W 9554   6.481   7.806  10.299
 5811W        W 9555   3.592   5.059   0.204
 5812W        W 9556   8.070   6.935  10.801
 5813W        W 9557   6.533   3.227   9.134
 5814W        W 9558   8.998   4.041   8.648
 5815W        W 9559   4.210   5.742   2.338
 5816W        W 9560   0.704   7.488   3.138
 5817W        W 9561   0.702   2.122   0.446
 5818W        W 9562   7.593   1.842   1.149
 5819W        W 9563   3.247   4.194   3.572
 5820W        W 9564   5.948   8.049   8.338
 5821W        W 9565   9.604   5.057  10.048
 5822W        W 9566   8.697   5.798   3.536
 5823W        W 9567   4.900   9.522   9.962
 5824W        W 9568   9.746   3.336  10.175
 5825W        W 9569   4.500   1.844   1.406
 5826W        W 9570   4.274   0.682  11.318
 5827W        W 9571   4.141   7.753  11.798
 5828W        W 9572   2.567   1.703   9.468
 5829W        W 9573   8.111   4.660   9.412
 5830W        W 9574   0.464   5.576   2.442
 5831W        W 9575   6.434   7.418  11.771
 5832W        W 9576   3.160   9.589   3.228
 5833W        W 9577   0.847   8.351   9.046
 5834W        W 9578   8.461   9.909   1.010
 5835W        W 9579   9.066   5.023  11.837
 5836W        W 9580   8.163   4.243   9.096
 5837W        W 9581   3.470   8.448  10.011
 5838W        W 9582   9.437   5.846   9.562
 5839W        W 9583   9.629   9.390   1.461
 5840W        W 9584   6.036   3.037   2.800
 5841W        W 9585   5.758   7.844  11.747
 5842W        W 9586   1.448   3.243  11.345
 5843W        W 9587   9.138   6.633   2.141
 5844W        W 9588   5.218   1.897   0.261
 5845W        W 9589   0.699   4.280   2.762
 5846W        W 9590  10.157   9.079  10.925
 5847W        W 9591   0.400   0.324   9.548
 5848W        W 9592   3.256   7.137   2.619
 5849W        W 9593   7.849   6.924   1.912
 5850W        W 9594   8.937   0.333   3.288
 5851W        W 9595   8.944   3.631   2.493
 5852W        W 9596   4.104   0.940   9.485
 5853W        W 9597   4.476   7.188  10.512
 5854W        W 9598   3.328   3.618  11.924
 5855W        W 9599   2.728   9.794   2.773
 5856W        W 9600   3.591   9.817   3.098
 5857W        W 9601   6.475   9.499   8.980
 5858W        W 9602   3.145   9.780   0.302
 5859W        W 9603   0.179   8.059   1.675
 5860W        W 9604   4.359   5.660   2.821
 5861W        W 9605   6.237   1.437   3.620
 5862W        W 9606   1.839   7.815  10.459
 5863W        W 9607   9.349   2.530   9.463
 5864W        W 9608   7.965   7.704   8.489
 5865W        W 9609   2.696   6.371   4.116
 5866W        W 9610   5.505   5.496   2.274
 5867W        W 9611   6.085  10.164   3.683
 5868W        W 9612   3.185   9.397   2.195
 5869W        W 9613   0.242   5.433  11.813
 5870W        W 9614  10.371   2.818   3.468
 5871W        W 9615   5.415  10.377   2.440
 5872W        W 9616   1.043   0.899   2.234
 5873W        W 9617   0.828   3.575   9.865
 5874W        W 9618   8.298   1.400   2.167
 5875W        W 9619   3.798   4.132   3.246
 5876W        W 9620   8.783  10.364   1.417
 5877W        W 9621   4.092   6.237   2.416
 5878W        W 9622   7.503   3.116   8.653
 5879W        W 9623   4.116   4.120   8.667
 5880W        W 9624   6.925   8.945  10.968
 5881W        W 9625   5.452   2.682   9.654
 5882W        W 9626   3.220   9.351   9.536
 5883W        W 9627   8.906   7.946  11.147
 5884W        W 9628   6.466   5.164   9.871
 5885W        W 9629   1.224  10.092   2.305
 5886W        W 9630   1.196   6.709   9.345
 5887W        W 9631   6.489   7.556   9.525
 5888W        W 9632   8.555   3.056   0.899
 5889W        W 9633   7.390   4.991  10.723
 5890W        W 9634  10.209   2.310   3.788
 5891W        W 9635   3.108   7.141   3.163
 5892W        W 9636   7.143   4.695   2.891
 5893W        W 9637  10.340   6.540   0.574
 5894W        W 9638   0.389   8.465   0.817
 5895W        W 9639   2.059   8.666   3.567
 5896W        W 9640   7.019   7.482   2.853
 5897W        W 9641   6.082  10.041   2.071
 5898W        W 9642   1.631   8.988  11.882
 5899W        W 9643   4.821   6.978  10.839
 5900W        W 9644   0.566   3.131   9.999
 5901W        W 9645   0.250   8.545   1.844
 5902W        W 9646   5.172   3.666  11.664
 5903W        W 9647   5.710   2.833  11.851
 5904W        W 9648   2.263   6.008  11.289
 5905W        W 9649   4.697   5.560  10.711
 5906W        W 9650   4.300   3.400   0.177
 5907W        W 9651   5.462   9.599   9.324
 5908W        W 9652   3.873   5.276   1.731
 5909W        W 9653   4.159   7.499   3.576
 5910W        W 9654   4.130   7.905   9.227
 5911W        W 9655   0.835   1.893  11.629
 5912W        W 9656   5.544   2.915  10.129
 5913W        W 9657   3.474   2.192  11.926
 5914W        W 9658   9.129   7.182   9.891
 5915W        W 9659   3.848   7.189   9.355
 5916W        W 9660   6.769   7.969   1.525
 5917W        W 9661   6.186   9.354   0.829
 5918W        W 9662   0.972   7.452   0.416
 5919W        W 9663   8.614   8.651   0.297
 5920W        W 9664   2.684  10.453   0.109
 5921W        W 9665   8.802   3.291  10.554
 5922W        W 9666   1.211   7.728  11.779
 5923W        W 9667   7.367   5.648   2.566
 5924W        W 9668   8.343  10.219   9.789
 5925W        W 9669   6.752  10.442   3.015
 5926W        W 9670   5.539   9.130   9.173
 5927W        W 9671   3.942   0.636   3.395
 5928W        W 9672   2.076   1.106  11.277
 5929W        W 9673   4.013  10.339   0.805
 5930W        W 9674   6.826   7.947   9.411
 5931W        W 9675   8.823   5.031  11.387
 5932W        W 9676   6.118   0.844   2.287
 5933W        W 9677  10.455   3.721   2.666
 5934W        W 9678  10.031   0.955   2.287
 5935W        W 9679   9.373   1.640   8.630
 5936W        W 9680   2.760   4.074   8.969
 5937W        W 9681   2.790   5.064   0.531
 5938W        W 9682   0.852   3.157  10.428
 5939W        W 9683   8.953   6.431  10.697
 5940W        W 9684   4.771   8.987   3.376
 5941W        W 9685   0.827   2.308  10.510
 5942W        W 9686   0.665   9.704   2.970
 5943W        W 9687   7.493  10.476  10.835
 5944W        W 9688   2.572   0.792   1.002
 5945W        W 9689   0.731   8.807   3.054
 5946W        W 9690   1.671   7.332   3.141
 5947W        W 9691  10.381   0.430   9.471
 5948W        W 9692   2.833   0.364  10.302
 5949W        W 9693   8.931   9.790   2.658
 5950W        W 9694   6.121   8.512   9.036
 5951W        W 9695   5.581   5.375  11.382
 5952W        W 9696   2.295   2.378   8.730
 5953W        W 9697   0.438  10.485   9.970
 5954W        W 9698   2.824   3.166   9.434
 5955W        W 9699   5.052   1.811  11.257
 5956W        W 9700   5.761   5.544  11.826
 5957W        W 9701   2.195   0.277   2.323
 5958W        W 9702   7.468   6.606   2.966
 5959W        W 9703   5.205   9.227  10.237
 5960W        W 9704   5.565   5.590   9.461
 5961W        W 9705   6.943   8.366  11.487
 5962W        W 9706   7.052   1.633   9.017
 5963W        W 9707   5.610   1.241   9.747
 5964W        W 9708   2.349   6.914  11.974
 5965W        W 9709   7.528   9.401  11.927
 5966W        W 9710   0.882   3.641   3.254
 5967W        W 9711   4.009   3.563  10.028
 5968W        W 9712   3.687   5.164  10.244
 5969W        W 9713   8.880   9.426   0.829
 5970W        W 9714   4.981   8.141   9.285
 5971W        W 9715   0.951   5.618  10.651
 5972W        W 9716   1.869   6.530  10.769
 5973W        W 9717   9.778   7.665   1.316
 5974W        W 9718   6.617   7.244   9.143
 5975W        W 9719   2.660   5.122  11.984
 5976W        W 9720   7.533   7.447   8.398
 5977W        W 9721   3.560   0.006   0.210
 5978W        W 9722  10.258   8.675  11.845
 5979W        W 9723   4.237   7.222   0.986
 5980W        W 9724   0.965   3.340  11.269
 5981W        W 9725   2.144   4.928   1.283
 5982W        W 9726   4.295   8.837   8.931
 5983W        W 9727   9.551   2.202  11.289
 5984W        W 9728   1.778   5.970   2.032
 5985W        W 9729   5.632  10.018   9.082
 5986W        W 9730   0.184   8.308  10.430
 5987W        W 9731   0.757   7.417  11.504
 5988W        W 9732   9.214   2.170   2.168
 5989W        W 9733   8.564   1.948  10.159
 5990W        W 9734   7.906   1.455   1.456
 5991W        W 9735   3.392   4.722   2.719
 5992W        W 9736   7.868   7.083  11.885
 5993W        W 9737   8.612   3.895   0.560
 5994W        W 9738   5.539   5.806   1.628
 5995W        W 9739   0.425   6.655   0.865
 5996W        W 9740   6.084   4.793   9.837
 5997W        W 9741   6.424   7.023   9.591
 5998W        W 9742   8.813   3.683   9.563
 5999W        W 9743   7.107   3.635   1.569
 6000W        W 9744   2.514   0.674   2.385
 6001W        W 9745   9.903   8.716   2.509
 6002W        W 9746   8.742   8.386  10.353
 6003W        W 9747   4.081   5.585   0.042
 6004W        W 9748   1.392   0.894   9.008
 6005W        W 9749   8.322   3.211   2.433
 6006W        W 9750   2.889   2.645   2.669
 6007W        W 9751   4.698   8.500   3.543
 6008W        W 9752   4.777   2.129  10.055
 6009W        W 9753   9.966   7.475   0.399
 6010W        W 9754   7.553  10.036   3.371
 6011W        W 9755   0.650  10.308   1.149
 6012W        W 9756   3.958   4.768   9.375
 6013W        W 9757   0.731   5.424   1.302
 6014W        W 9758   0.274   3.845   0.385
 6015W        W 9759   6.616   1.002   0.830
 6016W        W 9760   9.526   9.390  11.544
 6017W        W 9761   7.438   9.048  10.900
 6018W        W 9762   3.344   6.046   0.267
 6019W        W 9763   8.963   1.285   9.752
 6020W        W 9764   3.233   0.182  10.872
 6021W        W 9765   4.668   5.050   1.613
 6022W        W 9766   0.415   5.710   0.981
 6023W        W 9767   4.929   8.896  11.041
 6024W        W 9768   9.997   6.873   9.883
 6025W        W 9769   8.595   7.785  11.963
 6026W        W 9770   5.809   4.332   9.997
 6027W        W 9771   8.112   4.272  10.918
 6028W        W 9772   0.246   9.008   3.486
 6029W        W 9773  10.236   2.242  10.156
 6030W        W 9774   0.919   9.091   0.444
 6031W        W 9775   8.389   8.964   1.492
 6032W        W 9776   3.930   4.512   1.021
 6033W        W 9777   1.208   1.735   3.495
 6034W        W 9778  10.245   3.697   0.514
 6035W        W 9779   6.815   0.795   1.239
 6036W        W 9780   2.989   1.727   0.815
 6037W        W 9781   4.298   8.729   3.308
 6038W        W 9782   3.060   9.231  10.031
 6039W        W 9783   0.041   5.446   8.491
 6040W        W 9784   1.539   3.368  11.849
 6041W        W 9785   7.620   1.213   9.000
 6042W        W 9786   5.238   3.572  10.709
 6043W        W 9787   4.833   3.690  10.990
 6044W        W 9788   1.054   5.868   1.242
 6045W        W 9789   1.940   1.777   3.774
 6046W        W 9790   7.862   5.599   2.622
 6047W        W 9791   1.329   5.994  11.338
 6048W        W 9792   0.558   3.850   3.598
 6049W        W 9793   0.960   3.346   0.717
 6050W        W 9794   5.244   8.414   0.981
 6051W        W 9795   4.407   1.154  11.489
 6052W        W 9796   3.096   3.998   0.788
 6053W        W 9797   2.772   8.934   1.665
 6054W        W 9798   0.377   1.062   0.985
 6055W        W 9799   7.646   6.843   9.978
 6056W        W 9800   6.918   3.785   8.554
 6057W        W 9801   8.324   7.579   3.219
 6058W        W 9802   5.693   9.210   2.617
 6059W        W 9803   1.134   0.013   1.006
 6060W        W 9804   0.072   1.119   1.391
 6061W        W 9805   0.707   5.224  10.415
 6062W        W 9806   6.210   5.605  10.858
 6063W        W 9807   3.150   9.174  10.913
 6064W        W 9808   9.153   6.904  11.235
 6065W        W 9809   9.879  10.477   2.246
 6066W        W 9810   3.154   7.087   8.550
 6067W        W 9811   4.984   6.620   9.435
 6068W        W 9812  10.129   4.064   2.381
 6069W        W 9813   0.070   3.718   1.666
 6070W        W 9814   7.882   7.331   3.242
 6071W        W 9815   1.436   6.483   3.213
 6072W        W 9816   0.885   4.448   0.686
 6073W        W 9817   7.885   2.170   3.333
 6074W        W 9818   7.738   7.946   8.905
 6075W        W 9819   3.618   8.065   1.188
 6076W        W 9820   7.653   5.235   2.333
 6077W        W 9821   6.102   2.280   3.219
 6078W        W 9822   2.444   2.435  10.164
 6079W        W 9823   8.606   7.293   9.984
 6080W        W 9824   4.548   8.055   9.505
 6081W        W 9825   3.640   4.057  11.991
 6082W        W 9826   2.583   2.803  11.120
 6083W        W 9827   3.375   4.159   9.846
 6084W        W 9828   0.403   8.151  11.290
 6085W        W 9829   6.619   4.345   1.432
 6086W        W 9830   3.096   6.801   1.529
 6087W        W 9831   1.184   9.912  10.061
 6088W        W 9832   0.805   1.452   8.492
 6089W        W 9833   1.542  10.209   0.864
 6090W        W 9834   8.919   4.836   1.044
 6091W        W 9835   5.294   4.286   9.869
 6092W        W 9836   4.606   2.261   0.585
 6093W        W 9837   3.125   6.607   3.319
 6094W        W 9838   8.926   2.247   9.579
 6095W        W 9839  10.181   1.717  10.967
 6096W        W 9840   1.076   7.393   3.516
 6097W        W 9841   8.371   4.214  10.476
 6098W        W 9842   0.317   9.980   9.124
 6099W        W 9843   6.203   7.637  10.815
 6100W        W 9844   0.253   7.552   9.104
 6101W        W 9845   6.266   7.812   2.872
 6102W        W 9846   8.827   1.783   0.191
 6103W        W 9847   2.603   5.087   1.017
 6104W        W 9848   8.835   6.248   2.304
 6105W        W 9849   2.718   7.218  11.105
 6106W        W 9850   4.510   0.662   1.453
 6107W        W 9851   1.922   4.651  10.689
 6108W        W 9852   0.754   5.077   3.286
 6109W        W 9853   9.368   4.046   3.434
 6110W        W 9854   0.901   5.655   0.800
 6111W        W 9855   8.648   2.705   2.708
 6112W        W 9856   1.669   6.474   1.983
 6113W        W 9857   3.753   6.597   0.362
 6114W        W 9858   8.874   4.290   3.205
 6115W        W 9859   2.392   3.406   1.319
 6116W        W 9860   7.576   9.633   3.017
 6117W        W 9861   9.594   9.594   3.472
 6118W        W 9862   6.613  10.015   9.744
 6119W        W 9863   3.144   4.170  11.835
 6120W        W 9864   8.902   1.018   1.681
 6121W        W 9865   7.858  10.329   2.293
 6122W        W 9866   6.206   0.262   2.998
 6123W        W 9867   5.981   3.188   3.643
 6124W        W 9868   9.916   0.795   0.460
 6125W        W 9869   3.288   8.856   9.766
 6126W        W 9870   7.582   9.939   2.056
 6127W        W 9871   8.778   2.208   0.986
 6128W        W 9872   0.410   8.460   9.967
 6129W        W 9873   3.206   3.557  11.440
 6130W        W 9874   1.422   4.667  10.613
 6131W        W 9875   3.850   1.850   1.273
 6132W        W 9876   5.878   3.677   3.800
 6133W        W 9877   1.336   5.077   0.227
 6134W        W 9878   1.305   3.279   9.094
 6135W        W 9879   7.633   7.521   0.769
 6136W        W 9880   3.814   4.434   2.263
 6137W        W 9881   6.194   7.705   3.469
 6138W        W 9882   6.585   9.462   0.163
 6139W        W 9883   8.174   0.651  10.192
 6140W        W 9884   4.160   7.664  11.098
 6141W        W 9885   6.638   0.709   1.722
 6142W        W 9886   7.707   8.657   0.095
 6143W        W 9887   7.475   8.397   9.021
 6144W        W 9888   8.384   2.871   3.248
 6145W        W 9889   9.301   5.713  11.147
 6146W        W 9890   3.736   4.368   9.067
 6147W        W 9891   3.386   8.541   2.242
 6148W        W 9892   1.848   8.991   1.760
 6149W        W 9893   9.804   8.982   8.954
 6150W        W 9894   5.607   0.616   0.806
 6151W        W 9895   3.718   8.362   0.770
 6152W        W 9896   8.469   2.377   9.769
 6153W        W 9897   2.324   9.792  11.038
 6154W        W 9898   8.606   1.183  11.418
 6155W        W 9899   3.999   0.779   2.895
 6156W        W 9900   6.954   7.461   0.229
 6157W        W 9901   6.536   8.297  11.850
 6158W        W 9902   4.121   4.157   2.848
 6159W        W 9903   3.317   4.570   2.150
 6160W        W 9904   7.354  10.272   2.397
 6161W        W 9905   6.027   6.689   0.280
 6162W        W 9906   3.373   4.482   9.402
 6163W        W 9907   6.563   1.728   9.171
 6164W        W 9908   5.724   5.951   0.735
 6165W        W 9909   0.288   3.418   2.935
 6166W        W 9910  10.011   1.720   0.940
 6167W        W 9911   8.389   1.449   3.150
 6168W        W 9912   6.652   0.724  10.376
 6169W        W 9913   8.849   9.395   3.502
 6170W        W 9914   4.879   2.677   3.154
 6171W        W 9915   0.684   9.489   0.146
 6172W        W 9916   4.828   2.802   1.428
 6173W        W 9917   7.586   3.739   3.378
 6174W        W 9918   6.080   0.711  11.784
 6175W        W 9919   5.922   9.385   2.196
 6176W        W 9920   8.766   2.275  10.575
 6177W        W 9921   7.622   4.111  10.892
 6178W        W 9922   9.061   8.474  11.344
 6179W        W 9923   7.421   6.135   2.237
 6180W        W 9924   2.540   7.472   1.442
 6181W        W 9925   5.263   6.467   0.648
 6182W        W 9926   1.590   9.889  11.573
 6183W        W 9927   0.880   7.532   9.802
 6184W        W 9928  10.008   5.350   0.040
 6185W        W 9929  10.332   2.319   0.023
 6186W        W 9930   6.842   6.134  10.103
 6187W        W 9931   2.495  10.376   0.738
 6188W        W 9932   3.340   2.841  10.416
 6189W        W 9933   0.354   0.255   1.371
 6190W        W 9934   5.258   6.253  11.527
 6191W        W 9935   1.721   1.612   2.852
 6192W        W 9936   3.189   7.872   9.565
 6193W        W 9937   5.334   6.019   0.365
 6194W        W 9938   1.100   3.156   9.967
 6195W        W 9939   7.347  10.156   0.177
 6196W        W 9940   7.394   0.723   2.455
 6197W        W 9941   3.659  10.426  11.712
 6198W        W 9942   0.386   6.129  10.323
 6199W        W 9943   2.720   0.795  10.546
 6200W        W 9944   4.040   5.080  11.959
 6201W        W 9945   1.322   9.588   3.720
 6202W        W 9946  10.036   8.974   1.388
 6203W        W 9947   5.786   1.565   0.999
 6204W        W 9948   1.477   5.986   0.303
 6205W        W 9949   9.622   8.124  10.291
 6206W        W 9950   4.705   4.097   3.655
 6207W        W 9951   7.297   2.799   9.956
 6208W        W 9952   5.736   7.345  10.873
 6209W        W 9953   1.160   6.123   0.740
 6210W        W 9954   2.708   5.525   3.530
 6211W        W 9955  10.282   4.225   3.428
 6212W        W 9956   2.331   5.240   9.862
 6213W        W 9957   6.760   0.340  10.017
 6214W        W 9958   5.144   3.869  10.255
 6215W        W 9959   3.783   3.743   2.891
 6216W        W 9960   0.333   6.484   2.432
 6217W        W 9961   8.788   1.379   2.011
 6218W        W 9962  10.131   1.674   2.959
 6219W        W 9963   6.989   6.524   2.785
 6220W        W 9964   9.497   1.316   9.028
 6221W        W 9965   3.771   2.642   3.485
 6222W        W 9966   6.479   8.794  11.933
 6223W        W 9967   2.075   1.716   9.588
 6224W        W 9968   3.292   8.587   0.953
 6225W        W 9969  10.411   7.674   1.876
 6226W        W 9970   1.216   2.127   0.363
 6227W        W 9971   6.208   4.171   2.620
 6228W        W 9972   9.596   8.507  11.381
 6229W        W 9973   8.467   2.633  11.440
 6230W        W 9974   9.346   7.379  10.602
 6231W        W 9975   3.712   9.246   3.397
 6232W        W 9976   5.939   8.076   3.205
 6233W        W 9977   3.537   4.879   1.011
 6234W        W 9978   4.311   9.844   9.372
 6235W        W 9979   2.232   3.503   9.315
 6236W        W 9980   7.432   1.924   3.421
 6237W        W 9981   2.350   8.867   9.069
 6238W        W 9982   9.439   1.727  10.012
 6239W        W 9983   5.925   7.366  11.781
 6240W        W 9984   7.888  10.368  11.453
 6241W        W 9985   0.568   8.172   1.978
 6242W        W 9986  10.322   7.761   2.376
 6243W        W 9987   9.006   4.524   0.106
 6244W        W 9988   3.839   6.163   1.761
 6245W        W 9989   0.841   2.602   2.576
 6246W        W 9990  10.350   9.554  10.956
 6247W        W 9991   2.827   1.117   1.786
 6248W        W 9992   9.645   5.955  10.005
 6249W        W 9993   9.449   1.190  11.438
 6250W        W 9994   1.465   5.482   3.484
 6251W        W 9995   1.444   3.209   1.636
 6252W        W 9996   5.995   9.779   2.499
 6253W        W 9997   5.814   8.728   2.712
 6254W        W 9998   7.183   0.863   1.594
 6255W        W 9999   6.977   5.649   9.367
 6256W        W10000   7.601   1.547  10.538
 6257W        W10001   2.118   2.943   3.009
 6258W        W10002   8.892  10.220   2.316
 6259W        W10003   1.007   7.927  10.463
 6260W        W10004   0.417   6.668   9.877
 6261W        W10005   4.077   7.007  10.820
 6262W        W10006   9.997   0.884  11.469
 6263W        W10007   5.195   1.667   9.210
 6264W        W10008   5.056   6.081  10.065
 6265W        W10009   2.814   7.625  10.599
 6266W        W10010   3.468   7.601   8.483
 6267W        W10011   6.438   4.166   3.124
 6268W        W10012   5.913  10.324   2.463
 6269W        W10013  10.244   4.140   9.200
 6270W        W10014   9.771   5.174   2.985
 6271W        W10015   9.910   3.184   1.983
 6272W        W10016   1.779   9.394   9.509
 6273W        W10017   0.399   0.857  11.564
 6274W        W10018  10.295   3.224   2.457
 6275W        W10019   9.295   6.609   3.559
 6276W        W10020  10.477   4.724   9.090
 6277W        W10021   0.790   1.454   9.472
 6278W        W10022   8.079   7.886   1.313
 6279W        W10023   6.300   7.884   1.766
 6280W        W10024   9.246   0.758  10.949
 6281W        W10025   6.521   6.908  10.076
 6282W        W10026   7.108  10.321   3.352
 6283W        W10027   4.306   4.288   2.393
 6284W        W10028   0.898   0.821  10.757
 6285W        W10029   0.923   4.629   3.462
 6286W        W10030   8.475   7.704   2.305
 6287W        W10031   0.483   2.551   0.718
 6288W        W10032   8.584   7.453   1.874
 6289W        W10033   2.203   1.454   2.733
 6290W        W10034   9.561   1.938  10.482
 6291W        W10035   9.088   7.634  11.889
 6292W        W10036   9.373   8.426   1.270
 6293W        W10037   1.311   8.028   1.443
 6294W        W10038   4.412   9.060   2.960
 6295W        W10039   6.744   1.368  11.052
 6296W        W10040   0.404   3.772   2.043
 6297W        W10041   9.375   6.676   8.950
 6298W        W10042  10.452   2.268  11.544
 6299W        W10043   1.615   0.821  11.896
 6300W        W10044   5.207   3.323  10.289
 6301W        W10045   3.788   7.387  11.876
 6302W        W10046  10.479   3.595  10.437
 6303W        W10047   1.931   0.062   0.036
 6304W        W10048   7.407   1.664   0.270
 6305W        W10049   7.421   9.286   0.685
 6306W        W10050  10.493   9.578   9.090
 6307W        W10051   7.820   6.969   2.431
 6308W        W10052   2.611   1.697   3.168
 6309W        W10053   7.024   0.699   2.088
 6310W        W10054  10.231   4.674   9.546
 6311W        W10055   7.945   5.646  11.285
 6312W        W10056   5.685   0.775   2.028
 6313W        W10057  10.036   5.533   8.411
 6314W        W10058   1.736   1.194  10.372
 6315W        W10059   9.428   1.600  11.807
 6316W        W10060   8.164   4.549  11.675
 6317W        W10061   1.605   8.950  10.938
 6318W        W10062   7.369   4.328  10.484
 6319W        W10063  10.492   1.887   0.998
 6320W        W10064   2.337   9.074   9.551
 6321W        W10065   6.770   5.065  10.615
 6322W        W10066   7.435   3.629  10.948
 6323W        W10067   8.907   7.495  11.404
 6324W        W10068   7.885   5.088   9.557
 6325W        W10069   7.437   4.216   2.166
 6326W        W10070   1.927   8.429   0.867
 6327W        W10071   4.581   0.747   9.575
 6328W        W10072   9.960   1.787  11.962
 6329W        W10073   3.680   9.095   9.525
 6330W        W10074   2.215   9.949  10.092
 6331W        W10075   4.829   1.758   2.430
 6332W        W10076   9.024   3.699   0.767
 6333W        W10077   0.447   3.132   1.970
 6334W        W10078  10.461   5.072   0.085
 6335W        W10079   8.877   6.473  11.229
 6336W        W10080   8.872   8.574   8.944
 6337W        W10081   1.470   7.014   2.256
 6338W        W10082   2.616   7.345   8.191
 6339W        W10083   0.287   7.661  11.388
 6340W        W10084   2.229  10.233   0.298
 6341W        W10085   4.076   1.781   1.720
 6342W        W10086   5.661   2.142   2.390
 6343W        W10087   7.585   7.523   9.414
 6344W        W10088   5.101   2.104   8.980
 6345W        W10089   9.036   6.193  11.987
 6346W        W10090   5.318   6.773   3.600
 6347W        W10091   9.326   3.864   9.624
 6348W        W10092   5.357   4.758  10.633
 6349W        W10093   2.224   9.823   1.952
 6350W        W10094   3.453   6.642   1.841
 6351W        W10095   6.635   3.273   9.630
 6352W        W10096   6.026   0.750   9.143
 6353W        W10097   1.685   1.845   3.319
 6354W        W10098   4.325  10.431   8.645
 6355W        W10099   4.609   7.630  11.960
 6356W        W10100   2.246   6.474  11.117
 6357W        W10101   1.018  10.454  11.090
 6358W        W10102   2.195   2.052  11.633
 6359W        W10103   2.383   3.326   1.844
 6360W        W10104   6.509   2.082   3.459
 6361W        W10105   5.103   6.902   1.866
 6362W        W10106   5.445   2.574   0.807
 6363W        W10107   1.888   6.698   8.830
 6364W        W10108   5.603   9.753   0.465
 6365W        W10109   1.835   2.303   1.857
 6366W        W10110   6.493   4.034  11.374
 6367W        W10111   5.060  10.375  10.275
 6368W        W10112   8.003   4.605   3.448
 6369W        W10113   8.525   3.162   8.702
 6370W        W10114   1.314  10.410   8.745
 6371W        W10115  10.424  10.010   9.485
 6372W        W10116   0.857   0.794   2.712
 6373W        W10117   5.945   9.087   1.219
 6374W        W10118   4.297   0.524   0.218
 6375W        W10119   1.064   4.686  10.972
 6376W        W10120   7.567   6.379  10.871
 6377W        W10121   0.456   5.653  10.512
 6378W        W10122   7.637   5.753   3.072
 6379W        W10123   3.973   9.632   2.452
 6380W        W10124   1.811   5.078   0.406
 6381W        W10125   1.569   7.605   9.055
 6382W        W10126   6.170   2.813   1.674
 6383W        W10127   3.189  10.195  10.008
 6384W        W10128   6.610   8.874  10.554
 6385W        W10129   8.860  10.306   3.374
 6386W        W10130   6.274   7.065   2.300
 6387W        W10131   1.406   2.263   3.209
 6388W        W10132   8.770  10.004   9.985
 6389W        W10133   1.573   1.194   0.382
 6390W        W10134   3.633   8.991   0.081
 6391W        W10135   5.932   7.180   8.688
 6392W        W10136   8.314   4.163  11.371
 6393W        W10137   7.580   6.924  10.912
 6394W        W10138   0.009   8.396   9.627
 6395W        W10139   8.270   0.935   2.423
 6396W        W10140   9.777   7.599  11.398
 6397W        W10141  10.249   2.297   9.515
 6398W        W10142   4.010   0.943   8.456
 6399W        W10143   6.590   0.450  11.052
 6400W        W10144   7.567   1.740   8.991
 6401W        W10145   8.471   1.780   9.113
 6402W        W10146   2.690   6.092  11.541
 6403W        W10147   0.847   6.982   3.064
 6404W        W10148  10.236   5.360   2.838
 6405W        W10149   3.594   0.951   9.596
 6406W        W10150   9.929   4.947   1.711
 6407W        W10151   8.137   7.086   9.946
 6408W        W10152   7.261   8.717  11.285
 6409W        W10153   1.900  10.022  11.962
 6410W        W10154   8.153   7.459   8.070
 6411W        W10155   4.621   8.500  10.820
 6412W        W10156   3.046   8.532   1.855
 6413W        W10157   9.763   6.488   2.711
 6414W        W10158   0.821   3.770  10.350
 6415W        W10159   1.311   6.731   1.311
 6416W        W10160   5.220   1.390   0.496
 6417W        W10161  10.391   4.168   0.275
 6418W        W10162   0.732   1.707  11.168
 6419W        W10163   3.659   4.635  10.279
 6420W        W10164   4.386   2.361   9.843
 6421W        W10165   3.919   2.305   3.099
 6422W        W10166   1.169   6.680  10.259
 6423W        W10167   8.797   7.979   8.846
 6424W        W10168   0.652   7.996   9.984
 6425W        W10169   8.460  10.011   9.226
 6426W        W10170   1.286   8.726   0.575
 6427W        W10171   5.525   2.849   8.681
 6428W        W10172   4.366   8.054   1.463
 6429W        W10173   8.256   3.264   2.946
 6430W        W10174  10.358   5.161   1.512
 6431W        W10175   3.548   1.819   1.696
 6432W        W10176   0.935   6.941  11.575
 6433W        W10177   8.320   2.147   0.824
 6434W        W10178   4.615   5.998  10.950
 6435W        W10179   8.289   8.873  11.378
 6436W        W10180   1.872   9.911   2.669
 6437W        W10181   7.193   1.352  10.808
 6438W        W10182   4.603   9.624   1.848
 6439W        W10183   7.651   0.076   2.735
 6440W        W10184   6.940   6.304   0.487
 6441W        W10185   2.980   6.407   0.222
 6442W        W10186   5.109   7.168   3.344
 6443W        W10187   4.260  10.329  10.950
 6444W        W10188   0.808  10.410   2.419
 6445W        W10189   5.344   8.816   2.891
 6446W        W10190   6.075   4.190   8.385
 6447W        W10191   3.374   0.528   9.062
 6448W        W10192   0.853   4.349   1.204
 6449W        W10193   1.671   1.348  11.875
 6450W        W10194   0.537   6.655  11.443
 6451W        W10195   0.472   2.436   9.534
 6452W        W10196   8.147  10.029  11.727
 6453W        W10197   5.124   2.845  10.428
 6454W        W10198  10.477   3.787  10.946
 6455W        W10199   8.055   1.954   1.366
 6456W        W10200   6.724   2.708  10.851
 6457W        W10201   2.311   8.067   0.925
 6458W        W10202   3.169   6.613  10.799
 6459W        W10203   1.858   9.031  11.387
 6460W        W10204   6.684   9.828  10.927
 6461W        W10205   4.235   2.004  11.589
 6462W        W10206   1.637   7.009   0.490
 6463W        W10207   8.958   3.130  11.541
 6464W        W10208   1.393   0.218   1.491
 6465W        W10209   4.691   3.522   3.954
 6466W        W10210   2.310   8.762  11.350
 6467W        W10211   2.795   2.362   1.919
 6468W        W10212   1.412   5.691   0.945
 6469W        W10213   9.143   4.160  10.031
 6470W        W10214   9.788   2.344   9.300
 6471W        W10215   0.559   2.743  10.520
 6472W        W10216   0.865   2.158   2.812
 6473W        W10217   0.928   5.715   2.233
 6474W        W10218   4.855   8.652   1.201
 6475W        W10219   7.572   0.486   1.770
 6476W        W10220   2.164   6.029   0.848
 6477W        W10221   9.322   6.876   9.428
 6478W        W10222   7.048   9.759   9.499
 6479W        W10223   3.291   5.730   1.262
 6480W        W10224   8.441   4.131   1.884
 6481W        W10225   2.282   0.958   9.150
 6482W        W10226   2.403   4.537  10.820
 6483W        W10227   1.795   9.504  11.865
 6484W        W10228   4.350   8.441   8.559
 6485W        W10229   6.032   2.533   2.740
 6486W        W10230   7.243   0.422  10.940
 6487W        W10231   0.159  10.264   1.387
 6488W        W10232   0.338  10.266   2.184
 6489W        W10233   1.337   4.753   0.654
 6490W        W10234   8.065   9.760   1.879
 6491W        W10235   8.909   3.002   1.966
 6492W        W10236   7.432   9.485   1.173
 6493W        W10237   6.285   9.621   9.533
 6494W        W10238   3.592   9.363   9.949
 6495W        W10239   1.662   2.454   1.342
 6496W        W10240   7.368   7.104   9.640
 6497W        W10241   4.274   7.471   9.479
 6498W        W10242   1.925   7.241   2.366
 6499W        W10243   6.372   7.400   0.860
 6500W        W10244   1.408   9.381   8.733
 6501W        W10245   4.608   4.122   1.730
 6502W        W10246   6.657   9.511   9.868
 6503W        W10247   0.495   5.555   3.338
 6504W        W10248   2.287  10.314  11.769
 6505W        W10249   6.037   1.385   1.446
 6506W        W10250   6.201   5.199   0.522
 6507W        W10251   5.281   6.115   8.242
 6508W        W10252   0.903   3.879  11.267
 6509W        W10253   3.046   7.521   1.413
 6510W        W10254   7.509   5.272  11.922
 6511W        W10255   5.723   1.287  11.258
 6512W        W10256   7.814   2.274   1.838
 6513W        W10257   4.509   7.702   3.224
 6514W        W10258   3.803   4.540  10.778
 6515W        W10259   9.552   5.658  10.624
 6516W        W10260   5.985   2.176   1.791
 6517W        W10261   2.146   7.521   9.085
 6518W        W10262   0.178   7.345   1.530
 6519W        W10263   1.981   6.046   0.349
 6520W        W10264   5.671   4.367  10.519
 6521W        W10265   2.277   8.147   3.103
 6522W        W10266   7.437   1.420   2.183
 6523W        W10267   2.388   3.265   8.885
 6524W        W10268   6.420   5.699   1.391
 6525W        W10269   5.126   9.956   0.445
 6526W        W10270   4.643   2.341   2.362
 6527W        W10271  10.053   9.553   0.709
 6528W        W10272   4.158   7.707   2.363
 6529W        W10273   8.967   6.718   9.755
 6530W        W10274   7.871   8.451  10.403
 6531W        W10275   8.147   3.650   1.918
 6532W        W10276   8.349   5.247  11.363
 6533W        W10277   3.291   2.295   1.799
 6534W        W10278   0.343   9.462  11.751
 6535W        W10279   5.965   3.297   0.422
 6536W        W10280   3.813   6.574   1.448
 6537W        W10281   5.611   7.546   2.379
 6538W        W10282   7.460   6.052   0.331
 6539W        W10283   6.573   9.849  10.272
 6540W        W10284   7.378   0.655   0.308
 6541W        W10285   0.825   7.324   1.724
 6542W        W10286   5.076   3.730   3.679
 6543W        W10287   1.008   9.418   0.936
 6544W        W10288   5.049   5.129   2.420
 6545W        W10289   5.142   6.511   3.160
 6546W        W10290   4.758   6.256  11.393
 6547W        W10291   9.139   7.449   3.878
 6548W        W10292  10.316   4.120  11.742
 6549W        W10293   3.584   2.702   9.010
 6550W        W10294   2.109   5.125   0.825
 6551W        W10295   6.990   0.635   3.498
 6552W        W10296   1.731   9.912   3.195
 6553W        W10297   6.700   1.719  11.455
 6554W        W10298   1.121   5.146  10.768
 6555W        W10299   9.953   0.812   2.780
 6556W        W10300   0.620   9.263   3.258
 6557W        W10301   6.096   9.158  10.487
 6558W        W10302   7.410   1.168   0.340
 6559W        W10303   9.916   2.668   1.315
 6560W        W10304   9.743   4.263   2.666
 6561W        W10305   9.075   6.532   1.646
 6562W        W10306   8.786   3.097   2.984
 6563W        W10307   3.721   2.284   9.260
 6564W        W10308   1.280   6.264   9.962
 6565W        W10309   0.360  10.046   2.732
 6566W        W10310   8.971   0.699   8.531
 6567W        W10311   8.488   3.183  11.395
 6568W        W10312  10.365   0.409  10.468
 6569W        W10313   5.087   5.085   2.928
 6570W        W10314   6.524   0.794   9.892
 6571W        W10315   9.378   9.019   9.233
 6572W        W10316   8.943   5.540  10.222
 6573W        W10317  10.486   7.162  11.736
 6574W        W10318   3.860   1.899   2.172
 6575W        W10319   4.414   8.226   3.180
 6576W        W10320   7.965   8.371   1.198
 6577W        W10321   5.560   2.705   2.959
 6578W        W10322   5.207   3.995  11.240
 6579W        W10323   7.983   7.872   0.350
 6580W        W10324   7.161   9.665  11.026
 6581W        W10325   7.616   4.940   2.743
 6582W        W10326   5.712  10.405   9.424
 6583W        W10327   0.033   7.660   1.110
 6584W        W10328   6.205   1.577  11.484
 6585W        W10329   0.484   9.275   9.666
 6586W        W10330   0.578  10.390   1.651
 6587W        W10331   5.652   2.341   3.428
 6588W        W10332   8.381   4.930   3.474
 6589W        W10333   0.859   4.839   0.997
 6590W        W10334   4.582   1.150   3.156
 6591W        W10335   5.560   0.860   8.973
 6592W        W10336   5.096   7.601   4.007
 6593W        W10337   6.138   1.938   2.297
 6594W        W10338   2.175   2.394   2.798
 6595W        W10339   5.191   1.866   3.361
 6596W        W10340   8.660   6.938   0.203
 6597W        W10341   9.427   0.503   2.727
 6598W        W10342   9.394   3.085  11.783
 6599W        W10343   0.890   4.145   8.467
 6600W        W10344   4.779   5.588   0.805
 6601W        W10345   2.324   7.951   9.317
 6602W        W10346   5.035   5.605   2.173
 6603W        W10347  10.019   7.886  11.731
 6604W        W10348  10.249   8.667   8.721
 6605W        W10349   6.720   8.055   0.989
 6606W        W10350   1.286   9.467   9.762
 6607W        W10351   0.662   4.314  10.344
 6608W        W10352   5.660   3.132   4.067
 6609W        W10353   1.480   6.317  10.468
 6610W        W10354   8.168   4.178   8.162
 6611W        W10355   6.914   4.792  11.376
 6612W        W10356   0.088   8.765   1.175
 6613W        W10357   7.676   4.119   8.853
 6614W        W10358   9.046   5.260   1.488
 6615W        W10359   0.914   9.324   8.919
 6616W        W10360   6.943   8.881   2.325
 6617W        W10361   3.076   3.696   8.784
 6618W        W10362   4.117   2.623  10.166
 6619W        W10363   4.348   1.913   2.341
 6620W        W10364   0.245   9.051   2.957
 6621W        W10365   1.866   4.175  11.255
 6622W        W10366   9.293   7.033   0.952
 6623W        W10367   6.127   0.416   1.981
 6624W        W10368   7.447   3.782   1.197
 6625W        W10369   0.766   8.140   1.516
 6626W        W10370   5.582   3.879  10.505
 6627W        W10371  10.288   8.693   9.245
 6628W        W10372   8.130  10.361   2.736
 6629W        W10373   2.308   5.274   9.083
 6630W        W10374   8.557   6.112  11.817
 6631W        W10375   4.762   7.907   1.825
 6632W        W10376   2.391   4.969   8.627
 6633W        W10377   0.323   2.132  10.309
 6634W        W10378   6.433   6.522   9.380
 6635W        W10379   6.113  10.205  10.401
 6636W        W10380   8.908   0.374   9.655
 6637W        W10381   1.934   7.789   3.201
 6638W        W10382   2.587   6.030   2.367
 6639W        W10383   5.216   2.908   1.108
 6640W        W10384   2.798   1.496  11.192
 6641W        W10385   3.522   1.015  10.971
 6642W        W10386   5.516   3.849   3.449
 6643W        W10387  10.061   3.406  11.789
 6644W        W10388   3.061   8.970   1.251
 6645W        W10389   1.693   8.039  10.973
 6646W        W10390   8.751   6.009  10.433
 6647W        W10391   7.966   5.881   9.991
 6648W        W10392   3.535   1.887  11.059
 6649W        W10393   5.294   9.055   3.391
 6650W        W10394   9.345   9.859  11.634
 6651W        W10395   4.984   9.710   9.495
 6652W        W10396   3.380   5.940  11.355
 6653W        W10397   8.531   0.992  10.003
 6654W        W10398   5.248   2.625  10.926
 6655W        W10399   7.966   9.862   1.343
 6656W        W10400   4.889   7.780   2.760
 6657W        W10401   1.424   1.338  10.796
 6658W        W10402   4.212   8.729   2.224
 6659W        W10403   6.535   2.733   0.410
 6660W        W10404   2.247   5.610  10.959
 6661W        W10405   5.974   5.165  10.649
 6662W        W10406   1.455   9.712   0.812
 6663W        W10407   7.385   2.835   3.234
 6664W        W10408   1.906   5.390   1.232
 6665W        W10409   4.584   9.472  11.445
 6666W        W10410  10.079  10.493  10.986
 6667W        W10411   7.403   0.356  11.790
 6668W        W10412   3.672   5.860  10.953
 6669W        W10413   0.783   0.843   1.771
 6670W        W10414   3.964   1.804   2.671
 6671W        W10415  10.074   3.671   9.400
 6672W        W10416   9.449   6.018  11.761
 6673W        W10417   4.014   0.114   0.371
 6674W        W10418   7.967   9.222   1.836
 6675W        W10419   7.495   3.555  11.476
 6676W        W10420   6.217   4.684   2.572
 6677W        W10421  10.204   7.442   1.441
 6678W        W10422   8.026   1.304  10.617
 6679W        W10423   6.728   3.886   2.808
 6680W        W10424   2.613   9.947  10.490
 6681W        W10425   9.415   2.043   9.603
 6682W        W10426   0.215   0.687   1.859
 6683W        W10427   8.933   6.061   1.828
 6684W        W10428   4.612   5.955   9.842
 6685W        W10429   7.031   6.042   2.619
 6686W        W10430   1.447   6.271   9.482
 6687W        W10431   2.837   1.882   2.186
 6688W        W10432   7.323   2.337  10.272
 6689W        W10433   3.338   6.300  10.425
 6690W        W10434   0.810   4.089  10.770
 6691W        W10435   9.663   5.882   9.088
 6692W        W10436   8.544   6.579   2.829
 6693W        W10437   2.124   0.463   1.801
 6694W        W10438   9.323  10.293   1.609
 6695W        W10439   9.789   8.151   1.200
 6696W        W10440   6.350   9.115   9.633
 6697W        W10441   3.193   8.791   8.737
 6698W        W10442   1.731   2.658   2.727
 6699W        W10443   9.334   8.464   0.761
 6700W        W10444   4.217   0.186   3.269
 6701W        W10445   2.199   5.241   2.398
 6702W        W10446   1.769   0.708   9.824
 6703W        W10447   3.069   2.265  11.617
 6704W        W10448   2.585   3.986   8.493
 6705W        W10449   8.009   9.589  11.928
 6706W        W10450   5.072   0.809  10.387
 6707W        W10451   9.309   3.058   2.345
 6708W        W10452   1.427   8.432   9.768
 6709W        W10453   2.678   4.154   1.009
 6710W        W10454  10.386   1.316   9.488
 6711W        W10455   7.172   0.257   2.628
 6712W        W10456   1.372   6.976  11.219
 6713W        W10457   5.917   5.722   1.973
 6714W        W10458   2.708   7.018   1.305
 6715W        W10459   2.187   1.453  10.455
 6716W        W10460   4.950   4.586  11.973
 6717W        W10461   4.251   3.298   9.507
 6718W        W10462   8.029   0.161  10.051
 6719W        W10463   8.968   8.385   1.568
 6720W        W10464   6.665   2.753   1.457
 6721W        W10465   4.374   8.764   0.352
 6722W        W10466   2.404   8.963   2.542
 6723W        W10467   1.264   0.944   1.618
 6724W        W10468   7.138   5.692  11.108
 6725W        W10469   8.412   2.358   3.014
 6726W        W10470  10.188  10.430   9.290
 6727W        W10471   1.128   9.512   2.705
 6728W        W10472   2.633   2.856   9.910
 6729W        W10473   3.351   7.608  10.788
 6730W        W10474   1.003   1.074   9.748
 6731W        W10475   3.877   8.713   0.424
 6732W        W10476   6.085  10.180  11.830
 6733W        W10477   5.230   9.048   2.454
 6734W        W10478   5.167   2.390   2.241
 6735W        W10479   7.073   6.175   1.836
 6736W        W10480   1.474   0.241   3.211
 6737W        W10481   4.983   7.648   3.498
 6738W        W10482   5.211   5.678   9.820
 6739W        W10483   7.672   3.282   3.616
 6740W        W10484  10.266   0.316   2.175
 6741W        W10485   6.530   9.256   1.559
 6742W        W10486   5.108   9.993   9.943
 6743W        W10487   3.788   0.525   1.510
 6744W        W10488   5.727   5.039   0.010
 6745W        W10489   4.169   1.906   9.746
 6746W        W10490   8.056   5.235   0.682
 6747W        W10491   2.160   4.281   8.971
 6748W        W10492   7.050   3.307   9.909
 6749W        W10493   7.105   0.594   9.146
 6750W        W10494   5.640   7.319  10.110
 6751W        W10495   5.939   0.881  10.987
 6752W        W10496   4.970   7.068   8.547
 6753W        W10497   1.808   0.555   3.500
 6754W        W10498   5.528   6.001  11.890
 6755W        W10499   7.450   5.925   9.899
 6756W        W10500   9.243   4.154   9.134
 6757W        W10501   4.809   2.721   3.658
 6758W        W10502   5.144   5.166   3.436
 6759W        W10503   3.440   3.315   0.335
 6760W        W10504   0.887   4.576   9.956
 6761W        W10505   2.846   6.196  10.014
 6762W        W10506   8.305   5.067  10.505
 6763W        W10507   2.338   9.456   1.115
 6764W        W10508   6.224   0.867   3.170
 6765W        W10509   7.973   4.054   1.642
 6766W        W10510   1.926   7.405   3.587
 6767W        W10511   8.872   9.029   9.179
 6768W        W10512   5.155   4.009   1.909
 6769W        W10513  10.233   0.029  11.853
 6770W        W10514   7.930   6.102   0.508
 6771W        W10515   1.866   4.670   1.897
 6772W        W10516   9.982   8.590   2.021
 6773W        W10517   0.598   5.512   9.303
 6774W        W10518   4.026   2.767  11.007
 6775W        W10519   4.737   1.562   9.410
 6776W        W10520   8.753   0.011  10.038
 6777W        W10521   1.297   5.936   9.073
 6778W        W10522   0.416   3.969  11.471
 6779W        W10523   1.293   7.504   1.662
 6780W        W10524   8.024   2.780   9.228
 6781W        W10525   4.948   0.997  10.850
 6782W        W10526   4.096  10.411  10.446
 6783W        W10527   2.681   2.893   1.755
 6784W        W10528   3.224   3.640   9.290
 6785W        W10529   3.707   3.086   2.701
 6786W        W10530   6.615   7.993  10.763
 6787W        W10531   0.293   5.031   2.347
 6788W        W10532   7.020   6.445   2.278
 6789W        W10533   8.299   8.413  10.096
 6790W        W10534   0.418   3.729   9.050
 6791W        W10535   9.696   2.317  10.813
 6792W        W10536   2.217   2.929  10.197
 6793W        W10537   0.731   4.877  11.310
 6794W        W10538   2.209   1.965   2.537
 6795W        W10539   0.999   5.442   2.692
 6796W        W10540   3.625   5.323   1.276
 6797W        W10541   5.606   0.457   8.661
 6798W        W10542   5.575   0.365  10.148
 6799W        W10543   5.540   8.005   0.775
 6800W        W10544   5.240   0.769   1.160
 6801W        W10545   1.310   4.619   1.156
 6802W        W10546   1.429   6.602   0.824
 6803W        W10547   5.609   8.572   9.156
 6804W        W10548   4.292   2.207   2.762
 6805W        W10549   9.581   5.123  11.838
 6806W        W10550   0.711   0.297   0.982
 6807W        W10551   9.471   1.404   0.620
 6808W        W10552   6.442   3.684   9.418
 6809W        W10553   5.042   8.169   2.368
 6810W        W10554   9.459   1.417   2.944
 6811W        W10555   3.291   7.398   0.707
 6812W        W10556   7.989   3.847   8.526
 6813W        W10557   5.732   1.817   3.482
 6814W        W10558   8.472   0.852  10.542
 6815W        W10559   0.174   2.056   9.368
 6816W        W10560   3.818   7.618   8.912
 6817W        W10561   0.984   6.597  11.207
 6818W        W10562   6.376   8.761   1.665
 6819W        W10563   7.133   8.189  11.045
 6820W        W10564   0.356   9.759   9.604
 6821W        W10565   8.377   4.617   9.849
 6822W        W10566   2.166  10.375   2.658
 6823W        W10567   5.552   1.668  10.016
 6824W        W10568   0.419  10.447   3.118
 6825W        W10569   5.073   7.472   0.065
 6826W        W10570   2.663  10.352   9.485
 6827W        W10571   3.741   7.154   0.326
 6828W        W10572   4.029   5.689   1.365
 6829W        W10573   4.056   5.783   0.542
 6830W        W10574   1.409   0.453   8.644
 6831W        W10575   4.739   8.597   3.030
 6832W        W10576   9.040   5.372   2.346
 6833W        W10577   4.742   6.465   9.923
 6834W        W10578   8.486   9.844   1.525
 6835W        W10579   1.416   4.690   2.670
 6836W        W10580   1.704   5.506  10.182
 6837W        W10581   6.365   4.641   1.010
 6838W        W10582   3.021   7.680   8.153
 6839W        W10583   7.357   6.176   1.279
 6840W        W10584   6.900   1.298   9.371
 6841W        W10585   0.875   8.818  11.389
 6842W        W10586   3.059   0.299  11.322
 6843W        W10587   5.099   5.227  10.604
 6844W        W10588   3.492   0.015   2.319
 6845W        W10589   3.716  10.402   1.219
 6846W        W10590   8.971   2.739   9.751
 6847W        W10591   7.060   9.422   0.356
 6848W        W10592   7.660   8.374   1.917
 6849W        W10593   2.831   6.424   0.707
 6850W        W10594   5.727   0.933   3.513
 6851W        W10595   3.123   5.518   9.240
 6852W        W10596   6.191   3.464  10.352
 6853W        W10597   2.110   6.308   2.291
 6854W        W10598   6.486   9.718   0.604
 6855W        W10599   1.790   3.574   3.214
 6856W        W10600   2.672   9.999   0.399
 6857W        W10601   1.780   0.911  10.821
 6858W        W10602   4.184   1.448   1.323
 6859W        W10603   3.493   9.040  11.614
 6860W        W10604   1.064   2.740  10.696
 6861W        W10605   0.730   5.976   9.043
 6862W        W10606   0.536   8.722   0.419
 6863W        W10607   7.748   7.868   1.873
 6864W        W10608   8.910   9.350   2.981
 6865W        W10609   6.323   7.567   2.163
 6866W        W10610   0.418   6.392   1.326
 6867W        W10611   9.783   4.951   0.283
 6868W        W10612  10.258  10.076  10.390
 6869W        W10613   6.495   3.198   0.042
 6870W        W10614   0.692   1.269   2.364
 6871W        W10615   6.949   2.223   2.706
 6872W        W10616   6.732   5.220   2.168
 6873W        W10617   7.947   8.393   8.748
 6874W        W10618   3.292   4.462   0.844
 6875W        W10619   0.805   6.336   0.289
 6876W        W10620   1.514   2.445   0.604
 6877W        W10621   7.072   4.737   8.638
 6878W        W10622   6.835   7.086  10.431
 6879W        W10623   1.427   6.418   8.977
 6880W        W10624   2.338   8.967   2.017
 6881W        W10625   9.796   4.250   1.226
 6882W        W10626   9.557   8.472   9.936
 6883W        W10627   8.832   0.419  11.123
 6884W        W10628   2.105   6.891  10.500
 6885W        W10629   3.863   5.722  11.429
 6886W        W10630   1.989   7.627  10.895
 6887W        W10631   9.870   8.355   0.729
 6888W        W10632   4.502   4.528   1.992
 6889W        W10633   4.906  10.444   2.479
 6890W        W10634   9.718   7.945   9.814
 6891W        W10635   7.703   1.337  11.951
 6892W        W10636   7.567   9.127  10.240
 6893W        W10637  10.415   2.515   1.409
 6894W        W10638   0.489   0.719  10.455
 6895W        W10639   2.117   6.490   0.132
 6896W        W10640   4.125   9.769   1.968
 6897W        W10641   7.999   8.843  10.103
 6898W        W10642   2.240   6.901  11.488
 6899W        W10643   7.092   4.487   2.423
 6900W        W10644   4.636   4.093   2.733
 6901W        W10645   8.920   0.471   2.795
 6902W        W10646   9.047   1.855   1.192
 6903W        W10647   9.434   2.745  10.904
 6904W        W10648   0.343   7.137  11.382
 6905W        W10649   6.977   3.631   1.067
 6906W        W10650   2.977   0.276   8.741
 6907W        W10651   9.837   9.969   2.357
 6908W        W10652   9.590   8.164   9.351
 6909W        W10653   5.027   4.119   1.443
 6910W        W10654   9.727   9.212   0.874
 6911W        W10655   6.511   1.237   0.393
 6912W        W10656   1.407   7.365   0.152
 6913W        W10657  10.135   9.066   2.187
 6914W        W10658  10.420   6.932   1.705
 6915W        W10659   2.500   0.504   8.969
 6916W        W10660   0.441   1.199   1.875
 6917W        W10661   3.337   7.573  11.756
 6918W        W10662   8.751   0.785   2.355
 6919W        W10663   4.093   4.544   3.211
 6920W        W10664   8.981   1.198   3.797
 6921W        W10665   2.801   5.539   1.249
 6922W        W10666   8.473   6.189  10.824
 6923W        W10667   9.435   7.500   1.742
 6924W        W10668   1.697   5.071  10.448
 6925W        W10669   5.552   2.261  11.702
 6926W        W10670   2.717  10.430  10.023
 6927W        W10671   9.066   9.033   9.662
 6928W        W10672   7.237   4.084   3.772
 6929W        W10673   3.893   1.070  11.356
 6930W        W10674   2.611   1.658  10.719
 6931W        W10675   0.669   5.796   2.896
 6932W        W10676   7.627   9.125   1.496
 6933W        W10677   5.914   9.925   8.622
 6934W        W10678   6.799   6.149   3.084
 6935W        W10679   6.365   2.337   9.382
 6936W        W10680   6.318   4.340  10.018
 6937W        W10681   7.146   0.910  10.490
 6938W        W10682   7.893   0.852  11.209
 6939W        W10683   3.130   3.225   1.169
 6940W        W10684   8.389   1.392   1.665
 6941W        W10685   9.106   0.786  11.941
 6942W        W10686   7.889   1.217   0.996
 6943W        W10687   5.296   5.623   0.684
 6944W        W10688   4.546   5.138   0.613
 6945W        W10689   9.681   3.182  10.668
 6946W        W10690   3.873   4.893   1.381
 6947W        W10691   8.813   0.408  11.629
 6948W        W10692   2.608   2.511   1.310
 6949W        W10693   9.388  10.021   1.167
 6950W        W10694   5.243   7.005  11.997
 6951W        W10695   5.837   6.785   3.695
 6952W        W10696   9.422   2.950   9.912
 6953W        W10697   9.037   4.060  11.881
 6954W        W10698   6.905   2.422   0.758
 6955W        W10699   4.861   2.113   1.932
 6956W        W10700   2.466   8.327   8.278
 6957W        W10701   9.975   6.847  10.933
 6958W        W10702   1.736   7.656   1.503
 6959W        W10703   2.838   9.928  10.943
 6960W        W10704   1.097   7.195   1.320
 6961W        W10705   1.931   7.443   0.440
 6962W        W10706  10.193   3.150  10.354
 6963W        W10707   4.586   1.648  11.526
 6964W        W10708   3.546   6.354  11.042
 6965W        W10709   7.224   6.584   8.876
 6966W        W10710   2.355   8.721   0.399
 6967W        W10711   0.289   9.751   2.293
 6968W        W10712   2.329   7.493   0.771
 6969W        W10713   0.188   2.688  11.816
 6970W        W10714   6.041   8.197  11.993
 6971W        W10715   9.323   1.748  11.329
 6972W        W10716   5.017   0.510  10.981
 6973W        W10717   9.746   6.760   8.599
 6974W        W10718   1.708   7.854   0.279
 6975W        W10719   7.970   9.836   2.402
 6976W        W10720   4.766   1.594   8.397
 6977W        W10721   9.968   1.421   1.740
 6978W        W10722   6.422   8.009   9.798
 6979W        W10723  10.455   5.651  10.462
 6980W        W10724   7.077   9.924   1.276
 6981W        W10725   3.048   4.599   9.029
 6982W        W10726   5.321   2.871   2.073
 6983W        W10727   1.184   7.995   0.874
 6984W        W10728   9.002   3.936   2.888
 6985W        W10729   1.265   1.932  11.331
 6986W        W10730   7.082   1.155   2.440
 6987W        W10731   5.986   1.589   2.768
 6988W        W10732   5.759   9.067   3.100
 6989W        W10733   0.503   3.077   0.742
 6990W        W10734   8.602   2.251   1.548
 6991W        W10735   4.363   1.192  11.993
 6992W        W10736   8.966   6.984   8.968
 6993W        W10737   5.194   3.057   3.034
 6994W        W10738   5.815   1.384  11.757
 6995W        W10739   3.239   6.643   1.041
 6996W        W10740   0.448   7.543  10.082
 6997W        W10741   8.931   7.810   1.213
 6998W        W10742   0.601   0.861   3.162
 6999W        W10743   7.082   1.764   2.461
 7000W        W10744   0.177   9.925  11.405
 7001W        W10745   0.787   4.160   0.208
 7002W        W10746  10.487   2.900   2.092
 7003W        W10747   8.045   3.749  10.284
 7004W        W10748   7.067  10.380  10.436
 7005W        W10749   7.944   5.651  10.718
 7006W        W10750   7.675   3.595   0.348
 7007W        W10751   9.797   7.861   0.705
 7008W        W10752   3.262   9.279   0.305
 7009W        W10753   0.015   3.224  11.862
 7010W        W10754   9.497  10.015   0.281
 7011W        W10755   3.158   4.599   8.180
 7012W        W10756   3.400   4.463   3.164
 7013W        W10757   0.990   3.860   2.793
 7014W        W10758   9.166  10.314   9.789
 7015W        W10759   2.644   6.583   1.652
 7016W        W10760   1.444   9.796   1.337
 7017W        W10761   4.266   0.475   2.279
 7018W        W10762   9.995   6.693   1.427
 7019W        W10763   4.921   7.146   3.807
 7020W        W10764   3.839   9.041  11.220
 7021W        W10765   4.601   0.899   2.269
 7022W        W10766   0.662   9.999   9.987
 7023W        W10767   3.151   7.137  10.790
 7024W        W10768   5.772   4.675  10.928
 7025W        W10769   7.323   0.864   1.110
 7026W        W10770   4.698   6.462   0.812
 7027W        W10771   5.426   5.423   0.213
 7028W        W10772  10.333   0.824  10.198
 7029W        W10773   6.955  10.274   9.447
 7030W        W10774   3.803   1.439  10.893
 7031W        W10775   9.886   4.077   0.392
 7032W        W10776   2.832   6.668   9.815
 7033W        W10777   2.367   8.536  10.882
 7034W        W10778   9.790   3.605   0.769
 7035W        W10779   5.168   9.824   2.972
 7036W        W10780   9.212   7.449   3.387
 7037W        W10781   4.712   3.626   2.963
 7038W        W10782   9.851   6.352  10.950
 7039W        W10783   2.653   1.705   2.631
 7040W        W10784   0.364   3.589  10.093
 7041W        W10785   7.565   4.433   2.650
 7042W        W10786   2.180   2.899   2.021
 7043W        W10787   1.571   3.662   1.388
 7044W        W10788   8.974   8.363  10.833
 7045W        W10789   1.777   3.143  10.456
 7046W        W10790   7.280   3.345   3.266
 7047W        W10791   1.869   8.835   9.564
 7048W        W10792   7.358   4.535  11.522
 7049W        W10793   2.213   5.556   1.895
 7050W        W10794   8.093   1.579  11.051
 7051W        W10795   2.645   4.664  10.042
 7052W        W10796   2.931  10.223   1.703
 7053W        W10797   8.957   1.813   9.847
 7054W        W10798   6.084   3.320   9.420
 7055W        W10799  10.073   0.382   9.030
 7056W        W10800   6.206   0.645   3.621
 7057W        W10801  10.324   1.367  10.469
 7058W        W10802   3.583   9.933  11.547
 7059W        W10803   5.008   9.966  11.207
 7060W        W10804   7.575   5.038   1.847
 7061W        W10805   8.674   3.657   9.030
 7062W        W10806   6.202   0.974  10.506
 7063W        W10807   2.501   3.996   9.409
 7064W        W10808   8.518   3.364  11.998
 7065W        W10809   3.747   0.324   3.035
 7066W        W10810   9.731   0.355  10.800
 7067W        W10811   6.927   5.972  10.658
 7068W        W10812   0.883   3.852   1.851
 7069W        W10813   8.137   4.628  10.305
 7070W        W10814   1.234   3.805   2.332
 7071W        W10815   7.081   8.342   9.745
 7072W        W10816  10.050   1.813  10.450
 7073W        W10817  10.267   5.989   1.758
 7074W        W10818   5.888   0.675   2.796
 7075W        W10819   0.963   9.005   3.545
 7076W        W10820   4.094   4.100  10.785
 7077W        W10821   4.723   8.654   1.699
 7078W        W10822   0.001   3.810   3.188
 7079W        W10823   1.643   1.952   1.486
 7080W        W10824   6.630   6.225   4.041
 7081W        W10825   8.616   1.726   0.871
 7082W        W10826   0.163   0.887   0.571
 7083W        W10827   1.005   4.680   0.252
 7084W        W10828   0.190   2.271   2.323
 7085W        W10829   1.794   7.137  10.910
 7086W        W10830   8.943   7.478  10.335
 7087W        W10831   8.556   2.133  11.483
 7088W        W10832   6.541   0.978  11.947
 7089W        W10833   9.680   8.964  11.112
 7090W        W10834   2.791   9.557  11.673
 7091W        W10835   7.802   6.580   0.649
 7092W        W10836   8.490   3.705  11.543
 7093W        W10837   0.332   5.020   1.339
 7094W        W10838   3.687   4.118  11.081
 7095W        W10839   6.203   7.114  10.929
 7096W        W10840   0.810   2.203   1.761
 7097W        W10841   2.366   3.799   1.667
 7098W        W10842   0.467   1.832   3.518
 7099W        W10843   8.394   7.417  11.424
 7100W        W10844   7.622   3.748   2.050
 7101W        W10845   6.606   1.228  11.514
 7102W        W10846   2.807   7.374   2.793
 7103W        W10847   0.601   4.585  10.774
 7104W        W10848   0.805   0.966   8.724
 7105W        W10849   6.249   4.955   0.057
 7106W        W10850   3.965   2.101   0.007
 7107W        W10851   2.891  10.330   3.245
 7108W        W10852   5.840   0.496   3.265
 7109W        W10853   2.174   8.703   8.523
 7110W        W10854   1.452   1.391   3.217
 7111W        W10855   0.154   8.953  10.915
 7112W        W10856   1.131   1.015   3.106
 7113W        W10857   3.280   4.139   8.995
 7114W        W10858   8.568   1.365   0.387
 7115W        W10859   6.609   6.526   0.877
 7116W        W10860   7.387   2.267  10.890
 7117W        W10861   3.410  10.320   1.818
 7118W        W10862   9.344   1.818   0.256
 7119W        W10863   6.288   7.881   0.779
 7120W        W10864   2.701   0.545   0.197
 7121W        W10865   5.765   4.919   0.504
 7122W        W10866   6.414   8.964  11.022
 7123W        W10867   6.260   0.312   9.979
 7124W        W10868   3.133   9.301  11.398
 7125W        W10869   6.531  10.406   9.130
 7126W        W10870   6.835   4.363  10.089
 7127W        W10871   9.938   2.142   8.868
 7128W        W10872   7.568   2.191   9.293
 7129W        W10873   1.273   8.016   9.040
 7130W        W10874   8.603   1.269   8.935
 7131W        W10875   7.865   3.844   9.254
 7132W        W10876   4.302   1.811   9.250
 7133W        W10877  10.406   4.732   3.519
 7134W        W10878   9.984   1.837   2.486
 7135W        W10879   2.559   9.003   1.164
 7136W        W10880   3.702   7.595  10.282
 7137W        W10881   8.410   3.737   9.930
 7138W        W10882   2.863   2.403   9.845
 7139W        W10883  10.329   1.622   8.615
 7140W        W10884   6.572   1.951   2.036
 7141W        W10885   4.094   7.810   0.315
 7142W        W10886   0.801   3.256   8.978
 7143W        W10887   3.589   5.521   9.885
 7144W        W10888   1.782  10.414   9.510
 7145W        W10889   9.912   0.163   0.831
 7146W        W10890   5.975   0.847   8.662
 7147W        W10891   7.276   7.754  11.957
 7148W        W10892   6.755   2.689   2.306
 7149W        W10893   3.673   0.842  10.517
 7150W        W10894   2.102   8.149   3.579
 7151W        W10895   8.321   3.689   9.422
 7152W        W10896   7.915   3.223   2.106
 7153W        W10897   0.945   3.194   1.853
 7154W        W10898   7.412   8.617  10.517
 7155W        W10899   0.831   0.627   9.583
 7156W        W10900   9.083   1.942  10.326
 7157W        W10901   9.113   9.283   1.389
 7158W        W10902   4.317   2.883  10.541
 7159W        W10903   8.685   1.233   1.254
 7160W        W10904   7.002   2.639   3.524
 7161W        W10905   4.134   6.122   9.641
 7162W        W10906   2.308  10.315  11.260
 7163W        W10907   2.932   3.264   9.952
 7164W        W10908   9.028   1.265  11.731
 7165W        W10909   1.860   0.183  10.536
 7166W        W10910   1.131   2.568   3.501
 7167W        W10911   9.544   2.618  11.980
 7168W        W10912   7.150   4.187   2.854
 7169W        W10913   0.678   6.051  10.730
 7170W        W10914   6.530   1.934  11.917
 7171W        W10915   2.693   4.111  10.845
 7172W        W10916   8.287   6.979   2.623
 7173W        W10917   0.931   8.486   0.933
 7174W        W10918   1.399   0.265   9.538
 7175W        W10919   1.553   5.055   9.339
 7176W        W10920   4.074   4.313   0.555
 7177W        W10921   4.159   8.376   3.637
 7178W        W10922   6.456   6.084   9.756
 7179W        W10923   8.103   2.103   9.986
 7180W        W10924   3.225   8.963   2.482
 7181W        W10925   8.027   0.163   3.442
 7182W        W10926   3.117   3.722  10.044
 7183W        W10927   4.021  10.211  11.411
 7184W        W10928   1.165   5.921   2.829
 7185W        W10929   0.965   1.311   1.936
 7186W        W10930   8.808   8.561   9.459
 7187W        W10931   4.406   6.576   2.833
 7188W        W10932   7.560   6.118   8.912
 7189W        W10933   0.677   1.960   9.386
 7190W        W10934   3.790   0.981   1.740
 7191W        W10935   7.038   0.152   2.142
 7192W        W10936   5.834   2.899   2.079
 7193W        W10937   9.834   8.837   0.081
 7194W        W10938   1.817  10.172  10.502
 7195W        W10939   3.107   2.293   2.351
 7196W        W10940   0.670   1.364   0.052
 7197W        W10941   2.197   2.399   0.638
 7198W        W10942   7.457   4.138   9.351
 7199W        W10943   3.326   0.745  11.369
 7200W        W10944   2.714  10.329   2.712
 7201W        W10945   0.002   5.543   9.010
 7202W        W10946   4.976   1.671   2.929
 7203W        W10947   3.940   4.479   0.090
 7204W        W10948   9.323   4.529   2.374
 7205W        W10949   9.230  10.142  10.402
 7206W        W10950   9.359   0.912   0.399
 7207W        W10951   1.227   2.748   9.292
 7208W        W10952   2.595   4.227   1.899
 7209W        W10953   3.103   5.524   9.740
 7210W        W10954   2.848   9.005   9.510
 7211W        W10955   5.525   6.028  10.761
 7212W        W10956   7.737   7.820   9.815
 7213W        W10957   3.086   2.710   8.859
 7214W        W10958   5.038  10.390   8.720
 7215W        W10959   6.507  10.462   0.015
 7216W        W10960   3.816   3.166   9.764
 7217W        W10961   7.823   6.467   0.154
 7218W        W10962   6.061   2.193   8.503
 7219W        W10963   3.193   3.212  11.047
 7220W        W10964   4.763  10.144   9.356
 7221W        W10965   4.123   7.054   9.767
 7222W        W10966  10.348   9.917   2.702
 7223W        W10967   4.085   2.626   1.866
 7224W        W10968   0.531   0.802   2.253
 7225W        W10969   1.361   1.452   0.749
 7226W        W10970   2.009   1.791   1.800
 7227W        W10971   3.724  10.082   2.135
 7228W        W10972   5.637   4.872  11.412
 7229W        W10973   9.834   7.733   2.275
 7230ION    NA+10974   7.970   7.020   9.044
 7231ION    NA+10975   8.841  10.445  11.971
 7232ION    NA+10976   0.417   6.523   3.633
 7233ION    NA+10977   6.668   1.816   3.032
 7234ION    NA+10978  10.490   3.687  11.516
 7235ION    NA+10979   1.260   8.634   2.916
 7236ION    NA+10980   9.975   6.489   0.954
 7237ION    NA+10981   4.888   0.362   9.408
 7238ION    NA+10982   2.981   4.758   0.162
 7239ION    NA+10983   0.107   0.472   9.011
 7240ION    NA+10984   7.322   4.580   8.193
 7241ION    NA+10985   0.197   9.069   9.274
 7242ION    NA+10986   5.274   7.112  11.043
 7243ION    NA+10987   5.211   3.073   9.033
 7244ION    NA+10988   6.376   8.895  10.113
 7245ION    NA+10989   1.446   6.751   9.797
 7246ION    NA+10990   4.061   1.978  11.070
 7247ION    NA+10991   1.590   0.249   0.948
 7248ION    NA+10992   2.743   0.373  10.837
 7249ION    NA+10993   2.316   2.513   1.737
 7250ION    NA+10994   9.406   0.176   2.021
 7251ION    NA+10995   0.456   7.734   1.356
 7252ION    NA+10996   7.741   0.936   3.815
 7253ION    NA+10997   7.914   3.761   9.759
 7254ION    NA+10998   0.172   5.381  10.839
 7255ION    NA+10999   3.798   4.786  11.223
 7256ION    NA+11000   7.050   1.986   0.518
 7257ION    NA+11001   3.607   9.293   2.462
 7258ION    NA+11002   6.639   3.551   1.886
 7259ION    NA+11003   3.259   6.590   9.458
 7260ION    NA+11004   1.635   4.977   1.357
 7261ION    NA+11005  10.452  10.363   2.945
 7262ION    NA+11006   2.694   1.978  11.124
 7263ION    NA+11007   7.071  10.093   8.985
 7264ION    NA+11008   9.365   3.274   0.789
 7265ION    NA+11009   1.710   1.806  11.076
 7266ION    NA+11010   1.759   3.035   9.188
 7267ION    NA+11011   4.538   6.799   9.594
 7268ION    NA+11012   1.790   7.162  11.527
 7269ION    NA+11013   3.881   0.871   0.268
 7270ION    NA+11014   0.315   9.196   0.318
 7271ION    NA+11015   9.395   1.460  10.448
 7272ION    NA+11016   7.591   2.109  11.369
 7273ION    NA+11017   9.636   5.244   3.473
 7274ION    NA+11018   4.533   5.157   0.077
 7275ION    NA+11019   0.910   5.418   0.111
 7276ION    NA+11020  10.110   9.614   9.557
 7277ION    NA+11021   3.418   6.627   2.623
 7278ION    NA+11022   2.735   9.328   1.969
 7279ION    NA+11023   5.923   9.127  10.974
 7280ION    NA+11024   4.935   3.277   8.094
 7281ION    NA+11025   5.370   4.847   1.645
 7282ION    NA+11026   9.651   3.717  11.122
 7283ION    NA+11027   0.273   5.153   1.834
 7284ION    NA+11028   1.132  10.097  11.610
 7285ION    NA+11029   1.711   0.408  10.979
 7286ION    NA+11030   4.109   8.138   1.023
 7287ION    NA+11031   5.114   2.408   1.176
 7288ION    NA+11032   1.084   9.010  11.829
 7289ION    NA+11033   0.308   7.960   2.911
 7290ION    NA+11034   6.288   9.608   1.867
 7291ION    NA+11035   4.912   4.720   0.946
 7292ION    NA+11036   0.664   0.728   0.724
 7293ION    NA+11037   1.109   9.771   3.196
 7294ION    NA+11038   3.817   0.910  10.043
 7295ION    NA+11039   1.917   7.660   9.973
 7296ION    NA+11040   5.258   5.583  11.746
 7297ION    NA+11041   3.933   0.070   9.460
 7298ION    NA+11042   2.815   0.220   0.565
 7299ION    NA+11043   7.875   0.692   2.186
 7300ION    NA+11044   2.029   0.563   0.031
 7301ION    NA+11045   4.761   3.651   1.931
 7302ION    NA+11046   1.017   8.202  11.888
 7303ION    NA+11047   6.797   7.582   0.710
 7304ION    NA+11048   2.764   7.954   2.276
 7305ION    NA+11049   4.359   8.619   9.913
 7306ION    CL-11050   5.107   4.953   1.289
 7307ION    CL-11051   4.867   5.384  11.862
 7308ION    CL-11052   9.007   2.799  10.248
 7309ION    CL-11053   8.563   1.374   9.436
 7310ION    CL-11054  10.378   3.251   1.747
 7311ION    CL-11055   5.446   6.944   1.506
 7312ION    CL-11056   1.669  10.052   8.592
 7313ION    CL-11057   8.509   8.798   9.808
 7314ION    CL-11058   9.249   0.217  10.895
 7315ION    CL-11059   3.200   2.790   3.381
 7316ION    CL-11060   1.990   8.011   9.700
 7317ION    CL-11061   2.805   3.623   1.092
 7318ION    CL-11062   7.407  10.079   9.291
 7319ION    CL-11063   0.605   7.323   1.255
 7320ION    CL-11064   2.671   1.848  11.551
 7321ION    CL-11065   1.187   8.573  11.695
 7322ION    CL-11066   1.331   2.930  11.726
 7323ION    CL-11067   3.722   8.937   2.220
 7324ION    CL-11068   4.697   0.501   1.958
 7325ION    CL-11069   8.988   2.580   8.776
 7326ION    CL-11070   2.892   0.561   2.008
 7327ION    CL-11071   4.072   0.916   1.296
 7328ION    CL-11072   6.793   9.018  10.015
 7329ION    CL-11073   8.544   9.119   0.519
 7330ION    CL-11074   9.425   4.351   9.641
 7331ION    CL-11075   6.733   9.560   1.941
 7332ION    CL-11076   9.330   3.499  10.886
 7333ION    CL-11077   7.852   8.906  10.615
 7334ION    CL-11078   2.882   4.533   3.225
 7335ION    CL-11079   2.698   1.220   1.283
 7336ION    CL-11080   0.641   9.005  11.993
 7337ION    CL-11081   0.186   8.964   0.704
 7338ION    CL-11082   2.097   3.804   0.410
 7339ION    CL-11083   1.584   2.938   8.773
 7340ION    CL-11084   4.439  10.007  11.973
 7341ION    CL-11085   1.252   8.610   2.460
 7342ION    CL-11086   2.478   7.652   2.445
 7343ION    CL-11087   5.111   9.218   9.508
 7344ION    CL-11088   4.764   9.924  10.302
 7345ION    CL-11089   8.338   5.363   8.734
 7346ION    CL-11090   6.567   1.410   3.214
 7347ION    CL-11091  10.068   3.715  11.347
 7348ION    CL-11092   9.910   8.071   1.853
 7349ION    CL-11093   6.800   7.168   0.932
 7350ION    CL-11094   2.262   1.875   0.542
 7351ION    CL-11095   5.057   2.895   9.412
 7352ION    CL-11096  10.485   9.366   9.545
 7353ION    CL-11097   4.198   3.498   3.750
 7354ION    CL-11098   5.878   7.827   1.124
 7355ION    CL-11099   2.548   4.680   0.239
 7356ION    CL-11100   3.154   5.159   8.871
 7357ION    CL-11101   4.847   4.556  10.703
 7358ION    CL-11102   7.154   8.361   1.780
 7359ION    CL-11103   4.018   2.355  11.306
 7360ION    CL-11104   1.204   9.142  10.149
 7361ION    CL-11105   6.924   9.956   8.565
 7362ION    CL-11106   7.978   4.495   1.360
 7363ION    CL-11107   0.308   9.742   0.413
 7364ION    CL-11108   2.580   6.449  11.923
 7365ION    CL-11109   7.996   6.128   9.539
 7366ION    CL-11110   1.327   8.634   3.389
 7367ION    CL-11111   9.272   5.006   8.708
 7368ION    CL-11112   0.607   5.310  10.917
 7369ION    CL-11113   5.194   3.427   4.085
 7370ION    CL-11114   6.911   7.931   0.437
 7371ION    CL-11115   5.845   9.671   1.788
 7372ION    CL-11116   4.000   5.060  10.936
 7373ION    CL-11117   3.499   6.860   2.993
 7374ION    CL-11118   0.610   1.126   0.530
 7375ION    CL-11119   8.470   8.215  10.990
 7376ION    CL-11120   8.934   6.954  10.776
 7377ION    CL-11121   8.465  10.105   3.088
 7378ION    CL-11122   4.208   2.290   9.385
 7379ION    CL-11123   2.947   0.756   8.892
 7380ION    CL-11124   2.242   2.889   1.503
 7381ION    CL-11125   1.235   9.787  11.921
  10.50000  10.50000  12.00000
