Protein in INSANE! Membrane UpperLeaflet>POPC=1.0 LowerLeaflet>POPC=1.0
12676
    1AU     AUC    1   7.120   8.155   7.030  0.1149 -0.0621 -0.0015
    1AU     AUC    2   7.398   8.101   6.926 -0.0362  0.0147 -0.0974
    1AU     AUC    3   7.329   8.036   7.227 -0.0319  0.1126 -0.0457
    1AU     AUC    4   6.896   8.227   6.847  0.0263  0.0314 -0.0664
    1AU     AUC    5   6.835   8.193   7.152  0.0053 -0.0531  0.0354
    1AU     AUC    6   7.017   8.433   7.078 -0.1015  0.0723 -0.0267
    1AU     AUC    7   7.320   8.348   7.102  0.0157 -0.0228  0.0340
    1AU     AUC    8   6.903   7.943   6.978  0.0145  0.0583  0.0056
    1AU     AUC    9   7.189   7.858   7.037 -0.0367 -0.0494 -0.0142
    1AU     AUC   10   7.023   7.966   7.260 -0.0501  0.0909  0.0238
    1AU     AUC   11   7.111   8.258   7.331 -0.0204 -0.0643 -0.0694
    1AU     AUC   12   7.130   8.006   6.760 -0.0283  0.1290 -0.0345
    1AU     AUC   13   7.177   8.326   6.804  0.1402 -0.0716  0.1078
    1AU     AUC   14   7.657   8.065   6.820 -0.0513 -0.0875  0.0152
    1AU     AUC   15   7.613   8.018   7.125  0.0209 -0.0197  0.0172
    1AU     AUC   16   7.521   7.955   7.419 -0.0020 -0.0902 -0.0626
    1AU     AUC   17   6.678   8.308   6.671 -0.0383  0.0580 -0.0852
    1AU     AUC   18   6.623   8.280   6.952 -0.0679 -0.0395 -0.0117
    1AU     AUC   19   6.557   8.254   7.277 -0.0160 -0.0392  0.0296
    1AU     AUC   20   6.948   8.725   7.104 -0.0721  0.0675 -0.1529
    1AU     AUC   21   7.251   8.649   7.138 -0.0037 -0.0018  0.0100
    1AU     AUC   22   7.515   8.573   7.190  0.0726 -0.0498 -0.0528
    1AU     AUC   23   6.674   7.729   6.913  0.0479 -0.0256 -0.0282
    1AU     AUC   24   6.992   7.642   6.934  0.0575  0.0823  0.0084
    1AU     AUC   25   7.277   7.565   7.005  0.0732  0.0233  0.0928
    1AU     AUC   26   6.902   7.797   7.475  0.0307  0.0693 -0.0431
    1AU     AUC   27   7.016   8.066   7.561  0.1330 -0.0182 -0.0180
    1AU     AUC   28   7.107   8.355   7.616 -0.0148 -0.1064 -0.0149
    1AU     AUC   29   7.145   7.902   6.476 -0.0004 -0.0932  0.0437
    1AU     AUC   30   7.216   8.214   6.547 -0.0069  0.1355  0.0521
    1AU     AUC   31   7.273   8.491   6.581  0.0170 -0.0731 -0.0640
    1AU     AUC   32   7.233   7.865   7.465 -0.0686 -0.0289 -0.0153
    1AU     AUC   33   7.315   8.148   7.500 -0.1101 -0.0350 -0.1007
    1AU     AUC   34   7.415   7.983   6.623  0.0004  0.0032 -0.0078
    1AU     AUC   35   7.479   8.283   6.690  0.0610 -0.0666 -0.1669
    1AU     AUC   36   6.736   8.020   7.386  0.0698  0.1036  0.0530
    1AU     AUC   37   6.830   8.309   7.438  0.0931 -0.0030 -0.0357
    1AU     AUC   38   6.917   8.108   6.555 -0.0875 -0.0232  0.0292
    1AU     AUC   39   6.973   8.403   6.622  0.0491 -0.0278 -0.0398
    1AU     AUC   40   7.610   8.320   6.994  0.0369  0.0098  0.1024
    1AU     AUC   41   7.538   8.230   7.292 -0.0333  0.0263  0.0130
    1AU     AUC   42   6.789   8.511   6.882  0.0075 -0.0218 -0.0322
    1AU     AUC   43   6.761   8.476   7.198  0.0627 -0.0707 -0.0290
    1AU     AUC   44   7.474   7.800   6.904  0.0003 -0.0317 -0.0060
    1AU     AUC   45   7.420   7.763   7.204 -0.0184  0.0373 -0.0126
    1AU     AUC   46   6.695   8.024   6.779  0.0997  0.0530  0.0304
    1AU     AUC   47   6.633   7.994   7.103  0.0826  0.0037 -0.0581
    1AU     AUC   48   7.005   8.548   7.360 -0.0763 -0.0617 -0.0751
    1AU     AUC   49   7.339   8.479   7.376  0.0305  0.0603  0.0519
    1AU     AUC   50   6.802   7.738   7.188  0.0447  0.0643  0.0666
    1AU     AUC   51   7.100   7.660   7.256  0.0373 -0.0289 -0.0115
    1AU     AUC   52   7.097   8.620   6.850  0.0313  0.0116  0.1094
    1AU     AUC   53   7.392   8.527   6.882  0.0215  0.0313  0.1053
    1AU     AUC   54   6.903   7.832   6.695  0.0323 -0.0629  0.0918
    1AU     AUC   55   7.213   7.737   6.742 -0.0698  0.0198  0.0551
    1AU    AUSL   56   7.305   7.916   7.676 -0.0117  0.1016 -0.0347
    1AU    AUSL   57   7.167   7.520   7.611 -0.0599 -0.0507 -0.0179
    1AU     AUL   58   7.310   7.520   7.913 -0.0314 -0.0807  0.0149
    1AU       S   59   7.390   7.159   7.614  0.0125  0.1625 -0.1977
    1AU     LIG   60   7.312   6.792   7.782 -0.0900  0.1517 -0.0711
    1AU     LIG   61   7.332   6.332   7.668  0.0926  0.2651  0.2355
    1AU     LIG   62   7.386   5.987   7.421  0.0542  0.0142  0.0198
    1AU     LIG   63   7.393   5.547   7.181 -0.0737 -0.3142 -0.0956
    1AU     LIG   64   7.437   5.171   7.280 -0.0126 -0.0798 -0.3875
    1AU     LIG   65   7.448   4.804   7.475 -0.1921 -0.1022  0.2866
    1AU       S   66   7.287   7.851   8.285  0.1087 -0.0193  0.1144
    1AU     LIG   67   7.734   7.540   8.400  0.2998 -0.1927  0.1461
    1AU     LIG   68   8.041   7.229   8.294 -0.3703  0.2381  0.0488
    1AU     LIG   69   8.033   6.828   8.127  0.1765 -0.0227  0.3499
    1AU     LIG   70   8.153   6.410   8.009  0.1293  0.1577  0.0284
    1AU     LIG   71   8.184   6.152   7.706  0.2820  0.1005 -0.0664
    1AU     LIG   72   8.291   5.725   7.553 -0.0785 -0.3880 -0.0144
    1AU    AUSL   73   6.942   7.780   7.853 -0.0178 -0.0607 -0.0369
    1AU    AUSL   74   6.968   8.218   7.806  0.0352 -0.0282  0.0195
    1AU     AUL   75   6.968   8.017   8.026 -0.0691 -0.0173  0.0469
    1AU       S   76   7.101   7.711   8.341  0.2854  0.2953  0.1770
    1AU     LIG   77   7.016   7.983   8.721 -0.0499  0.0617 -0.2299
    1AU     LIG   78   6.730   8.294   8.859  0.2774  0.1048 -0.3577
    1AU     LIG   79   6.287   8.173   8.968  0.1347 -0.2900  0.1022
    1AU     LIG   80   6.015   7.935   8.782  0.1249 -0.0957 -0.3491
    1AU     LIG   81   5.827   7.680   8.509 -0.2845 -0.0438 -0.3416
    1AU     LIG   82   5.642   7.358   8.213  0.3367  0.2810 -0.5840
    1AU       S   83   6.551   7.979   8.171 -0.0875  0.1607 -0.1758
    1AU     LIG   84   6.480   7.829   8.590  0.2210 -0.4007  0.2664
    1AU     LIG   85   6.275   7.444   8.699 -0.3016  0.1621 -0.2854
    1AU     LIG   86   6.391   7.124   9.011 -0.1769  0.1988  0.0232
    1AU     LIG   87   6.660   7.324   9.143 -0.0244 -0.1345 -0.1380
    1AU     LIG   88   6.696   7.762   9.209  0.3822 -0.0655 -0.0418
    1AU     LIG   89   6.492   8.015   9.393  0.5477 -0.0948  0.1885
    1AU    AUSL   90   7.357   8.278   7.900 -0.0042  0.0658 -0.0244
    1AU    AUSL   91   7.691   8.077   7.641  0.0555  0.0029 -0.0588
    1AU     AUL   92   7.481   7.968   7.906  0.0836 -0.0178 -0.0931
    1AU       S   93   7.283   8.259   8.236  0.4059 -0.0355  0.0109
    1AU     LIG   94   7.327   8.412   8.674 -0.1902 -0.0985  0.1255
    1AU     LIG   95   7.121   8.527   8.957  0.3324 -0.7108 -0.0178
    1AU     LIG   96   6.860   8.354   9.365  0.1362 -0.3210  0.0866
    1AU     LIG   97   6.507   8.484   9.658 -0.0163  0.5133 -0.2769
    1AU     LIG   98   6.166   8.109   9.711 -0.1714 -0.1294  0.0492
    1AU     LIG   99   6.111   7.675   9.846  0.2006 -0.0985  0.2209
    1AU       S  100   7.893   8.054   7.745 -0.2542  0.4490 -0.5773
    1AU     LIG  101   8.315   7.866   7.853 -0.2586  0.1234  0.1060
    1AU     LIG  102   8.374   7.499   8.081 -0.4077  0.2078  0.1713
    1AU     LIG  103   8.531   7.037   8.337 -0.0927 -0.1013  0.1675
    1AU     LIG  104   8.377   6.742   8.561  0.1205 -0.1731  0.3870
    1AU     LIG  105   8.322   6.325   8.563 -0.0266 -0.1773  0.0119
    1AU     LIG  106   8.040   6.026   8.399 -0.2014 -0.1337 -0.0073
    1AU    AUSL  107   7.746   8.166   6.535  0.0396  0.1223  0.0218
    1AU    AUSL  108   7.635   8.583   6.536 -0.0322  0.0365  0.0822
    1AU     AUL  109   7.860   8.433   6.315 -0.0251 -0.0519  0.0313
    1AU       S  110   7.846   8.042   5.985  0.1891  0.2091  0.2657
    1AU     LIG  111   7.878   8.372   5.601  0.2281  0.3332  0.0821
    1AU     LIG  112   7.835   8.781   5.672  0.0156  0.1707  0.2992
    1AU     LIG  113   7.819   9.119   6.151  0.1814 -0.1774  0.1944
    1AU     LIG  114   8.013   9.492   6.378 -0.1060 -0.0037  0.1643
    1AU     LIG  115   8.179   9.889   6.862  0.0274  0.2493  0.1552
    1AU     LIG  116   8.500  10.041   7.121  0.1398  0.1051  0.3514
    1AU       S  117   8.117   8.744   6.533  0.7318 -0.6622 -0.2543
    1AU     LIG  118   8.306   9.109   6.602 -0.2936  0.1155 -0.0002
    1AU     LIG  119   8.580   9.481   6.450 -0.4731  0.0257 -0.0774
    1AU     LIG  120   8.926   9.761   6.277 -0.0253 -0.0818 -0.0473
    1AU     LIG  121   9.206  10.076   6.505  0.2243  0.0366  0.1028
    1AU     LIG  122   9.247  10.354   6.791  0.1507 -0.0987 -0.2232
    1AU     LIG  123   9.030  10.236   7.163  0.2505 -0.1385  0.1245
    1AU    AUSL  124   7.485   7.941   6.268 -0.0338 -0.0674  0.0538
    1AU    AUSL  125   7.725   7.753   6.581  0.0089  0.0576  0.0181
    1AU     AUL  126   7.921   7.924   6.403 -0.0295  0.0600 -0.0607
    1AU       S  127   7.773   7.485   6.290  0.0677 -0.0004 -0.2221
    1AU     LIG  128   8.206   7.260   6.403  0.0992 -0.1431  0.0907
    1AU     LIG  129   8.557   7.404   6.774 -0.1434  0.2419  0.1424
    1AU     LIG  130   8.808   7.716   6.919 -0.1227 -0.0914  0.2377
    1AU     LIG  131   9.171   7.778   6.705 -0.2661  0.2638  0.1888
    1AU     LIG  132   9.294   7.531   6.320 -0.2718  0.0109 -0.0084
    1AU     LIG  133   9.102   7.202   6.343 -0.3394  0.1499  0.3080
    1AU       S  134   7.623   7.889   5.963  0.2239 -0.1604 -0.4534
    1AU     LIG  135   7.415   7.985   5.559  0.0833  0.2635  0.2319
    1AU     LIG  136   7.097   7.841   5.350  0.0447  0.1920  0.0086
    1AU     LIG  137   6.938   7.329   5.327 -0.0096 -0.0656 -0.1613
    1AU     LIG  138   6.761   6.981   5.388  0.2050  0.2265  0.2413
    1AU     LIG  139   6.881   6.594   5.375  0.2850 -0.0183 -0.0961
    1AU     LIG  140   6.904   6.208   4.992 -0.1210 -0.0996  0.0229
    1AU    AUSL  141   7.356   8.293   6.485 -0.0481  0.0275  0.0374
    1AU    AUSL  142   7.121   8.125   6.167 -0.0130 -0.0646  0.0365
    1AU     AUL  143   7.464   8.302   6.135 -0.0024 -0.0873  0.1057
    1AU       S  144   7.139   8.288   5.842  0.2001 -0.1504  0.1818
    1AU     LIG  145   7.373   8.447   5.545 -0.4025 -0.1523 -0.2631
    1AU     LIG  146   7.540   8.815   5.276 -0.2886  0.2465 -0.0058
    1AU     LIG  147   7.861   9.070   5.253  0.0755  0.0846 -0.0681
    1AU     LIG  148   7.846   9.493   5.256  0.1215 -0.3532 -0.1896
    1AU     LIG  149   7.945   9.882   5.518  0.1205 -0.0067 -0.1750
    1AU     LIG  150   8.108  10.149   5.834  0.0758  0.1536 -0.0854
    1AU       S  151   7.519   7.860   6.143 -0.1321 -0.5137  0.2933
    1AU     LIG  152   7.546   7.429   5.810  0.0943  0.0805 -0.1707
    1AU     LIG  153   7.152   7.222   5.743  0.1187  0.2470  0.0471
    1AU     LIG  154   6.731   7.255   5.812  0.0131 -0.1812 -0.0129
    1AU     LIG  155   6.323   7.140   6.039  0.2992 -0.0019 -0.3904
    1AU     LIG  156   5.879   7.041   6.173 -0.0028  0.3276 -0.0587
    1AU     LIG  157   5.478   7.195   6.257  0.0906  0.3232  0.1071
    1AU    AUSL  158   6.570   8.203   7.716  0.0825 -0.0163  0.0698
    1AU    AUSL  159   6.813   8.589   7.708  0.0306  0.0823 -0.1171
    1AU     AUL  160   6.752   8.431   7.998  0.0528 -0.0404 -0.0063
    1AU       S  161   6.407   8.160   8.153  0.0528  0.0704 -0.3086
    1AU     LIG  162   5.982   8.036   8.224 -0.3455 -0.1004  0.2269
    1AU     LIG  163   5.689   7.805   8.036 -0.0050 -0.0462 -0.0321
    1AU     LIG  164   5.349   7.587   7.782  0.0060 -0.4470 -0.0340
    1AU     LIG  165   4.963   7.515   7.625 -0.0509  0.4648  0.0109
    1AU     LIG  166   4.795   7.209   7.410 -0.2200 -0.1386  0.1077
    1AU     LIG  167   4.554   7.035   7.191  0.0043  0.2232  0.0124
    1AU       S  168   6.450   8.853   7.844  0.0559  0.0064 -0.1686
    1AU     LIG  169   6.373   9.250   7.918  0.2418  0.0541  0.0389
    1AU     LIG  170   6.030   9.587   7.973  0.2296 -0.5569  0.3401
    1AU     LIG  171   5.680   9.897   7.905  0.2399 -0.0668 -0.0635
    1AU     LIG  172   5.340  10.030   7.689 -0.0062 -0.0020 -0.4175
    1AU     LIG  173   4.943  10.337   7.707 -0.0086  0.1108 -0.2608
    1AU     LIG  174   4.765  10.714   7.473  0.1067  0.0677 -0.0573
    1AU    AUSL  175   6.830   7.965   7.504 -0.0567 -0.0428 -0.0642
    1AU    AUSL  176   6.335   8.021   7.419 -0.0092 -0.0094  0.0720
    1AU     AUL  177   6.358   8.065   7.687 -0.0636  0.0430  0.0043
    1AU       S  178   6.022   7.695   7.514 -0.0162 -0.3026  0.7599
    1AU     LIG  179   5.558   7.785   7.350  0.1585 -0.0382 -0.0766
    1AU     LIG  180   5.184   7.693   7.184 -0.2063 -0.0451 -0.0350
    1AU     LIG  181   4.838   7.441   6.960  0.1346  0.0057  0.2941
    1AU     LIG  182   4.693   7.047   6.711  0.1440 -0.0875  0.0858
    1AU     LIG  183   4.868   6.713   6.568  0.1986  0.3261  0.1104
    1AU     LIG  184   5.097   6.377   6.682  0.5299 -0.2202 -0.1597
    1AU       S  185   6.503   7.776   8.057 -0.1653 -0.7218 -0.1615
    1AU     LIG  186   6.191   7.551   8.175 -0.1742  0.0082 -0.0626
    1AU     LIG  187   6.117   7.174   8.224 -0.2952 -0.0506 -0.4652
    1AU     LIG  188   6.103   6.919   7.892 -0.0447  0.3311 -0.2013
    1AU     LIG  189   5.779   6.564   7.919 -0.1918  0.0731  0.2257
    1AU     LIG  190   5.693   6.182   7.984 -0.1984  0.5072 -0.0507
    1AU     LIG  191   5.548   5.732   8.071 -0.3758 -0.1256  0.3079
    1AU    AUSL  192   6.821   8.286   6.421  0.1238  0.1179 -0.0901
    1AU    AUSL  193   6.897   7.844   6.375  0.1008 -0.0646 -0.0059
    1AU     AUL  194   6.803   8.033   6.087  0.0028  0.0222  0.0109
    1AU       S  195   6.952   8.414   5.795  0.3121 -0.0231 -0.2920
    1AU     LIG  196   6.741   8.122   5.476  0.2917 -0.1247 -0.1188
    1AU     LIG  197   6.297   8.055   5.395  0.0986  0.1354  0.3283
    1AU     LIG  198   5.830   7.977   5.562  0.0717  0.1783 -0.0537
    1AU     LIG  199   5.509   7.826   5.792 -0.2672  0.0632  0.4652
    1AU     LIG  200   5.129   8.087   5.965  0.0250  0.0348 -0.2265
    1AU     LIG  201   4.901   8.125   6.313  0.2538 -0.0382  0.0724
    1AU       S  202   6.414   7.750   6.072 -0.1430 -0.0182  0.1382
    1AU     LIG  203   6.104   7.545   5.814 -0.3795  0.0115 -0.1283
    1AU     LIG  204   5.825   7.303   5.765 -0.3873 -0.3734  0.0730
    1AU     LIG  205   5.677   7.079   5.367  0.0027  0.2159 -0.2528
    1AU     LIG  206   5.448   7.092   5.087 -0.2495  0.1091  0.0302
    1AU     LIG  207   5.010   7.133   4.977 -0.0102 -0.2204  0.3252
    1AU     LIG  208   4.874   7.451   4.891  0.0474 -0.0732 -0.0050
    1AU    AUSL  209   7.114   8.554   6.253 -0.0147  0.1218 -0.0319
    1AU    AUSL  210   6.648   8.659   6.485  0.0355  0.0484  0.0670
    1AU     AUL  211   6.682   8.465   6.210  0.0195  0.0229  0.0156
    1AU       S  212   6.695   8.884   6.275 -0.3267 -0.2725 -0.2151
    1AU     LIG  213   6.293   9.129   6.174 -0.2619  0.1237 -0.1334
    1AU     LIG  214   5.954   9.152   6.548 -0.0196 -0.1631  0.0103
    1AU     LIG  215   5.752   9.210   6.859  0.2938 -0.4428 -0.1715
    1AU     LIG  216   5.600   9.265   7.207 -0.1521 -0.0274 -0.0279
    1AU     LIG  217   5.343   9.089   7.618  0.0201 -0.1487  0.4793
    1AU     LIG  218   5.401   8.880   8.092 -0.1278  0.3675  0.0990
    1AU       S  219   7.089   8.531   6.014  0.0839 -0.0226  0.2432
    1AU     LIG  220   7.197   8.833   5.705 -0.1257  0.1098  0.0595
    1AU     LIG  221   7.097   9.221   5.479  0.3197 -0.0090 -0.0571
    1AU     LIG  222   6.766   9.512   5.503 -0.0488  0.1685  0.1200
    1AU     LIG  223   6.325   9.363   5.691 -0.1960  0.2956 -0.4037
    1AU     LIG  224   6.171   8.955   5.734 -0.0201  0.0195 -0.0056
    1AU     LIG  225   6.040   8.573   5.678 -0.0650  0.1654  0.1165
    1AU    AUSL  226   7.843   8.573   7.216 -0.0468  0.0377 -0.0480
    1AU    AUSL  227   7.915   8.408   6.827  0.0029  0.0957  0.0175
    1AU     AUL  228   8.007   8.796   7.047 -0.0523  0.0413  0.0308
    1AU       S  229   8.169   8.518   6.687  0.0368 -0.0501 -0.1012
    1AU     LIG  230   8.570   8.314   6.590 -0.1868 -0.2717 -0.1064
    1AU     LIG  231   9.054   8.468   6.497 -0.3526  0.0057 -0.1908
    1AU     LIG  232   9.277   8.841   6.480  0.0982 -0.0596  0.2722
    1AU     LIG  233   9.585   9.017   6.590 -0.2856 -0.0605  0.2357
    1AU     LIG  234   9.550   9.376   6.876 -0.0051  0.1468 -0.3590
    1AU     LIG  235   9.604   9.341   7.306  0.2454 -0.2836 -0.0189
    1AU       S  236   8.235   8.396   7.195  0.0438  0.0247  0.0074
    1AU     LIG  237   8.574   8.640   7.395 -0.1015 -0.0439  0.2668
    1AU     LIG  238   8.862   8.951   7.273 -0.1192 -0.0685 -0.2317
    1AU     LIG  239   9.116   9.347   7.325 -0.0413 -0.0020  0.4101
    1AU     LIG  240   9.197   9.714   7.079 -0.0751  0.2311 -0.1761
    1AU     LIG  241   8.877   9.849   6.820 -0.3571  0.1818 -0.2784
    1AU     LIG  242   8.549   9.959   6.586 -0.0067  0.0304  0.1886
    1AU    AUSL  243   7.977   8.019   6.937  0.1483  0.0628 -0.1416
    1AU    AUSL  244   7.861   7.794   7.301 -0.0555 -0.0654  0.0092
    1AU     AUL  245   8.148   7.735   7.064 -0.0197 -0.0083  0.0238
    1AU       S  246   8.227   8.169   7.120  0.0874  0.0844  0.2932
    1AU     LIG  247   8.768   8.212   7.010 -0.2107 -0.4144 -0.1050
    1AU     LIG  248   9.105   8.531   7.211 -0.3040 -0.1159  0.0361
    1AU     LIG  249   9.567   8.522   7.082 -0.2420  0.1286  0.0812
    1AU     LIG  250   9.838   8.777   7.192 -0.5058  0.1703 -0.0968
    1AU     LIG  251  10.027   9.151   7.163 -0.3692 -0.1918  0.1180
    1AU     LIG  252  10.029   9.596   7.179  0.1747 -0.3370  0.1810
    1AU       S  253   8.069   7.302   7.180  0.0497 -0.0952 -0.0248
    1AU     LIG  254   8.552   7.181   7.201 -0.2081  0.0267 -0.0030
    1AU     LIG  255   8.927   7.237   7.421 -0.3665  0.2652 -0.3404
    1AU     LIG  256   9.372   7.217   7.427  0.1197 -0.0956  0.3321
    1AU     LIG  257   9.614   7.091   7.130 -0.0311  0.0843 -0.2391
    1AU     LIG  258  10.086   7.324   7.043  0.1059  0.0864  0.1206
    1AU     LIG  259  10.530   7.365   7.149 -0.0150  0.0571  0.0879
    1AU    AUSL  260   7.747   8.183   7.249  0.0746 -0.0981 -0.1083
    1AU    AUSL  261   7.649   8.495   7.576  0.0159 -0.0650 -0.0338
    1AU     AUL  262   7.874   8.457   7.496  0.0597  0.0057  0.0143
    1AU       S  263   7.921   8.226   7.870  0.4454  0.0366  0.2277
    1AU     LIG  264   8.300   8.354   8.063 -0.3159 -0.0399  0.0391
    1AU     LIG  265   8.722   8.367   7.842  0.2401 -0.3583  0.3284
    1AU     LIG  266   9.108   8.188   7.602 -0.4418  0.1405  0.0450
    1AU     LIG  267   9.456   8.044   7.263 -0.2681  0.0407  0.0947
    1AU     LIG  268   9.373   7.588   7.126  0.0610  0.1583  0.3828
    1AU     LIG  269   9.110   7.258   6.926 -0.5663  0.3274  0.1173
    1AU       S  270   8.195   8.146   7.372  0.4853  0.1898  0.0695
    1AU     LIG  271   8.603   7.971   7.458  0.2957  0.1204  0.0926
    1AU     LIG  272   8.946   7.761   7.375 -0.2741  0.3245  0.1517
    1AU     LIG  273   9.220   7.670   7.634  0.0182 -0.1678 -0.0252
    1AU     LIG  274   9.168   7.810   8.040  0.0450 -0.1892 -0.2481
    1AU     LIG  275   8.783   7.914   8.061 -0.2108 -0.2486 -0.1499
    1AU     LIG  276   8.601   8.048   8.370 -0.0010 -0.5471  0.0876
    1AU    AUSL  277   6.579   8.817   7.141  0.0588  0.0149 -0.0241
    1AU    AUSL  278   6.548   8.478   7.403 -0.0674  0.0645 -0.0334
    1AU     AUL  279   6.603   8.971   7.419  0.0247  0.0256  0.0083
    1AU       S  280   6.330   8.588   7.539  0.0068 -0.0727 -0.1690
    1AU     LIG  281   5.970   8.887   7.615 -0.0842 -0.1833 -0.1269
    1AU     LIG  282   5.660   8.696   7.586  0.0355 -0.0397  0.1299
    1AU     LIG  283   5.268   8.602   7.462  0.2436  0.0353  0.0482
    1AU     LIG  284   4.842   8.782   7.579  0.2981  0.3994 -0.1971
    1AU     LIG  285   4.468   8.987   7.690 -0.1915 -0.1331  0.1774
    1AU     LIG  286   4.207   9.215   7.862 -0.0101 -0.3713 -0.0845
    1AU       S  287   6.217   9.007   7.144 -0.3553 -0.1757  0.1599
    1AU     LIG  288   6.075   9.330   7.407  0.1168 -0.0356 -0.0652
    1AU     LIG  289   5.717   9.421   7.673  0.3496  0.4052  0.1095
    1AU     LIG  290   5.422   9.446   7.920 -0.1250  0.3065 -0.0182
    1AU     LIG  291   5.126   9.756   8.031 -0.1047  0.3723 -0.1522
    1AU     LIG  292   5.186  10.142   8.252 -0.2419 -0.0800  0.0516
    1AU     LIG  293   5.229  10.345   8.653 -0.1430  0.0789  0.0775
    1AU    AUSL  294   6.625   8.510   6.869 -0.1041  0.0303  0.0125
    1AU    AUSL  295   6.819   8.901   6.806 -0.0472 -0.0277  0.0132
    1AU     AUL  296   6.554   8.921   6.761  0.0323 -0.0041 -0.0407
    1AU       S  297   6.166   8.956   6.947  0.1423 -0.0651 -0.1926
    1AU     LIG  298   6.213   9.494   6.940 -0.2377 -0.2219  0.2491
    1AU     LIG  299   5.867   9.679   7.094  0.2160  0.0268  0.0950
    1AU     LIG  300   5.609  10.051   7.211  0.6701  0.0389 -0.2326
    1AU     LIG  301   5.205  10.235   7.250 -0.2735  0.3959  0.3069
    1AU     LIG  302   4.809  10.282   7.150  0.0685 -0.2461  0.0431
    1AU     LIG  303   4.568  10.697   6.971 -0.1385 -0.0380  0.0080
    1AU       S  304   6.761   9.155   6.430 -0.2480  0.1637  0.4012
    1AU     LIG  305   6.667   9.504   6.668 -0.2404  0.0977  0.1401
    1AU     LIG  306   6.867   9.745   6.943 -0.0683 -0.0053 -0.2760
    1AU     LIG  307   7.290   9.868   6.972  0.0838  0.1451  0.0694
    1AU     LIG  308   7.723   9.803   7.205 -0.0438 -0.1639  0.1975
    1AU     LIG  309   7.871  10.173   7.342  0.1741  0.1571 -0.4062
    1AU     LIG  310   7.952  10.339   7.827 -0.1526  0.0011 -0.0116
    1AU    AUSL  311   6.279   8.474   7.101  0.0342  0.0146  0.0275
    1AU    AUSL  312   6.323   8.274   6.708 -0.0793  0.0147 -0.0207
    1AU     AUL  313   6.278   8.540   6.748 -0.0011  0.0269 -0.0677
    1AU       S  314   5.970   8.193   6.722 -0.0939 -0.5013  0.2737
    1AU     LIG  315   5.642   8.516   6.623  0.0940 -0.1127 -0.3090
    1AU     LIG  316   5.238   8.406   6.645 -0.1066 -0.3745 -0.2317
    1AU     LIG  317   4.937   8.547   6.875 -0.1813 -0.0113  0.4055
    1AU     LIG  318   4.594   8.394   6.823  0.0350  0.1806  0.2374
    1AU     LIG  319   4.294   8.224   6.603  0.0444  0.1558 -0.0553
    1AU     LIG  320   4.276   7.883   6.453  0.1665  0.2776 -0.0229
    1AU       S  321   6.030   8.697   7.154 -0.3063 -0.0742  0.1217
    1AU     LIG  322   5.620   8.669   7.078  0.1946 -0.2639  0.3198
    1AU     LIG  323   5.243   8.939   7.097 -0.1560  0.0659 -0.7170
    1AU     LIG  324   4.956   9.263   7.112 -0.0771  0.4526 -0.2447
    1AU     LIG  325   4.634   9.471   7.317 -0.0488  0.2167  0.0195
    1AU     LIG  326   4.466   9.850   7.100 -0.1364  0.0568  0.6039
    1AU     LIG  327   4.253  10.257   7.147 -0.3198 -0.3564  0.0879
    1AU    AUSL  328   7.647   7.462   7.113  0.0247 -0.0841 -0.0722
    1AU    AUSL  329   7.568   7.626   7.519  0.0701 -0.0514 -0.0666
    1AU     AUL  330   7.891   7.615   7.473 -0.0429 -0.0519 -0.0108
    1AU       S  331   7.863   7.224   7.211 -0.1007 -0.0648 -0.1411
    1AU     LIG  332   8.058   6.893   7.381  0.3046  0.2638 -0.1971
    1AU     LIG  333   8.320   6.596   7.263  0.0291  0.0705  0.0751
    1AU     LIG  334   8.206   6.125   7.156  0.0844 -0.2648  0.2941
    1AU     LIG  335   8.246   5.712   7.021 -0.0490  0.2103 -0.2818
    1AU     LIG  336   7.846   5.522   6.872 -0.0143 -0.4796  0.2485
    1AU     LIG  337   7.638   5.182   6.739  0.2250  0.4846  0.1394
    1AU       S  338   7.510   7.348   7.552  0.0324 -0.3426  0.1920
    1AU     LIG  339   7.834   7.101   7.800 -0.0612 -0.3235  0.0057
    1AU     LIG  340   8.313   7.074   7.722 -0.3753  0.3558 -0.0951
    1AU     LIG  341   8.641   6.842   7.559 -0.0539 -0.4042 -0.2500
    1AU     LIG  342   8.893   6.771   7.149  0.1806 -0.4271  0.1751
    1AU     LIG  343   8.811   6.879   6.751 -0.1653  0.2249 -0.3020
    1AU     LIG  344   8.659   6.970   6.469 -0.2207 -0.0626 -0.0938
    1AU    AUSL  345   7.608   7.855   6.962 -0.0325  0.0328 -0.0211
    1AU    AUSL  346   7.477   7.459   6.740 -0.0814 -0.1068 -0.0157
    1AU     AUL  347   7.838   7.571   6.749 -0.0427  0.0477 -0.1241
    1AU       S  348   7.775   7.303   7.114 -0.1688 -0.1241 -0.0420
    1AU     LIG  349   8.140   6.954   6.893  0.1090  0.1515 -0.1079
    1AU     LIG  350   8.347   6.575   6.776 -0.1459 -0.2766 -0.1518
    1AU     LIG  351   8.655   6.377   6.982  0.1625  0.1174  0.0310
    1AU     LIG  352   9.092   6.300   7.140 -0.1849 -0.1402  0.5129
    1AU     LIG  353   9.483   6.096   7.194 -0.3444  0.0441  0.0066
    1AU     LIG  354   9.825   6.260   7.313 -0.1431  0.2475  0.0537
    1AU       S  355   7.684   7.231   6.454  0.0125 -0.4494 -0.1648
    1AU     LIG  356   7.763   6.835   6.469  0.3706  0.4052  0.0990
    1AU     LIG  357   7.830   6.532   6.817  0.0906 -0.2720  0.0515
    1AU     LIG  358   7.856   6.384   7.375 -0.1941 -0.2205  0.3041
    1AU     LIG  359   7.767   6.599   7.732 -0.0336 -0.0729 -0.0976
    1AU     LIG  360   7.622   6.567   8.140 -0.1558  0.2677  0.2951
    1AU     LIG  361   7.723   6.484   8.560  0.0283 -0.3408  0.3266
    1AU    AUSL  362   6.323   7.851   6.811  0.0585 -0.0328  0.0581
    1AU    AUSL  363   6.513   8.019   6.457 -0.1057  0.0589 -0.1013
    1AU     AUL  364   6.295   8.206   6.401  0.0862  0.0563  0.1208
    1AU       S  365   6.361   7.761   6.301 -0.2497  0.0769 -0.3951
    1AU     LIG  366   5.870   7.834   6.137  0.2642 -0.1266 -0.3347
    1AU     LIG  367   5.623   7.952   6.479 -0.0647 -0.0204 -0.3386
    1AU     LIG  368   5.159   7.875   6.643 -0.3307  0.2783  0.1978
    1AU     LIG  369   4.767   7.931   6.886  0.0201  0.0214  0.1957
    1AU     LIG  370   4.383   7.781   6.975 -0.0260  0.0076  0.8243
    1AU     LIG  371   4.230   7.339   6.956  0.4591  0.2310 -0.2743
    1AU       S  372   6.054   7.956   6.695  0.2438  0.0537  0.0371
    1AU     LIG  373   5.711   7.678   6.923 -0.0513 -0.3411  0.0842
    1AU     LIG  374   5.383   7.489   6.765  0.2426 -0.1150 -0.0238
    1AU     LIG  375   5.140   7.208   6.600  0.1250  0.3053  0.1075
    1AU     LIG  376   4.974   7.095   6.235  0.3867 -0.0273  0.0395
    1AU     LIG  377   4.941   6.863   5.909 -0.1207 -0.0070  0.0961
    1AU     LIG  378   4.798   6.530   5.656  0.1098  0.1431 -0.1438
    1AU    AUSL  379   6.509   8.132   7.057  0.0439  0.0652 -0.0572
    1AU    AUSL  380   6.500   7.718   7.167 -0.0216 -0.0566  0.0849
    1AU     AUL  381   6.190   7.954   7.161 -0.0423 -0.0369 -0.0184
    1AU       S  382   6.125   7.526   7.375 -0.4944 -0.2893  0.2332
    1AU     LIG  383   5.673   7.327   7.275 -0.1909  0.0022  0.2619
    1AU     LIG  384   5.285   7.207   7.164 -0.0141  0.1697  0.1845
    1AU     LIG  385   5.176   6.709   7.143  0.0756  0.2258 -0.2371
    1AU     LIG  386   5.164   6.275   7.181 -0.0887  0.2237 -0.4140
    1AU     LIG  387   4.872   5.985   7.031  0.1801  0.3287 -0.1956
    1AU     LIG  388   5.045   5.578   6.760  0.0903 -0.1412 -0.1104
    1AU       S  389   5.969   8.155   6.838  0.0515  0.0381 -0.0256
    1AU     LIG  390   5.522   8.153   6.996 -0.0120 -0.2874 -0.2437
    1AU     LIG  391   5.106   8.191   7.220  0.1406 -0.2511 -0.0799
    1AU     LIG  392   4.799   8.292   7.328 -0.0242  0.0076  0.1174
    1AU     LIG  393   4.488   8.117   7.322  0.3762  0.4578 -0.2725
    1AU     LIG  394   4.005   7.935   7.314 -0.1006 -0.5712 -0.0115
    1AU     LIG  395   3.632   8.050   7.591  0.0974  0.2739  0.3308
    1AU    AUSL  396   7.212   8.704   7.700 -0.0156  0.0548  0.0328
    1AU    AUSL  397   6.915   8.643   7.316  0.1137 -0.0194 -0.0289
    1AU     AUL  398   6.938   8.855   7.758 -0.0841 -0.0095 -0.0186
    1AU       S  399   6.461   8.690   7.788  0.2659 -0.2266 -0.3440
    1AU     LIG  400   6.051   8.562   8.089  0.1344 -0.0044 -0.1850
    1AU     LIG  401   5.574   8.366   7.964  0.1941  0.0661  0.1257
    1AU     LIG  402   5.492   8.133   7.685 -0.1422  0.1549 -0.1591
    1AU     LIG  403   5.132   7.974   7.662  0.3462 -0.2413 -0.2776
    1AU     LIG  404   4.724   8.133   7.790  0.1888  0.1495  0.0541
    1AU     LIG  405   4.533   8.427   7.748  0.1878 -0.4588 -0.2117
    1AU       S  406   7.333   9.090   7.784 -0.1668 -0.0584  0.3549
    1AU     LIG  407   7.685   9.288   7.976  0.3488 -0.2820  0.0036
    1AU     LIG  408   8.137   9.330   7.887 -0.1206  0.1761 -0.0839
    1AU     LIG  409   8.486   9.577   7.791 -0.3174 -0.3074 -0.0073
    1AU     LIG  410   8.942   9.394   7.817 -0.0035 -0.0794 -0.0258
    1AU     LIG  411   9.386   9.101   7.774 -0.4724 -0.0010  0.0533
    1AU     LIG  412   9.543   8.664   7.646 -0.0939 -0.0027  0.1650
    1AU    AUSL  413   7.063   9.017   7.325  0.0318 -0.0256 -0.0123
    1AU    AUSL  414   7.565   8.908   6.990 -0.0811  0.0119 -0.0102
    1AU     AUL  415   7.279   9.203   7.169  0.0333  0.0513  0.0853
    1AU       S  416   7.316   9.195   7.630  0.1191  0.2958  0.0165
    1AU     LIG  417   7.407   9.588   7.614  0.1846 -0.3109 -0.2573
    1AU     LIG  418   7.292  10.061   7.467 -0.2437  0.1658 -0.2073
    1AU     LIG  419   7.031  10.237   7.137  0.3960 -0.6024  0.4390
    1AU     LIG  420   6.589  10.174   7.072 -0.0492  0.1891  0.2395
    1AU     LIG  421   6.296   9.982   7.119 -0.1347 -0.0833 -0.0186
    1AU     LIG  422   6.035   9.891   7.490  0.2414  0.3433  0.0807
    1AU       S  423   7.702   9.212   6.935  0.1900  0.4167  0.1630
    1AU     LIG  424   7.988   9.439   6.919 -0.1626  0.1100 -0.2540
    1AU     LIG  425   8.335   9.395   7.035  0.2225  0.0067 -0.0314
    1AU     LIG  426   8.469   9.200   7.426  0.3139 -0.1258  0.0706
    1AU     LIG  427   8.609   9.003   7.727  0.1243 -0.1341  0.1764
    1AU     LIG  428   8.956   8.795   7.750  0.2056 -0.3311 -0.1814
    1AU     LIG  429   9.200   8.649   7.990  0.2624  0.2074 -0.0457
    1AU    AUSL  430   7.421   8.749   7.346 -0.0469 -0.0273  0.0389
    1AU    AUSL  431   7.272   8.334   7.511 -0.0202 -0.0133 -0.0186
    1AU     AUL  432   7.506   8.677   7.767 -0.0869  0.0994 -0.0224
    1AU       S  433   7.788   8.300   7.952 -0.0178  0.2181  0.1261
    1AU     LIG  434   7.874   8.433   8.318  0.1672 -0.5319  0.0600
    1AU     LIG  435   7.615   8.726   8.389  0.4868  0.3120  0.1289
    1AU     LIG  436   7.418   9.196   8.404 -0.1169  0.2139  0.0579
    1AU     LIG  437   7.173   9.380   8.118  0.0335 -0.1035 -0.3406
    1AU     LIG  438   6.868   9.479   7.721  0.3511  0.0818  0.0626
    1AU     LIG  439   6.666   9.688   7.396 -0.0108 -0.1398 -0.2483
    1AU       S  440   7.539   9.016   7.471 -0.3933  0.1331 -0.2051
    1AU     LIG  441   7.850   9.386   7.436 -0.0989  0.0479  0.4663
    1AU     LIG  442   8.166   9.744   7.423  0.2291  0.4093 -0.2578
    1AU     LIG  443   8.349  10.081   7.666  0.2027  0.3672  0.3894
    1AU     LIG  444   8.398  10.255   8.104  0.1728 -0.1680  0.0337
    1AU     LIG  445   8.662  10.553   8.052 -0.5435  0.0293 -0.0655
    1AU     LIG  446   8.819  10.862   8.347 -0.2438  0.3262 -0.1728
    1AU    AUSL  447   6.869   7.532   7.331 -0.0546 -0.0124  0.0051
    1AU    AUSL  448   7.270   7.605   7.209  0.0818  0.0552  0.0102
    1AU     AUL  449   6.984   7.345   7.555  0.0587  0.0294 -0.0444
    1AU       S  450   6.824   6.952   7.334 -0.1249 -0.0704 -0.0036
    1AU     LIG  451   6.988   6.555   7.458  0.0208  0.3144 -0.2887
    1AU     LIG  452   7.014   6.245   7.290  0.0451 -0.0170 -0.1564
    1AU     LIG  453   6.864   5.868   7.217  0.1405  0.0117 -0.1404
    1AU     LIG  454   6.802   5.415   7.160 -0.0485 -0.2226  0.1226
    1AU     LIG  455   7.116   5.148   6.957  0.0209 -0.1709 -0.0013
    1AU     LIG  456   7.099   4.636   6.969  0.1849 -0.1767 -0.1576
    1AU       S  457   7.427   7.169   7.439 -0.0492 -0.2648 -0.3691
    1AU     LIG  458   7.483   6.688   7.319 -0.1402 -0.0179 -0.1702
    1AU     LIG  459   7.443   6.339   7.067  0.4254  0.1377  0.0455
    1AU     LIG  460   7.203   6.026   6.908 -0.1826  0.1929  0.2366
    1AU     LIG  461   7.139   5.606   6.756 -0.1190 -0.0910  0.0721
    1AU     LIG  462   7.096   5.247   6.433 -0.0259 -0.1208 -0.3080
    1AU     LIG  463   6.747   4.956   6.142 -0.1276 -0.3407 -0.2029
    1AU    AUSL  464   6.701   7.403   6.983  0.0445  0.0092 -0.0288
    1AU    AUSL  465   6.565   7.659   7.580  0.1000 -0.0198 -0.0152
    1AU     AUL  466   6.540   7.372   7.264 -0.0037  0.0671 -0.0698
    1AU       S  467   6.700   6.931   7.225 -0.1624 -0.2362 -0.2207
    1AU     LIG  468   6.534   6.531   7.105 -0.2462  0.1411  0.2829
    1AU     LIG  469   6.473   6.100   7.041  0.3803  0.3410 -0.1248
    1AU     LIG  470   6.439   5.671   6.931 -0.1853 -0.1290  0.0858
    1AU     LIG  471   6.262   5.363   7.118  0.3006  0.1926  0.0339
    1AU     LIG  472   6.302   5.031   7.338  0.2065  0.6797 -0.1600
    1AU     LIG  473   6.100   4.642   7.393  0.1231 -0.0576 -0.4749
    1AU       S  474   6.249   7.591   7.609 -0.0985  0.0153  0.3173
    1AU     LIG  475   5.857   7.315   7.721  0.0104  0.1075  0.0142
    1AU     LIG  476   5.459   7.028   7.668 -0.0837  0.0821  0.0183
    1AU     LIG  477   5.131   6.919   7.564  0.4891 -0.3487  0.0597
    1AU     LIG  478   4.787   6.614   7.481 -0.0127  0.0384 -0.0796
    1AU     LIG  479   4.787   6.170   7.520  0.0197 -0.0755  0.0408
    1AU     LIG  480   4.642   5.716   7.744  0.3026 -0.1718 -0.1541
    1AU    AUSL  481   7.112   7.241   7.085 -0.1001  0.0318  0.0030
    1AU    AUSL  482   6.733   7.462   6.571  0.0185  0.0130 -0.0401
    1AU     AUL  483   6.802   7.175   6.842 -0.0967  0.0076 -0.0020
    1AU       S  484   6.592   7.219   6.436 -0.0696  0.0046  0.0827
    1AU     LIG  485   6.261   6.937   6.495 -0.1515  0.0475  0.1497
    1AU     LIG  486   6.093   6.681   6.935  0.1263  0.0389  0.0361
    1AU     LIG  487   5.762   6.685   7.219 -0.0259 -0.1124  0.0060
    1AU     LIG  488   5.511   6.580   7.471 -0.1517 -0.1177 -0.0358
    1AU     LIG  489   5.256   6.353   7.712 -0.2013 -0.0781  0.1372
    1AU     LIG  490   5.202   6.070   7.954  0.0726  0.2319  0.1383
    1AU       S  491   7.050   7.029   7.191  0.2100  0.0779  0.2399
    1AU     LIG  492   7.016   6.621   6.945 -0.3880 -0.4807 -0.0085
    1AU     LIG  493   6.847   6.364   6.721 -0.1692  0.0438  0.1589
    1AU     LIG  494   6.703   5.936   6.545 -0.2382 -0.4100  0.0255
    1AU     LIG  495   6.726   5.515   6.546 -0.1539  0.2800  0.2848
    1AU     LIG  496   6.633   5.075   6.764 -0.0987 -0.2988 -0.0935
    1AU     LIG  497   6.662   4.699   6.617 -0.0831  0.1647  0.3517
    1AU    AUSL  498   7.322   8.867   6.598  0.0275  0.0821  0.0105
    1AU    AUSL  499   7.540   8.503   6.947  0.0276 -0.0029 -0.0938
    1AU     AUL  500   7.673   8.820   6.705  0.0303  0.0161  0.1010
    1AU       S  501   7.481   9.250   6.527 -0.6027 -0.2952 -0.2824
    1AU     LIG  502   7.133   9.593   6.444 -0.0943  0.0030  0.0609
    1AU     LIG  503   6.733   9.602   6.185 -0.1824  0.2427  0.0464
    1AU     LIG  504   6.303   9.565   6.313 -0.4116 -0.1362  0.0979
    1AU     LIG  505   5.962   9.722   6.571 -0.3055 -0.1520 -0.2751
    1AU     LIG  506   5.826  10.098   6.720 -0.2545 -0.3661 -0.1284
    1AU     LIG  507   6.029  10.363   6.999  0.1062  0.0650 -0.4064
    1AU       S  508   8.052   8.491   6.726  0.2270  0.0158 -0.1030
    1AU     LIG  509   8.604   8.717   6.861  0.2256 -0.0133 -0.0378
    1AU     LIG  510   8.829   9.044   6.658 -0.0608 -0.1986 -0.2305
    1AU     LIG  511   8.815   9.390   6.961  0.1966 -0.3693  0.3327
    1AU     LIG  512   8.701   9.663   7.324  0.1459  0.2596  0.2573
    1AU     LIG  513   8.937   9.836   7.524  0.1878 -0.0462  0.0461
    1AU     LIG  514   8.811  10.067   7.873 -0.2329 -0.0907  0.0665
    1AU    AUSL  515   7.181   8.796   6.991 -0.0103  0.0282 -0.0027
    1AU    AUSL  516   7.034   8.584   6.654 -0.0192 -0.0731  0.0125
    1AU     AUL  517   7.110   9.065   6.761 -0.0462 -0.0719 -0.0189
    1AU       S  518   7.538   9.268   6.802  0.4219  0.0682  0.0036
    1AU     LIG  519   7.647   9.710   6.677  0.3213 -0.1986  0.0689
    1AU     LIG  520   7.624  10.169   6.769 -0.3054  0.3970  0.2048
    1AU     LIG  521   7.351  10.469   6.807  0.0484 -0.2493 -0.1263
    1AU     LIG  522   7.049  10.767   6.905 -0.0296  0.2751  0.0073
    1AU     LIG  523   6.739  11.082   6.870 -0.2113  0.2199  0.0295
    1AU     LIG  524   6.449  11.338   7.076 -0.0242 -0.1153  0.0965
    1AU       S  525   6.946   8.975   6.323  0.0585 -0.0478 -0.3479
    1AU     LIG  526   7.272   9.216   6.057  0.0593  0.0932 -0.0671
    1AU     LIG  527   7.114   9.665   5.890 -0.1767 -0.2762  0.4047
    1AU     LIG  528   7.030   9.978   5.585 -0.4356  0.0057 -0.0404
    1AU     LIG  529   7.314  10.120   5.289  0.2652  0.0744 -0.2355
    1AU     LIG  530   7.606   9.970   5.136 -0.0013 -0.1343 -0.1652
    1AU     LIG  531   8.013  10.189   5.081 -0.3540 -0.0140  0.0906
    1AU    AUSL  532   7.150   7.516   6.390 -0.0303 -0.0041 -0.0030
    1AU    AUSL  533   6.722   7.817   6.761  0.0203  0.0197 -0.0332
    1AU     AUL  534   6.802   7.615   6.302 -0.0167  0.0392  0.0010
    1AU       S  535   6.313   7.600   6.396 -0.4241  0.2908 -0.0570
    1AU     LIG  536   5.874   7.454   6.495  0.0218  0.1902 -0.2372
    1AU     LIG  537   5.799   7.084   6.653  0.2398  0.4633 -0.0991
    1AU     LIG  538   5.545   6.758   6.788 -0.4712  0.2104  0.1125
    1AU     LIG  539   5.587   6.388   6.876 -0.0940 -0.0478  0.3194
    1AU     LIG  540   5.683   6.150   7.184  0.1816 -0.0906 -0.1177
    1AU     LIG  541   6.057   6.316   7.352 -0.2632  0.0065  0.2934
    1AU       S  542   6.959   7.179   6.258  0.2378 -0.0744  0.2024
    1AU     LIG  543   7.122   6.745   6.405  0.2676 -0.1756 -0.0526
    1AU     LIG  544   7.405   6.457   6.550 -0.1692 -0.2603 -0.0789
    1AU     LIG  545   7.642   6.105   6.619  0.1716  0.3184  0.1103
    1AU     LIG  546   7.679   5.945   7.041 -0.1666  0.1560  0.3075
    1AU     LIG  547   7.839   5.833   7.393  0.0558  0.0396  0.2880
    1AU     LIG  548   7.650   5.588   7.625  0.4559  0.1778 -0.2646
    1AU    AUSL  549   7.066   7.531   6.800  0.0071 -0.0006  0.0472
    1AU    AUSL  550   7.309   7.828   6.607  0.0736  0.0172 -0.0927
    1AU     AUL  551   7.236   7.315   6.591  0.0865 -0.0674 -0.0370
    1AU       S  552   6.842   7.145   6.392  0.2313  0.2752  0.1674
    1AU     LIG  553   6.646   6.658   6.396  0.2107 -0.1491 -0.1746
    1AU     LIG  554   6.366   6.370   6.642 -0.1220  0.0352  0.0799
    1AU     LIG  555   6.029   6.096   6.666 -0.0012  0.1529 -0.2193
    1AU     LIG  556   5.975   5.830   6.992  0.1247  0.2976 -0.0538
    1AU     LIG  557   5.657   5.676   7.273 -0.1071  0.0065 -0.1629
    1AU     LIG  558   5.486   5.856   7.580  0.1921 -0.1845  0.1947
    1AU       S  559   7.614   7.430   6.265 -0.0462  0.1693 -0.0988
    1AU     LIG  560   7.506   6.990   6.076 -0.3238 -0.0277 -0.1039
    1AU     LIG  561   7.629   6.524   6.023 -0.2589 -0.1611 -0.0561
    1AU     LIG  562   7.945   6.262   6.258 -0.1122 -0.0388 -0.1563
    1AU     LIG  563   8.240   5.989   6.581  0.1765 -0.4033  0.0828
    1AU     LIG  564   8.577   5.956   6.700 -0.0301 -0.1854  0.0063
    1AU     LIG  565   9.104   5.857   6.856 -0.2212 -0.1237  0.4769
    2POPC   NC3  566   3.745   0.323   9.171  0.4039  0.2827  0.0425
    2POPC   PO4  567   4.088   0.368   9.525  0.2213  0.1647  0.0493
    2POPC   GL1  568   4.366   0.418   9.219  0.0852 -0.2717 -0.0415
    2POPC   GL2  569   4.276   0.676   9.182 -0.2385  0.0668  0.0291
    2POPC   C1A  570   4.419  -0.033   8.996  0.0988  0.3309 -0.0402
    2POPC   D2A  571   4.344  -0.337   8.657  0.0414 -0.0430 -0.0206
    2POPC   C3A  572   4.033  -0.168   8.418  0.0497  0.0548 -0.0572
    2POPC   C4A  573   3.764  -0.239   8.085  0.0234 -0.2003  0.7196
    2POPC   C1B  574   4.333   1.027   8.894  0.6261  0.1048  0.1213
    2POPC   C2B  575   4.385   0.883   8.520 -0.2298 -0.1110 -0.1255
    2POPC   C3B  576   4.213   0.749   8.061  0.2241  0.1186 -0.0844
    2POPC   C4B  577   3.857   0.782   7.731 -0.0213 -0.0365 -0.0048
    3POPC   NC3  578   3.993   5.648   9.089 -0.1329 -0.2875  0.0325
    3POPC   PO4  579   4.084   5.995   9.188 -0.1837 -0.2614  0.0477
    3POPC   GL1  580   3.992   6.028   8.723  0.3455  0.1537 -0.2389
    3POPC   GL2  581   4.060   6.264   8.591  0.2112  0.0327  0.4409
    3POPC   C1A  582   3.889   6.140   8.159  0.0026 -0.1474  0.0910
    3POPC   D2A  583   3.922   6.417   7.808  0.1041 -0.0318  0.2685
    3POPC   C3A  584   3.934   6.262   7.414 -0.1614  0.2202  0.0360
    3POPC   C4A  585   3.921   6.375   6.943  0.2294 -0.0834  0.0206
    3POPC   C1B  586   4.197   6.564   8.319 -0.1736 -0.0241  0.0301
    3POPC   C2B  587   4.017   6.886   7.993  0.0385  0.1127 -0.0935
    3POPC   C3B  588   3.870   7.148   7.825 -0.1572 -0.1742 -0.0327
    3POPC   C4B  589   3.445   7.288   7.961 -0.3190  0.0090 -0.1283
    4POPC   NC3  590   3.062   8.288   9.474 -0.3031  0.0011  0.1346
    4POPC   PO4  591   3.154   7.840   9.456 -0.1481 -0.4539  0.1974
    4POPC   GL1  592   3.265   7.742   9.073  0.0687 -0.0888  0.0854
    4POPC   GL2  593   3.423   8.053   8.971  0.1175  0.2252 -0.1279
    4POPC   C1A  594   3.273   7.637   8.708  0.0171  0.0895  0.0330
    4POPC   D2A  595   3.610   7.533   8.622  0.0685  0.0703  0.3504
    4POPC   C3A  596   3.955   7.773   8.669  0.0864  0.1999  0.0207
    4POPC   C4A  597   4.103   8.251   8.700  0.0837  0.0360  0.1218
    4POPC   C1B  598   3.470   8.045   8.486 -0.2035 -0.0563 -0.3529
    4POPC   C2B  599   3.515   7.761   8.205 -0.0801 -0.3434  0.0078
    4POPC   C3B  600   3.825   7.620   7.851 -0.1924  0.1433 -0.3780
    4POPC   C4B  601   4.104   7.453   7.513  0.1647 -0.1946 -0.1929
    5POPC   NC3  602   5.564   4.360   9.457  0.1600  0.1955  0.0386
    5POPC   PO4  603   5.142   4.206   9.471 -0.1736 -0.1309  0.1189
    5POPC   GL1  604   5.219   4.067   9.023 -0.2046 -0.1282  0.0108
    5POPC   GL2  605   5.150   4.402   8.978 -0.1106  0.1739 -0.1221
    5POPC   C1A  606   5.406   4.080   8.667 -0.0560  0.0353 -0.1177
    5POPC   D2A  607   5.233   4.272   8.289 -0.1116  0.0902 -0.3295
    5POPC   C3A  608   5.397   4.038   7.945  0.2134 -0.2641  0.3489
    5POPC   C4A  609   5.571   3.781   7.541 -0.1065 -0.1392  0.1579
    5POPC   C1B  610   5.035   4.648   8.629  0.3858  0.0370  0.0306
    5POPC   C2B  611   4.940   4.950   8.249 -0.1009 -0.2097 -0.1892
    5POPC   C3B  612   4.874   5.043   7.862  0.0407  0.0492 -0.2483
    5POPC   C4B  613   4.810   5.187   7.492  0.1190 -0.0139  0.0970
    6POPC   NC3  614   6.165   5.144   9.515 -0.0964 -0.0831 -0.1016
    6POPC   PO4  615   5.934   5.465   9.301 -0.0206  0.0053  0.1933
    6POPC   GL1  616   6.292   5.606   9.003 -0.1437  0.0314 -0.0806
    6POPC   GL2  617   6.157   5.404   8.762 -0.0936 -0.0067 -0.1448
    6POPC   C1A  618   6.113   5.943   8.778 -0.0716  0.1879  0.0058
    6POPC   D2A  619   5.895   6.252   8.586  0.0189 -0.0864 -0.1257
    6POPC   C3A  620   5.460   6.126   8.545 -0.2660 -0.1719 -0.0079
    6POPC   C4A  621   5.138   5.841   8.385 -0.1533  0.2475  0.0638
    6POPC   C1B  622   6.313   5.645   8.391 -0.0876 -0.0863 -0.0462
    6POPC   C2B  623   6.129   5.831   8.138  0.0310 -0.0812  0.0727
    6POPC   C3B  624   6.287   6.191   7.880  0.1947 -0.2936  0.2202
    6POPC   C4B  625   6.393   6.601   7.615 -0.3353  0.1695 -0.0533
    7POPC   NC3  626   6.857   4.904   9.004 -0.1253  0.1187 -0.0703
    7POPC   PO4  627   6.506   4.629   8.804 -0.1581  0.0084  0.1689
    7POPC   GL1  628   6.680   4.893   8.525  0.0638  0.0701 -0.1329
    7POPC   GL2  629   6.956   4.830   8.335  0.0675  0.0608 -0.1782
    7POPC   C1A  630   6.471   5.146   8.269 -0.2186 -0.1217 -0.0194
    7POPC   D2A  631   6.391   5.151   7.845 -0.0666  0.0138  0.1810
    7POPC   C3A  632   6.396   4.777   7.795 -0.1812  0.0756  0.2095
    7POPC   C4A  633   6.730   4.471   7.904  0.0982 -0.2326  0.4284
    7POPC   C1B  634   6.987   5.325   8.190 -0.0290 -0.0203 -0.1625
    7POPC   C2B  635   6.722   5.563   8.143 -0.1466  0.0186  0.0451
    7POPC   C3B  636   6.446   5.686   7.733  0.1077  0.0402  0.1873
    7POPC   C4B  637   6.105   5.809   7.593 -0.0760 -0.2399 -0.1155
    8POPC   NC3  638   3.269   4.415   9.691 -0.1465 -0.0391  0.0779
    8POPC   PO4  639   2.856   4.177   9.466  0.1732  0.2742 -0.1044
    8POPC   GL1  640   2.812   4.206   9.000 -0.2287 -0.1011 -0.2598
    8POPC   GL2  641   2.732   3.921   8.721 -0.0718  0.0300 -0.2561
    8POPC   C1A  642   3.148   4.323   8.811  0.1616  0.0857  0.1401
    8POPC   D2A  643   3.319   4.540   8.453 -0.2389 -0.1976 -0.1744
    8POPC   C3A  644   3.477   4.390   8.124  0.0375 -0.1261  0.0368
    8POPC   C4A  645   3.781   4.082   7.958 -0.1973 -0.0423 -0.0860
    8POPC   C1B  646   2.896   4.268   8.416 -0.1228  0.2634  0.0270
    8POPC   C2B  647   2.951   4.477   8.065 -0.1267 -0.2413  0.2788
    8POPC   C3B  648   3.078   4.800   7.793 -0.0495 -0.0785 -0.0363
    8POPC   C4B  649   3.270   4.936   7.271 -0.1851  0.1314 -0.2362
    9POPC   NC3  650   3.527   5.449   9.244 -0.2697  0.5257 -0.1618
    9POPC   PO4  651   3.237   5.144   8.981  0.0909 -0.1143 -0.2179
    9POPC   GL1  652   3.177   5.054   8.596 -0.0402 -0.1311 -0.1464
    9POPC   GL2  653   2.983   5.297   8.477  0.0701  0.3663 -0.3384
    9POPC   C1A  654   3.328   4.985   8.214 -0.0973  0.2658  0.0053
    9POPC   D2A  655   3.617   4.760   7.881 -0.1744  0.0026  0.3150
    9POPC   C3A  656   3.910   4.852   7.629  0.2352  0.1867  0.0135
    9POPC   C4A  657   4.012   4.697   7.190 -0.0325 -0.0630 -0.1371
    9POPC   C1B  658   2.525   5.448   8.353 -0.3674 -0.1540 -0.2168
    9POPC   C2B  659   2.278   5.451   8.108  0.1451  0.1835 -0.2759
    9POPC   C3B  660   2.176   5.444   7.725  0.2719 -0.1846 -0.0363
    9POPC   C4B  661   2.328   5.300   7.333 -0.2919  0.1974 -0.0459
   10POPC   NC3  662   6.699   5.954   9.862  0.3089  0.0156 -0.1834
   10POPC   PO4  663   6.245   6.054   9.809  0.3196  0.0222 -0.0554
   10POPC   GL1  664   6.492   6.163   9.501 -0.1345  0.0735  0.1423
   10POPC   GL2  665   6.696   6.448   9.568  0.1687 -0.1668  0.1793
   10POPC   C1A  666   6.536   6.063   9.098 -0.0764  0.0099 -0.1256
   10POPC   D2A  667   6.717   5.931   8.685  0.2512 -0.3236 -0.0432
   10POPC   C3A  668   6.629   6.084   8.276  0.1945 -0.0534  0.2286
   10POPC   C4A  669   6.840   6.362   8.000 -0.2098 -0.2399  0.1109
   10POPC   C1B  670   6.629   6.758   9.207  0.5770  0.1448 -0.0146
   10POPC   C2B  671   6.845   6.963   8.871  0.2352 -0.3449  0.4013
   10POPC   C3B  672   7.109   7.052   8.439 -0.1078  0.0284  0.3355
   10POPC   C4B  673   7.571   7.035   8.315  0.0940  0.0133 -0.1958
   11POPC   NC3  674   2.291   8.542   9.708 -0.2407 -0.0001 -0.1126
   11POPC   PO4  675   2.174   8.628   9.314 -0.1405 -0.0409  0.1411
   11POPC   GL1  676   2.370   8.599   8.983 -0.1335  0.1105  0.3058
   11POPC   GL2  677   2.468   8.909   8.996 -0.1294 -0.1246 -0.1832
   11POPC   C1A  678   2.262   8.471   8.586 -0.2638  0.0895  0.2721
   11POPC   D2A  679   2.118   8.293   8.244  0.2256  0.1369  0.1761
   11POPC   C3A  680   2.138   8.211   7.849 -0.0640 -0.0267  0.3009
   11POPC   C4A  681   2.399   7.941   7.637  0.3089  0.1956 -0.0963
   11POPC   C1B  682   2.666   8.848   8.611 -0.1103 -0.0386  0.0756
   11POPC   C2B  683   2.843   8.937   8.193  0.0209  0.0793 -0.1936
   11POPC   C3B  684   2.542   8.832   7.810 -0.2679  0.0480  0.0652
   11POPC   C4B  685   2.127   8.734   7.982 -0.2065  0.2438  0.3898
   12POPC   NC3  686   4.806   2.810   9.128  0.1900 -0.2280  0.1245
   12POPC   PO4  687   4.944   2.434   9.049 -0.4560 -0.1045 -0.0638
   12POPC   GL1  688   4.825   2.363   8.578  0.2926 -0.1382  0.1276
   12POPC   GL2  689   5.116   2.156   8.620  0.1086  0.1505  0.4450
   12POPC   C1A  690   4.902   2.497   8.110  0.0452  0.0810 -0.1771
   12POPC   D2A  691   4.972   2.850   7.853 -0.0263 -0.0075 -0.3915
   12POPC   C3A  692   4.679   3.067   7.608  0.0880  0.0165 -0.2384
   12POPC   C4A  693   4.509   3.506   7.400 -0.2544 -0.2754  0.2010
   12POPC   C1B  694   5.041   2.044   8.147  0.0381  0.0443  0.0861
   12POPC   C2B  695   4.924   1.766   7.763  0.3966  0.0730 -0.1682
   12POPC   C3B  696   5.169   1.366   7.628 -0.1361 -0.1262 -0.2202
   12POPC   C4B  697   5.297   1.229   7.207  0.0635  0.1219 -0.0452
   13POPC   NC3  698   2.133   0.234   9.356  0.2261 -0.1096 -0.0189
   13POPC   PO4  699   2.378   0.547   9.069  0.0271  0.3885 -0.3397
   13POPC   GL1  700   2.550   0.732   8.750 -0.0928  0.4759  0.0894
   13POPC   GL2  701   2.366   1.031   8.782 -0.1384 -0.1123 -0.2269
   13POPC   C1A  702   2.454   0.890   8.279 -0.1637  0.2742 -0.0620
   13POPC   D2A  703   2.319   0.652   7.928 -0.0325 -0.1547  0.3352
   13POPC   C3A  704   2.088   0.864   7.660 -0.0614  0.0033 -0.0234
   13POPC   C4A  705   1.767   0.821   7.263 -0.1611 -0.1864 -0.0277
   13POPC   C1B  706   2.047   0.848   8.568 -0.0015  0.0835  0.0827
   13POPC   C2B  707   1.757   0.665   8.290 -0.0581 -0.0903 -0.2206
   13POPC   C3B  708   1.652   0.702   7.784  0.0580  0.0611  0.0741
   13POPC   C4B  709   1.326   0.779   7.455  0.2188  0.0326 -0.2216
   14POPC   NC3  710   8.522   1.357   9.162 -0.0544  0.0451 -0.0775
   14POPC   PO4  711   8.414   1.809   9.103 -0.0105  0.3653  0.1218
   14POPC   GL1  712   8.247   1.630   8.785 -0.1464 -0.1351  0.1119
   14POPC   GL2  713   8.128   1.844   8.614 -0.1892 -0.0780  0.0971
   14POPC   C1A  714   8.504   1.496   8.499  0.0386 -0.1753  0.2457
   14POPC   D2A  715   8.594   1.400   8.125  0.2295 -0.1180 -0.1440
   14POPC   C3A  716   8.849   1.145   8.021 -0.1007  0.0042  0.1028
   14POPC   C4A  717   8.789   0.771   7.759  0.2190  0.0120  0.0748
   14POPC   C1B  718   8.355   1.890   8.238 -0.1902 -0.3833 -0.1350
   14POPC   C2B  719   8.203   1.889   7.789  0.1101  0.1650 -0.1517
   14POPC   C3B  720   8.236   1.646   7.438 -0.0699  0.1797  0.0076
   14POPC   C4B  721   8.499   1.839   7.143 -0.0210 -0.2605 -0.0311
   15POPC   NC3  722   1.595   7.920   9.350  0.2689 -0.2297 -0.0307
   15POPC   PO4  723   1.590   7.557   9.324  0.1313 -0.2820  0.1215
   15POPC   GL1  724   1.716   7.250   8.987 -0.1029  0.1981  0.1364
   15POPC   GL2  725   1.435   7.335   8.762  0.2297 -0.3255  0.1775
   15POPC   C1A  726   1.804   6.864   8.686 -0.1118 -0.2671  0.2095
   15POPC   D2A  727   1.875   6.675   8.281 -0.0675 -0.0623 -0.1179
   15POPC   C3A  728   1.526   6.830   7.930  0.0439  0.2283  0.0186
   15POPC   C4A  729   1.311   7.285   7.877 -0.0214 -0.1791  0.1655
   15POPC   C1B  730   1.503   7.148   8.328 -0.4218 -0.1305  0.1306
   15POPC   C2B  731   1.839   7.225   7.897  0.0212  0.2012  0.2067
   15POPC   C3B  732   1.724   7.366   7.432 -0.3702 -0.1335  0.2668
   15POPC   C4B  733   1.533   7.617   7.195  0.1174 -0.0571 -0.0754
   16POPC   NC3  734   9.455   2.763   8.932 -0.0753 -0.0379  0.0557
   16POPC   PO4  735   9.766   2.463   9.077  0.1283 -0.0956 -0.1454
   16POPC   GL1  736   9.970   2.492   8.716 -0.0276 -0.2800  0.2426
   16POPC   GL2  737  10.234   2.298   8.857  0.2053  0.3411 -0.3596
   16POPC   C1A  738  10.018   2.481   8.216 -0.0154 -0.0245  0.1320
   16POPC   D2A  739  10.246   2.452   7.846  0.2155  0.1982 -0.2158
   16POPC   C3A  740  10.284   2.321   7.441  0.1789  0.3889  0.2647
   16POPC   C4A  741   9.841   2.182   7.275  0.1278 -0.0193  0.0879
   16POPC   C1B  742   9.812   2.132   8.440  0.2125  0.1632 -0.2006
   16POPC   C2B  743   9.580   1.977   8.158 -0.1004  0.0616  0.0740
   16POPC   C3B  744   9.341   1.994   7.895 -0.1842 -0.1028 -0.1559
   16POPC   C4B  745   9.312   2.048   7.427  0.0938  0.0837 -0.0642
   17POPC   NC3  746   4.819   6.315   9.597 -0.2947  0.1384  0.0790
   17POPC   PO4  747   4.958   6.767   9.426 -0.2217  0.1956 -0.1429
   17POPC   GL1  748   4.977   6.682   9.101 -0.4246  0.4572  0.0789
   17POPC   GL2  749   5.006   6.337   9.109  0.2179  0.2556 -0.3041
   17POPC   C1A  750   4.950   6.810   8.728  0.1229 -0.0241 -0.2836
   17POPC   D2A  751   5.239   7.123   8.499 -0.0786 -0.1531 -0.0371
   17POPC   C3A  752   5.147   7.149   8.081  0.4209  0.1871  0.0185
   17POPC   C4A  753   4.696   7.044   7.914  0.0329 -0.0393 -0.2987
   17POPC   C1B  754   5.233   5.944   8.951 -0.0406 -0.1446 -0.1086
   17POPC   C2B  755   5.654   5.661   8.697 -0.1712 -0.3916  0.4130
   17POPC   C3B  756   5.791   5.403   8.367 -0.3048  0.0507  0.4849
   17POPC   C4B  757   5.991   5.366   8.012  0.4156 -0.2387 -0.0572
   18POPC   NC3  758   9.991   4.807   9.044  0.0950  0.0844 -0.0495
   18POPC   PO4  759  10.165   4.479   8.824  0.0229  0.1070 -0.1322
   18POPC   GL1  760  10.337   4.604   8.449 -0.1441  0.0294 -0.1290
   18POPC   GL2  761  10.227   4.901   8.255 -0.1436 -0.0536  0.2283
   18POPC   C1A  762  10.692   4.581   8.082  0.0171  0.1178 -0.2253
   18POPC   D2A  763  10.597   4.197   7.768 -0.1897  0.3702  0.0458
   18POPC   C3A  764  10.413   4.215   7.381 -0.0662  0.1798 -0.0459
   18POPC   C4A  765  10.296   4.018   7.003 -0.2099 -0.1267 -0.0428
   18POPC   C1B  766  10.184   4.625   7.811 -0.1481 -0.4643 -0.2108
   18POPC   C2B  767  10.199   4.732   7.320  0.0631  0.3666  0.0618
   18POPC   C3B  768   9.860   5.032   7.096 -0.1666 -0.2833 -0.2803
   18POPC   C4B  769   9.455   4.859   7.064  0.0245 -0.1370 -0.0931
   19POPC   NC3  770   1.299   9.966   9.395 -0.1365  0.1103  0.1009
   19POPC   PO4  771   1.035   9.894   9.143  0.0529 -0.0955  0.0836
   19POPC   GL1  772   0.993  10.035   8.702  0.1209 -0.0305 -0.0874
   19POPC   GL2  773   0.636  10.185   8.701 -0.0699 -0.2597  0.0415
   19POPC   C1A  774   1.015   9.880   8.354  0.1034  0.0263  0.3009
   19POPC   D2A  775   1.253   9.939   8.008  0.2361 -0.3988  0.0521
   19POPC   C3A  776   1.730  10.035   7.942 -0.1200  0.2814 -0.2594
   19POPC   C4A  777   2.031  10.049   7.583  0.1742 -0.0764  0.0476
   19POPC   C1B  778   0.915  10.364   8.232 -0.3308  0.0493  0.1379
   19POPC   C2B  779   1.291  10.558   7.948  0.0259 -0.1865  0.1625
   19POPC   C3B  780   1.510  10.455   7.553  0.0600  0.0001  0.1143
   19POPC   C4B  781   1.370  10.089   7.273 -0.3207  0.0944 -0.0107
   20POPC   NC3  782   5.587   3.184   9.380 -0.2611  0.1054 -0.0822
   20POPC   PO4  783   5.874   3.428   9.054 -0.0678  0.0456 -0.0768
   20POPC   GL1  784   5.828   3.417   8.585 -0.1290 -0.1251  0.0510
   20POPC   GL2  785   6.024   3.560   8.229 -0.0051 -0.2557 -0.0665
   20POPC   C1A  786   5.833   3.096   8.200 -0.2871 -0.2265 -0.0113
   20POPC   D2A  787   5.974   2.769   7.846  0.1285 -0.0503  0.1282
   20POPC   C3A  788   6.334   2.553   7.666  0.0032 -0.1668  0.2054
   20POPC   C4A  789   6.633   2.447   7.816  0.2514 -0.0931 -0.0987
   20POPC   C1B  790   5.598   3.567   8.143  0.0469  0.1539  0.1606
   20POPC   C2B  791   5.343   3.539   7.915 -0.0247 -0.1375  0.0416
   20POPC   C3B  792   5.029   3.741   7.641 -0.1109 -0.3576 -0.0580
   20POPC   C4B  793   5.144   3.837   7.193 -0.2624 -0.0489  0.1119
   21POPC   NC3  794   5.570   2.039   9.145  0.0831  0.1299 -0.1414
   21POPC   PO4  795   5.988   2.242   8.885  0.0017  0.2816  0.0371
   21POPC   GL1  796   6.005   2.075   8.530  0.0068 -0.1421  0.1238
   21POPC   GL2  797   5.914   1.675   8.390 -0.1229 -0.3601  0.1372
   21POPC   C1A  798   6.404   2.124   8.229  0.1150  0.1876  0.1551
   21POPC   D2A  799   6.372   1.989   7.685  0.4717 -0.1689 -0.2037
   21POPC   C3A  800   6.639   2.210   7.404  0.0834  0.2859 -0.2944
   21POPC   C4A  801   7.109   2.289   7.476 -0.1711  0.0023  0.0170
   21POPC   C1B  802   5.970   1.783   7.965  0.2760 -0.2321  0.0334
   21POPC   C2B  803   6.129   1.568   7.664 -0.1457  0.2709  0.0073
   21POPC   C3B  804   6.157   1.110   7.541 -0.4141  0.0916 -0.0854
   21POPC   C4B  805   5.985   0.683   7.722 -0.0613 -0.1088  0.0117
   22POPC   NC3  806   7.964   2.070   8.997 -0.2097  0.0752 -0.1512
   22POPC   PO4  807   7.979   2.496   9.018 -0.0815  0.0923 -0.1344
   22POPC   GL1  808   8.001   2.273   8.529  0.0260 -0.4353 -0.2332
   22POPC   GL2  809   7.659   2.184   8.579 -0.3335 -0.1382 -0.2759
   22POPC   C1A  810   7.995   2.333   8.110 -0.2053  0.2004  0.0348
   22POPC   D2A  811   7.839   2.246   7.759 -0.1144 -0.1203 -0.1098
   22POPC   C3A  812   7.569   2.435   7.689  0.2034  0.1530 -0.1396
   22POPC   C4A  813   7.260   2.713   7.727  0.1893  0.0365  0.2441
   22POPC   C1B  814   7.747   1.868   8.156  0.0714 -0.0343  0.2142
   22POPC   C2B  815   7.735   1.526   7.834  0.1509 -0.2294 -0.0330
   22POPC   C3B  816   7.793   1.442   7.517 -0.3362  0.2479 -0.2400
   22POPC   C4B  817   7.696   1.274   7.092  0.2323 -0.3223  0.3370
   23POPC   NC3  818   3.318   8.977   9.854 -0.2114 -0.1070 -0.3918
   23POPC   PO4  819   3.252   8.799   9.395  0.0753 -0.2542 -0.1532
   23POPC   GL1  820   3.242   8.582   9.047 -0.4390  0.0570 -0.1379
   23POPC   GL2  821   3.543   8.529   8.811  0.1537  0.1885 -0.0195
   23POPC   C1A  822   2.867   8.521   8.895 -0.1264 -0.2557  0.2945
   23POPC   D2A  823   2.767   8.310   8.440 -0.0649  0.1071  0.1260
   23POPC   C3A  824   2.651   8.374   7.973  0.0644  0.1270 -0.0767
   23POPC   C4A  825   2.735   8.332   7.572  0.0395 -0.2242  0.0642
   23POPC   C1B  826   3.227   8.575   8.515  0.0625  0.2290  0.0902
   23POPC   C2B  827   3.210   8.274   8.074 -0.0128  0.1535 -0.3452
   23POPC   C3B  828   3.055   8.052   7.828  0.0137  0.1168  0.2946
   23POPC   C4B  829   3.295   7.695   7.721  0.1358  0.0923 -0.2433
   24POPC   NC3  830   2.700   3.266   9.795  0.3625 -0.1727  0.4265
   24POPC   PO4  831   2.539   3.449   9.262  0.0562 -0.2910  0.0530
   24POPC   GL1  832   2.359   3.552   8.898  0.0758  0.0073 -0.2162
   24POPC   GL2  833   2.398   3.231   8.667  0.2699 -0.1549 -0.3655
   24POPC   C1A  834   2.287   3.703   8.468 -0.0939  0.0141 -0.1927
   24POPC   D2A  835   1.940   3.929   8.449  0.1876 -0.2605  0.0437
   24POPC   C3A  836   1.898   4.021   8.051 -0.0475  0.0210 -0.0235
   24POPC   C4A  837   1.986   4.306   7.727 -0.1472 -0.1079 -0.2416
   24POPC   C1B  838   2.518   3.194   8.216 -0.3965  0.1968 -0.2455
   24POPC   C2B  839   2.719   3.151   7.821  0.2583 -0.3178 -0.1856
   24POPC   C3B  840   2.950   2.816   7.841 -0.1254 -0.0038  0.0813
   24POPC   C4B  841   3.320   2.489   7.817 -0.1145  0.0319 -0.0869
   25POPC   NC3  842   4.747   9.593   9.730  0.2544  0.0049 -0.0300
   25POPC   PO4  843   4.303   9.649   9.457  0.0565  0.1151 -0.1311
   25POPC   GL1  844   4.362   9.487   9.012 -0.3158  0.2783 -0.0316
   25POPC   GL2  845   4.062   9.358   8.694 -0.2102  0.0396 -0.3595
   25POPC   C1A  846   4.660   9.274   8.582 -0.0499  0.0678 -0.1083
   25POPC   D2A  847   4.572   9.233   8.180 -0.0011 -0.2603 -0.2182
   25POPC   C3A  848   4.674   9.548   7.876 -0.0102  0.1703  0.0290
   25POPC   C4A  849   4.875   9.791   7.645 -0.0583  0.2248  0.1435
   25POPC   C1B  850   4.077   9.102   8.312 -0.1083  0.2031  0.4111
   25POPC   C2B  851   4.127   8.766   8.018 -0.0682  0.0103 -0.1021
   25POPC   C3B  852   4.058   8.529   7.715 -0.0935  0.0900 -0.1066
   25POPC   C4B  853   3.732   8.509   7.427  0.1498  0.0725  0.0779
   26POPC   NC3  854   7.695   4.821   9.698 -0.1506  0.0962  0.3979
   26POPC   PO4  855   7.550   5.040   9.334  0.4339  0.0997  0.2882
   26POPC   GL1  856   7.446   5.213   8.884 -0.0267 -0.0355 -0.1665
   26POPC   GL2  857   7.150   5.306   8.746 -0.0456 -0.0473 -0.1817
   26POPC   C1A  858   7.417   5.049   8.432  0.1863  0.0906  0.0090
   26POPC   D2A  859   7.342   4.939   7.993  0.0530 -0.1553 -0.1397
   26POPC   C3A  860   6.980   4.929   7.751  0.2693 -0.2152  0.0131
   26POPC   C4A  861   6.854   4.952   7.354 -0.0520 -0.0282 -0.1100
   26POPC   C1B  862   7.122   5.706   8.464  0.0414  0.1780  0.2049
   26POPC   C2B  863   7.198   5.964   8.061 -0.2343  0.0562 -0.2425
   26POPC   C3B  864   6.902   5.952   7.785 -0.1197 -0.1867  0.0619
   26POPC   C4B  865   6.582   6.141   7.508  0.3390 -0.1358 -0.0575
   27POPC   NC3  866   4.504   0.668   9.624  0.0534  0.2157 -0.2757
   27POPC   PO4  867   4.908   0.788   9.619  0.0192 -0.0277  0.2764
   27POPC   GL1  868   4.873   0.439   9.401  0.0105  0.1015  0.1265
   27POPC   GL2  869   5.133   0.500   9.227 -0.2286 -0.0362 -0.2512
   27POPC   C1A  870   4.833   0.170   8.955 -0.1776  0.1869 -0.0382
   27POPC   D2A  871   4.767   0.034   8.605  0.1518 -0.1324 -0.0774
   27POPC   C3A  872   4.825   0.399   8.382 -0.0282 -0.1712  0.0009
   27POPC   C4A  873   4.658   0.504   7.976  0.1962 -0.2858 -0.0271
   27POPC   C1B  874   4.794   0.680   8.894  0.2958  0.1921  0.4191
   27POPC   C2B  875   4.460   0.457   8.765 -0.1876  0.0277  0.1872
   27POPC   C3B  876   4.283   0.337   8.406 -0.0680  0.1105  0.0026
   27POPC   C4B  877   4.131   0.118   7.991 -0.0131 -0.2617  0.0373
   28POPC   NC3  878   6.439   1.856   9.125 -0.1438  0.0320  0.1311
   28POPC   PO4  879   6.612   2.218   8.868 -0.1242  0.1024  0.0317
   28POPC   GL1  880   6.753   1.805   8.719 -0.1140 -0.0393 -0.2218
   28POPC   GL2  881   7.080   1.645   8.679 -0.0810  0.0418  0.0456
   28POPC   C1A  882   6.835   1.844   8.348 -0.1702 -0.0840  0.0413
   28POPC   D2A  883   6.829   2.052   7.943 -0.0887 -0.0040 -0.0848
   28POPC   C3A  884   6.895   1.786   7.559 -0.0479  0.0190 -0.2409
   28POPC   C4A  885   6.873   1.525   7.178  0.2766 -0.1159 -0.0611
   28POPC   C1B  886   7.016   1.415   8.221 -0.4771 -0.3113 -0.0513
   28POPC   C2B  887   7.128   1.412   7.853 -0.1761  0.0366  0.0136
   28POPC   C3B  888   7.249   1.457   7.438  0.0436 -0.0957  0.1915
   28POPC   C4B  889   7.168   1.184   6.976  0.0754 -0.1943  0.0539
   29POPC   NC3  890   6.668   6.853  10.272 -0.2180  0.0825 -0.1940
   29POPC   PO4  891   6.881   6.836   9.973  0.4201  0.2919 -0.0662
   29POPC   GL1  892   7.099   6.836   9.706  0.0599  0.2677  0.3830
   29POPC   GL2  893   7.348   6.643   9.725  0.0347 -0.1228  0.0002
   29POPC   C1A  894   7.103   7.115   9.348 -0.0703 -0.0785 -0.0731
   29POPC   D2A  895   7.091   7.507   9.055  0.0203 -0.0322  0.0165
   29POPC   C3A  896   6.792   7.434   8.660  0.0687 -0.0640 -0.2271
   29POPC   C4A  897   6.693   7.318   8.331 -0.1520  0.3406  0.0490
   29POPC   C1B  898   7.097   6.561   9.246  0.0622  0.1941 -0.1071
   29POPC   C2B  899   6.992   6.302   8.968 -0.4513  0.1431  0.0802
   29POPC   C3B  900   7.173   6.337   8.554 -0.1384  0.1312  0.0302
   29POPC   C4B  901   7.499   6.035   8.564  0.1412 -0.3157  0.0397
   30POPC   NC3  902   2.783   4.983   9.111 -0.1050 -0.1462  0.0374
   30POPC   PO4  903   2.388   5.084   9.021 -0.0993 -0.5029  0.0365
   30POPC   GL1  904   2.642   5.002   8.632 -0.2208  0.1253 -0.3316
   30POPC   GL2  905   2.849   4.735   8.701 -0.0750  0.1535  0.0854
   30POPC   C1A  906   2.783   4.975   8.187  0.4488 -0.2379 -0.1010
   30POPC   D2A  907   2.598   5.118   7.817 -0.1304  0.0127 -0.3193
   30POPC   C3A  908   2.860   5.317   7.441  0.0110  0.1382  0.1364
   30POPC   C4A  909   2.944   5.384   7.054 -0.1495  0.0127 -0.1416
   30POPC   C1B  910   2.556   4.594   8.374 -0.0189  0.0566  0.0121
   30POPC   C2B  911   2.403   4.549   7.964  0.2138  0.1659  0.0168
   30POPC   C3B  912   2.464   4.634   7.595  0.1850 -0.2160 -0.1072
   30POPC   C4B  913   2.641   4.879   7.375  0.1636  0.0973  0.0630
   31POPC   NC3  914   2.630   7.981  10.238  0.1319 -0.1645  0.3048
   31POPC   PO4  915   2.636   8.159   9.757  0.1098 -0.0172  0.2424
   31POPC   GL1  916   2.561   8.194   9.312 -0.0351  0.1208 -0.2592
   31POPC   GL2  917   2.795   8.053   9.161  0.3447 -0.0989  0.5289
   31POPC   C1A  918   2.412   8.054   8.857  0.0226 -0.1252 -0.1577
   31POPC   D2A  919   2.088   7.871   8.566  0.0475 -0.3781 -0.0444
   31POPC   C3A  920   1.618   7.746   8.624  0.2768 -0.1246  0.0018
   31POPC   C4A  921   1.233   7.846   8.503  0.1877  0.0600 -0.0792
   31POPC   C1B  922   2.901   8.013   8.796  0.2137  0.0977  0.0757
   31POPC   C2B  923   2.953   7.822   8.358 -0.1543  0.0393  0.0491
   31POPC   C3B  924   2.903   7.355   8.360  0.0054 -0.2619 -0.0276
   31POPC   C4B  925   3.095   7.061   8.158 -0.1123 -0.4123 -0.2099
   32POPC   NC3  926   1.325   8.673   9.290 -0.0091  0.0160 -0.0356
   32POPC   PO4  927   1.037   8.296   9.369 -0.1743 -0.0840 -0.2246
   32POPC   GL1  928   1.211   8.369   8.890 -0.0768  0.0288 -0.2734
   32POPC   GL2  929   1.555   8.219   8.868 -0.3763 -0.1346 -0.1535
   32POPC   C1A  930   1.275   8.351   8.493  0.0484 -0.2219 -0.1563
   32POPC   D2A  931   0.958   8.458   8.105 -0.2289 -0.0596  0.2140
   32POPC   C3A  932   0.867   8.328   7.648  0.0921 -0.0551 -0.2436
   32POPC   C4A  933   0.917   7.933   7.402  0.0679 -0.3617 -0.3390
   32POPC   C1B  934   1.744   8.313   8.574 -0.0711  0.1426  0.2730
   32POPC   C2B  935   1.632   8.544   8.196  0.0715 -0.4536 -0.1227
   32POPC   C3B  936   1.631   8.943   8.117  0.2211 -0.1907  0.1950
   32POPC   C4B  937   1.675   9.249   8.418 -0.0488  0.0096 -0.3485
   33POPC   NC3  938   0.368   9.068   9.505 -0.3111  0.2598  0.0744
   33POPC   PO4  939   0.810   8.898   9.379 -0.0651 -0.3069  0.2003
   33POPC   GL1  940   0.432   8.876   9.030  0.2889 -0.0086  0.0811
   33POPC   GL2  941   0.352   9.231   9.020 -0.4066 -0.1760  0.1222
   33POPC   C1A  942   0.265   8.919   8.617  0.5854  0.1439 -0.1132
   33POPC   D2A  943   0.130   8.850   8.161 -0.2926 -0.1088 -0.0332
   33POPC   C3A  944  -0.281   8.693   8.013 -0.1984  0.0489  0.6455
   33POPC   C4A  945  -0.620   8.329   7.980 -0.0575  0.3058  0.3005
   33POPC   C1B  946   0.353   9.402   8.697 -0.0382  0.2126  0.1337
   33POPC   C2B  947   0.186   9.525   8.242 -0.2666  0.0063  0.2029
   33POPC   C3B  948   0.256   9.289   7.891 -0.0137 -0.0621  0.2475
   33POPC   C4B  949  -0.135   9.032   7.694  0.1970 -0.1414  0.0631
   34POPC   NC3  950   2.992   9.708   9.470 -0.1478 -0.3756  0.1622
   34POPC   PO4  951   2.841   9.908   9.149 -0.0108 -0.0828 -0.4889
   34POPC   GL1  952   2.835  10.096   8.690  0.0526 -0.0521  0.0410
   34POPC   GL2  953   2.822  10.380   8.652 -0.1793  0.3321 -0.4090
   34POPC   C1A  954   2.760   9.922   8.260 -0.0103 -0.0743  0.2868
   34POPC   D2A  955   2.895   9.669   7.914 -0.0232  0.0893  0.0700
   34POPC   C3A  956   3.041   9.651   7.512  0.1900  0.1722 -0.0192
   34POPC   C4A  957   3.458   9.639   7.203  0.3309  0.5513 -0.2512
   34POPC   C1B  958   2.982  10.889   8.491  0.0065  0.1291  0.1060
   34POPC   C2B  959   3.251  11.165   8.258  0.2321 -0.3707  0.1567
   34POPC   C3B  960   3.311  11.161   7.878 -0.1271  0.0837 -0.5264
   34POPC   C4B  961   3.402  10.834   7.543 -0.1211  0.1467 -0.0916
   35POPC   NC3  962   4.300   3.736   9.278  0.0141 -0.0308  0.2518
   35POPC   PO4  963   4.041   4.183   9.114 -0.3170  0.2322  0.3412
   35POPC   GL1  964   4.119   4.114   8.755  0.1078  0.2087 -0.1656
   35POPC   GL2  965   4.030   4.494   8.670 -0.0204  0.1875 -0.0187
   35POPC   C1A  966   4.300   4.042   8.315  0.1047 -0.0290  0.1987
   35POPC   D2A  967   4.549   4.272   8.019 -0.0402  0.2315 -0.0325
   35POPC   C3A  968   4.872   4.185   7.862  0.3557 -0.0712  0.2877
   35POPC   C4A  969   5.046   4.234   7.523 -0.3084  0.2005 -0.0673
   35POPC   C1B  970   4.019   4.591   8.198 -0.1646 -0.1123  0.1914
   35POPC   C2B  971   4.107   4.448   7.810  0.0950  0.1723  0.1231
   35POPC   C3B  972   4.422   4.482   7.521  0.2646  0.4394  0.0338
   35POPC   C4B  973   4.783   4.686   7.385 -0.2499 -0.1570 -0.0512
   36POPC   NC3  974   8.421   4.997   8.987  0.3618  0.1028  0.2779
   36POPC   PO4  975   8.396   4.475   9.026 -0.0431 -0.1670  0.0721
   36POPC   GL1  976   8.366   4.441   8.510 -0.0061 -0.0738  0.0311
   36POPC   GL2  977   8.320   4.837   8.557  0.2078 -0.2038 -0.0732
   36POPC   C1A  978   8.372   4.553   8.050  0.2340 -0.2215  0.1728
   36POPC   D2A  979   8.457   4.721   7.665 -0.0553  0.4894 -0.2059
   36POPC   C3A  980   8.636   4.800   7.225  0.1593 -0.1986  0.1899
   36POPC   C4A  981   8.506   4.645   6.809 -0.1789 -0.2275 -0.1597
   36POPC   C1B  982   8.374   5.048   8.233 -0.2510 -0.0714  0.2682
   36POPC   C2B  983   8.177   5.348   7.922 -0.1425 -0.0321  0.1637
   36POPC   C3B  984   8.004   5.748   7.967 -0.2111 -0.1827 -0.3436
   36POPC   C4B  985   7.711   6.067   7.858  0.2628 -0.0640  0.1318
   37POPC   NC3  986   9.332   4.755   8.661 -0.2577  0.0973 -0.2106
   37POPC   PO4  987   9.242   4.340   8.515 -0.0421 -0.0174 -0.0799
   37POPC   GL1  988   9.317   4.426   8.189 -0.0973  0.0507  0.0622
   37POPC   GL2  989   9.438   4.700   8.152  0.1132 -0.2914 -0.3923
   37POPC   C1A  990   9.237   4.205   7.822  0.1625  0.1221 -0.1407
   37POPC   D2A  991   9.432   4.057   7.417  0.0417 -0.2509 -0.2137
   37POPC   C3A  992   9.596   3.603   7.362  0.0189 -0.2132  0.0755
   37POPC   C4A  993   9.518   3.213   7.081 -0.2170  0.0301  0.1506
   37POPC   C1B  994   9.315   5.031   7.889  0.1673 -0.1172 -0.3357
   37POPC   C2B  995   9.045   5.121   7.510  0.0300  0.0222  0.0222
   37POPC   C3B  996   8.985   5.102   7.103  0.2694 -0.0637  0.0331
   37POPC   C4B  997   8.887   5.060   6.623 -0.2037 -0.1072 -0.2370
   38POPC   NC3  998   7.764   5.386   9.645  0.3513  0.1180  0.0409
   38POPC   PO4  999   7.658   5.772   9.640  0.2637 -0.1901  0.1517
   38POPC   GL1 1000   7.613   5.676   9.111 -0.3351 -0.1868  0.0239
   38POPC   GL2 1001   7.408   5.999   9.105  0.0212 -0.2065  0.0518
   38POPC   C1A 1002   7.691   5.594   8.697 -0.0721  0.0368 -0.2192
   38POPC   D2A 1003   7.680   5.641   8.308  0.1707  0.0149 -0.0711
   38POPC   C3A 1004   7.406   5.550   8.036 -0.1587  0.0806  0.0136
   38POPC   C4A 1005   7.096   5.379   7.600  0.1085  0.0031 -0.0925
   38POPC   C1B 1006   7.490   6.433   8.978 -0.2094 -0.1634  0.3807
   38POPC   C2B 1007   7.387   6.835   8.856  0.1829 -0.0786 -0.0358
   38POPC   C3B 1008   7.369   7.396   8.680  0.1620  0.0297  0.0558
   38POPC   C4B 1009   7.409   7.722   8.799  0.3520  0.0048  0.2215
   39POPC   NC3 1010   5.674   8.360  10.597 -0.0319  0.0433 -0.1163
   39POPC   PO4 1011   5.874   8.034  10.497 -0.0199  0.1245 -0.0220
   39POPC   GL1 1012   5.697   8.134  10.079  0.2280  0.2541 -0.0978
   39POPC   GL2 1013   5.599   8.499  10.141 -0.0530 -0.0672  0.2519
   39POPC   C1A 1014   5.430   8.266   9.740 -0.1834 -0.2307 -0.0064
   39POPC   D2A 1015   5.715   8.249   9.435 -0.1873  0.0802  0.2109
   39POPC   C3A 1016   5.865   7.903   9.304  0.0580 -0.0372  0.1278
   39POPC   C4A 1017   6.189   7.633   9.203  0.0193  0.2231 -0.0295
   39POPC   C1B 1018   5.962   8.563   9.813 -0.2472 -0.0055 -0.0359
   39POPC   C2B 1019   6.127   8.460   9.313  0.1257  0.0383 -0.1516
   39POPC   C3B 1020   5.783   8.330   8.954  0.1052  0.2743  0.0573
   39POPC   C4B 1021   5.385   8.646   8.835  0.0322  0.0066 -0.2338
   40POPC   NC3 1022   3.133   2.307   8.899 -0.0142  0.0780  0.0778
   40POPC   PO4 1023   2.962   1.883   9.049 -0.3699 -0.2168  0.2601
   40POPC   GL1 1024   3.004   1.583   8.658  0.2899 -0.2285  0.2970
   40POPC   GL2 1025   2.940   1.257   8.691  0.0007 -0.0971 -0.0274
   40POPC   C1A 1026   3.131   1.500   8.255 -0.2299  0.1054  0.0339
   40POPC   D2A 1027   3.324   1.543   7.887  0.1906 -0.0847  0.0707
   40POPC   C3A 1028   3.253   1.666   7.436  0.1149  0.1694 -0.1866
   40POPC   C4A 1029   3.241   2.185   7.409  0.3333 -0.0519  0.2492
   40POPC   C1B 1030   2.645   1.360   8.388 -0.1387 -0.0397  0.2053
   40POPC   C2B 1031   2.383   1.464   8.002 -0.0720 -0.1223 -0.2461
   40POPC   C3B 1032   2.439   1.676   7.607  0.0954  0.0015  0.0290
   40POPC   C4B 1033   2.064   1.962   7.487  0.2168 -0.2345  0.0039
   41POPC   NC3 1034   7.840   3.171   8.487 -0.1801 -0.1719 -0.0827
   41POPC   PO4 1035   8.106   3.541   8.529 -0.0276  0.0747 -0.1218
   41POPC   GL1 1036   8.215   3.482   8.167 -0.1067 -0.0792  0.1597
   41POPC   GL2 1037   8.274   3.158   8.148 -0.0019  0.0487  0.1924
   41POPC   C1A 1038   8.430   3.566   7.856 -0.0512  0.0956 -0.1059
   41POPC   D2A 1039   8.634   3.495   7.423  0.1751  0.0624  0.3713
   41POPC   C3A 1040   8.639   3.072   7.085  0.2979 -0.0910  0.2568
   41POPC   C4A 1041   8.323   2.801   6.850 -0.0341 -0.1658  0.0438
   41POPC   C1B 1042   8.257   3.130   7.681 -0.0886 -0.2907 -0.2007
   41POPC   C2B 1043   8.234   2.882   7.346 -0.0272  0.0204 -0.1567
   41POPC   C3B 1044   7.910   2.527   7.276 -0.0612 -0.1447  0.1884
   41POPC   C4B 1045   7.548   2.333   7.214  0.0695  0.0786  0.0368
   42POPC   NC3 1046   3.649   7.952   9.503 -0.1936 -0.0143 -0.0881
   42POPC   PO4 1047   3.988   8.262   9.674 -0.0566  0.0605 -0.0734
   42POPC   GL1 1048   4.190   8.453   9.346 -0.1453  0.0467  0.2081
   42POPC   GL2 1049   4.448   8.721   9.323  0.0281  0.2301  0.0371
   42POPC   C1A 1050   4.002   8.645   9.008  0.1964  0.0557  0.2096
   42POPC   D2A 1051   4.031   8.811   8.694 -0.1499  0.1321 -0.0828
   42POPC   C3A 1052   3.839   8.592   8.374 -0.0842 -0.2075 -0.1678
   42POPC   C4A 1053   3.869   8.232   8.108 -0.0099  0.0380  0.1628
   42POPC   C1B 1054   4.466   8.891   8.891  0.1293 -0.2863 -0.1572
   42POPC   C2B 1055   4.451   8.832   8.438 -0.0111 -0.3615 -0.1026
   42POPC   C3B 1056   4.696   8.760   8.086  0.0341 -0.3375 -0.0865
   42POPC   C4B 1057   5.039   8.493   7.958 -0.0185 -0.1847 -0.0058
   43POPC   NC3 1058   7.164   8.171  10.444  0.4618  0.0516  0.0972
   43POPC   PO4 1059   7.579   8.421  10.493  0.0287 -0.1081 -0.0835
   43POPC   GL1 1060   7.792   8.327  10.180  0.0424  0.2194 -0.2321
   43POPC   GL2 1061   8.203   8.411  10.227 -0.3283 -0.0921  0.0421
   43POPC   C1A 1062   7.913   8.137   9.835 -0.2090 -0.3452 -0.0116
   43POPC   D2A 1063   7.874   8.198   9.432  0.1187 -0.1619 -0.1293
   43POPC   C3A 1064   8.162   8.003   9.166  0.0911 -0.1252 -0.1520
   43POPC   C4A 1065   8.221   8.116   8.730 -0.0982 -0.0044 -0.1290
   43POPC   C1B 1066   8.046   8.718   9.894 -0.1169 -0.1671 -0.0540
   43POPC   C2B 1067   7.994   8.684   9.586  0.1610  0.0890 -0.0096
   43POPC   C3B 1068   7.769   8.659   9.197  0.0268  0.1846  0.0100
   43POPC   C4B 1069   7.807   8.512   8.822  0.0067 -0.0371 -0.0099
   44POPC   NC3 1070   7.343   1.473   9.118  0.0600 -0.0125  0.1083
   44POPC   PO4 1071   6.829   1.507   9.099 -0.1093  0.0569  0.1182
   44POPC   GL1 1072   6.616   1.285   8.736  0.0348 -0.3571 -0.3217
   44POPC   GL2 1073   6.439   1.465   8.605  0.1516 -0.1453 -0.1343
   44POPC   C1A 1074   6.757   1.013   8.366 -0.3106  0.1926  0.0125
   44POPC   D2A 1075   6.833   0.950   7.950  0.0870  0.1092  0.0423
   44POPC   C3A 1076   6.583   0.775   7.585  0.0351 -0.2903  0.2528
   44POPC   C4A 1077   6.755   0.475   7.285  0.0541  0.0355  0.0580
   44POPC   C1B 1078   6.462   1.612   8.233  0.1452  0.0237  0.0830
   44POPC   C2B 1079   6.599   1.421   7.911  0.1847 -0.0546  0.1202
   44POPC   C3B 1080   6.673   1.289   7.569  0.1724 -0.0748 -0.3836
   44POPC   C4B 1081   6.970   0.964   7.358 -0.2051 -0.1576 -0.2226
   45POPC   NC3 1082   4.857   8.814  10.498 -0.3883 -0.0785  0.2361
   45POPC   PO4 1083   4.701   8.357  10.422  0.2156 -0.0860 -0.0206
   45POPC   GL1 1084   4.738   8.214   9.976 -0.3658 -0.1314  0.0093
   45POPC   GL2 1085   4.988   8.393   9.899 -0.0061  0.1258  0.3925
   45POPC   C1A 1086   4.707   8.164   9.471  0.0413 -0.0555  0.2415
   45POPC   D2A 1087   4.947   7.999   9.094  0.1386 -0.1492 -0.1258
   45POPC   C3A 1088   5.133   8.079   8.735  0.1509 -0.0338 -0.1234
   45POPC   C4A 1089   5.582   8.216   8.547 -0.2167  0.2268 -0.1254
   45POPC   C1B 1090   5.059   8.536   9.469  0.2169  0.0301  0.0301
   45POPC   C2B 1091   4.918   8.532   9.051 -0.0440 -0.1788 -0.2936
   45POPC   C3B 1092   4.605   8.463   8.712 -0.1327  0.1688 -0.0916
   45POPC   C4B 1093   4.328   8.366   8.237  0.1914 -0.1133 -0.0330
   46POPC   NC3 1094   9.136   8.416  10.171 -0.2859 -0.0125  0.4007
   46POPC   PO4 1095   9.020   8.838  10.199 -0.3416 -0.0582  0.1745
   46POPC   GL1 1096   8.963   8.743   9.849  0.0693 -0.2558 -0.1378
   46POPC   GL2 1097   9.091   9.025   9.782  0.1238  0.0705  0.0995
   46POPC   C1A 1098   9.136   8.638   9.517  0.1243  0.3189  0.1875
   46POPC   D2A 1099   9.310   8.343   9.312 -0.1713 -0.1329  0.0607
   46POPC   C3A 1100   9.258   8.483   8.846  0.3140 -0.1976  0.0221
   46POPC   C4A 1101   9.149   8.250   8.430 -0.0839 -0.0627  0.0202
   46POPC   C1B 1102   9.163   9.085   9.300  0.0135  0.3033 -0.0489
   46POPC   C2B 1103   9.215   8.975   8.864 -0.0184  0.5600 -0.2268
   46POPC   C3B 1104   9.036   8.790   8.482  0.1123 -0.0550 -0.0439
   46POPC   C4B 1105   8.770   8.395   8.664 -0.1665 -0.3666 -0.3215
   47POPC   NC3 1106   4.589   7.873  10.439  0.0537 -0.1557  0.0719
   47POPC   PO4 1107   4.943   7.967  10.675 -0.3949  0.4678  0.1363
   47POPC   GL1 1108   5.039   7.690  10.287 -0.0795 -0.0283  0.1493
   47POPC   GL2 1109   5.319   7.706  10.103  0.0764 -0.3479 -0.1499
   47POPC   C1A 1110   5.013   7.822   9.750 -0.2617 -0.1851 -0.1104
   47POPC   D2A 1111   5.220   7.680   9.404  0.2456  0.2949  0.1629
   47POPC   C3A 1112   5.478   7.850   8.994 -0.2128  0.2054 -0.1677
   47POPC   C4A 1113   5.385   7.623   8.641  0.2044 -0.0967  0.2036
   47POPC   C1B 1114   5.618   7.748   9.764  0.1929  0.1213  0.3210
   47POPC   C2B 1115   5.790   7.344   9.525 -0.1127  0.1035 -0.0989
   47POPC   C3B 1116   5.901   7.277   9.073  0.2521  0.1180 -0.2960
   47POPC   C4B 1117   5.841   7.194   8.617  0.2240 -0.1399 -0.1526
   48POPC   NC3 1118   6.031   1.724   8.868 -0.0587  0.0605  0.0388
   48POPC   PO4 1119   6.146   1.460   9.136 -0.0340  0.3100  0.2577
   48POPC   GL1 1120   6.052   1.189   8.761 -0.1584  0.2450 -0.2901
   48POPC   GL2 1121   5.725   0.997   8.661  0.0634 -0.2308 -0.1260
   48POPC   C1A 1122   6.057   1.251   8.360  0.1824  0.1200  0.0006
   48POPC   D2A 1123   5.869   1.242   7.949 -0.0826 -0.2191 -0.1359
   48POPC   C3A 1124   5.646   1.107   7.688  0.0610 -0.2296 -0.1013
   48POPC   C4A 1125   5.663   0.922   7.255  0.1895  0.1995 -0.3080
   48POPC   C1B 1126   5.515   1.345   8.413  0.2391  0.0221  0.4513
   48POPC   C2B 1127   5.447   1.707   8.020 -0.0612  0.2792 -0.1722
   48POPC   C3B 1128   5.570   1.655   7.657 -0.5836  0.1177 -0.2646
   48POPC   C4B 1129   5.812   1.389   7.287 -0.0385  0.0808 -0.1180
   49POPC   NC3 1130   7.372   3.063   8.793  0.2884 -0.1287  0.1753
   49POPC   PO4 1131   7.482   3.504   8.597 -0.1292 -0.1191 -0.1620
   49POPC   GL1 1132   7.188   3.482   8.292  0.1947 -0.1486  0.1372
   49POPC   GL2 1133   7.320   3.549   7.996 -0.3663 -0.1012 -0.1850
   49POPC   C1A 1134   6.978   3.107   8.138 -0.4128 -0.2010 -0.0907
   49POPC   D2A 1135   6.766   2.982   7.842  0.0777 -0.1262 -0.0416
   49POPC   C3A 1136   7.079   3.142   7.455  0.0892 -0.1717  0.1378
   49POPC   C4A 1137   7.320   2.920   7.177  0.1718  0.1004 -0.0485
   49POPC   C1B 1138   7.425   3.890   7.554 -0.1248  0.0113 -0.1346
   49POPC   C2B 1139   7.528   4.290   7.449 -0.2260 -0.0949 -0.1629
   49POPC   C3B 1140   7.655   4.498   7.107  0.0487  0.0569  0.0358
   49POPC   C4B 1141   8.043   4.414   6.816 -0.0940 -0.0447  0.0614
   50POPC   NC3 1142   0.767   7.834   9.370  0.0060 -0.0645 -0.0641
   50POPC   PO4 1143   0.480   8.006   9.573 -0.4913  0.1346  0.0281
   50POPC   GL1 1144   0.464   8.223   9.158 -0.1876  0.4949  0.0183
   50POPC   GL2 1145   0.706   8.456   9.079 -0.2154  0.1726 -0.2889
   50POPC   C1A 1146   0.362   8.252   8.724 -0.2571  0.1376  0.2812
   50POPC   D2A 1147   0.274   8.095   8.356 -0.0721  0.0116 -0.0433
   50POPC   C3A 1148   0.042   7.731   8.290  0.1103  0.3017  0.2245
   50POPC   C4A 1149  -0.294   7.444   8.200  0.0782  0.2710 -0.4080
   50POPC   C1B 1150   0.781   8.596   8.703  0.0804 -0.0636 -0.1277
   50POPC   C2B 1151   0.527   8.590   8.360 -0.2987 -0.2882 -0.0935
   50POPC   C3B 1152   0.400   8.430   7.999 -0.3148  0.1648  0.3716
   50POPC   C4B 1153   0.109   8.535   7.641 -0.0792 -0.1620  0.2054
   51POPC   NC3 1154   7.855   0.878   9.849  0.0865 -0.1285  0.3370
   51POPC   PO4 1155   7.967   1.026   9.387  0.2383  0.0849 -0.0023
   51POPC   GL1 1156   8.110   0.849   9.032  0.1850 -0.2248 -0.0513
   51POPC   GL2 1157   8.222   1.146   8.793  0.0283  0.0536 -0.1580
   51POPC   C1A 1158   7.954   0.719   8.666 -0.1506 -0.0183 -0.0349
   51POPC   D2A 1159   7.843   1.026   8.380  0.0679 -0.0866  0.1701
   51POPC   C3A 1160   7.919   0.940   7.984 -0.0733  0.3506 -0.1071
   51POPC   C4A 1161   7.737   0.619   7.715  0.2612  0.0073 -0.2892
   51POPC   C1B 1162   8.348   0.960   8.502 -0.3312 -0.1045  0.1015
   51POPC   C2B 1163   8.431   0.858   8.125  0.2453  0.1955  0.0210
   51POPC   C3B 1164   8.269   0.602   7.719 -0.0574 -0.1718 -0.2208
   51POPC   C4B 1165   8.182   0.403   7.259  0.0092 -0.0084 -0.3676
   52POPC   NC3 1166   7.568   7.228  10.514 -0.1620  0.1448 -0.1533
   52POPC   PO4 1167   7.246   7.633  10.652  0.0854 -0.0396  0.0942
   52POPC   GL1 1168   7.086   7.744  10.241 -0.1727 -0.0028 -0.3517
   52POPC   GL2 1169   6.942   7.397  10.072  0.0318 -0.2563  0.2762
   52POPC   C1A 1170   6.739   7.772   9.829  0.0005  0.1486 -0.4875
   52POPC   D2A 1171   6.505   7.522   9.579 -0.0640  0.1432 -0.3057
   52POPC   C3A 1172   6.355   7.186   9.752  0.0952  0.0851  0.2891
   52POPC   C4A 1173   6.236   6.778   9.719 -0.0718 -0.1833  0.1225
   52POPC   C1B 1174   7.144   7.532   9.619  0.2033 -0.1581 -0.1121
   52POPC   C2B 1175   7.198   7.949   9.314  0.0844  0.0201 -0.0898
   52POPC   C3B 1176   7.375   8.403   9.343  0.3031 -0.2546  0.0031
   52POPC   C4B 1177   7.591   8.555   9.782  0.2989 -0.0483  0.0882
   53POPC   NC3 1178   6.788   9.180  10.722  0.0068 -0.3506  0.2203
   53POPC   PO4 1179   6.725   9.640  10.551  0.0304  0.0429  0.0955
   53POPC   GL1 1180   6.933   9.430  10.174  0.0311 -0.1239  0.0793
   53POPC   GL2 1181   6.698   9.362   9.969  0.3902 -0.1005  0.2642
   53POPC   C1A 1182   7.245   9.124   9.966  0.1640 -0.1816 -0.1240
   53POPC   D2A 1183   7.354   9.388   9.648 -0.3643  0.2246 -0.0881
   53POPC   C3A 1184   7.441   9.207   9.208 -0.2646  0.0268  0.0312
   53POPC   C4A 1185   7.452   8.849   8.857 -0.0414 -0.0933  0.3211
   53POPC   C1B 1186   6.882   9.376   9.486 -0.1057  0.2691  0.0185
   53POPC   C2B 1187   6.632   9.306   9.087  0.0788 -0.4264 -0.1055
   53POPC   C3B 1188   6.604   9.160   8.650 -0.0127  0.1533  0.3397
   53POPC   C4B 1189   6.396   8.908   8.332 -0.1440  0.1992 -0.0268
   54POPC   NC3 1190   1.807   7.052   9.461 -0.0517 -0.1963 -0.1438
   54POPC   PO4 1191   2.167   7.266   9.209 -0.0928  0.1481  0.1917
   54POPC   GL1 1192   2.237   7.277   8.794 -0.3564 -0.1598 -0.0014
   54POPC   GL2 1193   2.394   7.016   8.722 -0.2392 -0.2436 -0.0724
   54POPC   C1A 1194   1.911   7.404   8.388  0.2284  0.0268  0.0933
   54POPC   D2A 1195   1.528   7.598   8.158 -0.0125  0.1633 -0.0691
   54POPC   C3A 1196   1.518   8.003   8.132  0.1284  0.1166 -0.1694
   54POPC   C4A 1197   1.356   8.246   7.847  0.1271 -0.0023 -0.0127
   54POPC   C1B 1198   2.253   7.042   8.309 -0.3419  0.2493  0.0256
   54POPC   C2B 1199   2.275   7.386   8.051 -0.0360  0.0511  0.1556
   54POPC   C3B 1200   2.018   7.717   7.996  0.0844 -0.1373  0.3610
   54POPC   C4B 1201   1.792   7.816   7.710  0.0073 -0.0339  0.1231
   55POPC   NC3 1202   7.345  10.072  10.730  0.0009  0.1351  0.0347
   55POPC   PO4 1203   7.745  10.057  10.455  0.1663 -0.3648  0.3092
   55POPC   GL1 1204   7.808  10.037   9.981  0.1958 -0.4832  0.0014
   55POPC   GL2 1205   7.413  10.130   9.789 -0.5631 -0.0978  0.5746
   55POPC   C1A 1206   7.730   9.756   9.559 -0.1400  0.1510 -0.0620
   55POPC   D2A 1207   7.611   9.750   9.102  0.2206 -0.4560  0.0541
   55POPC   C3A 1208   7.412   9.700   8.793  0.0142 -0.2041  0.6961
   55POPC   C4A 1209   7.168   9.854   8.499  0.2010 -0.1218 -0.0531
   55POPC   C1B 1210   7.243   9.863   9.443  0.0252  0.0243 -0.3327
   55POPC   C2B 1211   7.039   9.677   9.105 -0.0709 -0.1081 -0.3264
   55POPC   C3B 1212   7.064   9.355   8.836  0.2540 -0.0752  0.1507
   55POPC   C4B 1213   7.013   8.923   8.617  0.4629  0.3275 -0.1385
   56POPC   NC3 1214   7.535   6.367  10.131 -0.2440 -0.0132 -0.0865
   56POPC   PO4 1215   7.760   6.593  10.326 -0.0100 -0.1648 -0.1126
   56POPC   GL1 1216   7.766   6.890  10.157 -0.1403 -0.0347  0.0127
   56POPC   GL2 1217   7.989   7.165  10.072 -0.2582 -0.0039  0.2027
   56POPC   C1A 1218   7.535   7.120   9.681 -0.1554  0.1598  0.1280
   56POPC   D2A 1219   7.553   6.986   9.295 -0.1256  0.0957 -0.0012
   56POPC   C3A 1220   7.709   7.237   8.995  0.2163  0.0456  0.2018
   56POPC   C4A 1221   7.985   7.630   8.875  0.4253  0.1499  0.0546
   56POPC   C1B 1222   8.036   7.152   9.576 -0.2027 -0.0936 -0.1404
   56POPC   C2B 1223   7.996   6.840   9.190  0.0938  0.0364  0.0375
   56POPC   C3B 1224   8.034   6.459   8.948  0.0813 -0.0086 -0.2720
   56POPC   C4B 1225   7.878   6.027   8.854 -0.2398 -0.2693 -0.1390
   57POPC   NC3 1226   9.528   7.965   9.587  0.1415 -0.0936 -0.1823
   57POPC   PO4 1227   9.203   7.617   9.750 -0.0247 -0.0369  0.1956
   57POPC   GL1 1228   9.152   7.672   9.375 -0.0648 -0.0705 -0.1121
   57POPC   GL2 1229   9.449   7.583   9.084 -0.0563 -0.1833  0.2701
   57POPC   C1A 1230   8.907   7.543   8.999 -0.3068 -0.1101  0.1363
   57POPC   D2A 1231   8.548   7.752   8.851  0.1614 -0.0061 -0.0611
   57POPC   C3A 1232   8.389   7.673   8.500  0.1260 -0.1453 -0.1736
   57POPC   C4A 1233   8.059   7.949   8.226 -0.1837  0.1718  0.0677
   57POPC   C1B 1234   9.618   7.656   8.626  0.1160 -0.3491 -0.0121
   57POPC   C2B 1235   9.656   7.910   8.201 -0.4183 -0.0587  0.1913
   57POPC   C3B 1236   9.653   7.808   7.782  0.2221  0.0168 -0.3802
   57POPC   C4B 1237   9.751   7.689   7.412 -0.0527 -0.0882  0.0673
   58POPC   NC3 1238   8.210   3.985   8.827  0.1293  0.2729 -0.2400
   58POPC   PO4 1239   8.667   3.865   8.880  0.2624 -0.1681 -0.1388
   58POPC   GL1 1240   8.523   3.797   8.481  0.2220 -0.1848 -0.1820
   58POPC   GL2 1241   8.853   3.885   8.356  0.0534 -0.1918 -0.0367
   58POPC   C1A 1242   8.371   4.013   8.087 -0.0137 -0.1900 -0.0624
   58POPC   D2A 1243   7.981   3.893   7.886 -0.1014  0.2493 -0.1550
   58POPC   C3A 1244   7.904   3.587   7.608 -0.0187  0.1832 -0.1043
   58POPC   C4A 1245   7.498   3.410   7.502 -0.1866 -0.1965 -0.0884
   58POPC   C1B 1246   8.993   3.790   7.919  0.0741 -0.1351  0.0564
   58POPC   C2B 1247   9.467   3.705   7.859 -0.1727 -0.3144  0.1436
   58POPC   C3B 1248   9.861   3.905   7.757  0.1749 -0.0329  0.0694
   58POPC   C4B 1249  10.128   4.151   7.957 -0.0277  0.1344  0.0107
   59POPC   NC3 1250   0.475   1.031   9.344 -0.3331  0.0579  0.0179
   59POPC   PO4 1251   0.835   1.470   9.373  0.0065  0.2366 -0.3095
   59POPC   GL1 1252   0.885   1.361   8.959 -0.1531  0.0791 -0.2610
   59POPC   GL2 1253   0.565   1.361   8.875 -0.2804  0.0293 -0.2829
   59POPC   C1A 1254   1.135   1.353   8.637 -0.2007  0.0014 -0.2780
   59POPC   D2A 1255   1.182   1.483   8.074 -0.1484 -0.1975 -0.0921
   59POPC   C3A 1256   1.085   1.322   7.622  0.0120 -0.0360  0.1867
   59POPC   C4A 1257   0.921   1.046   7.278 -0.0547  0.2361 -0.3571
   59POPC   C1B 1258   0.657   1.132   8.475 -0.1754 -0.1440 -0.0560
   59POPC   C2B 1259   0.786   1.180   8.080 -0.4149 -0.0757  0.2490
   59POPC   C3B 1260   0.590   1.100   7.642  0.0236  0.1930  0.2771
   59POPC   C4B 1261   0.448   1.126   7.213 -0.1752  0.1152  0.1656
   60POPC   NC3 1262   3.780   9.531   9.198  0.2826  0.1375 -0.1027
   60POPC   PO4 1263   3.359   9.362   9.367 -0.1117  0.1069  0.1059
   60POPC   GL1 1264   3.376   9.245   8.892  0.3186  0.1992 -0.1928
   60POPC   GL2 1265   3.639   9.140   8.651 -0.1482 -0.1280 -0.0262
   60POPC   C1A 1266   3.169   9.074   8.540  0.1128 -0.0108 -0.2714
   60POPC   D2A 1267   3.265   9.224   8.112 -0.0823  0.1470  0.0234
   60POPC   C3A 1268   3.571   8.952   8.093 -0.2656 -0.0316 -0.0855
   60POPC   C4A 1269   3.584   8.580   7.933 -0.3132 -0.2350 -0.1248
   60POPC   C1B 1270   3.747   9.433   8.311 -0.0779 -0.3382  0.1396
   60POPC   C2B 1271   4.192   9.562   8.258 -0.0348 -0.2188 -0.0172
   60POPC   C3B 1272   4.174   9.779   7.911  0.1739  0.2658  0.1086
   60POPC   C4B 1273   4.225   9.609   7.531  0.1795 -0.2617 -0.2550
   61POPC   NC3 1274   4.274   2.868   9.347  0.0903  0.0742 -0.3176
   61POPC   PO4 1275   4.591   3.207   9.191  0.3569  0.1830 -0.3006
   61POPC   GL1 1276   4.546   3.150   8.826  0.0485 -0.2380 -0.3416
   61POPC   GL2 1277   4.653   3.359   8.661  0.3659 -0.2329 -0.0520
   61POPC   C1A 1278   4.303   3.161   8.339  0.0728 -0.0014  0.1071
   61POPC   D2A 1279   4.256   3.302   7.878 -0.0886 -0.1989  0.0117
   61POPC   C3A 1280   3.850   3.398   7.710  0.1989  0.0114  0.0480
   61POPC   C4A 1281   3.564   3.112   7.559  0.2226 -0.1716  0.1394
   61POPC   C1B 1282   4.567   3.597   8.297 -0.0136 -0.3095 -0.0176
   61POPC   C2B 1283   4.545   3.797   7.913 -0.1014 -0.0630 -0.1658
   61POPC   C3B 1284   4.545   4.001   7.470  0.2123  0.1848 -0.4621
   61POPC   C4B 1285   4.294   3.904   7.142  0.0420 -0.3292  0.1023
   62POPC   NC3 1286   0.839   3.070   9.648  0.3253 -0.0909  0.0623
   62POPC   PO4 1287   0.941   2.892   9.315  0.3357 -0.0289 -0.1080
   62POPC   GL1 1288   1.052   2.697   8.918 -0.3824 -0.0504  0.1979
   62POPC   GL2 1289   1.334   2.420   8.963  0.0030  0.1202 -0.1519
   62POPC   C1A 1290   1.217   2.851   8.606 -0.0367  0.1972 -0.2347
   62POPC   D2A 1291   1.255   3.142   8.221  0.2208 -0.2872  0.2014
   62POPC   C3A 1292   0.946   2.897   8.036  0.1812 -0.0350  0.1044
   62POPC   C4A 1293   0.972   2.615   7.661  0.3337 -0.0254 -0.0243
   62POPC   C1B 1294   1.118   2.340   8.537 -0.4229  0.2060  0.4280
   62POPC   C2B 1295   0.730   2.414   8.152 -0.3353  0.1856  0.2864
   62POPC   C3B 1296   0.514   2.692   7.991  0.1526  0.2002 -0.1086
   62POPC   C4B 1297   0.163   2.973   8.061 -0.5670  0.6089 -0.0740
   63POPC   NC3 1298   0.712   6.381   9.207 -0.3578 -0.1487 -0.2915
   63POPC   PO4 1299   0.381   6.309   9.081 -0.0589  0.1290 -0.4099
   63POPC   GL1 1300   0.183   6.573   8.742  0.1059  0.1164  0.0189
   63POPC   GL2 1301   0.008   6.883   8.741 -0.0702 -0.4269  0.1845
   63POPC   C1A 1302   0.475   6.817   8.473 -0.1351 -0.1124  0.1099
   63POPC   D2A 1303   0.579   7.161   8.152 -0.1384  0.1475 -0.1414
   63POPC   C3A 1304   0.449   6.914   7.832  0.0300  0.4450 -0.0351
   63POPC   C4A 1305   0.544   6.928   7.372  0.1210  0.1888  0.4086
   63POPC   C1B 1306  -0.063   6.826   8.302 -0.2831  0.0002 -0.0100
   63POPC   C2B 1307  -0.020   6.941   7.895  0.0600 -0.3025  0.0974
   63POPC   C3B 1308   0.082   7.133   7.526  0.1885  0.0815  0.1298
   63POPC   C4B 1309  -0.117   6.823   7.223  0.2835 -0.1820  0.2320
   64POPC   NC3 1310   7.353   2.152   9.458  0.1439 -0.1126  0.1246
   64POPC   PO4 1311   7.546   1.945   9.125 -0.1314  0.0570 -0.0311
   64POPC   GL1 1312   7.648   1.715   8.778 -0.0742 -0.2207  0.1341
   64POPC   GL2 1313   7.789   1.344   8.717 -0.1431  0.1085  0.2534
   64POPC   C1A 1314   7.455   1.521   8.377 -0.1861  0.4130 -0.0359
   64POPC   D2A 1315   7.430   1.040   8.050 -0.0298  0.1153  0.1863
   64POPC   C3A 1316   7.463   1.054   7.652 -0.0810 -0.1229  0.2956
   64POPC   C4A 1317   7.488   0.862   7.205 -0.1455 -0.1204  0.0246
   64POPC   C1B 1318   8.056   1.497   8.262 -0.2255 -0.2473  0.2382
   64POPC   C2B 1319   8.165   1.389   7.872 -0.0065  0.1426 -0.1125
   64POPC   C3B 1320   8.245   1.093   7.564 -0.0429 -0.2230 -0.1463
   64POPC   C4B 1321   7.977   0.861   7.311 -0.0810  0.3002 -0.1310
   65POPC   NC3 1322   4.401   8.779  10.294  0.0496 -0.0747 -0.1958
   65POPC   PO4 1323   4.656   9.163  10.024  0.0521  0.0345  0.2146
   65POPC   GL1 1324   4.970   9.013   9.771 -0.2058  0.1652  0.2110
   65POPC   GL2 1325   5.151   8.872  10.077  0.0124  0.0771 -0.1322
   65POPC   C1A 1326   5.190   9.053   9.377 -0.0680  0.1927  0.3509
   65POPC   D2A 1327   5.477   9.096   9.055  0.0530 -0.2114  0.0466
   65POPC   C3A 1328   5.551   9.044   8.607  0.0999  0.1072  0.1889
   65POPC   C4A 1329   5.807   8.669   8.539 -0.0302  0.1830  0.1639
   65POPC   C1B 1330   5.515   8.870   9.795  0.0757  0.0752 -0.0340
   65POPC   C2B 1331   5.628   8.780   9.340 -0.4033  0.1070 -0.0017
   65POPC   C3B 1332   5.906   8.838   8.979  0.1159  0.2561  0.3317
   65POPC   C4B 1333   6.090   9.095   8.673 -0.0176 -0.0446  0.2405
   66POPC   NC3 1334   5.332   0.206   9.651  0.1006 -0.2244 -0.1095
   66POPC   PO4 1335   5.039  -0.102   9.717 -0.2004  0.0412 -0.0890
   66POPC   GL1 1336   5.055  -0.134   9.377 -0.2367  0.1438 -0.0041
   66POPC   GL2 1337   4.753  -0.340   9.273 -0.0231 -0.3741  0.2742
   66POPC   C1A 1338   5.200  -0.113   9.053  0.1485 -0.2125 -0.0472
   66POPC   D2A 1339   5.324  -0.366   8.729  0.2611 -0.0126  0.3272
   66POPC   C3A 1340   5.160  -0.723   8.496  0.2718 -0.0761 -0.1767
   66POPC   C4A 1341   5.044  -0.911   8.135  0.3656  0.2991  0.2157
   66POPC   C1B 1342   4.835  -0.466   8.765 -0.1013 -0.0895 -0.1315
   66POPC   C2B 1343   4.684  -0.471   8.338  0.0393 -0.2104 -0.1694
   66POPC   C3B 1344   4.565  -0.106   8.090 -0.1325  0.0522 -0.1604
   66POPC   C4B 1345   4.453  -0.082   7.637  0.3971  0.1444  0.1202
   67POPC   NC3 1346   5.723   5.971   9.710 -0.2034  0.2887  0.0351
   67POPC   PO4 1347   5.200   5.893   9.730 -0.3030 -0.1243 -0.0005
   67POPC   GL1 1348   5.349   6.220   9.457  0.1634  0.2360 -0.1638
   67POPC   GL2 1349   5.331   6.467   9.554  0.1052 -0.3994 -0.1193
   67POPC   C1A 1350   5.643   6.173   9.069 -0.2232  0.2141 -0.0385
   67POPC   D2A 1351   6.057   6.335   9.082 -0.1098  0.1478 -0.0516
   67POPC   C3A 1352   6.398   6.396   8.758  0.1889 -0.1080 -0.1048
   67POPC   C4A 1353   6.758   6.577   8.453 -0.2308 -0.1863 -0.1405
   67POPC   C1B 1354   5.494   6.590   9.191 -0.0103 -0.1286 -0.0600
   67POPC   C2B 1355   5.602   6.852   8.907 -0.0035 -0.1554 -0.2233
   67POPC   C3B 1356   5.783   6.755   8.417  0.1163 -0.1840  0.0725
   67POPC   C4B 1357   6.192   6.567   8.324 -0.1393 -0.2006 -0.1374
   68POPC   NC3 1358   1.347   9.563   8.878  0.2548  0.2229  0.0143
   68POPC   PO4 1359   1.788   9.590   9.140  0.1745  0.2191 -0.1927
   68POPC   GL1 1360   1.751   9.692   8.681 -0.0780  0.3279 -0.2425
   68POPC   GL2 1361   1.483   9.702   8.426 -0.2007 -0.2397  0.3763
   68POPC   C1A 1362   1.988   9.711   8.192 -0.1143  0.4205  0.0587
   68POPC   D2A 1363   1.945   9.595   7.699 -0.0186 -0.0510  0.0735
   68POPC   C3A 1364   1.463   9.722   7.596 -0.1529 -0.3739 -0.2013
   68POPC   C4A 1365   1.027   9.787   7.549 -0.0171  0.3691  0.1048
   68POPC   C1B 1366   1.157   9.387   8.253  0.0155  0.1126  0.0119
   68POPC   C2B 1367   0.759   9.559   8.113 -0.1301  0.0471  0.0287
   68POPC   C3B 1368   0.496   9.716   7.795 -0.1618  0.1757  0.0691
   68POPC   C4B 1369   0.164   9.928   7.769 -0.1489  0.0481 -0.1023
   69POPC   NC3 1370   8.382   0.859   9.656 -0.1219 -0.0381  0.1498
   69POPC   PO4 1371   8.585   0.853   9.210  0.0741  0.0035 -0.1175
   69POPC   GL1 1372   8.600   0.701   8.852 -0.2653 -0.1881 -0.3119
   69POPC   GL2 1373   8.840   0.426   8.800  0.2347 -0.2073 -0.2840
   69POPC   C1A 1374   8.379   0.469   8.596 -0.0001  0.2074 -0.1421
   69POPC   D2A 1375   8.091   0.439   8.264 -0.1287 -0.2358 -0.2228
   69POPC   C3A 1376   7.657   0.541   8.226 -0.2475  0.0250  0.0081
   69POPC   C4A 1377   7.341   0.795   8.496 -0.2699 -0.0714  0.1963
   69POPC   C1B 1378   8.794   0.072   8.436  0.2215 -0.1492  0.1029
   69POPC   C2B 1379   9.171   0.092   8.096  0.0892  0.2287 -0.1364
   69POPC   C3B 1380   9.418  -0.250   7.901  0.0340 -0.1377 -0.1720
   69POPC   C4B 1381   9.338  -0.559   7.643 -0.0643 -0.1291  0.0633
   70POPC   NC3 1382   7.572   3.902   9.395 -0.0043  0.1254 -0.0551
   70POPC   PO4 1383   7.714   3.836   8.894 -0.0915 -0.1949  0.0347
   70POPC   GL1 1384   7.904   3.982   8.470  0.0712 -0.0084  0.1686
   70POPC   GL2 1385   7.582   3.910   8.312 -0.2525 -0.1156  0.1650
   70POPC   C1A 1386   7.972   4.316   8.193  0.1653 -0.2961 -0.1522
   70POPC   D2A 1387   7.894   4.507   7.752 -0.0026 -0.0391 -0.1397
   70POPC   C3A 1388   7.994   4.785   7.422  0.3344  0.3549 -0.3067
   70POPC   C4A 1389   7.999   4.925   7.031  0.0682  0.0008 -0.0812
   70POPC   C1B 1390   7.482   4.126   7.961  0.0103  0.1358 -0.5186
   70POPC   C2B 1391   7.228   4.469   7.847  0.2352  0.2387 -0.0324
   70POPC   C3B 1392   6.919   4.429   7.399  0.0792 -0.2737  0.2688
   70POPC   C4B 1393   6.541   4.670   7.090 -0.0740 -0.3427 -0.4594
   71POPC   NC3 1394   4.707   1.925   9.378 -0.4081  0.3423  0.0475
   71POPC   PO4 1395   4.515   2.416   9.333  0.0777 -0.0283 -0.0635
   71POPC   GL1 1396   4.498   2.067   8.959  0.1276  0.0242 -0.1281
   71POPC   GL2 1397   4.721   1.871   8.719  0.0901  0.0167  0.1079
   71POPC   C1A 1398   4.326   2.138   8.502  0.1232  0.0409 -0.2030
   71POPC   D2A 1399   4.453   2.168   8.098 -0.0249  0.1407 -0.0122
   71POPC   C3A 1400   4.169   2.320   7.770  0.0112  0.1369 -0.0120
   71POPC   C4A 1401   3.792   2.390   7.563 -0.2154  0.0328  0.0857
   71POPC   C1B 1402   4.610   1.689   8.260 -0.1667  0.0305 -0.1060
   71POPC   C2B 1403   4.398   1.719   7.824 -0.1681  0.2451 -0.0440
   71POPC   C3B 1404   4.532   1.564   7.464  0.0457 -0.2505  0.1197
   71POPC   C4B 1405   4.705   1.134   7.195 -0.2020 -0.2273  0.0045
   72POPC   NC3 1406   1.290   4.464   9.112 -0.0728 -0.4580  0.0434
   72POPC   PO4 1407   1.601   4.349   9.373 -0.2251  0.1685  0.0409
   72POPC   GL1 1408   1.678   4.116   8.965  0.1829 -0.0527 -0.0091
   72POPC   GL2 1409   1.897   3.798   8.975 -0.0474  0.1159  0.0980
   72POPC   C1A 1410   1.477   3.765   8.651  0.0445 -0.2824  0.0471
   72POPC   D2A 1411   1.495   3.582   8.203  0.0142  0.1876  0.2602
   72POPC   C3A 1412   1.782   3.640   7.760  0.1224  0.0580 -0.0201
   72POPC   C4A 1413   2.037   3.889   7.495 -0.3512  0.0219 -0.2807
   72POPC   C1B 1414   1.866   3.483   8.667  0.0441  0.0435 -0.0053
   72POPC   C2B 1415   1.953   3.414   8.191  0.1618 -0.0455 -0.0393
   72POPC   C3B 1416   2.277   3.621   7.896  0.2656 -0.2915 -0.0911
   72POPC   C4B 1417   2.401   3.356   7.484  0.1704 -0.0110 -0.2680
   73POPC   NC3 1418   2.175   3.114   9.122 -0.0576  0.0006 -0.0904
   73POPC   PO4 1419   2.293   2.653   9.307 -0.1758  0.1252  0.2362
   73POPC   GL1 1420   2.247   2.681   8.900  0.0329 -0.0137 -0.2844
   73POPC   GL2 1421   2.138   2.362   8.875  0.1283  0.1129 -0.3512
   73POPC   C1A 1422   2.560   2.712   8.614  0.0568  0.0658  0.1100
   73POPC   D2A 1423   2.464   2.601   8.132  0.1204 -0.2743  0.2951
   73POPC   C3A 1424   2.363   2.223   7.911  0.0580 -0.1074  0.0255
   73POPC   C4A 1425   2.006   2.007   7.954  0.0796  0.3633  0.2883
   73POPC   C1B 1426   2.049   2.441   8.431  0.3170 -0.0008  0.2484
   73POPC   C2B 1427   1.947   2.576   7.943  0.0782 -0.2294 -0.0274
   73POPC   C3B 1428   1.956   2.502   7.551 -0.0632  0.0502  0.0700
   73POPC   C4B 1429   1.732   2.653   7.221 -0.0289 -0.0665  0.0415
   74POPC   NC3 1430   2.136   5.500   9.050  0.1189 -0.0982  0.2709
   74POPC   PO4 1431   2.040   5.873   8.910  0.1429 -0.0634 -0.5359
   74POPC   GL1 1432   1.639   5.963   8.670  0.1197  0.0982  0.1753
   74POPC   GL2 1433   1.873   6.231   8.545  0.0555 -0.6299  0.3226
   74POPC   C1A 1434   1.487   6.153   8.271  0.2473 -0.4058  0.0801
   74POPC   D2A 1435   1.715   6.303   7.895  0.1347  0.0847  0.2891
   74POPC   C3A 1436   1.662   6.466   7.516 -0.1605  0.0110 -0.0911
   74POPC   C4A 1437   1.344   6.772   7.430 -0.0816  0.0307  0.0726
   74POPC   C1B 1438   2.030   6.055   8.225 -0.0584  0.0670  0.0608
   74POPC   C2B 1439   2.469   5.991   8.064  0.0872 -0.0092 -0.1060
   74POPC   C3B 1440   2.607   5.898   7.662  0.2986  0.0108  0.2070
   74POPC   C4B 1441   2.636   5.684   7.263 -0.0371  0.0580 -0.0913
   75POPC   NC3 1442   0.757   4.808   9.328  0.2137 -0.2318  0.2798
   75POPC   PO4 1443   0.791   4.394   9.282 -0.1039  0.0092  0.0813
   75POPC   GL1 1444   0.913   4.223   8.887  0.1951  0.0317  0.1317
   75POPC   GL2 1445   1.262   4.251   8.711 -0.2559  0.2599  0.2215
   75POPC   C1A 1446   0.843   4.328   8.462 -0.0494 -0.2217  0.0400
   75POPC   D2A 1447   0.947   4.285   8.090 -0.2167 -0.1584  0.2732
   75POPC   C3A 1448   0.911   3.940   7.732 -0.0649  0.0912  0.4137
   75POPC   C4A 1449   0.720   3.999   7.390  0.2398  0.3840  0.1386
   75POPC   C1B 1450   1.390   4.239   8.325 -0.1966 -0.2285  0.0444
   75POPC   C2B 1451   1.404   4.097   7.976  0.1430  0.0653  0.0914
   75POPC   C3B 1452   1.538   4.080   7.584  0.0627  0.1703 -0.0099
   75POPC   C4B 1453   1.696   3.960   7.177  0.0211 -0.1450  0.0149
   76POPC   NC3 1454   4.394   1.503   9.667 -0.0266  0.0964  0.0443
   76POPC   PO4 1455   4.797   1.461   9.593  0.1332  0.0897 -0.2607
   76POPC   GL1 1456   4.867   1.480   9.091 -0.3263 -0.0392  0.3516
   76POPC   GL2 1457   5.176   1.382   8.816 -0.0891  0.2350 -0.4396
   76POPC   C1A 1458   4.621   1.340   8.679  0.0466 -0.3578  0.1026
   76POPC   D2A 1459   4.890   1.086   8.460 -0.1302  0.0048 -0.1092
   76POPC   C3A 1460   4.741   0.962   8.128  0.4633 -0.0910  0.1628
   76POPC   C4A 1461   4.744   1.189   7.771  0.0825 -0.3322  0.2145
   76POPC   C1B 1462   5.083   1.565   8.491 -0.3249 -0.2583  0.1908
   76POPC   C2B 1463   5.036   1.466   8.104 -0.2367 -0.1469 -0.1366
   76POPC   C3B 1464   5.193   1.085   7.995  0.2545  0.2554  0.1712
   76POPC   C4B 1465   5.116   0.636   8.015  0.0417  0.0883 -0.2019
   77POPC   NC3 1466   9.770   5.726   9.259 -0.0991  0.0265 -0.1080
   77POPC   PO4 1467   9.771   5.248   9.164 -0.2120  0.1061 -0.2223
   77POPC   GL1 1468   9.826   5.396   8.745 -0.0320 -0.2048  0.0862
   77POPC   GL2 1469  10.079   5.388   8.398  0.1688 -0.1477  0.1165
   77POPC   C1A 1470   9.639   5.732   8.435  0.2406 -0.1022 -0.1712
   77POPC   D2A 1471   9.510   5.937   8.053  0.0881  0.0077  0.0881
   77POPC   C3A 1472   9.022   6.114   8.071 -0.0052  0.1066 -0.3227
   77POPC   C4A 1473   8.625   6.041   8.348  0.0364 -0.1414  0.0810
   77POPC   C1B 1474  10.310   5.477   8.081  0.2516 -0.3620 -0.2092
   77POPC   C2B 1475  10.556   5.410   7.681  0.2166 -0.1182  0.3322
   77POPC   C3B 1476  10.692   5.426   7.218 -0.3296 -0.1705  0.0974
   77POPC   C4B 1477  11.078   5.323   7.055  0.0065  0.3498  0.2039
   78POPC   NC3 1478   7.636   7.845  10.430 -0.2452 -0.1352  0.0530
   78POPC   PO4 1479   7.995   7.696  10.467  0.0695  0.0302  0.5033
   78POPC   GL1 1480   7.893   7.684  10.032  0.1889 -0.1285  0.2061
   78POPC   GL2 1481   7.517   7.586  10.024 -0.3267  0.0495  0.0600
   78POPC   C1A 1482   7.703   7.741   9.607 -0.0013 -0.1709 -0.1009
   78POPC   D2A 1483   7.616   7.693   9.247  0.0795  0.1330 -0.1552
   78POPC   C3A 1484   7.658   8.042   9.037 -0.0791  0.2840  0.1026
   78POPC   C4A 1485   7.692   8.029   8.593  0.1485  0.2823 -0.0862
   78POPC   C1B 1486   7.391   8.009   9.839  0.0021 -0.0726 -0.2170
   78POPC   C2B 1487   7.085   8.199   9.766  0.0322  0.1340  0.1816
   78POPC   C3B 1488   6.938   8.648   9.872  0.0581  0.0387 -0.4737
   78POPC   C4B 1489   6.657   8.959   9.707 -0.2256 -0.1137 -0.1145
   79POPC   NC3 1490   3.550   0.982   9.730 -0.3288  0.2165  0.1080
   79POPC   PO4 1491   3.735   0.742   9.401  0.0417 -0.1710 -0.2288
   79POPC   GL1 1492   3.863   0.771   8.943  0.0105 -0.4199  0.1047
   79POPC   GL2 1493   4.013   0.603   8.755 -0.0758 -0.0761  0.2496
   79POPC   C1A 1494   3.865   0.964   8.400 -0.0476 -0.0590 -0.1182
   79POPC   D2A 1495   3.691   1.289   8.120  0.0231  0.0727  0.3679
   79POPC   C3A 1496   3.682   1.346   7.581 -0.3480  0.1917 -0.1792
   79POPC   C4A 1497   3.663   1.408   7.078 -0.0902 -0.4106 -0.1692
   79POPC   C1B 1498   3.833   0.502   8.302  0.0620  0.2245 -0.1805
   79POPC   C2B 1499   3.445   0.603   8.060 -0.0216 -0.0869  0.1637
   79POPC   C3B 1500   3.090   0.425   7.960  0.0094 -0.1563 -0.1244
   79POPC   C4B 1501   2.971   0.017   7.852 -0.2132 -0.1601  0.0631
   80POPC   NC3 1502   1.617   5.352   9.304  0.0852  0.0704 -0.3434
   80POPC   PO4 1503   1.674   5.498   8.858 -0.2091 -0.0191  0.0882
   80POPC   GL1 1504   1.639   5.565   8.430  0.0582 -0.0225 -0.1298
   80POPC   GL2 1505   1.379   5.653   8.261 -0.0421  0.0273 -0.1637
   80POPC   C1A 1506   1.693   5.735   7.864 -0.2168  0.1460  0.2801
   80POPC   D2A 1507   1.584   5.890   7.508 -0.5271  0.0998 -0.1551
   80POPC   C3A 1508   1.207   5.766   7.341 -0.1771 -0.2553 -0.0011
   80POPC   C4A 1509   0.880   5.896   7.067 -0.0305 -0.0442  0.2018
   80POPC   C1B 1510   1.173   5.496   7.863 -0.1126 -0.0309  0.3423
   80POPC   C2B 1511   0.944   5.307   7.599 -0.3724  0.1270  0.2832
   80POPC   C3B 1512   0.638   5.024   7.451  0.0356 -0.0318 -0.3983
   80POPC   C4B 1513   0.495   4.612   7.489 -0.0048 -0.2352 -0.2251
   81POPC   NC3 1514   7.085   0.615  10.143 -0.0436 -0.1700 -0.0505
   81POPC   PO4 1515   7.466   0.502   9.884  0.1148 -0.1994 -0.0942
   81POPC   GL1 1516   7.648   0.334   9.495  0.2707  0.4375  0.0478
   81POPC   GL2 1517   7.885   0.519   9.297  0.0950  0.2422  0.6891
   81POPC   C1A 1518   7.617   0.073   9.213 -0.1110 -0.1129  0.4240
   81POPC   D2A 1519   7.644  -0.015   8.712 -0.0757  0.0691 -0.1364
   81POPC   C3A 1520   7.467   0.067   8.425  0.1311  0.0427 -0.0406
   81POPC   C4A 1521   7.465   0.104   7.969  0.0216  0.2312 -0.0695
   81POPC   C1B 1522   8.031   0.298   8.931 -0.1666 -0.0398 -0.1356
   81POPC   C2B 1523   8.222  -0.007   8.601  0.1496 -0.1920  0.0490
   81POPC   C3B 1524   7.940  -0.054   8.224  0.2926  0.1743  0.1194
   81POPC   C4B 1525   7.832  -0.326   7.779 -0.0990  0.0304 -0.2352
   82POPC   NC3 1526   6.298   4.176   8.941  0.1555  0.1730  0.1143
   82POPC   PO4 1527   6.051   4.361   9.254 -0.1138 -0.0304  0.0972
   82POPC   GL1 1528   5.931   4.412   8.738  0.0106  0.0285  0.0586
   82POPC   GL2 1529   6.036   4.584   8.555 -0.2460 -0.3859  0.1113
   82POPC   C1A 1530   5.755   4.277   8.298  0.3178  0.2215  0.1783
   82POPC   D2A 1531   5.869   3.929   7.969 -0.1454 -0.0580 -0.0175
   82POPC   C3A 1532   6.015   4.037   7.514  0.3757 -0.0008 -0.4550
   82POPC   C4A 1533   5.979   4.212   7.131 -0.3603 -0.1421  0.0980
   82POPC   C1B 1534   5.918   4.845   8.265 -0.0090 -0.0971  0.0804
   82POPC   C2B 1535   5.862   4.908   7.821 -0.0666  0.0005 -0.0871
   82POPC   C3B 1536   5.699   4.987   7.386  0.2369  0.0676 -0.1531
   82POPC   C4B 1537   5.579   5.142   7.000  0.1141 -0.3788 -0.1223
   83POPC   NC3 1538   8.583   6.767   9.384  0.2764 -0.1590  0.3679
   83POPC   PO4 1539   8.681   6.408   9.234  0.1234  0.2277  0.0140
   83POPC   GL1 1540   8.877   6.328   8.776 -0.2354 -0.0320 -0.0745
   83POPC   GL2 1541   9.222   6.471   8.889 -0.1190 -0.0679  0.0040
   83POPC   C1A 1542   8.801   6.536   8.320  0.0534  0.1986 -0.1157
   83POPC   D2A 1543   8.674   6.601   7.957 -0.1920  0.1955  0.0036
   83POPC   C3A 1544   8.650   6.318   7.562  0.1149  0.0969  0.0691
   83POPC   C4A 1545   8.694   5.938   7.254 -0.0306 -0.3263  0.0685
   83POPC   C1B 1546   9.141   6.792   8.575  0.0361  0.2560  0.1997
   83POPC   C2B 1547   9.015   6.993   8.275 -0.0854  0.0142 -0.1218
   83POPC   C3B 1548   8.852   7.367   8.079 -0.1077  0.0664 -0.5090
   83POPC   C4B 1549   8.621   7.517   7.630  0.4342 -0.2425 -0.0185
   84POPC   NC3 1550   8.487   2.535   8.895  0.2649 -0.3364 -0.0478
   84POPC   PO4 1551   8.143   2.782   8.577 -0.0687  0.2615 -0.1096
   84POPC   GL1 1552   8.317   2.682   8.281 -0.0935 -0.0831  0.3119
   84POPC   GL2 1553   8.564   2.579   8.388  0.0626 -0.1152  0.3001
   84POPC   C1A 1554   8.243   2.652   7.791 -0.1100 -0.3174  0.0061
   84POPC   D2A 1555   8.361   2.348   7.503  0.0506  0.0203 -0.4005
   84POPC   C3A 1556   7.952   2.025   7.351 -0.1532 -0.1156 -0.0581
   84POPC   C4A 1557   7.944   1.704   6.971 -0.1196 -0.2709 -0.0898
   84POPC   C1B 1558   8.589   2.327   8.114  0.1782  0.2216  0.0973
   84POPC   C2B 1559   8.980   2.367   7.816 -0.0339  0.1467  0.3791
   84POPC   C3B 1560   9.268   2.603   7.495 -0.1424  0.0484 -0.0345
   84POPC   C4B 1561   9.692   2.660   7.359 -0.2422 -0.2371 -0.0001
   85POPC   NC3 1562   2.304   6.124   9.231 -0.0785  0.4018  0.2343
   85POPC   PO4 1563   2.711   6.017   9.452  0.3249  0.1708  0.1266
   85POPC   GL1 1564   2.708   5.928   9.023 -0.0217  0.1838  0.3120
   85POPC   GL2 1565   2.908   6.224   8.972  0.1530  0.3123 -0.3064
   85POPC   C1A 1566   2.559   5.954   8.583  0.0566  0.1462 -0.0172
   85POPC   D2A 1567   2.431   6.370   8.354  0.1162 -0.0777 -0.0428
   85POPC   C3A 1568   2.234   6.506   7.968 -0.0555  0.1112 -0.1085
   85POPC   C4A 1569   1.969   6.802   7.729  0.1755 -0.2210 -0.1685
   85POPC   C1B 1570   2.995   6.259   8.624 -0.0364 -0.2823  0.0502
   85POPC   C2B 1571   2.931   6.347   8.230  0.1301  0.0685  0.0452
   85POPC   C3B 1572   2.767   6.341   7.822 -0.0191 -0.1595  0.1478
   85POPC   C4B 1573   2.540   6.494   7.565  0.2506 -0.1983  0.0212
   86POPC   NC3 1574   1.758   4.796   9.734 -0.0034 -0.4126 -0.2104
   86POPC   PO4 1575   1.564   4.848   9.329 -0.2385 -0.0189 -0.0587
   86POPC   GL1 1576   1.734   4.610   8.934  0.0394  0.0704 -0.0159
   86POPC   GL2 1577   1.486   4.688   8.615 -0.0956 -0.1235  0.0242
   86POPC   C1A 1578   1.892   4.421   8.561  0.1725  0.0318 -0.0805
   86POPC   D2A 1579   1.857   4.499   8.164  0.0454  0.0743 -0.0423
   86POPC   C3A 1580   1.468   4.632   8.066 -0.0454  0.1327  0.1554
   86POPC   C4A 1581   1.042   4.737   8.325 -0.1456  0.3438  0.2411
   86POPC   C1B 1582   1.693   5.025   8.374 -0.2459  0.3079 -0.0142
   86POPC   C2B 1583   1.830   5.224   8.070 -0.1565  0.2019 -0.0144
   86POPC   C3B 1584   1.660   5.284   7.683 -0.0449 -0.1598 -0.1582
   86POPC   C4B 1585   1.849   5.182   7.310  0.2328 -0.4513 -0.0012
   87POPC   NC3 1586   5.563   3.127   8.889  0.0551  0.0920 -0.0092
   87POPC   PO4 1587   5.332   2.790   9.183 -0.1419 -0.2990  0.3255
   87POPC   GL1 1588   5.135   2.813   8.798 -0.2486 -0.1490  0.1163
   87POPC   GL2 1589   4.908   2.847   8.564 -0.0378  0.2092  0.0353
   87POPC   C1A 1590   5.291   2.569   8.423 -0.0557  0.0350  0.2155
   87POPC   D2A 1591   5.479   2.687   7.947 -0.1977 -0.0971 -0.0649
   87POPC   C3A 1592   5.293   2.632   7.549  0.1349  0.0841  0.0021
   87POPC   C4A 1593   5.127   2.872   7.265  0.1327  0.1535 -0.0385
   87POPC   C1B 1594   4.779   3.081   8.252 -0.0610 -0.2470 -0.1769
   87POPC   C2B 1595   4.879   3.375   7.932 -0.0575 -0.1935  0.1747
   87POPC   C3B 1596   5.003   3.340   7.455  0.1190  0.2797  0.0699
   87POPC   C4B 1597   5.366   3.360   7.278 -0.1374  0.2006 -0.0016
   88POPC   NC3 1598   9.371   6.034   9.233 -0.5176  0.0255  0.2019
   88POPC   PO4 1599   8.977   5.922   9.248  0.1503  0.2521  0.0732
   88POPC   GL1 1600   8.899   5.790   8.764 -0.1541 -0.0139  0.0089
   88POPC   GL2 1601   9.247   5.857   8.757  0.3008 -0.2881 -0.1934
   88POPC   C1A 1602   9.088   5.671   8.292  0.4039 -0.0905  0.0959
   88POPC   D2A 1603   9.242   5.484   7.921  0.4137 -0.2537 -0.0599
   88POPC   C3A 1604   9.479   5.832   7.578  0.2389  0.0465 -0.0127
   88POPC   C4A 1605   9.760   5.655   7.123 -0.3326 -0.1907  0.0568
   88POPC   C1B 1606   9.267   6.172   8.480  0.1751 -0.0044  0.3019
   88POPC   C2B 1607   9.288   6.555   8.115  0.0887  0.0925 -0.1284
   88POPC   C3B 1608   9.244   6.723   7.628  0.2469  0.2945  0.1288
   88POPC   C4B 1609   9.394   6.668   7.189  0.1099 -0.2869 -0.2250
   89POPC   NC3 1610   9.416   4.093   9.332  0.3798  0.3548  0.1080
   89POPC   PO4 1611   9.574   4.389   9.015  0.0231 -0.0688  0.0727
   89POPC   GL1 1612   9.801   4.368   8.600  0.1788  0.1153  0.2102
   89POPC   GL2 1613  10.059   4.063   8.493 -0.3146  0.0587  0.0866
   89POPC   C1A 1614   9.863   4.508   8.210  0.1408 -0.1250  0.1499
   89POPC   D2A 1615   9.720   4.414   7.866 -0.0516  0.0596 -0.2477
   89POPC   C3A 1616   9.941   4.327   7.488  0.2491  0.2091 -0.0424
   89POPC   C4A 1617   9.792   4.475   7.053  0.1392 -0.1473 -0.0724
   89POPC   C1B 1618   9.968   3.738   8.187  0.1244  0.0423 -0.1014
   89POPC   C2B 1619  10.184   3.532   7.959 -0.1338  0.0510  0.3580
   89POPC   C3B 1620  10.375   3.281   7.688 -0.3943  0.1699 -0.1082
   89POPC   C4B 1621  10.469   3.235   7.213  0.4405  0.1368 -0.1417
   90POPC   NC3 1622   3.504   3.560   9.404  0.1512  0.2434  0.1368
   90POPC   PO4 1623   3.751   3.796   9.117  0.1756  0.0209 -0.0214
   90POPC   GL1 1624   3.567   3.576   8.875  0.0255  0.5944 -0.1426
   90POPC   GL2 1625   3.612   3.344   8.875 -0.4400 -0.1836 -0.0463
   90POPC   C1A 1626   3.304   3.839   8.446  0.0689  0.0698  0.0531
   90POPC   D2A 1627   3.144   4.010   8.028 -0.0285 -0.0411  0.1088
   90POPC   C3A 1628   3.351   4.207   7.665  0.0502 -0.1551  0.3000
   90POPC   C4A 1629   3.702   4.371   7.513  0.2012 -0.0265 -0.1888
   90POPC   C1B 1630   3.792   3.182   8.534  0.0654  0.2448  0.0466
   90POPC   C2B 1631   3.894   3.015   8.127 -0.0769  0.2432 -0.2287
   90POPC   C3B 1632   4.010   2.803   7.705  0.0097  0.0717  0.3682
   90POPC   C4B 1633   4.063   2.632   7.216  0.1037  0.0006 -0.1136
   91POPC   NC3 1634   5.082   9.800  10.158 -0.0000 -0.2663  0.0708
   91POPC   PO4 1635   5.486   9.510  10.333 -0.2702  0.0412 -0.0070
   91POPC   GL1 1636   5.420   9.351   9.983  0.0385  0.3313 -0.0318
   91POPC   GL2 1637   5.232   9.543   9.655  0.1172 -0.0102 -0.0170
   91POPC   C1A 1638   5.665   9.344   9.531 -0.1578 -0.1801 -0.3058
   91POPC   D2A 1639   5.966   9.295   9.112  0.1866 -0.1686  0.0883
   91POPC   C3A 1640   6.225   9.551   8.767  0.1806  0.0094 -0.3950
   91POPC   C4A 1641   6.350   9.616   8.398  0.3002  0.3619  0.1598
   91POPC   C1B 1642   5.134   9.503   9.226 -0.1500 -0.1583 -0.1358
   91POPC   C2B 1643   4.981   9.209   8.933  0.3262  0.2326  0.0063
   91POPC   C3B 1644   4.934   8.825   8.661  0.0712 -0.0012  0.1925
   91POPC   C4B 1645   5.157   8.512   8.440 -0.1463  0.1076  0.2784
   92POPC   NC3 1646   9.129   0.729   9.066 -0.0113  0.0380  0.1288
   92POPC   PO4 1647   9.465   0.599   9.180 -0.1873 -0.0161 -0.0557
   92POPC   GL1 1648   9.777   0.699   8.785 -0.1512 -0.4501 -0.2246
   92POPC   GL2 1649   9.825   1.084   8.578  0.0017  0.0046  0.3504
   92POPC   C1A 1650   9.781   0.668   8.378  0.1126 -0.0785  0.3288
   92POPC   D2A 1651   9.698   0.669   7.954 -0.2116 -0.0255 -0.1708
   92POPC   C3A 1652   9.995   0.520   7.670  0.0239 -0.1383 -0.1456
   92POPC   C4A 1653   9.995   0.524   7.261  0.0898 -0.1259  0.0754
   92POPC   C1B 1654   9.940   1.142   8.176  0.0590  0.0277 -0.0340
   92POPC   C2B 1655   9.830   1.179   7.765 -0.2270 -0.0815  0.3429
   92POPC   C3B 1656   9.970   1.456   7.415 -0.1203 -0.0119 -0.2455
   92POPC   C4B 1657  10.027   1.477   7.016 -0.2010  0.0974  0.0122
   93POPC   NC3 1658   3.126   5.910   9.248  0.0777  0.1543  0.0032
   93POPC   PO4 1659   3.517   5.917   9.156 -0.0706  0.1463 -0.0612
   93POPC   GL1 1660   3.354   5.884   8.806 -0.4339  0.0782 -0.0177
   93POPC   GL2 1661   3.117   5.682   8.800 -0.0323 -0.1269  0.0628
   93POPC   C1A 1662   3.452   6.034   8.442  0.0679  0.0077 -0.1983
   93POPC   D2A 1663   3.420   6.162   8.019  0.2520  0.0709 -0.2796
   93POPC   C3A 1664   3.672   5.934   7.702 -0.2152 -0.0855  0.0693
   93POPC   C4A 1665   3.922   5.651   7.562  0.0062  0.3509  0.1885
   93POPC   C1B 1666   3.061   5.753   8.398 -0.0849  0.0563 -0.0056
   93POPC   C2B 1667   2.936   5.937   8.031  0.0786 -0.2359 -0.1960
   93POPC   C3B 1668   3.121   5.814   7.660 -0.0095 -0.2287  0.1183
   93POPC   C4B 1669   3.336   5.912   7.216  0.0393 -0.0357  0.1154
   94POPC   NC3 1670   5.637   0.951   9.616  0.0252 -0.2058 -0.0025
   94POPC   PO4 1671   5.530   0.634   9.434 -0.2074  0.2006  0.0627
   94POPC   GL1 1672   5.689   0.280   9.253  0.1272 -0.0521  0.3728
   94POPC   GL2 1673   6.121   0.221   9.298  0.0544  0.0377 -0.0014
   94POPC   C1A 1674   5.664  -0.027   8.855  0.1504 -0.1117  0.5519
   94POPC   D2A 1675   5.789  -0.180   8.443 -0.2041  0.3027 -0.3491
   94POPC   C3A 1676   6.164  -0.122   8.133  0.2505  0.1329  0.0744
   94POPC   C4A 1677   6.487  -0.321   7.938 -0.0178  0.2711 -0.0004
   94POPC   C1B 1678   6.465   0.090   9.083 -0.0134 -0.0697 -0.1925
   94POPC   C2B 1679   6.809   0.027   8.944  0.0947 -0.2766  0.2822
   94POPC   C3B 1680   7.182   0.054   8.849  0.2021  0.0686 -0.1303
   94POPC   C4B 1681   7.550   0.477   8.885 -0.1119  0.0869  0.0924
   95POPC   NC3 1682  10.055   1.943   9.349 -0.0862 -0.3658  0.5729
   95POPC   PO4 1683  10.109   1.440   9.353  0.1372 -0.3922 -0.1424
   95POPC   GL1 1684  10.206   1.263   8.958 -0.1877 -0.0544 -0.1492
   95POPC   GL2 1685  10.193   0.928   9.016  0.1404  0.0416  0.2161
   95POPC   C1A 1686  10.360   1.329   8.504 -0.2005  0.0497  0.1679
   95POPC   D2A 1687  10.662   1.576   8.346 -0.0077 -0.0557 -0.1718
   95POPC   C3A 1688  10.723   1.878   7.950 -0.1407 -0.3911 -0.3175
   95POPC   C4A 1689  10.738   2.291   7.636  0.0157 -0.4405 -0.2622
   95POPC   C1B 1690  10.221   0.772   8.590 -0.3603  0.0588  0.1500
   95POPC   C2B 1691  10.390   1.000   8.140 -0.3729  0.1809 -0.2429
   95POPC   C3B 1692  10.336   1.332   7.800  0.0387  0.0426 -0.1790
   95POPC   C4B 1693  10.444   1.588   7.474  0.1659  0.0651 -0.2345
   96POPC   NC3 1694   3.127   6.820   9.424  0.0297  0.2127  0.0215
   96POPC   PO4 1695   3.509   6.910   9.324  0.2450 -0.1540  0.1394
   96POPC   GL1 1696   3.761   7.015   8.928 -0.1740  0.1943  0.3281
   96POPC   GL2 1697   3.925   6.759   8.729 -0.1585 -0.1376  0.1563
   96POPC   C1A 1698   4.168   7.147   8.832 -0.2266  0.0051  0.2442
   96POPC   D2A 1699   4.426   7.004   8.475 -0.1239  0.0223  0.5980
   96POPC   C3A 1700   4.728   6.668   8.305  0.3745  0.0871  0.1579
   96POPC   C4A 1701   5.044   6.640   8.033 -0.2123 -0.0623 -0.0926
   96POPC   C1B 1702   4.301   6.657   8.817  0.2249 -0.1302 -0.2787
   96POPC   C2B 1703   4.566   6.392   8.712  0.2221  0.3160  0.1600
   96POPC   C3B 1704   4.947   6.308   8.545 -0.0446  0.0909  0.1838
   96POPC   C4B 1705   5.327   6.612   8.502  0.1122 -0.1144 -0.2057
   97POPC   NC3 1706   4.600   4.774   9.713  0.3690 -0.1630  0.0139
   97POPC   PO4 1707   4.393   4.925   9.341 -0.0676  0.2499 -0.3090
   97POPC   GL1 1708   4.580   5.003   8.891 -0.2149 -0.1343 -0.1584
   97POPC   GL2 1709   4.861   5.068   8.894 -0.1456 -0.1739  0.0159
   97POPC   C1A 1710   4.455   5.080   8.512  0.2942 -0.1597 -0.1717
   97POPC   D2A 1711   4.469   5.308   8.047 -0.0651 -0.2153  0.0699
   97POPC   C3A 1712   4.217   5.622   7.923  0.2362  0.0825 -0.3203
   97POPC   C4A 1713   4.192   5.995   7.771 -0.2618  0.2274  0.0586
   97POPC   C1B 1714   4.848   5.394   8.588  0.0634  0.0340 -0.2690
   97POPC   C2B 1715   4.953   5.462   8.146 -0.0351  0.3337  0.1635
   97POPC   C3B 1716   5.080   5.535   7.795  0.0213  0.2392 -0.2198
   97POPC   C4B 1717   5.084   5.680   7.376 -0.0462 -0.2612  0.3323
   98POPC   NC3 1718   3.702   6.327   8.963 -0.0622  0.0764  0.3378
   98POPC   PO4 1719   3.309   6.384   9.237  0.0440  0.3079  0.0381
   98POPC   GL1 1720   3.368   6.674   8.871  0.1578 -0.2749 -0.2024
   98POPC   GL2 1721   3.024   6.778   8.918  0.0045 -0.0533 -0.4483
   98POPC   C1A 1722   3.370   6.621   8.521 -0.0742 -0.2355 -0.1590
   98POPC   D2A 1723   3.658   6.589   8.202  0.0649 -0.0168  0.1745
   98POPC   C3A 1724   3.466   6.825   7.950 -0.1382  0.4585  0.1306
   98POPC   C4A 1725   3.079   6.796   7.741 -0.2849 -0.2205  0.0214
   98POPC   C1B 1726   2.852   6.730   8.547 -0.3114 -0.1816 -0.1694
   98POPC   C2B 1727   2.705   6.776   8.154  0.2368  0.1743 -0.2780
   98POPC   C3B 1728   2.532   7.012   7.848  0.1295  0.0512  0.4068
   98POPC   C4B 1729   2.502   7.335   7.602 -0.1926  0.3622  0.1499
   99POPC   NC3 1730   0.692   5.528   8.945  0.0726  0.1404 -0.0891
   99POPC   PO4 1731   0.649   5.118   9.000  0.2308  0.0209  0.2455
   99POPC   GL1 1732   0.966   5.248   8.613  0.1471  0.0850  0.0009
   99POPC   GL2 1733   1.183   5.182   8.457 -0.0949  0.1886 -0.0614
   99POPC   C1A 1734   0.750   5.345   8.215 -0.0975  0.2548  0.0649
   99POPC   D2A 1735   0.744   5.063   7.949  0.3528  0.1991 -0.2325
   99POPC   C3A 1736   0.968   4.702   7.766 -0.2265  0.3038 -0.0563
   99POPC   C4A 1737   0.881   4.400   7.539 -0.2871  0.2552 -0.1089
   99POPC   C1B 1738   1.285   5.092   8.079  0.3267 -0.2099  0.0679
   99POPC   C2B 1739   1.499   4.844   7.667 -0.1315  0.0499  0.0538
   99POPC   C3B 1740   1.387   4.494   7.374 -0.0954 -0.2454 -0.0315
   99POPC   C4B 1741   1.258   4.130   7.125  0.4357  0.1318  0.1801
  100POPC   NC3 1742   1.385   0.896   9.804 -0.0091 -0.4203  0.2593
  100POPC   PO4 1743   1.480   0.726   9.425  0.0457  0.2827 -0.0947
  100POPC   GL1 1744   1.297   0.694   9.068 -0.2410 -0.1369 -0.1416
  100POPC   GL2 1745   1.060   0.873   8.847 -0.1065  0.1890  0.4615
  100POPC   C1A 1746   1.574   0.460   8.688  0.1220 -0.1860 -0.0736
  100POPC   D2A 1747   2.039   0.361   8.726 -0.2998 -0.2965  0.1880
  100POPC   C3A 1748   2.229   0.433   8.341  0.0510 -0.1266 -0.1413
  100POPC   C4A 1749   2.592   0.296   8.184  0.0779 -0.4808  0.1777
  100POPC   C1B 1750   1.068   0.694   8.384 -0.1995  0.2890  0.2536
  100POPC   C2B 1751   0.703   0.681   8.115 -0.0189 -0.1186 -0.2004
  100POPC   C3B 1752   0.349   0.653   7.725  0.3919 -0.3063  0.0014
  100POPC   C4B 1753   0.071   0.907   7.539  0.0560  0.0023 -0.0019
  101POPC   NC3 1754   1.366   6.234   8.985 -0.0223  0.0658  0.0036
  101POPC   PO4 1755   0.950   6.020   8.958 -0.3735 -0.0909 -0.1513
  101POPC   GL1 1756   1.076   6.018   8.520  0.0241  0.0580  0.0395
  101POPC   GL2 1757   0.870   5.766   8.520 -0.3239  0.1104  0.1482
  101POPC   C1A 1758   1.051   5.943   7.997 -0.2513 -0.0356 -0.1877
  101POPC   D2A 1759   0.806   5.878   7.651 -0.3270  0.3002  0.0358
  101POPC   C3A 1760   0.456   6.046   7.377 -0.0273 -0.1712 -0.2322
  101POPC   C4A 1761   0.097   6.230   7.084  0.1690 -0.1348 -0.1611
  101POPC   C1B 1762   0.629   5.841   8.223  0.1056  0.0537  0.1041
  101POPC   C2B 1763   0.321   5.911   7.872 -0.2813 -0.0791  0.0630
  101POPC   C3B 1764  -0.002   5.723   7.616 -0.0247  0.0721  0.3271
  101POPC   C4B 1765  -0.023   5.252   7.536 -0.0036 -0.0954  0.1730
  102POPC   NC3 1766   2.956   3.732   9.420 -0.2101  0.0587 -0.1791
  102POPC   PO4 1767   2.998   3.227   9.392  0.2111 -0.0251 -0.4453
  102POPC   GL1 1768   3.135   3.234   9.003 -0.3005  0.2594 -0.2961
  102POPC   GL2 1769   2.858   3.427   8.871  0.1134  0.0268  0.2041
  102POPC   C1A 1770   3.272   3.324   8.542 -0.0340 -0.0932 -0.1148
  102POPC   D2A 1771   3.166   3.289   8.050  0.0728  0.1850  0.0917
  102POPC   C3A 1772   3.372   3.565   7.774  0.0769 -0.2512  0.2831
  102POPC   C4A 1773   3.130   3.790   7.383  0.3045 -0.2481  0.1795
  102POPC   C1B 1774   2.817   3.476   8.465 -0.1694 -0.0286 -0.0674
  102POPC   C2B 1775   2.751   3.744   8.116 -0.0962  0.0374 -0.0145
  102POPC   C3B 1776   2.752   3.669   7.674  0.1956  0.1529 -0.1678
  102POPC   C4B 1777   2.506   3.880   7.263 -0.2192 -0.1036 -0.0949
  103POPC   NC3 1778   2.085   1.330   9.856 -0.0666  0.1126  0.2343
  103POPC   PO4 1779   1.883   0.989   9.672 -0.4681  0.0579  0.0944
  103POPC   GL1 1780   1.765   1.249   9.329  0.0940 -0.1171 -0.0210
  103POPC   GL2 1781   1.612   1.146   9.074  0.2482 -0.0200  0.0314
  103POPC   C1A 1782   1.962   1.359   8.870 -0.0439 -0.1022  0.2427
  103POPC   D2A 1783   2.141   1.423   8.468  0.1761  0.1715 -0.0096
  103POPC   C3A 1784   2.028   1.124   8.051  0.1288 -0.4027  0.2804
  103POPC   C4A 1785   1.999   1.384   7.538  0.1795 -0.3087 -0.0440
  103POPC   C1B 1786   1.547   0.997   8.634 -0.0362 -0.0887  0.0691
  103POPC   C2B 1787   1.497   1.121   8.244 -0.1125 -0.2076 -0.0206
  103POPC   C3B 1788   1.197   0.936   7.921  0.0170  0.0355  0.2526
  103POPC   C4B 1789   0.898   0.699   7.689 -0.1650 -0.3196 -0.4634
  104POPC   NC3 1790   8.940   1.604   9.268  0.3475  0.2349 -0.1249
  104POPC   PO4 1791   8.973   1.228   8.998  0.2669  0.3742  0.1193
  104POPC   GL1 1792   8.961   1.197   8.647 -0.0063 -0.0523 -0.0299
  104POPC   GL2 1793   9.291   0.965   8.617 -0.2354 -0.1090  0.0749
  104POPC   C1A 1794   9.054   1.479   8.318  0.0565 -0.1145 -0.2631
  104POPC   D2A 1795   9.062   1.575   7.805 -0.1324  0.0165 -0.1145
  104POPC   C3A 1796   8.738   1.293   7.570 -0.3622 -0.0581  0.0469
  104POPC   C4A 1797   8.556   0.786   7.323 -0.4666  0.0357 -0.1766
  104POPC   C1B 1798   9.424   1.007   8.241  0.0504  0.0476  0.2673
  104POPC   C2B 1799   9.334   1.074   7.848 -0.0378 -0.0771 -0.0962
  104POPC   C3B 1800   9.190   1.236   7.409 -0.3168 -0.0432  0.3750
  104POPC   C4B 1801   9.144   1.026   7.040 -0.0352  0.2425 -0.2841
  105POPC   NC3 1802   5.817   1.002   9.165  0.1458  0.0087 -0.2535
  105POPC   PO4 1803   6.144   0.689   9.468  0.1748 -0.2887  0.0540
  105POPC   GL1 1804   6.097   0.613   9.017 -0.0677  0.3736  0.1074
  105POPC   GL2 1805   6.300   0.799   8.960  0.1407  0.0425  0.1111
  105POPC   C1A 1806   6.108   0.254   8.828  0.0076 -0.1994 -0.0752
  105POPC   D2A 1807   6.288  -0.106   8.635  0.0342 -0.2012  0.1410
  105POPC   C3A 1808   6.668  -0.037   8.367 -0.0688 -0.2677  0.0158
  105POPC   C4A 1809   7.003  -0.107   8.070  0.0047  0.0516 -0.1218
  105POPC   C1B 1810   6.284   0.837   8.548  0.0878  0.0363 -0.4132
  105POPC   C2B 1811   6.645   0.566   8.229 -0.0608  0.2757 -0.0391
  105POPC   C3B 1812   6.762   0.321   7.901 -0.0356  0.2656  0.2974
  105POPC   C4B 1813   6.769  -0.086   7.633 -0.2642  0.0942  0.1956
  106POPC   NC3 1814   8.313   8.717  10.628 -0.0439 -0.0838 -0.0359
  106POPC   PO4 1815   8.390   9.196  10.537  0.0991  0.1314  0.2762
  106POPC   GL1 1816   8.112   9.185  10.194 -0.1678  0.1146  0.0392
  106POPC   GL2 1817   8.196   9.195   9.997  0.2457  0.0464  0.2735
  106POPC   C1A 1818   7.706   9.077   9.990 -0.1916 -0.1122  0.1119
  106POPC   D2A 1819   7.685   9.042   9.627  0.0470  0.0433 -0.1380
  106POPC   C3A 1820   7.250   8.894   9.492 -0.0528  0.0273 -0.3215
  106POPC   C4A 1821   6.972   8.959   9.173  0.3270  0.1503 -0.0411
  106POPC   C1B 1822   8.047   9.399   9.668  0.0459 -0.0710 -0.2403
  106POPC   C2B 1823   7.899   9.404   9.241  0.0340  0.0708 -0.1827
  106POPC   C3B 1824   7.763   9.286   8.776 -0.3099  0.1871  0.2964
  106POPC   C4B 1825   8.083   9.268   8.399 -0.0559 -0.2811 -0.0767
  107POPC   NC3 1826   9.294   5.300   9.432 -0.0277  0.3726 -0.0192
  107POPC   PO4 1827   9.347   5.488   9.041 -0.4768  0.0303 -0.1310
  107POPC   GL1 1828   9.323   5.297   8.651  0.4071 -0.1681 -0.3361
  107POPC   GL2 1829   9.022   5.159   8.524  0.1588  0.2015 -0.0558
  107POPC   C1A 1830   9.498   5.301   8.298 -0.1576  0.0693 -0.0317
  107POPC   D2A 1831   9.847   5.090   7.986 -0.1492 -0.0451  0.1239
  107POPC   C3A 1832   9.734   4.893   7.655 -0.0291 -0.0528  0.0572
  107POPC   C4A 1833   9.470   4.620   7.500 -0.5019  0.1346 -0.0028
  107POPC   C1B 1834   8.767   5.347   8.099  0.0091 -0.1950 -0.3298
  107POPC   C2B 1835   8.604   5.234   7.750 -0.1001  0.1822 -0.0127
  107POPC   C3B 1836   8.501   5.286   7.362  0.5656  0.0406  0.2161
  107POPC   C4B 1837   8.411   5.152   6.884 -0.0461 -0.1674 -0.2484
  108POPC   NC3 1838   4.002   2.388   9.119 -0.1024  0.1439  0.0304
  108POPC   PO4 1839   3.568   2.162   9.092 -0.3980  0.4334 -0.1299
  108POPC   GL1 1840   3.849   2.091   8.714 -0.2922 -0.0570  0.0160
  108POPC   GL2 1841   4.015   1.805   8.806  0.1139 -0.1511  0.1933
  108POPC   C1A 1842   3.887   2.222   8.308 -0.0069  0.1514 -0.0194
  108POPC   D2A 1843   3.784   2.544   8.027 -0.0316  0.1484 -0.0756
  108POPC   C3A 1844   3.433   2.836   8.261  0.2183 -0.0163 -0.2315
  108POPC   C4A 1845   2.949   2.915   8.397  0.0222 -0.2545  0.0405
  108POPC   C1B 1846   4.120   1.647   8.407  0.2160  0.2082  0.1625
  108POPC   C2B 1847   4.201   1.294   8.206  0.0948  0.0231 -0.0287
  108POPC   C3B 1848   4.163   1.266   7.805 -0.3227 -0.1145  0.0723
  108POPC   C4B 1849   4.274   1.029   7.507 -0.1052  0.2647 -0.1451
  109POPC   NC3 1850   9.307   1.788   9.052 -0.4050  0.3310 -0.0541
  109POPC   PO4 1851   9.397   2.222   8.897  0.0058  0.2100  0.0150
  109POPC   GL1 1852   9.199   2.191   8.474  0.0598  0.0960 -0.0485
  109POPC   GL2 1853   9.031   2.463   8.352  0.4978  0.0879 -0.0540
  109POPC   C1A 1854   8.857   1.930   8.131  0.1711 -0.1739 -0.0216
  109POPC   D2A 1855   8.737   1.944   7.687 -0.0285  0.0195  0.0197
  109POPC   C3A 1856   8.958   1.724   7.304  0.0434 -0.0134 -0.3030
  109POPC   C4A 1857   8.687   1.392   7.067 -0.0471  0.0628  0.0820
  109POPC   C1B 1858   8.951   2.766   8.079  0.1261 -0.2170  0.0605
  109POPC   C2B 1859   8.702   2.747   7.624  0.1730 -0.1000  0.2038
  109POPC   C3B 1860   8.710   2.564   7.194  0.0672 -0.0291 -0.1577
  109POPC   C4B 1861   8.919   2.206   7.191 -0.1207  0.0596  0.2718
  110POPC   NC3 1862   8.871   7.274   9.969 -0.0411  0.2886  0.0259
  110POPC   PO4 1863   8.925   6.869   9.698 -0.1121 -0.0508 -0.2450
  110POPC   GL1 1864   9.035   6.893   9.189 -0.3419 -0.3511 -0.3120
  110POPC   GL2 1865   9.246   7.130   9.207 -0.1798  0.3052 -0.1756
  110POPC   C1A 1866   8.756   7.023   8.807 -0.0945 -0.1142  0.0361
  110POPC   D2A 1867   8.786   7.340   8.595  0.2082 -0.1051  0.1395
  110POPC   C3A 1868   8.976   7.747   8.496  0.1770 -0.0776 -0.1671
  110POPC   C4A 1869   9.239   7.941   8.831 -0.0861  0.0699 -0.0395
  110POPC   C1B 1870   9.278   7.288   8.742 -0.1653 -0.1180 -0.1215
  110POPC   C2B 1871   9.327   7.391   8.291  0.2216 -0.1538  0.0691
  110POPC   C3B 1872   9.491   7.362   7.851  0.1258  0.1845 -0.0547
  110POPC   C4B 1873   9.846   7.327   7.709 -0.1567 -0.1429  0.1379
  111POPC   NC3 1874   5.139   1.168   9.813 -0.3185  0.0354  0.2776
  111POPC   PO4 1875   5.251   1.103   9.293  0.0506  0.3658 -0.2312
  111POPC   GL1 1876   5.327   0.915   8.946 -0.1558  0.0497 -0.0822
  111POPC   GL2 1877   5.631   0.595   8.870  0.1365  0.1211  0.1249
  111POPC   C1A 1878   5.369   0.771   8.426  0.0802  0.2725  0.1141
  111POPC   D2A 1879   5.620   0.794   8.048  0.0773 -0.1796  0.2064
  111POPC   C3A 1880   5.967   0.791   8.209  0.2189 -0.0095  0.1805
  111POPC   C4A 1881   6.327   0.877   8.031 -0.0112 -0.3282  0.3165
  111POPC   C1B 1882   5.680   0.362   8.449 -0.2613 -0.1339  0.1227
  111POPC   C2B 1883   5.710   0.252   7.970 -0.0187 -0.1653 -0.0414
  111POPC   C3B 1884   5.849   0.252   7.483  0.0225 -0.1537  0.0366
  111POPC   C4B 1885   5.538   0.395   7.109 -0.1299  0.0417  0.0924
  112POPC   NC3 1886   0.163   7.117   9.393 -0.1301 -0.1823  0.1044
  112POPC   PO4 1887   0.604   7.298   9.383  0.0100  0.0000 -0.3115
  112POPC   GL1 1888   0.395   7.515   9.056 -0.0781  0.0661  0.1139
  112POPC   GL2 1889   0.296   7.279   8.840  0.2436 -0.2471  0.1243
  112POPC   C1A 1890   0.407   7.766   8.734  0.2026  0.2962  0.0911
  112POPC   D2A 1891   0.497   7.667   8.289  0.0411 -0.0833 -0.0037
  112POPC   C3A 1892   0.493   7.960   7.891 -0.0678  0.0396  0.2405
  112POPC   C4A 1893   0.420   8.104   7.391  0.1676 -0.1203  0.1964
  112POPC   C1B 1894   0.157   7.264   8.410  0.1165 -0.0820 -0.0356
  112POPC   C2B 1895   0.160   7.411   7.932  0.2147  0.0068 -0.0629
  112POPC   C3B 1896   0.047   7.749   7.663  0.2706 -0.0796 -0.1947
  112POPC   C4B 1897   0.070   7.776   7.218  0.0915 -0.2765  0.1583
  113POPC   NC3 1898   6.861   2.423   9.323  0.0039  0.2160  0.2853
  113POPC   PO4 1899   6.989   2.563   8.962 -0.0667 -0.0214 -0.3617
  113POPC   GL1 1900   7.142   2.566   8.581 -0.0204  0.0846 -0.2507
  113POPC   GL2 1901   7.056   2.264   8.521 -0.2477 -0.1430 -0.2151
  113POPC   C1A 1902   7.435   2.529   8.210 -0.1163 -0.3062  0.1938
  113POPC   D2A 1903   7.792   2.825   8.040  0.2538 -0.2639 -0.1860
  113POPC   C3A 1904   7.799   2.917   7.603  0.0650  0.1214 -0.0507
  113POPC   C4A 1905   7.782   3.032   7.182  0.0067  0.2083 -0.3427
  113POPC   C1B 1906   7.295   1.995   8.286  0.0247 -0.0615  0.0402
  113POPC   C2B 1907   7.331   1.990   7.860  0.0173 -0.1324  0.0394
  113POPC   C3B 1908   7.536   1.861   7.426 -0.2079 -0.0524  0.2427
  113POPC   C4B 1909   7.469   1.750   7.037 -0.0772 -0.1136 -0.0365
  114POPC   NC3 1910   2.933   9.149   9.193 -0.1175 -0.1392  0.0815
  114POPC   PO4 1911   2.559   9.499   9.321 -0.0470 -0.2924  0.0674
  114POPC   GL1 1912   2.277   9.579   9.026 -0.0374  0.0705  0.1629
  114POPC   GL2 1913   2.454   9.739   8.825  0.0915 -0.1748 -0.0946
  114POPC   C1A 1914   2.149   9.379   8.522  0.0257 -0.0129  0.2022
  114POPC   D2A 1915   2.239   8.962   8.401  0.1181 -0.1924 -0.1628
  114POPC   C3A 1916   1.961   8.870   8.525  0.3367 -0.2847  0.3048
  114POPC   C4A 1917   1.576   8.779   8.618 -0.1355  0.2488  0.1726
  114POPC   C1B 1918   2.301  10.065   8.496  0.1930 -0.0262 -0.4759
  114POPC   C2B 1919   2.334  10.055   8.051 -0.2331  0.0993  0.3469
  114POPC   C3B 1920   2.519   9.910   7.668  0.0291  0.4708 -0.0196
  114POPC   C4B 1921   2.512   9.513   7.491  0.0542 -0.1763  0.0682
  115POPC   NC3 1922   8.929   9.289  10.413 -0.3671 -0.0711 -0.0145
  115POPC   PO4 1923   9.084   9.535  10.004  0.0269 -0.0634  0.1983
  115POPC   GL1 1924   8.832   9.813   9.733 -0.2573 -0.2164  0.0426
  115POPC   GL2 1925   9.055   9.981   9.639  0.2757 -0.2185  0.0757
  115POPC   C1A 1926   8.547  10.068   9.419  0.2387  0.3992  0.3911
  115POPC   D2A 1927   8.510  10.246   8.961 -0.0959  0.1760  0.2332
  115POPC   C3A 1928   8.594   9.846   8.683 -0.0250 -0.1660 -0.0789
  115POPC   C4A 1929   8.492   9.757   8.288 -0.1892  0.0681  0.1419
  115POPC   C1B 1930   9.190  10.102   9.304  0.1802 -0.2983  0.0475
  115POPC   C2B 1931   9.057  10.127   8.906 -0.1857  0.0680  0.4358
  115POPC   C3B 1932   9.165   9.941   8.591  0.1378  0.0094  0.0059
  115POPC   C4B 1933   9.032   9.739   8.228 -0.1876 -0.2360 -0.0810
  116POPC   NC3 1934   9.895   9.111  10.058 -0.3033  0.0630  0.0162
  116POPC   PO4 1935  10.184   9.271   9.771 -0.0106 -0.1003 -0.2075
  116POPC   GL1 1936  10.107   9.347   9.406 -0.0852  0.0374  0.3884
  116POPC   GL2 1937  10.086   9.010   9.254  0.2238 -0.1247  0.1817
  116POPC   C1A 1938   9.942   9.422   8.978 -0.0719 -0.0023  0.0412
  116POPC   D2A 1939   9.981   9.580   8.623  0.1428 -0.0988 -0.1258
  116POPC   C3A 1940  10.197   9.936   8.465  0.0739  0.2842 -0.0374
  116POPC   C4A 1941  10.570   9.973   8.181  0.0141 -0.1571 -0.0319
  116POPC   C1B 1942  10.071   8.640   8.825  0.0414 -0.2309  0.0900
  116POPC   C2B 1943  10.143   8.477   8.387 -0.1652  0.2193  0.0130
  116POPC   C3B 1944  10.087   8.179   8.014  0.0707 -0.3162 -0.1821
  116POPC   C4B 1945   9.881   8.171   7.578  0.5274  0.0058 -0.1161
  117POPC   NC3 1946   4.801   5.716   9.508  0.2133  0.2725  0.1072
  117POPC   PO4 1947   4.582   5.944   9.235 -0.0386  0.0061 -0.1393
  117POPC   GL1 1948   4.486   5.874   8.786  0.2512 -0.0699 -0.1238
  117POPC   GL2 1949   4.424   5.524   8.731  0.0571  0.0773 -0.1872
  117POPC   C1A 1950   4.531   5.916   8.325 -0.0386 -0.0071  0.3129
  117POPC   D2A 1951   4.641   6.184   8.028  0.1133  0.0893 -0.1719
  117POPC   C3A 1952   4.448   6.520   7.837  0.1764 -0.1396  0.1470
  117POPC   C4A 1953   4.295   6.697   7.450  0.3479  0.2262  0.0762
  117POPC   C1B 1954   4.129   5.480   8.474  0.3551  0.2027  0.3781
  117POPC   C2B 1955   3.800   5.636   8.337 -0.1235 -0.1227  0.1618
  117POPC   C3B 1956   3.379   5.632   8.055  0.0623 -0.4317  0.0501
  117POPC   C4B 1957   2.996   5.437   7.975  0.1436 -0.0726  0.0960
  118POPC   NC3 1958   3.286   1.469   9.042  0.0737  0.2115  0.2368
  118POPC   PO4 1959   3.501   1.178   9.195 -0.2705 -0.0970 -0.4063
  118POPC   GL1 1960   3.504   1.115   8.756 -0.1185 -0.0852 -0.0566
  118POPC   GL2 1961   3.678   1.444   8.742  0.3213  0.2058  0.2343
  118POPC   C1A 1962   3.503   0.567   8.701  0.1875 -0.2163 -0.4005
  118POPC   D2A 1963   3.286   0.201   8.465  0.1009 -0.0317 -0.0420
  118POPC   C3A 1964   3.472   0.146   8.093  0.0371 -0.2753 -0.2861
  118POPC   C4A 1965   3.699   0.297   7.783 -0.1149  0.0157 -0.2144
  118POPC   C1B 1966   3.610   1.731   8.320 -0.1978 -0.3336  0.4018
  118POPC   C2B 1967   3.832   1.788   7.901  0.3092  0.0938 -0.2428
  118POPC   C3B 1968   3.711   1.827   7.481  0.2507 -0.2819 -0.0212
  118POPC   C4B 1969   3.515   1.889   7.100  0.0842  0.0496 -0.0482
  119POPC   NC3 1970   8.146   5.707   9.474  0.1753  0.1659 -0.2273
  119POPC   PO4 1971   8.315   5.460   9.243  0.1003  0.1042 -0.2086
  119POPC   GL1 1972   8.169   5.553   8.815 -0.1053  0.3494 -0.1515
  119POPC   GL2 1973   8.503   5.468   8.727 -0.0102  0.0945 -0.2641
  119POPC   C1A 1974   7.997   5.265   8.469  0.0711  0.2046 -0.1601
  119POPC   D2A 1975   7.864   4.899   8.152  0.4915  0.0121 -0.2101
  119POPC   C3A 1976   7.771   5.118   7.716  0.0216  0.0455 -0.2195
  119POPC   C4A 1977   7.990   5.353   7.321 -0.1409  0.0314 -0.0972
  119POPC   C1B 1978   8.372   5.613   8.326 -0.3082  0.1684 -0.3919
  119POPC   C2B 1979   8.594   5.785   7.941  0.0260 -0.2864 -0.1115
  119POPC   C3B 1980   8.921   5.814   7.736 -0.1256 -0.0959  0.0464
  119POPC   C4B 1981   9.087   5.635   7.349 -0.2820 -0.3527  0.1471
  120POPC   NC3 1982   2.116   4.736   9.316 -0.0039  0.1393 -0.0760
  120POPC   PO4 1983   2.534   4.594   9.286 -0.2531  0.2913 -0.0297
  120POPC   GL1 1984   2.339   4.609   8.850 -0.1242  0.2461 -0.2506
  120POPC   GL2 1985   2.364   4.249   8.730  0.0666 -0.1806  0.0947
  120POPC   C1A 1986   2.085   4.839   8.525 -0.0885  0.2331  0.0175
  120POPC   D2A 1987   2.209   4.987   8.156  0.1639 -0.0787 -0.1172
  120POPC   C3A 1988   2.002   4.858   7.787  0.0967  0.1496 -0.2926
  120POPC   C4A 1989   1.876   4.666   7.396 -0.0203  0.3093 -0.0079
  120POPC   C1B 1990   2.373   4.138   8.261 -0.2445  0.1717  0.1865
  120POPC   C2B 1991   2.515   4.053   7.815 -0.0485 -0.3724 -0.0419
  120POPC   C3B 1992   2.794   4.200   7.587  0.1907 -0.0086  0.2011
  120POPC   C4B 1993   2.965   4.448   7.383 -0.2417 -0.2413 -0.0452
  121POPC   NC3 1994   8.776   4.284   8.708 -0.1208 -0.1504 -0.0414
  121POPC   PO4 1995   8.849   4.719   8.747 -0.0742 -0.0513 -0.1248
  121POPC   GL1 1996   8.844   4.609   8.314  0.1185 -0.2008 -0.0771
  121POPC   GL2 1997   8.869   4.837   8.122  0.1470  0.0945  0.3321
  121POPC   C1A 1998   8.787   4.283   8.005  0.0790  0.0419  0.0777
  121POPC   D2A 1999   8.558   4.216   7.687 -0.1526 -0.1979  0.1600
  121POPC   C3A 2000   8.287   4.067   7.547 -0.0932 -0.0955 -0.1903
  121POPC   C4A 2001   7.935   4.124   7.270  0.1259  0.0238  0.2575
  121POPC   C1B 2002   8.932   4.668   7.719 -0.0555 -0.0928  0.1378
  121POPC   C2B 2003   8.999   4.371   7.395 -0.2474 -0.3877  0.2137
  121POPC   C3B 2004   8.916   3.899   7.382 -0.0646  0.2007  0.1886
  121POPC   C4B 2005   9.136   3.568   7.488 -0.0210 -0.2276 -0.0591
  122POPC   NC3 2006   6.835   4.371   9.054 -0.0347 -0.0935 -0.2083
  122POPC   PO4 2007   7.069   4.469   8.635  0.2794  0.0408  0.0272
  122POPC   GL1 2008   6.930   4.311   8.305  0.0459 -0.1108  0.0497
  122POPC   GL2 2009   6.609   4.380   8.406  0.2800  0.1537  0.1089
  122POPC   C1A 2010   6.992   4.015   7.876 -0.0687  0.1138 -0.0300
  122POPC   D2A 2011   6.904   3.956   7.418  0.0841 -0.2548  0.0111
  122POPC   C3A 2012   6.510   3.915   7.479 -0.0800  0.0034  0.5443
  122POPC   C4A 2013   6.269   3.710   7.099 -0.3877  0.1244  0.1495
  122POPC   C1B 2014   6.258   4.347   8.084 -0.0046 -0.1626  0.1214
  122POPC   C2B 2015   5.873   4.428   7.826 -0.1880 -0.0333 -0.0748
  122POPC   C3B 2016   5.557   4.453   7.605  0.1024 -0.1327 -0.0649
  122POPC   C4B 2017   5.508   4.255   7.261  0.0247  0.3026  0.1874
  123POPC   NC3 2018   0.395   4.137   9.098  0.2636 -0.1725  0.1170
  123POPC   PO4 2019   0.758   3.787   9.066  0.1390 -0.0445 -0.1656
  123POPC   GL1 2020   0.795   3.782   8.678 -0.0637  0.0646 -0.0411
  123POPC   GL2 2021   0.541   3.704   8.493  0.0630  0.2083  0.3232
  123POPC   C1A 2022   1.044   3.778   8.358 -0.0163  0.1114 -0.2070
  123POPC   D2A 2023   0.971   3.495   7.989 -0.4157 -0.0252  0.1489
  123POPC   C3A 2024   1.289   3.585   7.673 -0.1221 -0.2115  0.2886
  123POPC   C4A 2025   1.361   3.577   7.264  0.2805  0.1447  0.1967
  123POPC   C1B 2026   0.556   3.773   8.019  0.0749  0.1375  0.1571
  123POPC   C2B 2027   0.536   3.588   7.548 -0.3319  0.3555 -0.0376
  123POPC   C3B 2028   0.811   3.388   7.349 -0.5821  0.0681  0.0660
  123POPC   C4B 2029   1.114   3.121   7.516  0.2604 -0.0056  0.1740
  124POPC   NC3 2030   0.641   0.449   9.624  0.1628  0.0967 -0.0947
  124POPC   PO4 2031   0.793   0.688   9.305  0.1750  0.0621  0.1722
  124POPC   GL1 2032   0.812   0.423   8.896 -0.0307 -0.1290 -0.0597
  124POPC   GL2 2033   1.116   0.359   8.744 -0.1355 -0.0037  0.1405
  124POPC   C1A 2034   0.553   0.553   8.551 -0.3566  0.2008  0.1286
  124POPC   D2A 2035   0.371   0.283   8.265  0.2376  0.0822  0.1924
  124POPC   C3A 2036   0.565   0.265   7.875 -0.3123  0.1540 -0.0499
  124POPC   C4A 2037   0.927   0.152   7.724  0.0001 -0.2232  0.3796
  124POPC   C1B 2038   1.382   0.072   8.361 -0.0842  0.0300  0.2289
  124POPC   C2B 2039   1.849   0.173   8.298 -0.2381 -0.1465  0.0651
  124POPC   C3B 2040   1.936   0.310   7.845  0.3343  0.2601  0.0065
  124POPC   C4B 2041   2.050   0.392   7.443 -0.4217 -0.0830 -0.4267
  125POPC   NC3 2042   1.279   7.115   9.218 -0.0392  0.1109  0.0205
  125POPC   PO4 2043   1.260   6.670   9.168  0.0277 -0.0531 -0.0696
  125POPC   GL1 2044   1.242   6.885   8.722  0.2818 -0.0398 -0.1653
  125POPC   GL2 2045   1.079   7.053   8.519 -0.0109 -0.4461 -0.0200
  125POPC   C1A 2046   1.334   6.637   8.326 -0.1192  0.2566 -0.4687
  125POPC   D2A 2047   1.136   6.471   7.999  0.1458  0.1119  0.2151
  125POPC   C3A 2048   1.208   6.196   7.617 -0.1102  0.0217  0.0234
  125POPC   C4A 2049   1.289   6.253   7.177  0.1658 -0.0423 -0.0771
  125POPC   C1B 2050   0.976   6.922   8.089  0.1409  0.0258 -0.0258
  125POPC   C2B 2051   0.951   6.988   7.573  0.0631 -0.0394 -0.1346
  125POPC   C3B 2052   1.021   7.431   7.377  0.0350 -0.1678 -0.0399
  125POPC   C4B 2053   0.881   7.620   7.010 -0.2696 -0.2338 -0.1286
  126POPC   NC3 2054   3.092   2.746   9.284 -0.0593 -0.3229  0.1252
  126POPC   PO4 2055   3.540   2.683   8.995 -0.1872  0.1768 -0.0919
  126POPC   GL1 2056   3.510   2.498   8.626 -0.3353 -0.1358 -0.1055
  126POPC   GL2 2057   3.867   2.646   8.554  0.0298 -0.1393 -0.4340
  126POPC   C1A 2058   3.338   2.181   8.316  0.1933 -0.0109  0.4142
  126POPC   D2A 2059   3.276   2.009   7.919  0.1034 -0.1640  0.0971
  126POPC   C3A 2060   2.898   1.789   7.796 -0.0831  0.2031  0.1141
  126POPC   C4A 2061   2.854   1.332   7.851 -0.2784 -0.2648  0.0125
  126POPC   C1B 2062   4.195   2.606   8.380 -0.2913 -0.2121 -0.3619
  126POPC   C2B 2063   4.442   2.733   7.991 -0.1791  0.1184  0.1283
  126POPC   C3B 2064   4.549   2.594   7.565  0.1062  0.3236  0.0428
  126POPC   C4B 2065   4.671   2.639   7.138  0.2702 -0.0547 -0.2003
  127POPC   NC3 2066   5.791   6.565  10.593  0.2399  0.0600 -0.3422
  127POPC   PO4 2067   5.714   6.850  10.245  0.0619  0.1219 -0.3476
  127POPC   GL1 2068   5.715   6.839   9.681 -0.3389 -0.1776  0.1219
  127POPC   GL2 2069   5.442   7.011   9.434  0.0032  0.0642  0.1700
  127POPC   C1A 2070   6.047   6.854   9.306 -0.4887  0.1780  0.3421
  127POPC   D2A 2071   6.083   6.784   8.839 -0.2286  0.0855 -0.3166
  127POPC   C3A 2072   6.404   6.953   8.534 -0.2716 -0.2232  0.1545
  127POPC   C4A 2073   6.509   6.836   8.088  0.1095  0.0920  0.2530
  127POPC   C1B 2074   5.336   7.248   9.104  0.1263 -0.0615  0.1743
  127POPC   C2B 2075   4.938   7.324   8.895  0.1654  0.3575  0.0142
  127POPC   C3B 2076   4.916   7.528   8.554  0.0654 -0.3932  0.1885
  127POPC   C4B 2077   4.788   7.488   8.158  0.2621  0.0497  0.3974
  128POPC   NC3 2078   6.164   0.066  10.061  0.1084  0.1712 -0.3995
  128POPC   PO4 2079   5.643  -0.050   9.965  0.0450 -0.0510 -0.2529
  128POPC   GL1 2080   5.796  -0.090   9.593 -0.3019  0.2859  0.1665
  128POPC   GL2 2081   5.512  -0.236   9.420 -0.0182  0.1175  0.3220
  128POPC   C1A 2082   6.113  -0.357   9.252  0.0202  0.4558  0.3565
  128POPC   D2A 2083   6.553  -0.392   9.115  0.2362 -0.2608  0.0072
  128POPC   C3A 2084   6.713  -0.451   8.714 -0.1967 -0.2774 -0.0041
  128POPC   C4A 2085   6.792  -0.517   8.281 -0.0575 -0.0662 -0.0599
  128POPC   C1B 2086   5.617  -0.539   9.128  0.5346  0.1140  0.0346
  128POPC   C2B 2087   5.726  -0.643   8.715 -0.1048 -0.0331 -0.0199
  128POPC   C3B 2088   5.798  -0.763   8.383 -0.1460 -0.2115 -0.2498
  128POPC   C4B 2089   5.981  -1.044   8.119 -0.0357  0.1868 -0.3383
  129POPC   NC3 2090   9.664   1.269   9.732  0.0688  0.1662  0.1925
  129POPC   PO4 2091   9.562   1.557   9.389 -0.1536 -0.2414  0.0406
  129POPC   GL1 2092   9.845   1.637   8.987  0.1783 -0.0170  0.2629
  129POPC   GL2 2093   9.811   1.966   8.917 -0.2252 -0.3000 -0.0475
  129POPC   C1A 2094   9.773   1.637   8.510  0.2551 -0.1381  0.3476
  129POPC   D2A 2095   9.473   1.499   8.123 -0.1360  0.1853  0.1631
  129POPC   C3A 2096   9.526   1.596   7.623 -0.1657 -0.0073 -0.0583
  129POPC   C4A 2097   9.564   1.759   7.151  0.3378  0.0197 -0.2831
  129POPC   C1B 2098  10.227   1.840   8.626 -0.3938  0.3483 -0.0678
  129POPC   C2B 2099  10.613   1.935   8.705  0.2170  0.1611  0.2365
  129POPC   C3B 2100  10.827   2.347   8.645 -0.3359  0.0797 -0.0811
  129POPC   C4B 2101  10.917   2.728   8.533  0.1979 -0.0900 -0.0305
  130POPC   NC3 2102   8.177   9.770  10.321 -0.3873  0.0316  0.1597
  130POPC   PO4 2103   8.556   9.604  10.247 -0.0755  0.0049 -0.1400
  130POPC   GL1 2104   8.697   9.274  10.016 -0.2449  0.0539  0.0537
  130POPC   GL2 2105   8.586   9.367   9.666 -0.3331 -0.0681  0.3159
  130POPC   C1A 2106   8.550   8.840   9.655  0.1832 -0.1947 -0.1732
  130POPC   D2A 2107   8.771   8.709   9.190  0.6407  0.1729  0.3607
  130POPC   C3A 2108   8.849   8.225   9.129  0.1173 -0.1179 -0.0431
  130POPC   C4A 2109   8.599   7.901   9.314  0.0566  0.3636  0.2127
  130POPC   C1B 2110   8.714   9.182   9.290 -0.0900  0.3534 -0.1463
  130POPC   C2B 2111   8.654   9.076   8.849 -0.3399 -0.0383  0.3341
  130POPC   C3B 2112   8.555   9.037   8.328  0.3877 -0.0685  0.2548
  130POPC   C4B 2113   8.153   8.816   8.074 -0.2113  0.2279  0.0315
  131POPC   NC3 2114   4.716   4.541   9.302 -0.1116  0.4075  0.0021
  131POPC   PO4 2115   4.663   4.128   9.298 -0.1627 -0.2993 -0.1602
  131POPC   GL1 2116   4.608   4.184   8.852  0.1264  0.0638  0.1300
  131POPC   GL2 2117   4.462   4.480   8.814  0.1055  0.1551  0.0049
  131POPC   C1A 2118   4.800   4.134   8.490  0.2984  0.1841 -0.1873
  131POPC   D2A 2119   4.972   3.854   8.198  0.0335 -0.2388 -0.4288
  131POPC   C3A 2120   5.074   3.495   8.408 -0.0398 -0.2255  0.0871
  131POPC   C4A 2121   5.307   3.118   8.233 -0.3570 -0.0499  0.0140
  131POPC   C1B 2122   4.563   4.608   8.410 -0.3986 -0.0481  0.0334
  131POPC   C2B 2123   4.452   4.783   8.029  0.1831  0.1207 -0.1680
  131POPC   C3B 2124   4.350   5.043   7.667  0.1100 -0.0556  0.0178
  131POPC   C4B 2125   4.381   5.439   7.462  0.2889 -0.3074 -0.0941
  132POPC   NC3 2126   0.527   3.356   8.845 -0.0998  0.0804  0.0275
  132POPC   PO4 2127   0.207   3.249   9.051 -0.0368  0.0566  0.2204
  132POPC   GL1 2128   0.164   3.085   8.572  0.0377 -0.1674  0.0500
  132POPC   GL2 2129   0.202   3.353   8.396  0.1292 -0.3274  0.0789
  132POPC   C1A 2130   0.269   2.686   8.550  0.3685 -0.2598 -0.1854
  132POPC   D2A 2131   0.267   2.255   8.353  0.1963  0.1434 -0.1875
  132POPC   C3A 2132   0.114   1.972   8.115 -0.1506  0.0610  0.0148
  132POPC   C4A 2133  -0.153   1.611   7.985 -0.0040 -0.0144 -0.0542
  132POPC   C1B 2134   0.574   3.281   8.158 -0.1925  0.1990 -0.0959
  132POPC   C2B 2135   0.629   3.093   7.676 -0.1568  0.2122 -0.1617
  132POPC   C3B 2136   0.482   2.757   7.479  0.0092 -0.3542 -0.0605
  132POPC   C4B 2137   0.444   2.482   7.086  0.3406 -0.4101 -0.1638
  133POPC   NC3 2138   7.157   3.957   8.602  0.1902  0.0468  0.2641
  133POPC   PO4 2139   6.730   4.017   8.721  0.0751 -0.1837 -0.0345
  133POPC   GL1 2140   6.601   3.863   8.312  0.0748 -0.1056  0.0104
  133POPC   GL2 2141   6.706   3.545   8.187  0.0288 -0.3460 -0.1380
  133POPC   C1A 2142   6.319   3.809   7.933 -0.0974 -0.0767 -0.1276
  133POPC   D2A 2143   6.222   3.563   7.618  0.0663 -0.2489  0.4682
  133POPC   C3A 2144   5.824   3.289   7.767  0.3204 -0.2428 -0.2581
  133POPC   C4A 2145   5.387   3.113   7.663 -0.0655  0.0591 -0.4551
  133POPC   C1B 2146   6.701   3.483   7.736 -0.1839  0.2594 -0.1059
  133POPC   C2B 2147   6.731   3.417   7.251 -0.0248  0.3336 -0.2055
  133POPC   C3B 2148   6.715   3.785   6.990  0.1681 -0.2937  0.0443
  133POPC   C4B 2149   6.514   4.192   7.072 -0.1517 -0.1538  0.0965
  134POPC   NC3 2150   4.290   7.307   9.466  0.3099  0.0746  0.0662
  134POPC   PO4 2151   4.003   7.588   9.699 -0.0355  0.0305  0.0983
  134POPC   GL1 2152   4.273   7.826   9.488  0.1130  0.2191  0.1428
  134POPC   GL2 2153   4.573   7.696   9.405  0.0345 -0.0591  0.2930
  134POPC   C1A 2154   4.405   8.038   9.056 -0.1064  0.1148  0.0996
  134POPC   D2A 2155   4.471   7.971   8.629 -0.0676  0.0083 -0.1447
  134POPC   C3A 2156   4.766   8.074   8.298 -0.0355  0.2104 -0.1299
  134POPC   C4A 2157   5.139   8.040   8.185 -0.2500 -0.1639 -0.4720
  134POPC   C1B 2158   4.530   7.615   8.948 -0.1473 -0.0367  0.2222
  134POPC   C2B 2159   4.425   7.517   8.573 -0.1806 -0.0435  0.0747
  134POPC   C3B 2160   4.263   7.829   8.198 -0.0154  0.2928 -0.1045
  134POPC   C4B 2161   4.197   7.971   7.782  0.3484  0.1540 -0.0979
  135POPC   NC3 2162   0.198   6.134   9.510  0.0058  0.1676  0.1057
  135POPC   PO4 2163   0.446   5.805   9.260  0.0210 -0.0449 -0.3346
  135POPC   GL1 2164   0.428   5.920   8.800  0.2455  0.1348  0.1755
  135POPC   GL2 2165   0.547   6.136   8.681 -0.0855  0.1254 -0.1544
  135POPC   C1A 2166   0.164   5.844   8.394 -0.1031  0.1043 -0.2951
  135POPC   D2A 2167  -0.127   5.922   8.108  0.0706 -0.0135  0.1731
  135POPC   C3A 2168  -0.404   5.592   7.889  0.0315  0.2600  0.0493
  135POPC   C4A 2169  -0.604   5.336   7.465  0.1502  0.0211 -0.0882
  135POPC   C1B 2170   0.733   6.330   8.296 -0.0284 -0.0727 -0.0997
  135POPC   C2B 2171   0.648   6.313   7.804 -0.2026 -0.3486  0.1570
  135POPC   C3B 2172   0.764   6.434   7.412  0.0561  0.2210  0.0496
  135POPC   C4B 2173   0.945   6.732   7.086 -0.4832  0.2302  0.2367
  136POPC   NC3 2174   2.039   9.146   9.128  0.1275  0.2053  0.2434
  136POPC   PO4 2175   1.526   9.138   9.202 -0.1758  0.5776  0.1087
  136POPC   GL1 2176   1.196   8.970   8.891 -0.0937  0.1594  0.5193
  136POPC   GL2 2177   0.860   9.018   8.910  0.1522 -0.0749 -0.2781
  136POPC   C1A 2178   1.214   8.925   8.395  0.2810  0.2874  0.3303
  136POPC   D2A 2179   1.187   8.988   7.852  0.0270 -0.1577 -0.0833
  136POPC   C3A 2180   1.516   8.738   7.702 -0.4599  0.4451  0.0630
  136POPC   C4A 2181   1.800   8.512   7.553 -0.4003 -0.4128 -0.1306
  136POPC   C1B 2182   0.761   9.113   8.483  0.1625 -0.0114  0.0670
  136POPC   C2B 2183   0.680   8.924   8.008  0.0431  0.0159 -0.0588
  136POPC   C3B 2184   0.582   8.714   7.579  0.3527 -0.0168 -0.3388
  136POPC   C4B 2185   0.274   8.935   7.310 -0.1221 -0.1636 -0.0304
  137POPC   NC3 2186   7.030   1.009   9.236 -0.0726 -0.1983  0.0653
  137POPC   PO4 2187   6.674   1.038   9.148  0.0259  0.2125 -0.1865
  137POPC   GL1 2188   6.756   0.752   8.787  0.3194 -0.2088 -0.0686
  137POPC   GL2 2189   7.016   0.584   8.924 -0.2216 -0.2941 -0.0326
  137POPC   C1A 2190   6.585   0.428   8.723  0.1573 -0.1115  0.1937
  137POPC   D2A 2191   6.228   0.335   8.357 -0.1102  0.1385  0.1519
  137POPC   C3A 2192   6.232   0.363   7.959  0.4195 -0.3176 -0.0027
  137POPC   C4A 2193   6.380   0.260   7.560  0.1016 -0.1079  0.0323
  137POPC   C1B 2194   7.010   0.387   8.535  0.2059  0.0066  0.0474
  137POPC   C2B 2195   7.191   0.525   8.142 -0.2440 -0.1418 -0.0063
  137POPC   C3B 2196   7.235   0.544   7.709  0.1854 -0.0606 -0.0979
  137POPC   C4B 2197   7.451   0.369   7.284  0.2674 -0.2079 -0.0522
  138POPC   NC3 2198   0.112   8.270   9.836  0.2058  0.0865 -0.0105
  138POPC   PO4 2199  -0.354   8.295   9.727 -0.1457 -0.2787 -0.0511
  138POPC   GL1 2200  -0.487   8.630   9.574 -0.0767  0.2420  0.1650
  138POPC   GL2 2201  -0.389   8.982   9.629 -0.2467  0.1590  0.0205
  138POPC   C1A 2202  -0.448   8.695   9.162  0.1422 -0.4135  0.1005
  138POPC   D2A 2203  -0.470   9.010   8.887 -0.0177 -0.0836 -0.0907
  138POPC   C3A 2204  -0.269   9.022   8.564 -0.3692 -0.0879  0.1920
  138POPC   C4A 2205  -0.256   9.220   8.239 -0.0954  0.1870 -0.2288
  138POPC   C1B 2206  -0.554   9.273   9.420 -0.2543  0.2290  0.1596
  138POPC   C2B 2207  -0.702   9.437   9.033  0.2061  0.0930 -0.1190
  138POPC   C3B 2208  -0.648   9.360   8.565  0.2990 -0.0173 -0.1089
  138POPC   C4B 2209  -0.705   9.504   8.156  0.2366  0.2888  0.2349
  139POPC   NC3 2210   3.041   0.044   9.497  0.0174 -0.0098  0.1970
  139POPC   PO4 2211   3.420  -0.231   9.270  0.3216 -0.2387 -0.2599
  139POPC   GL1 2212   3.184  -0.475   8.894 -0.1335 -0.1539 -0.1441
  139POPC   GL2 2213   2.894  -0.682   8.861 -0.2874 -0.1958 -0.1436
  139POPC   C1A 2214   3.178  -0.508   8.375 -0.0895  0.0128 -0.0375
  139POPC   D2A 2215   3.334  -0.354   7.870  0.1976  0.1836  0.1708
  139POPC   C3A 2216   3.684  -0.574   7.670 -0.0212  0.1852 -0.0769
  139POPC   C4A 2217   3.825  -1.085   7.691 -0.0946 -0.1305  0.0054
  139POPC   C1B 2218   2.659  -0.804   8.485 -0.0435 -0.0171  0.0060
  139POPC   C2B 2219   2.528  -0.821   7.997 -0.3858  0.0673  0.3234
  139POPC   C3B 2220   2.867  -0.937   7.715  0.1204  0.0474  0.3002
  139POPC   C4B 2221   3.288  -1.030   7.626 -0.1426  0.0877  0.0216
  140POPC   NC3 2222   4.004   4.668   9.128  0.0133 -0.2231 -0.2932
  140POPC   PO4 2223   3.690   4.445   9.368  0.1378  0.4813  0.1181
  140POPC   GL1 2224   3.572   4.380   8.992  0.0280  0.1818  0.0235
  140POPC   GL2 2225   3.567   4.731   8.859 -0.1819 -0.2268 -0.0282
  140POPC   C1A 2226   3.630   4.125   8.596 -0.0005  0.0620 -0.0543
  140POPC   D2A 2227   3.792   3.717   8.432  0.0990 -0.0122 -0.0150
  140POPC   C3A 2228   4.037   3.669   8.126 -0.2013  0.1345  0.3378
  140POPC   C4A 2229   4.113   3.853   7.643 -0.0934  0.2723 -0.1485
  140POPC   C1B 2230   3.771   4.907   8.506 -0.0391  0.3466 -0.0876
  140POPC   C2B 2231   3.902   5.103   8.181  0.1546  0.0397 -0.2285
  140POPC   C3B 2232   3.685   5.289   7.851 -0.1855 -0.1624 -0.0977
  140POPC   C4B 2233   3.321   5.218   7.721 -0.2167  0.0156 -0.2470
  141POPC   NC3 2234   2.051   2.239   9.360 -0.0796 -0.0585 -0.3544
  141POPC   PO4 2235   1.911   1.759   9.462 -0.1811  0.1575  0.0429
  141POPC   GL1 2236   1.999   1.871   9.016 -0.2662  0.0022  0.0577
  141POPC   GL2 2237   1.740   2.130   8.999  0.0281  0.2342 -0.0377
  141POPC   C1A 2238   2.133   1.927   8.520  0.0396 -0.2662  0.1678
  141POPC   D2A 2239   2.380   1.876   8.237  0.0413  0.4164 -0.3413
  141POPC   C3A 2240   2.802   2.048   8.206  0.2101 -0.1282  0.2505
  141POPC   C4A 2241   2.956   2.436   8.203 -0.2018  0.0317 -0.0762
  141POPC   C1B 2242   1.629   2.206   8.640  0.2343 -0.0573 -0.0599
  141POPC   C2B 2243   1.642   2.208   8.227 -0.1639 -0.0062 -0.0748
  141POPC   C3B 2244   1.601   2.156   7.724 -0.2398 -0.2516  0.0101
  141POPC   C4B 2245   1.377   2.291   7.336  0.1990 -0.2713 -0.0152
  142POPC   NC3 2246   9.001   0.138   9.998  0.4374  0.0314 -0.0808
  142POPC   PO4 2247   8.580  -0.013  10.041  0.0917  0.1973 -0.1493
  142POPC   GL1 2248   8.285  -0.317   9.811  0.0867  0.2505  0.2156
  142POPC   GL2 2249   8.076  -0.021   9.551 -0.2638 -0.0226 -0.0915
  142POPC   C1A 2250   8.360  -0.549   9.286  0.1397  0.0040  0.2741
  142POPC   D2A 2251   8.262  -0.823   8.856 -0.0915  0.2335 -0.1445
  142POPC   C3A 2252   8.120  -1.176   8.843 -0.0419  0.2463 -0.0384
  142POPC   C4A 2253   8.244  -1.247   9.224 -0.5365 -0.1012  0.1368
  142POPC   C1B 2254   8.106  -0.139   9.122 -0.3760 -0.0477 -0.1599
  142POPC   C2B 2255   7.996  -0.402   8.737  0.0465  0.1837  0.0118
  142POPC   C3B 2256   7.753  -0.526   8.383 -0.1463 -0.0180 -0.3037
  142POPC   C4B 2257   7.518  -0.392   8.164 -0.2168 -0.3154  0.0425
  143POPC   NC3 2258   0.951   7.221   9.751 -0.1981  0.2633  0.2242
  143POPC   PO4 2259   1.131   7.521   9.461  0.3520  0.0613 -0.1190
  143POPC   GL1 2260   1.090   7.577   9.080 -0.1008  0.0719  0.0684
  143POPC   GL2 2261   1.150   7.894   9.052 -0.1486 -0.0323  0.0128
  143POPC   C1A 2262   0.892   7.544   8.697 -0.1879 -0.0467  0.1141
  143POPC   D2A 2263   1.032   7.508   8.202  0.1154  0.1616  0.0090
  143POPC   C3A 2264   0.829   7.553   7.853 -0.2420 -0.2188  0.1174
  143POPC   C4A 2265   0.551   7.343   7.635  0.0911 -0.0969 -0.1275
  143POPC   C1B 2266   0.849   8.042   8.796  0.0655 -0.0767 -0.3394
  143POPC   C2B 2267   0.761   8.097   8.390 -0.1824 -0.0559 -0.1243
  143POPC   C3B 2268   0.981   7.969   8.060 -0.1907  0.0087 -0.2393
  143POPC   C4B 2269   1.241   7.744   7.745  0.4496 -0.3786  0.0763
  144POPC   NC3 2270   8.436   7.975  10.342 -0.1764  0.1162  0.1292
  144POPC   PO4 2271   8.659   8.424  10.426 -0.0375 -0.2177  0.1913
  144POPC   GL1 2272   8.656   8.336   9.987  0.1542  0.2716 -0.2999
  144POPC   GL2 2273   8.459   8.116   9.825 -0.2066 -0.1069  0.0120
  144POPC   C1A 2274   8.699   8.407   9.553  0.0507 -0.0597  0.1044
  144POPC   D2A 2275   8.336   8.452   9.370 -0.1710 -0.0682  0.1852
  144POPC   C3A 2276   8.409   8.448   9.030 -0.0975  0.1232  0.2107
  144POPC   C4A 2277   8.342   8.575   8.562  0.0852 -0.0279  0.1221
  144POPC   C1B 2278   8.221   7.767   9.665 -0.4339 -0.1646  0.0946
  144POPC   C2B 2279   8.178   7.548   9.287  0.1133 -0.2929 -0.3053
  144POPC   C3B 2280   8.246   7.201   9.012 -0.0870  0.2614  0.3978
  144POPC   C4B 2281   7.921   6.926   8.703  0.1969  0.4706  0.2290
  145POPC   NC3 2282   0.335   7.590   9.689 -0.0684  0.0363  0.0640
  145POPC   PO4 2283  -0.073   7.451   9.650 -0.0737  0.1633 -0.1997
  145POPC   GL1 2284  -0.106   7.553   9.240  0.1200  0.2304  0.0136
  145POPC   GL2 2285  -0.211   7.225   9.135 -0.1863  0.0548 -0.2032
  145POPC   C1A 2286   0.023   7.921   9.013 -0.0943 -0.0140 -0.1508
  145POPC   D2A 2287  -0.131   8.069   8.683  0.0820  0.1365  0.0750
  145POPC   C3A 2288  -0.474   8.488   8.610 -0.2040 -0.2071 -0.1473
  145POPC   C4A 2289  -0.653   8.825   8.328 -0.2813  0.1541  0.0458
  145POPC   C1B 2290  -0.380   7.180   8.682  0.5090  0.0072  0.1325
  145POPC   C2B 2291  -0.580   7.013   8.423 -0.1319 -0.0284  0.1177
  145POPC   C3B 2292  -0.548   6.884   8.016 -0.0057  0.2093 -0.0594
  145POPC   C4B 2293  -0.477   6.876   7.620 -0.1642  0.2193 -0.0712
  146POPC   NC3 2294   6.354   9.456  10.295  0.0918 -0.0381  0.1481
  146POPC   PO4 2295   6.338   9.024  10.413  0.1487 -0.0163  0.0146
  146POPC   GL1 2296   6.168   9.033   9.960  0.1780 -0.0582 -0.4044
  146POPC   GL2 2297   5.876   9.149   9.958 -0.0368 -0.3250  0.0434
  146POPC   C1A 2298   6.155   8.879   9.462 -0.2858  0.0190 -0.1610
  146POPC   D2A 2299   6.488   8.822   9.136 -0.0672 -0.0798  0.4115
  146POPC   C3A 2300   6.421   8.727   8.755  0.0971 -0.0347 -0.0596
  146POPC   C4A 2301   6.275   8.430   8.543 -0.1661 -0.0765 -0.1516
  146POPC   C1B 2302   6.192   9.408   9.610 -0.1121  0.0816  0.0800
  146POPC   C2B 2303   6.490   9.758   9.615 -0.0149 -0.1688 -0.2013
  146POPC   C3B 2304   6.802  10.164   9.419  0.0239  0.3137  0.1415
  146POPC   C4B 2305   7.039  10.418   9.468  0.2083  0.3360 -0.1832
  147POPC   NC3 2306   6.334   3.706   8.796  0.2970  0.0042 -0.3277
  147POPC   PO4 2307   6.279   3.224   8.967 -0.0010 -0.1555 -0.0876
  147POPC   GL1 2308   6.438   3.142   8.466  0.0945 -0.2843  0.2293
  147POPC   GL2 2309   6.300   2.823   8.279 -0.0183  0.1703  0.2095
  147POPC   C1A 2310   6.310   3.242   7.985  0.0485 -0.0443 -0.1119
  147POPC   D2A 2311   6.298   3.046   7.591 -0.1156 -0.0809 -0.2210
  147POPC   C3A 2312   6.258   3.188   7.186 -0.1235 -0.1039 -0.0798
  147POPC   C4A 2313   6.483   3.385   6.784  0.3748  0.0418  0.0417
  147POPC   C1B 2314   5.950   2.472   8.281  0.0238 -0.0195  0.0012
  147POPC   C2B 2315   5.623   2.124   8.085  0.1789 -0.0825 -0.2009
  147POPC   C3B 2316   5.285   2.124   7.695 -0.0245 -0.1681  0.0462
  147POPC   C4B 2317   5.041   2.215   7.296 -0.1268 -0.3382 -0.1014
  148POPC   NC3 2318   5.635   5.407   9.707  0.4032 -0.1081  0.1807
  148POPC   PO4 2319   5.282   5.325   9.451 -0.1445  0.0378 -0.3008
  148POPC   GL1 2320   5.327   5.177   9.096  0.1453  0.2319 -0.0708
  148POPC   GL2 2321   5.568   5.342   9.020  0.0318  0.0281 -0.2057
  148POPC   C1A 2322   5.566   4.825   8.896 -0.1675 -0.0774 -0.2760
  148POPC   D2A 2323   5.532   4.573   8.557 -0.0057 -0.2438  0.1179
  148POPC   C3A 2324   5.419   4.687   8.091  0.0439 -0.2642 -0.1018
  148POPC   C4A 2325   5.091   4.608   7.869 -0.2538  0.1519  0.1160
  148POPC   C1B 2326   5.363   5.189   8.541 -0.0015 -0.0777 -0.2909
  148POPC   C2B 2327   5.398   5.195   8.089  0.1456  0.0058  0.1074
  148POPC   C3B 2328   5.553   5.321   7.719  0.1655 -0.3750 -0.2911
  148POPC   C4B 2329   5.951   5.373   7.526 -0.0311 -0.1516 -0.2112
  149POPC   NC3 2330   9.493   6.730   9.533  0.0124  0.1530 -0.1241
  149POPC   PO4 2331   9.780   6.272   9.413 -0.1791 -0.1499  0.1409
  149POPC   GL1 2332   9.726   6.332   9.006 -0.0348  0.3549 -0.0972
  149POPC   GL2 2333   9.982   6.145   8.986 -0.3394  0.1862 -0.0642
  149POPC   C1A 2334   9.635   6.495   8.506 -0.2599 -0.2233  0.0823
  149POPC   D2A 2335   9.865   6.440   8.134  0.0947 -0.0213 -0.3645
  149POPC   C3A 2336   9.574   6.382   7.780 -0.1634 -0.2950  0.0377
  149POPC   C4A 2337   9.116   6.243   7.633  0.0406  0.1688 -0.1633
  149POPC   C1B 2338  10.059   6.220   8.624 -0.2029  0.2124 -0.0587
  149POPC   C2B 2339  10.384   6.371   8.276 -0.1379  0.1561 -0.2962
  149POPC   C3B 2340  10.327   6.436   7.869  0.0970 -0.3054 -0.1196
  149POPC   C4B 2341  10.346   6.540   7.525  0.0024  0.3227  0.1067
  150POPC   NC3 2342   8.506   3.129   8.566  0.0771  0.5987  0.0406
  150POPC   PO4 2343   8.850   3.480   8.613  0.1024  0.2647  0.0998
  150POPC   GL1 2344   8.726   3.355   8.212  0.0109 -0.0295  0.1113
  150POPC   GL2 2345   9.097   3.321   8.178 -0.1725  0.2445 -0.1091
  150POPC   C1A 2346   8.802   3.251   7.753  0.2134 -0.0281  0.1024
  150POPC   D2A 2347   9.049   3.066   7.412  0.1031 -0.1580  0.3066
  150POPC   C3A 2348   9.145   2.818   7.091 -0.2294 -0.1676  0.1764
  150POPC   C4A 2349   9.561   2.758   6.838 -0.1150  0.1359 -0.0521
  150POPC   C1B 2350   9.319   3.033   7.904 -0.1180  0.0252  0.1439
  150POPC   C2B 2351   9.555   3.138   7.591 -0.0314 -0.3729  0.0500
  150POPC   C3B 2352   9.926   3.259   7.523  0.1492  0.0970 -0.1637
  150POPC   C4B 2353  10.159   3.693   7.411  0.0878  0.3448  0.1883
  151POPC   NC3 2354   0.952   2.353   9.229  0.2631 -0.4016  0.0319
  151POPC   PO4 2355   1.132   2.022   9.479  0.0646  0.0250  0.0388
  151POPC   GL1 2356   1.257   1.958   9.054 -0.1274 -0.0181  0.0744
  151POPC   GL2 2357   1.512   1.699   8.855  0.0120  0.1389 -0.3075
  151POPC   C1A 2358   0.967   1.856   8.653  0.0280  0.3528  0.0113
  151POPC   D2A 2359   0.992   1.969   8.211  0.2471  0.0873 -0.1688
  151POPC   C3A 2360   1.199   2.294   7.994  0.0548  0.1677  0.4056
  151POPC   C4A 2361   1.436   2.693   7.846  0.0548 -0.1869 -0.0531
  151POPC   C1B 2362   1.594   1.669   8.425 -0.1598 -0.3855  0.0908
  151POPC   C2B 2363   1.754   1.550   8.006 -0.0447 -0.0802  0.2912
  151POPC   C3B 2364   1.582   1.652   7.694 -0.1461 -0.2266  0.2427
  151POPC   C4B 2365   1.196   1.814   7.659 -0.1054 -0.4197  0.1573
  152POPC   NC3 2366   2.452   7.729   9.467 -0.0328 -0.3552 -0.1339
  152POPC   PO4 2367   2.754   7.545   9.261  0.1981 -0.0915  0.1658
  152POPC   GL1 2368   2.821   7.543   8.940  0.1600  0.1924 -0.1832
  152POPC   GL2 2369   2.877   7.276   8.867  0.4402  0.0301 -0.0181
  152POPC   C1A 2370   2.532   7.662   8.525 -0.1780  0.3034  0.2881
  152POPC   D2A 2371   2.433   7.883   8.181 -0.0867 -0.1244 -0.0883
  152POPC   C3A 2372   2.692   7.760   7.938  0.3869  0.0216 -0.0249
  152POPC   C4A 2373   2.843   7.386   7.916 -0.2282 -0.2685  0.0862
  152POPC   C1B 2374   3.296   7.097   8.655  0.3422  0.0308 -0.0211
  152POPC   C2B 2375   3.666   7.118   8.431  0.0377  0.1375  0.1156
  152POPC   C3B 2376   4.028   7.274   8.339 -0.1920  0.3158 -0.0836
  152POPC   C4B 2377   4.301   7.333   8.092  0.4270  0.3270 -0.0865
  153POPC   NC3 2378   9.977   0.532   9.219 -0.1784 -0.2612 -0.3837
  153POPC   PO4 2379  10.127   0.064   9.299  0.0645 -0.1759 -0.1864
  153POPC   GL1 2380   9.882   0.248   8.886 -0.0623  0.2766  0.2406
  153POPC   GL2 2381   9.995   0.237   8.530  0.0478  0.0781 -0.0589
  153POPC   C1A 2382   9.540   0.210   8.661 -0.1495 -0.0465 -0.0534
  153POPC   D2A 2383   9.277   0.528   8.516 -0.4383 -0.0434 -0.3269
  153POPC   C3A 2384   9.166   0.593   7.994  0.1476 -0.1889  0.3297
  153POPC   C4A 2385   9.199   0.720   7.557  0.1441  0.0737  0.5750
  153POPC   C1B 2386   9.958   0.161   8.025 -0.2372  0.1180 -0.3375
  153POPC   C2B 2387   9.576   0.215   7.774  0.0821  0.1928 -0.0965
  153POPC   C3B 2388   9.110   0.242   7.587  0.1369  0.1494 -0.1989
  153POPC   C4B 2389   8.687   0.254   7.516 -0.0684  0.2105 -0.2249
  154POPC   NC3 2390   9.818  10.115   9.700 -0.2496  0.1063  0.0449
  154POPC   PO4 2391  10.084   9.820   9.750 -0.1312  0.1604  0.1581
  154POPC   GL1 2392   9.804   9.763   9.311 -0.2123 -0.1421 -0.3061
  154POPC   GL2 2393   9.467   9.718   9.553  0.0533 -0.0985  0.2060
  154POPC   C1A 2394   9.555   9.930   8.886  0.1104  0.1836 -0.3694
  154POPC   D2A 2395   9.630   9.910   8.430  0.2800  0.0380  0.2226
  154POPC   C3A 2396   9.864   9.757   8.081  0.4543 -0.2949  0.1852
  154POPC   C4A 2397   9.828   9.513   7.696 -0.2817  0.1550  0.0497
  154POPC   C1B 2398   9.067   9.613   9.309 -0.1110  0.3314  0.2114
  154POPC   C2B 2399   8.984   9.619   8.935  0.0575  0.0041 -0.0578
  154POPC   C3B 2400   9.016   9.352   8.616  0.3088  0.4257 -0.1523
  154POPC   C4B 2401   9.050   9.179   8.228  0.0617  0.0311 -0.3327
  155POPC   NC3 2402   1.819   2.965   9.448 -0.1206  0.1139 -0.0299
  155POPC   PO4 2403   1.822   2.635   9.223  0.1142 -0.1096  0.0471
  155POPC   GL1 2404   1.670   2.673   8.741 -0.1722  0.1396  0.3136
  155POPC   GL2 2405   1.782   2.957   8.718 -0.2156  0.0318  0.0713
  155POPC   C1A 2406   1.636   2.750   8.319 -0.1260  0.0705  0.0712
  155POPC   D2A 2407   1.730   3.003   8.025  0.2516  0.2482  0.2007
  155POPC   C3A 2408   1.524   3.165   7.724 -0.0113 -0.2056 -0.0120
  155POPC   C4A 2409   1.528   3.082   7.226 -0.4117  0.1329 -0.0692
  155POPC   C1B 2410   2.104   2.956   8.404  0.0810 -0.2114 -0.1783
  155POPC   C2B 2411   2.221   3.029   7.888  0.1325 -0.1868 -0.1925
  155POPC   C3B 2412   2.532   2.735   7.618  0.2354  0.0560  0.3202
  155POPC   C4B 2413   2.640   2.948   7.239  0.2642  0.1416 -0.0746
  156POPC   NC3 2414   8.945   3.469   9.067  0.0655  0.0799 -0.0308
  156POPC   PO4 2415   9.329   3.285   8.846  0.3662  0.0150 -0.1823
  156POPC   GL1 2416   9.515   3.210   8.449 -0.2110 -0.1279  0.0122
  156POPC   GL2 2417   9.669   2.960   8.564  0.0401 -0.1732  0.0482
  156POPC   C1A 2418   9.788   3.109   8.099  0.3675 -0.0646  0.0154
  156POPC   D2A 2419   9.879   2.785   7.804 -0.0928 -0.1305  0.1607
  156POPC   C3A 2420  10.151   2.802   7.471  0.3318  0.0752 -0.0946
  156POPC   C4A 2421  10.135   2.659   7.060  0.2196  0.3590  0.2054
  156POPC   C1B 2422   9.459   2.695   8.255  0.0273  0.0772 -0.2477
  156POPC   C2B 2423   9.460   2.554   7.950 -0.3812  0.0379  0.1754
  156POPC   C3B 2424   9.777   2.246   7.768 -0.1612  0.2268  0.0776
  156POPC   C4B 2425  10.014   1.930   7.599 -0.2820  0.0730 -0.1353
  157POPC   NC3 2426   4.537   7.958   3.815  0.2312 -0.0465  0.1674
  157POPC   PO4 2427   4.604   7.863   4.180 -0.0236 -0.0594  0.1914
  157POPC   GL1 2428   4.653   7.975   4.601 -0.0794  0.2615  0.0851
  157POPC   GL2 2429   4.922   8.256   4.632  0.3490  0.0499  0.1649
  157POPC   C1A 2430   4.526   8.221   4.956 -0.1492  0.2725 -0.1419
  157POPC   D2A 2431   4.628   8.381   5.372  0.1364  0.0884  0.1795
  157POPC   C3A 2432   4.304   8.260   5.595 -0.0089  0.0171  0.2538
  157POPC   C4A 2433   3.952   8.679   5.526  0.2958 -0.1227 -0.2344
  157POPC   C1B 2434   5.025   8.422   5.093  0.1726  0.3457  0.1136
  157POPC   C2B 2435   5.151   8.384   5.477 -0.0308 -0.1297  0.2524
  157POPC   C3B 2436   5.512   8.349   5.833 -0.0306  0.1267 -0.1742
  157POPC   C4B 2437   5.808   8.346   6.073  0.0653 -0.1064  0.3142
  158POPC   NC3 2438   5.199   0.683   4.706  0.2109 -0.0674  0.0453
  158POPC   PO4 2439   5.241   0.722   5.172  0.2166  0.3269  0.0788
  158POPC   GL1 2440   5.436   0.465   5.502 -0.3743  0.1369 -0.0885
  158POPC   GL2 2441   5.490   0.253   5.365  0.1081 -0.3041 -0.2717
  158POPC   C1A 2442   5.672   0.229   5.877 -0.1627  0.1367 -0.0186
  158POPC   D2A 2443   5.729   0.124   6.276  0.2285  0.0727  0.1342
  158POPC   C3A 2444   5.460   0.380   6.568 -0.0556 -0.6007 -0.1907
  158POPC   C4A 2445   5.037   0.425   6.652 -0.0468  0.0724  0.2505
  158POPC   C1B 2446   5.305  -0.097   5.635 -0.0985  0.1275 -0.0330
  158POPC   C2B 2447   5.457  -0.300   6.034 -0.0489 -0.0052 -0.0670
  158POPC   C3B 2448   5.514  -0.378   6.433 -0.4044 -0.2388  0.0511
  158POPC   C4B 2449   5.413  -0.609   6.779  0.0964  0.2515 -0.3107
  159POPC   NC3 2450   1.710   0.726   5.153  0.1980  0.0819 -0.0976
  159POPC   PO4 2451   1.562   0.522   5.628 -0.1344 -0.2056 -0.0628
  159POPC   GL1 2452   1.528   0.644   6.080 -0.0328  0.0688 -0.1703
  159POPC   GL2 2453   1.663   0.591   6.369 -0.3127 -0.1522 -0.1659
  159POPC   C1A 2454   1.264   0.971   6.219  0.3802  0.0271  0.1090
  159POPC   D2A 2455   1.081   1.006   6.639  0.0276 -0.0713 -0.0870
  159POPC   C3A 2456   0.778   1.292   6.830  0.1785 -0.0628  0.0251
  159POPC   C4A 2457   0.473   1.554   6.971  0.3155 -0.1126 -0.1672
  159POPC   C1B 2458   1.513   0.744   6.625 -0.1459  0.1255  0.0501
  159POPC   C2B 2459   1.405   1.019   7.010  0.1959  0.0556  0.3005
  159POPC   C3B 2460   1.507   1.249   7.328 -0.0259  0.1224 -0.2514
  159POPC   C4B 2461   1.639   1.152   7.747 -0.1614 -0.1915 -0.1957
  160POPC   NC3 2462   7.332   3.026   5.338  0.1772  0.1024  0.2210
  160POPC   PO4 2463   7.315   2.552   5.619 -0.1448  0.0098  0.0578
  160POPC   GL1 2464   7.506   2.916   5.866 -0.1286 -0.0491  0.3310
  160POPC   GL2 2465   7.680   3.140   5.659  0.0793 -0.1437  0.0266
  160POPC   C1A 2466   7.542   2.891   6.262  0.3480  0.0015 -0.0439
  160POPC   D2A 2467   7.964   3.060   6.362  0.3229  0.2067 -0.0109
  160POPC   C3A 2468   8.039   3.215   6.796  0.0207  0.0261  0.0567
  160POPC   C4A 2469   8.176   3.386   7.146 -0.1929  0.0171  0.1029
  160POPC   C1B 2470   7.663   3.362   6.029  0.0859  0.0842 -0.2642
  160POPC   C2B 2471   7.540   3.422   6.391  0.1870  0.1417 -0.1991
  160POPC   C3B 2472   7.748   3.600   6.742  0.5284  0.2087 -0.0772
  160POPC   C4B 2473   7.678   3.697   7.125  0.1087  0.0396 -0.1396
  161POPC   NC3 2474   2.683   4.250   5.516  0.0028  0.1698  0.0437
  161POPC   PO4 2475   3.025   4.570   5.545  0.2082 -0.2909 -0.5400
  161POPC   GL1 2476   3.210   4.815   5.783  0.2533  0.1225 -0.3817
  161POPC   GL2 2477   3.453   4.894   5.453  0.0292 -0.0946  0.0801
  161POPC   C1A 2478   3.177   5.154   6.128  0.2898  0.0621  0.2730
  161POPC   D2A 2479   3.221   5.075   6.569 -0.1926  0.2731  0.2537
  161POPC   C3A 2480   3.530   5.108   6.883  0.0130  0.2546 -0.1341
  161POPC   C4A 2481   3.796   5.232   7.285 -0.0913 -0.1649  0.0766
  161POPC   C1B 2482   3.574   5.212   5.783  0.1172 -0.0492  0.0762
  161POPC   C2B 2483   3.480   5.569   6.019  0.2049  0.0069  0.5192
  161POPC   C3B 2484   3.241   5.682   6.284  0.1803 -0.1999 -0.3215
  161POPC   C4B 2485   3.216   5.665   6.722 -0.4550 -0.2174 -0.0341
  162POPC   NC3 2486   0.895   0.950   5.191 -0.1714 -0.1037 -0.0800
  162POPC   PO4 2487   0.624   0.828   5.481 -0.1869 -0.2421 -0.1770
  162POPC   GL1 2488   0.416   0.806   5.872 -0.1984 -0.1572 -0.0943
  162POPC   GL2 2489   0.607   1.190   5.987  0.1696  0.0223  0.1797
  162POPC   C1A 2490   0.297   0.954   6.312 -0.2975 -0.1067  0.2073
  162POPC   D2A 2491   0.235   1.102   6.747  0.1074 -0.0706  0.0039
  162POPC   C3A 2492  -0.118   0.974   7.067  0.2425  0.1565 -0.1530
  162POPC   C4A 2493  -0.528   0.922   7.397  0.1508  0.1039  0.4754
  162POPC   C1B 2494   0.847   0.813   6.121  0.1250 -0.1312  0.0186
  162POPC   C2B 2495   0.874   0.464   6.386  0.0452 -0.2218 -0.2375
  162POPC   C3B 2496   1.096   0.420   6.769  0.0814  0.2686 -0.2503
  162POPC   C4B 2497   1.148   0.374   7.204  0.2554  0.0282  0.2215
  163POPC   NC3 2498   2.703   2.636   5.033 -0.1287 -0.0012 -0.2321
  163POPC   PO4 2499   2.861   2.639   5.528  0.0101 -0.2668  0.0730
  163POPC   GL1 2500   3.008   2.842   5.945  0.0178 -0.0789 -0.0190
  163POPC   GL2 2501   3.354   2.887   5.985 -0.4846 -0.2455 -0.0232
  163POPC   C1A 2502   2.972   2.867   6.408  0.0944  0.1376  0.2293
  163POPC   D2A 2503   2.756   2.797   6.780  0.0020  0.0661  0.0498
  163POPC   C3A 2504   2.293   2.899   6.766 -0.0748  0.0118 -0.1349
  163POPC   C4A 2505   1.911   2.918   6.863 -0.5220  0.1859  0.0524
  163POPC   C1B 2506   3.443   2.613   6.265 -0.1965  0.1995  0.0669
  163POPC   C2B 2507   3.436   2.714   6.710  0.2001  0.0528  0.5455
  163POPC   C3B 2508   3.127   2.501   6.960 -0.1130  0.1689 -0.2106
  163POPC   C4B 2509   2.938   2.607   7.321  0.1012  0.0293  0.2564
  164POPC   NC3 2510   2.015   0.543   5.981  0.1849 -0.3259  0.0820
  164POPC   PO4 2511   2.407   0.752   6.076  0.1067 -0.2179 -0.1360
  164POPC   GL1 2512   2.529   1.011   6.420  0.0621  0.0742 -0.1017
  164POPC   GL2 2513   2.568   1.428   6.476  0.2521 -0.0746  0.1121
  164POPC   C1A 2514   2.654   1.083   6.935 -0.3233 -0.1738  0.0840
  164POPC   D2A 2515   2.901   0.854   7.165 -0.1489 -0.3384 -0.2253
  164POPC   C3A 2516   3.259   0.707   7.063  0.0716  0.2324 -0.0316
  164POPC   C4A 2517   3.599   0.376   7.161  0.0578  0.1428  0.2622
  164POPC   C1B 2518   2.678   1.591   6.853  0.0517 -0.2587 -0.0175
  164POPC   C2B 2519   2.457   1.856   7.133 -0.2901 -0.0874  0.2248
  164POPC   C3B 2520   2.604   2.169   7.408  0.1593  0.0403  0.2472
  164POPC   C4B 2521   2.816   2.281   7.735 -0.2627  0.0100  0.1425
  165POPC   NC3 2522   4.005   6.925   4.825 -0.1224 -0.0017  0.2465
  165POPC   PO4 2523   3.781   6.665   5.222  0.0038  0.3745 -0.0104
  165POPC   GL1 2524   3.827   6.890   5.620 -0.2277  0.0019 -0.1580
  165POPC   GL2 2525   3.677   7.206   5.671  0.1776  0.0288 -0.1918
  165POPC   C1A 2526   3.962   6.958   6.119  0.1134  0.4254 -0.3621
  165POPC   D2A 2527   3.981   7.087   6.542 -0.0597 -0.3681 -0.1852
  165POPC   C3A 2528   4.010   6.857   6.868  0.2366  0.1592 -0.1365
  165POPC   C4A 2529   3.820   6.773   7.280  0.1911  0.1009 -0.1331
  165POPC   C1B 2530   3.521   7.293   6.118  0.0656  0.1031 -0.0470
  165POPC   C2B 2531   3.435   7.257   6.617  0.0221  0.1688  0.1995
  165POPC   C3B 2532   3.689   7.226   7.074  0.0602 -0.0998 -0.1455
  165POPC   C4B 2533   3.584   7.381   7.443  0.1617 -0.1484  0.1167
  166POPC   NC3 2534   1.679   4.706   5.465 -0.3460 -0.1422 -0.0116
  166POPC   PO4 2535   1.667   4.163   5.329  0.3123  0.0542 -0.1597
  166POPC   GL1 2536   1.506   4.323   5.722  0.0849  0.0366 -0.1657
  166POPC   GL2 2537   1.484   4.782   5.892 -0.4559  0.2690  0.0194
  166POPC   C1A 2538   1.321   4.364   6.147  0.1409 -0.4157 -0.0685
  166POPC   D2A 2539   0.980   4.238   6.470  0.0852  0.2895  0.3315
  166POPC   C3A 2540   1.073   4.448   6.860 -0.3452  0.3968  0.1910
  166POPC   C4A 2541   0.978   4.795   7.215 -0.1350  0.2055  0.1126
  166POPC   C1B 2542   1.616   4.904   6.344  0.1490  0.3101  0.1494
  166POPC   C2B 2543   1.516   4.566   6.689  0.2375 -0.0603  0.3053
  166POPC   C3B 2544   1.878   4.315   6.939 -0.1682  0.3389 -0.0852
  166POPC   C4B 2545   2.197   4.272   7.297 -0.2371 -0.4988 -0.1195
  167POPC   NC3 2546   3.543   0.506   5.098  0.2222  0.0590  0.1177
  167POPC   PO4 2547   3.889   0.424   5.294  0.1359 -0.0528 -0.1525
  167POPC   GL1 2548   4.032   0.367   5.747 -0.2820 -0.0995  0.2095
  167POPC   GL2 2549   3.750   0.481   5.834  0.4798 -0.2356  0.0450
  167POPC   C1A 2550   4.118   0.293   6.209 -0.2988  0.0140  0.2360
  167POPC   D2A 2551   4.236   0.129   6.613  0.1142 -0.2933 -0.0692
  167POPC   C3A 2552   4.196  -0.340   6.660 -0.2875  0.2206 -0.2171
  167POPC   C4A 2553   3.981  -0.550   6.992  0.1059 -0.1079  0.3358
  167POPC   C1B 2554   3.649   0.178   6.060  0.0917 -0.0243  0.1425
  167POPC   C2B 2555   3.688  -0.008   6.470  0.1920 -0.1028 -0.1069
  167POPC   C3B 2556   3.764  -0.122   6.973  0.2901  0.0682  0.2194
  167POPC   C4B 2557   3.862  -0.112   7.509 -0.0719  0.0370  0.1246
  168POPC   NC3 2558   0.880   3.606   5.112 -0.2586 -0.0745 -0.0656
  168POPC   PO4 2559   0.417   3.424   5.227 -0.0663  0.1620  0.4679
  168POPC   GL1 2560   0.475   3.446   5.647  0.0612  0.3016  0.2329
  168POPC   GL2 2561   0.266   3.730   5.585  0.1917 -0.0358  0.0596
  168POPC   C1A 2562   0.373   3.593   6.134 -0.1749 -0.0076 -0.2468
  168POPC   D2A 2563   0.431   3.659   6.638  0.2759 -0.1271  0.1390
  168POPC   C3A 2564   0.653   4.102   6.817 -0.0495  0.1571 -0.1728
  168POPC   C4A 2565   0.549   4.426   6.997  0.3386 -0.2686  0.1815
  168POPC   C1B 2566   0.024   3.395   5.785 -0.1533  0.0261 -0.0061
  168POPC   C2B 2567   0.112   3.151   6.126  0.2318 -0.0129 -0.1878
  168POPC   C3B 2568   0.243   3.154   6.557 -0.1630  0.0557  0.0298
  168POPC   C4B 2569   0.360   2.929   6.827 -0.0354  0.1200 -0.0179
  169POPC   NC3 2570  10.098   1.959   5.334 -0.1222  0.1005  0.0639
  169POPC   PO4 2571  10.240   1.514   5.379 -0.3235  0.1453 -0.1537
  169POPC   GL1 2572  10.305   1.308   5.756 -0.0806  0.3460  0.0922
  169POPC   GL2 2573  10.129   1.016   5.821  0.0377 -0.1058 -0.1811
  169POPC   C1A 2574  10.231   1.338   6.196  0.0902  0.0023 -0.2021
  169POPC   D2A 2575  10.045   1.338   6.549 -0.0495 -0.0389  0.0569
  169POPC   C3A 2576   9.666   1.376   6.721  0.0364  0.0811  0.1778
  169POPC   C4A 2577   9.542   1.268   7.027 -0.4584  0.3036  0.0088
  169POPC   C1B 2578   9.931   0.900   6.144 -0.1577 -0.1298  0.1591
  169POPC   C2B 2579   9.727   0.837   6.577 -0.0934 -0.4600 -0.1250
  169POPC   C3B 2580   9.506   0.710   6.901 -0.2061 -0.0215  0.1791
  169POPC   C4B 2581   9.431   0.392   7.208  0.0293 -0.1490 -0.2359
  170POPC   NC3 2582   8.453   1.978   5.430 -0.4345  0.1983  0.0300
  170POPC   PO4 2583   8.779   2.181   5.543  0.2861  0.0608  0.1962
  170POPC   GL1 2584   8.782   2.489   5.847  0.1474  0.1446 -0.2886
  170POPC   GL2 2585   8.583   2.350   6.040  0.3376  0.0367 -0.2961
  170POPC   C1A 2586   8.764   2.854   6.005 -0.0145 -0.2223  0.0388
  170POPC   D2A 2587   8.474   3.155   6.137  0.0263 -0.1725 -0.1335
  170POPC   C3A 2588   8.531   3.445   6.359 -0.2617  0.2471  0.0281
  170POPC   C4A 2589   8.496   3.447   6.789 -0.2138  0.0327 -0.0861
  170POPC   C1B 2590   8.437   1.895   6.089  0.1992  0.0514 -0.0501
  170POPC   C2B 2591   8.462   1.501   6.191  0.3489 -0.2117  0.4761
  170POPC   C3B 2592   8.341   1.159   6.406 -0.2232 -0.1291  0.1976
  170POPC   C4B 2593   8.096   0.868   6.628 -0.1857 -0.1863 -0.0159
  171POPC   NC3 2594   6.673   1.571   4.529  0.1345  0.3414 -0.2690
  171POPC   PO4 2595   6.663   1.111   4.678  0.0836 -0.1266 -0.0651
  171POPC   GL1 2596   6.637   1.072   5.133 -0.1436  0.1685  0.1433
  171POPC   GL2 2597   6.831   1.087   5.367  0.1484 -0.1383 -0.1716
  171POPC   C1A 2598   6.534   0.696   5.570 -0.0704 -0.0804  0.3236
  171POPC   D2A 2599   6.726   0.297   5.816  0.0792  0.3162 -0.1656
  171POPC   C3A 2600   7.264   0.266   5.823 -0.2112  0.0457  0.3883
  171POPC   C4A 2601   7.680   0.282   6.014  0.1279  0.6661 -0.4649
  171POPC   C1B 2602   7.201   1.233   5.642 -0.2315  0.2082  0.0209
  171POPC   C2B 2603   7.402   1.280   6.122 -0.0453 -0.2703  0.0114
  171POPC   C3B 2604   7.575   1.149   6.468 -0.2986 -0.3488  0.0965
  171POPC   C4B 2605   7.904   1.299   6.634 -0.2066  0.0394  0.1260
  172POPC   NC3 2606   7.521   0.490   4.362  0.0658  0.0500 -0.2331
  172POPC   PO4 2607   7.329   0.431   4.779  0.2783 -0.1996  0.3155
  172POPC   GL1 2608   7.343   0.398   5.095 -0.1595 -0.1786  0.0857
  172POPC   GL2 2609   7.602   0.448   5.227  0.0159 -0.0091 -0.0703
  172POPC   C1A 2610   7.086   0.662   5.466 -0.3587 -0.4055  0.1816
  172POPC   D2A 2611   7.028   0.782   5.928 -0.2445 -0.2430 -0.1197
  172POPC   C3A 2612   6.757   1.192   5.881 -0.3200  0.0680  0.0019
  172POPC   C4A 2613   6.838   1.653   5.749  0.1369  0.1090 -0.4069
  172POPC   C1B 2614   7.711   0.123   5.540  0.1487  0.2315  0.0189
  172POPC   C2B 2615   7.536  -0.209   5.881  0.2053  0.1403 -0.4350
  172POPC   C3B 2616   7.423  -0.137   6.297  0.3639  0.0449  0.2290
  172POPC   C4B 2617   7.059  -0.094   6.622 -0.0206  0.0843  0.1404
  173POPC   NC3 2618   3.304   3.557   5.510  0.0877 -0.0671  0.0821
  173POPC   PO4 2619   3.639   3.330   5.618 -0.1061  0.0472  0.1568
  173POPC   GL1 2620   3.670   3.697   5.872  0.0208  0.0803  0.0031
  173POPC   GL2 2621   3.407   3.786   6.095 -0.3922 -0.0753  0.2581
  173POPC   C1A 2622   3.984   3.587   6.166  0.0169  0.2833  0.2205
  173POPC   D2A 2623   4.187   3.761   6.602 -0.2631 -0.0687  0.0461
  173POPC   C3A 2624   4.251   4.175   6.752  0.1276 -0.0195  0.1063
  173POPC   C4A 2625   4.128   4.618   6.701  0.3369  0.0913 -0.3938
  173POPC   C1B 2626   3.716   3.817   6.464 -0.0254 -0.1609  0.2283
  173POPC   C2B 2627   3.794   3.973   6.804 -0.2831  0.1392  0.3179
  173POPC   C3B 2628   3.826   4.237   7.045 -0.2162  0.1907  0.0802
  173POPC   C4B 2629   3.582   4.620   7.115 -0.1488  0.0514  0.1183
  174POPC   NC3 2630   8.801   3.417   5.082 -0.0696  0.5124 -0.0958
  174POPC   PO4 2631   8.441   3.648   5.335 -0.1549  0.0346  0.0186
  174POPC   GL1 2632   8.304   3.832   5.681  0.0588  0.0253 -0.1938
  174POPC   GL2 2633   8.221   3.463   5.824  0.1637  0.2160 -0.2649
  174POPC   C1A 2634   8.218   4.062   6.099  0.2176 -0.1728 -0.4007
  174POPC   D2A 2635   7.898   4.197   6.377  0.3011  0.1093  0.0004
  174POPC   C3A 2636   7.652   4.115   6.785  0.1975 -0.0579 -0.2939
  174POPC   C4A 2637   7.256   4.164   7.047  0.1211 -0.0289 -0.2882
  174POPC   C1B 2638   8.068   3.570   6.245 -0.0961  0.0569 -0.1172
  174POPC   C2B 2639   8.158   3.784   6.641  0.2195  0.1413  0.1675
  174POPC   C3B 2640   8.363   3.916   7.048 -0.2814 -0.0354 -0.1406
  174POPC   C4B 2641   8.337   4.415   7.239 -0.0341 -0.3248 -0.1494
  175POPC   NC3 2642   1.913   1.237   5.407 -0.0256 -0.0467  0.2399
  175POPC   PO4 2643   2.060   1.010   5.770  0.2180 -0.2908  0.4254
  175POPC   GL1 2644   1.949   0.972   6.221  0.1571  0.0994 -0.0372
  175POPC   GL2 2645   2.095   1.258   6.384  0.2462 -0.0470  0.1567
  175POPC   C1A 2646   2.033   0.875   6.737 -0.2111  0.0214 -0.1650
  175POPC   D2A 2647   2.220   0.941   7.152 -0.0182 -0.2733  0.1814
  175POPC   C3A 2648   2.441   0.621   7.338  0.0144  0.0393 -0.2841
  175POPC   C4A 2649   2.546   0.290   7.612 -0.3209 -0.1373  0.0660
  175POPC   C1B 2650   2.171   1.396   6.777 -0.0028 -0.1591 -0.1435
  175POPC   C2B 2651   2.340   1.387   7.179 -0.2195  0.2394 -0.0422
  175POPC   C3B 2652   2.616   1.079   7.490  0.1473  0.5200  0.1258
  175POPC   C4B 2653   2.769   0.784   7.859 -0.2742  0.2465 -0.1813
  176POPC   NC3 2654   7.484   4.874   4.153  0.0038 -0.0435  0.2133
  176POPC   PO4 2655   7.754   4.715   4.544  0.0400 -0.0275 -0.1244
  176POPC   GL1 2656   7.849   4.887   4.911 -0.0713  0.0461 -0.0042
  176POPC   GL2 2657   7.992   5.318   4.906 -0.2300  0.1023  0.1324
  176POPC   C1A 2658   7.681   4.864   5.359 -0.2882  0.0073  0.0554
  176POPC   D2A 2659   7.597   5.131   5.681 -0.1808 -0.0193 -0.1396
  176POPC   C3A 2660   7.334   5.096   5.977  0.0066  0.2949 -0.1183
  176POPC   C4A 2661   7.322   4.816   6.279  0.3838 -0.1431 -0.1550
  176POPC   C1B 2662   8.015   5.221   5.360 -0.0499  0.0860 -0.1075
  176POPC   C2B 2663   8.053   4.975   5.829  0.0032  0.1851  0.2270
  176POPC   C3B 2664   7.770   5.073   6.222 -0.1631  0.3232 -0.1689
  176POPC   C4B 2665   8.080   5.387   6.413  0.1961 -0.3697 -0.0508
  177POPC   NC3 2666   9.993   9.814   4.510  0.1750  0.0858  0.1723
  177POPC   PO4 2667  10.248   9.880   4.884 -0.1580 -0.4189  0.1837
  177POPC   GL1 2668   9.975   9.583   5.295  0.2897  0.1035 -0.0504
  177POPC   GL2 2669  10.064   9.211   5.434  0.1068  0.0342 -0.1660
  177POPC   C1A 2670   9.730   9.426   5.697  0.0568  0.3764  0.0207
  177POPC   D2A 2671   9.533   9.119   5.955  0.1398 -0.0249 -0.1094
  177POPC   C3A 2672   9.212   8.802   6.003 -0.0353  0.1971  0.0436
  177POPC   C4A 2673   8.940   8.431   5.997 -0.2898 -0.2344 -0.0398
  177POPC   C1B 2674  10.029   9.056   5.899  0.0161  0.1082  0.4754
  177POPC   C2B 2675   9.961   9.104   6.314  0.0936  0.1055 -0.1645
  177POPC   C3B 2676  10.063   9.327   6.677  0.0448  0.2710 -0.0823
  177POPC   C4B 2677  10.151   9.663   6.730 -0.1692  0.0442  0.3885
  178POPC   NC3 2678   2.616   3.572   4.849  0.0062 -0.1475 -0.1399
  178POPC   PO4 2679   2.422   3.309   5.158 -0.2139  0.0276 -0.1102
  178POPC   GL1 2680   2.304   3.484   5.632 -0.0913  0.1335  0.3122
  178POPC   GL2 2681   2.404   3.395   5.935 -0.0051 -0.2310  0.2612
  178POPC   C1A 2682   1.923   3.480   5.962 -0.1731 -0.0657  0.2443
  178POPC   D2A 2683   1.983   3.646   6.330  0.0099 -0.1415 -0.1760
  178POPC   C3A 2684   2.123   3.351   6.640  0.2365  0.0265  0.0957
  178POPC   C4A 2685   2.349   3.384   6.998  0.1972  0.3313 -0.1394
  178POPC   C1B 2686   2.462   3.667   6.360 -0.0208  0.4676  0.2592
  178POPC   C2B 2687   2.554   3.759   6.805  0.0875 -0.1184  0.1820
  178POPC   C3B 2688   2.819   3.540   7.020 -0.0976 -0.1333  0.1569
  178POPC   C4B 2689   2.960   3.279   7.434  0.1615 -0.0765  0.3138
  179POPC   NC3 2690   1.844   3.105   4.904  0.0207  0.0837 -0.0574
  179POPC   PO4 2691   1.720   2.787   4.894  0.1420 -0.1292 -0.0458
  179POPC   GL1 2692   1.589   2.923   5.377  0.0639  0.1629  0.1994
  179POPC   GL2 2693   1.338   2.769   5.574  0.0194 -0.1932 -0.0398
  179POPC   C1A 2694   1.477   3.203   5.757 -0.2615  0.1704  0.4744
  179POPC   D2A 2695   1.680   3.073   6.119  0.2791  0.2414  0.0169
  179POPC   C3A 2696   1.587   3.117   6.567 -0.1309 -0.1826  0.0722
  179POPC   C4A 2697   1.604   3.419   6.784 -0.0131 -0.5979 -0.3775
  179POPC   C1B 2698   1.444   2.537   6.060  0.2819 -0.1104 -0.2206
  179POPC   C2B 2699   1.427   2.636   6.517 -0.1342 -0.0887  0.1862
  179POPC   C3B 2700   1.214   2.641   6.928 -0.1375  0.1659 -0.0996
  179POPC   C4B 2701   0.940   2.370   7.134 -0.0099  0.0315  0.0979
  180POPC   NC3 2702   8.970   9.945   4.479  0.0180 -0.2079 -0.3759
  180POPC   PO4 2703   8.981   9.452   4.642 -0.1088 -0.0162  0.0735
  180POPC   GL1 2704   8.726   9.381   4.957 -0.0319 -0.0111  0.1563
  180POPC   GL2 2705   8.375   9.320   4.783 -0.0641  0.1593  0.0558
  180POPC   C1A 2706   8.366   9.210   5.269  0.0289  0.0688  0.1691
  180POPC   D2A 2707   8.253   9.093   5.703  0.2456 -0.3090  0.1558
  180POPC   C3A 2708   8.418   9.309   6.023  0.2691  0.0143 -0.0344
  180POPC   C4A 2709   8.377   9.819   6.111 -0.2285  0.0220 -0.1288
  180POPC   C1B 2710   8.364   8.920   4.851 -0.0411 -0.0464 -0.0540
  180POPC   C2B 2711   8.001   8.688   4.926  0.1449  0.0798  0.0408
  180POPC   C3B 2712   8.031   8.357   4.879 -0.1072  0.0479  0.3550
  180POPC   C4B 2713   7.825   8.017   4.701  0.1573  0.2477  0.0903
  181POPC   NC3 2714   5.526   8.805   3.800  0.2965  0.3083  0.0639
  181POPC   PO4 2715   5.525   8.677   4.197 -0.2103 -0.3234 -0.0415
  181POPC   GL1 2716   5.778   9.003   4.527  0.1223  0.0772 -0.1791
  181POPC   GL2 2717   6.100   8.794   4.604 -0.1696  0.1710 -0.0477
  181POPC   C1A 2718   5.896   9.242   4.939  0.2571 -0.0946 -0.0586
  181POPC   D2A 2719   5.933   9.652   5.097 -0.3959 -0.1665 -0.0089
  181POPC   C3A 2720   6.218   9.754   5.483 -0.1429  0.0946 -0.1405
  181POPC   C4A 2721   6.515  10.003   5.789 -0.0863  0.0388 -0.1148
  181POPC   C1B 2722   6.406   8.679   4.938  0.0929  0.0337  0.0093
  181POPC   C2B 2723   6.459   8.588   5.302  0.1785 -0.0083  0.1165
  181POPC   C3B 2724   6.630   8.783   5.556 -0.0380  0.2203  0.2668
  181POPC   C4B 2725   6.739   9.072   5.856 -0.2431  0.0462 -0.0566
  182POPC   NC3 2726   6.130   7.107   3.452  0.2476  0.0893  0.1184
  182POPC   PO4 2727   5.727   7.422   3.417 -0.1556  0.0142 -0.0292
  182POPC   GL1 2728   5.803   7.418   3.827 -0.1642  0.3874  0.2468
  182POPC   GL2 2729   5.990   7.746   4.074 -0.2155  0.0315 -0.1089
  182POPC   C1A 2730   5.860   7.263   4.225  0.0141  0.3009  0.0834
  182POPC   D2A 2731   6.062   7.071   4.576  0.2322  0.3301  0.1396
  182POPC   C3A 2732   5.957   7.282   4.939  0.0342  0.0550 -0.3113
  182POPC   C4A 2733   5.962   7.554   5.289  0.0119 -0.1119 -0.0434
  182POPC   C1B 2734   5.891   7.739   4.523 -0.0394 -0.5282 -0.0680
  182POPC   C2B 2735   6.201   7.678   4.702  0.2970 -0.4834 -0.1774
  182POPC   C3B 2736   6.522   7.733   5.083 -0.1965  0.3042 -0.0645
  182POPC   C4B 2737   6.569   7.634   5.577 -0.2409  0.1121 -0.0938
  183POPC   NC3 2738   8.769   6.806   3.800 -0.2253 -0.0169 -0.1606
  183POPC   PO4 2739   8.616   6.445   4.113 -0.1083  0.1057 -0.3904
  183POPC   GL1 2740   8.556   6.811   4.271  0.0544  0.3189 -0.2688
  183POPC   GL2 2741   8.815   7.090   4.248 -0.0170  0.2499 -0.0859
  183POPC   C1A 2742   8.358   7.244   4.396 -0.1673 -0.1381  0.1510
  183POPC   D2A 2743   8.354   7.479   4.805 -0.0058  0.0413 -0.0622
  183POPC   C3A 2744   8.110   7.656   5.109 -0.1232 -0.2061  0.0366
  183POPC   C4A 2745   7.819   7.994   5.218 -0.0296 -0.2278 -0.0449
  183POPC   C1B 2746   8.705   7.075   4.693  0.0456  0.2483 -0.1154
  183POPC   C2B 2747   8.629   7.156   5.137 -0.3284 -0.2563 -0.0921
  183POPC   C3B 2748   8.752   7.114   5.609  0.3703 -0.0168  0.0756
  183POPC   C4B 2749   8.538   7.212   5.937  0.1335  0.0337 -0.0764
  184POPC   NC3 2750   5.774   4.198   5.157  0.1373  0.0884 -0.2062
  184POPC   PO4 2751   6.118   4.541   4.911  0.3338  0.2539  0.3149
  184POPC   GL1 2752   6.124   4.536   5.455  0.1240  0.0686 -0.1150
  184POPC   GL2 2753   6.136   4.206   5.625 -0.0757 -0.0250 -0.2313
  184POPC   C1A 2754   6.114   4.707   5.870 -0.2569 -0.0665  0.0613
  184POPC   D2A 2755   6.221   4.807   6.269  0.3474 -0.0723  0.1625
  184POPC   C3A 2756   6.328   5.202   6.345  0.1366  0.1572 -0.1120
  184POPC   C4A 2757   6.271   5.687   6.232 -0.3813 -0.2396 -0.3542
  184POPC   C1B 2758   6.040   4.167   6.063 -0.1772  0.0921 -0.3830
  184POPC   C2B 2759   5.824   4.373   6.316 -0.0156 -0.0113 -0.0112
  184POPC   C3B 2760   5.647   4.375   6.744 -0.1959  0.1428  0.1028
  184POPC   C4B 2761   5.668   4.681   7.023  0.0623  0.0812 -0.2402
  185POPC   NC3 2762   9.657   8.026   4.357 -0.1876 -0.1663  0.1858
  185POPC   PO4 2763   9.215   8.122   4.231  0.0832  0.3594  0.0569
  185POPC   GL1 2764   9.266   7.859   4.643 -0.5544 -0.0077  0.2385
  185POPC   GL2 2765   9.599   7.624   4.654 -0.0631  0.3265 -0.5050
  185POPC   C1A 2766   9.132   7.518   5.021 -0.1844 -0.1927  0.0021
  185POPC   D2A 2767   9.115   7.636   5.356 -0.0329 -0.0174  0.1555
  185POPC   C3A 2768   8.725   7.787   5.617 -0.1251  0.2077 -0.2867
  185POPC   C4A 2769   8.418   7.735   5.943 -0.1317  0.0978  0.2300
  185POPC   C1B 2770   9.631   7.637   5.052  0.0359  0.0663  0.4065
  185POPC   C2B 2771   9.593   7.718   5.392  0.1493  0.1192 -0.1993
  185POPC   C3B 2772   9.432   7.586   5.837 -0.2974 -0.0389  0.2296
  185POPC   C4B 2773   9.561   7.242   6.056 -0.0157  0.3185  0.2748
  186POPC   NC3 2774   0.556   1.832   5.120  0.3504 -0.2067 -0.0574
  186POPC   PO4 2775   0.350   2.183   4.986  0.0450  0.2007 -0.0718
  186POPC   GL1 2776   0.360   2.244   5.384 -0.0910 -0.1479 -0.0562
  186POPC   GL2 2777   0.611   2.132   5.587  0.0382  0.0178 -0.2950
  186POPC   C1A 2778   0.220   2.562   5.559  0.2019  0.0460 -0.2799
  186POPC   D2A 2779   0.110   2.670   6.028 -0.2232  0.3229 -0.1479
  186POPC   C3A 2780   0.435   2.662   6.340  0.3341  0.1683 -0.2320
  186POPC   C4A 2781   0.727   2.560   6.705 -0.1933 -0.2389 -0.3739
  186POPC   C1B 2782   0.436   2.231   6.075  0.0813 -0.3592  0.0525
  186POPC   C2B 2783   0.579   2.181   6.480  0.1938  0.1161 -0.0451
  186POPC   C3B 2784   0.750   1.940   6.822 -0.0655 -0.1994 -0.0563
  186POPC   C4B 2785   0.574   2.044   7.221  0.0545  0.1318 -0.1206
  187POPC   NC3 2786   3.858   1.419   5.482  0.1974  0.1827  0.0230
  187POPC   PO4 2787   4.154   1.363   5.820  0.3443 -0.2297 -0.2799
  187POPC   GL1 2788   3.925   1.428   6.154  0.0091  0.2744 -0.0509
  187POPC   GL2 2789   4.046   1.714   6.157  0.1908  0.0132 -0.0040
  187POPC   C1A 2790   3.695   1.354   6.527  0.0196  0.3060 -0.0679
  187POPC   D2A 2791   3.328   1.565   6.681  0.0671 -0.0472 -0.2399
  187POPC   C3A 2792   3.114   1.273   6.938  0.2182  0.1234 -0.0045
  187POPC   C4A 2793   3.294   1.126   7.341  0.0255  0.1988  0.0353
  187POPC   C1B 2794   4.261   1.590   6.501  0.0797  0.0659  0.0912
  187POPC   C2B 2795   4.554   1.363   6.764 -0.3837 -0.2443  0.0504
  187POPC   C3B 2796   4.937   1.481   6.979 -0.0391 -0.2405  0.2485
  187POPC   C4B 2797   5.045   1.743   7.229 -0.1177  0.2922  0.1115
  188POPC   NC3 2798   0.261   8.413   5.145  0.2426  0.0167 -0.0416
  188POPC   PO4 2799   0.412   7.954   5.144  0.0672 -0.0396 -0.0876
  188POPC   GL1 2800   0.114   7.914   5.475 -0.2487 -0.1003 -0.1114
  188POPC   GL2 2801  -0.079   7.712   5.480 -0.1581 -0.0284  0.0593
  188POPC   C1A 2802  -0.097   8.093   5.809 -0.0400  0.0764  0.0141
  188POPC   D2A 2803  -0.048   7.899   6.159  0.3652  0.1731  0.2139
  188POPC   C3A 2804  -0.435   7.827   6.462 -0.0015 -0.2128  0.0475
  188POPC   C4A 2805  -0.391   7.739   6.892 -0.2834 -0.0140  0.1423
  188POPC   C1B 2806  -0.086   7.432   5.838  0.0627  0.2857  0.3059
  188POPC   C2B 2807  -0.029   7.251   6.206  0.1853  0.2130  0.1014
  188POPC   C3B 2808  -0.203   7.382   6.551  0.1416 -0.1488 -0.3395
  188POPC   C4B 2809  -0.584   7.282   6.648  0.0788 -0.1575 -0.3447
  189POPC   NC3 2810   0.007   8.053   4.136  0.1706 -0.0995 -0.0127
  189POPC   PO4 2811  -0.062   7.879   4.542 -0.0091 -0.1815  0.0461
  189POPC   GL1 2812  -0.370   8.059   4.850 -0.1353  0.2717 -0.0429
  189POPC   GL2 2813  -0.171   8.103   5.147  0.2676 -0.1654  0.1611
  189POPC   C1A 2814  -0.773   8.044   5.082  0.0682  0.5178  0.0991
  189POPC   D2A 2815  -1.251   8.090   5.165  0.4304 -0.2341  0.0646
  189POPC   C3A 2816  -1.461   8.273   5.514 -0.0079  0.2838  0.4627
  189POPC   C4A 2817  -1.717   8.439   5.789 -0.0683 -0.1317  0.1168
  189POPC   C1B 2818  -0.503   8.162   5.496  0.3330 -0.3484 -0.0616
  189POPC   C2B 2819  -0.551   7.990   5.949 -0.2611 -0.0419  0.0060
  189POPC   C3B 2820  -0.890   8.084   6.202 -0.2795  0.0634  0.1364
  189POPC   C4B 2821  -1.336   8.009   6.205  0.2390 -0.1184  0.1320
  190POPC   NC3 2822   3.895   8.227   5.116  0.0171 -0.1224 -0.2220
  190POPC   PO4 2823   3.848   7.777   5.275  0.1989  0.0223 -0.0808
  190POPC   GL1 2824   3.959   7.633   5.665 -0.0694  0.0466  0.1545
  190POPC   GL2 2825   4.096   7.878   5.884  0.2633 -0.0029  0.0228
  190POPC   C1A 2826   4.051   7.468   6.157 -0.2677 -0.2405 -0.1323
  190POPC   D2A 2827   4.445   7.355   6.377 -0.0504 -0.1644 -0.2346
  190POPC   C3A 2828   4.823   7.595   6.409 -0.4734  0.2912 -0.2626
  190POPC   C4A 2829   5.198   7.588   6.259 -0.0155 -0.2681 -0.2774
  190POPC   C1B 2830   4.464   8.158   6.065  0.1460  0.2717  0.0219
  190POPC   C2B 2831   4.530   8.520   6.238 -0.3251  0.1208  0.0675
  190POPC   C3B 2832   4.966   8.726   6.328 -0.0442  0.1275  0.0124
  190POPC   C4B 2833   5.360   8.657   6.225 -0.0756  0.1508  0.3471
  191POPC   NC3 2834   7.928   3.557   5.422  0.0162 -0.2268  0.2469
  191POPC   PO4 2835   7.510   3.529   5.365 -0.0407 -0.1202  0.0340
  191POPC   GL1 2836   7.411   3.925   5.528  0.3296  0.2665  0.4565
  191POPC   GL2 2837   7.489   4.389   5.440 -0.0456  0.2215  0.0798
  191POPC   C1A 2838   7.336   4.182   5.822  0.0635 -0.0138 -0.1536
  191POPC   D2A 2839   7.455   4.361   6.140 -0.1286  0.3249 -0.1403
  191POPC   C3A 2840   7.215   4.324   6.509 -0.0973  0.1467  0.1709
  191POPC   C4A 2841   6.855   4.245   6.668 -0.1945  0.4050  0.2098
  191POPC   C1B 2842   7.647   4.649   5.822 -0.1379 -0.1929  0.1160
  191POPC   C2B 2843   7.939   4.587   6.082 -0.2875 -0.1301  0.6731
  191POPC   C3B 2844   8.308   4.482   6.389 -0.2555 -0.0260 -0.1750
  191POPC   C4B 2845   8.775   4.548   6.399 -0.1157 -0.1371 -0.0044
  192POPC   NC3 2846   5.271   4.139   4.780  0.3855 -0.2457  0.2572
  192POPC   PO4 2847   5.290   4.368   5.245  0.0047  0.1482 -0.2554
  192POPC   GL1 2848   5.418   4.254   5.688  0.0274  0.1222 -0.2860
  192POPC   GL2 2849   5.243   4.390   5.922 -0.0494 -0.1537 -0.3120
  192POPC   C1A 2850   5.732   4.444   5.833 -0.1528 -0.0012  0.2612
  192POPC   D2A 2851   5.654   4.843   6.097 -0.1527  0.1595  0.0023
  192POPC   C3A 2852   5.831   4.868   6.546 -0.1231  0.0147  0.3492
  192POPC   C4A 2853   6.194   4.964   6.811  0.0430 -0.1399  0.0724
  192POPC   C1B 2854   5.317   4.541   6.400  0.3121  0.3252  0.0408
  192POPC   C2B 2855   5.121   4.613   6.760  0.0636  0.1238  0.1567
  192POPC   C3B 2856   5.223   4.618   7.231 -0.0668  0.0164 -0.1627
  192POPC   C4B 2857   5.235   4.982   7.574  0.0022  0.0188 -0.0668
  193POPC   NC3 2858   0.284   0.521   5.339  0.0701  0.3464 -0.0039
  193POPC   PO4 2859   0.260   0.116   5.199 -0.1241  0.0887  0.1163
  193POPC   GL1 2860   0.045  -0.181   5.474 -0.0691  0.0598 -0.2142
  193POPC   GL2 2861   0.083   0.165   5.702  0.0380  0.0311  0.0585
  193POPC   C1A 2862  -0.304  -0.186   5.674 -0.0181  0.1166  0.0177
  193POPC   D2A 2863  -0.311   0.067   6.015  0.1665  0.3602  0.0159
  193POPC   C3A 2864  -0.361  -0.032   6.376  0.1507  0.1280 -0.0129
  193POPC   C4A 2865  -0.472  -0.323   6.750 -0.1794 -0.0991 -0.0045
  193POPC   C1B 2866  -0.031   0.469   5.977 -0.1146 -0.0186  0.0787
  193POPC   C2B 2867  -0.093   0.514   6.373 -0.0465 -0.1009  0.1478
  193POPC   C3B 2868   0.026   0.594   6.758 -0.2005  0.0594  0.0667
  193POPC   C4B 2869   0.262   0.674   7.065 -0.0353  0.0330 -0.0383
  194POPC   NC3 2870   5.703   2.957   5.292 -0.1183  0.0478 -0.0703
  194POPC   PO4 2871   5.828   2.555   5.230 -0.1985 -0.1257 -0.2568
  194POPC   GL1 2872   5.722   2.466   5.686  0.1866  0.0964 -0.2119
  194POPC   GL2 2873   5.624   2.758   5.733 -0.2140 -0.0388  0.2680
  194POPC   C1A 2874   5.936   2.288   6.077 -0.3489  0.1205  0.1129
  194POPC   D2A 2875   6.168   1.924   6.202  0.3151  0.1223  0.3964
  194POPC   C3A 2876   6.264   1.772   6.578  0.2470  0.2846  0.3763
  194POPC   C4A 2877   6.402   1.425   6.643  0.2246 -0.1063 -0.0270
  194POPC   C1B 2878   5.672   2.823   6.157  0.2064  0.4121 -0.2984
  194POPC   C2B 2879   5.635   2.979   6.470 -0.0050 -0.1160  0.1157
  194POPC   C3B 2880   5.511   3.228   6.753 -0.1261 -0.0844  0.0800
  194POPC   C4B 2881   5.179   3.380   6.828 -0.0983  0.0328 -0.2853
  195POPC   NC3 2882   4.948   4.140   5.545 -0.1013 -0.1511  0.0699
  195POPC   PO4 2883   4.836   4.457   5.104 -0.2244  0.0952 -0.0733
  195POPC   GL1 2884   5.029   4.665   5.489  0.0686  0.3027  0.0136
  195POPC   GL2 2885   4.870   4.851   5.797  0.0077  0.2997  0.0935
  195POPC   C1A 2886   5.414   4.781   5.681  0.1725 -0.0448  0.3822
  195POPC   D2A 2887   5.449   5.281   5.920 -0.0647  0.0564 -0.0880
  195POPC   C3A 2888   5.859   5.281   6.207 -0.1291  0.2032 -0.1403
  195POPC   C4A 2889   5.984   5.390   6.694  0.2283 -0.2558 -0.1796
  195POPC   C1B 2890   5.195   4.930   6.161  0.4280 -0.1017  0.3989
  195POPC   C2B 2891   5.449   5.253   6.456  0.0020  0.1268 -0.2022
  195POPC   C3B 2892   5.551   5.587   6.766 -0.0966  0.2246 -0.4008
  195POPC   C4B 2893   5.365   5.926   6.864 -0.1026  0.2071  0.1081
  196POPC   NC3 2894   1.173   9.341   5.421 -0.0256 -0.3877  0.2345
  196POPC   PO4 2895   1.312   9.144   5.930  0.0645  0.1898 -0.2859
  196POPC   GL1 2896   1.243   8.875   6.107 -0.0247 -0.3001  0.0165
  196POPC   GL2 2897   0.872   8.892   6.168  0.2004 -0.2212  0.2701
  196POPC   C1A 2898   1.657   8.779   6.486 -0.0930  0.0026 -0.4433
  196POPC   D2A 2899   2.000   8.672   6.758  0.2182 -0.0434 -0.1180
  196POPC   C3A 2900   2.024   8.671   7.182 -0.0725 -0.0762  0.2394
  196POPC   C4A 2901   2.301   8.509   7.480  0.1022 -0.1377 -0.1252
  196POPC   C1B 2902   0.757   8.887   6.577  0.1748  0.1499 -0.2588
  196POPC   C2B 2903   0.456   8.802   6.833 -0.0846 -0.0820 -0.0544
  196POPC   C3B 2904   0.108   8.501   7.099  0.2797 -0.1023 -0.1847
  196POPC   C4B 2905  -0.201   8.220   6.975  0.0965 -0.0995 -0.0448
  197POPC   NC3 2906   9.383   8.378   3.841 -0.0091  0.4257  0.4558
  197POPC   PO4 2907   9.250   8.709   4.104  0.1395  0.1227 -0.2405
  197POPC   GL1 2908   9.080   8.702   4.467 -0.3311  0.1569 -0.1750
  197POPC   GL2 2909   8.866   8.917   4.686  0.2424 -0.1927  0.2624
  197POPC   C1A 2910   9.109   8.408   4.817 -0.1473  0.1884 -0.1472
  197POPC   D2A 2911   9.343   8.633   5.107 -0.3457 -0.0645 -0.0521
  197POPC   C3A 2912   9.174   8.440   5.504  0.1032  0.3421 -0.1190
  197POPC   C4A 2913   9.126   8.114   5.666 -0.0410  0.0719 -0.4668
  197POPC   C1B 2914   8.838   8.907   5.121  0.0022  0.2990 -0.1357
  197POPC   C2B 2915   8.699   8.758   5.465 -0.1230  0.1550  0.0215
  197POPC   C3B 2916   8.691   8.833   5.870 -0.0032 -0.2035  0.0409
  197POPC   C4B 2917   8.594   8.711   6.303  0.1772 -0.1660  0.0705
  198POPC   NC3 2918   2.285   5.561   4.710  0.2367 -0.1433 -0.0204
  198POPC   PO4 2919   2.416   5.631   5.189  0.4491  0.0440  0.0909
  198POPC   GL1 2920   2.571   5.702   5.659  0.0732 -0.1299  0.0328
  198POPC   GL2 2921   2.778   5.877   5.721  0.0212 -0.0217  0.3459
  198POPC   C1A 2922   2.616   5.606   6.213  0.1301  0.0878 -0.1008
  198POPC   D2A 2923   2.678   5.717   6.668 -0.4128  0.2427 -0.0831
  198POPC   C3A 2924   2.368   5.933   6.891  0.1915 -0.1417  0.0224
  198POPC   C4A 2925   2.314   6.189   7.264 -0.2184 -0.1546 -0.3338
  198POPC   C1B 2926   2.984   6.076   6.080  0.2527  0.0361  0.1236
  198POPC   C2B 2927   3.009   6.073   6.495 -0.1697  0.0450 -0.0904
  198POPC   C3B 2928   2.929   6.069   6.917 -0.2018 -0.0122  0.0012
  198POPC   C4B 2929   2.850   6.201   7.295 -0.0322  0.0812 -0.2018
  199POPC   NC3 2930   2.192   8.416   5.820  0.1145  0.0120 -0.1977
  199POPC   PO4 2931   2.083   8.173   5.561 -0.3282 -0.1876 -0.1093
  199POPC   GL1 2932   2.190   7.971   5.902 -0.2242  0.2370  0.0935
  199POPC   GL2 2933   2.300   8.231   6.336  0.0877  0.0071  0.0485
  199POPC   C1A 2934   2.155   7.644   6.224  0.0245  0.0564  0.2318
  199POPC   D2A 2935   1.912   7.520   6.586 -0.0208 -0.0444  0.0817
  199POPC   C3A 2936   1.747   7.855   6.814 -0.3578  0.0486  0.2449
  199POPC   C4A 2937   1.264   7.952   6.919 -0.3574  0.0795 -0.4646
  199POPC   C1B 2938   2.094   8.197   6.785 -0.3101  0.4880  0.0590
  199POPC   C2B 2939   1.976   8.144   7.175  0.0470 -0.2666 -0.2338
  199POPC   C3B 2940   1.597   8.086   7.342 -0.1313 -0.0916  0.5784
  199POPC   C4B 2941   1.276   8.283   7.358  0.0940 -0.0945 -0.0038
  200POPC   NC3 2942   7.722   5.608   4.357  0.0615 -0.1930  0.2215
  200POPC   PO4 2943   7.768   5.238   4.271  0.4058 -0.1369 -0.1466
  200POPC   GL1 2944   7.466   5.197   4.613  0.0526  0.2658 -0.1303
  200POPC   GL2 2945   7.374   5.471   4.684 -0.0079  0.0574 -0.1558
  200POPC   C1A 2946   7.430   5.124   5.079  0.1076 -0.1191  0.4552
  200POPC   D2A 2947   7.239   5.317   5.371 -0.0368 -0.0542  0.1833
  200POPC   C3A 2948   6.937   5.162   5.660 -0.2524  0.1711 -0.1555
  200POPC   C4A 2949   6.598   4.878   5.619  0.1301  0.0304  0.3817
  200POPC   C1B 2950   7.645   5.624   5.089  0.0332 -0.0627 -0.3149
  200POPC   C2B 2951   7.628   5.650   5.611  0.3003 -0.0232  0.0327
  200POPC   C3B 2952   7.496   5.566   5.958 -0.0205  0.0598 -0.0543
  200POPC   C4B 2953   7.558   5.597   6.397  0.4181 -0.2125  0.3162
  201POPC   NC3 2954   6.604   5.743   4.145  0.5717  0.1829 -0.2308
  201POPC   PO4 2955   6.231   5.892   4.121 -0.2549  0.1616 -0.1358
  201POPC   GL1 2956   6.279   5.995   4.528  0.2509 -0.2194 -0.1349
  201POPC   GL2 2957   6.146   5.771   4.699 -0.0115  0.1925 -0.1515
  201POPC   C1A 2958   6.243   6.341   4.740  0.0831 -0.1995  0.1066
  201POPC   D2A 2959   6.352   6.701   5.037  0.3956 -0.3527  0.1374
  201POPC   C3A 2960   6.721   6.801   4.840 -0.0222 -0.2532 -0.0856
  201POPC   C4A 2961   7.032   7.139   4.768 -0.0292  0.2680 -0.1000
  201POPC   C1B 2962   6.125   5.653   5.221 -0.0199  0.0245 -0.4021
  201POPC   C2B 2963   6.272   5.832   5.677 -0.1323 -0.0307  0.0566
  201POPC   C3B 2964   6.663   6.086   6.019  0.1530  0.0251  0.1806
  201POPC   C4B 2965   6.965   6.365   6.115 -0.1652  0.0092 -0.0275
  202POPC   NC3 2966   5.432   6.547   3.948 -0.0420  0.0066  0.1214
  202POPC   PO4 2967   5.325   6.147   4.175 -0.2314  0.1838  0.0202
  202POPC   GL1 2968   5.403   6.251   4.644  0.0442 -0.0790 -0.0449
  202POPC   GL2 2969   5.334   6.569   4.754 -0.3187  0.0528 -0.0462
  202POPC   C1A 2970   5.832   6.195   4.955 -0.2953 -0.1545 -0.1761
  202POPC   D2A 2971   5.773   6.116   5.406  0.1485  0.0976 -0.0459
  202POPC   C3A 2972   6.009   6.331   5.685 -0.0275  0.2718 -0.2046
  202POPC   C4A 2973   6.264   6.598   6.072  0.1468  0.1499  0.2029
  202POPC   C1B 2974   5.447   6.505   5.180  0.0238  0.0909 -0.0878
  202POPC   C2B 2975   5.486   6.590   5.657  0.2185  0.3031  0.0356
  202POPC   C3B 2976   5.748   6.552   6.063  0.1202 -0.1711  0.1014
  202POPC   C4B 2977   5.923   6.619   6.470 -0.0358  0.2312  0.3448
  203POPC   NC3 2978   4.475   6.082   4.162 -0.0583 -0.4171  0.0364
  203POPC   PO4 2979   4.908   6.054   4.432  0.0031  0.1559  0.2337
  203POPC   GL1 2980   4.661   6.194   4.772  0.2546  0.1224 -0.3342
  203POPC   GL2 2981   4.593   6.148   5.056 -0.0645 -0.0094 -0.0364
  203POPC   C1A 2982   4.858   6.537   5.103  0.1098 -0.1606 -0.3528
  203POPC   D2A 2983   5.132   6.796   5.350  0.5174  0.1827  0.0447
  203POPC   C3A 2984   4.889   7.197   5.567 -0.2188 -0.0887  0.2449
  203POPC   C4A 2985   5.042   7.463   5.827  0.4443  0.3363  0.0395
  203POPC   C1B 2986   4.332   6.307   5.345 -0.2448  0.0183  0.2194
  203POPC   C2B 2987   4.050   6.064   5.677 -0.0718 -0.1330 -0.1325
  203POPC   C3B 2988   4.019   5.901   6.068 -0.0875  0.3831  0.1876
  203POPC   C4B 2989   4.029   6.079   6.440 -0.2758  0.0684  0.1056
  204POPC   NC3 2990   1.058   9.997   5.729  0.2476 -0.2561  0.0378
  204POPC   PO4 2991   0.847   9.586   5.617 -0.0628 -0.1416 -0.0694
  204POPC   GL1 2992   0.772   9.638   5.985 -0.0977  0.0021  0.2771
  204POPC   GL2 2993   0.811   9.425   6.112  0.0230 -0.0079 -0.3525
  204POPC   C1A 2994   1.048   9.721   6.450  0.3474  0.0486  0.3556
  204POPC   D2A 2995   1.048   9.975   6.842  0.1992  0.1307  0.3525
  204POPC   C3A 2996   0.801  10.043   7.172 -0.3728  0.2290 -0.2966
  204POPC   C4A 2997   0.577  10.094   7.454  0.1933  0.1962  0.0571
  204POPC   C1B 2998   0.755   9.345   6.591  0.1698 -0.2188 -0.1578
  204POPC   C2B 2999   0.945   9.529   6.923 -0.0499  0.1758 -0.1171
  204POPC   C3B 3000   0.667   9.580   7.247 -0.0373  0.1719  0.1299
  204POPC   C4B 3001   0.280   9.461   7.400 -0.2098 -0.3966  0.0529
  205POPC   NC3 3002   2.676   7.366   5.798  0.1705  0.0142  0.0934
  205POPC   PO4 3003   2.813   6.949   5.807 -0.1089  0.1294  0.1587
  205POPC   GL1 3004   2.737   7.041   6.180  0.3148  0.1083 -0.1417
  205POPC   GL2 3005   3.108   7.078   6.269  0.1253  0.1986  0.3028
  205POPC   C1A 3006   2.452   7.314   6.474 -0.4634 -0.1067 -0.0361
  205POPC   D2A 3007   2.401   7.752   6.736 -0.2497 -0.0299 -0.1151
  205POPC   C3A 3008   2.652   7.940   7.155 -0.1191 -0.0313 -0.2094
  205POPC   C4A 3009   2.826   7.719   7.470 -0.0615 -0.1704 -0.0662
  205POPC   C1B 3010   2.895   6.999   6.669 -0.0280 -0.3009 -0.1257
  205POPC   C2B 3011   3.064   7.165   6.971 -0.0539  0.3991 -0.0943
  205POPC   C3B 3012   3.256   7.584   7.071 -0.1119 -0.0353  0.0701
  205POPC   C4B 3013   3.518   7.803   7.191  0.0474  0.2444 -0.1526
  206POPC   NC3 3014   4.453   4.095   5.121 -0.2467 -0.1152 -0.1463
  206POPC   PO4 3015   4.575   3.812   5.412  0.3696  0.2650  0.0464
  206POPC   GL1 3016   4.593   3.675   5.797  0.1541  0.0265 -0.1838
  206POPC   GL2 3017   4.809   3.962   5.978  0.0864  0.1606 -0.0726
  206POPC   C1A 3018   4.478   3.492   6.123  0.2289 -0.0534 -0.0012
  206POPC   D2A 3019   4.601   3.446   6.614 -0.1099 -0.3018 -0.1084
  206POPC   C3A 3020   4.705   3.869   6.909  0.1853 -0.0077 -0.1204
  206POPC   C4A 3021   4.856   4.274   7.062 -0.1919 -0.1861  0.2185
  206POPC   C1B 3022   4.397   4.072   6.220 -0.0130 -0.3458  0.0813
  206POPC   C2B 3023   4.170   4.367   6.089  0.0390  0.2394  0.1598
  206POPC   C3B 3024   3.788   4.432   6.275  0.1800 -0.0981 -0.1591
  206POPC   C4B 3025   3.579   4.585   6.622  0.2224  0.0851  0.0130
  207POPC   NC3 3026   7.884   0.801   4.391 -0.0333 -0.1099 -0.2021
  207POPC   PO4 3027   7.963   1.058   4.794 -0.2843  0.3029 -0.2205
  207POPC   GL1 3028   7.811   1.066   5.095  0.0129  0.0470  0.2610
  207POPC   GL2 3029   7.542   1.045   5.258  0.0228 -0.1548  0.2688
  207POPC   C1A 3030   7.838   1.108   5.583  0.0535 -0.3148 -0.0989
  207POPC   D2A 3031   8.005   1.123   6.049  0.0400 -0.1101  0.0261
  207POPC   C3A 3032   7.882   1.511   6.191 -0.0648  0.0158 -0.3711
  207POPC   C4A 3033   7.662   1.779   6.508  0.0006 -0.0092 -0.1247
  207POPC   C1B 3034   7.613   0.674   5.698  0.2681  0.0283  0.2756
  207POPC   C2B 3035   7.649   0.791   6.076  0.0110  0.0971 -0.0006
  207POPC   C3B 3036   7.472   0.562   6.392 -0.3223 -0.1804  0.4322
  207POPC   C4B 3037   7.727   0.609   6.834  0.1569  0.1682  0.0370
  208POPC   NC3 3038   3.327   0.502   5.546  0.0512  0.1131 -0.3215
  208POPC   PO4 3039   2.905   0.516   5.625  0.0634 -0.1217  0.0980
  208POPC   GL1 3040   3.071   0.207   5.916  0.0547 -0.1591  0.0957
  208POPC   GL2 3041   3.262  -0.096   5.796 -0.0026 -0.1494 -0.0205
  208POPC   C1A 3042   3.202   0.106   6.353 -0.0783 -0.3681 -0.0494
  208POPC   D2A 3043   3.328   0.382   6.726 -0.0861  0.1881  0.0025
  208POPC   C3A 3044   3.238   0.082   7.044  0.1520  0.2929  0.1557
  208POPC   C4A 3045   3.320  -0.022   7.510 -0.3807  0.3016 -0.1516
  208POPC   C1B 3046   3.677  -0.290   5.854 -0.1072  0.1712  0.1191
  208POPC   C2B 3047   4.014  -0.594   5.819  0.1316 -0.2790  0.0024
  208POPC   C3B 3048   4.155  -0.891   5.787 -0.1834 -0.1687 -0.3587
  208POPC   C4B 3049   4.404  -1.096   5.459 -0.0897 -0.0375  0.0050
  209POPC   NC3 3050   1.097   5.888   4.453  0.0506 -0.1350  0.1023
  209POPC   PO4 3051   0.844   5.825   4.719 -0.0381 -0.0755 -0.1191
  209POPC   GL1 3052   0.723   5.771   5.076  0.0807  0.0901  0.1681
  209POPC   GL2 3053   0.751   5.512   5.292  0.0782 -0.2159  0.0934
  209POPC   C1A 3054   0.343   5.765   5.305 -0.0889  0.0585 -0.1601
  209POPC   D2A 3055   0.003   5.960   5.394  0.1558  0.0039  0.0446
  209POPC   C3A 3056  -0.272   5.717   5.728 -0.2137  0.1938  0.1154
  209POPC   C4A 3057  -0.542   5.442   6.119 -0.0752  0.0488 -0.3704
  209POPC   C1B 3058   0.696   5.836   5.654  0.0189 -0.3561  0.1486
  209POPC   C2B 3059   0.629   6.219   6.009  0.2842  0.0018 -0.3120
  209POPC   C3B 3060   0.611   6.562   6.364 -0.0335  0.1234  0.0247
  209POPC   C4B 3061   0.719   6.717   6.649 -0.1276 -0.0086  0.1950
  210POPC   NC3 3062   2.038   9.072   5.557  0.2300 -0.0758 -0.2598
  210POPC   PO4 3063   2.025   9.355   5.833  0.0183 -0.1382  0.0944
  210POPC   GL1 3064   1.917   9.388   6.188  0.1997 -0.1881 -0.1598
  210POPC   GL2 3065   1.562   9.510   6.266  0.2170 -0.0187 -0.0649
  210POPC   C1A 3066   1.917   9.231   6.624 -0.1454  0.3233 -0.0282
  210POPC   D2A 3067   1.726   9.099   7.005  0.1713 -0.1976 -0.1722
  210POPC   C3A 3068   1.722   9.221   7.390 -0.1829  0.1744 -0.0200
  210POPC   C4A 3069   1.523   9.347   7.872  0.2593 -0.0326 -0.3375
  210POPC   C1B 3070   1.352   9.269   6.582 -0.1619  0.1315  0.2355
  210POPC   C2B 3071   1.176   9.023   6.882 -0.0267  0.0128 -0.1322
  210POPC   C3B 3072   0.769   9.068   7.107 -0.1733 -0.0615 -0.1928
  210POPC   C4B 3073   0.345   9.288   6.951 -0.1587 -0.1276  0.3282
  211POPC   NC3 3074   0.824   7.962   4.869  0.1950 -0.1436  0.1468
  211POPC   PO4 3075   1.105   7.979   5.255 -0.2624 -0.0292  0.1464
  211POPC   GL1 3076   1.096   8.178   5.665  0.2351 -0.2983  0.0944
  211POPC   GL2 3077   0.870   8.050   5.759  0.1872  0.1112  0.0216
  211POPC   C1A 3078   1.274   8.237   6.139  0.1687  0.0216  0.0937
  211POPC   D2A 3079   1.075   8.504   6.435  0.1029 -0.1183  0.1710
  211POPC   C3A 3080   1.016   8.396   6.835 -0.4207  0.3517  0.0676
  211POPC   C4A 3081   0.696   8.505   7.143 -0.5669 -0.0124 -0.0912
  211POPC   C1B 3082   0.881   7.939   6.226  0.3376  0.0098  0.1436
  211POPC   C2B 3083   0.790   8.017   6.626 -0.3476  0.0913 -0.0792
  211POPC   C3B 3084   0.456   8.060   6.834 -0.1627 -0.0835 -0.3099
  211POPC   C4B 3085   0.094   7.874   6.677 -0.0111  0.0818  0.0715
  212POPC   NC3 3086   7.206   5.263   4.190 -0.0438 -0.1380  0.0896
  212POPC   PO4 3087   7.095   5.632   4.287  0.2002  0.0588  0.2309
  212POPC   GL1 3088   6.900   5.634   4.667 -0.0872  0.1470 -0.2762
  212POPC   GL2 3089   6.618   5.611   4.640  0.2680  0.1550 -0.0684
  212POPC   C1A 3090   7.030   5.734   5.056 -0.0901  0.0731 -0.2882
  212POPC   D2A 3091   7.246   5.921   5.339 -0.0515 -0.2647  0.2440
  212POPC   C3A 3092   7.091   5.734   5.782  0.0139 -0.2296  0.0968
  212POPC   C4A 3093   7.076   5.762   6.253  0.4239  0.2098  0.1982
  212POPC   C1B 3094   6.507   5.929   4.968  0.2025  0.1790  0.1170
  212POPC   C2B 3095   6.299   6.244   5.251  0.2298  0.2262  0.0203
  212POPC   C3B 3096   6.411   6.598   5.539  0.0132 -0.0139 -0.2373
  212POPC   C4B 3097   6.690   6.678   5.854  0.0595 -0.1786  0.0491
  213POPC   NC3 3098   2.878   6.643   5.368  0.3429  0.0179  0.0281
  213POPC   PO4 3099   2.433   6.517   5.190  0.0720  0.1653  0.1246
  213POPC   GL1 3100   2.476   6.549   5.668 -0.1349  0.0731 -0.0171
  213POPC   GL2 3101   2.345   6.770   5.934 -0.1209  0.1718  0.2026
  213POPC   C1A 3102   2.595   6.393   6.120  0.0247  0.1091  0.0085
  213POPC   D2A 3103   2.541   6.211   6.500 -0.1152  0.0209  0.2326
  213POPC   C3A 3104   2.508   6.433   6.872 -0.0657 -0.2874 -0.2018
  213POPC   C4A 3105   2.426   6.779   7.046 -0.0606 -0.1719 -0.0219
  213POPC   C1B 3106   2.369   6.758   6.508 -0.0628  0.1941  0.1145
  213POPC   C2B 3107   2.109   7.010   6.712  0.0195  0.1089 -0.0289
  213POPC   C3B 3108   2.021   7.296   6.995  0.0435  0.2390 -0.3258
  213POPC   C4B 3109   2.088   7.637   7.369  0.0027  0.3081  0.1745
  214POPC   NC3 3110   8.807   5.964   4.203 -0.0085  0.1901  0.0316
  214POPC   PO4 3111   8.353   6.023   4.362  0.1723  0.4444 -0.0787
  214POPC   GL1 3112   8.255   6.291   4.669 -0.1312  0.0964 -0.1335
  214POPC   GL2 3113   8.450   6.534   4.646 -0.2759 -0.1304  0.2059
  214POPC   C1A 3114   8.181   6.295   5.164 -0.0222 -0.0429 -0.2756
  214POPC   D2A 3115   8.008   6.474   5.504  0.0549 -0.0997  0.2722
  214POPC   C3A 3116   8.222   6.446   5.927 -0.2249  0.1675 -0.0211
  214POPC   C4A 3117   8.324   6.714   6.222 -0.0131  0.5538  0.0184
  214POPC   C1B 3118   8.226   6.853   4.773  0.2284 -0.2825  0.0176
  214POPC   C2B 3119   8.091   7.183   5.057  0.0322  0.0983  0.1300
  214POPC   C3B 3120   7.896   7.380   5.416  0.0633 -0.0265  0.3042
  214POPC   C4B 3121   8.052   7.434   5.910  0.3428  0.2004  0.0706
  215POPC   NC3 3122   5.450   3.863   5.251 -0.1896 -0.0054 -0.1172
  215POPC   PO4 3123   5.880   3.791   5.365  0.1404 -0.1170 -0.1898
  215POPC   GL1 3124   5.953   3.730   5.863  0.1830  0.0316  0.1206
  215POPC   GL2 3125   5.608   3.840   5.863 -0.0516  0.2342 -0.0424
  215POPC   C1A 3126   6.074   3.651   6.262 -0.2002 -0.0356 -0.0711
  215POPC   D2A 3127   6.518   3.823   6.494 -0.4187  0.3176 -0.2183
  215POPC   C3A 3128   6.927   3.642   6.489  0.2072  0.1733  0.2859
  215POPC   C4A 3129   7.342   3.821   6.574  0.0210 -0.0124 -0.1328
  215POPC   C1B 3130   5.433   4.090   6.225 -0.1994  0.3202  0.0110
  215POPC   C2B 3131   5.360   3.993   6.731  0.0562  0.1200  0.0419
  215POPC   C3B 3132   5.693   3.813   6.996 -0.0310  0.2336  0.0152
  215POPC   C4B 3133   5.833   3.419   7.275 -0.2050  0.1943  0.2384
  216POPC   NC3 3134   3.497   7.429   5.255  0.1987  0.2575 -0.0392
  216POPC   PO4 3135   3.389   7.749   5.499 -0.3293 -0.1841  0.0872
  216POPC   GL1 3136   3.422   7.702   5.881  0.1921 -0.0742 -0.0829
  216POPC   GL2 3137   3.154   7.606   6.112 -0.1984  0.0286 -0.3308
  216POPC   C1A 3138   3.666   7.754   6.202 -0.0163 -0.3280 -0.2189
  216POPC   D2A 3139   3.791   7.549   6.644  0.1409  0.1823 -0.1936
  216POPC   C3A 3140   3.885   7.891   6.818 -0.0322 -0.2524 -0.0489
  216POPC   C4A 3141   3.928   8.342   6.974  0.0976 -0.0765 -0.4386
  216POPC   C1B 3142   3.312   7.713   6.529 -0.3720  0.1017 -0.2319
  216POPC   C2B 3143   3.321   8.056   6.810  0.2151 -0.1922 -0.0092
  216POPC   C3B 3144   3.442   8.468   6.937 -0.1073  0.0813  0.2053
  216POPC   C4B 3145   3.457   8.864   7.191 -0.2153 -0.0740 -0.1371
  217POPC   NC3 3146   2.651   8.343   5.561 -0.2023  0.0810 -0.0971
  217POPC   PO4 3147   2.627   8.274   5.936 -0.3984  0.4801  0.0844
  217POPC   GL1 3148   3.004   8.580   6.091  0.1973  0.1012 -0.1363
  217POPC   GL2 3149   2.932   8.820   5.987 -0.1941  0.0559 -0.2427
  217POPC   C1A 3150   3.460   8.692   6.260 -0.1646  0.1579 -0.1653
  217POPC   D2A 3151   3.779   8.632   6.556  0.0586 -0.2452  0.2201
  217POPC   C3A 3152   3.897   8.840   6.935 -0.0194 -0.1477  0.3175
  217POPC   C4A 3153   4.228   8.679   7.251  0.1135  0.0428 -0.3030
  217POPC   C1B 3154   2.868   8.934   6.437 -0.3649  0.1275 -0.0573
  217POPC   C2B 3155   2.847   8.866   6.915 -0.0936 -0.1376  0.0657
  217POPC   C3B 3156   2.949   8.810   7.336 -0.5516  0.0228 -0.0126
  217POPC   C4B 3157   3.104   8.694   7.795 -0.2080  0.0414  0.0887
  218POPC   NC3 3158   3.451   4.337   5.282  0.3932 -0.0126  0.0288
  218POPC   PO4 3159   3.172   4.074   5.397  0.1171  0.1838 -0.2200
  218POPC   GL1 3160   3.195   4.229   5.867 -0.0021  0.0506  0.0859
  218POPC   GL2 3161   3.532   4.284   5.816  0.0383 -0.2080  0.1740
  218POPC   C1A 3162   2.888   4.178   6.115 -0.0624  0.1997 -0.2254
  218POPC   D2A 3163   2.696   4.231   6.498  0.1453  0.4870 -0.0315
  218POPC   C3A 3164   2.956   4.149   6.804  0.1142 -0.0917 -0.0634
  218POPC   C4A 3165   3.341   4.195   7.049 -0.0743 -0.0286 -0.0693
  218POPC   C1B 3166   3.720   4.704   5.913 -0.1899 -0.0870 -0.2316
  218POPC   C2B 3167   3.591   4.960   6.220 -0.2500 -0.0364 -0.0498
  218POPC   C3B 3168   3.678   5.273   6.373  0.1945  0.1746  0.1132
  218POPC   C4B 3169   3.747   5.650   6.493 -0.0160 -0.0075  0.1133
  219POPC   NC3 3170   9.239   1.916   5.464  0.1129 -0.1579  0.1284
  219POPC   PO4 3171   9.613   1.707   5.336 -0.2069  0.0262 -0.2747
  219POPC   GL1 3172   9.888   1.626   5.750 -0.3702 -0.0026  0.0925
  219POPC   GL2 3173   9.804   1.382   5.980 -0.0782  0.3510 -0.0473
  219POPC   C1A 3174  10.039   1.790   6.154  0.0700 -0.1202 -0.0569
  219POPC   D2A 3175  10.185   2.166   6.392 -0.2220  0.2276 -0.2180
  219POPC   C3A 3176  10.310   2.198   6.820 -0.2187  0.2204  0.0327
  219POPC   C4A 3177  10.217   1.898   7.092 -0.2141 -0.1757  0.2457
  219POPC   C1B 3178   9.440   1.487   6.189  0.2977  0.1100 -0.0362
  219POPC   C2B 3179   9.334   1.729   6.514 -0.0129  0.0160 -0.0601
  219POPC   C3B 3180   9.169   1.939   6.789 -0.1900  0.1813 -0.1078
  219POPC   C4B 3181   8.633   1.917   6.694 -0.3593 -0.1464  0.1649
  220POPC   NC3 3182   3.299   6.475   5.079 -0.1331 -0.1690  0.1857
  220POPC   PO4 3183   3.349   6.827   5.417 -0.1339 -0.3052 -0.1346
  220POPC   GL1 3184   3.325   6.876   5.870  0.1253 -0.2496  0.2184
  220POPC   GL2 3185   3.165   6.565   5.955 -0.1055 -0.2283 -0.0183
  220POPC   C1A 3186   3.515   6.765   6.289 -0.1960  0.1386  0.0962
  220POPC   D2A 3187   3.534   6.803   6.821  0.0383  0.1959  0.0022
  220POPC   C3A 3188   3.342   6.964   7.278  0.1573  0.1166  0.1423
  220POPC   C4A 3189   3.076   7.249   7.523 -0.2537  0.1079  0.5102
  220POPC   C1B 3190   3.103   6.594   6.324  0.0487 -0.0762 -0.0420
  220POPC   C2B 3191   3.129   6.585   6.655  0.6129  0.2211 -0.2723
  220POPC   C3B 3192   2.924   6.669   7.101  0.1284  0.1706  0.0539
  220POPC   C4B 3193   2.747   6.921   7.428  0.3261  0.3032  0.2169
  221POPC   NC3 3194   9.624   0.460   4.912  0.0548  0.2474  0.0997
  221POPC   PO4 3195   9.462   0.053   4.765  0.0137 -0.2672  0.0559
  221POPC   GL1 3196   9.368   0.136   5.173  0.1318  0.4292 -0.4544
  221POPC   GL2 3197   9.400  -0.203   5.336 -0.1011 -0.1844  0.1269
  221POPC   C1A 3198   9.076   0.035   5.614  0.1635  0.0559  0.2071
  221POPC   D2A 3199   8.840  -0.102   5.861  0.2108  0.1163  0.4059
  221POPC   C3A 3200   8.777  -0.544   5.862  0.4454 -0.1701 -0.1083
  221POPC   C4A 3201   8.970  -0.870   6.089 -0.1800 -0.0151  0.1038
  221POPC   C1B 3202   9.544   0.247   5.673 -0.0898 -0.0299 -0.2353
  221POPC   C2B 3203   9.598   0.539   5.999  0.1965 -0.2482 -0.1008
  221POPC   C3B 3204   9.535   0.415   6.451 -0.2079 -0.0689  0.1349
  221POPC   C4B 3205   9.721   0.317   6.773  0.1031  0.1373  0.0303
  222POPC   NC3 3206   7.434   5.950   3.987 -0.3443  0.0357  0.1778
  222POPC   PO4 3207   7.797   6.133   4.184  0.0789 -0.1198  0.5068
  222POPC   GL1 3208   7.488   6.240   4.459  0.2937 -0.1058 -0.0442
  222POPC   GL2 3209   7.161   6.074   4.508 -0.1914 -0.3740  0.0232
  222POPC   C1A 3210   7.334   6.565   4.679  0.1410 -0.0380 -0.1340
  222POPC   D2A 3211   7.267   6.745   5.085 -0.0874  0.0160  0.0704
  222POPC   C3A 3212   7.452   7.183   5.050  0.0470  0.1660 -0.1276
  222POPC   C4A 3213   7.654   7.525   5.002  0.0124 -0.0625 -0.1919
  222POPC   C1B 3214   7.369   6.050   4.855  0.0159  0.0319  0.0146
  222POPC   C2B 3215   7.424   6.304   5.123 -0.2105  0.2836  0.4814
  222POPC   C3B 3216   7.406   6.494   5.464 -0.0029 -0.1129 -0.2178
  222POPC   C4B 3217   7.173   6.732   5.773  0.0599  0.2185 -0.0274
  223POPC   NC3 3218   0.858   9.116   5.718 -0.3491 -0.0115  0.0431
  223POPC   PO4 3219   1.037   8.786   5.481  0.0064  0.0593  0.0195
  223POPC   GL1 3220   0.795   8.589   5.731  0.0623 -0.0627 -0.2744
  223POPC   GL2 3221   0.517   8.583   5.596 -0.2567 -0.2816  0.0304
  223POPC   C1A 3222   0.688   8.432   6.142 -0.0366 -0.2495  0.3156
  223POPC   D2A 3223   0.554   8.455   6.486 -0.1025  0.1598 -0.0573
  223POPC   C3A 3224   0.085   8.298   6.448  0.1451 -0.2129  0.3269
  223POPC   C4A 3225  -0.159   8.484   6.091 -0.0466  0.0746 -0.2637
  223POPC   C1B 3226   0.376   8.235   5.767  0.6242  0.4529  0.1856
  223POPC   C2B 3227   0.437   7.793   5.831 -0.1279  0.0326  0.2771
  223POPC   C3B 3228   0.414   7.443   5.719 -0.1220 -0.1766 -0.2460
  223POPC   C4B 3229   0.197   7.270   5.354  0.0520 -0.0032  0.1729
  224POPC   NC3 3230   6.472   0.628   4.735  0.0890  0.2453  0.2079
  224POPC   PO4 3231   6.182   0.903   4.913 -0.0175 -0.0254  0.0284
  224POPC   GL1 3232   6.253   0.595   5.181 -0.2279  0.0689  0.0620
  224POPC   GL2 3233   6.044   0.310   5.169 -0.0186  0.4132  0.0983
  224POPC   C1A 3234   6.140   0.421   5.712 -0.0450  0.2077  0.0584
  224POPC   D2A 3235   6.291   0.412   6.142 -0.3130  0.2451 -0.1812
  224POPC   C3A 3236   6.618   0.083   6.250 -0.1788  0.3045  0.2647
  224POPC   C4A 3237   6.951  -0.088   6.119 -0.3366  0.2662  0.1163
  224POPC   C1B 3238   5.894   0.015   5.502 -0.1486 -0.1802  0.3482
  224POPC   C2B 3239   6.058  -0.179   5.956  0.2419  0.3419 -0.0563
  224POPC   C3B 3240   6.157  -0.063   6.288  0.0281  0.0867  0.1090
  224POPC   C4B 3241   6.413  -0.194   6.659 -0.1001 -0.1108  0.0026
  225POPC   NC3 3242   9.098   4.471   5.011  0.0674  0.0495  0.0668
  225POPC   PO4 3243   8.732   4.544   5.240  0.0221 -0.1373 -0.3719
  225POPC   GL1 3244   8.629   4.502   5.636 -0.2145 -0.2640 -0.0089
  225POPC   GL2 3245   8.640   4.206   5.701 -0.1508  0.1664 -0.1406
  225POPC   C1A 3246   8.491   4.572   5.968  0.0430  0.1322 -0.0552
  225POPC   D2A 3247   8.424   4.970   6.297 -0.1447  0.2050 -0.0203
  225POPC   C3A 3248   8.052   4.895   6.552  0.0240  0.3664  0.0258
  225POPC   C4A 3249   7.676   4.688   6.641  0.1725  0.2949 -0.0514
  225POPC   C1B 3250   8.671   4.148   6.078 -0.4308 -0.0858 -0.0738
  225POPC   C2B 3251   8.666   4.011   6.526  0.0967  0.2008 -0.0147
  225POPC   C3B 3252   8.805   4.183   6.901  0.0212 -0.4657 -0.0205
  225POPC   C4B 3253   8.996   4.588   6.882  0.0465 -0.3509 -0.1117
  226POPC   NC3 3254   3.980   0.913   5.848 -0.3143 -0.2059  0.0683
  226POPC   PO4 3255   3.658   0.887   5.522  0.2069 -0.2884 -0.0857
  226POPC   GL1 3256   3.447   0.910   5.953 -0.2364 -0.2225 -0.0225
  226POPC   GL2 3257   3.556   1.071   6.132 -0.1539 -0.2323 -0.1950
  226POPC   C1A 3258   3.203   0.654   6.179 -0.1319 -0.2208  0.0240
  226POPC   D2A 3259   2.940   0.616   6.633  0.1247 -0.0695  0.2309
  226POPC   C3A 3260   2.476   0.649   6.747  0.3472 -0.0286 -0.1094
  226POPC   C4A 3261   2.138   0.476   6.970  0.1283  0.1941  0.1352
  226POPC   C1B 3262   3.716   0.625   6.385  0.0929 -0.2231  0.0286
  226POPC   C2B 3263   3.800   0.404   6.704 -0.1186 -0.1431  0.2210
  226POPC   C3B 3264   4.010   0.539   6.994 -0.0849 -0.3754  0.2903
  226POPC   C4B 3265   4.134   0.449   7.475  0.0214  0.0761  0.1513
  227POPC   NC3 3266   7.842   9.807   3.952 -0.6017  0.2212  0.1516
  227POPC   PO4 3267   7.382   9.731   3.933  0.1399 -0.0421 -0.0357
  227POPC   GL1 3268   7.409   9.603   4.304  0.1436 -0.0252 -0.1041
  227POPC   GL2 3269   7.715   9.458   4.306  0.1335  0.2211 -0.1205
  227POPC   C1A 3270   7.140   9.560   4.625  0.1356  0.1392 -0.0861
  227POPC   D2A 3271   6.890   9.387   4.808  0.2239 -0.0251 -0.0200
  227POPC   C3A 3272   6.676   9.026   4.626  0.0123  0.0182 -0.1756
  227POPC   C4A 3273   6.657   8.599   4.459  0.1019  0.0733  0.1184
  227POPC   C1B 3274   7.529   9.102   4.484 -0.1041  0.0492  0.1150
  227POPC   C2B 3275   7.502   8.731   4.786 -0.0523 -0.1573 -0.2708
  227POPC   C3B 3276   7.547   8.411   4.995 -0.0290 -0.2531  0.0718
  227POPC   C4B 3277   7.392   8.003   4.955 -0.1989 -0.2697  0.0203
  228POPC   NC3 3278   9.611   3.053   4.674 -0.1833 -0.1109 -0.0814
  228POPC   PO4 3279   9.688   3.453   4.883  0.0286  0.0002 -0.1349
  228POPC   GL1 3280   9.632   3.470   5.253  0.0521  0.4322 -0.2567
  228POPC   GL2 3281   9.585   3.870   5.525 -0.1613 -0.0590 -0.0522
  228POPC   C1A 3282   9.730   3.221   5.676  0.0043 -0.0767 -0.1344
  228POPC   D2A 3283   9.809   2.945   5.974  0.1642  0.3444  0.1164
  228POPC   C3A 3284   9.848   3.093   6.463  0.0320  0.0237  0.2152
  228POPC   C4A 3285   9.961   3.206   6.861 -0.1010 -0.0920 -0.0592
  228POPC   C1B 3286   9.541   3.657   5.893 -0.0836  0.0338  0.1023
  228POPC   C2B 3287   9.534   3.375   6.105  0.1363 -0.0589 -0.1335
  228POPC   C3B 3288   9.291   2.905   6.049 -0.3460  0.1015  0.2129
  228POPC   C4B 3289   9.106   2.553   6.231 -0.0970  0.0576 -0.2493
  229POPC   NC3 3290   5.198   8.228   4.212 -0.2025 -0.0633  0.0560
  229POPC   PO4 3291   5.434   8.304   3.896 -0.2042 -0.1787  0.3766
  229POPC   GL1 3292   5.717   8.244   4.314 -0.1275 -0.3046  0.2505
  229POPC   GL2 3293   5.452   8.018   4.567  0.4320  0.0956 -0.1678
  229POPC   C1A 3294   5.882   8.329   4.666  0.0292 -0.1246  0.1468
  229POPC   D2A 3295   6.229   8.153   4.628 -0.4148  0.0464  0.1148
  229POPC   C3A 3296   6.517   8.175   4.936  0.1017  0.1248  0.0548
  229POPC   C4A 3297   6.889   8.081   4.990  0.0714  0.0722  0.0479
  229POPC   C1B 3298   5.147   7.935   4.849  0.0633 -0.0709 -0.0027
  229POPC   C2B 3299   4.846   7.878   5.224 -0.0642 -0.1791  0.0290
  229POPC   C3B 3300   4.745   7.917   5.706 -0.0059  0.2442 -0.1545
  229POPC   C4B 3301   4.554   7.693   6.000  0.1480  0.0030 -0.1510
  230POPC   NC3 3302   9.189   2.512   5.528  0.0749 -0.1664  0.1997
  230POPC   PO4 3303   9.580   2.209   5.264 -0.1671  0.1593 -0.0035
  230POPC   GL1 3304   9.701   2.097   5.644  0.0033  0.3407 -0.0928
  230POPC   GL2 3305  10.072   2.242   5.799  0.0108  0.1986  0.0099
  230POPC   C1A 3306   9.585   1.962   6.095  0.1409  0.1585  0.2677
  230POPC   D2A 3307   9.455   2.194   6.458 -0.2414  0.0292  0.0618
  230POPC   C3A 3308   9.814   2.394   6.672  0.0333 -0.0458 -0.2578
  230POPC   C4A 3309  10.126   2.669   6.526  0.1297 -0.1918  0.0148
  230POPC   C1B 3310   9.815   2.372   6.107  0.0026 -0.0160  0.0819
  230POPC   C2B 3311   9.582   2.693   6.350  0.3418 -0.2231 -0.0170
  230POPC   C3B 3312   9.303   3.053   6.529  0.0062  0.1194  0.0411
  230POPC   C4B 3313   8.836   3.005   6.635  0.2946  0.0122  0.1308
  231POPC   NC3 3314   8.520   0.222   3.770  0.1589 -0.0234 -0.0848
  231POPC   PO4 3315   8.271  -0.106   4.049  0.3037 -0.1810  0.1346
  231POPC   GL1 3316   7.942  -0.235   4.459 -0.1366  0.2133  0.0263
  231POPC   GL2 3317   7.971  -0.436   4.877  0.0248  0.0599  0.2506
  231POPC   C1A 3318   7.545  -0.251   4.643 -0.0592 -0.0619 -0.1070
  231POPC   D2A 3319   7.114   0.048   4.801  0.0054 -0.0096  0.0063
  231POPC   C3A 3320   6.881   0.196   5.253 -0.0125 -0.1713  0.1809
  231POPC   C4A 3321   6.431   0.187   5.419  0.0248  0.0495 -0.1219
  231POPC   C1B 3322   8.375  -0.447   5.202 -0.0337 -0.0877 -0.3113
  231POPC   C2B 3323   8.337  -0.496   5.640 -0.0036 -0.1092  0.1878
  231POPC   C3B 3324   7.920  -0.489   5.916  0.0585  0.2968 -0.1495
  231POPC   C4B 3325   7.566  -0.605   6.161  0.1783  0.0927 -0.2113
  232POPC   NC3 3326   2.008   5.357   5.139 -0.2608  0.2089 -0.0583
  232POPC   PO4 3327   1.900   5.175   5.558 -0.0342  0.1750 -0.2981
  232POPC   GL1 3328   1.886   5.171   6.028 -0.0210  0.1440 -0.0880
  232POPC   GL2 3329   2.213   5.338   5.995 -0.1291 -0.1024 -0.1424
  232POPC   C1A 3330   2.149   4.964   6.442 -0.1204  0.0886  0.2128
  232POPC   D2A 3331   2.448   5.061   6.864 -0.1302  0.0276  0.0781
  232POPC   C3A 3332   2.837   4.917   6.877 -0.3050 -0.0115  0.3438
  232POPC   C4A 3333   3.121   4.591   6.800  0.2503 -0.0676 -0.2274
  232POPC   C1B 3334   2.263   5.410   6.499 -0.0295  0.0949 -0.2283
  232POPC   C2B 3335   2.158   5.530   6.942 -0.1638  0.0026 -0.0628
  232POPC   C3B 3336   2.072   5.774   7.275 -0.0001  0.0399  0.0492
  232POPC   C4B 3337   2.088   6.048   7.683 -0.0773 -0.0620 -0.2949
  233POPC   NC3 3338   0.059   3.615   4.875  0.0933 -0.2344  0.1210
  233POPC   PO4 3339   0.075   3.947   5.200  0.0335  0.3098  0.0763
  233POPC   GL1 3340  -0.104   4.064   5.534  0.3049 -0.5611 -0.2141
  233POPC   GL2 3341  -0.019   4.342   5.595  0.0898 -0.0505 -0.0933
  233POPC   C1A 3342  -0.268   3.964   5.959 -0.1030  0.1322 -0.2248
  233POPC   D2A 3343  -0.216   3.595   6.203  0.0091 -0.0624 -0.0419
  233POPC   C3A 3344  -0.049   3.619   6.640  0.0003  0.3039 -0.1950
  233POPC   C4A 3345  -0.312   3.762   6.940 -0.0670  0.1429 -0.0621
  233POPC   C1B 3346  -0.029   4.530   5.940  0.4548  0.0134  0.0846
  233POPC   C2B 3347   0.197   4.722   6.188 -0.0077 -0.0251  0.1090
  233POPC   C3B 3348   0.274   4.836   6.590  0.0575 -0.1691 -0.3175
  233POPC   C4B 3349   0.334   5.023   6.988 -0.0797  0.0486 -0.2687
  234POPC   NC3 3350   8.633   4.321   4.721  0.0341  0.0379 -0.0780
  234POPC   PO4 3351   8.580   4.753   4.785  0.0056 -0.0389 -0.0268
  234POPC   GL1 3352   8.435   5.000   5.061 -0.0558 -0.0404 -0.2358
  234POPC   GL2 3353   8.309   4.772   5.281  0.2178  0.3855 -0.0781
  234POPC   C1A 3354   8.610   5.400   5.156 -0.2081 -0.1113  0.0834
  234POPC   D2A 3355   8.488   5.575   5.584  0.4191 -0.1106 -0.1735
  234POPC   C3A 3356   8.162   5.462   5.801  0.0506 -0.1330  0.3190
  234POPC   C4A 3357   7.952   5.732   6.036 -0.1987  0.0873 -0.0592
  234POPC   C1B 3358   8.482   5.041   5.655 -0.4043 -0.0987  0.4991
  234POPC   C2B 3359   8.850   4.940   5.914 -0.0706  0.1207  0.0094
  234POPC   C3B 3360   8.989   5.282   6.226 -0.2338 -0.0625  0.1504
  234POPC   C4B 3361   9.240   5.595   6.423 -0.0271  0.1672  0.2521
  235POPC   NC3 3362   8.457   8.040   3.471 -0.0933  0.0798  0.1008
  235POPC   PO4 3363   8.377   7.640   3.569  0.1453 -0.0592  0.1514
  235POPC   GL1 3364   8.557   7.754   3.874  0.0972 -0.0140  0.1905
  235POPC   GL2 3365   8.483   8.075   3.934  0.1331 -0.0319 -0.1168
  235POPC   C1A 3366   8.773   7.622   4.342 -0.0673  0.1226 -0.0866
  235POPC   D2A 3367   8.781   7.752   4.744  0.0592  0.5101  0.1191
  235POPC   C3A 3368   8.653   7.681   5.125  0.0634 -0.1428  0.3604
  235POPC   C4A 3369   8.404   7.486   5.504  0.1059 -0.0554  0.2854
  235POPC   C1B 3370   8.565   8.136   4.294  0.1707  0.1048  0.1780
  235POPC   C2B 3371   8.595   8.376   4.627  0.0729 -0.0475 -0.3296
  235POPC   C3B 3372   8.564   8.519   5.073 -0.0540 -0.0088 -0.1567
  235POPC   C4B 3373   8.207   8.685   5.362  0.0566 -0.2212  0.0041
  236POPC   NC3 3374   4.002   1.873   5.707  0.3674 -0.0125  0.1618
  236POPC   PO4 3375   3.969   2.409   5.735 -0.1059  0.2236 -0.0353
  236POPC   GL1 3376   4.103   2.694   6.050  0.0135 -0.2724 -0.0380
  236POPC   GL2 3377   4.351   2.568   6.239  0.2613  0.0123  0.0789
  236POPC   C1A 3378   3.975   2.957   6.302 -0.0820  0.0368 -0.0214
  236POPC   D2A 3379   4.147   3.283   6.570 -0.2275 -0.0418  0.1661
  236POPC   C3A 3380   4.080   3.379   6.927  0.0384 -0.0128  0.1170
  236POPC   C4A 3381   4.117   3.136   7.333 -0.3868  0.1042 -0.1343
  236POPC   C1B 3382   4.710   2.426   6.568  0.1714 -0.1913 -0.3479
  236POPC   C2B 3383   5.080   2.307   6.678  0.1569  0.4182 -0.0485
  236POPC   C3B 3384   5.372   2.156   6.898 -0.0659 -0.2054 -0.0885
  236POPC   C4B 3385   5.485   1.962   7.230  0.0989 -0.1199 -0.1789
  237POPC   NC3 3386   1.382   8.411   5.343 -0.0136  0.0719 -0.1488
  237POPC   PO4 3387   1.797   8.573   5.528 -0.0174 -0.1025 -0.1871
  237POPC   GL1 3388   1.663   8.156   5.895  0.1693 -0.1547  0.1910
  237POPC   GL2 3389   1.831   8.265   6.152 -0.0402  0.0899 -0.1832
  237POPC   C1A 3390   1.662   7.804   6.279 -0.3206  0.0957  0.0252
  237POPC   D2A 3391   1.264   7.733   6.489 -0.0284  0.1354  0.2489
  237POPC   C3A 3392   0.957   7.424   6.561  0.1313  0.1456  0.2086
  237POPC   C4A 3393   0.824   7.127   6.834 -0.0743  0.1744 -0.1019
  237POPC   C1B 3394   1.662   8.213   6.523  0.1544  0.3630  0.0619
  237POPC   C2B 3395   1.622   8.377   6.858  0.0373 -0.2226 -0.4855
  237POPC   C3B 3396   1.487   8.635   7.111 -0.3329  0.2454  0.3238
  237POPC   C4B 3397   1.164   8.773   7.355 -0.0038 -0.2813 -0.2205
  238POPC   NC3 3398   2.905   6.166   5.350  0.0864  0.0449  0.0000
  238POPC   PO4 3399   3.283   5.946   5.480  0.2787  0.2370  0.0318
  238POPC   GL1 3400   3.454   6.140   5.757 -0.1080 -0.2811 -0.0212
  238POPC   GL2 3401   3.536   6.371   5.674  0.1218 -0.3280 -0.0009
  238POPC   C1A 3402   3.484   6.128   6.294  0.3725 -0.2334 -0.3073
  238POPC   D2A 3403   3.543   6.095   6.796 -0.2632 -0.1413  0.0779
  238POPC   C3A 3404   3.379   6.399   7.110  0.0264  0.2350  0.2413
  238POPC   C4A 3405   3.269   6.338   7.580  0.2662  0.1139 -0.0163
  238POPC   C1B 3406   3.830   6.379   6.052 -0.1225  0.1047  0.0697
  238POPC   C2B 3407   3.986   6.551   6.412 -0.1008 -0.0855 -0.0985
  238POPC   C3B 3408   4.352   6.591   6.669  0.0703  0.0960 -0.2558
  238POPC   C4B 3409   4.657   6.464   6.971 -0.3230 -0.2211 -0.2475
  239POPC   NC3 3410   8.236   5.003   4.600  0.2890  0.1060 -0.0133
  239POPC   PO4 3411   8.169   5.412   4.473  0.0852  0.1006  0.3295
  239POPC   GL1 3412   8.068   5.766   4.713 -0.1289 -0.0489 -0.0725
  239POPC   GL2 3413   8.259   5.763   4.957 -0.1676  0.2272 -0.0365
  239POPC   C1A 3414   7.867   6.055   4.849  0.0122  0.1643 -0.2907
  239POPC   D2A 3415   7.783   6.503   4.835 -0.0639  0.0136 -0.1833
  239POPC   C3A 3416   7.771   6.788   5.186 -0.0600  0.2152 -0.1305
  239POPC   C4A 3417   7.715   6.958   5.584 -0.1199 -0.4937  0.3242
  239POPC   C1B 3418   8.100   5.799   5.385 -0.1173 -0.1137 -0.1357
  239POPC   C2B 3419   7.788   6.025   5.352  0.1464 -0.2345  0.0182
  239POPC   C3B 3420   7.554   6.103   5.768  0.2003 -0.1404  0.1417
  239POPC   C4B 3421   7.428   6.084   6.104  0.0145  0.1308  0.2108
  240POPC   NC3 3422   2.437   0.365   5.761 -0.2321 -0.0513  0.0927
  240POPC   PO4 3423   2.146   0.070   6.046  0.0932  0.2367  0.1705
  240POPC   GL1 3424   2.306  -0.051   6.359  0.2206  0.3895 -0.1826
  240POPC   GL2 3425   1.889  -0.040   6.509  0.0997 -0.0774  0.0455
  240POPC   C1A 3426   2.310   0.015   6.784 -0.0902  0.1304 -0.0868
  240POPC   D2A 3427   2.386   0.081   7.175  0.2109  0.0551 -0.0610
  240POPC   C3A 3428   2.382  -0.384   7.140 -0.0796  0.0072  0.0322
  240POPC   C4A 3429   2.177  -0.827   7.123  0.0088 -0.1565 -0.3288
  240POPC   C1B 3430   2.060  -0.426   6.637 -0.2069 -0.1292  0.1002
  240POPC   C2B 3431   2.470  -0.610   6.691 -0.1864 -0.0312 -0.0935
  240POPC   C3B 3432   2.698  -0.762   7.025 -0.0150  0.1207 -0.1491
  240POPC   C4B 3433   2.950  -0.853   7.144  0.1916 -0.0551 -0.2273
  241POPC   NC3 3434   8.429   1.209   4.659 -0.0703 -0.0723 -0.0559
  241POPC   PO4 3435   8.447   0.807   4.498  0.3341  0.0672  0.1601
  241POPC   GL1 3436   8.269   0.618   4.745  0.0288  0.2008 -0.1142
  241POPC   GL2 3437   7.987   0.581   4.937 -0.0071  0.1428  0.0721
  241POPC   C1A 3438   8.504   0.372   5.132  0.1102 -0.1275  0.2347
  241POPC   D2A 3439   8.643   0.017   5.328 -0.0708  0.0097  0.2684
  241POPC   C3A 3440   8.902  -0.386   5.320 -0.0739  0.0002  0.2316
  241POPC   C4A 3441   8.885  -0.894   5.450 -0.0548 -0.0320  0.3906
  241POPC   C1B 3442   8.050   0.554   5.350 -0.1329  0.1185  0.2030
  241POPC   C2B 3443   8.074   0.588   5.837 -0.0053 -0.2622 -0.3439
  241POPC   C3B 3444   8.013   0.500   6.365  0.3235 -0.0986  0.0629
  241POPC   C4B 3445   8.111   0.233   6.743  0.2976  0.0340  0.1224
  242POPC   NC3 3446   5.305   3.072   4.951 -0.0354  0.1073 -0.1065
  242POPC   PO4 3447   5.379   3.389   5.142 -0.1606  0.0691 -0.1991
  242POPC   GL1 3448   5.556   3.369   5.538  0.0229 -0.0692 -0.1256
  242POPC   GL2 3449   5.443   3.337   5.674 -0.2801 -0.0165 -0.0516
  242POPC   C1A 3450   5.731   3.360   6.071  0.2114  0.0133 -0.0879
  242POPC   D2A 3451   6.134   3.141   6.136  0.4378 -0.3274  0.3083
  242POPC   C3A 3452   6.123   3.176   6.523  0.0690 -0.3779 -0.2360
  242POPC   C4A 3453   5.977   3.333   6.796  0.0022  0.0787 -0.5474
  242POPC   C1B 3454   5.237   3.128   6.001 -0.0127  0.2960 -0.0784
  242POPC   C2B 3455   4.959   3.335   6.295 -0.1383 -0.1836 -0.0618
  242POPC   C3B 3456   4.996   3.722   6.497  0.0574  0.0773  0.0485
  242POPC   C4B 3457   4.974   4.122   6.406  0.0498 -0.3237 -0.0789
  243POPC   NC3 3458   2.487   9.188   5.954  0.1147 -0.0671  0.1120
  243POPC   PO4 3459   2.489   8.853   5.624  0.1562 -0.1190 -0.0334
  243POPC   GL1 3460   2.431   8.739   6.122 -0.0260 -0.1501 -0.3063
  243POPC   GL2 3461   2.297   8.954   6.325  0.3763 -0.1269  0.1981
  243POPC   C1A 3462   2.536   8.620   6.573 -0.1623  0.3614  0.2412
  243POPC   D2A 3463   2.547   8.483   7.045 -0.1093 -0.0397  0.1258
  243POPC   C3A 3464   2.972   8.340   7.126 -0.0351 -0.1506  0.0103
  243POPC   C4A 3465   3.283   8.310   7.402 -0.2375 -0.1627 -0.1957
  243POPC   C1B 3466   2.414   9.043   6.763  0.0480 -0.1093  0.0503
  243POPC   C2B 3467   2.489   8.933   7.265  0.0126 -0.2214 -0.0224
  243POPC   C3B 3468   2.198   9.113   7.578 -0.1166 -0.1318  0.1087
  243POPC   C4B 3469   2.019   9.231   8.031 -0.1327 -0.0581 -0.0332
  244POPC   NC3 3470   2.043   3.885   5.335 -0.1069 -0.0832  0.2411
  244POPC   PO4 3471   2.202   4.313   5.342  0.3315 -0.0531 -0.0658
  244POPC   GL1 3472   2.088   4.213   5.708 -0.4211  0.2562  0.0370
  244POPC   GL2 3473   2.225   3.998   5.808 -0.0850  0.1246 -0.0426
  244POPC   C1A 3474   1.768   4.111   6.115  0.1515 -0.0242 -0.0358
  244POPC   D2A 3475   1.663   4.113   6.563 -0.1311  0.0688  0.0966
  244POPC   C3A 3476   1.329   3.820   6.695 -0.1251 -0.0925  0.0804
  244POPC   C4A 3477   0.925   3.728   6.973 -0.0023  0.0173 -0.4588
  244POPC   C1B 3478   2.309   4.119   6.175 -0.1437 -0.0734 -0.5546
  244POPC   C2B 3479   2.171   3.996   6.573 -0.2289 -0.2389  0.4753
  244POPC   C3B 3480   2.085   3.791   6.949 -0.2164  0.0081  0.2867
  244POPC   C4B 3481   1.920   3.428   7.230 -0.1664  0.1738 -0.2624
  245POPC   NC3 3482   1.813   9.890   5.841 -0.0385 -0.1543 -0.3499
  245POPC   PO4 3483   1.542  10.187   5.824  0.1377 -0.1796 -0.1264
  245POPC   GL1 3484   1.568  10.304   6.212 -0.0767  0.2005 -0.0478
  245POPC   GL2 3485   1.390   9.995   6.262 -0.4163  0.1469  0.0518
  245POPC   C1A 3486   1.478  10.215   6.746  0.3951 -0.0815  0.0209
  245POPC   D2A 3487   1.659  10.456   7.012 -0.1283 -0.1652 -0.3828
  245POPC   C3A 3488   1.836  10.176   7.158 -0.3115  0.0702 -0.0601
  245POPC   C4A 3489   1.840   9.749   7.193  0.2246  0.0794  0.1578
  245POPC   C1B 3490   1.556   9.799   6.651  0.2390  0.1993 -0.2534
  245POPC   C2B 3491   1.422   9.535   7.042  0.0419 -0.2153  0.0564
  245POPC   C3B 3492   1.269   9.334   7.333  0.0789 -0.0834  0.0514
  245POPC   C4B 3493   0.895   9.315   7.574  0.1441 -0.0420  0.1166
  246POPC   NC3 3494   5.420   1.087   5.505  0.0522  0.0301  0.3218
  246POPC   PO4 3495   5.574   1.475   5.456 -0.0117 -0.1333  0.0448
  246POPC   GL1 3496   5.879   1.285   5.658 -0.0229  0.0902  0.1343
  246POPC   GL2 3497   5.775   1.347   5.896 -0.0906 -0.3181 -0.0745
  246POPC   C1A 3498   6.168   0.962   5.895  0.1641 -0.0621  0.1773
  246POPC   D2A 3499   6.383   0.990   6.250  0.0869 -0.2641 -0.0728
  246POPC   C3A 3500   6.725   0.659   6.316 -0.0924  0.4067 -0.0881
  246POPC   C4A 3501   7.082   0.358   6.327 -0.0642  0.2318 -0.2457
  246POPC   C1B 3502   5.893   1.263   6.323  0.0319 -0.4196 -0.0728
  246POPC   C2B 3503   6.007   1.056   6.592 -0.4101 -0.1262 -0.1480
  246POPC   C3B 3504   6.064   0.865   6.998  0.0493 -0.0199  0.1696
  246POPC   C4B 3505   6.238   0.624   7.272 -0.2022  0.0385  0.2073
  247POPC   NC3 3506   1.639   5.902   5.156  0.1885  0.0805  0.0662
  247POPC   PO4 3507   1.999   5.834   5.029  0.0776  0.1395 -0.3639
  247POPC   GL1 3508   2.082   5.635   5.564 -0.1508 -0.2555  0.1569
  247POPC   GL2 3509   1.742   5.668   5.599 -0.0913 -0.0757  0.3202
  247POPC   C1A 3510   2.137   5.821   5.939  0.1649  0.2621  0.0467
  247POPC   D2A 3511   2.102   5.868   6.374  0.1359 -0.1427  0.3430
  247POPC   C3A 3512   1.842   5.935   6.731 -0.3085 -0.0175 -0.0335
  247POPC   C4A 3513   1.734   6.172   7.117  0.0415  0.0460 -0.1547
  247POPC   C1B 3514   1.665   5.627   6.079 -0.0900  0.0826  0.1528
  247POPC   C2B 3515   1.657   5.445   6.540  0.3066 -0.3615  0.0451
  247POPC   C3B 3516   1.786   5.129   6.831  0.3541  0.1031  0.2203
  247POPC   C4B 3517   1.992   4.788   6.926  0.4901 -0.0771 -0.0178
  248POPC   NC3 3518   4.489   9.250   4.513  0.3393 -0.1031 -0.2178
  248POPC   PO4 3519   4.636   9.592   4.652 -0.2654  0.1082 -0.0977
  248POPC   GL1 3520   4.769   9.543   5.123 -0.1624  0.0509  0.3619
  248POPC   GL2 3521   4.667   9.534   5.478  0.2812 -0.3185  0.3118
  248POPC   C1A 3522   5.009   9.225   5.342 -0.0897  0.0299  0.0106
  248POPC   D2A 3523   5.115   8.874   5.577 -0.1908 -0.2993 -0.2185
  248POPC   C3A 3524   4.803   8.787   5.787  0.1070 -0.1796 -0.0940
  248POPC   C4A 3525   4.376   8.682   5.780 -0.5520  0.1326  0.0423
  248POPC   C1B 3526   4.791   9.307   5.818  0.1589  0.0996  0.0538
  248POPC   C2B 3527   4.554   9.077   6.153  0.6854  0.0030  0.1901
  248POPC   C3B 3528   4.781   9.014   6.595  0.2326 -0.1728 -0.0762
  248POPC   C4B 3529   4.636   8.870   7.012 -0.1104  0.0204  0.1305
  249POPC   NC3 3530   4.639   5.706   4.862  0.2294 -0.0748 -0.0651
  249POPC   PO4 3531   4.818   5.334   5.020 -0.0291 -0.0111 -0.1411
  249POPC   GL1 3532   4.593   5.370   5.428 -0.0051  0.2605  0.1391
  249POPC   GL2 3533   4.512   5.662   5.408 -0.1712  0.0538 -0.1647
  249POPC   C1A 3534   4.603   5.253   5.877  0.0673 -0.2873 -0.1227
  249POPC   D2A 3535   4.657   5.033   6.241  0.0771 -0.1434  0.0636
  249POPC   C3A 3536   4.582   5.287   6.662 -0.2312  0.0270  0.1310
  249POPC   C4A 3537   4.600   5.465   7.041  0.0453 -0.1869 -0.1680
  249POPC   C1B 3538   4.547   5.934   5.648  0.1666  0.2144  0.0306
  249POPC   C2B 3539   4.805   6.126   5.952 -0.1428 -0.2603  0.1617
  249POPC   C3B 3540   5.126   6.384   6.109  0.2116 -0.1072  0.1221
  249POPC   C4B 3541   5.316   6.744   6.224  0.2462 -0.0921 -0.1781
  250POPC   NC3 3542   0.430   9.776   5.235  0.2896  0.1286  0.0265
  250POPC   PO4 3543   0.346   9.508   5.591  0.3903 -0.1994  0.3053
  250POPC   GL1 3544   0.092   9.574   5.877  0.4057 -0.1841  0.0315
  250POPC   GL2 3545   0.131   9.908   6.006  0.1994  0.2810 -0.0260
  250POPC   C1A 3546  -0.268   9.615   6.191 -0.0032  0.0726  0.0637
  250POPC   D2A 3547  -0.754   9.502   6.190  0.0099 -0.0659  0.1467
  250POPC   C3A 3548  -0.999   9.449   6.613 -0.1513  0.0591  0.2109
  250POPC   C4A 3549  -0.913   9.016   6.973  0.1285 -0.1115  0.2753
  250POPC   C1B 3550   0.108  10.176   6.249  0.3079 -0.0843 -0.0644
  250POPC   C2B 3551   0.091  10.299   6.706 -0.0504  0.1038 -0.1227
  250POPC   C3B 3552  -0.168  10.116   6.976  0.1777  0.1891 -0.0222
  250POPC   C4B 3553  -0.539   9.891   7.274 -0.4222  0.0180  0.2375
  251POPC   NC3 3554   6.277   2.861   5.334 -0.0503 -0.2999 -0.0800
  251POPC   PO4 3555   6.482   2.471   5.353 -0.1366  0.1419 -0.0478
  251POPC   GL1 3556   6.433   2.619   5.753 -0.2381  0.1226 -0.2307
  251POPC   GL2 3557   6.128   2.710   5.874 -0.0200  0.0301 -0.2066
  251POPC   C1A 3558   6.588   2.738   6.151  0.3368 -0.3856 -0.0269
  251POPC   D2A 3559   6.679   3.103   6.337 -0.3416  0.2792  0.0327
  251POPC   C3A 3560   6.668   3.563   6.069  0.0764 -0.2408  0.0330
  251POPC   C4A 3561   6.502   3.928   5.967  0.1452  0.1403 -0.0153
  251POPC   C1B 3562   6.165   2.669   6.312 -0.0033 -0.1710 -0.0098
  251POPC   C2B 3563   6.364   2.791   6.746 -0.1852 -0.0794 -0.1093
  251POPC   C3B 3564   6.429   2.758   7.195  0.0442  0.1489  0.3161
  251POPC   C4B 3565   6.776   2.648   7.415 -0.1113 -0.0104  0.0018
  252POPC   NC3 3566   0.762   0.367   5.111 -0.1727  0.2835 -0.0640
  252POPC   PO4 3567   0.675   0.355   5.534  0.0275  0.2372 -0.4171
  252POPC   GL1 3568   0.510   0.259   5.920 -0.1863  0.1663 -0.1288
  252POPC   GL2 3569   0.708   0.033   6.075 -0.2088 -0.0277 -0.0684
  252POPC   C1A 3570   0.401   0.389   6.419 -0.0883 -0.0260 -0.3039
  252POPC   D2A 3571   0.597   0.793   6.618  0.1367  0.1156 -0.1690
  252POPC   C3A 3572   0.732   0.715   6.980  0.2223 -0.0289  0.1178
  252POPC   C4A 3573   0.626   0.464   7.340  0.1345  0.0073 -0.3188
  252POPC   C1B 3574   0.717   0.035   6.508  0.0338 -0.0929  0.0167
  252POPC   C2B 3575   0.567   0.215   6.879  0.0843 -0.2713 -0.0853
  252POPC   C3B 3576   0.222   0.231   7.172  0.0125 -0.1050  0.1263
  252POPC   C4B 3577  -0.146   0.029   7.488  0.0554  0.2504 -0.0682
  253POPC   NC3 3578   8.354   2.483   5.579  0.0477  0.2171  0.2825
  253POPC   PO4 3579   8.108   2.950   5.576 -0.0986 -0.2477 -0.0373
  253POPC   GL1 3580   8.152   2.676   5.968  0.3446 -0.0011  0.2905
  253POPC   GL2 3581   7.871   2.555   6.117 -0.2553  0.0213 -0.0067
  253POPC   C1A 3582   8.349   2.687   6.328  0.0448 -0.0836 -0.0310
  253POPC   D2A 3583   8.631   2.495   6.605  0.0056 -0.1146 -0.0552
  253POPC   C3A 3584   9.060   2.461   6.714 -0.1646 -0.0881 -0.2275
  253POPC   C4A 3585   9.401   2.373   7.034  0.3996  0.1445  0.2989
  253POPC   C1B 3586   7.925   2.636   6.532  0.2721  0.1826 -0.0415
  253POPC   C2B 3587   7.769   2.720   6.792  0.0619  0.2788  0.0862
  253POPC   C3B 3588   7.261   2.659   6.799  0.0652  0.3028  0.4599
  253POPC   C4B 3589   6.872   2.943   7.015 -0.0156 -0.2260  0.2144
  254POPC   NC3 3590   1.939   6.294   4.866 -0.3108  0.0973  0.2371
  254POPC   PO4 3591   2.085   6.780   4.990 -0.1430 -0.1964 -0.0196
  254POPC   GL1 3592   1.932   6.816   5.478  0.1018  0.2233 -0.2111
  254POPC   GL2 3593   1.521   6.857   5.581  0.4128 -0.1184 -0.0110
  254POPC   C1A 3594   1.866   6.769   5.910  0.0075 -0.3122  0.1152
  254POPC   D2A 3595   1.891   7.217   6.210  0.0337  0.3760 -0.2905
  254POPC   C3A 3596   1.517   7.305   6.540  0.4050  0.2204  0.2278
  254POPC   C4A 3597   1.294   7.250   6.958 -0.1862  0.5507  0.1730
  254POPC   C1B 3598   1.085   6.941   5.711  0.3217 -0.1502 -0.3165
  254POPC   C2B 3599   0.747   6.881   5.969 -0.0490 -0.2246 -0.1608
  254POPC   C3B 3600   0.616   7.083   6.360  0.0222 -0.0677  0.1025
  254POPC   C4B 3601   0.319   7.262   6.685 -0.0258 -0.1010  0.1258
  255POPC   NC3 3602   4.699   6.913   4.100  0.1496 -0.0676 -0.4952
  255POPC   PO4 3603   4.247   6.870   4.397 -0.1250 -0.2510 -0.0755
  255POPC   GL1 3604   4.553   7.017   4.771  0.1229  0.1109 -0.2424
  255POPC   GL2 3605   4.443   6.823   5.045  0.1769 -0.2320  0.3335
  255POPC   C1A 3606   4.537   7.323   5.178  0.5408 -0.2248  0.1445
  255POPC   D2A 3607   4.498   7.477   5.572  0.1441 -0.0443 -0.0883
  255POPC   C3A 3608   4.436   7.176   5.932  0.1640  0.0771  0.2678
  255POPC   C4A 3609   4.471   6.779   6.184  0.0843 -0.0805 -0.3529
  255POPC   C1B 3610   4.447   6.863   5.479  0.1448 -0.0643 -0.0997
  255POPC   C2B 3611   4.245   6.576   5.786  0.1754  0.0828 -0.1158
  255POPC   C3B 3612   4.358   6.285   6.149  0.2202 -0.0308  0.2774
  255POPC   C4B 3613   4.659   6.150   6.482  0.2762 -0.1126  0.1145
  256POPC   NC3 3614   1.363   4.182   5.009 -0.1989 -0.1012 -0.1143
  256POPC   PO4 3615   1.395   3.653   5.035  0.2659 -0.2141  0.4703
  256POPC   GL1 3616   1.232   3.290   5.332 -0.2661 -0.3119 -0.0233
  256POPC   GL2 3617   1.138   3.545   5.585 -0.1617 -0.0847 -0.0300
  256POPC   C1A 3618   0.969   3.043   5.693  0.4360  0.0832 -0.2036
  256POPC   D2A 3619   1.177   2.971   6.063  0.1508  0.1140  0.0205
  256POPC   C3A 3620   1.301   3.417   6.372  0.1210 -0.0845  0.1818
  256POPC   C4A 3621   1.352   3.843   6.083  0.0552  0.0308  0.1702
  256POPC   C1B 3622   0.889   3.542   6.030 -0.0011  0.0335 -0.1574
  256POPC   C2B 3623   0.838   3.602   6.478  0.2196 -0.1871  0.0112
  256POPC   C3B 3624   0.708   3.301   6.864  0.0363 -0.0831  0.1191
  256POPC   C4B 3625   0.818   2.879   7.175  0.2305  0.0739  0.1846
  257POPC   NC3 3626   4.482   0.412   5.459 -0.0918  0.1672 -0.0782
  257POPC   PO4 3627   4.864   0.391   5.315  0.0245 -0.2198  0.2352
  257POPC   GL1 3628   4.967   0.355   5.777  0.1904  0.0487  0.2250
  257POPC   GL2 3629   4.607   0.158   6.033 -0.2339 -0.1596 -0.1377
  257POPC   C1A 3630   4.899   0.567   6.191  0.1419  0.0430  0.0353
  257POPC   D2A 3631   4.597   0.408   6.465 -0.0623  0.1016  0.0881
  257POPC   C3A 3632   4.324   0.750   6.541  0.0982 -0.0902  0.3239
  257POPC   C4A 3633   4.107   1.045   6.440 -0.6147  0.0109 -0.3000
  257POPC   C1B 3634   4.575  -0.153   6.345  0.0972 -0.0995  0.0689
  257POPC   C2B 3635   4.802  -0.151   6.728 -0.1229  0.0566 -0.1362
  257POPC   C3B 3636   5.000  -0.361   7.072 -0.0207  0.2322 -0.2225
  257POPC   C4B 3637   5.290  -0.507   7.384 -0.1158  0.3219 -0.3272
  258POPC   NC3 3638   7.911   7.591   3.275  0.1724  0.1267 -0.0389
  258POPC   PO4 3639   7.937   7.928   3.440  0.0445 -0.1921 -0.1199
  258POPC   GL1 3640   7.956   7.947   3.828 -0.0611  0.3223 -0.0637
  258POPC   GL2 3641   8.092   7.579   3.967  0.0444  0.1604  0.0922
  258POPC   C1A 3642   8.029   8.162   4.184  0.2357 -0.0038 -0.0100
  258POPC   D2A 3643   7.741   8.453   4.471  0.2844  0.2876  0.2131
  258POPC   C3A 3644   7.371   8.288   4.494 -0.0044 -0.0478 -0.2111
  258POPC   C4A 3645   7.009   8.232   4.481 -0.1042  0.0740 -0.1501
  258POPC   C1B 3646   8.285   7.693   4.320  0.0200  0.0417 -0.1534
  258POPC   C2B 3647   8.298   7.958   4.714 -0.1729 -0.0479 -0.4527
  258POPC   C3B 3648   8.295   8.134   5.172  0.2074 -0.0188 -0.0350
  258POPC   C4B 3649   8.155   7.933   5.538 -0.2068 -0.0378  0.2838
  259POPC   NC3 3650   1.154   6.634   4.800 -0.2151  0.1770 -0.0583
  259POPC   PO4 3651   1.261   6.143   4.861  0.0944  0.2672  0.2029
  259POPC   GL1 3652   1.170   6.172   5.323  0.0372  0.1434  0.1985
  259POPC   GL2 3653   1.157   5.874   5.387  0.2439 -0.0638  0.3604
  259POPC   C1A 3654   0.983   6.331   5.660 -0.4437 -0.1573 -0.0220
  259POPC   D2A 3655   1.115   6.268   6.000 -0.3620 -0.0351  0.0646
  259POPC   C3A 3656   1.378   6.564   6.086  0.1633  0.1462 -0.1769
  259POPC   C4A 3657   1.693   6.704   6.419 -0.0113  0.0801  0.0451
  259POPC   C1B 3658   1.258   5.817   5.821  0.1293  0.4032  0.2784
  259POPC   C2B 3659   1.305   5.799   6.314 -0.0193 -0.3077 -0.0318
  259POPC   C3B 3660   1.349   5.809   6.836 -0.0668 -0.2849  0.0679
  259POPC   C4B 3661   1.615   5.608   7.038  0.4605  0.1855  0.1676
  260POPC   NC3 3662  10.010   0.143   4.841 -0.2687 -0.2254 -0.1655
  260POPC   PO4 3663  10.077   0.641   5.004  0.0673 -0.2140  0.0610
  260POPC   GL1 3664   9.699   0.863   5.250 -0.0452  0.1948 -0.0401
  260POPC   GL2 3665   9.800   1.173   5.465  0.2648  0.0137 -0.1512
  260POPC   C1A 3666   9.381   0.675   5.453  0.1619 -0.0505  0.0879
  260POPC   D2A 3667   9.068   0.638   5.762 -0.3457 -0.0603  0.1326
  260POPC   C3A 3668   9.161   0.537   6.214 -0.3271  0.1912  0.0835
  260POPC   C4A 3669   8.850   0.152   6.297  0.0113  0.2747  0.2156
  260POPC   C1B 3670   9.570   0.960   5.771 -0.4470 -0.4026 -0.2995
  260POPC   C2B 3671   9.425   0.967   6.196 -0.3361  0.1862  0.0983
  260POPC   C3B 3672   9.271   1.056   6.592  0.1598  0.0571  0.0157
  260POPC   C4B 3673   9.150   1.460   6.885  0.0314  0.1221 -0.2430
  261POPC   NC3 3674   3.847   5.086   5.205  0.0070 -0.3195 -0.0657
  261POPC   PO4 3675   4.074   5.449   5.346 -0.2357 -0.1646  0.0280
  261POPC   GL1 3676   4.254   5.575   5.795  0.3431 -0.1365 -0.1311
  261POPC   GL2 3677   4.030   5.334   5.939  0.0581 -0.1639  0.1443
  261POPC   C1A 3678   4.567   5.754   6.146  0.1052 -0.1659  0.0122
  261POPC   D2A 3679   5.037   5.409   6.235  0.4726  0.2493  0.0658
  261POPC   C3A 3680   5.015   5.078   6.607  0.2031 -0.0061  0.1950
  261POPC   C4A 3681   5.016   5.097   7.060 -0.2951 -0.3144  0.2397
  261POPC   C1B 3682   4.190   5.467   6.317 -0.0336 -0.0643 -0.0942
  261POPC   C2B 3683   4.353   5.743   6.618 -0.0808  0.0381  0.1112
  261POPC   C3B 3684   4.273   6.001   6.890  0.0134  0.2378 -0.0255
  261POPC   C4B 3685   4.292   5.887   7.256 -0.1489  0.0627  0.0766
  262POPC   NC3 3686   6.528   4.220   4.715 -0.1701  0.0091 -0.0907
  262POPC   PO4 3687   6.731   3.905   4.955  0.1174  0.2576  0.1441
  262POPC   GL1 3688   6.897   3.819   5.328 -0.1489 -0.1910  0.0405
  262POPC   GL2 3689   6.740   3.957   5.457  0.0872 -0.1443  0.1883
  262POPC   C1A 3690   7.055   3.762   5.794 -0.1752  0.0592 -0.0483
  262POPC   D2A 3691   7.248   3.744   6.120  0.1918 -0.0856  0.0121
  262POPC   C3A 3692   7.685   3.867   6.089 -0.1673  0.2667  0.0547
  262POPC   C4A 3693   7.830   4.133   5.780 -0.0258 -0.0361  0.1338
  262POPC   C1B 3694   6.744   4.317   5.687  0.1672 -0.1445  0.0075
  262POPC   C2B 3695   6.496   4.406   6.061  0.0974 -0.0138 -0.0951
  262POPC   C3B 3696   6.310   4.311   6.474 -0.0652 -0.1752 -0.2592
  262POPC   C4B 3697   6.184   4.486   6.795  0.4884 -0.2453  0.1012
  263POPC   NC3 3698   5.370   5.009   4.690  0.1241  0.0828 -0.0370
  263POPC   PO4 3699   5.245   4.625   4.810 -0.2915  0.0163  0.0166
  263POPC   GL1 3700   5.252   4.919   5.164  0.0149 -0.1004 -0.4972
  263POPC   GL2 3701   5.136   5.092   5.357 -0.0063 -0.2526 -0.2874
  263POPC   C1A 3702   5.664   5.099   5.406 -0.2350  0.0850  0.0148
  263POPC   D2A 3703   6.074   5.221   5.645 -0.1697 -0.0094  0.1710
  263POPC   C3A 3704   6.398   5.208   5.874  0.1022 -0.1686  0.2922
  263POPC   C4A 3705   6.706   5.507   6.025  0.0990  0.1895 -0.0576
  263POPC   C1B 3706   5.046   5.302   5.658  0.2716  0.4209  0.1057
  263POPC   C2B 3707   5.075   5.734   5.851  0.1293  0.3001  0.0629
  263POPC   C3B 3708   5.261   5.886   6.262  0.0490 -0.3317 -0.0270
  263POPC   C4B 3709   5.522   6.294   6.403 -0.0612 -0.3028  0.1356
  264POPC   NC3 3710   9.592   5.748   4.759 -0.0243 -0.2304 -0.4710
  264POPC   PO4 3711   9.711   5.959   4.435  0.0217 -0.1549 -0.1123
  264POPC   GL1 3712   9.374   6.229   4.808  0.0557  0.2236  0.4943
  264POPC   GL2 3713   9.229   5.941   5.074  0.0879 -0.2311 -0.0506
  264POPC   C1A 3714   9.115   6.415   5.125 -0.0937  0.4938 -0.0058
  264POPC   D2A 3715   9.084   6.669   5.439 -0.0001  0.0883 -0.2834
  264POPC   C3A 3716   8.921   6.755   5.869  0.0092 -0.0327  0.0101
  264POPC   C4A 3717   8.986   6.685   6.290  0.0058  0.2534  0.1256
  264POPC   C1B 3718   8.969   5.793   5.433  0.3201  0.0983  0.0282
  264POPC   C2B 3719   8.845   5.837   5.816 -0.1077 -0.0942  0.2610
  264POPC   C3B 3720   8.896   5.925   6.319  0.1491 -0.1895  0.1151
  264POPC   C4B 3721   9.054   6.251   6.564 -0.2276  0.2137 -0.1137
  265POPC   NC3 3722   1.524   2.384   5.287 -0.0196 -0.2703  0.1803
  265POPC   PO4 3723   1.203   2.017   5.189  0.1826 -0.1922  0.1148
  265POPC   GL1 3724   1.013   1.830   5.583  0.2009  0.1104 -0.5326
  265POPC   GL2 3725   1.156   1.692   5.814 -0.0953  0.0825 -0.0324
  265POPC   C1A 3726   0.693   1.685   5.933 -0.0327  0.0872  0.0452
  265POPC   D2A 3727   0.588   1.546   6.303  0.1259 -0.1570 -0.1936
  265POPC   C3A 3728   0.275   1.755   6.526  0.2620 -0.0410  0.1200
  265POPC   C4A 3729  -0.225   1.820   6.648  0.0368  0.0938 -0.0698
  265POPC   C1B 3730   1.111   1.590   6.277 -0.1093  0.1177 -0.1027
  265POPC   C2B 3731   1.159   1.659   6.644 -0.2709 -0.0264  0.1697
  265POPC   C3B 3732   1.129   1.577   7.007 -0.1642  0.2248 -0.1885
  265POPC   C4B 3733   0.783   1.607   7.324 -0.1291  0.2826 -0.1375
  266POPC   NC3 3734   2.324   4.544   4.871  0.0116 -0.1133 -0.0411
  266POPC   PO4 3735   2.567   4.677   5.301 -0.1117 -0.1324  0.0059
  266POPC   GL1 3736   2.423   4.646   5.690  0.0791 -0.1315 -0.1530
  266POPC   GL2 3737   2.065   4.725   5.767 -0.0001  0.2194 -0.1350
  266POPC   C1A 3738   2.467   4.646   6.111 -0.0258  0.1715 -0.0706
  266POPC   D2A 3739   2.742   4.789   6.379  0.1828 -0.0080 -0.1078
  266POPC   C3A 3740   3.189   4.597   6.218  0.2073  0.2713  0.0002
  266POPC   C4A 3741   3.313   4.174   6.445  0.0837  0.0782 -0.1835
  266POPC   C1B 3742   1.906   4.578   6.085 -0.2015 -0.2103 -0.0081
  266POPC   C2B 3743   1.992   4.496   6.427 -0.0233 -0.4574  0.0682
  266POPC   C3B 3744   2.345   4.517   6.674 -0.3043  0.1378 -0.1096
  266POPC   C4B 3745   2.567   4.483   7.030 -0.0633  0.2722  0.1789
  267POPC   NC3 3746   2.765   1.652   5.366 -0.2204 -0.2997  0.2018
  267POPC   PO4 3747   2.887   1.320   5.615 -0.0237  0.3058  0.0579
  267POPC   GL1 3748   2.943   1.472   6.058  0.0625  0.2243  0.1776
  267POPC   GL2 3749   3.205   1.375   6.077  0.1360 -0.2785  0.3496
  267POPC   C1A 3750   2.926   1.794   6.429 -0.2372  0.0481  0.0782
  267POPC   D2A 3751   2.973   2.039   6.777  0.0955 -0.2514  0.3173
  267POPC   C3A 3752   2.933   1.921   7.112 -0.0918  0.0586  0.0609
  267POPC   C4A 3753   2.848   1.460   7.297  0.1397 -0.0412 -0.0808
  267POPC   C1B 3754   3.026   1.169   6.453  0.0929  0.0057 -0.0408
  267POPC   C2B 3755   3.383   0.949   6.555  0.1176 -0.0649 -0.3919
  267POPC   C3B 3756   3.717   0.915   6.835  0.0259  0.0343  0.3047
  267POPC   C4B 3757   3.792   0.942   7.241  0.0844  0.2323  0.0141
  268POPC   NC3 3758   5.310   7.448   3.699  0.1596  0.2339  0.0964
  268POPC   PO4 3759   4.963   7.436   3.948 -0.0073  0.1605 -0.0071
  268POPC   GL1 3760   5.142   7.153   4.256 -0.2575 -0.1439 -0.0241
  268POPC   GL2 3761   4.918   7.195   4.468 -0.2791  0.2024  0.2242
  268POPC   C1A 3762   5.474   6.972   4.476  0.0357 -0.3066 -0.1230
  268POPC   D2A 3763   5.765   6.766   4.899 -0.0085  0.0575  0.2855
  268POPC   C3A 3764   5.921   6.666   5.344  0.1110  0.0347 -0.0798
  268POPC   C4A 3765   6.024   6.849   5.710  0.0668  0.1907 -0.0801
  268POPC   C1B 3766   5.326   7.418   4.687 -0.1647 -0.0266 -0.1440
  268POPC   C2B 3767   5.582   7.655   4.919  0.2596 -0.2773 -0.3995
  268POPC   C3B 3768   5.938   7.975   5.033 -0.1267  0.0384 -0.1586
  268POPC   C4B 3769   5.978   8.369   5.211 -0.2850  0.2448  0.1024
  269POPC   NC3 3770   8.430   4.170   5.234  0.0662  0.1777  0.0672
  269POPC   PO4 3771   8.801   4.020   5.130 -0.0303  0.0862 -0.2520
  269POPC   GL1 3772   9.100   4.221   5.464  0.0565 -0.0291 -0.1042
  269POPC   GL2 3773   9.096   4.472   5.577 -0.1501 -0.2414  0.2021
  269POPC   C1A 3774   9.166   4.019   5.834 -0.1448 -0.0265  0.2155
  269POPC   D2A 3775   9.163   3.947   6.238 -0.0496 -0.0162 -0.0176
  269POPC   C3A 3776   9.530   3.854   6.412  0.0647  0.0607 -0.2588
  269POPC   C4A 3777   9.562   3.508   6.570  0.0211 -0.2331  0.2376
  269POPC   C1B 3778   9.080   4.448   5.963  0.1608 -0.0502  0.0732
  269POPC   C2B 3779   9.215   4.808   6.277  0.5359 -0.0003  0.3966
  269POPC   C3B 3780   9.409   5.096   6.600  0.3955 -0.0961 -0.4382
  269POPC   C4B 3781   9.392   5.356   6.984  0.1683  0.1181  0.0760
  270POPC   NC3 3782   4.676   4.906   5.254 -0.0298 -0.1722 -0.1255
  270POPC   PO4 3783   4.430   4.488   5.420  0.0381 -0.1931  0.2478
  270POPC   GL1 3784   4.515   4.476   5.782 -0.0864  0.1631  0.0402
  270POPC   GL2 3785   4.419   4.757   5.902  0.1819  0.0551 -0.0285
  270POPC   C1A 3786   4.782   4.462   6.100 -0.0082  0.2618  0.0722
  270POPC   D2A 3787   4.577   4.538   6.415  0.0999  0.5339  0.0072
  270POPC   C3A 3788   4.627   4.719   6.854  0.2436  0.0356 -0.0878
  270POPC   C4A 3789   4.432   4.997   7.125 -0.0590 -0.0541  0.2863
  270POPC   C1B 3790   4.156   4.903   6.297  0.1084  0.0775 -0.1984
  270POPC   C2B 3791   4.024   5.114   6.719 -0.0963  0.2408 -0.1565
  270POPC   C3B 3792   4.072   5.459   6.931  0.3949  0.0113 -0.2768
  270POPC   C4B 3793   3.845   5.755   7.060  0.0251 -0.1814 -0.0989
  271POPC   NC3 3794   6.693   0.108   4.139  0.0564  0.0409  0.0904
  271POPC   PO4 3795   6.468   0.194   4.501  0.1167 -0.0924  0.1535
  271POPC   GL1 3796   6.605   0.052   4.889 -0.0647 -0.0975  0.1892
  271POPC   GL2 3797   6.320  -0.011   4.993  0.0838 -0.0249 -0.0583
  271POPC   C1A 3798   6.884  -0.311   5.078  0.2183 -0.2941 -0.0662
  271POPC   D2A 3799   7.210  -0.583   5.206  0.4306 -0.0567  0.0376
  271POPC   C3A 3800   7.449  -0.536   5.537  0.0537 -0.2756  0.0434
  271POPC   C4A 3801   7.602  -0.910   5.659  0.0907 -0.2116  0.0305
  271POPC   C1B 3802   6.453  -0.487   4.930 -0.1951  0.1628 -0.3403
  271POPC   C2B 3803   6.444  -0.851   5.196  0.5655  0.2029  0.1288
  271POPC   C3B 3804   6.756  -1.112   5.157 -0.0679  0.0327  0.1224
  271POPC   C4B 3805   7.178  -1.105   5.018 -0.0406 -0.2609  0.1174
  272POPC   NC3 3806   6.158   6.233   3.152  0.1269 -0.4333 -0.2146
  272POPC   PO4 3807   6.317   6.655   3.417 -0.3792 -0.0535  0.0048
  272POPC   GL1 3808   6.395   6.791   3.925 -0.2962  0.1578  0.0321
  272POPC   GL2 3809   6.269   7.142   3.927 -0.1308  0.3192 -0.1188
  272POPC   C1A 3810   6.719   6.945   4.283  0.1667  0.1844 -0.1268
  272POPC   D2A 3811   6.869   7.359   4.263 -0.2492 -0.0220 -0.1633
  272POPC   C3A 3812   6.719   7.538   3.919  0.1097  0.1094 -0.1562
  272POPC   C4A 3813   6.618   8.025   3.805  0.1841 -0.0546  0.0061
  272POPC   C1B 3814   6.313   7.366   4.309 -0.0380  0.0290  0.2312
  272POPC   C2B 3815   6.564   7.375   4.707  0.1345  0.0272  0.0357
  272POPC   C3B 3816   6.514   7.225   5.010  0.0260  0.1003  0.2989
  272POPC   C4B 3817   6.310   7.207   5.401 -0.0115 -0.0425 -0.2343
  273POPC   NC3 3818   9.048   4.947   4.880 -0.0636 -0.0335  0.0344
  273POPC   PO4 3819   9.202   5.455   4.795 -0.1270  0.0175  0.0248
  273POPC   GL1 3820   9.112   5.364   5.191  0.0833  0.1815  0.1923
  273POPC   GL2 3821   8.889   5.001   5.351 -0.1101 -0.0127  0.1751
  273POPC   C1A 3822   8.920   5.351   5.666 -0.0950  0.0980 -0.1873
  273POPC   D2A 3823   8.569   5.421   6.047 -0.3016  0.2594  0.0001
  273POPC   C3A 3824   8.565   5.427   6.504  0.0376 -0.0080  0.0118
  273POPC   C4A 3825   8.707   5.563   6.913 -0.1351 -0.0342 -0.0768
  273POPC   C1B 3826   9.313   5.106   5.523  0.2633 -0.0427 -0.1550
  273POPC   C2B 3827   9.378   5.555   5.643 -0.0118 -0.2723  0.0220
  273POPC   C3B 3828   9.318   5.856   5.952 -0.0611  0.2162 -0.3369
  273POPC   C4B 3829   9.268   6.289   6.087 -0.3752  0.1469 -0.3339
  274POPC   NC3 3830   6.241   4.792   4.481  0.2094 -0.0900 -0.1038
  274POPC   PO4 3831   6.681   4.731   4.585 -0.0065 -0.1894 -0.2184
  274POPC   GL1 3832   6.775   4.816   4.946 -0.2401  0.1016 -0.1595
  274POPC   GL2 3833   6.956   5.186   4.831 -0.1436 -0.1171  0.3316
  274POPC   C1A 3834   7.032   4.763   5.307  0.0368  0.0025  0.0005
  274POPC   D2A 3835   7.130   4.709   5.803 -0.1089  0.0818  0.4229
  274POPC   C3A 3836   6.957   4.481   6.137  0.4325 -0.0735  0.3482
  274POPC   C4A 3837   6.867   4.045   6.245 -0.7803 -0.2693 -0.0398
  274POPC   C1B 3838   6.783   5.234   5.159  0.0710 -0.1970  0.1597
  274POPC   C2B 3839   6.698   5.573   5.410 -0.0637  0.0376  0.2321
  274POPC   C3B 3840   6.727   5.972   5.464  0.1993  0.6807 -0.3300
  274POPC   C4B 3841   7.011   6.208   5.655 -0.1450  0.0202 -0.2136
  275POPC   NC3 3842   2.714   2.199   5.681  0.1147 -0.1771 -0.0690
  275POPC   PO4 3843   2.392   2.467   5.545 -0.1085  0.0128  0.1470
  275POPC   GL1 3844   2.557   2.584   5.953  0.2085 -0.0098 -0.1325
  275POPC   GL2 3845   2.276   2.576   6.064 -0.0259 -0.1375  0.0623
  275POPC   C1A 3846   2.532   3.021   6.265 -0.1448  0.1526  0.1892
  275POPC   D2A 3847   2.659   3.274   6.662  0.3613 -0.2062  0.0905
  275POPC   C3A 3848   3.066   3.206   6.750  0.0156  0.2034 -0.2283
  275POPC   C4A 3849   3.155   3.024   7.117 -0.0105  0.0464  0.1879
  275POPC   C1B 3850   2.296   2.414   6.530 -0.0474  0.0557  0.1385
  275POPC   C2B 3851   2.557   2.353   6.810  0.1590  0.1176 -0.4571
  275POPC   C3B 3852   2.306   2.516   7.117  0.0487  0.4625 -0.0462
  275POPC   C4B 3853   2.130   2.927   7.317 -0.1628 -0.0430  0.2011
  276POPC   NC3 3854   4.811   9.040   4.068 -0.0369 -0.0471 -0.0516
  276POPC   PO4 3855   4.928   8.788   4.375 -0.0480 -0.1156  0.1191
  276POPC   GL1 3856   5.305   8.746   4.589  0.0523 -0.1170 -0.2748
  276POPC   GL2 3857   5.323   8.506   4.698 -0.1315 -0.1503 -0.1709
  276POPC   C1A 3858   5.696   8.767   4.990 -0.1811 -0.0736 -0.0061
  276POPC   D2A 3859   5.597   8.623   5.428 -0.0578  0.0788 -0.0179
  276POPC   C3A 3860   5.586   8.900   5.832  0.2503  0.0310  0.2707
  276POPC   C4A 3861   5.814   8.847   6.193 -0.0906  0.0875 -0.2802
  276POPC   C1B 3862   5.508   8.294   5.056 -0.3289 -0.0041 -0.2697
  276POPC   C2B 3863   5.311   7.888   5.320 -0.1092  0.0637 -0.1244
  276POPC   C3B 3864   5.316   7.429   5.409 -0.1253 -0.2586 -0.4105
  276POPC   C4B 3865   5.340   7.081   5.703 -0.0122  0.1814 -0.1746
  277POPC   NC3 3866   5.211   5.664   4.237 -0.2121  0.2006  0.1018
  277POPC   PO4 3867   5.071   5.501   4.553 -0.1250  0.0223 -0.1513
  277POPC   GL1 3868   5.128   5.770   4.920  0.1486 -0.1917 -0.0516
  277POPC   GL2 3869   5.015   5.674   5.336 -0.1429 -0.2232 -0.2340
  277POPC   C1A 3870   5.146   6.101   5.140 -0.0009 -0.1121  0.3380
  277POPC   D2A 3871   5.183   6.216   5.555  0.0876  0.2062 -0.0060
  277POPC   C3A 3872   5.570   6.132   5.869 -0.3005  0.1530  0.0330
  277POPC   C4A 3873   6.023   6.083   6.100  0.0154 -0.3685 -0.1021
  277POPC   C1B 3874   5.472   5.758   5.294  0.2197 -0.0490 -0.0529
  277POPC   C2B 3875   5.725   5.594   5.555  0.1916  0.0016 -0.0936
  277POPC   C3B 3876   5.758   5.678   5.885  0.0147 -0.0241 -0.1410
  277POPC   C4B 3877   5.726   5.721   6.308 -0.0299  0.0696 -0.3116
  278POPC   NC3 3878   2.564   9.635   5.063  0.0972 -0.1176  0.0294
  278POPC   PO4 3879   2.892   9.667   5.408  0.0008  0.0780 -0.1000
  278POPC   GL1 3880   2.969   9.647   5.855 -0.2067 -0.1873  0.1411
  278POPC   GL2 3881   2.768   9.614   5.963 -0.1946  0.1152 -0.1654
  278POPC   C1A 3882   3.321   9.795   6.172 -0.1344 -0.0028  0.4447
  278POPC   D2A 3883   3.316   9.900   6.683 -0.0113  0.0691  0.0498
  278POPC   C3A 3884   2.929   9.826   6.937 -0.2371 -0.1442  0.2256
  278POPC   C4A 3885   2.815   9.973   7.247  0.1979  0.3299 -0.2185
  278POPC   C1B 3886   2.813   9.845   6.393 -0.1581 -0.0059 -0.1380
  278POPC   C2B 3887   2.821  10.244   6.653  0.1930  0.0390  0.1469
  278POPC   C3B 3888   2.766  10.507   7.003 -0.2334 -0.0333  0.2201
  278POPC   C4B 3889   2.992  10.623   7.452  0.1685  0.0913  0.0099
  279POPC   NC3 3890   5.859   1.233   5.125 -0.1614  0.1456  0.2083
  279POPC   PO4 3891   5.794   0.746   5.362 -0.2851  0.0157 -0.0338
  279POPC   GL1 3892   5.737   0.788   5.748  0.1160  0.0526  0.0576
  279POPC   GL2 3893   5.497   0.977   6.010 -0.2749  0.1866 -0.3312
  279POPC   C1A 3894   5.853   0.669   6.099  0.0260  0.2469  0.2025
  279POPC   D2A 3895   5.956   0.467   6.539 -0.1820  0.1192  0.1248
  279POPC   C3A 3896   6.373   0.553   6.731  0.1951  0.0277  0.0731
  279POPC   C4A 3897   6.728   0.263   6.679  0.0945  0.1318 -0.2171
  279POPC   C1B 3898   5.348   0.589   5.997 -0.0984  0.1385  0.0716
  279POPC   C2B 3899   5.218   0.154   6.136  0.1107 -0.2554  0.3440
  279POPC   C3B 3900   5.175  -0.019   6.399 -0.0438 -0.1391 -0.0443
  279POPC   C4B 3901   5.306  -0.102   6.784  0.1982 -0.0504  0.0430
  280POPC   NC3 3902  10.074   7.303   4.542 -0.1205 -0.0602  0.3063
  280POPC   PO4 3903   9.753   7.047   4.477 -0.0405  0.2363 -0.0947
  280POPC   GL1 3904   9.661   7.134   4.851  0.1971 -0.0209  0.1387
  280POPC   GL2 3905   9.913   7.187   5.005 -0.2374  0.0637  0.1719
  280POPC   C1A 3906   9.366   7.014   5.188 -0.0379 -0.1017  0.1411
  280POPC   D2A 3907   9.217   7.112   5.650 -0.1239 -0.2220 -0.0676
  280POPC   C3A 3908   8.995   7.472   5.917  0.2249 -0.3280 -0.2608
  280POPC   C4A 3909   8.718   7.546   6.308 -0.0644  0.1956  0.1626
  280POPC   C1B 3910   9.862   7.025   5.420  0.0943 -0.0381 -0.0939
  280POPC   C2B 3911   9.910   6.893   5.841 -0.0924  0.2766 -0.0405
  280POPC   C3B 3912   9.941   6.774   6.271  0.0385 -0.0166 -0.2153
  280POPC   C4B 3913   9.909   6.935   6.683 -0.0534  0.1186 -0.2680
  281POPC   NC3 3914   0.290   6.288   4.725  0.3477  0.0985 -0.0974
  281POPC   PO4 3915   0.034   6.657   4.723  0.0198  0.0294  0.1181
  281POPC   GL1 3916  -0.248   6.662   5.044 -0.2762 -0.2467 -0.4372
  281POPC   GL2 3917  -0.492   6.643   5.091 -0.0076  0.2917 -0.1477
  281POPC   C1A 3918  -0.190   6.435   5.441 -0.1912  0.1239 -0.0413
  281POPC   D2A 3919  -0.377   6.384   5.897 -0.3386  0.1644 -0.2469
  281POPC   C3A 3920  -0.370   6.315   6.331  0.0359  0.2532 -0.0264
  281POPC   C4A 3921  -0.376   6.446   6.796 -0.2840 -0.0304 -0.2540
  281POPC   C1B 3922  -0.604   6.700   5.554  0.0030  0.1071  0.0179
  281POPC   C2B 3923  -0.766   6.792   6.009 -0.0654 -0.1068  0.0291
  281POPC   C3B 3924  -0.751   6.749   6.493  0.1312 -0.0117  0.0326
  281POPC   C4B 3925  -0.893   6.674   6.711 -0.0665  0.0974  0.2351
  282POPC   NC3 3926   0.620   7.503   4.966 -0.1069  0.0886 -0.1104
  282POPC   PO4 3927   0.802   6.996   4.886  0.0811  0.1004  0.0613
  282POPC   GL1 3928   0.444   6.667   5.145  0.0659 -0.0290 -0.0713
  282POPC   GL2 3929   0.190   6.787   5.238  0.0931  0.0222  0.1021
  282POPC   C1A 3930   0.348   6.321   5.371 -0.1769  0.1497 -0.0661
  282POPC   D2A 3931   0.164   6.277   5.846 -0.0251  0.2510 -0.0373
  282POPC   C3A 3932   0.190   6.282   6.323  0.0695  0.2688 -0.0538
  282POPC   C4A 3933  -0.086   6.026   6.673 -0.1661 -0.3559 -0.0730
  282POPC   C1B 3934   0.297   6.895   5.674  0.0845 -0.1002  0.0172
  282POPC   C2B 3935   0.255   6.781   6.025 -0.0431 -0.1787  0.2283
  282POPC   C3B 3936   0.215   6.807   6.509  0.0372 -0.1581  0.0841
  282POPC   C4B 3937   0.289   6.829   6.936 -0.0848 -0.1138 -0.1208
  283POPC   NC3 3938   9.467   6.735   4.178 -0.1334 -0.0345  0.0230
  283POPC   PO4 3939   9.069   6.676   4.176 -0.0009  0.3921  0.0417
  283POPC   GL1 3940   8.938   6.562   4.572  0.0326 -0.0807  0.1965
  283POPC   GL2 3941   8.867   6.294   4.659 -0.1430  0.0934 -0.1062
  283POPC   C1A 3942   8.770   6.711   5.036 -0.0340  0.0598  0.1529
  283POPC   D2A 3943   8.335   6.790   5.283  0.0767  0.0583  0.0806
  283POPC   C3A 3944   8.232   6.878   5.689 -0.2938 -0.1977  0.4100
  283POPC   C4A 3945   7.969   6.997   6.042 -0.0383  0.1099 -0.0904
  283POPC   C1B 3946   8.674   6.136   4.991  0.1342  0.0485 -0.2082
  283POPC   C2B 3947   8.664   6.300   5.361 -0.0098  0.2639 -0.1437
  283POPC   C3B 3948   8.405   6.106   5.579 -0.2537 -0.0467  0.0595
  283POPC   C4B 3949   8.421   5.912   6.029  0.1735  0.1434  0.1058
  284POPC   NC3 3950   7.978   8.710   3.285 -0.1271  0.0254  0.0312
  284POPC   PO4 3951   7.597   8.915   3.130  0.2540  0.0520 -0.2737
  284POPC   GL1 3952   7.665   8.886   3.610  0.2203 -0.1613  0.1495
  284POPC   GL2 3953   7.441   8.720   3.750 -0.0757  0.3870  0.0455
  284POPC   C1A 3954   7.929   8.730   4.047  0.2371  0.0454 -0.4605
  284POPC   D2A 3955   8.062   8.857   4.480 -0.0349 -0.1807  0.0986
  284POPC   C3A 3956   7.893   9.167   4.812  0.0768  0.0639  0.1923
  284POPC   C4A 3957   7.527   9.438   4.879 -0.4025 -0.0446 -0.1083
  284POPC   C1B 3958   7.396   8.717   4.149  0.2155  0.0921  0.1779
  284POPC   C2B 3959   7.147   8.729   4.491  0.0569 -0.0713 -0.0005
  284POPC   C3B 3960   7.011   8.528   4.904 -0.2042  0.0228  0.0617
  284POPC   C4B 3961   6.940   8.515   5.307 -0.1372 -0.3363  0.0289
  285POPC   NC3 3962   3.335   9.447   5.503  0.1377 -0.0490 -0.0364
  285POPC   PO4 3963   3.366   9.035   5.420  0.2939 -0.0664  0.2780
  285POPC   GL1 3964   3.344   9.090   5.894 -0.0812  0.1431  0.1084
  285POPC   GL2 3965   3.641   9.089   5.937 -0.0564 -0.0559 -0.2744
  285POPC   C1A 3966   3.106   9.289   6.161  0.2389 -0.0042  0.3000
  285POPC   D2A 3967   3.013   9.382   6.650 -0.1224 -0.2641  0.1194
  285POPC   C3A 3968   3.287   9.405   6.794 -0.0450 -0.2739  0.1901
  285POPC   C4A 3969   3.654   9.256   6.916 -0.0152 -0.0940 -0.1842
  285POPC   C1B 3970   3.573   9.191   6.367  0.0758  0.3032  0.1521
  285POPC   C2B 3971   3.293   8.871   6.685  0.3077 -0.0476 -0.2053
  285POPC   C3B 3972   3.057   8.435   6.634 -0.1011  0.1486  0.3076
  285POPC   C4B 3973   2.695   8.196   6.713 -0.2166  0.1359  0.0647
  286POPC   NC3 3974   9.690   8.957   4.065 -0.2830 -0.2974  0.2811
  286POPC   PO4 3975   9.732   9.295   4.288  0.0517  0.0176 -0.0283
  286POPC   GL1 3976   9.534   9.098   4.724 -0.2970  0.1444  0.0979
  286POPC   GL2 3977   9.299   9.219   4.895 -0.0527  0.1655  0.0302
  286POPC   C1A 3978   9.685   9.071   5.105 -0.1042  0.1900  0.0732
  286POPC   D2A 3979   9.413   8.926   5.487  0.1729 -0.1989  0.0492
  286POPC   C3A 3980   9.620   8.663   5.714 -0.2369  0.0209 -0.0905
  286POPC   C4A 3981   9.512   8.469   5.980  0.1654 -0.0786 -0.0992
  286POPC   C1B 3982   9.320   9.450   5.266  0.0234  0.2312 -0.0299
  286POPC   C2B 3983   9.265   9.585   5.738  0.0959  0.0107  0.1600
  286POPC   C3B 3984   9.420   9.904   5.952 -0.2390 -0.1282  0.1973
  286POPC   C4B 3985   9.318  10.274   6.078  0.2504  0.2284 -0.0970
  287POPC   NC3 3986  10.015   5.099   5.043 -0.0788 -0.0074 -0.0017
  287POPC   PO4 3987   9.746   5.283   4.760 -0.1121 -0.0660  0.2818
  287POPC   GL1 3988   9.615   5.341   5.181 -0.1103  0.1608 -0.2901
  287POPC   GL2 3989   9.652   5.771   5.264  0.0618  0.1051 -0.0450
  287POPC   C1A 3990   9.782   5.216   5.688 -0.0337  0.2085 -0.2957
  287POPC   D2A 3991  10.086   5.278   6.070  0.0725  0.0434 -0.1214
  287POPC   C3A 3992   9.902   5.628   6.517 -0.1084 -0.1241  0.0545
  287POPC   C4A 3993   9.526   5.992   6.637  0.1013 -0.0905 -0.2135
  287POPC   C1B 3994   9.522   6.077   5.508  0.2776 -0.2086  0.1013
  287POPC   C2B 3995   9.110   6.219   5.602  0.3050  0.0771 -0.0713
  287POPC   C3B 3996   8.733   6.299   5.910 -0.3294 -0.0638  0.0095
  287POPC   C4B 3997   8.627   6.350   6.374  0.2619  0.0700  0.2226
  288POPC   NC3 3998   9.755   3.876   5.104  0.0744 -0.1001 -0.2584
  288POPC   PO4 3999   9.459   4.184   5.133 -0.0303  0.0639 -0.0211
  288POPC   GL1 4000   9.641   4.406   5.469 -0.1722  0.1131 -0.1477
  288POPC   GL2 4001   9.437   4.707   5.322 -0.0100 -0.0521 -0.1251
  288POPC   C1A 4002   9.557   4.320   5.953 -0.1546  0.1006 -0.0396
  288POPC   D2A 4003   9.392   4.399   6.423 -0.3792  0.4184  0.1961
  288POPC   C3A 4004   9.371   4.239   6.886  0.0597 -0.5966  0.0418
  288POPC   C4A 4005   9.250   3.795   6.983 -0.3369  0.0652  0.0472
  288POPC   C1B 4006   9.545   4.772   5.799  0.1024  0.1031 -0.0258
  288POPC   C2B 4007   9.705   4.914   6.199 -0.2736 -0.2930  0.0256
  288POPC   C3B 4008   9.999   5.130   6.506 -0.0576  0.1825 -0.1560
  288POPC   C4B 4009  10.153   5.399   6.912 -0.0199  0.0623 -0.0903
  289POPC   NC3 4010   4.366   2.623   5.327  0.0839  0.0590  0.2081
  289POPC   PO4 4011   4.406   2.176   5.519 -0.3937 -0.1350  0.0033
  289POPC   GL1 4012   4.335   2.108   5.927 -0.1181  0.0449  0.0723
  289POPC   GL2 4013   4.565   1.886   6.083 -0.1518  0.0878 -0.0877
  289POPC   C1A 4014   4.277   2.112   6.492  0.0138  0.1146  0.1889
  289POPC   D2A 4015   4.289   2.387   6.835  0.2529  0.0343  0.0796
  289POPC   C3A 4016   4.516   2.199   7.083 -0.2377 -0.2594 -0.0518
  289POPC   C4A 4017   4.544   2.051   7.485 -0.0978 -0.1055  0.0212
  289POPC   C1B 4018   4.789   1.985   6.371  0.0894 -0.1589  0.0187
  289POPC   C2B 4019   4.677   1.858   6.767  0.2222 -0.0899  0.0514
  289POPC   C3B 4020   4.364   1.729   7.002 -0.2763 -0.0051 -0.1133
  289POPC   C4B 4021   4.117   1.438   7.302  0.0257  0.0123  0.2864
  290POPC   NC3 4022   3.443   2.632   5.563 -0.1233 -0.2876 -0.0130
  290POPC   PO4 4023   3.536   2.097   5.587 -0.1553 -0.1155  0.1558
  290POPC   GL1 4024   3.631   2.078   5.977 -0.0889 -0.0827 -0.0823
  290POPC   GL2 4025   3.874   2.263   6.187  0.1742  0.0395  0.3993
  290POPC   C1A 4026   3.631   1.874   6.443 -0.0712  0.0488  0.1256
  290POPC   D2A 4027   3.868   1.762   6.740 -0.0644  0.2701  0.1514
  290POPC   C3A 4028   4.035   1.321   6.829  0.0942 -0.0916  0.2855
  290POPC   C4A 4029   4.274   0.951   6.958  0.1187  0.0908 -0.1808
  290POPC   C1B 4030   3.866   2.508   6.526  0.0322 -0.1303 -0.1076
  290POPC   C2B 4031   3.957   2.820   6.775 -0.0427 -0.0573 -0.1204
  290POPC   C3B 4032   4.367   2.920   6.869  0.1609  0.1547  0.0945
  290POPC   C4B 4033   4.550   3.153   7.090  0.0160  0.0978 -0.0209
  291POPC   NC3 4034   1.131   5.248   5.152 -0.0959  0.0087  0.0515
  291POPC   PO4 4035   1.493   5.403   5.247  0.2962 -0.1305 -0.0514
  291POPC   GL1 4036   1.410   5.212   5.608 -0.1225 -0.2238 -0.1414
  291POPC   GL2 4037   1.132   5.364   5.621 -0.1906  0.0158 -0.2131
  291POPC   C1A 4038   1.280   5.258   6.103  0.0352  0.3739  0.1962
  291POPC   D2A 4039   1.169   5.321   6.539  0.0393 -0.0037 -0.0705
  291POPC   C3A 4040   0.732   5.564   6.703 -0.0689  0.2135  0.0093
  291POPC   C4A 4041   0.338   5.772   6.917  0.0998  0.2230 -0.2267
  291POPC   C1B 4042   0.883   5.528   6.000 -0.0792  0.3059  0.3426
  291POPC   C2B 4043   0.784   5.774   6.261  0.1561  0.0171 -0.0643
  291POPC   C3B 4044   0.623   6.042   6.563  0.0766 -0.1391 -0.0672
  291POPC   C4B 4045   0.576   6.305   6.923 -0.1626  0.1289  0.0087
  292POPC   NC3 4046   0.585   8.760   5.077 -0.1559 -0.0130 -0.0276
  292POPC   PO4 4047   0.396   9.016   5.366 -0.4033 -0.0042 -0.1615
  292POPC   GL1 4048   0.350   8.951   5.858 -0.0983  0.0972 -0.0114
  292POPC   GL2 4049   0.358   9.194   5.949  0.0248 -0.1429  0.0381
  292POPC   C1A 4050   0.264   8.891   6.329 -0.0632 -0.2464  0.1151
  292POPC   D2A 4051  -0.088   8.746   6.691 -0.0029 -0.0361  0.0489
  292POPC   C3A 4052  -0.376   8.502   6.602  0.1424 -0.3426 -0.2889
  292POPC   C4A 4053  -0.716   8.201   6.692  0.1655 -0.2417  0.0387
  292POPC   C1B 4054   0.329   9.388   6.279 -0.3100  0.2911 -0.0792
  292POPC   C2B 4055   0.534   9.782   6.366  0.1958  0.1440  0.0139
  292POPC   C3B 4056   0.530   9.814   6.807 -0.2817 -0.0286 -0.2730
  292POPC   C4B 4057   0.284   9.890   7.160 -0.0052  0.1751  0.3464
  293POPC   NC3 4058   1.681   7.121   5.021 -0.0627  0.4038 -0.0969
  293POPC   PO4 4059   1.595   6.637   5.111  0.1637  0.0723 -0.0002
  293POPC   GL1 4060   1.644   6.351   5.355  0.0134  0.1603  0.0967
  293POPC   GL2 4061   1.940   6.291   5.406 -0.2338  0.2110  0.2058
  293POPC   C1A 4062   1.614   6.127   5.745  0.2506 -0.0424 -0.2159
  293POPC   D2A 4063   1.682   6.146   6.202  0.2012 -0.0018 -0.2371
  293POPC   C3A 4064   1.389   6.216   6.506 -0.0755 -0.1091  0.0039
  293POPC   C4A 4065   1.065   6.294   6.748  0.1280 -0.1417 -0.2692
  293POPC   C1B 4066   2.054   6.311   5.790 -0.0912 -0.1863  0.3521
  293POPC   C2B 4067   2.071   6.396   6.271  0.0328 -0.1465  0.2164
  293POPC   C3B 4068   2.013   6.398   6.768  0.2256  0.2301 -0.3989
  293POPC   C4B 4069   2.030   6.541   7.216  0.0989 -0.1150 -0.0969
  294POPC   NC3 4070   2.488   1.249   5.966  0.4011  0.0541 -0.3541
  294POPC   PO4 4071   2.368   1.362   5.547  0.0440 -0.1812  0.1415
  294POPC   GL1 4072   2.128   1.580   5.806 -0.0004  0.0572  0.1954
  294POPC   GL2 4073   1.828   1.547   5.793  0.1118  0.2836  0.0652
  294POPC   C1A 4074   2.028   1.768   6.229  0.0026 -0.2320 -0.1637
  294POPC   D2A 4075   1.887   2.214   6.360 -0.1378  0.1720 -0.0020
  294POPC   C3A 4076   1.909   2.625   6.396  0.0617  0.1088  0.0653
  294POPC   C4A 4077   2.073   2.894   6.294 -0.0265 -0.1400 -0.1454
  294POPC   C1B 4078   1.682   1.464   6.152 -0.1607  0.0877 -0.2458
  294POPC   C2B 4079   1.566   1.281   6.531 -0.1766  0.0324 -0.2040
  294POPC   C3B 4080   1.744   1.479   6.963 -0.2553 -0.1863 -0.1513
  294POPC   C4B 4081   1.630   1.855   7.173 -0.1358 -0.0876 -0.1348
  295POPC   NC3 4082   4.923   3.423   4.486  0.0472 -0.3129  0.0653
  295POPC   PO4 4083   4.918   3.403   4.933 -0.1959 -0.0268 -0.2872
  295POPC   GL1 4084   4.956   3.381   5.391  0.0168 -0.3872  0.2494
  295POPC   GL2 4085   5.018   3.645   5.535  0.0313  0.1831  0.1623
  295POPC   C1A 4086   4.828   3.285   5.813 -0.1109  0.0306  0.2055
  295POPC   D2A 4087   4.558   3.010   6.024 -0.1808 -0.0186 -0.2089
  295POPC   C3A 4088   4.588   2.932   6.434  0.0318 -0.0169 -0.3295
  295POPC   C4A 4089   4.881   2.888   6.708 -0.1487  0.0754 -0.0476
  295POPC   C1B 4090   5.183   3.681   5.940 -0.1657  0.0881  0.2973
  295POPC   C2B 4091   5.383   3.582   6.300 -0.0926 -0.0714 -0.2823
  295POPC   C3B 4092   5.694   3.682   6.539  0.2401 -0.2690  0.0643
  295POPC   C4B 4093   6.020   3.995   6.661  0.3161 -0.0792  0.0973
  296POPC   NC3 4094   9.216   1.349   5.209 -0.2320 -0.2189 -0.3035
  296POPC   PO4 4095   8.851   1.191   5.063 -0.1804 -0.0717 -0.0296
  296POPC   GL1 4096   8.910   0.970   5.380 -0.0950  0.4989 -0.0661
  296POPC   GL2 4097   9.040   1.144   5.667 -0.0036  0.3518 -0.0330
  296POPC   C1A 4098   8.591   0.658   5.552 -0.3256 -0.2835  0.0628
  296POPC   D2A 4099   8.597   0.320   5.789  0.0686 -0.0452 -0.2415
  296POPC   C3A 4100   8.337   0.123   6.230 -0.3159  0.1927  0.0282
  296POPC   C4A 4101   7.944  -0.191   6.325  0.1499 -0.2760 -0.1735
  296POPC   C1B 4102   8.951   1.209   6.033  0.1581 -0.1669 -0.0233
  296POPC   C2B 4103   8.884   0.921   6.342 -0.0363  0.0146 -0.3650
  296POPC   C3B 4104   9.049   0.620   6.702  0.1478 -0.0022  0.0971
  296POPC   C4B 4105   8.973   0.540   7.109 -0.2550 -0.2042  0.2305
  297POPC   NC3 4106   0.344   4.335   5.045  0.2312  0.0562  0.1558
  297POPC   PO4 4107   0.465   3.942   4.881 -0.0719  0.1207 -0.1241
  297POPC   GL1 4108   0.584   3.962   5.331 -0.0128 -0.0658 -0.0709
  297POPC   GL2 4109   0.424   4.259   5.532  0.1282  0.1116  0.3379
  297POPC   C1A 4110   0.731   3.988   5.838 -0.3680  0.1772 -0.0519
  297POPC   D2A 4111   0.656   3.971   6.249  0.3127 -0.2426 -0.2762
  297POPC   C3A 4112   0.339   4.376   6.507  0.0931  0.2817  0.1806
  297POPC   C4A 4113   0.050   4.481   6.848  0.0994 -0.1493  0.0811
  297POPC   C1B 4114   0.265   4.142   6.019 -0.1757  0.2216  0.2270
  297POPC   C2B 4115   0.067   4.003   6.345  0.2222  0.3485 -0.0236
  297POPC   C3B 4116  -0.265   4.183   6.630  0.1570 -0.0995 -0.0708
  297POPC   C4B 4117  -0.372   4.632   6.606 -0.4696 -0.0953 -0.3225
  298POPC   NC3 4118   5.308   1.723   5.043  0.4349 -0.4301  0.0570
  298POPC   PO4 4119   5.138   1.863   5.404 -0.1605  0.1282 -0.3235
  298POPC   GL1 4120   5.381   1.940   5.839 -0.0173  0.0681 -0.0700
  298POPC   GL2 4121   5.691   1.905   5.942  0.1920  0.2431 -0.2895
  298POPC   C1A 4122   5.267   1.830   6.250  0.2034  0.1037 -0.1799
  298POPC   D2A 4123   5.186   1.795   6.665 -0.2257 -0.1364  0.0410
  298POPC   C3A 4124   5.480   1.614   6.882  0.3212 -0.3125  0.1142
  298POPC   C4A 4125   5.876   1.523   6.825 -0.3617  0.3655  0.5552
  298POPC   C1B 4126   5.760   1.772   6.376 -0.0760  0.2635 -0.0315
  298POPC   C2B 4127   5.842   1.979   6.791 -0.0633 -0.0703 -0.2302
  298POPC   C3B 4128   6.062   1.892   7.179  0.0318 -0.0035 -0.0330
  298POPC   C4B 4129   6.424   1.649   7.257 -0.2667  0.0941  0.0800
  299POPC   NC3 4130   9.579   2.292   4.743  0.2248  0.1452 -0.1762
  299POPC   PO4 4131   9.384   2.668   4.937 -0.1039  0.0521 -0.1411
  299POPC   GL1 4132   9.667   3.001   5.212  0.0394  0.2846  0.2406
  299POPC   GL2 4133   9.427   3.020   5.407  0.1996 -0.0127 -0.0665
  299POPC   C1A 4134  10.116   2.970   5.428  0.0492 -0.2639 -0.1068
  299POPC   D2A 4135  10.628   2.977   5.535  0.1113 -0.1616 -0.0954
  299POPC   C3A 4136  10.699   2.994   5.908  0.0995  0.2707  0.0514
  299POPC   C4A 4137  10.843   3.194   6.318  0.1522 -0.0349  0.3591
  299POPC   C1B 4138   9.174   3.345   5.732 -0.0297 -0.0978 -0.3046
  299POPC   C2B 4139   9.011   3.490   6.043 -0.2763 -0.3113 -0.2974
  299POPC   C3B 4140   8.996   3.564   6.545  0.1123  0.3491  0.1065
  299POPC   C4B 4141   9.029   3.366   7.008  0.2312  0.1960  0.2487
  300POPC   NC3 4142   4.359   9.859   5.183 -0.3944 -0.0154 -0.0261
  300POPC   PO4 4143   4.695  10.023   4.952 -0.0360 -0.1331  0.0017
  300POPC   GL1 4144   4.960   9.961   5.312  0.3496  0.1841 -0.1952
  300POPC   GL2 4145   4.654  10.107   5.577 -0.1381  0.1916  0.0154
  300POPC   C1A 4146   5.110   9.631   5.617 -0.0524  0.1143  0.2711
  300POPC   D2A 4147   5.442   9.340   5.614 -0.0596 -0.2341  0.0350
  300POPC   C3A 4148   5.864   9.329   5.435 -0.0476  0.2365  0.2707
  300POPC   C4A 4149   6.125   8.922   5.263  0.0285  0.1607  0.1674
  300POPC   C1B 4150   4.914   9.980   5.878  0.3344  0.1139  0.2991
  300POPC   C2B 4151   4.985   9.710   6.182  0.0462  0.2312  0.0897
  300POPC   C3B 4152   5.087   9.357   6.249  0.0120  0.0594  0.3625
  300POPC   C4B 4153   5.217   9.089   6.007 -0.1217 -0.2762 -0.2742
  301POPC   NC3 4154   6.943   8.682   3.106  0.2656 -0.1287  0.0460
  301POPC   PO4 4155   6.797   8.637   3.450  0.1167  0.0890 -0.0736
  301POPC   GL1 4156   6.659   8.575   3.860  0.1418 -0.1195  0.1135
  301POPC   GL2 4157   6.911   8.730   4.029 -0.3122 -0.0404 -0.0428
  301POPC   C1A 4158   6.333   8.392   4.166  0.3220  0.1898 -0.0231
  301POPC   D2A 4159   6.458   7.882   4.266  0.3270 -0.0244 -0.3438
  301POPC   C3A 4160   6.790   7.746   4.526  0.0370  0.0337  0.0908
  301POPC   C4A 4161   7.066   7.639   4.877  0.1172  0.2678  0.0931
  301POPC   C1B 4162   7.095   8.338   3.957 -0.1243  0.0341  0.2028
  301POPC   C2B 4163   7.459   8.102   4.009  0.0618  0.0302 -0.1762
  301POPC   C3B 4164   7.629   7.819   4.209 -0.2214  0.1505 -0.0411
  301POPC   C4B 4165   7.886   7.542   4.559 -0.1795 -0.0929 -0.0351
  302POPC   NC3 4166   5.645   0.445   4.943 -0.3276 -0.2374  0.1045
  302POPC   PO4 4167   5.666  -0.085   4.830 -0.1295  0.0715  0.2312
  302POPC   GL1 4168   5.532  -0.212   5.192 -0.0363  0.0564 -0.1080
  302POPC   GL2 4169   5.430  -0.479   5.240 -0.0960 -0.0273 -0.1041
  302POPC   C1A 4170   5.714  -0.390   5.633 -0.0632  0.0747 -0.1244
  302POPC   D2A 4171   5.894  -0.693   5.960 -0.1087 -0.2143 -0.1071
  302POPC   C3A 4172   5.569  -0.831   6.309  0.0569  0.3593  0.2504
  302POPC   C4A 4173   5.306  -1.134   6.600 -0.0630  0.4644  0.1071
  302POPC   C1B 4174   5.418  -0.900   5.135 -0.3822 -0.2670  0.2995
  302POPC   C2B 4175   5.219  -1.292   5.072  0.0616 -0.0532 -0.1654
  302POPC   C3B 4176   4.767  -1.328   5.112  0.1948  0.0739  0.1751
  302POPC   C4B 4177   4.360  -1.466   5.096 -0.1386  0.1308 -0.3045
  303POPC   NC3 4178   6.680   7.974   3.144 -0.0478  0.0868  0.0521
  303POPC   PO4 4179   6.592   7.571   3.194 -0.0449  0.2774  0.0661
  303POPC   GL1 4180   6.966   7.569   3.440  0.1163  0.0129 -0.2899
  303POPC   GL2 4181   7.143   7.337   3.554 -0.0427  0.4263  0.1541
  303POPC   C1A 4182   7.128   7.742   3.772 -0.2951 -0.1851 -0.2438
  303POPC   D2A 4183   7.213   7.707   4.319  0.1557  0.3173 -0.0564
  303POPC   C3A 4184   7.412   7.384   4.443  0.1314 -0.0138 -0.0470
  303POPC   C4A 4185   7.695   7.030   4.655 -0.0373 -0.0375 -0.2578
  303POPC   C1B 4186   7.230   7.219   3.949  0.2420  0.3664  0.2089
  303POPC   C2B 4187   7.179   6.938   4.294  0.0033  0.4846  0.1849
  303POPC   C3B 4188   7.042   6.516   4.321  0.0704 -0.2638 -0.1437
  303POPC   C4B 4189   6.702   6.262   4.484 -0.1706 -0.0461 -0.0728
  304POPC   NC3 4190   3.123   1.859   5.789  0.0465  0.3029  0.0975
  304POPC   PO4 4191   2.589   1.723   5.844 -0.3885  0.0640  0.0236
  304POPC   GL1 4192   2.528   1.803   6.164  0.0156 -0.1507 -0.4466
  304POPC   GL2 4193   2.639   2.139   6.186 -0.0338  0.2233  0.1499
  304POPC   C1A 4194   2.343   1.943   6.604 -0.2250  0.1546  0.2576
  304POPC   D2A 4195   2.020   1.892   6.842 -0.1467 -0.0056 -0.0987
  304POPC   C3A 4196   1.740   1.860   6.609 -0.1068  0.3036  0.2639
  304POPC   C4A 4197   1.500   1.919   6.217 -0.1569 -0.3909  0.1009
  304POPC   C1B 4198   3.015   2.342   6.374  0.0811 -0.2709 -0.1551
  304POPC   C2B 4199   3.406   2.216   6.594  0.0870 -0.1974 -0.3930
  304POPC   C3B 4200   3.633   2.325   6.965 -0.0971 -0.0146  0.2087
  304POPC   C4B 4201   4.052   2.106   7.133 -0.1668 -0.1147  0.0153
  305POPC   NC3 4202   7.753   1.903   4.981 -0.0857  0.1466  0.1887
  305POPC   PO4 4203   7.919   1.986   5.416 -0.2241 -0.1617 -0.0510
  305POPC   GL1 4204   7.804   2.059   5.847  0.4274  0.4189 -0.0787
  305POPC   GL2 4205   7.984   2.081   5.915 -0.2063  0.0859  0.0275
  305POPC   C1A 4206   7.567   2.194   6.281 -0.1632  0.1069 -0.1518
  305POPC   D2A 4207   7.575   2.290   6.737 -0.1507 -0.1509  0.0739
  305POPC   C3A 4208   7.861   2.156   6.842 -0.3868 -0.2898  0.0170
  305POPC   C4A 4209   8.247   2.316   6.923  0.4115  0.0934 -0.5471
  305POPC   C1B 4210   8.072   2.119   6.320 -0.1258  0.0399 -0.2128
  305POPC   C2B 4211   8.195   1.793   6.521  0.0971  0.0608  0.0691
  305POPC   C3B 4212   8.340   1.485   6.766 -0.0766 -0.2139  0.2001
  305POPC   C4B 4213   8.223   1.279   7.125  0.2560  0.0115 -0.0359
  306POPC   NC3 4214  10.048   4.649   4.610 -0.3805 -0.1695  0.0987
  306POPC   PO4 4215  10.411   4.787   4.859 -0.0572 -0.1721  0.1879
  306POPC   GL1 4216  10.473   4.790   5.298 -0.0496  0.2996 -0.1913
  306POPC   GL2 4217  10.185   4.846   5.479 -0.1139 -0.4027 -0.0704
  306POPC   C1A 4218  10.606   4.683   5.751 -0.2026 -0.0176 -0.0919
  306POPC   D2A 4219  10.782   4.484   6.118 -0.1471  0.2114 -0.0605
  306POPC   C3A 4220  10.862   4.625   6.498  0.2919 -0.2072 -0.1245
  306POPC   C4A 4221  10.913   4.844   6.672  0.0514 -0.0272  0.3033
  306POPC   C1B 4222  10.305   5.208   5.628 -0.2643 -0.0934  0.1546
  306POPC   C2B 4223  10.534   5.507   5.775  0.0987  0.0398  0.1325
  306POPC   C3B 4224  10.488   5.774   5.988 -0.3783 -0.0676 -0.1679
  306POPC   C4B 4225  10.013   5.915   6.111 -0.2617  0.0615 -0.2524
  307POPC   NC3 4226   6.314   1.492   5.055  0.2315 -0.0652  0.2530
  307POPC   PO4 4227   6.014   1.685   5.383 -0.5566 -0.1391  0.0069
  307POPC   GL1 4228   6.097   1.806   5.708  0.0418  0.2484  0.1892
  307POPC   GL2 4229   6.164   2.184   5.645  0.0299 -0.0875 -0.2806
  307POPC   C1A 4230   6.321   1.490   6.011 -0.1553 -0.2039 -0.0657
  307POPC   D2A 4231   6.690   1.485   6.252  0.3571 -0.3385  0.1810
  307POPC   C3A 4232   6.802   1.182   6.453 -0.1311 -0.2314 -0.2025
  307POPC   C4A 4233   7.102   0.975   6.528 -0.3292 -0.1392 -0.3635
  307POPC   C1B 4234   6.522   2.162   5.898 -0.1421 -0.1056 -0.1979
  307POPC   C2B 4235   6.457   2.294   6.232 -0.2140  0.1118 -0.0469
  307POPC   C3B 4236   6.238   2.290   6.657 -0.4216 -0.3298 -0.1252
  307POPC   C4B 4237   6.125   2.345   7.070 -0.1896 -0.0387 -0.2210
  308POPC   NC3 4238   6.941   2.304   5.363 -0.0890  0.1267 -0.2134
  308POPC   PO4 4239   7.133   2.012   5.117 -0.2212  0.2444  0.1317
  308POPC   GL1 4240   7.344   1.990   5.523  0.0615 -0.2654  0.4550
  308POPC   GL2 4241   7.269   2.072   5.835 -0.1728  0.1062 -0.1636
  308POPC   C1A 4242   7.477   1.647   5.803 -0.1677  0.1717  0.0517
  308POPC   D2A 4243   7.115   1.668   6.137 -0.0234 -0.4388 -0.1384
  308POPC   C3A 4244   7.181   2.054   6.570 -0.1772 -0.2907 -0.1372
  308POPC   C4A 4245   7.072   2.025   7.011  0.1142  0.4795  0.0278
  308POPC   C1B 4246   6.968   2.241   6.102 -0.0343 -0.0010  0.0096
  308POPC   C2B 4247   6.729   2.008   6.536  0.5431 -0.0592  0.2637
  308POPC   C3B 4248   6.823   1.654   6.708  0.2364 -0.0719 -0.2402
  308POPC   C4B 4249   7.213   1.448   6.599  0.1069 -0.2127 -0.1669
  309POPC   NC3 4250   2.597   3.040   5.593 -0.3261 -0.1446  0.0413
  309POPC   PO4 4251   2.795   3.451   5.522 -0.0453  0.0650 -0.1277
  309POPC   GL1 4252   3.101   3.378   5.917  0.0892 -0.3468  0.0797
  309POPC   GL2 4253   2.876   3.381   6.163  0.1343  0.1060 -0.1398
  309POPC   C1A 4254   3.366   3.340   6.228  0.1154  0.1609  0.2279
  309POPC   D2A 4255   3.664   3.288   6.582  0.0712  0.0219  0.1103
  309POPC   C3A 4256   3.671   3.125   7.054 -0.3119 -0.1679  0.1525
  309POPC   C4A 4257   3.576   2.738   7.213  0.2204  0.0847 -0.0057
  309POPC   C1B 4258   2.934   3.769   6.347  0.1415 -0.1999 -0.2859
  309POPC   C2B 4259   3.209   3.739   6.640 -0.0041 -0.1367 -0.0868
  309POPC   C3B 4260   3.403   3.682   6.924 -0.1263 -0.1633 -0.5588
  309POPC   C4B 4261   3.630   3.868   7.347 -0.2129  0.0362  0.0446
  310POPC   NC3 4262   1.649   7.915   5.429  0.0942 -0.1309 -0.2634
  310POPC   PO4 4263   1.592   7.556   5.254  0.3149  0.1751 -0.0176
  310POPC   GL1 4264   1.694   7.323   5.635 -0.4204  0.2187  0.2066
  310POPC   GL2 4265   1.646   7.552   5.846  0.2712 -0.2436 -0.0342
  310POPC   C1A 4266   1.393   7.184   6.044  0.1789 -0.0070 -0.3278
  310POPC   D2A 4267   1.169   6.880   6.429 -0.1226 -0.2353 -0.0772
  310POPC   C3A 4268   1.389   6.778   6.834 -0.2328 -0.1251 -0.2004
  310POPC   C4A 4269   1.697   6.864   7.098 -0.0249 -0.3168 -0.0431
  310POPC   C1B 4270   1.263   7.714   5.973  0.2442 -0.2297 -0.2220
  310POPC   C2B 4271   0.878   7.420   6.014 -0.2160 -0.0212  0.0658
  310POPC   C3B 4272   0.560   7.603   6.290  0.3100 -0.2143 -0.1095
  310POPC   C4B 4273   0.422   8.007   6.336  0.1797  0.0195  0.2112
  311POPC   NC3 4274   0.602   2.619   5.004 -0.2850 -0.0795 -0.5792
  311POPC   PO4 4275   1.124   2.672   5.067 -0.0259 -0.1343 -0.1142
  311POPC   GL1 4276   0.932   2.523   5.386  0.2276  0.0695 -0.0023
  311POPC   GL2 4277   1.165   2.314   5.583 -0.0920  0.3842 -0.1219
  311POPC   C1A 4278   0.797   2.585   5.739 -0.3561  0.0828 -0.1526
  311POPC   D2A 4279   0.908   2.611   6.248 -0.0585 -0.1907 -0.0506
  311POPC   C3A 4280   1.041   2.954   6.543 -0.1185 -0.1577 -0.1368
  311POPC   C4A 4281   1.143   3.219   6.888  0.2797 -0.0706 -0.0501
  311POPC   C1B 4282   0.947   2.161   6.061  0.0846 -0.0069  0.0191
  311POPC   C2B 4283   1.102   2.186   6.496 -0.1878  0.1464 -0.3095
  311POPC   C3B 4284   1.455   2.227   6.789 -0.1256 -0.2831  0.1164
  311POPC   C4B 4285   1.856   2.377   6.829 -0.2370  0.4122  0.1559
  312POPC   NC3 4286   4.933   0.881   5.571  0.3523  0.0580  0.1735
  312POPC   PO4 4287   4.591   1.181   5.664 -0.0872 -0.2480 -0.1949
  312POPC   GL1 4288   4.660   1.405   6.032  0.1505 -0.0374 -0.1318
  312POPC   GL2 4289   4.488   1.193   6.175  0.0624  0.1660 -0.3578
  312POPC   C1A 4290   4.916   1.444   6.413 -0.0064  0.1881 -0.0314
  312POPC   D2A 4291   5.333   1.258   6.401  0.0022  0.0622  0.3120
  312POPC   C3A 4292   5.561   1.129   6.734 -0.0862  0.2598 -0.0835
  312POPC   C4A 4293   5.566   0.789   6.747 -0.1507  0.3485  0.0163
  312POPC   C1B 4294   4.764   0.957   6.494 -0.0023 -0.1685  0.0784
  312POPC   C2B 4295   5.067   0.983   6.741  0.1323 -0.0467  0.2418
  312POPC   C3B 4296   5.115   0.741   7.086  0.0171 -0.3168  0.1165
  312POPC   C4B 4297   5.313   0.756   7.553 -0.3509 -0.0301 -0.0001
  313POPC   NC3 4298   0.609   4.913   4.460 -0.0488 -0.1951 -0.2326
  313POPC   PO4 4299   0.712   4.741   4.986 -0.1913 -0.1945 -0.0070
  313POPC   GL1 4300   0.784   4.947   5.341 -0.2031 -0.0601 -0.0782
  313POPC   GL2 4301   1.042   4.796   5.541 -0.0210 -0.2778 -0.1724
  313POPC   C1A 4302   0.654   5.126   5.738 -0.2346 -0.0055  0.2350
  313POPC   D2A 4303   0.583   5.013   6.173  0.0310  0.0032 -0.0911
  313POPC   C3A 4304   0.381   5.307   6.307  0.0450 -0.3782 -0.1697
  313POPC   C4A 4305   0.245   5.641   6.462 -0.0263 -0.1152  0.1893
  313POPC   C1B 4306   1.003   4.870   5.952 -0.0770  0.1361  0.1895
  313POPC   C2B 4307   1.142   4.807   6.350  0.2166  0.0766  0.0256
  313POPC   C3B 4308   1.309   4.957   6.820  0.1698  0.1723  0.0881
  313POPC   C4B 4309   1.355   5.170   7.287  0.1608 -0.2724  0.1355
  314POPC   NC3 4310   4.303   0.146   4.936  0.2442  0.0297 -0.1744
  314POPC   PO4 4311   4.149   0.011   5.463 -0.0584  0.0053 -0.0250
  314POPC   GL1 4312   4.204  -0.117   5.815  0.1688 -0.1075  0.2731
  314POPC   GL2 4313   4.443  -0.379   5.844  0.1780  0.0202  0.0568
  314POPC   C1A 4314   4.065  -0.218   6.210  0.3137 -0.3120 -0.0847
  314POPC   D2A 4315   3.795  -0.540   6.406 -0.0771 -0.2097  0.0083
  314POPC   C3A 4316   4.053  -1.003   6.558 -0.2214 -0.0334 -0.0565
  314POPC   C4A 4317   4.304  -1.351   6.635 -0.1347 -0.2845 -0.0827
  314POPC   C1B 4318   4.411  -0.620   6.267 -0.1260 -0.1775  0.3190
  314POPC   C2B 4319   4.637  -0.598   6.729 -0.0401 -0.3579  0.2422
  314POPC   C3B 4320   4.344  -0.923   6.946  0.0957 -0.3770 -0.0510
  314POPC   C4B 4321   4.109  -0.935   7.309 -0.1658 -0.2174  0.0629
  315POPC   NC3 4322   7.137   3.449   5.002  0.0559  0.2547  0.1430
  315POPC   PO4 4323   6.875   3.288   5.338  0.0066  0.0432  0.0772
  315POPC   GL1 4324   7.081   3.256   5.653 -0.0358 -0.1429  0.1061
  315POPC   GL2 4325   7.039   2.995   5.752 -0.1387 -0.0701  0.0281
  315POPC   C1A 4326   7.089   3.283   6.149 -0.1527  0.0614 -0.0667
  315POPC   D2A 4327   7.136   3.085   6.581  0.3764  0.2546  0.1036
  315POPC   C3A 4328   7.168   3.379   6.841 -0.1493 -0.1394 -0.1749
  315POPC   C4A 4329   7.179   3.641   7.152 -0.1162 -0.0552  0.1584
  315POPC   C1B 4330   7.099   2.764   6.166 -0.1575  0.0181 -0.1664
  315POPC   C2B 4331   6.856   2.573   6.500 -0.0989  0.3605  0.3270
  315POPC   C3B 4332   6.728   2.397   6.982 -0.1330 -0.1975  0.0208
  315POPC   C4B 4333   6.489   2.005   6.946  0.3066  0.0471  0.1778
  316POPC   NC3 4334   2.943   7.629   5.260 -0.0735  0.0596 -0.1648
  316POPC   PO4 4335   2.930   7.774   5.731 -0.1816  0.0781  0.1505
  316POPC   GL1 4336   3.105   8.104   5.982 -0.1831  0.5702  0.0048
  316POPC   GL2 4337   2.920   8.097   6.276 -0.1110 -0.3517 -0.1454
  316POPC   C1A 4338   3.448   8.205   6.294  0.1225 -0.1182  0.0931
  316POPC   D2A 4339   3.849   8.142   6.417  0.0113 -0.0676 -0.0509
  316POPC   C3A 4340   4.045   8.409   6.124  0.3307 -0.0327 -0.1672
  316POPC   C4A 4341   4.075   8.899   6.153  0.2767  0.0574  0.0191
  316POPC   C1B 4342   2.844   7.657   6.557 -0.1959 -0.1199 -0.0570
  316POPC   C2B 4343   2.808   7.537   6.879  0.1478  0.1045  0.0257
  316POPC   C3B 4344   2.511   7.302   7.044  0.1457 -0.3424  0.2714
  316POPC   C4B 4345   2.144   7.135   7.415  0.1629  0.1925 -0.2500
  317POPC   NC3 4346   4.920   2.152   5.794 -0.1610  0.0453  0.0309
  317POPC   PO4 4347   5.209   2.437   5.517 -0.1249 -0.0781  0.1248
  317POPC   GL1 4348   5.191   2.612   5.954  0.0525 -0.3033  0.1076
  317POPC   GL2 4349   5.304   2.388   6.079 -0.0596  0.3440 -0.1706
  317POPC   C1A 4350   5.218   2.751   6.402 -0.1791 -0.3890 -0.0177
  317POPC   D2A 4351   5.317   2.766   6.841  0.2565  0.0565  0.1896
  317POPC   C3A 4352   5.584   2.562   7.164 -0.1086 -0.3361  0.2383
  317POPC   C4A 4353   5.815   2.349   7.492  0.1059  0.1847  0.0179
  317POPC   C1B 4354   5.516   2.222   6.418 -0.0762  0.0351  0.1175
  317POPC   C2B 4355   5.748   2.468   6.682 -0.2980 -0.1854 -0.0178
  317POPC   C3B 4356   5.874   2.884   6.913 -0.0074  0.1957  0.1707
  317POPC   C4B 4357   5.731   2.956   7.403 -0.2132  0.1290 -0.0500
  318POPC   NC3 4358   8.887   2.049   4.667  0.0733  0.2439 -0.3084
  318POPC   PO4 4359   8.878   1.794   5.161 -0.1184 -0.1438 -0.1790
  318POPC   GL1 4360   8.756   1.577   5.567  0.1738 -0.1327  0.0875
  318POPC   GL2 4361   8.857   1.749   5.778  0.1893  0.2099  0.3995
  318POPC   C1A 4362   8.555   1.154   5.720  0.1554 -0.0806 -0.0049
  318POPC   D2A 4363   8.435   0.852   6.060  0.2694 -0.0945  0.2612
  318POPC   C3A 4364   8.571   0.556   6.427 -0.2458 -0.2864  0.0668
  318POPC   C4A 4365   8.669   0.244   6.781  0.3104 -0.1042 -0.1539
  318POPC   C1B 4366   8.957   1.721   6.207  0.1923  0.1256 -0.2689
  318POPC   C2B 4367   8.819   1.368   6.527 -0.2557 -0.0524 -0.0237
  318POPC   C3B 4368   8.624   0.994   6.810  0.1063 -0.3317  0.2211
  318POPC   C4B 4369   8.434   0.672   6.904 -0.2289  0.0143  0.0836
  319W        W 4370   6.049   5.956   9.351 -0.1531  0.0483  0.1080
  320W        W 4371   6.951   5.659   0.344 -0.2467  0.0748 -0.2380
  321W        W 4372   2.698   4.055   0.580  0.1944  0.2893 -0.2060
  322W        W 4373   0.070   6.957   2.816  0.0220 -0.4417  0.0730
  323W        W 4374   3.281   3.893   9.784  0.0023  0.0658  0.3062
  324W        W 4375   3.297   9.667  10.352  0.2106  0.1590  0.1276
  325W        W 4376   6.710   6.196   1.827 -0.2150  0.1354  0.2046
  326W        W 4377   2.545   5.096   9.522  0.1817 -0.1232  0.0709
  327W        W 4378   4.297   4.219   1.702 -0.4913  0.1945 -0.2397
  328W        W 4379   3.042   6.264  10.953 -0.2393 -0.2106 -0.1025
  329W        W 4380   8.581   8.346   2.747 -0.0334  0.0113 -0.0653
  330W        W 4381   3.402   0.579  11.643  0.2863 -0.3394 -0.3858
  331W        W 4382   4.711   0.903   4.467 -0.0893  0.1527  0.3103
  332W        W 4383   4.257   9.193   2.246  0.2177  0.1393 -0.3283
  333W        W 4384   9.864   8.199   1.996 -0.1675 -0.0187 -0.2945
  334W        W 4385   6.203   5.184  10.356 -0.3093 -0.1890 -0.2503
  335W        W 4386   0.994   7.098  11.368 -0.1475  0.0456  0.1035
  336W        W 4387   9.112   4.859  13.795 -0.0092 -0.4628 -0.1323
  337W        W 4388   1.577   6.056   9.789  0.3973  0.0471 -0.0478
  338W        W 4389   5.823   1.393   0.413 -0.1824  0.0553  0.0020
  339W        W 4390   4.693   2.947  10.580 -0.0570 -0.2525 -0.0089
  340W        W 4391   6.651   0.769   1.578  0.0412 -0.0759 -0.2017
  341W        W 4392   0.935   1.321  13.415 -0.3247 -0.1727  0.1786
  342W        W 4393   4.121   6.160   3.794  0.2139 -0.1965  0.0630
  343W        W 4394   6.471   1.881   2.970 -0.0486  0.0857  0.0408
  344W        W 4395   3.168   1.825   5.013  0.0602 -0.0559  0.2857
  345W        W 4396   9.707   3.685  10.146  0.0580 -0.0165 -0.1138
  346W        W 4397   5.989   7.448   0.948 -0.0124 -0.0781 -0.0928
  347W        W 4398   9.003   2.573  11.718 -0.1242 -0.0656  0.0960
  348W        W 4399   2.306   0.933  11.209 -0.3598  0.2235 -0.1368
  349W        W 4400   7.792   5.038  12.069 -0.2210  0.2509  0.0273
  350W        W 4401   7.959   2.070  13.025  0.0890  0.0216  0.3943
  351W        W 4402   8.491   3.566   9.416 -0.1746  0.1656 -0.3105
  352W        W 4403   6.981   7.201  10.562  0.1509  0.0316  0.3466
  353W        W 4404   3.094   1.553   0.795 -0.2845 -0.0286 -0.2330
  354W        W 4405   3.025   3.679  10.883  0.0061 -0.0850 -0.4078
  355W        W 4406   2.096   0.046   1.713  0.3371  0.2083 -0.3616
  356W        W 4407   2.503   8.401   1.446  0.0351  0.1353  0.3761
  357W        W 4408   6.919   0.636   0.599  0.3007 -0.0303 -0.3134
  358W        W 4409   2.658   0.352   6.301  0.0994  0.1372  0.1181
  359W        W 4410   3.763   0.174   8.712  0.0163  0.1428 -0.0242
  360W        W 4411   3.435   2.114   0.799 -0.0403 -0.4416 -0.1334
  361W        W 4412   0.117   0.765  13.675  0.1567 -0.0085 -0.0251
  362W        W 4413   4.879   4.056   1.423 -0.0031 -0.1873  0.0714
  363W        W 4414   5.748   3.266   1.424 -0.1053 -0.2200  0.1160
  364W        W 4415   0.816   8.543   2.236 -0.1679 -0.1839 -0.0545
  365W        W 4416   2.771   9.224   4.174 -0.2471 -0.1142  0.0500
  366W        W 4417   1.923   8.890   1.763  0.0169 -0.0008  0.2942
  367W        W 4418   0.166   1.976   1.336 -0.2727 -0.0795  0.1328
  368W        W 4419   6.376   0.520   2.055 -0.1400  0.1026 -0.0141
  369W        W 4420   8.664   1.925   0.084 -0.2472  0.2410 -0.1836
  370W        W 4421   4.211   6.370   3.299  0.0099 -0.0966  0.1533
  371W        W 4422   7.150   2.444   2.106  0.2668  0.0941  0.0287
  372W        W 4423   3.168   1.647  10.250  0.2400 -0.2132  0.2219
  373W        W 4424   0.737   7.775  11.404 -0.0266 -0.0712  0.3064
  374W        W 4425   3.562   2.785  12.689 -0.1253 -0.2478 -0.0124
  375W        W 4426   1.384   0.080   3.355 -0.1147 -0.1791 -0.0790
  376W        W 4427   6.987   7.219   0.620 -0.0053  0.4119 -0.0280
  377W        W 4428   9.173   4.925   2.122  0.4461 -0.0889  0.1129
  378W        W 4429   9.810   8.393   0.301 -0.0003 -0.4571 -0.0788
  379W        W 4430   4.047   8.909   3.638 -0.1981 -0.1212 -0.3172
  380W        W 4431   9.778   9.738   4.014 -0.1191  0.0909 -0.4167
  381W        W 4432   0.521  10.015   5.646  0.1596 -0.1188  0.0810
  382W        W 4433   5.324   7.665   3.107 -0.0033 -0.0976 -0.1783
  383W        W 4434   2.962   8.684  10.326  0.0184  0.0108 -0.0611
  384W        W 4435   6.742   3.461   8.662  0.4779 -0.3035 -0.2038
  385W        W 4436   7.476   8.782   1.886  0.0913  0.3723 -0.3977
  386W        W 4437   6.866   9.389   1.639  0.0722 -0.3333  0.1054
  387W        W 4438   2.310   3.011   3.094  0.2363 -0.1192 -0.0814
  388W        W 4439   0.289   3.531  12.281 -0.3134 -0.2109 -0.1007
  389W        W 4440   4.921   6.715  13.495 -0.3146  0.0587 -0.0290
  390W        W 4441   2.341   5.768   9.858  0.2201 -0.0021  0.1642
  391W        W 4442   0.714   0.993   4.128  0.3353  0.3636  0.3326
  392W        W 4443  10.142   1.541   2.079 -0.0227 -0.1360 -0.0527
  393W        W 4444   9.287   3.093  13.023 -0.0379 -0.0880 -0.0565
  394W        W 4445   5.685   3.632   3.830 -0.2616 -0.2037 -0.0059
  395W        W 4446   5.417   1.893   1.550  0.0588 -0.0167 -0.2521
  396W        W 4447   5.856   6.880   1.856 -0.2261  0.3838  0.0094
  397W        W 4448   7.162   3.893   4.628  0.1734  0.1712 -0.0912
  398W        W 4449   6.529   5.929  13.078 -0.1388  0.1026 -0.3569
  399W        W 4450   7.081   3.231   2.340  0.1295  0.3205  0.1588
  400W        W 4451   3.714   1.410   9.586  0.0373  0.3035 -0.0855
  401W        W 4452   4.828   9.294  12.779 -0.0759  0.0282  0.3303
  402W        W 4453   2.892   0.724   1.153 -0.0371  0.0794 -0.3378
  403W        W 4454   9.475   1.488   4.064  0.3413  0.0201  0.0000
  404W        W 4455   6.466   0.604   1.098  0.0442  0.1517 -0.0365
  405W        W 4456   2.558   0.331   1.786  0.2547  0.2376 -0.0334
  406W        W 4457   6.200   7.603   3.536 -0.0969  0.1221  0.0306
  407W        W 4458   1.024   9.392   4.574 -0.1914 -0.1029 -0.4189
  408W        W 4459   6.097   9.685   3.366  0.0592 -0.0959 -0.0534
  409W        W 4460   2.461   7.509   2.242  0.0990 -0.2769  0.1069
  410W        W 4461   2.605   4.149  12.094 -0.1751  0.1344  0.1287
  411W        W 4462   2.700   2.685   3.928 -0.1127 -0.2450 -0.2148
  412W        W 4463   2.780   5.729   3.754  0.0989  0.1271  0.0847
  413W        W 4464   1.779   9.650  11.285  0.0175  0.1492  0.0526
  414W        W 4465   2.178   2.820   0.784 -0.4155 -0.2511  0.1730
  415W        W 4466   0.354   4.004   2.284 -0.1408  0.1961 -0.0549
  416W        W 4467   2.230   4.780   2.942 -0.2541 -0.0781 -0.0372
  417W        W 4468   2.078   9.085   0.154  0.1069  0.0123  0.1190
  418W        W 4469   3.503   3.788   5.073  0.1113 -0.0812  0.1259
  419W        W 4470   7.162   8.169   3.002 -0.1673 -0.1861  0.0142
  420W        W 4471   1.434   8.847  13.205 -0.0387  0.0024  0.1353
  421W        W 4472   2.028   7.286   2.384 -0.2548 -0.0416 -0.1586
  422W        W 4473   9.771   8.485  10.934  0.0541 -0.1782  0.0521
  423W        W 4474   2.124   6.884  12.428 -0.2236  0.1492 -0.0966
  424W        W 4475   8.929   7.297  12.343  0.1606 -0.2583  0.1226
  425W        W 4476   7.875   5.301   3.319 -0.2791 -0.1982 -0.4839
  426W        W 4477   5.207   9.162   0.193 -0.0636 -0.3514  0.1136
  427W        W 4478  10.139   5.890   1.290  0.0808  0.1876  0.0046
  428W        W 4479   0.697   5.954  14.086 -0.0180  0.5591  0.1075
  429W        W 4480   5.279   0.615  13.246  0.0686 -0.0811 -0.0243
  430W        W 4481   3.699   4.969   4.283  0.0819  0.2754 -0.0095
  431W        W 4482   2.814   7.282   0.864  0.2717 -0.1443  0.2738
  432W        W 4483   6.440   9.766  12.550 -0.0789  0.0138  0.1946
  433W        W 4484   0.448   7.221   4.405 -0.6485  0.0781  0.1511
  434W        W 4485   2.381   9.779  10.507 -0.0149  0.1785  0.2597
  435W        W 4486   0.910   8.184  13.946  0.2743  0.0657  0.2392
  436W        W 4487   3.445   2.226   2.962  0.3661  0.0696 -0.2584
  437W        W 4488   0.403   3.018  10.549 -0.1804 -0.2120 -0.0366
  438W        W 4489   5.654   2.061  12.011  0.3319 -0.0462  0.2478
  439W        W 4490   3.594   8.937  12.335 -0.1026 -0.2237 -0.2554
  440W        W 4491   8.898   1.846   0.528  0.0022  0.0042 -0.2292
  441W        W 4492   7.060   5.886   3.101  0.0442 -0.1876  0.1276
  442W        W 4493   3.798   1.567  11.357 -0.0921  0.1406  0.0267
  443W        W 4494   5.703   1.565   1.382 -0.1973 -0.0574  0.0652
  444W        W 4495   2.932   5.299  13.354 -0.3202  0.0311  0.3402
  445W        W 4496   4.897   4.414  11.595  0.2723 -0.0277  0.2517
  446W        W 4497   0.092   4.730  10.828 -0.0610 -0.2641  0.2966
  447W        W 4498   0.601   7.503   3.061  0.0219  0.1411  0.1259
  448W        W 4499   5.292   9.108   4.224 -0.2352  0.3858 -0.0989
  449W        W 4500   1.162   3.928   1.080  0.1354 -0.0414 -0.1257
  450W        W 4501   1.363   7.260  12.573 -0.0226  0.3241  0.2340
  451W        W 4502   9.571   0.288  10.023 -0.0932  0.1690  0.1036
  452W        W 4503   7.966   6.608   9.694  0.0788 -0.1505 -0.1740
  453W        W 4504   0.786   9.740  10.137 -0.0699  0.0112  0.0683
  454W        W 4505   5.610   1.569   2.588 -0.0925 -0.2604  0.2277
  455W        W 4506   6.582   1.974   5.397 -0.1360 -0.0941 -0.1427
  456W        W 4507   0.463   6.412   2.150  0.0512 -0.1920 -0.3223
  457W        W 4508   5.006   1.252   2.049  0.3292  0.1342  0.0404
  458W        W 4509   3.967   4.474   1.432  0.0723  0.2222  0.2921
  459W        W 4510   9.244   3.182   5.026 -0.1621  0.0634  0.0215
  460W        W 4511   6.157   4.048   4.499  0.2361 -0.1121  0.2084
  461W        W 4512   5.824   6.220   2.315 -0.1192 -0.2666 -0.0511
  462W        W 4513   7.929   2.895   3.959  0.1193  0.0397 -0.0859
  463W        W 4514   1.113   9.510  12.251  0.1844  0.0720 -0.0860
  464W        W 4515   2.340   6.761   1.332  0.1737 -0.2217  0.1214
  465W        W 4516   8.301   0.969   5.177 -0.1711  0.3309  0.2480
  466W        W 4517   1.015   1.334   4.684  0.0500  0.4452  0.1120
  467W        W 4518   7.618   6.827   0.989  0.1110  0.1217 -0.2179
  468W        W 4519   7.552   8.444   2.281  0.0544 -0.1404  0.2796
  469W        W 4520   4.831   4.926   2.113 -0.0280  0.1173  0.0262
  470W        W 4521   9.390   6.287  10.864  0.0196  0.0898 -0.3409
  471W        W 4522   3.131   1.072   1.749  0.0306 -0.1529 -0.1372
  472W        W 4523   2.578   0.291   9.494 -0.0105 -0.3683  0.6256
  473W        W 4524   9.566   4.670  13.389 -0.4105  0.2885 -0.0196
  474W        W 4525   8.454   7.630  13.148  0.1371 -0.2140  0.2574
  475W        W 4526   4.107   8.114  13.531  0.1700  0.0140  0.0173
  476W        W 4527   7.726   2.428   1.833 -0.2007 -0.1302  0.1187
  477W        W 4528   5.794   9.372   0.533 -0.3057 -0.1771  0.3229
  478W        W 4529   0.233   6.876   3.687 -0.1151 -0.1877  0.2240
  479W        W 4530   2.725   6.743   4.380 -0.1420 -0.0370  0.2885
  480W        W 4531   2.437   7.236   1.214 -0.1474 -0.0197 -0.0401
  481W        W 4532   2.892   9.257   9.663  0.1799  0.1175  0.2109
  482W        W 4533   6.499   0.494   2.976 -0.1996 -0.1156  0.1808
  483W        W 4534   5.322   3.427   0.459 -0.0478  0.0596 -0.3950
  484W        W 4535   0.481   4.722  11.177  0.1695 -0.2191 -0.2758
  485W        W 4536   3.672   0.138   2.631  0.1714  0.0746  0.5547
  486W        W 4537   1.197   7.427   0.104  0.1691 -0.1864 -0.3163
  487W        W 4538   8.771   6.808  13.228 -0.0831  0.3252  0.3259
  488W        W 4539   2.758   3.456   1.748 -0.0800 -0.1267 -0.1079
  489W        W 4540   6.616   6.756   0.417  0.2336 -0.1508  0.1443
  490W        W 4541   8.487   9.436  13.399  0.2211 -0.0083  0.0135
  491W        W 4542   8.663   5.840  10.982  0.3157  0.1851  0.2348
  492W        W 4543   5.195   9.361   3.059 -0.0538  0.1078  0.0679
  493W        W 4544   8.445   9.427  11.324  0.0562 -0.3057 -0.0025
  494W        W 4545   5.285   5.180  10.854 -0.1766  0.1128 -0.3082
  495W        W 4546   3.359   4.172   2.065 -0.2917 -0.2348  0.1669
  496W        W 4547   0.112   6.382   3.780  0.3936 -0.2089 -0.0729
  497W        W 4548   4.825   7.270   9.540 -0.1900  0.1573  0.3270
  498W        W 4549   6.913  10.073   2.292  0.2041 -0.0404  0.1040
  499W        W 4550   6.880   3.748  11.337  0.1450  0.0422 -0.1512
  500W        W 4551   9.914   0.773  12.539  0.1298  0.1588 -0.1894
  501W        W 4552   1.639   9.514  12.259 -0.0060  0.1238  0.1248
  502W        W 4553   2.806   6.852   2.478 -0.2253 -0.1086 -0.0526
  503W        W 4554   3.818   4.344   1.925 -0.1335  0.0765  0.1920
  504W        W 4555   2.620   0.971   2.979 -0.0319  0.0973 -0.0301
  505W        W 4556   2.699   5.030   2.461  0.0160 -0.1238  0.3315
  506W        W 4557   0.669   2.514  10.787  0.2484  0.1059 -0.0121
  507W        W 4558   5.324   2.970   0.315 -0.0209  0.1831 -0.0246
  508W        W 4559   5.246   8.696   0.677  0.0222  0.1836  0.0628
  509W        W 4560   3.472   1.504   4.710  0.0841 -0.1479 -0.0804
  510W        W 4561   6.209   4.973   5.205  0.3409 -0.1644  0.0906
  511W        W 4562   5.607   4.567  12.666  0.1309  0.0045 -0.0940
  512W        W 4563   7.788   0.252   3.345 -0.0027  0.0645 -0.0857
  513W        W 4564   1.508   6.482   0.206  0.0378  0.0199 -0.1975
  514W        W 4565   0.222   9.179   2.491  0.1787 -0.1100 -0.3356
  515W        W 4566   3.659   3.936   4.593 -0.2871  0.0800  0.0611
  516W        W 4567   8.464   2.253   4.506  0.0281  0.2661 -0.1568
  517W        W 4568   1.321   4.712   1.574 -0.6173  0.2942  0.1132
  518W        W 4569   6.039   9.059  13.776 -0.1080  0.1882  0.1601
  519W        W 4570   8.093   1.587   4.837 -0.0242 -0.1645 -0.0973
  520W        W 4571   6.084   8.836  10.876  0.2324  0.0416  0.1083
  521W        W 4572   1.412   7.128   1.442 -0.0539  0.0266  0.2142
  522W        W 4573   4.359   7.206  13.133  0.0086 -0.0343 -0.1284
  523W        W 4574   8.900   5.791  13.056  0.2534 -0.0864 -0.1393
  524W        W 4575   2.054   2.738   3.852 -0.1514  0.1769  0.0290
  525W        W 4576   8.933   3.164  13.617 -0.1022  0.1240  0.0501
  526W        W 4577   9.232   0.897  12.292  0.1205  0.0110  0.2775
  527W        W 4578   1.619   4.311   1.672  0.3796 -0.1116 -0.2232
  528W        W 4579   2.508   0.081  10.259  0.0843  0.1557  0.2989
  529W        W 4580   3.314   7.625   0.559 -0.0351  0.2698 -0.1026
  530W        W 4581   3.540   5.347   9.755  0.0315 -0.2210 -0.0005
  531W        W 4582   3.065   1.306   5.053 -0.1780 -0.0230  0.0850
  532W        W 4583   0.062   3.243  14.070  0.1194  0.0560  0.0633
  533W        W 4584   0.371   6.579  10.061  0.1711  0.1464  0.1399
  534W        W 4585   0.816   8.444  11.647 -0.1370  0.0218  0.0661
  535W        W 4586   8.566   6.464   2.665 -0.0757 -0.2941 -0.0590
  536W        W 4587   0.806   3.042   5.220  0.0706  0.0262 -0.4454
  537W        W 4588   5.693   0.862  13.136  0.0417  0.3281  0.2240
  538W        W 4589   0.432   0.824   4.968 -0.1432  0.0642  0.1440
  539W        W 4590   2.622   9.559   1.934  0.0811  0.1045  0.1059
  540W        W 4591   4.442   9.392  13.764  0.1571 -0.1503 -0.1989
  541W        W 4592   7.343   0.222  11.095 -0.0920 -0.2267 -0.2329
  542W        W 4593   3.590   1.265  10.968  0.1591 -0.0277  0.0754
  543W        W 4594   1.429   8.056   1.517  0.1109 -0.3124  0.3410
  544W        W 4595   2.819   6.468   0.641  0.0546  0.3369 -0.1792
  545W        W 4596  10.089   9.935  13.551  0.1789 -0.0968  0.1282
  546W        W 4597   2.852   5.293   4.835 -0.0735  0.3001  0.2090
  547W        W 4598   5.238   6.180  12.776 -0.0119 -0.0172  0.3437
  548W        W 4599   3.238   9.837  13.766  0.1199 -0.0436  0.1768
  549W        W 4600   7.497   0.321   0.969 -0.1433 -0.3761  0.5657
  550W        W 4601   7.109   2.049  11.982  0.0686 -0.1038 -0.2909
  551W        W 4602   1.210   1.225  12.282  0.1319  0.1228  0.0237
  552W        W 4603   6.080   5.406  13.146 -0.1525  0.1195  0.2656
  553W        W 4604   3.641   4.207   4.192  0.0570  0.1687 -0.0050
  554W        W 4605   4.633   1.458  10.666  0.1504 -0.3220  0.1559
  555W        W 4606   9.749   7.714   1.813  0.1635 -0.1585  0.1289
  556W        W 4607   9.504   9.755   3.571 -0.1622 -0.4118 -0.2728
  557W        W 4608   6.994   0.734   4.953  0.2627 -0.0384 -0.1646
  558W        W 4609   8.716   1.122   2.974  0.0520 -0.4152  0.5181
  559W        W 4610   3.042   2.212   9.452  0.2006 -0.1140  0.0914
  560W        W 4611   5.985   7.736  11.773  0.3341  0.1218 -0.0665
  561W        W 4612   9.544   4.718  10.123  0.0727 -0.2244  0.1023
  562W        W 4613   5.476   9.756   1.131  0.1693  0.1970 -0.1142
  563W        W 4614   2.040   8.052   9.556 -0.1893 -0.1065 -0.2389
  564W        W 4615   3.698   3.821  11.495 -0.1229  0.3906  0.0825
  565W        W 4616   4.654   7.481  12.112  0.2920 -0.0560 -0.1573
  566W        W 4617   9.654   3.153   9.244 -0.0404  0.1302  0.0664
  567W        W 4618   6.935   3.020  12.524 -0.3840  0.0274  0.2797
  568W        W 4619   2.868   9.508  12.878 -0.1241  0.2037 -0.1103
  569W        W 4620   1.720   1.777   0.225  0.1735 -0.0956  0.2928
  570W        W 4621   1.768   4.358   3.594 -0.2829  0.0186  0.1773
  571W        W 4622   9.480   5.664  12.019  0.3162  0.1191 -0.1122
  572W        W 4623   4.356   7.910   5.284  0.3306  0.2541 -0.0251
  573W        W 4624   7.600   7.011   1.805 -0.1838  0.2930 -0.0000
  574W        W 4625   1.526   3.703  10.612  0.1542 -0.2185  0.0358
  575W        W 4626   0.548   3.545   9.810  0.0131 -0.0207  0.0448
  576W        W 4627   7.190   9.075   2.895 -0.2186 -0.1646 -0.0716
  577W        W 4628   2.862   4.690  10.492 -0.2384 -0.2263  0.2584
  578W        W 4629   5.729   3.885   4.803  0.0431 -0.1216  0.5814
  579W        W 4630   6.245   9.027  11.655 -0.0923  0.1023 -0.2193
  580W        W 4631   7.976   9.227   3.354  0.2244  0.0014  0.1533
  581W        W 4632   8.782   2.908   4.964  0.0092  0.0769 -0.3249
  582W        W 4633   3.273   5.956  11.618 -0.1069 -0.0256  0.0645
  583W        W 4634   3.399   4.794   1.422  0.0730 -0.3179 -0.3749
  584W        W 4635   7.081   5.242   9.260 -0.2142  0.1071 -0.3820
  585W        W 4636   5.199   0.094   1.125  0.2630  0.0852  0.2504
  586W        W 4637   1.406   1.130  13.713 -0.2860  0.3473  0.1213
  587W        W 4638   3.834   3.858  12.379 -0.1098 -0.2137  0.1057
  588W        W 4639   1.420   6.848  12.256 -0.2622  0.2089  0.4656
  589W        W 4640   4.620   4.813   0.342  0.0936  0.1803  0.2586
  590W        W 4641   8.577   0.390   1.041  0.1735  0.1167  0.1016
  591W        W 4642   0.255   3.926   1.654  0.3320  0.2589 -0.2015
  592W        W 4643   7.596   2.447  11.058 -0.2291  0.1154  0.0312
  593W        W 4644   7.125   2.163  13.254 -0.0311  0.1319 -0.1151
  594W        W 4645   1.610   6.764  13.318 -0.3759  0.1928  0.0818
  595W        W 4646   3.186   5.090   0.492 -0.0686  0.2358  0.0884
  596W        W 4647   2.754   9.485  12.375  0.1963 -0.0941 -0.0451
  597W        W 4648   5.699   4.911   9.522 -0.0789 -0.0061  0.0523
  598W        W 4649   7.736   4.288   1.358 -0.4488  0.1346  0.1203
  599W        W 4650   4.530   3.931  11.490 -0.1591  0.3492 -0.1139
  600W        W 4651   7.528   2.183  13.907 -0.0162 -0.1801  0.0163
  601W        W 4652   5.876   8.603  11.606  0.3251  0.1864  0.4659
  602W        W 4653   2.031   7.795  11.933 -0.0738 -0.0653  0.0152
  603W        W 4654   0.930   4.127   2.328 -0.1093  0.2764  0.2514
  604W        W 4655   8.363  10.001   1.207 -0.3303 -0.0613  0.0514
  605W        W 4656   0.941  10.101   0.364 -0.2103  0.1862  0.4297
  606W        W 4657   7.185   1.796  13.796  0.2572 -0.1814 -0.1721
  607W        W 4658   0.418   2.013  13.645  0.0729  0.0524  0.3577
  608W        W 4659   7.734   6.923  13.313  0.1865 -0.1064  0.4215
  609W        W 4660   4.554   6.359   1.495 -0.1166  0.1132 -0.0215
  610W        W 4661   0.535   5.968   4.311 -0.0503  0.0978 -0.1456
  611W        W 4662   6.761   1.419  11.324  0.1027 -0.1891 -0.1322
  612W        W 4663   4.707   8.363   4.116  0.1442  0.3079 -0.3109
  613W        W 4664   5.704   5.512   1.671 -0.0686  0.0896  0.1582
  614W        W 4665  10.122   8.096  10.899  0.1026 -0.0734  0.1139
  615W        W 4666   5.999   9.663   2.075 -0.0395  0.0740 -0.2030
  616W        W 4667   9.840   6.222  12.952 -0.1545 -0.1723  0.2770
  617W        W 4668   2.842   6.111   3.502  0.0873 -0.0300  0.1436
  618W        W 4669   7.627   1.918   2.598 -0.3092  0.1721 -0.0222
  619W        W 4670   4.079   3.852  13.295  0.1269 -0.0124 -0.2193
  620W        W 4671   2.242   8.265  10.498 -0.2237  0.0418  0.1478
  621W        W 4672   1.978   7.571   9.753  0.1494  0.3856 -0.3787
  622W        W 4673   2.316   1.388  13.812 -0.0627 -0.0305 -0.2306
  623W        W 4674   9.827   7.293   3.547 -0.1909  0.2754 -0.3631
  624W        W 4675   9.543   8.546   1.979 -0.1231 -0.3533 -0.0123
  625W        W 4676   2.763   0.323  10.916 -0.3717  0.0571 -0.2570
  626W        W 4677   4.197   7.454  11.863  0.2253  0.1041  0.0493
  627W        W 4678   8.542   3.117  11.316  0.1135  0.0423 -0.2869
  628W        W 4679   5.306  10.117   1.588 -0.1608 -0.0982  0.0482
  629W        W 4680   1.922   4.916  10.197 -0.2180 -0.1296 -0.2603
  630W        W 4681   8.062   6.013  13.514 -0.0663  0.0583 -0.1944
  631W        W 4682   6.801   1.578   4.024 -0.0317  0.0413 -0.1781
  632W        W 4683   2.043   7.155  10.090  0.1254 -0.1783 -0.0685
  633W        W 4684   4.338   5.294   3.024  0.0437 -0.0700  0.3281
  634W        W 4685   9.142   8.427   2.273 -0.1114  0.1213 -0.2949
  635W        W 4686   3.502   4.557   0.097  0.2535  0.1490 -0.0524
  636W        W 4687   7.278   0.272   3.431  0.1529  0.0060 -0.0176
  637W        W 4688   2.768   0.751   3.828 -0.1600  0.0148 -0.1664
  638W        W 4689   1.542   8.998   2.091 -0.0125  0.0009 -0.1886
  639W        W 4690   4.745   1.807  13.165 -0.0505 -0.0631 -0.0680
  640W        W 4691   0.108   3.124   1.962 -0.2508  0.2544  0.0075
  641W        W 4692   1.497   0.186   2.805 -0.0289  0.0266 -0.0679
  642W        W 4693   5.912   0.434  13.316 -0.1402  0.3172 -0.0400
  643W        W 4694   7.551   3.186  11.112  0.0216 -0.2173  0.1344
  644W        W 4695   0.405   8.709  13.077  0.1608 -0.3743  0.1136
  645W        W 4696   2.873   3.799   5.834 -0.2578 -0.2869 -0.0184
  646W        W 4697   9.269   2.694   2.930 -0.2935  0.1754 -0.0534
  647W        W 4698   8.812   8.192   0.407 -0.1203  0.3454 -0.0299
  648W        W 4699   3.971   0.213   0.044  0.0416 -0.0856 -0.3352
  649W        W 4700   9.215   3.712   3.076 -0.0097  0.3323  0.2681
  650W        W 4701   3.363   9.127   0.645  0.4291  0.1974 -0.0793
  651W        W 4702   5.435   9.120   2.153  0.0057  0.0155  0.2310
  652W        W 4703   0.893   8.944  13.104  0.1074  0.1309 -0.0911
  653W        W 4704   3.613   3.693   3.566 -0.0273  0.0891 -0.0613
  654W        W 4705   8.923   0.737   4.197  0.0955 -0.1529  0.0454
  655W        W 4706   8.725   8.904   1.484  0.2945  0.0069 -0.0846
  656W        W 4707   2.082   2.127   0.203  0.1765 -0.1929 -0.0817
  657W        W 4708   7.724   8.053  12.424 -0.1542 -0.0883  0.2491
  658W        W 4709   8.556   0.651  12.879  0.3701  0.3723 -0.0635
  659W        W 4710   2.939   4.932  13.682  0.1690  0.0080  0.2505
  660W        W 4711   2.415   6.364  12.487 -0.0793 -0.1213 -0.2917
  661W        W 4712   0.961  10.137   4.127 -0.0966  0.3121  0.1346
  662W        W 4713   5.356   9.245  12.852 -0.0583  0.1141  0.0015
  663W        W 4714   4.821   3.248  13.301  0.2263 -0.2743 -0.4151
  664W        W 4715   3.806   3.961   5.450  0.0367  0.0243 -0.0453
  665W        W 4716   1.341   9.284   1.697  0.0301  0.2795  0.0591
  666W        W 4717   4.936   6.408   0.270  0.1921  0.0430  0.2792
  667W        W 4718   1.749   5.626  12.101 -0.0221 -0.5330 -0.0334
  668W        W 4719   1.896   2.820   2.781  0.1715 -0.0746  0.1375
  669W        W 4720   3.650   4.773   2.606 -0.3001  0.0894 -0.2836
  670W        W 4721   8.329   9.952  12.781 -0.1516 -0.4056 -0.0936
  671W        W 4722   2.305   5.961   3.614 -0.1016 -0.2743 -0.2458
  672W        W 4723   1.200   4.016   5.458  0.1736  0.0617 -0.1114
  673W        W 4724   5.396   5.151   0.654 -0.3154  0.1964 -0.4589
  674W        W 4725   2.042   7.597  10.402 -0.3311 -0.1072  0.0049
  675W        W 4726   2.364   3.236  12.167  0.1679  0.0454 -0.0847
  676W        W 4727   7.134   6.674   1.860 -0.1823 -0.5754  0.1583
  677W        W 4728   1.261   7.164  10.913  0.3579 -0.2928 -0.1331
  678W        W 4729   2.997   0.225  13.880  0.0376 -0.0385  0.7185
  679W        W 4730   5.890   4.479   4.195 -0.1496  0.0575  0.0009
  680W        W 4731   1.783   6.519  10.666  0.0325 -0.0057 -0.1491
  681W        W 4732   5.337   3.167  12.350  0.1143 -0.1225  0.2122
  682W        W 4733   6.490   1.503   9.521 -0.0613 -0.0410 -0.0789
  683W        W 4734   6.934   4.933  10.037 -0.1408  0.0854 -0.0583
  684W        W 4735   1.445   4.704  10.193 -0.0722  0.1375 -0.0325
  685W        W 4736   4.167   9.030   9.858 -0.1330 -0.0570 -0.1395
  686W        W 4737   8.284   2.581  10.461  0.0771  0.1893 -0.0968
  687W        W 4738   2.093   9.081   9.981 -0.0376 -0.0110 -0.0574
  688W        W 4739   2.967   6.844  12.112  0.0455  0.0100 -0.1525
  689W        W 4740   2.866   8.578  13.071 -0.0580 -0.3278 -0.1173
  690W        W 4741   2.321   3.999  11.110 -0.1716  0.0230  0.2678
  691W        W 4742   4.113   7.446  12.341 -0.0741 -0.4799 -0.2099
  692W        W 4743   0.793   2.019  11.911  0.2550  0.0963 -0.1415
  693W        W 4744   6.875   1.981   0.605  0.0640 -0.2283  0.0472
  694W        W 4745   2.141   7.350  13.180 -0.3607 -0.1068 -0.0507
  695W        W 4746   0.397   4.172   8.574  0.0754 -0.2690 -0.0313
  696W        W 4747   8.326   6.712   1.150  0.0045  0.1212  0.0635
  697W        W 4748   1.167   7.642  10.143 -0.3342 -0.1898 -0.3770
  698W        W 4749   6.274   8.460   0.111  0.0451  0.3522  0.0319
  699W        W 4750   2.111   7.364  12.223 -0.0711  0.1096  0.1112
  700W        W 4751   8.877   3.967   4.309  0.1170 -0.0024  0.0082
  701W        W 4752   3.911   8.090  12.178  0.2019  0.0408 -0.0883
  702W        W 4753   7.524   1.888  13.193 -0.0674  0.1168  0.3029
  703W        W 4754   5.829   9.397   1.135 -0.1264 -0.0796  0.1075
  704W        W 4755   6.187   2.802   1.645  0.1189  0.0644 -0.1628
  705W        W 4756   0.582   3.137   1.138 -0.1150  0.0812  0.3995
  706W        W 4757   0.526   0.006   4.345 -0.2473  0.3093 -0.0301
  707W        W 4758   0.147   8.536  11.121  0.2075  0.0596 -0.0636
  708W        W 4759   3.017   0.486   5.035  0.0454 -0.0701 -0.2520
  709W        W 4760   6.384   1.809   2.011  0.0993 -0.0699 -0.2477
  710W        W 4761   1.864   7.683   4.339  0.0849  0.0802  0.2164
  711W        W 4762   0.655   5.062  12.691  0.0474  0.0379  0.0694
  712W        W 4763   2.157   2.321  13.820 -0.2412 -0.0419 -0.1211
  713W        W 4764   0.700   0.674  11.468 -0.0651  0.0203 -0.1377
  714W        W 4765   2.491   9.528   9.860 -0.3039 -0.2731 -0.3047
  715W        W 4766   6.439   3.588  13.850  0.0695  0.1635 -0.1654
  716W        W 4767   2.661   5.399   2.786  0.0321 -0.2074  0.3794
  717W        W 4768   4.157   6.447   4.892  0.3010 -0.0867  0.2673
  718W        W 4769   6.760   2.625  13.250 -0.0260 -0.0570  0.1105
  719W        W 4770   9.895   3.548   9.117  0.1944 -0.1394  0.0723
  720W        W 4771   6.018   0.851   0.797 -0.1102 -0.2452 -0.3615
  721W        W 4772   7.426   5.612   1.557  0.0071  0.1239  0.0577
  722W        W 4773   4.318   6.592   3.828 -0.1043 -0.0935  0.0564
  723W        W 4774   4.330   4.199   3.348  0.1654  0.3283 -0.2864
  724W        W 4775   0.882   6.012   3.061  0.0259 -0.0319  0.0785
  725W        W 4776   8.054   8.371   2.100  0.1732  0.2727 -0.1296
  726W        W 4777   1.057   8.451   4.996 -0.0119 -0.0958  0.2657
  727W        W 4778   8.838   5.748   2.401 -0.1264 -0.3723  0.1293
  728W        W 4779   3.133   0.933   4.179 -0.2040 -0.1476 -0.1559
  729W        W 4780   0.853   4.273  11.141  0.1737 -0.0917 -0.2324
  730W        W 4781   2.512   9.351  10.295  0.2140 -0.1066  0.2538
  731W        W 4782   6.969   4.357   5.052 -0.2442 -0.1322  0.2323
  732W        W 4783   7.608  10.118   3.701 -0.0681  0.0301  0.0423
  733W        W 4784   6.978   9.844   1.763 -0.0108 -0.0097 -0.0926
  734W        W 4785   5.551   1.905   8.640 -0.0754  0.2650  0.0177
  735W        W 4786   9.766   5.759  13.204  0.2943 -0.3000 -0.4230
  736W        W 4787   9.102   4.482  12.713 -0.1428  0.3402  0.3303
  737W        W 4788   2.832   0.588   2.681 -0.0704 -0.2306  0.1416
  738W        W 4789   5.511   9.051   3.274 -0.0454 -0.1111 -0.0101
  739W        W 4790  10.112   3.047   4.445  0.1751 -0.1861 -0.2057
  740W        W 4791   3.381   4.567   4.388  0.2985 -0.1814 -0.3358
  741W        W 4792   9.547   8.320  11.595 -0.2919  0.2370  0.4004
  742W        W 4793   6.175   3.073   4.790  0.0168 -0.1153  0.3408
  743W        W 4794   0.571   4.911   8.454 -0.2880  0.2868  0.3690
  744W        W 4795   8.824   1.553   4.735 -0.0150  0.2056 -0.0626
  745W        W 4796   3.943   1.421   5.009 -0.1204  0.0446 -0.0267
  746W        W 4797   6.376  10.031  10.480  0.0281  0.2627  0.2880
  747W        W 4798   2.693  10.089   5.945  0.1107  0.3032  0.1203
  748W        W 4799   5.789   4.107   1.913  0.1568 -0.3877  0.0299
  749W        W 4800   2.667   5.833  12.571  0.0655  0.1260 -0.2544
  750W        W 4801   0.969   4.681   3.682  0.0064 -0.1377 -0.3569
  751W        W 4802   3.300   6.773   2.587 -0.2094 -0.2502 -0.3001
  752W        W 4803   8.726   3.815  10.644  0.2850  0.0103 -0.1088
  753W        W 4804   7.340   4.185   9.016  0.0964  0.3156 -0.1366
  754W        W 4805   3.847   5.146   3.761 -0.1203 -0.0995  0.0015
  755W        W 4806   8.425   0.938  11.733 -0.0692 -0.1316  0.0988
  756W        W 4807   3.754   9.778   9.632 -0.1160 -0.0888 -0.1528
  757W        W 4808   2.455   0.009  12.623 -0.1028 -0.0932  0.0295
  758W        W 4809   8.734   0.096   1.464  0.2601 -0.0752  0.2779
  759W        W 4810   0.889   8.446   1.228 -0.0027  0.2804 -0.0226
  760W        W 4811   5.055   1.888   9.832  0.0306  0.0217 -0.1141
  761W        W 4812   7.127   1.399   2.270  0.1164  0.0278 -0.1712
  762W        W 4813   5.459   0.275   4.478 -0.4769 -0.2692  0.1234
  763W        W 4814   8.996   2.086  11.571 -0.4681 -0.0168 -0.0577
  764W        W 4815   5.861   2.446   2.949 -0.2556 -0.0029 -0.1230
  765W        W 4816   0.436   1.347   5.082  0.1846  0.1141 -0.0272
  766W        W 4817   8.854   4.917   3.423  0.1006 -0.0257 -0.3102
  767W        W 4818   6.459   2.616  12.392 -0.0631  0.1136  0.1712
  768W        W 4819   0.139   5.057   8.738 -0.4198  0.2723 -0.0187
  769W        W 4820   1.700   6.094  11.966  0.0687 -0.0761 -0.2228
  770W        W 4821   7.117   0.781  10.941  0.3383  0.1063 -0.2105
  771W        W 4822   8.989   7.852  11.645  0.1169  0.2772  0.2787
  772W        W 4823   8.692   1.261  11.452 -0.1622 -0.0396  0.0214
  773W        W 4824   6.156   7.652  12.642  0.0200  0.2368 -0.3404
  774W        W 4825   4.155   9.317  10.311 -0.1399 -0.4083  0.2435
  775W        W 4826   8.470   2.706   3.393 -0.0604 -0.0276  0.0678
  776W        W 4827   0.718   1.743  12.558  0.3050 -0.2500 -0.1529
  777W        W 4828   4.084   6.135   2.111 -0.2641  0.1832  0.1430
  778W        W 4829   6.841   9.192   2.631  0.0580 -0.2865  0.1520
  779W        W 4830   6.386   3.569   2.704 -0.1584  0.1591 -0.2328
  780W        W 4831   6.300   2.872  11.449 -0.0717  0.0722  0.1850
  781W        W 4832   7.393   4.682   8.973  0.3076  0.0216  0.0454
  782W        W 4833   2.709   3.496   2.548  0.1247  0.0237 -0.1461
  783W        W 4834   8.826   7.122   3.451  0.2679  0.2099  0.3507
  784W        W 4835   0.106   1.566  11.851  0.1535 -0.0538  0.3528
  785W        W 4836   5.453   1.365   3.628  0.0226  0.0018  0.4767
  786W        W 4837   1.442   6.799   4.212  0.3570  0.1803  0.0630
  787W        W 4838   5.844   1.639  12.523 -0.4093 -0.1554 -0.1064
  788W        W 4839   7.891   0.711   3.576  0.1378 -0.1223  0.0401
  789W        W 4840   0.193   7.474  13.050  0.1244  0.2979 -0.1216
  790W        W 4841   9.128   2.986   4.539 -0.2574 -0.1188 -0.2359
  791W        W 4842   1.047   0.945  10.234 -0.0538 -0.2721  0.4211
  792W        W 4843   3.981   8.895   4.395 -0.0258 -0.0140  0.0108
  793W        W 4844   5.739   0.653  10.628  0.1668 -0.1319  0.0834
  794W        W 4845   2.178   4.411   0.056  0.1693 -0.1112  0.2148
  795W        W 4846   8.072   4.446   2.560  0.0431  0.1441  0.0649
  796W        W 4847   4.805   6.884  13.958 -0.0903 -0.1272 -0.1601
  797W        W 4848   3.377   8.752   2.402  0.0356 -0.0463 -0.1685
  798W        W 4849   4.117   3.674   5.074  0.0793 -0.0808  0.2490
  799W        W 4850   0.865   9.620   0.546 -0.0331 -0.1935  0.0301
  800W        W 4851   1.498   3.940   3.927 -0.1965 -0.2155 -0.0990
  801W        W 4852   5.037   5.518  14.091 -0.1974 -0.2623 -0.1116
  802W        W 4853   7.020   1.005  12.895  0.1661  0.0451  0.0222
  803W        W 4854   8.752   8.599   3.412  0.0198 -0.1215 -0.1147
  804W        W 4855   6.608   0.820  10.130 -0.0891  0.0199 -0.3874
  805W        W 4856   9.314   6.808   0.011 -0.0770  0.4450  0.2939
  806W        W 4857   6.668   4.740   3.699 -0.4343  0.0509  0.1196
  807W        W 4858   6.152   4.213  12.975  0.0876 -0.1376  0.1086
  808W        W 4859  10.118   6.677   9.277 -0.1760 -0.0505  0.2199
  809W        W 4860   0.691   9.335   2.615  0.1441  0.0399  0.0960
  810W        W 4861   3.426   3.389  10.648 -0.0414  0.1473  0.1600
  811W        W 4862   4.129   4.794   0.506 -0.2292  0.2812 -0.0015
  812W        W 4863   2.830   9.759  10.184  0.5053  0.1694 -0.1144
  813W        W 4864   4.938   8.972   2.628  0.0248  0.0457 -0.2830
  814W        W 4865   7.893   1.482  12.083  0.0633  0.2307  0.5545
  815W        W 4866   5.808   2.388   2.438  0.2160  0.0037 -0.4245
  816W        W 4867   3.641   9.601  12.124  0.0610  0.0940 -0.1768
  817W        W 4868   7.510   0.869   4.752 -0.0568  0.0556  0.0577
  818W        W 4869  10.076   5.592  11.365 -0.5013 -0.2065  0.3355
  819W        W 4870   1.198   5.252   1.423 -0.0008 -0.2754 -0.0455
  820W        W 4871   6.261   3.118  12.701  0.1612  0.0398 -0.0931
  821W        W 4872   1.174   8.904   0.880 -0.0467 -0.1650 -0.1273
  822W        W 4873   9.899   3.329   3.319 -0.0139 -0.3120  0.0221
  823W        W 4874   3.337   0.603  13.686 -0.1535  0.1267 -0.0557
  824W        W 4875   0.338   8.165   4.720 -0.1865  0.5447  0.1953
  825W        W 4876   6.447   2.345  12.834  0.0841  0.1685  0.2285
  826W        W 4877   8.721   3.764   2.467 -0.1959  0.1350 -0.4755
  827W        W 4878   6.352   8.292  13.164 -0.0583  0.2295 -0.2633
  828W        W 4879   4.759   0.122  12.960 -0.0449  0.3818  0.3609
  829W        W 4880   4.654   1.612   0.899 -0.0512 -0.0347  0.4166
  830W        W 4881   1.519   8.962   5.443 -0.2254 -0.1879  0.0145
  831W        W 4882   1.179   9.702   1.859  0.0262  0.1101 -0.1694
  832W        W 4883   5.124   9.656  10.682 -0.0073  0.2127  0.1873
  833W        W 4884   7.335   6.155   1.712  0.1045  0.1726 -0.0353
  834W        W 4885   2.082   7.215   5.241  0.2144 -0.2267  0.0248
  835W        W 4886   8.974   2.588  13.765 -0.1680  0.1236  0.0375
  836W        W 4887   3.009   9.886  11.721  0.2651 -0.0034  0.1947
  837W        W 4888   8.473   7.718   0.011 -0.0368  0.2178 -0.4555
  838W        W 4889   4.416   1.902   2.236 -0.0861  0.1475 -0.2201
  839W        W 4890   9.475   2.764   1.824  0.1128 -0.2544  0.0864
  840W        W 4891  10.073   2.252  13.544 -0.0252  0.1743 -0.2796
  841W        W 4892   4.558   2.856   1.901  0.0952 -0.1117  0.0550
  842W        W 4893   1.959   6.384   3.660 -0.3821  0.0751  0.1653
  843W        W 4894   1.517   3.248  11.437  0.0455 -0.1098 -0.1150
  844W        W 4895   2.866   5.100   5.354  0.1124 -0.1171 -0.0302
  845W        W 4896   4.180   0.656   1.312 -0.1282  0.1374  0.2106
  846W        W 4897   3.273   8.087   4.593  0.1272 -0.0964  0.1171
  847W        W 4898   0.930   9.319  10.567  0.2434  0.1197 -0.3325
  848W        W 4899   1.311   5.196   3.936  0.1590 -0.0715 -0.1187
  849W        W 4900   1.057   4.588  11.540 -0.2628  0.0007 -0.2024
  850W        W 4901   4.539   6.563  11.178  0.0192 -0.0641  0.2947
  851W        W 4902   6.084   5.551   9.804  0.3380 -0.1343  0.2439
  852W        W 4903   0.463   3.708  13.136 -0.0258  0.0956 -0.0762
  853W        W 4904   8.852   1.159  13.757 -0.5009  0.1495 -0.0955
  854W        W 4905   9.692   0.053  13.698  0.2087 -0.1696  0.1339
  855W        W 4906   9.321   5.753   9.657  0.2255 -0.3935  0.1011
  856W        W 4907   6.686   2.989   4.946  0.1793  0.0182 -0.0723
  857W        W 4908   4.552   2.058  12.082  0.0690  0.1174  0.0394
  858W        W 4909   3.083   1.950   1.203  0.0507 -0.2168 -0.0906
  859W        W 4910   9.679   3.123  12.297 -0.2098  0.2531 -0.1342
  860W        W 4911   7.795   9.410  14.043  0.3823 -0.6297 -0.0348
  861W        W 4912   3.721   1.409  12.127  0.0742  0.0076  0.0669
  862W        W 4913   7.563   5.310   2.004 -0.2835  0.2269 -0.1312
  863W        W 4914   8.742   9.273  12.623 -0.0341 -0.0413  0.3041
  864W        W 4915   7.511   2.331   1.416  0.0053  0.2988  0.1334
  865W        W 4916   5.224   0.031   3.648  0.0391 -0.3455  0.1036
  866W        W 4917   1.904   0.452  13.183  0.1619 -0.1689 -0.0539
  867W        W 4918   5.256   7.277  11.943 -0.0662  0.1029 -0.2720
  868W        W 4919   7.079   4.162   2.154 -0.0790 -0.1114  0.0621
  869W        W 4920   1.082   5.184   0.560  0.1789 -0.2605  0.1716
  870W        W 4921   2.663   0.088   0.497  0.1985 -0.1049 -0.2542
  871W        W 4922   6.812   7.089  12.773 -0.1661  0.1513  0.3383
  872W        W 4923   8.137   3.129   3.580  0.0968  0.2014  0.4433
  873W        W 4924   6.481   9.012   4.165  0.0529 -0.1101  0.0714
  874W        W 4925   3.557   2.909  13.842 -0.1354 -0.5127  0.0790
  875W        W 4926   4.605   7.957   2.311  0.4019 -0.1986  0.0391
  876W        W 4927  10.056   3.823   3.909 -0.0020 -0.0751  0.3510
  877W        W 4928   8.385   8.784   2.427 -0.2692  0.0222  0.3344
  878W        W 4929   9.010   0.716   9.589 -0.0217  0.0536 -0.0388
  879W        W 4930   1.365   3.349  11.980  0.0864 -0.1334 -0.0111
  880W        W 4931   6.418   7.212   0.883 -0.0375 -0.0709 -0.1960
  881W        W 4932   6.380   8.916   2.689 -0.0231 -0.0816  0.1289
  882W        W 4933   3.537   5.046   0.064 -0.3064 -0.1671  0.0309
  883W        W 4934   0.504   8.145   3.175 -0.2403 -0.3777 -0.1773
  884W        W 4935   5.096   1.993  13.622  0.2494 -0.0391  0.2523
  885W        W 4936   6.770   9.506  11.130 -0.1419 -0.0167  0.1387
  886W        W 4937   5.854   3.876  11.161  0.1479  0.1198 -0.1388
  887W        W 4938   2.642   5.572  10.155 -0.3064 -0.0579 -0.2756
  888W        W 4939   6.864   2.051  12.828 -0.2171 -0.0452 -0.0218
  889W        W 4940   1.252   0.579   5.053 -0.0629 -0.2685 -0.2003
  890W        W 4941   7.995   4.523   0.405  0.0300 -0.1340  0.0130
  891W        W 4942   5.958   5.053   2.890  0.0111 -0.0750 -0.0674
  892W        W 4943   3.811   9.483   1.473 -0.0606 -0.1127 -0.1325
  893W        W 4944   0.571   8.028   1.079  0.4265  0.0095  0.1601
  894W        W 4945   2.431   7.636   4.589  0.1505 -0.0392 -0.1844
  895W        W 4946   7.329   0.796   0.270 -0.0763 -0.1910  0.2100
  896W        W 4947   6.149   1.311   4.638 -0.0317 -0.1472  0.1376
  897W        W 4948   5.503   3.183   3.390  0.0843 -0.2864 -0.1338
  898W        W 4949   6.475  10.110   3.705  0.1459  0.1877  0.0976
  899W        W 4950   2.715   3.094  12.522 -0.2176 -0.0466 -0.1329
  900W        W 4951   1.388   3.265   8.764  0.2158  0.0527  0.0207
  901W        W 4952   8.184   3.593   4.869  0.0317 -0.2874  0.0145
  902W        W 4953   1.117   7.689   1.821 -0.0759 -0.0658 -0.0752
  903W        W 4954   0.626   0.280   0.221 -0.1407  0.2011  0.2134
  904W        W 4955   8.815   8.823  10.654  0.1474 -0.3542  0.0383
  905W        W 4956   3.036   9.767   4.904 -0.0030  0.1703 -0.0342
  906W        W 4957   6.552   1.265   3.664 -0.2829 -0.1651 -0.2247
  907W        W 4958  10.064   7.027   0.375 -0.4222  0.1708 -0.0176
  908W        W 4959   8.230   4.119  10.217 -0.0260  0.1334  0.2218
  909W        W 4960   0.695   5.647   2.266 -0.1862  0.1242  0.0102
  910W        W 4961   1.013   7.841   4.418 -0.3725  0.2974 -0.0371
  911W        W 4962   9.052   2.645   0.947  0.4763  0.0851 -0.2209
  912W        W 4963   5.432   1.792   2.106  0.4687 -0.1285 -0.1082
  913W        W 4964   8.965   4.985   1.550  0.0837 -0.1894 -0.0346
  914W        W 4965   4.650   1.130   9.891 -0.2849 -0.0867 -0.4490
  915W        W 4966   3.092   1.054   9.462 -0.1085  0.1238 -0.0027
  916W        W 4967   0.382   3.720   0.400  0.0032  0.3977 -0.1006
  917W        W 4968   0.654   3.806   0.959 -0.2645  0.0866 -0.2606
  918W        W 4969   6.596   2.503   1.691  0.1936 -0.1629 -0.1615
  919W        W 4970   3.243   5.924   3.670 -0.4101  0.1339  0.1399
  920W        W 4971   9.937   0.196  10.726 -0.2764 -0.1319 -0.2111
  921W        W 4972   9.740   6.087  14.001  0.0981 -0.2916  0.1822
  922W        W 4973   8.707   9.648   2.604  0.0478  0.2582 -0.1664
  923W        W 4974   0.932   6.203   2.116 -0.0072  0.2030  0.1355
  924W        W 4975   6.733   4.399  12.538  0.2331 -0.1998 -0.1949
  925W        W 4976   2.467   0.074  13.794  0.0555  0.3397 -0.0351
  926W        W 4977   4.783   3.162  11.221 -0.0084 -0.3505  0.2033
  927W        W 4978   0.380   1.425   3.003  0.1330 -0.2604  0.0664
  928W        W 4979   9.288   1.105   2.785 -0.0089 -0.0474  0.1496
  929W        W 4980   2.512  10.016   5.448  0.1798 -0.1779  0.2210
  930W        W 4981   3.588   0.022   1.769 -0.1180 -0.1180  0.0375
  931W        W 4982   5.035   6.569   1.471  0.0306 -0.1601 -0.0584
  932W        W 4983   7.054   7.313  12.393  0.0979  0.2097 -0.0554
  933W        W 4984   8.971   2.873   2.599  0.0815 -0.3749 -0.1240
  934W        W 4985   7.486   3.075   2.083 -0.0408  0.2511  0.0028
  935W        W 4986   5.453   7.850   1.202 -0.1003  0.0098 -0.0010
  936W        W 4987   1.691   8.609  12.139  0.2217  0.1124 -0.3036
  937W        W 4988   6.115   0.900   2.991 -0.1491 -0.0139  0.1888
  938W        W 4989   4.491   3.687  11.943  0.0388 -0.0626 -0.0036
  939W        W 4990   9.081   9.366  13.192 -0.0830  0.0777  0.0896
  940W        W 4991   7.413   2.273  10.069  0.1783  0.0729 -0.1618
  941W        W 4992   3.273   6.821  11.699 -0.2825  0.2574  0.1307
  942W        W 4993   3.316   6.718   2.080  0.0495 -0.2189  0.1278
  943W        W 4994   6.009   7.739   1.938 -0.3105 -0.1493  0.1539
  944W        W 4995   1.908   8.438   1.363 -0.0125 -0.1493  0.2606
  945W        W 4996   1.977   5.598  13.281  0.0107 -0.0578 -0.1149
  946W        W 4997   5.223   8.035   3.476 -0.0340  0.0787 -0.1250
  947W        W 4998   7.169   8.985   2.303  0.2009 -0.1328 -0.1197
  948W        W 4999   9.207   7.690  12.065  0.0922 -0.0642  0.0862
  949W        W 5000   9.025   2.057  11.033 -0.2242 -0.0760 -0.2901
  950W        W 5001   1.599   9.511   2.380 -0.2257 -0.0576  0.1234
  951W        W 5002   3.322   0.878  10.778  0.2041 -0.1729 -0.3626
  952W        W 5003   3.280   2.751   2.003 -0.3570  0.2305 -0.1548
  953W        W 5004   6.512   5.557  12.201 -0.1010 -0.1252  0.0305
  954W        W 5005   9.243   9.081   0.705  0.2509 -0.0194  0.3126
  955W        W 5006   1.813   9.365   1.890 -0.0079  0.0270 -0.0478
  956W        W 5007   3.641   6.787   0.678 -0.0330 -0.0551 -0.0074
  957W        W 5008   0.925   5.299  13.952  0.1140  0.0587 -0.1833
  958W        W 5009   2.520   1.993   4.461  0.2374 -0.0588  0.1795
  959W        W 5010   2.913   1.640   1.609  0.1167  0.0014  0.2876
  960W        W 5011   3.521   8.229  11.931  0.4337 -0.0004  0.0392
  961W        W 5012   0.472   2.320   1.183  0.1705 -0.0506 -0.0509
  962W        W 5013   4.152   6.776   2.477 -0.0837  0.0888  0.2491
  963W        W 5014   0.610   1.852   1.143 -0.0651 -0.1640  0.1937
  964W        W 5015   3.344   8.291   2.649 -0.3633  0.1040 -0.1944
  965W        W 5016   7.368   7.169  13.753  0.1659 -0.0491  0.4868
  966W        W 5017   3.063   5.519   2.551  0.2040 -0.2102  0.1412
  967W        W 5018   5.150   3.173  10.430 -0.0462  0.0297  0.2673
  968W        W 5019   4.235   4.452   9.993  0.3387  0.0887 -0.0748
  969W        W 5020   0.609   5.308   0.414 -0.0271 -0.0189  0.2031
  970W        W 5021   9.720   1.435  11.957  0.0446 -0.1095  0.1616
  971W        W 5022   8.319   5.545  13.667 -0.1681 -0.1515 -0.1404
  972W        W 5023   1.231   8.995   3.324 -0.0606  0.3951 -0.1391
  973W        W 5024   7.335   1.479   3.327  0.0729  0.3401  0.0721
  974W        W 5025   0.993   8.508  13.346  0.0644 -0.0477 -0.0573
  975W        W 5026   1.003   2.146  10.822 -0.0251  0.1096 -0.1382
  976W        W 5027   4.648   1.915   4.438  0.1188  0.1200 -0.2189
  977W        W 5028   1.458   8.214   3.113  0.3371 -0.2190  0.1581
  978W        W 5029   0.373   4.839   3.731 -0.0076 -0.0108 -0.0104
  979W        W 5030   3.948   4.947  12.952 -0.0960 -0.0433  0.0032
  980W        W 5031   8.444   8.673   4.167 -0.0945  0.2012  0.1824
  981W        W 5032   3.517   4.336  11.213  0.0231 -0.0514 -0.2200
  982W        W 5033   7.828   2.075  12.481 -0.1206 -0.2066 -0.0760
  983W        W 5034   6.231   0.533  10.437 -0.1889 -0.1869 -0.1450
  984W        W 5035   7.133   2.613   4.413  0.0200  0.3745  0.0967
  985W        W 5036   9.897   4.844   1.923  0.2300  0.1848  0.3763
  986W        W 5037   7.207   8.133  11.962  0.0324  0.0452  0.0169
  987W        W 5038   1.500   1.573  11.890 -0.0609 -0.0235 -0.0519
  988W        W 5039   2.197   7.825  10.838 -0.1286 -0.2175  0.3001
  989W        W 5040   4.258   9.879   3.160 -0.2066  0.4373  0.0470
  990W        W 5041   5.565   7.789   2.260 -0.0725 -0.3488  0.1455
  991W        W 5042   8.345   6.129   1.894 -0.1693  0.0498  0.2911
  992W        W 5043   9.148   1.675  13.967 -0.0288  0.0027  0.1963
  993W        W 5044   2.463   5.055  13.606 -0.0850  0.0967 -0.3060
  994W        W 5045   4.339   8.410   2.285 -0.0392 -0.0557 -0.0254
  995W        W 5046   3.339   7.754  11.809 -0.2314  0.2119  0.0544
  996W        W 5047   4.896   3.978   3.496 -0.1302 -0.1902 -0.0085
  997W        W 5048   6.016   2.192   4.134  0.1972  0.4687  0.0578
  998W        W 5049   0.523   0.118   9.221 -0.1683 -0.0945  0.0517
  999W        W 5050   7.123   6.688   2.373 -0.0067 -0.0585  0.0780
 1000W        W 5051   4.537   7.318  10.387 -0.0239  0.1702 -0.2162
 1001W        W 5052   4.320   1.602  13.904 -0.1829 -0.0335  0.0769
 1002W        W 5053   1.523   0.627   3.392 -0.2203  0.0952  0.2712
 1003W        W 5054   8.305   2.273   9.874  0.2496  0.0956 -0.2279
 1004W        W 5055   9.735   3.463   9.662  0.0683  0.2138 -0.3382
 1005W        W 5056   6.019   3.657  12.637  0.2290  0.0141 -0.1573
 1006W        W 5057   0.922   5.513  12.449 -0.1751 -0.2457  0.2024
 1007W        W 5058   1.216   9.627  13.593 -0.0547  0.0007 -0.0183
 1008W        W 5059   9.743   1.993  13.331  0.0245  0.1589  0.0378
 1009W        W 5060  10.025   4.532   5.136 -0.0695 -0.2219 -0.0185
 1010W        W 5061   6.488   3.384   9.464 -0.1343 -0.2359 -0.0298
 1011W        W 5062   1.722   8.836  11.709 -0.2712 -0.2449 -0.0299
 1012W        W 5063   3.248   9.167   1.913 -0.0671 -0.2033 -0.1788
 1013W        W 5064   0.085   5.998   0.695  0.0075 -0.0752  0.0099
 1014W        W 5065   2.478   6.062   4.912 -0.1115  0.1199 -0.2231
 1015W        W 5066   4.520   5.651   2.289 -0.0018 -0.0801 -0.2906
 1016W        W 5067   6.722   5.774  12.551 -0.1919 -0.2442 -0.3618
 1017W        W 5068   3.586   6.282  12.390 -0.0219  0.1370  0.2739
 1018W        W 5069   4.014   3.334  13.699 -0.3270 -0.0709 -0.0734
 1019W        W 5070   3.177   4.077   4.292 -0.2665 -0.0997  0.0083
 1020W        W 5071   8.231   7.892   3.029 -0.2077 -0.1468  0.0797
 1021W        W 5072   0.065   0.698   1.932 -0.0153  0.0102 -0.0032
 1022W        W 5073   3.933   2.137   0.955 -0.2306  0.0551  0.0863
 1023W        W 5074   7.810   5.486  10.571 -0.2053 -0.0924 -0.1765
 1024W        W 5075   7.523   1.745   1.650 -0.0496 -0.1181  0.2229
 1025W        W 5076   0.576  10.088   4.853  0.0957 -0.0780  0.2974
 1026W        W 5077   0.871   2.126  11.414  0.0128  0.0772  0.1985
 1027W        W 5078   6.203   3.802   0.635  0.2973  0.0177 -0.1112
 1028W        W 5079   6.578   1.129   1.241  0.2329 -0.2452  0.0935
 1029W        W 5080   0.734   3.539  11.338  0.1836 -0.1304 -0.1762
 1030W        W 5081   1.775   5.085   2.246  0.0157 -0.1864 -0.1163
 1031W        W 5082   3.082   9.894   0.529  0.1585  0.0783  0.2815
 1032W        W 5083   2.702   3.422  10.299  0.0819  0.0172  0.2961
 1033W        W 5084   5.871   3.146  13.105  0.1608 -0.4129  0.3004
 1034W        W 5085   7.214   0.382  10.603  0.0586 -0.0841  0.2766
 1035W        W 5086   2.255   4.724   9.799  0.0539  0.1411 -0.0552
 1036W        W 5087   7.511   1.917   3.795 -0.0076 -0.1758  0.1383
 1037W        W 5088   1.923   6.833   3.988 -0.5053 -0.0842  0.1577
 1038W        W 5089   2.548   8.531  10.143  0.0665  0.3118 -0.0143
 1039W        W 5090   1.962   1.187   1.927 -0.0777  0.2282 -0.0774
 1040W        W 5091   8.863   3.927   3.347  0.0536 -0.4742 -0.0378
 1041W        W 5092   2.932   9.218   5.123 -0.2139 -0.0094  0.1905
 1042W        W 5093   8.685   7.311   9.457  0.1238  0.1176 -0.5148
 1043W        W 5094   8.248   3.374   2.280 -0.1775  0.0486  0.1265
 1044W        W 5095   8.702   4.333   1.607 -0.3026 -0.2279  0.1085
 1045W        W 5096   2.675   7.000   9.211 -0.1366 -0.2665  0.0848
 1046W        W 5097   7.598   6.545   1.996 -0.2289 -0.3797  0.2486
 1047W        W 5098   2.793   6.028   9.962  0.3508 -0.3441 -0.0400
 1048W        W 5099   9.064   2.599  12.204 -0.2849  0.1771 -0.1902
 1049W        W 5100   2.503   6.365  10.669 -0.3510 -0.0301 -0.2307
 1050W        W 5101   0.511   6.959   3.052 -0.2443  0.1986 -0.0049
 1051W        W 5102   2.878   0.443   9.077 -0.0976  0.3553  0.1437
 1052W        W 5103   2.982   6.442   9.672 -0.4783 -0.0166  0.0395
 1053W        W 5104   9.995   3.008  13.473  0.0280  0.0149  0.2088
 1054W        W 5105   9.743   4.067   1.502  0.2115 -0.2744 -0.3274
 1055W        W 5106   1.393   7.551   4.587 -0.2465 -0.1507 -0.1138
 1056W        W 5107   5.747   7.429  10.878 -0.2441 -0.1699 -0.0889
 1057W        W 5108   9.750   6.343   1.928  0.1073  0.1188 -0.2294
 1058W        W 5109   8.333   8.573   3.682 -0.2565  0.2349 -0.0298
 1059W        W 5110   2.638   7.742   6.134 -0.2761 -0.0479 -0.2672
 1060W        W 5111   3.272   0.626   2.888 -0.1697 -0.0279 -0.0904
 1061W        W 5112   5.498   7.045   3.981  0.0334  0.0508  0.1069
 1062W        W 5113   3.204   3.443   2.511  0.2834 -0.2785  0.1614
 1063W        W 5114   5.955   7.074   1.312 -0.1591  0.1474 -0.1355
 1064W        W 5115   6.213   5.407   3.841  0.0619 -0.1700 -0.1281
 1065W        W 5116   8.327   2.268   9.325 -0.0694 -0.1683 -0.0151
 1066W        W 5117   2.570  10.034   4.137 -0.3014  0.2661  0.3726
 1067W        W 5118   2.313   8.128  11.642 -0.1067  0.0014  0.0912
 1068W        W 5119   6.884   2.581  12.736 -0.1899 -0.0235  0.1797
 1069W        W 5120   9.223   9.016   2.124 -0.0645  0.1235 -0.4153
 1070W        W 5121   1.329   8.507   9.766  0.3157 -0.2173 -0.1148
 1071W        W 5122   2.688   7.240  13.254  0.4145  0.0309  0.0814
 1072W        W 5123   9.835   3.644  11.505 -0.1108  0.0579  0.1579
 1073W        W 5124   4.315   6.224   9.563 -0.1365 -0.0507 -0.0018
 1074W        W 5125   0.332   2.744   3.501  0.0229  0.1925 -0.0019
 1075W        W 5126   2.590   0.146   2.529 -0.3079 -0.1286 -0.2682
 1076W        W 5127   1.883   8.296  13.449 -0.2311 -0.0526 -0.2080
 1077W        W 5128   9.324   4.270   4.208 -0.0607  0.1409 -0.5261
 1078W        W 5129   9.270   0.863  11.266  0.0067 -0.1841  0.0464
 1079W        W 5130   7.317   7.234  11.005  0.1567  0.0385  0.1055
 1080W        W 5131   2.812  10.065   0.066 -0.0250  0.1342  0.1006
 1081W        W 5132   2.771   2.139   2.547 -0.3866  0.0831 -0.0209
 1082W        W 5133   1.343   1.408   3.672 -0.0335  0.0072 -0.2461
 1083W        W 5134   9.032   3.104  11.407 -0.0357  0.1050 -0.1032
 1084W        W 5135   6.009   7.018   0.725  0.0155  0.0274  0.2066
 1085W        W 5136   7.890   5.199   9.087  0.0356 -0.2172  0.0813
 1086W        W 5137   3.705   7.148   1.296  0.1907 -0.3994  0.0254
 1087W        W 5138   3.087   6.310  12.418 -0.0192 -0.0966 -0.2696
 1088W        W 5139   5.348   3.467   4.231 -0.1398  0.0305  0.0933
 1089W        W 5140   8.987   9.933  10.349 -0.0272  0.0242 -0.1027
 1090W        W 5141   0.008   7.129  13.908  0.3522 -0.0899  0.2852
 1091W        W 5142   9.653   3.888   8.825 -0.0945  0.0668  0.2337
 1092W        W 5143   5.530   3.721   1.407  0.0519 -0.2773  0.0716
 1093W        W 5144   7.761   1.572  12.793 -0.1422 -0.1430  0.1313
 1094W        W 5145   6.915   9.802  12.306 -0.0746  0.0425 -0.2415
 1095W        W 5146   7.564   2.933   3.060 -0.2788 -0.3126  0.3367
 1096W        W 5147   0.209   6.619  14.071  0.2280 -0.1003  0.2228
 1097W        W 5148  10.090   0.012   2.954 -0.0869  0.4146 -0.0401
 1098W        W 5149   6.928   1.583  11.820  0.4546 -0.0906  0.0015
 1099W        W 5150   1.592   7.409  10.295  0.5416  0.0142  0.0981
 1100W        W 5151   9.953   4.736   2.845  0.3505  0.1532  0.0234
 1101W        W 5152   1.071   0.761   5.703 -0.1111  0.0016 -0.1069
 1102W        W 5153   5.868   0.403   0.552  0.1362  0.1389  0.1602
 1103W        W 5154   1.715   8.464  12.649  0.2247 -0.3659  0.0136
 1104W        W 5155   6.057   0.959   3.800  0.0072  0.2610  0.3398
 1105W        W 5156   3.349   4.707  11.418 -0.0498 -0.2846  0.0033
 1106W        W 5157   3.960   2.049   1.455  0.0401  0.1554  0.1890
 1107W        W 5158   7.179   1.217   0.934  0.0256 -0.0927 -0.2874
 1108W        W 5159   6.709   8.680   0.450 -0.5443 -0.0102 -0.0104
 1109W        W 5160   4.957   6.016  14.022  0.2392  0.0068 -0.1378
 1110W        W 5161   5.543   9.129  10.783 -0.0922 -0.2418 -0.0105
 1111W        W 5162   1.093   7.494   3.709  0.0702 -0.1057 -0.2686
 1112W        W 5163   2.501   8.312   4.676 -0.3442 -0.0182 -0.2483
 1113W        W 5164   0.052   1.037   5.249  0.1692 -0.1178 -0.3505
 1114W        W 5165   5.134   7.108   1.689 -0.0429  0.4359 -0.2350
 1115W        W 5166   1.312   9.239   2.866  0.0635  0.0276  0.2564
 1116W        W 5167   0.605   1.167   0.319  0.0733 -0.0482  0.1686
 1117W        W 5168   8.278   5.771   0.536  0.0895  0.1390 -0.0009
 1118W        W 5169   7.068   6.537   0.152  0.0955 -0.3407 -0.2331
 1119W        W 5170   8.610   1.637   2.819  0.1242  0.1587 -0.1800
 1120W        W 5171   3.434   9.374  13.565  0.0926  0.0362 -0.0636
 1121W        W 5172   8.024   3.434  13.621  0.3111  0.0740  0.0742
 1122W        W 5173   0.239   1.823   5.760 -0.0780 -0.0623 -0.1156
 1123W        W 5174   6.363   1.866  12.733  0.2231 -0.1731  0.0697
 1124W        W 5175   0.333   4.822   0.466 -0.1480  0.1003 -0.1335
 1125W        W 5176   2.196   3.780  12.802 -0.1650  0.0067  0.1808
 1126W        W 5177   1.231   3.221  10.380 -0.3287 -0.0705  0.0060
 1127W        W 5178   4.991   2.710  11.588 -0.1032  0.2296  0.0688
 1128W        W 5179   0.344   0.720   0.418  0.2499  0.1056 -0.1978
 1129W        W 5180   0.569  10.098  12.772  0.0111  0.0746 -0.0382
 1130W        W 5181   0.424   9.093  12.695  0.0069 -0.3277 -0.0455
 1131W        W 5182   4.672   2.564  13.468 -0.0881  0.1468  0.1624
 1132W        W 5183   0.139   2.148  10.368 -0.2749 -0.0391 -0.1315
 1133W        W 5184   6.013   2.662  12.743  0.0490  0.1816 -0.0921
 1134W        W 5185   8.360   1.333  13.582 -0.0062  0.0234  0.2554
 1135W        W 5186   3.992   6.624  13.275  0.1587  0.1966  0.1006
 1136W        W 5187   8.483   9.301  12.042  0.1672  0.1078  0.0170
 1137W        W 5188   4.154   7.508  11.289  0.3527  0.0023 -0.0572
 1138W        W 5189   7.042   4.076  10.354  0.5063  0.2413  0.0310
 1139W        W 5190   7.082   6.101  11.436 -0.0409 -0.0729  0.0825
 1140W        W 5191   4.666   6.677   1.810 -0.4622  0.1321 -0.0219
 1141W        W 5192   4.058   9.556   1.895 -0.0449 -0.1598 -0.0087
 1142W        W 5193   3.121   4.210  12.183  0.3856 -0.1364  0.3804
 1143W        W 5194   5.414   4.710   0.976 -0.0033  0.1129  0.0047
 1144W        W 5195   1.011   3.314   9.040  0.0081  0.3318  0.0431
 1145W        W 5196   2.399   5.364  13.208  0.4162 -0.4844  0.0501
 1146W        W 5197   4.857   2.811  13.060  0.1055  0.1789 -0.1826
 1147W        W 5198   2.227   2.940  13.822 -0.0844 -0.2202  0.0828
 1148W        W 5199   2.020   0.940   3.142  0.0004  0.0930  0.0224
 1149W        W 5200   0.052   4.693   4.155  0.0227  0.0844  0.1287
 1150W        W 5201   0.230   9.449  11.738 -0.0023 -0.1167 -0.1367
 1151W        W 5202   5.260   6.225  11.402 -0.0298  0.2564 -0.0423
 1152W        W 5203   4.048   1.217  14.069  0.2090 -0.0978  0.0765
 1153W        W 5204   1.344   2.531   0.908  0.1093  0.0415  0.1128
 1154W        W 5205   6.215   2.828   0.662 -0.1824  0.3435  0.3129
 1155W        W 5206   1.823   1.017  11.466  0.3549  0.1337  0.0419
 1156W        W 5207   6.297   0.442   4.000 -0.1686  0.1124  0.0473
 1157W        W 5208   2.544   2.872  11.716  0.1486 -0.2287  0.5384
 1158W        W 5209   7.444   1.233  11.937 -0.1619  0.0393  0.1369
 1159W        W 5210   7.174   9.073   3.359  0.0827  0.1409 -0.0877
 1160W        W 5211   5.452   4.462   2.319 -0.0103 -0.1922 -0.3058
 1161W        W 5212   6.589   6.439  10.531 -0.0590  0.1470  0.1857
 1162W        W 5213   2.224   0.783  13.997 -0.1262  0.3426  0.3208
 1163W        W 5214   5.223   0.088  13.754  0.2426 -0.2774 -0.2346
 1164W        W 5215   5.655   5.213   0.170  0.0054 -0.1331 -0.1411
 1165W        W 5216   7.578   5.485   3.854 -0.0289  0.1949  0.3466
 1166W        W 5217   4.935   0.339   0.070 -0.0898  0.1177  0.0021
 1167W        W 5218   3.852   2.887  13.424  0.0530  0.0948 -0.3124
 1168W        W 5219   0.212   0.973  12.702  0.0297  0.1141 -0.1001
 1169W        W 5220   8.405   1.117  12.998 -0.1488  0.0801 -0.0724
 1170W        W 5221   3.472   7.157   1.868  0.3574 -0.3564  0.0954
 1171W        W 5222   1.666   7.556  12.294 -0.0220  0.0418  0.4189
 1172W        W 5223   3.586   8.055  11.368 -0.1514  0.2641  0.0306
 1173W        W 5224   0.913   9.647   0.003  0.1292 -0.1729  0.1146
 1174W        W 5225   4.193   0.669  12.349 -0.2096  0.0336 -0.0545
 1175W        W 5226   6.417   3.309   0.809  0.1227 -0.1178  0.1631
 1176W        W 5227   3.704   6.182   0.553 -0.2681  0.1430 -0.1406
 1177W        W 5228   2.831   3.869   1.197 -0.1702 -0.3021  0.3706
 1178W        W 5229   5.595   1.984   9.746  0.0390  0.1225 -0.2072
 1179W        W 5230   0.299   8.634   2.544 -0.1365 -0.3031  0.0083
 1180W        W 5231   0.579   1.684  11.649  0.0283  0.1652  0.2061
 1181W        W 5232   9.061   1.084  10.427  0.2073 -0.2024  0.2160
 1182W        W 5233   5.401   5.811   1.433 -0.1976  0.2496  0.2321
 1183W        W 5234   9.963   6.468   2.753  0.0564 -0.2522  0.0131
 1184W        W 5235   9.314   2.876  12.541  0.0219  0.1500  0.3165
 1185W        W 5236   3.677   2.715   2.834  0.0936 -0.1563  0.1280
 1186W        W 5237   2.401   6.319  14.074  0.0709 -0.0024  0.0743
 1187W        W 5238   6.605   0.420  12.764  0.1833 -0.1445  0.1365
 1188W        W 5239   5.066   4.149  12.269  0.4020  0.3365 -0.3290
 1189W        W 5240   7.519   4.523   4.919  0.0634  0.2486 -0.0067
 1190W        W 5241   5.689   0.879   0.404 -0.1033  0.3742 -0.0368
 1191W        W 5242   3.375   3.757   1.786 -0.0379 -0.3309 -0.0351
 1192W        W 5243   6.017   5.411   2.112 -0.0310  0.0368 -0.2715
 1193W        W 5244   8.675  10.072  11.029 -0.1399 -0.1033 -0.3972
 1194W        W 5245   2.076   2.763  11.953 -0.0657  0.1471  0.0826
 1195W        W 5246   7.172   3.572  12.581  0.2592 -0.3514 -0.0556
 1196W        W 5247   0.794   8.470   2.749  0.1650  0.1710  0.1013
 1197W        W 5248   6.706   2.199   2.096 -0.0597  0.1966 -0.0611
 1198W        W 5249   0.397   0.877  11.049 -0.3371 -0.2373  0.0373
 1199W        W 5250   9.975   2.827   0.893 -0.0526  0.1603  0.0305
 1200W        W 5251   0.159   6.554  10.846 -0.1203  0.4092  0.0876
 1201W        W 5252   0.905   6.405   1.136  0.0381  0.0255 -0.1854
 1202W        W 5253   4.016   5.194   0.266  0.2135  0.2072 -0.0217
 1203W        W 5254   7.070   4.933  10.955  0.1867  0.0437 -0.2511
 1204W        W 5255   2.904   4.842   4.306  0.1071  0.2052  0.1840
 1205W        W 5256   3.446   8.019  13.006 -0.1806 -0.2155 -0.2201
 1206W        W 5257   4.328   5.293   4.927  0.1351  0.1046 -0.1733
 1207W        W 5258   3.935   7.244   1.737 -0.2641  0.0567  0.1129
 1208W        W 5259   6.833   0.923   2.403 -0.0148  0.0077 -0.1896
 1209W        W 5260   9.061   8.927   3.024 -0.3948 -0.2649 -0.0230
 1210W        W 5261   9.992   4.043   9.138  0.2129  0.1217 -0.1597
 1211W        W 5262   5.802   1.802   3.773  0.2958 -0.1932  0.0126
 1212W        W 5263   0.593   3.231   2.182  0.1402  0.0641 -0.0331
 1213W        W 5264   9.572   6.348   0.568 -0.0058  0.0049  0.0451
 1214W        W 5265   1.865   5.395   0.010 -0.0364 -0.0530  0.2489
 1215W        W 5266   0.416   8.229  12.585  0.0626  0.3906 -0.1730
 1216W        W 5267   7.257   3.356   0.156 -0.0518  0.0518 -0.3103
 1217W        W 5268   7.357   7.189  11.562 -0.1261 -0.0084  0.0909
 1218W        W 5269   5.482   1.235   3.021  0.0111  0.4583  0.0618
 1219W        W 5270   3.880   8.969   4.904  0.0301 -0.0432  0.1536
 1220W        W 5271   9.145   0.665   0.552  0.0832  0.0074  0.2824
 1221W        W 5272   8.789   9.277   0.892  0.1354 -0.1396  0.1582
 1222W        W 5273   7.814   0.193   4.694  0.2689 -0.0974 -0.0473
 1223W        W 5274   9.725   7.969   3.866 -0.1415  0.0443 -0.3620
 1224W        W 5275   1.182   7.606  11.571  0.1337  0.2259 -0.0753
 1225W        W 5276   6.411   0.423   9.764  0.2311  0.0335  0.1994
 1226W        W 5277   2.610   7.557   0.016  0.0701 -0.2847 -0.1936
 1227W        W 5278   3.387   3.302  11.831 -0.0541  0.0882  0.1759
 1228W        W 5279   6.069   2.670   9.879 -0.0644 -0.0312  0.0377
 1229W        W 5280   2.584   2.637   1.448  0.0748  0.4615 -0.3412
 1230W        W 5281   9.229   4.821   1.169  0.0514 -0.0663 -0.0860
 1231W        W 5282   5.521   0.631   0.873 -0.1960  0.0818  0.0741
 1232W        W 5283   8.054   6.862   3.895 -0.1166  0.1212  0.4761
 1233W        W 5284   6.826   2.628  10.541  0.0812 -0.1866 -0.0802
 1234W        W 5285   4.501   7.335  12.683  0.3319 -0.1013  0.1977
 1235W        W 5286   1.859   2.347   1.391 -0.0348 -0.3099  0.1789
 1236W        W 5287   5.687   8.617  11.090  0.2707  0.3914 -0.4883
 1237W        W 5288   5.345   3.658  13.266  0.0614  0.0254  0.1039
 1238W        W 5289   9.857   2.139  10.616 -0.2514  0.2356 -0.0630
 1239W        W 5290   2.451   3.340   2.129  0.2866  0.1179  0.1937
 1240W        W 5291   0.369  10.015  13.757 -0.0675 -0.1756 -0.2339
 1241W        W 5292   0.393   8.888   9.968 -0.1394  0.2362 -0.0025
 1242W        W 5293   0.255   7.571   4.165 -0.0983 -0.1270 -0.1940
 1243W        W 5294   0.556   5.934   1.883  0.1926 -0.0882 -0.1385
 1244W        W 5295   9.435   5.896   3.930  0.1355 -0.0145  0.1968
 1245W        W 5296   3.724   3.389   0.582  0.1233  0.2747  0.1504
 1246W        W 5297   6.049   1.527  10.573  0.1231 -0.0732  0.5111
 1247W        W 5298   9.890   4.926   9.573 -0.1723 -0.4253 -0.0569
 1248W        W 5299   1.761   0.632   3.976 -0.2558 -0.0773  0.0311
 1249W        W 5300   9.905   0.421   3.212  0.2491  0.0835  0.1667
 1250W        W 5301   2.893   2.608  12.031 -0.2216  0.4046 -0.0666
 1251W        W 5302   6.363   6.817  10.684 -0.1680 -0.2461  0.1498
 1252W        W 5303   0.390   8.877   3.666  0.0676 -0.2468 -0.0533
 1253W        W 5304  10.038   5.157  10.801  0.1031  0.0394  0.2387
 1254W        W 5305   6.010   7.165  13.505 -0.0372 -0.1942 -0.1094
 1255W        W 5306   2.855   6.733   1.891 -0.0393  0.0454 -0.0155
 1256W        W 5307   0.539   1.081  11.867  0.2043  0.1030  0.1557
 1257W        W 5308   4.505   0.040   9.547  0.0312  0.1726 -0.1658
 1258W        W 5309   2.134   6.000   4.475 -0.2217  0.1568 -0.1194
 1259W        W 5310   7.123   6.790   1.130 -0.1948  0.1280  0.2742
 1260W        W 5311   5.214   0.814   2.197 -0.1627 -0.0903  0.1487
 1261W        W 5312   0.261   3.501   2.473 -0.0830  0.1937  0.0689
 1262W        W 5313  10.041   8.037  13.917  0.0227  0.3443  0.0166
 1263W        W 5314   4.048   5.254   9.435 -0.4318  0.2153 -0.2395
 1264W        W 5315   9.335   6.437  12.674 -0.0210 -0.1712  0.0842
 1265W        W 5316   3.175   8.321  11.591  0.0814 -0.1505 -0.0667
 1266W        W 5317   2.815   1.988  12.135 -0.2187  0.1443 -0.1714
 1267W        W 5318   1.418   2.946   9.130  0.0844  0.2642 -0.2247
 1268W        W 5319   6.903   6.765   2.840 -0.1837 -0.2572  0.0272
 1269W        W 5320   5.775   6.905   2.534  0.0839  0.0048  0.1840
 1270W        W 5321   1.003   6.571   3.982  0.3530  0.1234  0.0021
 1271W        W 5322   4.606   3.641  11.067  0.1911  0.0368 -0.1348
 1272W        W 5323   5.718   5.902  11.394 -0.1578 -0.1229 -0.0230
 1273W        W 5324   0.988   9.889   4.577  0.1180  0.1637  0.1575
 1274W        W 5325   3.076   2.760   8.815 -0.0500 -0.0295 -0.0433
 1275W        W 5326   3.068   9.118  12.248  0.6894 -0.0921 -0.1446
 1276W        W 5327   1.063   1.337   9.784 -0.0238  0.0923  0.1158
 1277W        W 5328   1.338   2.825   4.583 -0.2374  0.1071  0.1161
 1278W        W 5329   8.283   4.810   2.204  0.1900  0.3063 -0.1692
 1279W        W 5330   9.143   3.277  12.166 -0.0993  0.2149  0.1431
 1280W        W 5331   8.744   7.766  10.001 -0.3297  0.1442  0.3826
 1281W        W 5332   1.762   3.003   0.918 -0.1271  0.0525 -0.3429
 1282W        W 5333   0.030   6.188   4.323  0.3385  0.3371  0.1282
 1283W        W 5334   3.991   5.555  11.420  0.0974 -0.1336 -0.4157
 1284W        W 5335   1.978   8.535   3.202 -0.0101 -0.2018  0.0604
 1285W        W 5336   6.108   0.459  12.889  0.3277  0.0135 -0.0477
 1286W        W 5337   5.796   9.546  10.879  0.1437  0.0287 -0.3303
 1287W        W 5338   1.366   5.214  13.848 -0.3753 -0.0197  0.0047
 1288W        W 5339   8.251   6.891  10.428  0.1424  0.1303 -0.0087
 1289W        W 5340   2.943   1.259  11.940  0.2666  0.6193 -0.2255
 1290W        W 5341   5.067   8.667   3.900 -0.2841 -0.1040 -0.0418
 1291W        W 5342   9.762   5.164  11.229 -0.0044  0.1785 -0.1147
 1292W        W 5343   8.111   8.199  10.666  0.3411  0.0034 -0.2561
 1293W        W 5344   1.802   4.934   2.727 -0.5809 -0.2355 -0.0598
 1294W        W 5345   5.431   9.025  11.339 -0.2068 -0.0791  0.2414
 1295W        W 5346   2.641   6.523  10.160  0.2437 -0.1720 -0.1311
 1296W        W 5347   7.939   4.653   4.086  0.0948  0.0452  0.2892
 1297W        W 5348   3.490   0.534   4.143 -0.1200 -0.1341 -0.1365
 1298W        W 5349   9.609   3.524   2.801 -0.0698 -0.0411 -0.1694
 1299W        W 5350   3.279   3.930   2.478  0.0579  0.1611 -0.1717
 1300W        W 5351  10.119   9.793  13.027  0.2989  0.2042 -0.0268
 1301W        W 5352   1.414   8.083   2.598  0.2892 -0.0833 -0.0136
 1302W        W 5353   4.665   1.683   5.567 -0.0150 -0.0361  0.0370
 1303W        W 5354   5.608   8.891  10.350 -0.0659  0.1128 -0.2834
 1304W        W 5355   3.181   1.841  10.755 -0.0139  0.0752 -0.2161
 1305W        W 5356  10.077   0.974   9.575  0.0936  0.0052  0.2864
 1306W        W 5357   2.200   1.276  12.454 -0.1520 -0.2864 -0.1369
 1307W        W 5358   6.643   5.318   0.135  0.1674  0.0691 -0.1833
 1308W        W 5359   9.590   8.710  10.040  0.3251  0.1376 -0.2018
 1309W        W 5360   6.623   6.995   1.397  0.0864 -0.1520 -0.0978
 1310W        W 5361   3.136   1.829  12.968 -0.2406 -0.0898 -0.3726
 1311W        W 5362   4.491   7.116   1.701 -0.0212  0.2932  0.1063
 1312W        W 5363   7.883   3.897  13.135  0.2646 -0.0746 -0.2422
 1313W        W 5364  10.075   3.087  10.728 -0.0849  0.3190 -0.0422
 1314W        W 5365   2.415   1.507   4.528 -0.1742 -0.0322 -0.0699
 1315W        W 5366   0.029   6.980  12.153 -0.1864  0.0605  0.0604
 1316W        W 5367   5.221   4.706   1.915  0.0655  0.2531  0.1488
 1317W        W 5368   1.467   9.992   4.070  0.0526 -0.2036 -0.1881
 1318W        W 5369   0.671   2.626   3.981  0.2129  0.1079 -0.0556
 1319W        W 5370   3.566  10.114  12.171 -0.1530 -0.2641  0.2211
 1320W        W 5371   4.197   9.832   4.698 -0.3080  0.0622 -0.1806
 1321W        W 5372   9.072   9.572   2.177 -0.0907 -0.0768 -0.1263
 1322W        W 5373   0.569   3.116  12.372  0.0529 -0.0921 -0.0809
 1323W        W 5374   2.154   1.050  12.997 -0.3052 -0.2546 -0.0529
 1324W        W 5375   0.909   7.368   4.591 -0.1189 -0.0335 -0.3207
 1325W        W 5376   6.491   5.313   3.382 -0.0553  0.1125 -0.3826
 1326W        W 5377   3.652   1.064   1.550 -0.2943  0.3814 -0.1359
 1327W        W 5378   3.525   9.412   4.274 -0.0873 -0.4058 -0.0129
 1328W        W 5379   7.272   5.192   9.743 -0.0329  0.1297 -0.6127
 1329W        W 5380   7.220   6.775  11.279  0.0488 -0.3425  0.1780
 1330W        W 5381   0.633   0.450  10.616  0.0962  0.1853 -0.2252
 1331W        W 5382   1.896   2.533   5.659 -0.2566 -0.1161  0.0895
 1332W        W 5383   8.226   7.390  11.283 -0.1690  0.0457 -0.1189
 1333W        W 5384   5.123   8.769   1.162 -0.1454  0.3994 -0.0361
 1334W        W 5385   8.877   9.055  12.083  0.0234 -0.0448 -0.1259
 1335W        W 5386   9.007   4.348   2.185  0.1121  0.1711  0.0911
 1336W        W 5387   7.847   3.246  10.662 -0.0042  0.0104 -0.0880
 1337W        W 5388   3.031   3.521   4.108  0.1158 -0.0808  0.1250
 1338W        W 5389   2.533   1.635   2.820 -0.1560 -0.0186  0.0353
 1339W        W 5390   0.435   8.822  12.187  0.1300 -0.0701 -0.0840
 1340W        W 5391   0.687   0.804   1.084  0.1059  0.3418 -0.4126
 1341W        W 5392   1.170   1.879  13.424  0.3949  0.0057 -0.0496
 1342W        W 5393   3.273   4.968   3.960 -0.0464 -0.0503 -0.0488
 1343W        W 5394   9.954   3.541   0.759 -0.0130 -0.0723 -0.0596
 1344W        W 5395   7.357   6.366   0.988 -0.1212  0.1294  0.3098
 1345W        W 5396   8.110   5.146  10.854 -0.0837  0.3514 -0.1211
 1346W        W 5397   1.469   7.859  11.901 -0.3181  0.1637 -0.2001
 1347W        W 5398   3.336   1.342   5.483 -0.2284 -0.2534 -0.1658
 1348W        W 5399   4.187   0.330   0.476 -0.0754  0.2601  0.0491
 1349W        W 5400   0.847   1.112   2.098  0.1864  0.1201 -0.1341
 1350W        W 5401   6.529   8.269   1.148  0.0513 -0.0104  0.1459
 1351W        W 5402   0.525   0.345  12.116  0.0576  0.3030 -0.2258
 1352W        W 5403   8.327   3.483   8.956 -0.0982  0.1295 -0.1367
 1353W        W 5404   9.993   0.613  13.120  0.0125 -0.3375  0.1390
 1354W        W 5405   1.745   8.057   3.595  0.3634 -0.1690 -0.1626
 1355W        W 5406   3.512   4.810   2.060 -0.0770 -0.2126 -0.0166
 1356W        W 5407   4.885   6.550  12.692  0.0307  0.1271  0.0619
 1357W        W 5408   1.568   3.697  11.335 -0.0447  0.1062 -0.0848
 1358W        W 5409   9.936   2.569   1.838 -0.0843  0.0113 -0.2926
 1359W        W 5410   7.937   7.106  12.235  0.0745 -0.1564  0.0771
 1360W        W 5411   1.730   4.961   1.680  0.0737 -0.1072  0.1720
 1361W        W 5412   1.682   1.947  12.344  0.5196  0.2456  0.1867
 1362W        W 5413   9.684   4.156  13.621 -0.1464  0.3183 -0.4560
 1363W        W 5414   9.390   1.058   2.244 -0.0207 -0.1651  0.0533
 1364W        W 5415   2.163   7.501   5.640  0.3706 -0.0374  0.0247
 1365W        W 5416   8.175   0.222   0.296 -0.3301 -0.0322 -0.3579
 1366W        W 5417   8.983   6.025   9.926  0.2386  0.0578  0.0817
 1367W        W 5418   9.239   5.395  13.795  0.0233  0.2497 -0.1681
 1368W        W 5419   1.049   0.736   3.257  0.0177  0.3156 -0.0585
 1369W        W 5420   0.752   7.840  10.849 -0.2925  0.0874 -0.1819
 1370W        W 5421   5.452   8.876  13.950 -0.1340  0.0313  0.2168
 1371W        W 5422   1.273   6.576  10.505 -0.1406  0.3029  0.0685
 1372W        W 5423   9.525   5.054  11.961  0.1475 -0.0593  0.1405
 1373W        W 5424   4.883   9.610   3.991  0.0957 -0.0257 -0.0740
 1374W        W 5425   7.911   9.601   0.443 -0.3833  0.2232 -0.0121
 1375W        W 5426   6.531   4.367   5.205 -0.0154 -0.1630  0.1766
 1376W        W 5427   4.759   6.266  11.510 -0.2549  0.0347  0.1097
 1377W        W 5428   3.791   6.166  11.885 -0.2029  0.0184  0.1067
 1378W        W 5429   6.159   8.092   3.512  0.0346  0.2876  0.1110
 1379W        W 5430   5.252   9.522  11.199 -0.5596  0.0348 -0.1199
 1380W        W 5431   0.957   5.472   9.861  0.1627  0.0641  0.3679
 1381W        W 5432   7.888   0.681   0.887  0.2457 -0.2388 -0.0883
 1382W        W 5433   2.750   0.263   1.338 -0.1974 -0.0929  0.3508
 1383W        W 5434   1.584   6.148  11.396 -0.0527 -0.2913  0.2736
 1384W        W 5435   2.357   9.113  12.518 -0.1642  0.0399 -0.0899
 1385W        W 5436   8.356   8.760  12.121 -0.0475 -0.1636 -0.2520
 1386W        W 5437   0.537   8.682   0.337 -0.0130 -0.1009 -0.3647
 1387W        W 5438   9.077   1.525  10.980  0.1373 -0.2195  0.1515
 1388W        W 5439   5.950   8.523  13.293  0.0511 -0.1724 -0.0375
 1389W        W 5440   0.147   6.213   1.701 -0.0340 -0.5689  0.1191
 1390W        W 5441   8.997   0.683  12.668 -0.0570 -0.3540  0.1243
 1391W        W 5442   1.150   0.083  10.828 -0.1099 -0.1551 -0.2047
 1392W        W 5443   2.929   8.277   2.969 -0.0424  0.1141  0.2372
 1393W        W 5444   3.554   2.043   4.376 -0.1226 -0.2678 -0.2826
 1394W        W 5445   2.855   8.297   4.303 -0.1600 -0.2126 -0.4905
 1395W        W 5446   6.381   1.235  13.576 -0.0273  0.0446  0.2539
 1396W        W 5447   4.139   2.322   9.667 -0.0354  0.0776 -0.0742
 1397W        W 5448   6.478   2.836   9.167  0.0607  0.0959 -0.1013
 1398W        W 5449   9.343   0.623  11.839 -0.3018  0.1308  0.0040
 1399W        W 5450   0.483   6.200   3.358 -0.0306  0.3302  0.2359
 1400W        W 5451   1.376   1.320   0.062 -0.1372 -0.2727  0.3916
 1401W        W 5452   4.092   1.007  11.485  0.2679  0.0737  0.1729
 1402W        W 5453   7.173   7.181   2.089  0.1379 -0.0937  0.0631
 1403W        W 5454   9.393   4.065   1.844  0.1625  0.3781  0.0097
 1404W        W 5455   3.632   2.790   1.078 -0.1011 -0.0555 -0.2147
 1405W        W 5456   2.968   7.921   1.675 -0.1454  0.0072  0.2321
 1406W        W 5457   1.455   6.353  12.436 -0.0863  0.3054  0.0925
 1407W        W 5458   1.383   9.414  11.736 -0.0676  0.0473 -0.1384
 1408W        W 5459   4.860   1.301   3.744 -0.3693  0.1368 -0.0031
 1409W        W 5460   3.324   6.341  11.954 -0.3828 -0.0130  0.0513
 1410W        W 5461   0.873   0.500   1.522 -0.0554  0.0006 -0.1251
 1411W        W 5462   4.393   4.114  10.941  0.1760  0.0021 -0.0126
 1412W        W 5463   9.252   0.699  10.640  0.1240 -0.2961 -0.0698
 1413W        W 5464   0.735   3.002  10.113  0.2265  0.0366 -0.4673
 1414W        W 5465   7.450   5.723   0.143  0.2709  0.0836  0.0577
 1415W        W 5466   1.479   1.392  11.383  0.0294 -0.0901 -0.3111
 1416W        W 5467   2.113   3.341   0.089 -0.0983  0.0185  0.0368
 1417W        W 5468   8.071   4.962   1.733 -0.4295 -0.1107  0.0462
 1418W        W 5469   3.470   4.979  10.387  0.2540 -0.1967 -0.5085
 1419W        W 5470   4.291   9.024   0.537 -0.5609 -0.0499  0.0280
 1420W        W 5471   6.911  10.019   3.271  0.2100  0.0774  0.1237
 1421W        W 5472   9.274   7.481  13.803 -0.0649  0.1302  0.3081
 1422W        W 5473   1.210   7.011   3.763  0.2116 -0.0228 -0.0877
 1423W        W 5474   1.670   1.584   0.910  0.1410  0.1938  0.3162
 1424W        W 5475   9.881   4.796  11.561  0.2189 -0.0134  0.5086
 1425W        W 5476   2.858   2.646  13.362  0.3499 -0.0221 -0.0817
 1426W        W 5477   5.789   5.877  13.407 -0.1147  0.0479 -0.0419
 1427W        W 5478   5.990   4.452  13.676 -0.2550  0.2873 -0.1674
 1428W        W 5479   4.150   2.783   4.842 -0.1419 -0.2700 -0.0912
 1429W        W 5480   1.226   8.885  10.335 -0.0718 -0.1521  0.0084
 1430W        W 5481   6.374   4.713   0.440 -0.2453 -0.0043 -0.1992
 1431W        W 5482   5.615   2.973  12.714  0.2313  0.0691 -0.0865
 1432W        W 5483   8.055   9.592  13.129  0.2812 -0.1402 -0.0079
 1433W        W 5484   2.515   8.102   5.116  0.2812  0.2828  0.4610
 1434W        W 5485   8.124   9.667   2.693  0.0324 -0.8027 -0.2357
 1435W        W 5486   0.708   1.013  13.056 -0.0497 -0.0425  0.0349
 1436W        W 5487   2.882   1.396  13.204 -0.1810 -0.3302  0.2117
 1437W        W 5488   2.911   2.895   1.686 -0.1239 -0.0278 -0.0731
 1438W        W 5489   7.466   4.098  12.653 -0.0977  0.1944 -0.1340
 1439W        W 5490   9.741   0.047   4.274  0.0197  0.2915  0.0494
 1440W        W 5491   2.036   4.380  11.057 -0.0011  0.1169 -0.2957
 1441W        W 5492   9.649   2.147   4.080 -0.0968 -0.0587 -0.1606
 1442W        W 5493   7.486   0.537   3.791 -0.1307  0.0421 -0.0152
 1443W        W 5494   3.585   7.163  12.525 -0.1806  0.1099  0.0574
 1444W        W 5495   2.274   3.919   0.172 -0.1628 -0.0192 -0.3667
 1445W        W 5496   9.002   2.480   8.847  0.5353 -0.2996  0.0349
 1446W        W 5497   3.024   1.738   3.513 -0.0938 -0.0049  0.0815
 1447W        W 5498   9.760   3.875   4.610 -0.1067 -0.0314 -0.1166
 1448W        W 5499   1.956   1.306  11.075 -0.0314  0.1189 -0.0221
 1449W        W 5500   2.606   3.203  14.042  0.0657  0.2086  0.1093
 1450W        W 5501   1.666   0.153   5.189 -0.0365  0.2604  0.1022
 1451W        W 5502   7.650   6.114  13.203 -0.1122  0.0186 -0.0882
 1452W        W 5503   0.743   3.020   3.340 -0.0184 -0.0458 -0.0517
 1453W        W 5504   1.656   6.923   0.049 -0.3576 -0.0734  0.1108
 1454W        W 5505   7.781   9.996  11.577  0.0225 -0.2510 -0.3618
 1455W        W 5506   2.940   1.196   3.692 -0.1040 -0.0098 -0.1109
 1456W        W 5507   6.547   1.462  12.288 -0.1858  0.2970  0.1326
 1457W        W 5508   3.123   4.501   1.750  0.0182 -0.1348 -0.1076
 1458W        W 5509   7.591   5.987  12.313 -0.2171  0.2732  0.0878
 1459W        W 5510   9.684   9.428  12.991  0.3205 -0.0598 -0.1352
 1460W        W 5511   7.310   1.783  10.850 -0.1110 -0.0567  0.4416
 1461W        W 5512   2.466   1.998   9.194  0.0452 -0.1660  0.2226
 1462W        W 5513  10.104   8.407   9.279  0.1052 -0.0837  0.2151
 1463W        W 5514   1.878   4.174  12.826 -0.0997  0.2811 -0.1503
 1464W        W 5515   4.812   0.746   3.905 -0.0835 -0.0620 -0.1027
 1465W        W 5516   6.400   0.346  12.265  0.1453 -0.1475  0.1535
 1466W        W 5517   2.933   3.714   2.130 -0.0664 -0.0400 -0.3120
 1467W        W 5518   9.918   8.829   4.490  0.0312 -0.0865 -0.1656
 1468W        W 5519   6.674   0.089  14.065 -0.1545 -0.0678 -0.0338
 1469W        W 5520   5.277   2.106  10.261  0.1140  0.0274 -0.0874
 1470W        W 5521   9.372   5.129   9.899  0.1907 -0.2330 -0.1826
 1471W        W 5522   7.337   7.674  13.904  0.1850 -0.4550 -0.1471
 1472W        W 5523   1.154   1.436   2.310 -0.2968  0.0373  0.0581
 1473W        W 5524   6.715   5.390   1.547 -0.1178  0.0614  0.4533
 1474W        W 5525   8.394   7.178   1.262  0.0914  0.3426  0.1974
 1475W        W 5526   0.222   8.687   4.613 -0.1302 -0.0595  0.1850
 1476W        W 5527   4.983   0.559  12.152  0.0661 -0.1170  0.1533
 1477W        W 5528   7.484   4.769   1.305 -0.1790 -0.1297  0.2996
 1478W        W 5529   1.500   4.186   2.233  0.0244  0.1493  0.0789
 1479W        W 5530   2.426   7.893   1.672 -0.3210 -0.2032 -0.2599
 1480W        W 5531   2.572   1.548   3.633 -0.0223  0.1942  0.0438
 1481W        W 5532   3.006   6.195   1.285 -0.1442  0.1509 -0.0062
 1482W        W 5533   9.046   8.454  12.349 -0.1193 -0.1698 -0.3669
 1483W        W 5534   4.940   9.099  13.858  0.0476 -0.0214 -0.0989
 1484W        W 5535   3.467  10.020   0.829  0.0759 -0.3994 -0.0434
 1485W        W 5536   4.771  10.154   1.809  0.0542  0.1017 -0.1475
 1486W        W 5537   8.940   7.384  13.411 -0.0068 -0.0430 -0.2869
 1487W        W 5538   0.393   3.701   3.908  0.0761  0.0424  0.0573
 1488W        W 5539   6.690   5.498  13.408  0.0141  0.0464  0.1614
 1489W        W 5540   6.185   5.951  11.782 -0.2344 -0.2312  0.1709
 1490W        W 5541   9.539   6.582   3.471 -0.2321  0.0091 -0.0047
 1491W        W 5542   7.443   4.365   4.476  0.1743  0.2707  0.0995
 1492W        W 5543   0.520   2.666   3.026 -0.2136 -0.1543 -0.2295
 1493W        W 5544   0.134   8.935  11.385  0.0828  0.0601  0.2977
 1494W        W 5545   6.512   9.904  10.918 -0.0501  0.0461  0.0821
 1495W        W 5546   8.727   7.472   0.969  0.0817  0.0786  0.0305
 1496W        W 5547   9.441   1.862  12.328  0.2106  0.0014  0.2856
 1497W        W 5548   6.458   7.621  14.054  0.0395 -0.1897  0.1477
 1498W        W 5549   7.106   0.394  12.736  0.0152 -0.0073 -0.0545
 1499W        W 5550   8.270   1.648  12.986 -0.0705  0.1433  0.0217
 1500W        W 5551   7.328   9.819  10.274 -0.1865 -0.2947  0.0482
 1501W        W 5552   5.237   0.827  11.725 -0.2107  0.0744  0.2023
 1502W        W 5553   4.873   4.112  11.122  0.0152 -0.0477 -0.4133
 1503W        W 5554   5.754   3.724  13.662  0.0855 -0.0700  0.5215
 1504W        W 5555   2.717   3.940  11.654 -0.1739 -0.1612 -0.0821
 1505W        W 5556   7.474   0.968  10.148 -0.0970 -0.1319  0.1919
 1506W        W 5557   6.272   1.350  12.748 -0.1802  0.0882 -0.0166
 1507W        W 5558   3.124   5.738  10.206  0.0392 -0.2147  0.0292
 1508W        W 5559   6.311   6.757   1.705  0.1174  0.1631  0.0087
 1509W        W 5560   1.734   8.481   4.579  0.2178  0.2737 -0.0751
 1510W        W 5561   1.954   8.986   3.494  0.0024 -0.2179  0.0593
 1511W        W 5562   8.609   2.360  10.793 -0.0252  0.1387  0.2988
 1512W        W 5563   3.642   7.421   9.397 -0.0817 -0.1478 -0.2394
 1513W        W 5564   3.624   8.445   9.311 -0.1271  0.1173 -0.1047
 1514W        W 5565   4.627   1.442  12.571 -0.0280 -0.2596 -0.1021
 1515W        W 5566   3.611   8.153  13.466  0.1077  0.0739 -0.1803
 1516W        W 5567   5.452   6.933   2.148 -0.1361 -0.0215 -0.1270
 1517W        W 5568   8.107   7.758  10.980 -0.1159 -0.1115 -0.1219
 1518W        W 5569   7.136   6.679  10.381  0.0507  0.0184  0.0445
 1519W        W 5570   5.505   7.738  11.970 -0.0696 -0.2990  0.1640
 1520W        W 5571   5.989   3.658   1.690 -0.1500 -0.3333 -0.0918
 1521W        W 5572   3.151   4.152   0.849  0.1661 -0.1170  0.1092
 1522W        W 5573   3.824   3.509   9.752 -0.1519  0.2028  0.0629
 1523W        W 5574   4.815   8.445  10.873 -0.1434  0.0396 -0.1818
 1524W        W 5575   9.982   7.020  10.510  0.0621 -0.0550 -0.1192
 1525W        W 5576   6.180   4.120   1.053 -0.2643  0.2665  0.0763
 1526W        W 5577   7.548   3.498   1.052  0.2313 -0.1633 -0.0558
 1527W        W 5578   6.669   6.867  13.215 -0.0938  0.0930 -0.1685
 1528W        W 5579   2.663   2.832   1.017  0.0237  0.2677  0.0996
 1529W        W 5580   0.995   8.413  10.325 -0.0089  0.0838  0.0658
 1530W        W 5581   2.153   9.672   3.189 -0.1021  0.0779  0.0393
 1531W        W 5582   5.965   3.544   0.107  0.0437  0.1828 -0.1051
 1532W        W 5583   0.856   6.759   9.935  0.1295 -0.2169 -0.0249
 1533W        W 5584   8.297   9.061   3.690 -0.0487 -0.0348  0.0027
 1534W        W 5585   4.481   6.473   2.273  0.0971 -0.0304 -0.0126
 1535W        W 5586   1.678   3.703  12.823  0.2294 -0.0740  0.1421
 1536W        W 5587   7.999   1.090  13.748  0.1314  0.0470 -0.1141
 1537W        W 5588   2.407   4.171  13.683 -0.0433 -0.4461 -0.0166
 1538W        W 5589   6.202   6.951  13.966  0.0911 -0.0182  0.4009
 1539W        W 5590   9.121   0.838  14.066  0.0220  0.0919  0.0991
 1540W        W 5591   7.820   2.179   0.619 -0.3271 -0.1895  0.1771
 1541W        W 5592   1.637   0.293  10.603 -0.2074 -0.2004  0.0334
 1542W        W 5593   2.372   7.042  11.243 -0.0555 -0.4196  0.2236
 1543W        W 5594   3.700   1.820  10.450  0.0191 -0.0730 -0.0376
 1544W        W 5595   3.304   6.462   3.737 -0.2088 -0.1969 -0.0335
 1545W        W 5596   3.563   5.041   0.934  0.1665 -0.0848  0.0312
 1546W        W 5597   7.496  10.117  13.394 -0.0700 -0.1451  0.1246
 1547W        W 5598   6.380   4.575   3.313  0.2402  0.3317  0.1064
 1548W        W 5599   5.558   1.833  12.904  0.1033  0.0299  0.0062
 1549W        W 5600   4.056   1.695   1.884 -0.3645 -0.1133 -0.2795
 1550W        W 5601   0.913   2.530  10.326  0.2534 -0.1939  0.3113
 1551W        W 5602   2.303   5.776  12.907  0.5315 -0.0811  0.3265
 1552W        W 5603   2.869   2.763  10.945 -0.0731  0.0598  0.2460
 1553W        W 5604   7.487   1.051   3.656  0.2680 -0.0593  0.1714
 1554W        W 5605  10.144   8.648  13.288  0.3407 -0.2703 -0.0101
 1555W        W 5606  10.044   4.256  10.876 -0.0653 -0.1316  0.0790
 1556W        W 5607   5.693   3.367  10.482  0.0162 -0.0289  0.0583
 1557W        W 5608   2.961   3.479  13.504  0.2697  0.0220 -0.1696
 1558W        W 5609   5.214   7.004   2.623 -0.0693  0.3160 -0.0716
 1559W        W 5610   2.320   3.065   2.527 -0.2704  0.2723 -0.2333
 1560W        W 5611   6.844   9.660   4.004 -0.5526  0.4213 -0.0526
 1561W        W 5612   9.696   6.816   2.072 -0.0430  0.1079 -0.1944
 1562W        W 5613   3.859   3.851   1.654 -0.4748  0.2761  0.0996
 1563W        W 5614   4.684   9.542  10.847  0.1286  0.1997  0.0568
 1564W        W 5615   4.601   7.578   9.968  0.0497 -0.1436 -0.1279
 1565W        W 5616   2.526   7.698  11.889 -0.1949 -0.0749 -0.2168
 1566W        W 5617   7.360   9.193   3.946 -0.0051 -0.0787  0.1635
 1567W        W 5618   3.231   2.920  12.240 -0.0374 -0.0467  0.2180
 1568W        W 5619   4.411   2.920   1.364 -0.0645  0.0572 -0.2070
 1569W        W 5620   2.153   7.130  13.788  0.0327 -0.1123  0.1998
 1570W        W 5621   6.921   3.738   0.156  0.0314 -0.0172  0.0312
 1571W        W 5622   2.909   4.949  11.973 -0.3575 -0.1797 -0.2290
 1572W        W 5623   3.906   4.556   5.501  0.1510  0.0361 -0.0142
 1573W        W 5624   0.629   6.757  11.339 -0.0276  0.2353 -0.4956
 1574W        W 5625   8.367   1.293   2.600 -0.1755 -0.1245  0.3846
 1575W        W 5626   7.439   4.869  10.121  0.0149  0.3171  0.3561
 1576W        W 5627   2.830   6.041   2.660  0.3402 -0.3155  0.0774
 1577W        W 5628   7.737   3.017   0.293  0.0968  0.1269  0.1137
 1578W        W 5629   6.123  10.007  12.194 -0.1976  0.0550 -0.0064
 1579W        W 5630  10.146   3.419  13.123 -0.0102 -0.2781 -0.2172
 1580W        W 5631   0.664   4.592   4.108  0.0291 -0.0262 -0.0281
 1581W        W 5632   7.447   3.459  13.305 -0.1829 -0.0122 -0.0361
 1582W        W 5633   0.532   8.946  11.734 -0.1374  0.0131  0.1583
 1583W        W 5634   5.863   7.661   1.374  0.1721  0.0751  0.0351
 1584W        W 5635   4.607   1.054   2.321 -0.0276  0.0767  0.1313
 1585W        W 5636   2.431  10.120  10.873  0.0939  0.0157  0.0367
 1586W        W 5637   8.965   8.606   0.257 -0.2338 -0.1730  0.2345
 1587W        W 5638   3.795   5.988  11.415  0.1470 -0.0532 -0.1973
 1588W        W 5639   2.354   0.344  13.374 -0.0672  0.2886 -0.0057
 1589W        W 5640   0.106   9.680   4.045 -0.0582  0.3904  0.1425
 1590W        W 5641   2.706   3.882   4.506 -0.2661  0.0798 -0.0722
 1591W        W 5642   1.542   7.354   9.794 -0.1949 -0.2291 -0.0553
 1592W        W 5643   7.908   6.468  11.373  0.0530  0.0018  0.4118
 1593W        W 5644   3.988   2.280   2.078 -0.0006  0.3376 -0.2909
 1594W        W 5645   1.875   9.318  11.754 -0.3076 -0.2037 -0.0276
 1595W        W 5646   6.642   1.088  10.994 -0.0705 -0.2187  0.1006
 1596W        W 5647   2.887   7.270   9.655 -0.0411 -0.4275 -0.2575
 1597W        W 5648   4.327   4.577   3.656  0.0446 -0.0239 -0.2144
 1598W        W 5649   7.513   5.225  10.829  0.1729  0.2110  0.1485
 1599W        W 5650   4.098   0.048   4.021  0.1975  0.0802  0.4665
 1600W        W 5651   3.996   6.755  10.625  0.0647  0.1531 -0.3847
 1601W        W 5652   5.234   9.904   0.621 -0.3463  0.3029 -0.1858
 1602W        W 5653   3.946   2.233   4.028  0.2690 -0.0810 -0.1217
 1603W        W 5654   6.421   7.727  13.049  0.1503 -0.1894  0.1427
 1604W        W 5655   9.950   5.333  11.745 -0.0127 -0.2227 -0.1527
 1605W        W 5656   6.432   2.360   4.509 -0.2576 -0.2253 -0.1378
 1606W        W 5657   8.071   1.891   0.306  0.0379 -0.3037  0.0476
 1607W        W 5658   4.959   2.241  11.830 -0.3059 -0.2391 -0.2536
 1608W        W 5659   1.358   1.801   9.906 -0.0700 -0.2648  0.0852
 1609W        W 5660   7.798   3.635  11.108  0.2798  0.2246 -0.0039
 1610W        W 5661   4.221   6.356  11.536 -0.0236 -0.0411  0.2374
 1611W        W 5662   1.600   5.605  13.716  0.0069 -0.1779 -0.0835
 1612W        W 5663   0.775   3.278  13.221 -0.2701 -0.1746  0.1299
 1613W        W 5664   1.391   5.667   0.619  0.1110 -0.0321  0.1138
 1614W        W 5665   4.643   1.542  11.854 -0.1306 -0.1051 -0.0474
 1615W        W 5666   6.789   5.396   2.940  0.0086  0.2264  0.2118
 1616W        W 5667   6.075   4.629   1.185  0.1227 -0.1669  0.0419
 1617W        W 5668   6.444   4.981   2.998 -0.2518 -0.2215  0.0154
 1618W        W 5669   3.587   1.583   5.844 -0.0682 -0.0830 -0.0770
 1619W        W 5670   0.333   0.566   9.270 -0.1802 -0.2345 -0.2508
 1620W        W 5671   7.746   3.338   8.029 -0.1357 -0.0570  0.1132
 1621W        W 5672   2.687   4.661  12.474  0.1564  0.4724 -0.1726
 1622W        W 5673  10.037   3.882   2.536  0.1631  0.2559 -0.0531
 1623W        W 5674   2.529   2.140   8.699  0.0484 -0.0107  0.3397
 1624W        W 5675   3.951   7.214  12.874  0.2014  0.0919 -0.0373
 1625W        W 5676   9.609   3.269  10.771  0.0297 -0.0232  0.2269
 1626W        W 5677   6.823   4.019  10.832 -0.0675  0.2396 -0.1395
 1627W        W 5678   9.039   4.219   2.861  0.1787  0.7659  0.3749
 1628W        W 5679   0.966   4.572   0.499 -0.0880 -0.1179  0.1305
 1629W        W 5680   0.639   9.373  13.172  0.0375  0.3354 -0.1037
 1630W        W 5681   5.142   6.512  13.921 -0.0821  0.1703 -0.1282
 1631W        W 5682   1.578   1.556   1.907  0.3405 -0.1318  0.3731
 1632W        W 5683   3.780   8.596   4.014 -0.1417  0.0149  0.0719
 1633W        W 5684   0.000   7.536   2.804  0.1890 -0.1170  0.0703
 1634W        W 5685   8.764   0.939   0.380  0.0044 -0.2560 -0.3843
 1635W        W 5686   3.725   7.891  10.025  0.1045  0.1202  0.1989
 1636W        W 5687   5.854   6.006  12.938 -0.0761  0.2299 -0.0277
 1637W        W 5688   7.912   3.906   3.921 -0.0582  0.0572 -0.0304
 1638W        W 5689   1.744   7.438  11.807 -0.2671  0.1423 -0.3991
 1639W        W 5690   1.373   6.817  11.428  0.1457  0.1715  0.1402
 1640W        W 5691   2.552   4.378  11.266 -0.0416 -0.1501  0.2366
 1641W        W 5692   9.739   1.070   9.220  0.1645  0.2984  0.2734
 1642W        W 5693   1.635   8.666  13.746 -0.2894 -0.0902 -0.4753
 1643W        W 5694   0.767  10.086  11.195  0.0560 -0.0565 -0.0383
 1644W        W 5695   0.597   6.061   1.379  0.1491  0.3464 -0.2347
 1645W        W 5696   5.008   9.283  10.378 -0.1249 -0.0532  0.0061
 1646W        W 5697   0.328   7.679  11.095  0.1281 -0.0873 -0.0651
 1647W        W 5698   2.403   1.364  13.290 -0.2342  0.2692 -0.4285
 1648W        W 5699   2.058   3.395   3.396 -0.0145  0.0093  0.1790
 1649W        W 5700   8.764   1.429  10.079  0.0217 -0.1921  0.2900
 1650W        W 5701   4.815   3.195  13.807 -0.0823 -0.0459  0.1445
 1651W        W 5702   6.699   8.297   2.757 -0.1939 -0.0763 -0.1129
 1652W        W 5703   4.706   0.188  11.117 -0.1004 -0.1337  0.2201
 1653W        W 5704   5.313   4.172  13.340 -0.0501 -0.2024  0.3374
 1654W        W 5705   9.479   5.659   0.068 -0.3466  0.1129  0.0658
 1655W        W 5706   5.689   4.399   4.674  0.2173  0.1822  0.1251
 1656W        W 5707   0.838   7.886   0.740 -0.1113  0.0901  0.0101
 1657W        W 5708   4.263   4.219   0.761  0.0197  0.4171 -0.1979
 1658W        W 5709   2.989   2.412   3.348  0.2352 -0.2160  0.0413
 1659W        W 5710   2.991   0.249  11.646 -0.0078  0.0365 -0.2075
 1660W        W 5711   8.536   8.310  12.291 -0.2147  0.2712  0.2542
 1661W        W 5712   5.270   1.612   9.402  0.1230 -0.3801 -0.0410
 1662W        W 5713   0.392   1.849  12.145 -0.2138  0.0474  0.1603
 1663W        W 5714   8.444   1.938   4.916 -0.0070  0.0910  0.0918
 1664W        W 5715   2.663   9.285  13.615  0.1466  0.0344 -0.2083
 1665W        W 5716   8.701   7.586  11.344 -0.1029  0.0481 -0.4077
 1666W        W 5717   3.211   9.947   9.883 -0.0178  0.1560  0.0101
 1667W        W 5718   0.653   7.676  13.887  0.1133 -0.0156  0.3523
 1668W        W 5719   7.828   9.128  12.795  0.2105 -0.0328 -0.0785
 1669W        W 5720   1.417   4.413  12.865  0.0056  0.2097 -0.0092
 1670W        W 5721   4.605   2.494   1.053 -0.1277  0.1798  0.2937
 1671W        W 5722   1.658   9.430   5.475 -0.2198  0.0395  0.2712
 1672W        W 5723   8.681   2.676   9.363 -0.1314  0.0812  0.3022
 1673W        W 5724   6.913   7.385  11.820 -0.1202  0.1803 -0.0370
 1674W        W 5725   9.391   0.884   3.316  0.4664  0.3529 -0.2854
 1675W        W 5726   7.385   4.427   0.464 -0.1684  0.1341  0.2655
 1676W        W 5727   5.453   6.299  12.303 -0.1013 -0.1732 -0.1788
 1677W        W 5728   3.537   1.218  11.611  0.2880  0.0159  0.0451
 1678W        W 5729   1.014   1.509  12.913  0.0547 -0.0438 -0.0314
 1679W        W 5730   1.599   5.291  11.017  0.0250  0.1110 -0.0002
 1680W        W 5731   7.300   3.936  13.086  0.1143  0.4586  0.1795
 1681W        W 5732   5.835   9.629   9.901  0.2933  0.0950  0.0752
 1682W        W 5733   6.230   3.459  10.404  0.2444  0.0004  0.1657
 1683W        W 5734   1.818   1.012   3.594  0.1358 -0.0640 -0.1201
 1684W        W 5735   0.575   5.452   4.399  0.1579 -0.1565  0.0019
 1685W        W 5736   5.213   7.473  10.967  0.0720  0.1767 -0.1432
 1686W        W 5737   4.358   6.462   1.051 -0.0369  0.0981 -0.0809
 1687W        W 5738   2.009   8.146   0.202  0.3603  0.0481  0.1389
 1688W        W 5739   7.110   8.017   2.162 -0.0062  0.1710  0.0320
 1689W        W 5740   5.429   6.507   2.512 -0.3208 -0.4489 -0.0322
 1690W        W 5741   4.327   6.206   0.211  0.0462 -0.0913  0.1383
 1691W        W 5742   3.065   9.049  13.270 -0.1790 -0.0666 -0.2912
 1692W        W 5743   4.092   7.784   2.487 -0.3174 -0.1432 -0.3355
 1693W        W 5744   6.784   9.885   0.660  0.1755 -0.2742  0.2240
 1694W        W 5745   0.510   9.935  11.900  0.1749  0.1270  0.1077
 1695W        W 5746   6.218   6.691   1.035 -0.1598 -0.0487 -0.0696
 1696W        W 5747   6.066   3.833  12.132  0.2163 -0.2171  0.1079
 1697W        W 5748   1.393   1.437   4.951  0.0015  0.1421  0.1915
 1698W        W 5749   5.897   3.149  10.130 -0.2741  0.2355 -0.0024
 1699W        W 5750   5.840   2.710   4.052 -0.1106  0.1362  0.0097
 1700W        W 5751   0.746   6.224  11.665 -0.1440 -0.0104  0.2006
 1701W        W 5752   7.219   9.258  13.448 -0.1396  0.2137 -0.1027
 1702W        W 5753   8.793   9.656  10.744 -0.0466 -0.0413 -0.1494
 1703W        W 5754   1.773   9.360  10.844  0.2686  0.0009 -0.0966
 1704W        W 5755   6.391   7.194  12.418  0.0877 -0.0315 -0.3433
 1705W        W 5756   4.937   1.045  12.607 -0.0637  0.0361 -0.1600
 1706W        W 5757   1.474   0.024   1.361 -0.2563  0.0017  0.1564
 1707W        W 5758   8.062   5.789   2.229  0.0598  0.0785  0.3043
 1708W        W 5759   2.678   7.431   3.829 -0.1626  0.1669  0.1589
 1709W        W 5760   0.431   4.022  11.284 -0.0419  0.0068  0.1320
 1710W        W 5761   1.069   3.731  10.369  0.0751 -0.0810 -0.1139
 1711W        W 5762   2.673   9.808   0.816 -0.1406  0.2609  0.2267
 1712W        W 5763   8.670   5.952  13.839  0.1228 -0.0624 -0.0308
 1713W        W 5764   9.842   9.538  10.954  0.2287  0.0290 -0.1950
 1714W        W 5765   7.072   1.297  10.896 -0.2884 -0.4567 -0.1562
 1715W        W 5766   7.545   9.791  12.989 -0.1022  0.2210 -0.2887
 1716W        W 5767   9.695   6.716  13.273  0.1326  0.1525  0.1604
 1717W        W 5768   4.259   0.099  12.820  0.0837 -0.0770  0.1180
 1718W        W 5769   4.229   1.816   5.213 -0.2347 -0.0393 -0.2553
 1719W        W 5770   8.878   4.897   4.225 -0.4897  0.1331  0.0529
 1720W        W 5771   4.268   8.421  12.235  0.0474  0.2100 -0.1355
 1721W        W 5772   8.319   3.048  13.459 -0.0020 -0.3445  0.0478
 1722W        W 5773   8.894   5.260   3.806  0.0141 -0.0853 -0.0911
 1723W        W 5774   6.935   4.234   0.073  0.0234 -0.2065 -0.0477
 1724W        W 5775   8.475   6.101   2.368  0.2557 -0.1575  0.0266
 1725W        W 5776   4.973   7.527  12.832 -0.0685 -0.2264  0.0294
 1726W        W 5777   0.746   6.446   3.036 -0.0931 -0.3278  0.2856
 1727W        W 5778   5.025   0.072  10.734 -0.4137 -0.2094  0.0858
 1728W        W 5779   5.994   5.921   1.509  0.0863  0.4526  0.0422
 1729W        W 5780   2.059   9.787   9.949  0.2041 -0.0363 -0.4047
 1730W        W 5781   7.103   1.274  14.036  0.0077  0.0964  0.0428
 1731W        W 5782   5.659   6.336  11.047 -0.0129  0.3282 -0.5022
 1732W        W 5783   5.901   1.465   3.007 -0.0234 -0.1993 -0.0902
 1733W        W 5784   2.084   8.227  11.183  0.3489 -0.1266 -0.0806
 1734W        W 5785   1.783   2.885   1.645  0.1664  0.1746  0.3222
 1735W        W 5786   1.920   3.560  10.866 -0.0473  0.0402 -0.1677
 1736W        W 5787   0.368   5.348  11.649 -0.0647 -0.1454 -0.1552
 1737W        W 5788   8.795   8.657   1.066 -0.2298  0.1778  0.1232
 1738W        W 5789   9.312   1.777  13.446  0.3923  0.0302  0.0660
 1739W        W 5790   9.450   4.936   1.669  0.1926  0.0018 -0.0640
 1740W        W 5791   1.308   9.994  11.379 -0.0395  0.1719 -0.0528
 1741W        W 5792   8.016   5.802  12.555 -0.1726 -0.0530  0.3387
 1742W        W 5793   6.946   4.297   4.486 -0.2587  0.1614  0.3394
 1743W        W 5794   3.565   8.148  10.446  0.2084 -0.0326 -0.1599
 1744W        W 5795   0.364   5.351  10.059  0.0235 -0.1695  0.1073
 1745W        W 5796   7.361   8.795  10.748 -0.0378 -0.4578  0.1152
 1746W        W 5797   4.739   0.005   3.878  0.2231 -0.1061 -0.2938
 1747W        W 5798   2.462   7.006   2.139  0.2366  0.1486 -0.0916
 1748W        W 5799   5.686   9.497  12.528 -0.3945 -0.1357 -0.1705
 1749W        W 5800   9.388   5.420   3.800  0.2158 -0.0815 -0.1734
 1750W        W 5801   6.492   6.388   1.418  0.0827  0.3072  0.0259
 1751W        W 5802   3.568   9.801   4.658  0.0168 -0.0220 -0.0283
 1752W        W 5803   9.080   7.422  12.906  0.0154  0.1820  0.0343
 1753W        W 5804   8.251   4.933  12.434 -0.0210  0.3089 -0.0231
 1754W        W 5805   6.827   9.202   3.753  0.0928  0.0902 -0.0614
 1755W        W 5806   5.799   0.025   0.019 -0.1431 -0.1506  0.0434
 1756W        W 5807   9.754   1.887   2.098 -0.2022 -0.1607 -0.2454
 1757W        W 5808   0.659   6.872   0.861  0.2973  0.0981  0.0416
 1758W        W 5809   1.478   4.099   3.135 -0.1782 -0.0634  0.0978
 1759W        W 5810   2.604   6.929  10.662 -0.2207 -0.2056  0.0021
 1760W        W 5811   2.915   5.496   9.182  0.0558  0.0900 -0.0676
 1761W        W 5812   8.424   2.731   3.871 -0.1278  0.2072 -0.1832
 1762W        W 5813   7.140   9.579  10.762 -0.0985 -0.1198  0.3087
 1763W        W 5814   5.987   2.899   1.157 -0.0495  0.1435  0.0275
 1764W        W 5815   4.849   8.451  13.155 -0.1183  0.4293 -0.3146
 1765W        W 5816   9.937   1.680   9.760 -0.0305  0.0886  0.0238
 1766W        W 5817   6.443   1.447   3.215 -0.1177 -0.2628 -0.0659
 1767W        W 5818   6.104   6.382  13.924 -0.3595 -0.1202 -0.0773
 1768W        W 5819   1.559   8.929   9.948 -0.0598 -0.2117  0.1310
 1769W        W 5820   2.267   3.123  10.141  0.0047 -0.4004  0.2122
 1770W        W 5821   2.507   0.798  10.443 -0.4207  0.0152  0.0539
 1771W        W 5822   2.647   0.996   5.113 -0.2273  0.2310  0.0129
 1772W        W 5823   9.012   5.244  13.104  0.3803 -0.3119  0.0844
 1773W        W 5824   5.580   8.938  12.316  0.3029 -0.2766  0.0983
 1774W        W 5825   3.817   3.122  10.880 -0.1532  0.4251  0.0257
 1775W        W 5826   5.995   9.739   0.186  0.0128 -0.0827 -0.1654
 1776W        W 5827   9.874   6.998   9.629 -0.0387 -0.2230  0.0167
 1777W        W 5828   5.653   7.588  13.650  0.0149  0.1833  0.0707
 1778W        W 5829   3.067   8.817   2.848  0.0203  0.0119 -0.3462
 1779W        W 5830   9.062   4.365   1.223 -0.3298  0.2083  0.1019
 1780W        W 5831   4.148   8.966  11.585  0.1172  0.2035 -0.1523
 1781W        W 5832   6.293   2.323   9.267 -0.3725  0.2554 -0.2993
 1782W        W 5833   4.272   0.211  13.720 -0.1455  0.1348  0.3007
 1783W        W 5834   0.937   2.933   1.417  0.0401 -0.1592 -0.4088
 1784W        W 5835   5.937   2.609  10.481  0.2995 -0.0602 -0.0915
 1785W        W 5836   4.611   2.920  11.856  0.1745 -0.2015  0.3705
 1786W        W 5837   1.438   1.041   5.346 -0.1167  0.1304  0.2433
 1787W        W 5838   3.245   8.024   1.265  0.1924  0.0751 -0.2388
 1788W        W 5839   1.378   6.430   1.997  0.1265 -0.2433 -0.0204
 1789W        W 5840   0.278   9.911   1.107 -0.1598  0.0022 -0.4486
 1790W        W 5841   0.231   3.436  11.332 -0.2237 -0.0143  0.3414
 1791W        W 5842   3.848   6.885   3.240 -0.1042 -0.1794  0.2126
 1792W        W 5843   4.483   0.687  11.321  0.0491  0.1551 -0.2954
 1793W        W 5844   2.894   6.868   3.917 -0.2760 -0.2431 -0.0222
 1794W        W 5845   7.877   7.732   2.565  0.0433 -0.0723  0.1711
 1795W        W 5846   9.959   3.041   9.846 -0.1905  0.2747 -0.1269
 1796W        W 5847   0.249   0.044   3.342  0.0561  0.0328  0.2493
 1797W        W 5848   5.053   7.668   4.375  0.1142 -0.2937 -0.4253
 1798W        W 5849   6.874   4.854  12.192  0.2006 -0.0897 -0.0965
 1799W        W 5850   7.041   5.945  12.167 -0.1718  0.2898 -0.1597
 1800W        W 5851   0.184   6.074  12.588  0.1114 -0.1595 -0.2033
 1801W        W 5852   0.309   1.488   1.127  0.1584  0.1534 -0.2785
 1802W        W 5853   7.403   7.626  11.287  0.3354  0.2528 -0.5479
 1803W        W 5854   5.485   0.205  13.352 -0.1071 -0.0600 -0.0224
 1804W        W 5855   3.135   1.843   2.051  0.0023  0.0263 -0.1642
 1805W        W 5856   2.701   1.108  13.630 -0.1673  0.0521  0.0552
 1806W        W 5857   3.577   2.450  11.940  0.1044  0.2726 -0.1501
 1807W        W 5858   7.350   0.639   9.315  0.2119  0.0666  0.1706
 1808W        W 5859   3.667   5.505   1.077  0.1324  0.2735 -0.0405
 1809W        W 5860   6.288   2.469  10.802 -0.0916 -0.1607 -0.0340
 1810W        W 5861   6.178   9.472   1.622 -0.0657 -0.2517  0.2146
 1811W        W 5862   2.096   4.291   1.862  0.1830  0.3762 -0.0542
 1812W        W 5863   4.132   6.257   2.575 -0.0837 -0.0413  0.1441
 1813W        W 5864   0.596   1.598   4.680 -0.1672 -0.1121  0.4061
 1814W        W 5865   2.144   9.920   4.979 -0.0859  0.0188  0.1091
 1815W        W 5866   9.748   7.069  12.412  0.0423 -0.1612  0.0678
 1816W        W 5867   7.916   4.071   5.306 -0.2129  0.0459  0.1816
 1817W        W 5868   3.160   3.795   8.968 -0.2184  0.1933 -0.1513
 1818W        W 5869   9.486   4.203  10.934  0.1510 -0.3529  0.0356
 1819W        W 5870   3.857   4.295  10.507 -0.1214  0.0396  0.2315
 1820W        W 5871   6.713   7.029   2.430 -0.0779  0.1309 -0.0186
 1821W        W 5872   7.984   7.070   0.436  0.0872  0.0009  0.0321
 1822W        W 5873   0.666   4.646   1.204 -0.1456 -0.0778 -0.0702
 1823W        W 5874   8.622   0.246  12.613  0.4863 -0.1229 -0.1765
 1824W        W 5875   8.193   6.036  11.001  0.0197  0.0473  0.1787
 1825W        W 5876   4.902   6.598   2.482 -0.1303  0.1091 -0.0705
 1826W        W 5877  10.147   7.197   3.951  0.0502 -0.0608  0.1523
 1827W        W 5878   0.076   3.813  13.912 -0.1557 -0.3591 -0.3127
 1828W        W 5879   1.470   4.349   1.185 -0.1889 -0.1407  0.1084
 1829W        W 5880   4.042   9.025   1.025  0.1624 -0.3402  0.0010
 1830W        W 5881   9.110   2.133   0.904  0.0799  0.1558 -0.0366
 1831W        W 5882   5.606   0.912  10.243 -0.0384 -0.0245 -0.1093
 1832W        W 5883   8.937   7.727   0.585  0.0727  0.1285 -0.1205
 1833W        W 5884   0.202   5.230   4.656 -0.0764 -0.1469 -0.3969
 1834W        W 5885   1.901   0.264  12.605 -0.1399 -0.4289 -0.4005
 1835W        W 5886   7.602   5.907  10.250  0.0167 -0.1169  0.4596
 1836W        W 5887   7.335   9.276   1.832 -0.1504 -0.0812  0.1129
 1837W        W 5888   4.268   7.144   2.163  0.2619 -0.1775 -0.0776
 1838W        W 5889   7.092   8.961   0.610 -0.0922 -0.1747 -0.1384
 1839W        W 5890   4.917   5.501   9.072 -0.1185 -0.1355  0.2454
 1840W        W 5891   0.190   9.565   3.180  0.0062  0.3060 -0.0381
 1841W        W 5892   0.317   4.524   1.522 -0.0009 -0.1889 -0.1405
 1842W        W 5893   7.689   4.468  12.240  0.0077 -0.4045  0.3364
 1843W        W 5894   2.609   6.161  12.955  0.1414 -0.3176  0.3056
 1844W        W 5895   6.522   9.778  12.009 -0.1010  0.1408 -0.0728
 1845W        W 5896   0.569   0.654   1.975  0.0434  0.0038 -0.2881
 1846W        W 5897   3.509   4.043  10.245 -0.3505  0.0504 -0.0448
 1847W        W 5898   8.438   8.085   1.784 -0.0912 -0.1903  0.0038
 1848W        W 5899   8.035   8.406  12.080 -0.1657 -0.2641  0.1945
 1849W        W 5900   8.253   0.159  12.318  0.1261  0.4340  0.3345
 1850W        W 5901   0.004   8.950  10.935  0.1537 -0.0254  0.0816
 1851W        W 5902   1.859   8.315   5.073 -0.1997 -0.2939 -0.0660
 1852W        W 5903   4.417   8.126  10.831 -0.2037  0.0497 -0.1556
 1853W        W 5904   7.451   4.475   9.425  0.1339 -0.1071 -0.0370
 1854W        W 5905   0.822   0.934   3.645 -0.0072  0.0453 -0.0090
 1855W        W 5906   1.462   1.944   1.261  0.0704  0.0506 -0.1124
 1856W        W 5907   5.986   4.197  10.271  0.1834 -0.1648 -0.0719
 1857W        W 5908   2.360   9.009   5.138 -0.2108 -0.1247  0.0337
 1858W        W 5909   9.094   4.041   3.834 -0.1462  0.1149  0.4479
 1859W        W 5910   7.937   1.297   3.513 -0.3062  0.0172  0.3352
 1860W        W 5911   9.990   0.608   5.535 -0.2716  0.1506  0.1577
 1861W        W 5912   0.083   3.924  13.389 -0.0005  0.3479 -0.2747
 1862W        W 5913   3.238   9.283   3.949  0.2742  0.1263 -0.0210
 1863W        W 5914   4.474   6.438  12.273 -0.1429  0.1477  0.3513
 1864W        W 5915   6.668   2.524   8.431 -0.1469  0.5408 -0.0060
 1865W        W 5916   5.082   8.810  12.877 -0.0848 -0.2799  0.1403
 1866W        W 5917   9.367   7.205  12.059  0.2357 -0.3982 -0.0276
 1867W        W 5918   2.802   5.839  11.791  0.2051 -0.0708  0.0343
 1868W        W 5919   8.468   5.850  12.223  0.2488 -0.2574 -0.3150
 1869W        W 5920   3.408   5.867   0.380  0.1107 -0.1109  0.1907
 1870W        W 5921   5.129   3.884  11.708  0.2333 -0.0838  0.2660
 1871W        W 5922   7.341   2.776   3.995 -0.0489 -0.0879  0.1069
 1872W        W 5923   5.398   2.675  12.350  0.2305  0.2291 -0.2380
 1873W        W 5924   9.489   8.740   2.470 -0.1335 -0.3650  0.2564
 1874W        W 5925   7.351   2.383  10.574 -0.1915 -0.1653  0.0635
 1875W        W 5926   0.235   5.192   4.132 -0.1575 -0.1032  0.1413
 1876W        W 5927   4.142   4.406  13.105  0.4741  0.0357  0.3243
 1877W        W 5928   2.011   4.643  11.682  0.1064  0.1722  0.1071
 1878W        W 5929   9.812   5.439   9.674  0.0228  0.0560  0.0770
 1879W        W 5930   9.664   6.208  11.900 -0.1843  0.0728 -0.2552
 1880W        W 5931   3.093   2.922   1.209 -0.4449 -0.1027 -0.0584
 1881W        W 5932   4.362   8.559  13.216  0.2940  0.1471 -0.2206
 1882W        W 5933   3.856   7.041   9.658 -0.2340  0.1842 -0.0490
 1883W        W 5934   6.699   7.569   1.654 -0.2704 -0.0511  0.0607
 1884W        W 5935   6.018   7.534  10.382  0.2390  0.0185  0.0953
 1885W        W 5936  10.026   4.559   9.936  0.5096 -0.0290  0.0089
 1886W        W 5937   7.221   5.575  12.537  0.3287  0.0002  0.3331
 1887W        W 5938   9.885   7.623  12.257  0.2729 -0.4201 -0.1066
 1888W        W 5939   4.341   5.193   3.781 -0.1016 -0.0286  0.0161
 1889W        W 5940   1.920   4.714   0.419  0.1612  0.0421 -0.2167
 1890W        W 5941   3.177   5.505  10.990  0.2039 -0.2688  0.2735
 1891W        W 5942   6.440   0.851  12.433  0.0794 -0.3006  0.3065
 1892W        W 5943   5.982   2.052  12.978  0.1587  0.3357  0.0971
 1893W        W 5944   6.180   6.693  13.152  0.1114 -0.1576  0.4229
 1894W        W 5945   5.859   3.719  10.161 -0.1092  0.1054 -0.1342
 1895W        W 5946   3.027   2.630  10.484 -0.1756 -0.1586  0.2574
 1896W        W 5947   9.891   2.365  10.169 -0.0743  0.0469 -0.0560
 1897W        W 5948   7.934   4.211   4.350  0.3190  0.0525  0.1392
 1898W        W 5949   1.206   2.804   3.511  0.0906 -0.0959 -0.2694
 1899W        W 5950   5.526   0.866   4.313 -0.0144  0.0434 -0.1044
 1900W        W 5951   5.409   2.592  11.853 -0.2125  0.0840  0.1363
 1901W        W 5952   4.485   7.496   2.889  0.0631 -0.1163  0.0669
 1902W        W 5953   0.092   5.185  12.673  0.1759  0.0387 -0.0259
 1903W        W 5954   3.980   8.644   1.274 -0.0361 -0.2551  0.2324
 1904W        W 5955   2.820   6.388  11.906 -0.3505 -0.0212  0.1652
 1905W        W 5956   5.014   7.967  13.048  0.0253  0.1652 -0.0199
 1906W        W 5957   2.635   0.915  11.691 -0.0711 -0.1160  0.0169
 1907W        W 5958   0.098   0.224  13.610  0.4034  0.0073  0.0274
 1908W        W 5959   7.148   3.656   2.045  0.3428  0.1686  0.0680
 1909W        W 5960   0.462   7.301  11.510 -0.0031 -0.2579 -0.2067
 1910W        W 5961   4.651   1.857   2.828  0.0173  0.1057  0.0000
 1911W        W 5962   6.632   5.353   8.759  0.0677  0.1051  0.2256
 1912W        W 5963   3.111   5.802   1.815 -0.0563  0.0070 -0.1386
 1913W        W 5964   3.719   1.861   2.286 -0.1252 -0.1056 -0.0693
 1914W        W 5965   6.158   0.146   2.709 -0.2264  0.1410 -0.1563
 1915W        W 5966   5.926   5.065   4.745 -0.2868  0.1989 -0.0928
 1916W        W 5967   7.314   9.507   0.035  0.0048 -0.0209 -0.2516
 1917W        W 5968   2.378   1.914  11.808 -0.0377 -0.2377  0.1658
 1918W        W 5969   9.607   6.824   9.008  0.2079 -0.2292 -0.0901
 1919W        W 5970   1.689   3.618   0.028  0.0773  0.1514  0.2929
 1920W        W 5971   7.249   5.647   9.439 -0.0284 -0.2329 -0.0687
 1921W        W 5972   1.806   0.131  10.120  0.0081  0.3847 -0.1824
 1922W        W 5973   8.944   5.544  10.730 -0.1833  0.0060 -0.0742
 1923W        W 5974   6.137   3.049  11.876 -0.1976 -0.1821 -0.1058
 1924W        W 5975   4.572   5.225   2.627  0.1316  0.0540  0.1508
 1925W        W 5976   0.557   3.388   0.092  0.1536  0.1668 -0.0604
 1926W        W 5977   4.577   2.647   4.774 -0.0389 -0.1920 -0.1836
 1927W        W 5978   5.166   8.764   3.018  0.0003 -0.1877  0.2342
 1928W        W 5979   0.093   0.113   2.385  0.0544  0.2496  0.2765
 1929W        W 5980   9.403   6.099   1.251 -0.0050  0.0392  0.1850
 1930W        W 5981   8.222   0.915   1.690 -0.0456 -0.1640  0.2134
 1931W        W 5982   5.021   9.125  10.896 -0.0733  0.1374 -0.3149
 1932W        W 5983   1.524   2.702  10.816  0.0302 -0.1862 -0.1821
 1933W        W 5984   4.835   3.799  13.358  0.0370 -0.0601 -0.2014
 1934W        W 5985   3.091   0.996  11.469 -0.1134 -0.2301 -0.3512
 1935W        W 5986   8.224   0.797  13.380 -0.0044 -0.0389 -0.2669
 1936W        W 5987   6.558   1.275  14.039  0.1922 -0.0754 -0.1688
 1937W        W 5988   8.705   3.142   2.972  0.2001 -0.0914  0.0050
 1938W        W 5989   4.117   3.952  11.784 -0.0080  0.1455 -0.0013
 1939W        W 5990   4.849   4.828  12.915  0.1440  0.4595  0.0565
 1940W        W 5991   8.911   0.437  13.154 -0.1432 -0.1255 -0.1710
 1941W        W 5992   4.987   1.031   6.078 -0.2667  0.1485  0.0511
 1942W        W 5993   1.478   5.674   2.367  0.1534 -0.0781  0.1519
 1943W        W 5994   2.309   8.145   0.601 -0.1297  0.2247  0.1295
 1944W        W 5995   2.614   2.220  13.573 -0.0525  0.1591 -0.1058
 1945W        W 5996   2.957   6.416   2.280  0.2225  0.0508 -0.3423
 1946W        W 5997   9.384   9.975  10.013  0.0754  0.3246 -0.1605
 1947W        W 5998   5.937   7.104  10.591 -0.0626 -0.0740  0.0550
 1948W        W 5999   5.950   4.074  13.375 -0.4227 -0.0806 -0.4890
 1949W        W 6000   6.429   2.599   2.357  0.0893  0.1055  0.1364
 1950W        W 6001   3.618   0.962  13.856 -0.3461 -0.0088 -0.0389
 1951W        W 6002   9.848   8.457   4.092  0.1987  0.0958  0.0939
 1952W        W 6003   8.365   5.282   3.671  0.2829  0.0067 -0.0391
 1953W        W 6004   9.916   4.878   3.347  0.1887 -0.1769  0.1628
 1954W        W 6005   6.863   7.920  13.319  0.3755 -0.1556  0.2569
 1955W        W 6006   4.085   0.958   3.135 -0.0430 -0.4037  0.0571
 1956W        W 6007   7.199   4.831  13.654  0.0173 -0.3224 -0.0988
 1957W        W 6008   5.484  10.029  10.514  0.2551 -0.0559 -0.0739
 1958W        W 6009   2.576   8.732   1.769  0.1747 -0.2689 -0.2139
 1959W        W 6010   1.092   2.505  12.846  0.3068  0.1166  0.0735
 1960W        W 6011   3.075   9.154   4.590 -0.0608 -0.1177  0.0076
 1961W        W 6012   2.028  10.040   3.958  0.2025 -0.2438 -0.0618
 1962W        W 6013   6.853   2.597   2.696 -0.1075  0.0166 -0.1037
 1963W        W 6014   7.490   1.671  12.282  0.2850 -0.0196 -0.0517
 1964W        W 6015   8.191   9.576   3.604 -0.2536 -0.3554  0.1715
 1965W        W 6016   7.922   5.387   0.802 -0.4566  0.1201 -0.0938
 1966W        W 6017   3.264   9.415  12.576  0.1631 -0.0861  0.2723
 1967W        W 6018   4.543   9.902  12.028  0.0734  0.2022 -0.1459
 1968W        W 6019  10.089   8.166   2.404  0.0320  0.0433 -0.2192
 1969W        W 6020   9.515   8.746   0.977 -0.0210  0.0500 -0.0299
 1970W        W 6021   0.639   9.829   1.573  0.1443  0.2164  0.1060
 1971W        W 6022   9.322   0.723   3.890  0.0845  0.0953 -0.0782
 1972W        W 6023   3.705   2.667   5.180 -0.2335  0.2802  0.1959
 1973W        W 6024   5.822   7.359  10.012  0.0166  0.0340 -0.0641
 1974W        W 6025   1.376   3.672  13.766  0.0843 -0.0768 -0.1560
 1975W        W 6026   5.847   3.221  13.884  0.2791  0.0185  0.2495
 1976W        W 6027   4.008   5.866   4.192 -0.0567  0.0972 -0.0555
 1977W        W 6028   9.168   9.293   2.633  0.1964  0.0071 -0.0505
 1978W        W 6029   2.900   7.409   3.322  0.2502  0.1274 -0.2449
 1979W        W 6030   8.087   3.889  10.614  0.3610 -0.0669 -0.1766
 1980W        W 6031   1.544   2.392  12.594  0.3867 -0.1318 -0.3546
 1981W        W 6032   6.587   0.214  13.308  0.3395  0.1820  0.1014
 1982W        W 6033   2.604   8.098  12.719 -0.1604 -0.2064  0.3354
 1983W        W 6034   3.329   2.879  13.300 -0.0238  0.0768  0.1208
 1984W        W 6035   8.660   3.411  12.261 -0.2233 -0.1516  0.2580
 1985W        W 6036   7.492   5.309  11.312  0.0744  0.1999 -0.3142
 1986W        W 6037   0.599   6.734  13.176  0.3483  0.1125  0.2245
 1987W        W 6038   2.096   3.317   4.419 -0.2315 -0.1705 -0.0817
 1988W        W 6039   8.006   4.615  10.130 -0.0403 -0.2602 -0.3656
 1989W        W 6040   1.558   1.493   4.459 -0.0431 -0.1905 -0.0899
 1990W        W 6041   1.145   1.821   4.660  0.1142  0.0878  0.0987
 1991W        W 6042   5.259   4.344   0.583 -0.1064 -0.2327  0.1054
 1992W        W 6043   3.895   9.859   4.280 -0.1758  0.1057  0.0589
 1993W        W 6044   5.735   4.762  11.713  0.0078  0.2282  0.1477
 1994W        W 6045   4.521   0.273  12.097 -0.1521 -0.1743  0.0890
 1995W        W 6046   7.050   6.400  10.958 -0.0536  0.2472  0.1908
 1996W        W 6047   0.243   5.470   2.187 -0.0430  0.2406  0.3725
 1997W        W 6048   4.108   9.530  12.337  0.0517  0.0526  0.3901
 1998W        W 6049   6.109   1.690  12.114 -0.2610 -0.1852  0.0307
 1999W        W 6050   3.151   5.982   4.951  0.2673 -0.1985 -0.3218
 2000W        W 6051   7.438   0.394   1.536  0.0497 -0.2578  0.0443
 2001W        W 6052   2.898   5.657   5.225  0.1516  0.2873  0.1426
 2002W        W 6053   1.093   9.834  10.525 -0.2424  0.1222  0.0849
 2003W        W 6054   3.794   2.212  10.171 -0.1647  0.1367 -0.0175
 2004W        W 6055   7.510   8.576  12.048  0.1350  0.0643 -0.1721
 2005W        W 6056   8.515   3.636   0.376  0.0510 -0.3365  0.0942
 2006W        W 6057   7.640   3.114   3.548  0.0547 -0.2739 -0.1780
 2007W        W 6058   0.492   6.796   0.375  0.0818 -0.0127  0.5060
 2008W        W 6059   8.097   5.631  10.143 -0.0647 -0.1895  0.2114
 2009W        W 6060   9.840   3.834   3.321 -0.0491  0.1950  0.1962
 2010W        W 6061   7.297   4.725  11.945  0.2244  0.1753 -0.0898
 2011W        W 6062   9.012   5.733   3.812 -0.1789 -0.2591  0.0311
 2012W        W 6063   8.576   2.728   9.972 -0.0239  0.3156  0.2267
 2013W        W 6064   2.927   6.583   3.351 -0.0919 -0.3063 -0.0412
 2014W        W 6065   5.477   2.166   2.887 -0.0244  0.0292 -0.0565
 2015W        W 6066   7.845   8.822  10.381  0.1268  0.0243  0.2927
 2016W        W 6067   9.214   0.162   4.317  0.2059 -0.2685  0.2720
 2017W        W 6068   9.911   0.452  14.051 -0.0112  0.1393 -0.3468
 2018W        W 6069   3.338   9.007  12.855  0.0679 -0.0199  0.1669
 2019W        W 6070   7.904   8.353   1.611  0.0186  0.0049 -0.0931
 2020W        W 6071   0.794   2.308  13.278 -0.1600 -0.2918 -0.3351
 2021W        W 6072   0.547   0.810  12.313 -0.4120  0.0075 -0.0582
 2022W        W 6073   6.827   6.335  11.883 -0.3691 -0.2499 -0.3351
 2023W        W 6074   2.074   9.687   2.207  0.0938 -0.1360  0.2301
 2024W        W 6075   3.096   2.080  11.303  0.0999 -0.3003  0.1800
 2025W        W 6076   0.598   3.974   4.321 -0.0110  0.4683 -0.1410
 2026W        W 6077   4.723   7.239  13.444 -0.1047  0.0035  0.1447
 2027W        W 6078   6.741   8.842  11.573  0.3169  0.0751  0.1282
 2028W        W 6079   5.448   9.811  13.935  0.1919  0.3163  0.1737
 2029W        W 6080   6.814   1.529   5.033  0.0276 -0.2270  0.1112
 2030W        W 6081   2.924   7.815  12.249  0.1184 -0.1606  0.1100
 2031W        W 6082   3.350   4.067  10.867  0.2973 -0.3158  0.1867
 2032W        W 6083   7.289  10.061  11.593  0.1531  0.0584  0.0007
 2033W        W 6084  10.002   6.279   3.334 -0.0196 -0.0244  0.2980
 2034W        W 6085   2.581   1.388  12.795  0.0971 -0.1120  0.3195
 2035W        W 6086   5.294   7.870   0.652  0.3393 -0.0255  0.0438
 2036W        W 6087   9.618   9.238  12.405 -0.1278  0.0715  0.1375
 2037W        W 6088   6.048   9.005   1.361 -0.3881 -0.2963  0.3745
 2038W        W 6089   1.014   2.462   4.415  0.0245 -0.2113  0.0316
 2039W        W 6090   8.549   8.146  13.917 -0.1728  0.0753  0.2781
 2040W        W 6091   1.301   7.076   4.657  0.0754  0.3072  0.2515
 2041W        W 6092   7.618   7.132   3.247  0.0919 -0.1574 -0.1420
 2042W        W 6093   7.668   5.409   2.458 -0.1375 -0.1612  0.2543
 2043W        W 6094   9.782   7.546  13.740 -0.1349 -0.1798  0.0663
 2044W        W 6095   2.934   1.316   4.575  0.2229  0.4247 -0.0897
 2045W        W 6096   4.393   5.651  10.994  0.2621  0.1014  0.0022
 2046W        W 6097   5.605   3.024  11.908 -0.1856  0.0570 -0.0237
 2047W        W 6098   2.325   8.924  13.809  0.1272 -0.3519  0.2489
 2048W        W 6099   2.862   4.402   0.214 -0.3253  0.1499  0.4777
 2049W        W 6100   6.363   5.121  12.207  0.0408  0.0836  0.0838
 2050W        W 6101   6.510   1.949   4.807 -0.3595 -0.2706 -0.2533
 2051W        W 6102   9.445   7.955  10.108  0.0301 -0.0620 -0.1551
 2052W        W 6103   0.451   2.445   0.563 -0.0885  0.1022  0.1585
 2053W        W 6104   4.116   0.387   2.645  0.2841  0.0607 -0.0502
 2054W        W 6105   3.908   5.949   1.170  0.2649  0.0584  0.1587
 2055W        W 6106   9.644   1.560  13.862 -0.2491  0.1951 -0.3332
 2056W        W 6107   7.798   7.563   7.925  0.0378 -0.1700 -0.0054
 2057W        W 6108   3.401   5.576   3.323 -0.0585 -0.3406 -0.2290
 2058W        W 6109   1.894   5.567   0.635 -0.1039  0.0739 -0.3291
 2059W        W 6110   4.755   5.911  13.452 -0.0876 -0.1955  0.2788
 2060W        W 6111  10.129   2.833  10.244  0.2204  0.0619  0.2141
 2061W        W 6112   0.867  10.102  13.830  0.1775  0.1273  0.0682
 2062W        W 6113   8.043   2.562  11.775  0.1314 -0.1550 -0.1356
 2063W        W 6114   4.164   8.472  11.694  0.1927  0.1553  0.0187
 2064W        W 6115   4.436   7.908  11.953 -0.2494  0.0282  0.0912
 2065W        W 6116   5.391   5.261  13.820  0.0473 -0.1952 -0.2682
 2066W        W 6117   6.623   5.486   0.889 -0.0281  0.4218 -0.2063
 2067W        W 6118   4.619   7.199   0.818 -0.2556 -0.1911 -0.0565
 2068W        W 6119   5.407   5.093  11.300 -0.0885  0.0470 -0.1871
 2069W        W 6120   9.076   8.191  11.935 -0.2514  0.0481 -0.0845
 2070W        W 6121   7.192   3.560   0.670  0.0110  0.3838  0.2027
 2071W        W 6122   7.316   8.706   1.440 -0.1111 -0.0730  0.0804
 2072W        W 6123   6.501   7.579  11.443 -0.0469 -0.3183  0.0164
 2073W        W 6124   2.232   9.674   1.150 -0.0919 -0.3967 -0.0371
 2074W        W 6125   6.465   5.988  10.345  0.2674  0.2179 -0.2097
 2075W        W 6126   8.998   8.022  11.155  0.1557  0.1580 -0.2570
 2076W        W 6127   6.750   5.703   2.074  0.0146 -0.0022  0.6050
 2077W        W 6128   1.333   0.299   3.999  0.1882 -0.1855 -0.1038
 2078W        W 6129   3.051   0.130   0.847  0.0528 -0.1315 -0.2863
 2079W        W 6130   7.993   3.922   1.029  0.4596 -0.0734 -0.2025
 2080W        W 6131  10.084   4.187   4.766 -0.1465  0.1605 -0.0506
 2081W        W 6132   2.300   9.768   5.925 -0.1701 -0.1812 -0.2437
 2082W        W 6133   4.815   5.652  10.671 -0.0457 -0.0773 -0.3389
 2083W        W 6134   6.493   9.311   1.259  0.2325 -0.0334  0.0004
 2084W        W 6135   2.228   2.110  12.437 -0.2975 -0.2262 -0.2039
 2085W        W 6136   7.191   1.714   4.720  0.0281  0.1628  0.1027
 2086W        W 6137   5.256   6.376   0.650  0.0115 -0.0907 -0.1498
 2087W        W 6138   3.759   6.574   2.664 -0.2027 -0.1656  0.0993
 2088W        W 6139   4.651   0.811   1.356  0.1544  0.0685 -0.1254
 2089W        W 6140   9.872   6.326  11.093  0.0011  0.3010 -0.1119
 2090W        W 6141   4.851   5.087   9.424 -0.0073  0.0357 -0.1404
 2091W        W 6142   4.692   7.724   0.588  0.1901 -0.0159 -0.0807
 2092W        W 6143   5.549   5.576   0.902  0.2726  0.0579 -0.3918
 2093W        W 6144   8.219   9.220   4.159  0.1320 -0.2520 -0.0593
 2094W        W 6145   3.412   0.636   0.289 -0.0964  0.1349  0.4845
 2095W        W 6146   8.832   3.728  11.603  0.1751  0.0094  0.0471
 2096W        W 6147   8.426   3.518   3.258 -0.2689  0.1283  0.2267
 2097W        W 6148   3.472   8.874   4.253  0.2194  0.1774  0.3544
 2098W        W 6149   1.067   9.661   4.155 -0.2138 -0.1897 -0.0871
 2099W        W 6150   3.378   4.103   3.785  0.2210  0.2343 -0.0134
 2100W        W 6151   9.594   9.816  13.315 -0.2280  0.0486 -0.1984
 2101W        W 6152   2.799   4.023   2.539 -0.0418  0.1876  0.0054
 2102W        W 6153   1.446   9.233   4.328 -0.0184 -0.1853 -0.1383
 2103W        W 6154   0.080   8.203   3.597  0.2345  0.3602  0.1586
 2104W        W 6155   7.156   5.093  10.520  0.0326 -0.0989  0.0524
 2105W        W 6156   9.550   1.830   4.450  0.0453  0.4398 -0.2894
 2106W        W 6157   0.975   7.145   3.338 -0.0271  0.0227  0.2323
 2107W        W 6158   7.424   3.785   3.722  0.0305  0.4266 -0.0506
 2108W        W 6159   7.739   9.536  10.113  0.0371  0.2143  0.1306
 2109W        W 6160   4.200   0.114  10.860 -0.0507 -0.2401  0.0199
 2110W        W 6161   1.034   1.688   1.416 -0.1570 -0.1524 -0.0942
 2111W        W 6162   3.593   8.548   4.729 -0.1922 -0.0484  0.0195
 2112W        W 6163   5.803   4.219   1.397 -0.2236 -0.0422  0.2172
 2113W        W 6164   2.951   0.828   4.679 -0.1634  0.0438 -0.0369
 2114W        W 6165   7.618   6.852  11.825 -0.2047  0.2776  0.0267
 2115W        W 6166   7.772   4.073   3.488  0.2329 -0.0979  0.1497
 2116W        W 6167   2.872   0.656   9.627  0.0360 -0.0388 -0.0929
 2117W        W 6168   7.142   5.153   1.499  0.0721  0.2730 -0.0454
 2118W        W 6169   3.403   6.005  10.587  0.1206 -0.2134  0.1110
 2119W        W 6170   2.604   7.223   4.346  0.2066  0.5320  0.2457
 2120W        W 6171   3.486   0.661   3.370  0.1776 -0.0063  0.0475
 2121W        W 6172   1.443   9.773  13.125 -0.4226 -0.2425 -0.0900
 2122W        W 6173   0.108   4.108   3.517 -0.2065 -0.1566  0.0321
 2123W        W 6174   2.494   2.227   9.637 -0.1217 -0.1559  0.3097
 2124W        W 6175   6.531   9.815   0.212  0.0139  0.0622  0.1092
 2125W        W 6176   4.103   6.854   9.257  0.2698  0.2602 -0.1745
 2126W        W 6177   8.000   2.054   1.582 -0.1620 -0.0575 -0.0313
 2127W        W 6178   5.144   0.168  10.247 -0.1431 -0.2368  0.0319
 2128W        W 6179   7.618   0.743  11.970 -0.0567  0.2313  0.1004
 2129W        W 6180   7.004   8.365  11.337  0.0003  0.1030  0.6102
 2130W        W 6181   4.153   8.978   1.787 -0.0328  0.2258 -0.0967
 2131W        W 6182   2.706   0.904   9.158 -0.3525 -0.3872  0.0220
 2132W        W 6183   0.141   7.573  13.824 -0.0776 -0.2498  0.1584
 2133W        W 6184   4.448   4.610   2.014 -0.0172  0.2106  0.1179
 2134W        W 6185   6.358   5.226  11.340  0.1929 -0.0857 -0.3820
 2135W        W 6186   1.367   3.490  12.485 -0.0117  0.0928  0.1701
 2136W        W 6187   3.629   8.952   0.148 -0.3920 -0.3042  0.0177
 2137W        W 6188   6.878   0.195  12.320  0.0795 -0.1906  0.1985
 2138W        W 6189   7.811   4.335   8.823 -0.0753 -0.0349 -0.2539
 2139W        W 6190   9.342   2.866  10.465  0.1948  0.1640  0.0673
 2140W        W 6191   7.340   5.697   0.835  0.1011 -0.3760 -0.1904
 2141W        W 6192   1.058   8.709  13.808  0.1710 -0.1643  0.2138
 2142W        W 6193   1.217   7.711  11.070  0.4587 -0.3351 -0.1029
 2143W        W 6194   7.940   8.280   2.584  0.0040 -0.0105  0.0773
 2144W        W 6195   1.768   4.668  13.140 -0.2542 -0.1378  0.0685
 2145W        W 6196   2.697   0.424   0.109 -0.2282 -0.1527  0.0757
 2146W        W 6197   2.100   7.649   1.289  0.4175 -0.1089  0.2999
 2147W        W 6198   1.323   5.883  12.233  0.2029  0.3727 -0.0416
 2148W        W 6199   5.563   5.447  12.798  0.1310 -0.3068  0.1683
 2149W        W 6200   5.043   2.385  13.208  0.1890 -0.2071 -0.0010
 2150W        W 6201   4.387   4.082  10.428 -0.2808  0.1497  0.2274
 2151W        W 6202   6.981   0.878   2.905 -0.2937 -0.1475 -0.1966
 2152W        W 6203   4.983   2.629   9.538  0.1531  0.2710  0.0652
 2153W        W 6204   0.881   5.924  11.243 -0.0696  0.2310 -0.0572
 2154W        W 6205   1.549   5.083   4.367  0.1130  0.4840  0.0293
 2155W        W 6206   1.550   1.019   1.605  0.1767 -0.2210 -0.3080
 2156W        W 6207   5.447   2.096  13.963 -0.4384 -0.0782 -0.1099
 2157W        W 6208   2.155   9.695   1.725  0.2474  0.4056 -0.0765
 2158W        W 6209   9.669   7.266  10.177  0.1063  0.0565 -0.2698
 2159W        W 6210   3.416   8.647   1.859 -0.2424  0.0901 -0.2020
 2160W        W 6211   3.719   7.794   4.656 -0.0414  0.0378 -0.2934
 2161W        W 6212   9.028   0.185   1.914 -0.0873  0.3980 -0.1284
 2162W        W 6213   7.766   6.169   3.643 -0.1127 -0.0001 -0.4265
 2163W        W 6214   8.825   5.522   1.405  0.0676  0.3032 -0.1793
 2164W        W 6215   8.615   6.328   3.574 -0.2671  0.0110 -0.0520
 2165W        W 6216   3.556   0.946  12.950 -0.1283 -0.2417 -0.1204
 2166W        W 6217   5.070   2.160  11.347  0.0556 -0.1197 -0.5339
 2167W        W 6218   0.402   6.211   0.330  0.0336  0.1558  0.1059
 2168W        W 6219   3.687   1.375  10.079  0.2991  0.0259  0.1379
 2169W        W 6220   2.345   6.134  10.179  0.1462  0.2682  0.0556
 2170W        W 6221   6.300   7.100   2.168 -0.1599 -0.1414 -0.0907
 2171W        W 6222  10.025   8.354   4.578  0.0071  0.3684  0.0970
 2172W        W 6223   4.341   9.695  13.299 -0.1514 -0.0030 -0.0551
 2173W        W 6224   6.593   9.645   3.461 -0.2584  0.1052  0.3266
 2174W        W 6225   0.822   5.079  13.169 -0.4136  0.0577  0.0066
 2175W        W 6226   2.079   1.788   0.690  0.0631  0.2104  0.2241
 2176W        W 6227   1.360   2.583   9.520  0.3909 -0.2985 -0.2406
 2177W        W 6228   8.955   3.396   1.259 -0.1302  0.0732 -0.0877
 2178W        W 6229   9.364   2.885  11.968 -0.1487 -0.1385  0.0268
 2179W        W 6230   7.475   0.573   2.013 -0.1034 -0.3465 -0.0019
 2180W        W 6231   8.499   5.655   2.050 -0.1718 -0.0392  0.1647
 2181W        W 6232   4.212   0.765   0.750  0.0609  0.0902 -0.2094
 2182W        W 6233   4.088   4.929   4.641  0.0090 -0.2390 -0.2099
 2183W        W 6234   8.303   9.453   0.990  0.0951  0.1222  0.0877
 2184W        W 6235  10.071   4.827   1.428  0.3198  0.0014 -0.2964
 2185W        W 6236   0.878   8.680  10.777 -0.1869  0.1385  0.0268
 2186W        W 6237   3.165   5.148  10.017  0.1233 -0.1926 -0.2779
 2187W        W 6238   1.468   9.451   3.760  0.0345 -0.2449  0.1172
 2188W        W 6239   6.206   1.860   3.462  0.0625 -0.1072  0.2563
 2189W        W 6240   2.887   4.332  10.020 -0.0965  0.3043  0.0462
 2190W        W 6241   1.212   6.998   5.196 -0.0933  0.1194 -0.3643
 2191W        W 6242   4.522   2.249   2.543  0.2018 -0.1350  0.3299
 2192W        W 6243   4.255   4.488  11.767  0.0208 -0.0031  0.0525
 2193W        W 6244   8.877   9.897   0.370 -0.2443  0.2131 -0.0868
 2194W        W 6245   6.645   9.335  11.606 -0.1515  0.1214  0.2041
 2195W        W 6246   2.985   8.311   4.963 -0.1282  0.1435 -0.2807
 2196W        W 6247   2.604   4.809   0.318  0.2081  0.1476 -0.0732
 2197W        W 6248   3.152   2.354   5.921  0.1105 -0.2640 -0.3355
 2198W        W 6249   4.281   1.171   0.980  0.5531 -0.1035 -0.3113
 2199W        W 6250   4.225   3.093  10.569  0.0068  0.0322 -0.2441
 2200W        W 6251   8.999   7.080  11.262 -0.0942  0.1156 -0.1568
 2201W        W 6252   3.156   9.781  12.224 -0.1240  0.2454 -0.3660
 2202W        W 6253   2.554   1.585   2.338 -0.0986 -0.1466  0.1371
 2203W        W 6254   4.485   8.808  12.053 -0.4439 -0.3175 -0.1106
 2204W        W 6255   1.225   2.776   4.044  0.1989  0.2245  0.1781
 2205W        W 6256   9.042   5.945  10.442 -0.1085  0.0299  0.0726
 2206W        W 6257   1.998   8.053   4.626  0.0937  0.0360 -0.2137
 2207W        W 6258   8.250   3.538   9.829 -0.2651 -0.1794 -0.1461
 2208W        W 6259   2.924   9.604  13.346 -0.2368 -0.1222  0.0495
 2209W        W 6260   8.524   5.975   2.851  0.0093 -0.0300  0.0075
 2210W        W 6261   3.768   6.161   2.992  0.0735 -0.2675  0.1491
 2211W        W 6262   0.117   6.942   0.795 -0.0820 -0.0755  0.2563
 2212W        W 6263   3.945   9.453  11.722  0.1359 -0.0804 -0.3874
 2213W        W 6264   7.073   6.297  10.001  0.2053 -0.0780 -0.0783
 2214W        W 6265   1.840   9.421   2.845  0.0220 -0.0607 -0.0583
 2215W        W 6266   5.788   5.211   1.175 -0.1245 -0.2040 -0.1094
 2216W        W 6267   3.356   6.719   3.107  0.3884 -0.3490 -0.1673
 2217W        W 6268   0.173   7.308   3.207  0.0414 -0.1066  0.0784
 2218W        W 6269   0.852   5.653   3.991 -0.0893  0.1186  0.0458
 2219W        W 6270   2.112   4.729   3.632 -0.1987 -0.0720  0.1736
 2220W        W 6271   2.673   8.868   1.275  0.3477 -0.2791  0.2645
 2221W        W 6272   1.051   8.959   2.512  0.1190 -0.0375  0.2822
 2222W        W 6273   5.274   9.323   3.732  0.1507  0.1632 -0.1736
 2223W        W 6274   9.729   5.875   1.615 -0.3053 -0.0703  0.0689
 2224W        W 6275   7.817   7.578  12.091  0.0476 -0.2649  0.0474
 2225W        W 6276   9.391   4.688  12.294 -0.0579 -0.0345 -0.1321
 2226W        W 6277   7.091   6.243  13.184 -0.1310  0.1810  0.2666
 2227W        W 6278   3.580   9.361  11.407  0.0185  0.2498  0.2931
 2228W        W 6279   8.292   0.764   1.176 -0.1374  0.1288  0.1569
 2229W        W 6280   4.488   8.943  11.098  0.1023 -0.0888  0.0888
 2230W        W 6281   4.164   2.256  10.824  0.2484 -0.1152 -0.2262
 2231W        W 6282   9.215   7.395  11.626 -0.0365 -0.1098  0.0973
 2232W        W 6283   8.858   9.223  11.006  0.0645  0.0909  0.0382
 2233W        W 6284   9.904   4.578  10.433  0.1434 -0.2738 -0.0521
 2234W        W 6285   2.412   4.084   2.885 -0.1363  0.0327  0.1112
 2235W        W 6286   8.020   0.872  10.883  0.0090 -0.2059 -0.0801
 2236W        W 6287   0.789   9.542   8.806  0.0791 -0.1582  0.2398
 2237W        W 6288   8.026   2.597   4.342  0.1084  0.2674  0.2646
 2238W        W 6289   1.770   1.632   3.992  0.0398  0.0056  0.0546
 2239W        W 6290   3.216   6.242  10.164 -0.2456 -0.2714 -0.1123
 2240W        W 6291   4.958   9.513   0.959  0.5176  0.0851  0.0029
 2241W        W 6292   3.829   4.618  11.596 -0.1621 -0.2527 -0.2282
 2242W        W 6293   5.732   4.599   1.793 -0.3491 -0.2375  0.1155
 2243W        W 6294   2.429  10.135   1.096 -0.0866 -0.1573  0.2244
 2244W        W 6295   3.978   4.811   9.644 -0.3174 -0.1191 -0.1284
 2245W        W 6296   1.793   2.408  12.158 -0.1930 -0.0980  0.3020
 2246W        W 6297   3.413   1.417   3.730  0.2329 -0.0500  0.0799
 2247W        W 6298   9.268   3.551   4.634 -0.1184 -0.0825 -0.2801
 2248W        W 6299   5.142   2.461  10.670 -0.0316  0.1022 -0.0834
 2249W        W 6300   3.383   2.031   3.448  0.0945  0.0837  0.0465
 2250W        W 6301   0.931   7.115  13.341  0.0889 -0.3524  0.0987
 2251W        W 6302   5.368   2.639   2.671 -0.3495  0.2280  0.1688
 2252W        W 6303   3.152   0.357   3.675 -0.2222  0.0494  0.0331
 2253W        W 6304   4.095   9.088  12.057 -0.0717 -0.0527 -0.0849
 2254W        W 6305   3.515   1.982  13.733 -0.2487  0.0103  0.0067
 2255W        W 6306   2.122   9.270  11.258 -0.2028 -0.3514  0.1983
 2256W        W 6307   3.689   8.175   5.581  0.0044 -0.0128 -0.0586
 2257W        W 6308   8.473   1.135  14.067  0.5070 -0.1174 -0.3980
 2258W        W 6309   6.104   5.621  11.330  0.1487  0.0339 -0.0824
 2259W        W 6310   3.667   6.585   4.702 -0.2378  0.1255 -0.3503
 2260W        W 6311   3.540   7.034   4.940 -0.0771 -0.3097 -0.0023
 2261W        W 6312   8.824   0.608   3.727  0.3692  0.0626  0.0313
 2262W        W 6313   3.961   0.554   4.077  0.0442  0.3058  0.0479
 2263W        W 6314   4.522   0.292   0.987  0.1480  0.0217 -0.1754
 2264W        W 6315   1.114   9.693   3.246  0.0649  0.3584 -0.1662
 2265W        W 6316   0.234   0.282   8.869  0.0100  0.1611  0.0878
 2266W        W 6317  10.007   9.601   1.257  0.1055  0.5133  0.0245
 2267W        W 6318   7.054   5.254   2.013 -0.0052  0.2303  0.0482
 2268W        W 6319   4.414   3.929   4.298 -0.3055 -0.0605  0.0574
 2269W        W 6320   4.869   1.509  10.122  0.0207 -0.0910 -0.0146
 2270W        W 6321   9.331   4.974   3.966  0.2167  0.0490 -0.1474
 2271W        W 6322   0.367   5.543   1.302 -0.1932  0.2799  0.2225
 2272W        W 6323   1.150   3.828   3.508  0.1876  0.2979  0.3534
 2273W        W 6324   8.747   8.903   0.574  0.1657 -0.2614  0.0715
 2274W        W 6325   7.097   7.525  12.878  0.0132 -0.1741  0.1696
 2275W        W 6326   8.092   3.417   0.894 -0.0188 -0.0464  0.1594
 2276W        W 6327   8.156   6.867  11.807  0.2190  0.0532  0.1569
 2277W        W 6328   3.000   8.618   9.822  0.1087 -0.0215 -0.2070
 2278W        W 6329   9.212   1.499   3.547 -0.0172 -0.0668  0.0723
 2279W        W 6330   2.144   0.778  10.019 -0.0020  0.0689  0.1122
 2280W        W 6331   9.091   2.536  10.143 -0.1407 -0.0782 -0.1196
 2281W        W 6332   7.895   8.208  11.171  0.1386  0.2748 -0.0276
 2282W        W 6333   2.264   9.986   0.076 -0.1319  0.0391  0.0145
 2283W        W 6334   9.827   6.651   0.164 -0.1889  0.0015 -0.2715
 2284W        W 6335   3.812   4.017   9.573  0.1845 -0.1588 -0.3464
 2285W        W 6336   6.500   5.448  10.065  0.2439 -0.0686  0.2902
 2286W        W 6337   2.715   5.294  12.730  0.1442  0.0660  0.4528
 2287W        W 6338   9.274   8.911  12.508 -0.0512 -0.1001 -0.2050
 2288W        W 6339   9.499   4.262   0.201  0.3421 -0.2250 -0.0777
 2289W        W 6340   7.205   1.775   2.791 -0.3367  0.0421  0.0279
 2290W        W 6341   1.767   4.135  14.022 -0.1734 -0.1015 -0.2913
 2291W        W 6342   0.917   6.682   2.077  0.1932  0.0170  0.1099
 2292W        W 6343   9.672   2.598  13.648 -0.0034  0.1022 -0.0156
 2293W        W 6344   4.440   8.195   3.290 -0.0106  0.2547  0.0729
 2294W        W 6345   0.268   3.139   9.857 -0.3534 -0.3997 -0.3255
 2295W        W 6346   9.646   8.061   3.011 -0.0133 -0.0129 -0.2925
 2296W        W 6347   9.317  10.022   2.174  0.0767  0.1578  0.0011
 2297W        W 6348   9.674   5.683   1.079 -0.3713  0.1404  0.2620
 2298W        W 6349   3.326   3.862  12.464  0.2909  0.2070  0.0418
 2299W        W 6350   0.245   4.195  12.998  0.1069 -0.1087  0.0228
 2300W        W 6351   6.928   1.170   0.375 -0.3076 -0.0281  0.1479
 2301W        W 6352   0.286   2.854  12.653  0.0279  0.3005  0.1751
 2302W        W 6353   1.705   6.587   3.248 -0.1069 -0.0910  0.2381
 2303W        W 6354   4.662   8.041  12.402 -0.0665  0.2228  0.0183
 2304W        W 6355   6.814   4.840   1.878  0.1566  0.1766 -0.2845
 2305W        W 6356   5.041   6.467  10.926  0.0506  0.0324  0.0553
 2306W        W 6357   4.927   3.949   5.084  0.1901  0.4554  0.0761
 2307W        W 6358   2.999   0.049   5.350 -0.0204  0.2167 -0.0385
 2308W        W 6359   1.369   9.111  13.597  0.0770 -0.3940 -0.0770
 2309W        W 6360   4.213   9.367   2.893  0.2941 -0.1964  0.2497
 2310W        W 6361   3.937   0.350   3.565  0.2695 -0.3500 -0.0057
 2311W        W 6362   7.411   1.326   2.753  0.1593 -0.0244 -0.1088
 2312W        W 6363   1.338   2.260   2.770 -0.0529 -0.1532  0.1370
 2313W        W 6364   5.866   3.926   8.852 -0.5543  0.2584  0.0801
 2314W        W 6365   4.180   3.509  10.249  0.4136  0.0336  0.1912
 2315W        W 6366   4.543   4.441  12.562 -0.0260 -0.2828 -0.4029
 2316W        W 6367   2.586   8.985   9.948  0.1793  0.0661 -0.0740
 2317W        W 6368   8.549   3.463  12.748  0.2375 -0.0583  0.2725
 2318W        W 6369   5.226   8.523   3.479 -0.2284  0.2162  0.1279
 2319W        W 6370   5.741   5.260   3.703 -0.0202  0.1951  0.0071
 2320W        W 6371   7.510   0.351  11.626  0.0521  0.1675  0.0119
 2321W        W 6372   0.030   1.799   3.130 -0.0187 -0.2685 -0.2375
 2322W        W 6373   2.116   2.625   4.305  0.0450  0.0045  0.1531
 2323W        W 6374   9.730   0.661   3.636 -0.1197  0.2455 -0.1291
 2324W        W 6375   4.275   4.983   5.472  0.2644  0.0086 -0.0033
 2325W        W 6376   0.939   6.620   0.495  0.0859 -0.0476  0.4810
 2326W        W 6377   9.384   4.140   3.313  0.0016 -0.0414 -0.3676
 2327W        W 6378   6.520   0.895   3.286 -0.0493 -0.2880  0.4030
 2328W        W 6379   7.420   3.957  12.145  0.0184 -0.0438  0.0473
 2329W        W 6380   5.878   4.936  13.864  0.0015  0.1443 -0.0664
 2330W        W 6381   3.543   5.508  10.380  0.1131  0.0375  0.2628
 2331W        W 6382   0.637   0.741  14.020 -0.1645  0.2011  0.2298
 2332W        W 6383   3.211   3.377  12.445  0.0020 -0.3302 -0.1234
 2333W        W 6384   7.779   6.026   0.281  0.2897 -0.1348  0.2867
 2334W        W 6385   3.616   3.422   4.617  0.0349 -0.1986  0.0052
 2335W        W 6386   7.271   1.857   2.180 -0.0367  0.0915  0.1444
 2336W        W 6387   5.175   4.693   9.439 -0.0965 -0.1305  0.0161
 2337W        W 6388   3.882   8.672  12.021  0.0043 -0.0914 -0.2809
 2338W        W 6389   8.333   1.728  13.942 -0.0315 -0.1791  0.5238
 2339W        W 6390   6.565   0.599  11.736 -0.0781 -0.0373  0.2489
 2340W        W 6391   6.774   6.394  12.397  0.0480 -0.2105 -0.0626
 2341W        W 6392   7.195   4.883   0.406 -0.3025 -0.1354  0.0294
 2342W        W 6393   7.257   6.219  12.677 -0.1232 -0.1245  0.0836
 2343W        W 6394   0.855   9.635  12.700 -0.0196  0.1469 -0.0454
 2344W        W 6395   2.268   6.626   2.465  0.0035  0.0324 -0.0402
 2345W        W 6396   2.118   3.343   0.631  0.0270  0.2872  0.0294
 2346W        W 6397   2.208   0.330   0.034  0.2075  0.1728 -0.3656
 2347W        W 6398   6.609   4.509  13.008 -0.0381  0.2799  0.1371
 2348W        W 6399   0.841   9.198   3.113  0.1124 -0.0374 -0.0245
 2349W        W 6400   6.447   1.005  11.452  0.0587 -0.0703  0.2527
 2350W        W 6401   3.365   7.963  10.909 -0.0423 -0.1926  0.2031
 2351W        W 6402   5.157   8.283   2.795 -0.5314  0.1840  0.1199
 2352W        W 6403   4.591   6.497   4.429 -0.2083 -0.0511 -0.1380
 2353W        W 6404   4.608   5.620   4.346 -0.0366 -0.2993  0.0381
 2354W        W 6405   2.303   4.630  13.108 -0.2539 -0.1013  0.2601
 2355W        W 6406   4.664   4.978   1.658 -0.0954 -0.1169 -0.2027
 2356W        W 6407   3.959   2.916   0.456 -0.1960  0.3880  0.1483
 2357W        W 6408   0.775   1.015  10.747  0.1557 -0.0994 -0.0585
 2358W        W 6409   6.153   4.040   8.402  0.1402  0.2250 -0.3281
 2359W        W 6410   5.718   6.655  14.091 -0.4044  0.1262 -0.0083
 2360W        W 6411   4.310   7.334  13.807  0.2247 -0.0561 -0.3306
 2361W        W 6412   2.715   8.196   2.034  0.0257 -0.3822 -0.3326
 2362W        W 6413   6.434   4.918   1.506 -0.1342  0.0974  0.1082
 2363W        W 6414   8.562   1.115   4.082  0.0247  0.2789 -0.3076
 2364W        W 6415   9.269   3.397  11.713  0.2445  0.2315  0.0993
 2365W        W 6416   0.833   2.454   1.580  0.2152 -0.1361  0.1948
 2366W        W 6417   0.701   5.756  11.927  0.0465 -0.2443 -0.0479
 2367W        W 6418   7.840   6.518   0.114  0.1355  0.3077 -0.2017
 2368W        W 6419   1.341   5.123   9.898  0.0649 -0.1471 -0.4248
 2369W        W 6420   2.007   1.788  13.927 -0.1360 -0.3701  0.2783
 2370W        W 6421   9.046   2.930   8.589 -0.0071 -0.1059 -0.0615
 2371W        W 6422   8.779   3.264  10.558 -0.2857 -0.0294  0.0262
 2372W        W 6423   4.382   0.427   3.755 -0.1280 -0.1385 -0.1534
 2373W        W 6424   3.919   7.567   1.126  0.2487 -0.0568  0.2140
 2374W        W 6425   7.575   6.397   2.544  0.0547  0.0468  0.1651
 2375W        W 6426   1.501   4.470   2.690 -0.2357 -0.0829 -0.2045
 2376W        W 6427   7.421   5.911  11.741 -0.0899  0.1289  0.6099
 2377W        W 6428   9.556   1.320  12.436 -0.1148 -0.0018  0.2612
 2378W        W 6429   9.223   6.978  13.125 -0.2947 -0.2126 -0.4728
 2379W        W 6430   5.511   3.541   2.951  0.0644  0.1843 -0.0136
 2380W        W 6431   8.269   6.272   9.503  0.3741  0.2049  0.0630
 2381W        W 6432   1.380   1.636   0.544 -0.1911  0.1597  0.2078
 2382W        W 6433   8.156   4.994  11.305 -0.0733 -0.0820  0.1013
 2383W        W 6434  10.038   3.737   1.231  0.0906 -0.2297  0.1288
 2384W        W 6435   9.333   5.894   2.525  0.0103 -0.1173  0.4290
 2385W        W 6436   6.487   2.473   9.714 -0.0626 -0.3230  0.1999
 2386W        W 6437   6.421   4.785  13.644  0.0984  0.0436  0.1094
 2387W        W 6438   3.547   6.439  11.278 -0.3385 -0.0179 -0.2634
 2388W        W 6439   1.525   2.815   2.060  0.0126 -0.1999  0.0165
 2389W        W 6440   3.354   6.188   2.531 -0.1049 -0.3490  0.0059
 2390W        W 6441   0.358   1.718   9.615  0.1233 -0.0460 -0.2098
 2391W        W 6442   4.764   4.089   1.983  0.0325  0.1200 -0.2862
 2392W        W 6443   3.982   8.293  13.056 -0.3418  0.0526 -0.3120
 2393W        W 6444   8.500   4.787   1.396  0.0752 -0.0535 -0.0551
 2394W        W 6445   0.626   7.803   2.664  0.0425  0.2805  0.1980
 2395W        W 6446   5.723   2.825   0.720  0.3319 -0.2071 -0.0412
 2396W        W 6447   6.657   3.708  10.389  0.0454  0.3884 -0.1087
 2397W        W 6448   1.645   5.517  12.817 -0.0267  0.0190 -0.3105
 2398W        W 6449   5.679   3.312   4.713 -0.4703  0.2234 -0.0956
 2399W        W 6450   3.582   1.738   5.232  0.1362  0.0973  0.0836
 2400W        W 6451   0.861   6.102  12.329 -0.0099  0.0275  0.0462
 2401W        W 6452   8.393   9.963   3.037 -0.0277 -0.1168 -0.1110
 2402W        W 6453   1.188   2.439   2.304  0.1579 -0.0282 -0.1983
 2403W        W 6454   8.104   4.303   3.258  0.1895  0.2466  0.2288
 2404W        W 6455   1.144   5.764  13.870 -0.1419 -0.3589  0.0823
 2405W        W 6456   9.397   3.179   9.858 -0.0468  0.0631  0.3292
 2406W        W 6457   7.691   0.175   0.077  0.0364 -0.1719 -0.1993
 2407W        W 6458   2.434   7.388   3.127 -0.0463  0.0778  0.3316
 2408W        W 6459   7.777   2.005   9.945 -0.1363  0.0585 -0.1626
 2409W        W 6460   9.972   3.555   4.358 -0.1986  0.1334 -0.5303
 2410W        W 6461   8.606   9.880   4.823 -0.0716  0.1770 -0.1655
 2411W        W 6462   5.654   0.040   3.882 -0.1081 -0.1502 -0.0498
 2412W        W 6463   3.867   6.377   0.968 -0.0110 -0.2449  0.2172
 2413W        W 6464   6.130   6.656   2.261 -0.1366 -0.0517  0.0624
 2414W        W 6465   5.124   2.086  12.841  0.1677  0.1344  0.1854
 2415W        W 6466   2.171   1.691  10.769  0.3851  0.3085 -0.0722
 2416W        W 6467   0.889   0.653  11.978 -0.2014  0.0812 -0.0616
 2417W        W 6468  10.141   3.284   9.459  0.0569  0.0306 -0.2894
 2418W        W 6469   9.514   7.973  12.434  0.0956  0.2429 -0.2297
 2419W        W 6470   4.663   4.825   3.035  0.0776  0.1691  0.1418
 2420W        W 6471   4.225   1.563   0.327 -0.2128  0.0193 -0.0275
 2421W        W 6472   2.032   7.852   5.102  0.1424  0.3443  0.2559
 2422W        W 6473   1.555   1.384   9.773  0.2586  0.0581  0.2070
 2423W        W 6474   0.560   2.946  11.559 -0.0870  0.0161 -0.1455
 2424W        W 6475   3.160   8.185   5.480 -0.3017 -0.0812  0.0731
 2425W        W 6476   5.160   4.865  11.696  0.0868 -0.1326  0.2115
 2426W        W 6477   4.142   4.917   2.685  0.2090 -0.0671  0.0942
 2427W        W 6478   5.862   8.016  13.942  0.1363  0.1879  0.0246
 2428W        W 6479   1.971   4.372   4.539 -0.1633  0.1290  0.2541
 2429W        W 6480   1.551   4.522   4.044 -0.2949  0.1652 -0.0963
 2430W        W 6481   1.979   4.251   4.069  0.3158  0.0090 -0.2179
 2431W        W 6482   3.204   4.055   0.341 -0.2973  0.1708  0.0888
 2432W        W 6483   5.475   3.382  10.009  0.1488  0.0687 -0.2642
 2433W        W 6484   1.752   4.642  12.160  0.3840  0.1012 -0.2219
 2434W        W 6485   8.433   9.251   1.899  0.0301  0.1937 -0.1249
 2435W        W 6486   0.961   2.618  11.305  0.2444  0.1035  0.0087
 2436W        W 6487   9.228   1.718  12.888 -0.2411  0.1779 -0.1330
 2437W        W 6488   6.675   2.731   3.248 -0.2962 -0.0506  0.1962
 2438W        W 6489   0.431   8.151  11.342  0.1522  0.0238  0.1715
 2439W        W 6490   3.548   2.365  13.376  0.2452  0.2326 -0.2221
 2440W        W 6491   2.947   3.120  13.119 -0.0074  0.0062  0.0958
 2441W        W 6492   6.678   3.884   4.349  0.0498 -0.1183  0.2659
 2442W        W 6493   5.177   5.341  11.980  0.1222  0.0272  0.2724
 2443W        W 6494   2.421   4.139   1.048 -0.0109 -0.0676 -0.0850
 2444W        W 6495   0.142   4.482   2.132 -0.2554  0.2096  0.1038
 2445W        W 6496   1.879   5.092   0.885 -0.0575  0.4038  0.0092
 2446W        W 6497   1.248   9.624  10.936  0.2537 -0.2758 -0.1588
 2447W        W 6498   6.929   2.133  10.482  0.0211  0.1892  0.2293
 2448W        W 6499   6.595   2.840   4.469  0.4358 -0.2349 -0.1913
 2449W        W 6500   9.328   4.416  11.377  0.0066  0.0036 -0.0249
 2450W        W 6501   0.513   9.753  10.561 -0.1991  0.0475 -0.1696
 2451W        W 6502   9.366   6.751   4.713  0.0170 -0.0967 -0.1378
 2452W        W 6503   1.482   3.267   1.879  0.2345  0.2717 -0.4034
 2453W        W 6504   3.191   3.080   5.443  0.0851 -0.2355 -0.0376
 2454W        W 6505   7.533   2.581   0.604 -0.0364  0.0627 -0.0360
 2455W        W 6506   6.880   5.169  11.406  0.2816  0.2198 -0.1979
 2456W        W 6507   2.877   2.735   0.181  0.2668 -0.0240 -0.0717
 2457W        W 6508   0.930   3.221  12.697 -0.3508 -0.2290 -0.2151
 2458W        W 6509   0.319   2.738   1.022 -0.3024  0.0363  0.2025
 2459W        W 6510   9.851   0.850   2.745  0.0664  0.4808 -0.2704
 2460W        W 6511   4.652   4.458  13.138  0.0840  0.1927  0.0674
 2461W        W 6512   7.822   9.593  10.644  0.0032  0.1942 -0.2157
 2462W        W 6513   4.443   2.239  13.077 -0.1906  0.2667 -0.3343
 2463W        W 6514   6.999   4.260   3.995  0.0087  0.2134  0.0823
 2464W        W 6515   7.100   3.020  13.368  0.1175  0.0569 -0.0972
 2465W        W 6516   7.967   4.811   1.226 -0.0673 -0.3307  0.0646
 2466W        W 6517   2.115   4.741   4.241 -0.2804  0.0981 -0.1045
 2467W        W 6518   6.890   6.408  13.742 -0.1431  0.0962  0.2998
 2468W        W 6519   0.970   7.091  12.175 -0.1251 -0.0830 -0.0300
 2469W        W 6520   2.511   8.049   0.118 -0.2159 -0.2644  0.2810
 2470W        W 6521   4.917   3.580   3.189 -0.0699 -0.1463  0.2702
 2471W        W 6522   9.977   3.486  11.996 -0.0347  0.3208 -0.1719
 2472W        W 6523   3.229   0.412   4.587  0.2118 -0.1386  0.1159
 2473W        W 6524   2.291   6.777   9.325 -0.2978  0.3656  0.0170
 2474W        W 6525   5.993   0.483   1.196 -0.1495 -0.0880 -0.2169
 2475W        W 6526   0.750   1.207  12.558 -0.0619  0.2699 -0.2554
 2476W        W 6527   0.530   8.059  11.806  0.0091 -0.0464  0.1101
 2477W        W 6528   3.025   0.114   1.722 -0.1623  0.1742  0.3897
 2478W        W 6529   6.149   1.016  10.466 -0.0323 -0.2145 -0.1700
 2479W        W 6530   4.332   1.655   4.037 -0.0187 -0.0603  0.1337
 2480W        W 6531   5.034   3.296   9.009 -0.0092  0.0538  0.0355
 2481W        W 6532   8.276   3.515  10.818  0.1463  0.2964 -0.2456
 2482W        W 6533   3.941   4.303   5.069 -0.3983  0.0852 -0.0215
 2483W        W 6534   7.601   7.346  12.549  0.3410  0.0564 -0.0087
 2484W        W 6535   7.156   9.296  12.358  0.0616  0.1018 -0.2419
 2485W        W 6536   4.608   1.388   4.426 -0.0822  0.0228 -0.2146
 2486W        W 6537   8.335   4.743  10.539  0.0802  0.0773  0.2395
 2487W        W 6538   7.928   1.864  11.758  0.3042 -0.0733 -0.0221
 2488W        W 6539   9.501   3.279   4.265  0.0211 -0.3311  0.0798
 2489W        W 6540   4.530   0.132   2.961  0.3435  0.0396  0.3313
 2490W        W 6541   5.305   6.855   0.142  0.0691  0.2955 -0.0140
 2491W        W 6542   7.092   5.315   0.687  0.0778 -0.1042 -0.0056
 2492W        W 6543   3.031   0.758  14.041 -0.1677 -0.2303  0.0766
 2493W        W 6544   3.310   5.592  13.080  0.1926  0.2928  0.0648
 2494W        W 6545   4.514   1.190  13.763  0.2908 -0.3675  0.2642
 2495W        W 6546   0.194   3.793  12.700  0.1667 -0.0810 -0.2187
 2496W        W 6547   2.481   2.809  12.968 -0.0700 -0.0921 -0.0493
 2497W        W 6548   0.456   1.576   2.195 -0.2086 -0.0162 -0.0205
 2498W        W 6549   1.773   1.116   1.006 -0.3483  0.0640  0.3340
 2499W        W 6550   2.742   2.323   0.060  0.3955  0.3386  0.1314
 2500W        W 6551   9.965   0.720  10.010  0.1557 -0.1063 -0.3043
 2501W        W 6552   6.473   6.152  13.707  0.3263 -0.1697 -0.0560
 2502W        W 6553   8.153   5.350   2.255  0.1312  0.0979  0.2801
 2503W        W 6554   0.552   8.495   9.604  0.1355 -0.5421 -0.1668
 2504W        W 6555   5.132   3.246   2.847  0.0731  0.2936 -0.0304
 2505W        W 6556   9.390   8.017   2.059  0.1031  0.0054 -0.0423
 2506W        W 6557   0.933   9.069  12.044 -0.2468 -0.0566 -0.0913
 2507W        W 6558   6.206   9.839   2.553 -0.0002  0.0519 -0.0374
 2508W        W 6559   0.502   5.847   0.910  0.3574  0.1526  0.1162
 2509W        W 6560   7.293   0.437  13.238  0.1682  0.1512 -0.1166
 2510W        W 6561   9.039   2.953  10.895 -0.3571  0.0587  0.0082
 2511W        W 6562   8.947   0.501  12.181 -0.3073  0.1616  0.0212
 2512W        W 6563   0.016   2.900  11.580 -0.1756 -0.0685 -0.2699
 2513W        W 6564   6.707   6.986  12.137 -0.2023  0.2307 -0.1270
 2514W        W 6565   3.916   4.521   4.454 -0.2614 -0.1773 -0.0383
 2515W        W 6566   2.128   9.521   0.408 -0.0429  0.0105  0.0541
 2516W        W 6567   4.495   7.281   3.830  0.2172  0.0107 -0.1412
 2517W        W 6568   2.226   1.842  13.371  0.1488  0.3494 -0.1027
 2518W        W 6569   8.187   3.885  13.536  0.0103 -0.2291  0.0823
 2519W        W 6570   3.615   1.737   1.013 -0.0100 -0.2059 -0.3002
 2520W        W 6571   4.597   1.983  12.632 -0.0486 -0.0190 -0.3450
 2521W        W 6572   7.122   7.273   0.124  0.1499  0.0517  0.1545
 2522W        W 6573   9.223   5.934  13.873  0.0356 -0.0285  0.3064
 2523W        W 6574   0.797   3.352  11.839 -0.3328  0.2008  0.0077
 2524W        W 6575   0.501   9.159   4.085 -0.0506 -0.2331 -0.0679
 2525W        W 6576   7.716   5.925  10.874  0.2144  0.2239  0.1841
 2526W        W 6577   5.974   6.695  11.135  0.0442 -0.1030  0.0997
 2527W        W 6578   8.091   7.516   0.343 -0.1529 -0.0003 -0.0103
 2528W        W 6579   3.249   0.172  10.859 -0.2338  0.0190 -0.2678
 2529W        W 6580   6.869   7.298   1.084 -0.0415  0.0685 -0.3981
 2530W        W 6581   8.617   2.369   1.061  0.4285  0.0310  0.2363
 2531W        W 6582   9.821   7.233   2.985 -0.1101 -0.1456  0.1863
 2532W        W 6583   2.659   4.530   2.724 -0.1917  0.0185 -0.0644
 2533W        W 6584   2.965   0.751   0.427 -0.0211 -0.1655 -0.0699
 2534W        W 6585   4.866   0.371  13.486 -0.0509  0.2009  0.1524
 2535W        W 6586   3.597   8.696   3.380 -0.1887  0.3715  0.1434
 2536W        W 6587   3.909   6.256   9.863  0.0564  0.2182 -0.1758
 2537W        W 6588   7.578   8.522   2.807  0.2795  0.0064  0.0431
 2538W        W 6589   9.773   4.235  11.486 -0.0994  0.3292  0.1589
 2539W        W 6590   9.326   6.268   4.319 -0.1509  0.1790  0.1735
 2540W        W 6591   8.001   5.873  11.867 -0.3152  0.1251  0.4326
 2541W        W 6592   4.586   5.308   0.196 -0.1481  0.1426 -0.0115
 2542W        W 6593   2.604   6.765  12.413 -0.1053 -0.1359  0.1436
 2543W        W 6594   0.859  10.078   5.267  0.2781  0.1459 -0.2510
 2544W        W 6595   2.920   8.256  11.140  0.0518 -0.1983 -0.3450
 2545W        W 6596   1.911   1.765   5.296  0.1841  0.1399 -0.1639
 2546W        W 6597   3.987   2.105  12.985  0.1413  0.4018  0.4992
 2547W        W 6598   8.177   6.885   2.450  0.1884  0.0575 -0.2936
 2548W        W 6599   6.442   3.495   3.252 -0.1868  0.0201 -0.0588
 2549W        W 6600   5.103   5.556  13.462 -0.0443 -0.2952  0.0679
 2550W        W 6601   2.401   1.666   1.486  0.1155  0.1244  0.1109
 2551W        W 6602   3.950   0.371   0.926 -0.3211  0.1063 -0.1619
 2552W        W 6603   9.938   5.927   9.747  0.2893  0.0480  0.0255
 2553W        W 6604   1.986   9.521   4.631  0.2614 -0.1674  0.1269
 2554W        W 6605   6.926  10.087  11.882  0.4815  0.3174  0.1613
 2555W        W 6606   0.041   7.420  10.775 -0.0233  0.0196 -0.3831
 2556W        W 6607   7.358   2.245   0.883 -0.1356  0.2336  0.0459
 2557W        W 6608   4.574   7.785   1.541  0.1813 -0.2769  0.0673
 2558W        W 6609   1.027   2.909  10.698  0.1031  0.1491 -0.2015
 2559W        W 6610   5.974   6.789  12.514 -0.4963  0.1715 -0.1976
 2560W        W 6611   8.348   7.485   2.632 -0.0754  0.1689  0.3597
 2561W        W 6612   8.398   4.104   4.084  0.1365 -0.3224 -0.2990
 2562W        W 6613   0.503   0.567   4.380 -0.0511 -0.1531  0.2022
 2563W        W 6614   7.998   6.434   1.638 -0.0157 -0.1408 -0.0853
 2564W        W 6615   8.934   6.229   2.175  0.0068 -0.1029  0.0598
 2565W        W 6616   6.227   8.137  10.171 -0.1715 -0.0106 -0.1356
 2566W        W 6617   6.420   8.963   3.613 -0.1804 -0.1446  0.0840
 2567W        W 6618   1.680   3.187  12.830 -0.0928  0.0192 -0.1336
 2568W        W 6619   8.207   3.842  14.027 -0.0606 -0.0513  0.0464
 2569W        W 6620   3.200   1.687  13.535 -0.2094 -0.2381 -0.2322
 2570W        W 6621   3.682   6.624   1.715 -0.1684 -0.1503  0.2492
 2571W        W 6622   4.507   8.045   2.775 -0.1024 -0.0266 -0.1682
 2572W        W 6623   3.065   8.268  12.747  0.0126 -0.1908 -0.2046
 2573W        W 6624   5.620   0.339  10.241 -0.0162  0.2892  0.0486
 2574W        W 6625   1.115   2.943  11.698 -0.0919 -0.3493  0.1674
 2575W        W 6626   6.959   8.015   1.674  0.1416 -0.1528 -0.0415
 2576W        W 6627   7.256   5.123   2.471 -0.0957 -0.0569 -0.0470
 2577W        W 6628   1.265   6.309   0.710 -0.1180  0.4212  0.1134
 2578W        W 6629   3.830   3.668   1.138 -0.0160 -0.2497  0.0096
 2579W        W 6630   7.883   4.456  10.615 -0.0445  0.0456  0.1076
 2580W        W 6631   2.611   3.574   0.854  0.1394  0.0567  0.0807
 2581W        W 6632   1.809   4.451  10.589  0.2551 -0.1837  0.3786
 2582W        W 6633   5.106   6.277  10.053 -0.0652 -0.0258 -0.3670
 2583W        W 6634   1.621   8.120  13.130 -0.0185  0.1282  0.0274
 2584W        W 6635   0.313   8.398   1.309 -0.0059  0.0796  0.0678
 2585W        W 6636   5.391   6.233   0.154 -0.1596 -0.2189  0.2419
 2586W        W 6637   6.136   4.542   3.780 -0.1197  0.0331 -0.0404
 2587W        W 6638   7.580   6.234   9.535  0.0662  0.2031 -0.4720
 2588W        W 6639   6.779   7.493   2.141 -0.1435 -0.2912 -0.2319
 2589W        W 6640   1.852   2.229   3.498  0.0928  0.2260 -0.1319
 2590W        W 6641   8.428   2.614  13.767  0.0537  0.1898  0.1427
 2591W        W 6642   2.592   8.087  13.226  0.0254  0.0033 -0.0793
 2592W        W 6643   1.918   2.565   0.103  0.1352 -0.3895  0.0435
 2593W        W 6644   9.019   4.723  11.877 -0.0760 -0.2714  0.2634
 2594W        W 6645   4.198   3.292  12.281 -0.1776  0.1378 -0.0262
 2595W        W 6646   6.284  10.143  12.878 -0.1656 -0.0133  0.0567
 2596W        W 6647   0.205   1.867  11.364  0.1233  0.0926 -0.1023
 2597W        W 6648   9.703   8.925  12.016  0.0755  0.3786  0.1339
 2598W        W 6649   3.502   6.769  12.166 -0.0459  0.1285 -0.0597
 2599W        W 6650   7.440   6.646  13.831  0.0418 -0.0946  0.1610
 2600W        W 6651   3.763   7.962   4.151 -0.0159 -0.2390  0.4809
 2601W        W 6652   8.598   5.577  10.239 -0.0228  0.0181 -0.0860
 2602W        W 6653   4.131   5.461  13.971 -0.0066 -0.0513 -0.2891
 2603W        W 6654   3.108   5.889   2.276  0.1807 -0.3098  0.0484
 2604W        W 6655   9.956   2.852   3.505  0.2028 -0.1403  0.1277
 2605W        W 6656   7.714   4.306   9.768  0.3517  0.0880  0.1245
 2606W        W 6657   8.524   2.186   3.203  0.3352  0.0965 -0.2316
 2607W        W 6658   6.293   2.202   1.385  0.0275 -0.0286  0.1215
 2608W        W 6659   1.126   8.050   1.072 -0.1210 -0.4623 -0.1452
 2609W        W 6660   9.384   5.455  11.383 -0.0855 -0.0900 -0.2221
 2610W        W 6661   3.942   5.892   0.044  0.2113 -0.0509  0.1152
 2611W        W 6662   9.842   4.347   3.324 -0.0914 -0.1523  0.1296
 2612W        W 6663   0.095   3.227   1.049  0.0460  0.0327  0.1270
 2613W        W 6664   9.614   5.879  11.111 -0.0289  0.1028  0.5653
 2614W        W 6665   0.692   4.468  12.497  0.0277 -0.3099 -0.1715
 2615W        W 6666   7.098   1.129   8.786 -0.1945  0.1215 -0.0233
 2616W        W 6667   1.657   8.496  11.335  0.0627  0.1262 -0.2436
 2617W        W 6668   7.319   6.137   3.491  0.3461 -0.1084 -0.0326
 2618W        W 6669   7.102   9.595  11.780 -0.1255  0.0542 -0.0274
 2619W        W 6670   8.904   3.390   3.412  0.5617  0.2932  0.1940
 2620W        W 6671   5.592   6.251  13.757 -0.5469  0.2061  0.1015
 2621W        W 6672   5.951   0.858  13.586 -0.0740  0.1619  0.1731
 2622W        W 6673   1.025   4.097  12.500  0.1932  0.0058 -0.2063
 2623W        W 6674   6.483   7.241  13.699  0.3659 -0.1526  0.1692
 2624W        W 6675   2.900   6.529  12.837 -0.1108 -0.0967  0.3662
 2625W        W 6676   8.934   7.918   1.496  0.2755 -0.1357  0.0309
 2626W        W 6677   6.858  10.145  10.478 -0.1049 -0.1230  0.2515
 2627W        W 6678   0.842   0.277   4.589  0.0696  0.0233 -0.1128
 2628W        W 6679   5.583   7.633  11.407  0.0243  0.1631  0.2214
 2629W        W 6680   1.871   2.944   3.445  0.0821 -0.0120 -0.3338
 2630W        W 6681   3.483   8.488  13.129 -0.2359 -0.1327  0.1159
 2631W        W 6682   0.341   3.479  13.528 -0.0183  0.0535  0.0551
 2632W        W 6683   1.384   5.642  10.126 -0.1132 -0.2503 -0.1464
 2633W        W 6684   4.341   1.532  11.444 -0.0191  0.0165 -0.2546
 2634W        W 6685   0.864   9.849  13.172 -0.2864  0.2013  0.0226
 2635W        W 6686   1.199   0.318   0.150  0.1911  0.0556 -0.3300
 2636W        W 6687   3.982   1.439   4.440  0.1569  0.1466 -0.0101
 2637W        W 6688   1.836   9.966   0.357 -0.2934  0.0559  0.0319
 2638W        W 6689   5.791   4.565   3.359 -0.2575  0.1951  0.0522
 2639W        W 6690   4.130   7.661  12.847 -0.0043 -0.1932 -0.1115
 2640W        W 6691   0.551   2.476   4.527  0.4766  0.1060 -0.0860
 2641W        W 6692   3.943   4.623   0.984  0.2306  0.1062 -0.0476
 2642W        W 6693   8.716   4.603   0.982 -0.1828 -0.3770  0.0459
 2643W        W 6694   4.341   9.885  13.796 -0.0112 -0.1034  0.0174
 2644W        W 6695   1.651   5.084  11.699 -0.1567  0.1382 -0.1380
 2645W        W 6696   7.085   2.019   9.021  0.1598  0.1490 -0.1056
 2646W        W 6697   8.262   3.654  12.314  0.0047  0.2710  0.1758
 2647W        W 6698   1.963   1.776   4.489  0.2883 -0.0900 -0.2903
 2648W        W 6699   1.948   7.511  11.123  0.0851 -0.3307 -0.1318
 2649W        W 6700   5.350   1.247   5.025 -0.2661  0.0387 -0.4305
 2650W        W 6701   5.217   1.142  13.116 -0.1422  0.0868 -0.0984
 2651W        W 6702   6.910   5.658   9.068 -0.3334 -0.2374 -0.1978
 2652W        W 6703   7.481   3.114   4.836  0.0549 -0.2956  0.3000
 2653W        W 6704   2.983   2.462   9.995 -0.3021  0.1760 -0.4541
 2654W        W 6705   5.141  10.061   4.163  0.0277  0.1820  0.3211
 2655W        W 6706   5.597   8.801   1.372 -0.2532 -0.0321 -0.2022
 2656W        W 6707   7.838   3.159   1.287  0.0943  0.0497 -0.0638
 2657W        W 6708   7.012   7.848  11.066  0.0169 -0.3521 -0.1819
 2658W        W 6709   0.319   0.385   4.786  0.2527 -0.0554 -0.4244
 2659W        W 6710   8.338   2.569   2.940 -0.1417  0.0929  0.0331
 2660W        W 6711   4.768   0.583   2.160  0.0279 -0.0311  0.1306
 2661W        W 6712  10.145   3.566   2.949  0.0867  0.0540  0.0112
 2662W        W 6713   3.205   6.659   4.253 -0.1803  0.0610  0.1380
 2663W        W 6714   1.969   0.198  10.978 -0.2817  0.2929 -0.1545
 2664W        W 6715   5.412   1.235  11.325  0.3275 -0.2193 -0.5602
 2665W        W 6716   1.530   7.918   4.931  0.2482 -0.0941 -0.0460
 2666W        W 6717   0.882   2.988   4.616  0.2906 -0.1085  0.1040
 2667W        W 6718   8.890   9.547  12.224  0.1358 -0.2613 -0.1437
 2668W        W 6719   1.236   3.977   2.720  0.0564 -0.2405 -0.2741
 2669W        W 6720   2.630   0.743   4.338 -0.3245 -0.1753  0.0080
 2670W        W 6721   0.019   8.025  11.927  0.0451  0.1423  0.0042
 2671W        W 6722   8.927   1.127   3.427 -0.0700  0.0991 -0.0581
 2672W        W 6723   0.585   6.981   1.783 -0.0556 -0.2632 -0.1528
 2673W        W 6724   6.995   9.219   4.289  0.2393  0.0281 -0.2599
 2674W        W 6725   4.556   1.183  11.135 -0.0154 -0.0373 -0.1908
 2675W        W 6726   4.598   3.838  12.416 -0.3194  0.0411  0.0158
 2676W        W 6727   9.928   4.448   9.437  0.1186 -0.2961 -0.0319
 2677W        W 6728   7.506   4.320   3.986 -0.0709  0.0007  0.0366
 2678W        W 6729   2.085   4.948   4.652  0.0256  0.1762 -0.0122
 2679W        W 6730   5.249   2.694   4.131 -0.1119 -0.3111 -0.0677
 2680W        W 6731   4.549   5.784   0.338  0.1736  0.2369  0.3413
 2681W        W 6732   1.128   5.328   4.380  0.0988  0.4862 -0.2894
 2682W        W 6733   4.666   5.728   0.870 -0.1084 -0.1575  0.0734
 2683W        W 6734   9.254   7.111   1.678 -0.2401 -0.0212  0.0562
 2684W        W 6735   0.299   1.261  11.425 -0.2824  0.1268  0.2619
 2685W        W 6736   9.360   1.274  13.129  0.2138 -0.0455 -0.0275
 2686W        W 6737   7.047   7.654   0.847 -0.4099 -0.2401  0.0227
 2687W        W 6738   8.685   4.756   1.931  0.0358  0.0041  0.2642
 2688W        W 6739   2.355   7.738   4.108 -0.1776  0.0273  0.2334
 2689W        W 6740   7.486  10.003   3.191 -0.2320 -0.1830 -0.2883
 2690W        W 6741   9.534   8.492   4.513  0.0978  0.0466 -0.0369
 2691W        W 6742   1.071   0.295  11.477  0.2372 -0.4853  0.0783
 2692W        W 6743   6.092   3.583   4.677 -0.0674  0.1990 -0.0950
 2693W        W 6744   3.547   1.998  11.103 -0.0713 -0.1286  0.3933
 2694W        W 6745   6.201   9.479  11.769  0.2141 -0.1308  0.0361
 2695W        W 6746   8.138   7.996  13.574  0.1393  0.2713  0.0137
 2696W        W 6747   6.559   8.802  13.975 -0.1139  0.1073 -0.1011
 2697W        W 6748   4.374   5.191  10.588  0.1355  0.0998  0.0091
 2698W        W 6749   2.904   8.526   2.505 -0.0242 -0.1152 -0.0994
 2699W        W 6750   1.049   1.234   5.576  0.1472 -0.0017 -0.3646
 2700W        W 6751   1.337   6.910   9.639  0.0563  0.0569 -0.0498
 2701W        W 6752   9.939   8.640  11.495  0.1130  0.1055 -0.1839
 2702W        W 6753   7.000   5.414  10.152  0.1001  0.1324  0.0293
 2703W        W 6754   8.433   5.388   0.849  0.0239 -0.0546 -0.0620
 2704W        W 6755   9.180   0.542   1.154 -0.1917  0.1504 -0.2253
 2705W        W 6756   7.896   8.847   2.183  0.0634  0.0619  0.0370
 2706W        W 6757   6.177   0.561  11.432 -0.1197 -0.0441  0.0943
 2707W        W 6758   1.826   1.260   4.901  0.0957 -0.1235 -0.0146
 2708W        W 6759   8.000   9.362  12.192  0.3774 -0.2222  0.1407
 2709W        W 6760   5.534   5.391   5.021 -0.1968 -0.1956  0.2261
 2710W        W 6761   8.028   1.204   1.260 -0.2110  0.2237 -0.2766
 2711W        W 6762   8.302   7.131  13.181  0.0690  0.0925  0.1950
 2712W        W 6763   4.883   0.910   0.149  0.0278 -0.3085  0.2179
 2713W        W 6764   2.174   6.811   0.118  0.0751  0.0409  0.2146
 2714W        W 6765   5.371   2.474   0.615 -0.1630 -0.3044 -0.0371
 2715W        W 6766   4.847   3.763   8.950 -0.1784 -0.2303  0.0294
 2716W        W 6767   3.896   4.030  10.943  0.0123 -0.2676  0.0406
 2717W        W 6768   1.980  10.037   8.920  0.0492  0.3324  0.1319
 2718W        W 6769  10.068   5.558   5.028 -0.0581 -0.0548  0.1658
 2719W        W 6770   2.328   4.260   3.736  0.3186  0.0259 -0.1151
 2720W        W 6771   5.845   2.065   3.206 -0.0193 -0.4368 -0.2245
 2721W        W 6772   4.449   8.499   1.606  0.2540 -0.2762 -0.0126
 2722W        W 6773   3.500   0.904   3.836  0.1182  0.1622  0.0561
 2723W        W 6774   5.672   2.968   2.892  0.0130 -0.1257 -0.0033
 2724W        W 6775   0.965   6.594  12.316  0.2823  0.0619  0.0174
 2725W        W 6776   9.321   9.530  10.889 -0.2740 -0.1469  0.0074
 2726W        W 6777   2.209   0.739   1.834  0.1470  0.1242  0.0442
 2727W        W 6778   1.986   7.302   0.192 -0.1095  0.0522 -0.0131
 2728W        W 6779   4.367   0.690  11.870  0.3467 -0.0597 -0.0545
 2729W        W 6780   8.569   5.122  13.420  0.0181 -0.0072 -0.0262
 2730W        W 6781   0.050   2.792   0.389 -0.1546 -0.1136  0.2530
 2731W        W 6782   7.184   7.152   2.583 -0.1564  0.1658  0.0183
 2732W        W 6783   8.340   5.451   0.118  0.0968 -0.3697 -0.0469
 2733W        W 6784   8.475   1.479   3.435  0.0431  0.2062 -0.2457
 2734W        W 6785   0.783   6.310   4.934 -0.0435  0.0347 -0.1456
 2735W        W 6786   1.956   5.182  13.607  0.2436  0.1052  0.2874
 2736W        W 6787   6.421   9.068   1.812  0.1537  0.1621 -0.2057
 2737W        W 6788   1.944   0.576  12.115  0.1138 -0.1195 -0.5220
 2738W        W 6789   7.033   5.550   1.178  0.1609  0.0931  0.0837
 2739W        W 6790   4.998   5.836  10.250 -0.1797  0.2105  0.1141
 2740W        W 6791   4.623   9.292  13.275 -0.0192 -0.2973 -0.2207
 2741W        W 6792   7.119   3.075  10.556  0.0128 -0.2940  0.4253
 2742W        W 6793   9.618   0.808  13.908 -0.0595  0.0104 -0.1329
 2743W        W 6794   0.994   4.340  14.082 -0.3838 -0.1432 -0.2018
 2744W        W 6795   1.855  10.024  13.891  0.0078 -0.0117 -0.0995
 2745W        W 6796   8.766   4.401   4.191 -0.2544 -0.0491  0.0112
 2746W        W 6797   7.766   3.160   2.606 -0.0982  0.0784  0.0765
 2747W        W 6798   1.020   8.616   0.253 -0.2575  0.0727  0.0476
 2748W        W 6799   3.044   5.824   4.149 -0.1529 -0.0287 -0.0240
 2749W        W 6800   3.356   7.103   9.749  0.0083 -0.1414  0.0674
 2750W        W 6801   3.972   5.335   9.973 -0.1150 -0.0374  0.1658
 2751W        W 6802   3.017   1.356   2.137  0.3295 -0.3439  0.0058
 2752W        W 6803   0.658   1.636   0.681 -0.0936  0.2595 -0.1727
 2753W        W 6804   9.084   5.100   3.018 -0.2335  0.1448 -0.1033
 2754W        W 6805   6.355   3.119   4.064 -0.1090  0.0048 -0.0608
 2755W        W 6806   0.602   4.915  10.242  0.1076  0.1439 -0.0586
 2756W        W 6807   1.986   6.097   3.259  0.1615  0.2710  0.3392
 2757W        W 6808   0.579   6.353  12.618 -0.4462  0.2640  0.1335
 2758W        W 6809   5.303   1.236   0.259  0.1593 -0.0720 -0.1398
 2759W        W 6810   7.614   9.429   2.986  0.0603 -0.3220 -0.1660
 2760W        W 6811   8.573  10.061  10.539  0.0560  0.1317  0.2015
 2761W        W 6812   0.332   1.031   1.273 -0.0668  0.0330  0.1291
 2762W        W 6813   4.618   5.967   9.900 -0.1698 -0.0664 -0.0795
 2763W        W 6814   6.295   9.396  10.840 -0.0076  0.0869 -0.1137
 2764W        W 6815   2.632   3.406   3.398 -0.0996 -0.0041  0.2048
 2765W        W 6816   7.707   3.063   0.830 -0.0035  0.0768 -0.0788
 2766W        W 6817   1.491   1.956  11.507 -0.1758  0.1967 -0.0340
 2767W        W 6818   9.843   3.887  12.409  0.1429  0.1612 -0.2455
 2768W        W 6819   0.580   0.988  13.565 -0.0805  0.0545  0.1032
 2769W        W 6820   0.079   8.394   1.749  0.0340  0.0488 -0.1394
 2770W        W 6821   9.422   4.715   3.017  0.0517  0.0703 -0.1081
 2771W        W 6822   6.767   2.502   4.046 -0.1202 -0.1623 -0.3111
 2772W        W 6823   6.904   0.951  11.846 -0.0854  0.0704 -0.2487
 2773W        W 6824   2.227   1.569   0.204  0.1907  0.2577  0.0571
 2774W        W 6825   6.401   6.565  12.190  0.0362 -0.2043 -0.1252
 2775W        W 6826   8.998   0.269  10.580 -0.0791  0.0779 -0.3354
 2776W        W 6827   1.024   8.970   4.980  0.1589  0.1772 -0.2098
 2777W        W 6828   9.594   4.048   8.271  0.1162  0.0627  0.1501
 2778W        W 6829   6.944   2.613  12.165 -0.2526  0.2865  0.1073
 2779W        W 6830   2.739   5.226   0.594  0.1658  0.0000  0.0960
 2780W        W 6831   3.120   7.837  10.486 -0.0833  0.3099  0.0369
 2781W        W 6832   0.826   7.151   0.442  0.1620 -0.1627  0.1866
 2782W        W 6833   0.229   6.074  10.025  0.3612 -0.0708 -0.2333
 2783W        W 6834   8.585   4.447  11.787 -0.2639  0.1027 -0.2876
 2784W        W 6835   4.494   5.945  10.469  0.5564  0.3111  0.1651
 2785W        W 6836   6.275   9.427  13.969 -0.0547 -0.0109  0.0076
 2786W        W 6837   6.140   7.247  11.549 -0.1220 -0.0738  0.0287
 2787W        W 6838   9.363  10.047   0.622  0.0650 -0.2724 -0.0993
 2788W        W 6839   0.089   2.059   9.800  0.2287 -0.0180 -0.1211
 2789W        W 6840   0.567   7.021  11.966 -0.0221  0.1102 -0.0546
 2790W        W 6841   0.059   5.719  11.826 -0.1491 -0.1304  0.0967
 2791W        W 6842   3.233   8.221  13.912  0.4461  0.3645 -0.1097
 2792W        W 6843   4.420   3.287   0.004  0.0631 -0.1480  0.1194
 2793W        W 6844   4.203   9.977   2.675  0.2351  0.0192  0.1852
 2794W        W 6845   5.366   3.820   3.337  0.1431  0.0860 -0.0777
 2795W        W 6846   2.217   3.875   0.668 -0.3327  0.1533  0.2592
 2796W        W 6847   3.068   6.817  10.071 -0.0840  0.0054 -0.2680
 2797W        W 6848   9.867   9.741   0.299  0.1516 -0.0857 -0.1700
 2798W        W 6849   7.216   8.524   0.447 -0.1895  0.4136 -0.0637
 2799W        W 6850   4.322   1.520   9.055 -0.4298 -0.1195  0.0472
 2800W        W 6851   3.481   2.636   0.226  0.2134 -0.2268 -0.2548
 2801W        W 6852   8.477   9.674   4.398 -0.0924 -0.1154 -0.3992
 2802W        W 6853   3.061   8.626   3.327 -0.1065  0.2082  0.0350
 2803W        W 6854   0.996   3.452   1.189 -0.1252  0.2824 -0.0522
 2804W        W 6855   3.223   0.130   8.943 -0.1079 -0.1003  0.0892
 2805W        W 6856   6.646   4.224   1.142  0.2832 -0.0929 -0.2952
 2806W        W 6857   5.372   5.631  10.652  0.3326  0.1458 -0.6234
 2807W        W 6858   5.608   2.884  10.752  0.1290  0.1160 -0.1643
 2808W        W 6859   6.557   8.754  10.829  0.2689  0.4251  0.1140
 2809W        W 6860   5.298   7.482   2.508  0.3708  0.1370  0.4964
 2810W        W 6861   0.031   1.216   9.970  0.0394 -0.0207 -0.3953
 2811W        W 6862   6.614   1.943  11.976 -0.2989 -0.0592 -0.2119
 2812W        W 6863   4.932   7.937  11.948 -0.0803 -0.2782 -0.0786
 2813W        W 6864   1.742   8.426   9.499 -0.1447  0.1752 -0.2956
 2814W        W 6865   1.843   2.570   9.783 -0.1531  0.1082 -0.4492
 2815W        W 6866   8.842   9.924  12.623  0.2252 -0.3924  0.1326
 2816W        W 6867   2.810   8.822   4.862  0.1668 -0.0078 -0.2789
 2817W        W 6868   8.073   0.251  12.803  0.0803  0.0151  0.0946
 2818W        W 6869   4.173   8.432   3.606 -0.1239 -0.0849  0.1348
 2819W        W 6870   8.193   9.082  13.708  0.2791  0.2469 -0.1920
 2820W        W 6871   3.713   6.203  13.258 -0.0229 -0.0263 -0.5418
 2821W        W 6872   7.873   3.313  11.533  0.0647 -0.0185  0.2628
 2822W        W 6873   6.498   7.890   2.003  0.1439  0.1986 -0.2741
 2823W        W 6874   6.215   4.145   3.477  0.1373  0.0678  0.1135
 2824W        W 6875   8.583   7.199  10.984 -0.1357  0.0691  0.1360
 2825W        W 6876   0.594   5.786   9.800  0.0507 -0.2336  0.0216
 2826W        W 6877   2.254   8.043  13.704 -0.0675 -0.1198  0.2458
 2827W        W 6878   9.400   8.039  10.878 -0.3763 -0.2264 -0.3603
 2828W        W 6879   2.437   0.915  12.143 -0.4611 -0.0130 -0.0893
 2829W        W 6880   4.524   3.705  13.758  0.2171  0.1342  0.3725
 2830W        W 6881   3.710   2.008  12.116 -0.4211 -0.0495  0.2178
 2831W        W 6882   6.481   5.279   1.933 -0.2145 -0.1937  0.1753
 2832W        W 6883   0.223   0.656  11.624 -0.0333 -0.1998  0.3145
 2833W        W 6884   0.896   9.214  13.701  0.1700  0.3884 -0.2116
 2834W        W 6885   1.716   3.957  10.176  0.0053  0.0275 -0.0460
 2835W        W 6886   4.851   4.585   3.498  0.3956 -0.1455  0.1482
 2836W        W 6887   9.046   0.136   0.842  0.0679 -0.4321  0.0746
 2837W        W 6888   7.427   7.604   3.219  0.0459  0.1047 -0.1846
 2838W        W 6889   2.507   9.636  11.220 -0.2327 -0.1857  0.0062
 2839W        W 6890   8.995   6.701   1.450  0.2093  0.0330  0.1305
 2840W        W 6891   5.625   7.745  12.723 -0.0650 -0.1041  0.1808
 2841W        W 6892   6.635   1.244  13.151 -0.2700 -0.1727  0.1622
 2842W        W 6893   6.503   8.696   1.392  0.3062  0.0390  0.1351
 2843W        W 6894   8.145   0.009  10.782 -0.1650 -0.0640 -0.2314
 2844W        W 6895   7.692   8.628  12.757  0.1330  0.0215  0.0652
 2845W        W 6896   2.175   9.482  13.920  0.2031  0.0934  0.1615
 2846W        W 6897   9.962   7.951   0.374  0.1689  0.0286  0.1060
 2847W        W 6898   8.250   2.664  11.299 -0.0355 -0.0195  0.0036
 2848W        W 6899   6.762   1.483   0.867 -0.1287  0.0992 -0.2092
 2849W        W 6900   8.373   5.711   1.573 -0.0877 -0.2680  0.1355
 2850W        W 6901   4.671   4.834   3.944 -0.0681 -0.0197  0.1669
 2851W        W 6902   3.807   8.841   0.663  0.1045 -0.3680  0.2592
 2852W        W 6903   2.254   1.108   9.229  0.2712  0.0331 -0.1439
 2853W        W 6904   0.051   8.523  12.810  0.0993 -0.2152  0.0715
 2854W        W 6905   5.418   4.064  10.292 -0.0062  0.0441  0.2562
 2855W        W 6906   6.722   5.813   2.640  0.1817  0.0410  0.0127
 2856W        W 6907   6.075   3.073   9.503 -0.0037 -0.0016 -0.1028
 2857W        W 6908   2.949   5.333   4.309 -0.2647  0.0542 -0.0466
 2858W        W 6909   7.268   4.390  13.381 -0.1516  0.1443 -0.2597
 2859W        W 6910   4.289   4.407   9.502 -0.2357  0.0403  0.0753
 2860W        W 6911   9.516   5.865  12.523  0.0997  0.0163 -0.2410
 2861W        W 6912   0.352   9.005  14.037  0.2237 -0.1818  0.2122
 2862W        W 6913   9.819   8.825  10.508  0.2261  0.2335 -0.1206
 2863W        W 6914   0.948   7.243   2.816 -0.0750 -0.0187 -0.0689
 2864W        W 6915   9.862   9.049   2.507 -0.0383 -0.3310  0.0982
 2865W        W 6916   9.683   7.816   0.761  0.0965 -0.0504 -0.1180
 2866W        W 6917   0.308   9.401   3.709 -0.0271 -0.1882  0.0049
 2867W        W 6918   2.994   9.992   1.219  0.3735  0.2528  0.1246
 2868W        W 6919   2.240   9.753   2.677 -0.0244 -0.0968 -0.1180
 2869W        W 6920   7.499   3.265  10.236 -0.2398  0.2545  0.0051
 2870W        W 6921   5.425   9.648   2.111 -0.0528 -0.2142 -0.1703
 2871W        W 6922   5.936   0.819   2.138 -0.1203  0.0193  0.0500
 2872W        W 6923   2.179   1.671   1.944  0.1469  0.1376 -0.1446
 2873W        W 6924   1.764   5.331   1.409 -0.0790  0.1615  0.3049
 2874W        W 6925   8.741   2.801  13.341  0.2523  0.1030  0.0511
 2875W        W 6926   3.180   4.583   0.503 -0.1983 -0.1836  0.3459
 2876W        W 6927   1.988   8.918  12.867  0.2834 -0.2012 -0.1427
 2877W        W 6928   9.655   2.452   0.959 -0.0351  0.0034 -0.1190
 2878W        W 6929   0.718   0.977   1.617  0.0093 -0.3685 -0.1471
 2879W        W 6930   7.440   6.750  10.837  0.0840 -0.0306  0.1512
 2880W        W 6931   3.192   1.432  12.416  0.0737 -0.4769  0.0766
 2881W        W 6932   7.924   4.209   9.274  0.0547  0.0356 -0.0824
 2882W        W 6933   1.243   2.369  11.619  0.1396 -0.1161 -0.0976
 2883W        W 6934   7.289   6.776   3.392 -0.2854  0.2155  0.3230
 2884W        W 6935   5.329   8.396   1.430  0.4441  0.1790  0.1829
 2885W        W 6936   0.423   4.876   1.919 -0.0952 -0.0590 -0.0432
 2886W        W 6937   2.747   3.961  13.102  0.0727  0.0864  0.1492
 2887W        W 6938   3.372   5.930  11.075 -0.1812 -0.2305 -0.0897
 2888W        W 6939   1.254   3.578   2.169  0.4193  0.1983  0.0094
 2889W        W 6940   2.092   7.852  13.276  0.1171 -0.1169  0.0605
 2890W        W 6941   7.798   4.585   1.799 -0.0895 -0.0052 -0.5399
 2891W        W 6942   9.160   4.530   1.735 -0.3021  0.2300  0.1675
 2892W        W 6943   7.696   3.014   9.830 -0.0015 -0.1256 -0.2336
 2893W        W 6944   4.957   2.576   2.324  0.3258 -0.0059  0.3440
 2894W        W 6945   2.856   9.661   3.862 -0.0441  0.0571  0.2921
 2895W        W 6946   1.275   7.903   3.537  0.1789  0.1011  0.1012
 2896W        W 6947   3.538   7.612   1.454  0.1548  0.2081 -0.2560
 2897W        W 6948   1.644   6.522   9.469  0.0556  0.2655  0.0077
 2898W        W 6949   7.114   4.656   2.259  0.2674  0.1597  0.5368
 2899W        W 6950   7.975   3.416   0.079 -0.0504  0.1184 -0.2798
 2900W        W 6951   8.495   3.766   1.012 -0.0434 -0.1004  0.1729
 2901W        W 6952   4.994   4.392   1.016 -0.2676 -0.0270  0.0287
 2902W        W 6953   0.529   3.633  10.295  0.0662  0.1152  0.0266
 2903W        W 6954   7.063   2.621   1.565  0.0407  0.1771  0.0728
 2904W        W 6955   1.158   1.176   4.240 -0.0391  0.1666 -0.3932
 2905W        W 6956   3.944   4.892  10.662 -0.2164 -0.3129  0.2304
 2906W        W 6957   7.334   9.756   2.109  0.1430  0.1128  0.1662
 2907W        W 6958   1.196   1.752   3.989  0.2562 -0.4206 -0.0217
 2908W        W 6959   7.702   0.925   1.686  0.0325  0.2012 -0.0500
 2909W        W 6960   2.230   5.389   1.032  0.3881  0.0886  0.1059
 2910W        W 6961   6.430   1.781  13.691 -0.0882  0.0773 -0.0744
 2911W        W 6962   9.257   2.323   0.464  0.1126 -0.4317  0.0822
 2912W        W 6963   5.197   2.172   9.448 -0.0050 -0.0427 -0.0666
 2913W        W 6964   5.678   4.662   5.155  0.3032 -0.0965 -0.1261
 2914W        W 6965   0.338   3.446   4.384  0.0710 -0.0681 -0.2612
 2915W        W 6966  10.124   0.954   3.747 -0.1268  0.3638  0.0966
 2916W        W 6967   3.498   3.077   9.328  0.0631  0.0606 -0.0601
 2917W        W 6968   4.165   3.385   1.871  0.1896  0.0887  0.0895
 2918W        W 6969   0.223   4.144   0.234  0.2703 -0.1805 -0.2687
 2919W        W 6970   9.446   2.382  12.486 -0.2394 -0.5118 -0.2366
 2920W        W 6971   2.168   9.992   4.494 -0.3292  0.1009 -0.0896
 2921W        W 6972   7.010   4.040  12.448 -0.0271 -0.2723 -0.1165
 2922W        W 6973   8.205  10.127   3.467  0.0655  0.3341 -0.1789
 2923W        W 6974   3.614   0.385  11.138  0.2255  0.1837  0.1604
 2924W        W 6975   3.184   3.656   4.549 -0.0520  0.1983  0.2701
 2925W        W 6976   6.579   5.216   9.242  0.0417  0.1151  0.0417
 2926W        W 6977   0.593   5.410  10.484 -0.0804  0.0241 -0.2418
 2927W        W 6978   2.666   5.279  11.066  0.1660  0.2488 -0.0573
 2928W        W 6979   6.447   2.567   1.115  0.0054  0.2696  0.1165
 2929W        W 6980   6.576   8.762  12.953 -0.0944  0.2924 -0.2441
 2930W        W 6981   6.195   7.146   2.652  0.0302  0.3299 -0.1259
 2931W        W 6982   1.538   8.923   2.581  0.0417  0.0308  0.2050
 2932W        W 6983   8.479   4.077   2.943  0.3088 -0.0027  0.1309
 2933W        W 6984   4.335   9.817  11.577  0.2607  0.1402 -0.2396
 2934W        W 6985   3.482   3.774   0.731  0.2736 -0.2394 -0.1408
 2935W        W 6986   2.866   4.795   2.072  0.3444  0.1431 -0.0454
 2936W        W 6987   5.260   3.962   3.827  0.2446  0.4741  0.1482
 2937W        W 6988   1.663   9.506  10.021  0.1723  0.0378  0.0772
 2938W        W 6989   6.747   7.924  10.668  0.0349 -0.0050  0.4512
 2939W        W 6990   5.035   7.901   3.879 -0.2126  0.0830 -0.0472
 2940W        W 6991   9.126   4.127   4.656 -0.2034  0.0895  0.0528
 2941W        W 6992   0.202   0.126   0.392  0.1471  0.1236 -0.0408
 2942W        W 6993   1.089   1.815   0.898 -0.1170  0.0291 -0.0622
 2943W        W 6994   0.204   7.739   2.363  0.1284 -0.0172 -0.0330
 2944W        W 6995   2.366   3.011   4.155  0.2699 -0.1391 -0.0378
 2945W        W 6996   3.769   8.082   2.770 -0.2612  0.1438 -0.2692
 2946W        W 6997   6.352   3.954   1.535  0.0255 -0.0290 -0.0238
 2947W        W 6998   8.355   7.820   6.565  0.0726 -0.1876 -0.0494
 2948W        W 6999   9.955   3.595  10.608  0.2800  0.3011  0.0627
 2949W        W 7000   8.783   8.343  12.799 -0.0771  0.1119  0.0525
 2950W        W 7001   6.399   2.630  13.621 -0.0609  0.2174  0.2397
 2951W        W 7002   8.178   1.744   2.452 -0.1148 -0.0982  0.1732
 2952W        W 7003   5.024   2.272   3.788 -0.0622 -0.0619  0.1977
 2953W        W 7004   2.966   4.353  11.653 -0.2824 -0.2927 -0.0946
 2954W        W 7005   2.857   0.963   5.976 -0.0856 -0.1920 -0.1291
 2955W        W 7006   7.653   2.679   4.654  0.1243  0.0850  0.1491
 2956W        W 7007   4.238   8.962  12.544  0.1015 -0.1451  0.1858
 2957W        W 7008   1.248   0.012   4.965  0.1054 -0.0778  0.0511
 2958W        W 7009   4.122   0.477  10.428 -0.0107 -0.0603 -0.1101
 2959W        W 7010   9.458   0.649   2.472  0.0330 -0.0862 -0.2692
 2960W        W 7011   2.630   9.750  13.810 -0.0963 -0.0472 -0.0728
 2961W        W 7012   5.070   8.294   0.468  0.0375 -0.0907  0.0647
 2962W        W 7013   7.686   1.166   0.926 -0.1300 -0.2428 -0.0121
 2963W        W 7014   9.455   1.921   1.248 -0.1438 -0.2600  0.0513
 2964W        W 7015   6.446   1.098  11.973 -0.2606 -0.3559 -0.0616
 2965W        W 7016   4.605   4.193  11.954 -0.2622  0.0072 -0.1591
 2966W        W 7017   6.871   0.208  11.468 -0.0391 -0.2323  0.1384
 2967W        W 7018   9.402   8.988  12.999  0.1449 -0.3388  0.0693
 2968W        W 7019   5.930   6.651  13.588  0.1670  0.0386  0.3216
 2969W        W 7020   2.789   8.096   1.093 -0.1766  0.0102 -0.0214
 2970W        W 7021   5.448   8.756  11.865  0.2628 -0.1102  0.1145
 2971W        W 7022   5.658   7.059  13.820 -0.1582  0.0606  0.0601
 2972W        W 7023   5.295   5.848  12.184  0.0775  0.0537 -0.0263
 2973W        W 7024   0.202   9.630  14.086  0.0928 -0.0615  0.2373
 2974W        W 7025   7.147   1.921   9.885  0.0649  0.1207 -0.2624
 2975W        W 7026   1.008   0.303   2.050 -0.0301 -0.2542 -0.1461
 2976W        W 7027   9.878   9.263  11.477  0.1113  0.1758  0.2135
 2977W        W 7028   8.770   3.061  11.838  0.2459 -0.0649 -0.2286
 2978W        W 7029   6.805   9.734   1.228 -0.0809  0.1658 -0.1315
 2979W        W 7030   0.933   0.520   4.114 -0.0555 -0.0779 -0.0191
 2980W        W 7031   0.411   4.396   4.549 -0.3067  0.0903  0.1239
 2981W        W 7032   4.131   1.385  11.033  0.0104 -0.0247 -0.0189
 2982W        W 7033   7.234   4.421   9.884  0.0875 -0.1319 -0.0693
 2983W        W 7034   0.230   7.842   0.199 -0.2988  0.1663  0.0818
 2984W        W 7035   1.899   1.336  13.589  0.3261 -0.0983  0.2409
 2985W        W 7036   3.934   7.951   2.015  0.0512 -0.0148 -0.0285
 2986W        W 7037   1.048   2.261   1.140 -0.0266 -0.1363 -0.2412
 2987W        W 7038   7.769   2.150   3.370 -0.1798 -0.0481 -0.1893
 2988W        W 7039   0.757   7.426   1.601  0.2556  0.2217  0.0677
 2989W        W 7040   7.830   2.331   9.473 -0.1633 -0.2035 -0.2436
 2990W        W 7041   7.473   4.738  10.625  0.1193  0.0535 -0.3998
 2991W        W 7042   1.724   7.190   4.382  0.3865 -0.1802 -0.0160
 2992W        W 7043   1.515   4.480  11.002  0.1967  0.0782 -0.2579
 2993W        W 7044   7.058   4.158   9.467 -0.0877  0.1373 -0.2120
 2994W        W 7045   7.849   2.445   5.577  0.2536  0.0838 -0.0304
 2995W        W 7046   3.676   7.049   2.772 -0.1860 -0.1459  0.1952
 2996W        W 7047   4.564   1.021   2.868 -0.0012 -0.0144 -0.0994
 2997W        W 7048   1.749   6.466   0.630 -0.0741  0.0474 -0.1802
 2998W        W 7049   1.431   3.331   0.432 -0.1177  0.0218  0.1538
 2999W        W 7050   0.189   9.453  11.165  0.6594  0.1793 -0.0693
 3000W        W 7051   2.644   2.694  13.832 -0.2057  0.2866 -0.2075
 3001W        W 7052   7.286   0.959   2.219 -0.1576 -0.0554  0.0893
 3002W        W 7053   2.532   5.100   1.833 -0.0445 -0.3992 -0.1612
 3003W        W 7054   2.651   0.079   4.994  0.3929 -0.2188 -0.0947
 3004W        W 7055   6.978   3.878   1.076 -0.1129  0.1832 -0.0043
 3005W        W 7056   6.078   8.134   1.164  0.2387  0.1745 -0.1087
 3006W        W 7057   8.814   6.352  10.266  0.0578 -0.0871 -0.0180
 3007W        W 7058   6.579   1.399   2.274 -0.0537  0.2358  0.2903
 3008W        W 7059   4.020   9.124  11.136 -0.0465  0.0181  0.1615
 3009W        W 7060   9.959   2.791  11.134  0.2921  0.0265  0.1626
 3010W        W 7061   0.468   8.185   2.338  0.0256  0.1200  0.0443
 3011W        W 7062   5.330   0.982  10.842  0.1353  0.5965  0.1673
 3012W        W 7063   5.602   7.315   1.621 -0.1207  0.0013  0.0040
 3013W        W 7064   0.369   2.561  13.267 -0.1887  0.1386 -0.0517
 3014W        W 7065   0.902   2.220   3.048  0.1903 -0.2212 -0.1721
 3015W        W 7066   0.598   3.935  14.018 -0.0335 -0.0407  0.1062
 3016W        W 7067   8.947   2.592  11.242 -0.4468  0.1495 -0.1514
 3017W        W 7068   1.308   4.924   2.360 -0.0564  0.5452  0.2932
 3018W        W 7069   3.175   7.310   5.678 -0.0875 -0.2491  0.0021
 3019W        W 7070   0.685   3.894  10.803 -0.1912  0.3183 -0.0588
 3020W        W 7071   7.091   3.019   2.884 -0.1433  0.0299  0.3532
 3021W        W 7072   3.460   8.525   5.246  0.1747  0.1073 -0.0360
 3022W        W 7073   6.828   3.467  12.207 -0.1688  0.0243 -0.0118
 3023W        W 7074   0.186   4.748  12.400 -0.0921  0.3854  0.0794
 3024W        W 7075   2.575   3.509   0.347 -0.1701 -0.3148  0.1057
 3025W        W 7076   9.659   1.805   2.886 -0.0807  0.0181 -0.2026
 3026W        W 7077   0.579   0.051   1.901 -0.1599 -0.2720  0.1788
 3027W        W 7078   1.629   2.062   5.692  0.0689 -0.0595 -0.0850
 3028W        W 7079   6.135   9.429  12.336 -0.1333 -0.0243  0.3882
 3029W        W 7080   9.766   3.148  10.284 -0.3117 -0.1901  0.2976
 3030W        W 7081   7.116   8.507   2.070  0.1861 -0.4400  0.0906
 3031W        W 7082   6.782  10.117  12.746 -0.0759  0.0408 -0.0330
 3032W        W 7083   5.992   8.092  12.908 -0.0367  0.2952 -0.1708
 3033W        W 7084   1.984   5.772   1.733  0.1478  0.2677  0.3777
 3034W        W 7085   5.163   5.835   0.965  0.2975 -0.2482  0.1218
 3035W        W 7086   1.319   9.914  14.017 -0.2742 -0.0803  0.2001
 3036W        W 7087   7.117   1.684   0.295 -0.1125  0.0197 -0.0274
 3037W        W 7088   1.634   4.850   1.198  0.0603 -0.2871  0.0337
 3038W        W 7089   3.758   3.245   0.092  0.0761  0.0226 -0.3183
 3039W        W 7090   2.405   8.727   3.492  0.2271  0.1692  0.0799
 3040W        W 7091   0.731   6.539  10.652 -0.0751  0.2469 -0.4559
 3041W        W 7092   5.738   6.012   1.011 -0.0593  0.0001 -0.0162
 3042W        W 7093   7.011   1.007  10.453 -0.0634  0.2158  0.0464
 3043W        W 7094   8.281   9.171  13.031  0.1197  0.1939  0.2670
 3044W        W 7095   2.245   7.691   0.331  0.0488 -0.1586  0.2897
 3045W        W 7096   9.283   1.634   0.898  0.0457  0.1749 -0.1961
 3046W        W 7097   3.864   3.226   5.052  0.0457 -0.1306 -0.1873
 3047W        W 7098   3.665   6.145   3.553  0.0980 -0.2161  0.1767
 3048W        W 7099  10.114   6.722   1.758  0.1093 -0.2861  0.1206
 3049W        W 7100   5.356   5.787  13.855 -0.0176  0.2078 -0.1919
 3050W        W 7101   7.203   7.573   1.788  0.1858  0.0193  0.0446
 3051W        W 7102   5.290   9.241   1.229  0.0871 -0.5295 -0.0970
 3052W        W 7103   0.937   7.238  13.854 -0.0054 -0.1990  0.4122
 3053W        W 7104   1.338   5.012   2.940  0.0458  0.1591  0.3382
 3054W        W 7105   0.790   7.953  10.322 -0.1298 -0.0150  0.0386
 3055W        W 7106   1.540   1.669  13.836 -0.2738 -0.1175 -0.1787
 3056W        W 7107   7.911   2.564   9.949 -0.1213 -0.0690  0.3542
 3057W        W 7108  10.130   0.315  10.251 -0.0449  0.0692  0.0772
 3058W        W 7109   2.435   1.615   8.835  0.2145 -0.0731  0.0070
 3059W        W 7110   1.781   5.298   9.836 -0.4502 -0.0571 -0.2859
 3060W        W 7111   2.049   5.427   4.307 -0.2910  0.1279 -0.4487
 3061W        W 7112   5.345   5.510   0.353  0.0158  0.0205 -0.0045
 3062W        W 7113   2.594   3.670   3.882  0.0915 -0.0304 -0.3892
 3063W        W 7114   1.498   7.597  13.007 -0.1143 -0.1142 -0.0852
 3064W        W 7115   0.775   3.326  10.721 -0.2149 -0.2051 -0.1832
 3065W        W 7116   4.930   7.051   2.196  0.0429 -0.0002  0.3169
 3066W        W 7117   8.799   4.774   2.412  0.3072 -0.3341  0.2326
 3067W        W 7118   9.629   8.612  13.288  0.3604  0.1267 -0.0102
 3068W        W 7119   4.259   2.711  10.927 -0.1114 -0.0433  0.2168
 3069W        W 7120   7.922   0.597   2.936 -0.1575 -0.3235  0.1871
 3070W        W 7121   6.741   3.823   9.224 -0.0884  0.0753 -0.3630
 3071W        W 7122   6.609   6.645   2.086 -0.1600 -0.1680 -0.0950
 3072W        W 7123   0.191   9.342   4.500 -0.4341 -0.0271  0.2982
 3073W        W 7124   9.414   1.885  10.723  0.1046 -0.0614 -0.2000
 3074W        W 7125   8.067   1.376  10.749 -0.4381 -0.3438  0.0006
 3075W        W 7126   0.590   2.036   1.697 -0.1084  0.0018 -0.1372
 3076W        W 7127   9.698   0.926   4.740 -0.0004  0.0066 -0.1658
 3077W        W 7128   5.383   6.215  10.455  0.1296 -0.1321 -0.0726
 3078W        W 7129   7.590   5.483  12.108 -0.0414 -0.0708  0.0227
 3079W        W 7130   6.228   6.286   3.722  0.0252  0.0068  0.2238
 3080W        W 7131   0.460   5.379   8.536 -0.1455 -0.0393 -0.2151
 3081W        W 7132  10.122   6.428  11.926 -0.0088 -0.1499 -0.1871
 3082W        W 7133   6.137   1.319   0.816 -0.1194  0.3408 -0.0175
 3083W        W 7134   4.773   8.642   0.777  0.1679 -0.2977  0.2725
 3084W        W 7135   6.212   7.343   1.665 -0.0002  0.2072  0.1088
 3085W        W 7136   1.652   3.710   3.532  0.0821  0.0770 -0.0273
 3086W        W 7137   2.798   5.815   3.105  0.1669  0.0512  0.1171
 3087W        W 7138   4.947   2.770   0.054  0.4395  0.1520 -0.0862
 3088W        W 7139   2.347   9.067   9.534 -0.4944  0.0199  0.1665
 3089W        W 7140   0.726   3.275   4.161 -0.2946 -0.3137  0.1411
 3090W        W 7141   2.128   9.994  11.288  0.1381  0.1286  0.1149
 3091W        W 7142   6.167   7.675  13.617  0.0259 -0.0253 -0.2285
 3092W        W 7143   5.806   0.508   4.147  0.0252  0.1045  0.0555
 3093W        W 7144   5.132   8.962  13.351 -0.2783 -0.1429  0.3664
 3094W        W 7145   6.171   4.250  12.491  0.1210 -0.0610  0.1038
 3095W        W 7146   4.748   9.033   3.067  0.1480  0.0463 -0.0660
 3096W        W 7147   6.454   3.451  13.098  0.1735  0.0573 -0.0653
 3097W        W 7148   1.487   8.766   1.427 -0.3591  0.1268  0.0029
 3098W        W 7149   1.111   0.706  13.838 -0.0320  0.1420  0.1128
 3099W        W 7150   1.072   5.893  13.219  0.0827  0.0774  0.1716
 3100W        W 7151   1.762   1.442   1.412  0.2882 -0.0742  0.0391
 3101W        W 7152   3.600   1.107   2.924  0.0305  0.4525 -0.1343
 3102W        W 7153   2.900   9.230   5.654 -0.1878 -0.0533  0.2994
 3103W        W 7154   6.596   0.720   4.282  0.2267 -0.1602  0.4229
 3104W        W 7155   1.630   5.454   1.888 -0.2169 -0.1898  0.5122
 3105W        W 7156   4.629  10.023  10.025 -0.1086  0.0249 -0.0789
 3106W        W 7157   1.918   0.746   0.296  0.0521  0.1007 -0.0110
 3107W        W 7158   4.423   3.780   2.056 -0.0514 -0.1177  0.4660
 3108W        W 7159   9.242   7.028  12.596 -0.0944  0.2042  0.0653
 3109W        W 7160   4.731   7.365   1.298  0.1565  0.2449  0.0153
 3110W        W 7161   9.285   5.222   0.226  0.6085 -0.0054  0.0298
 3111W        W 7162   6.152   9.175   3.194  0.1595 -0.0810  0.0421
 3112W        W 7163   3.547   9.770  11.647  0.0182 -0.1701 -0.2142
 3113W        W 7164   2.762   2.651   4.430  0.0254 -0.1432  0.1039
 3114W        W 7165   4.601   3.714   4.706  0.1737 -0.1102  0.3642
 3115W        W 7166   7.483   5.305   1.070 -0.3108  0.0807 -0.1295
 3116W        W 7167   5.427   4.987  10.375  0.0510 -0.1052  0.1479
 3117W        W 7168   2.826   1.739  11.592  0.0453 -0.0087 -0.1524
 3118W        W 7169   0.980   6.758  10.984  0.0870  0.0045 -0.2168
 3119W        W 7170   9.880   2.595   5.158 -0.0390 -0.0096 -0.0341
 3120W        W 7171   1.337   2.147   0.533 -0.1995 -0.0804 -0.0350
 3121W        W 7172   6.245   9.381   3.839  0.2852 -0.2329  0.1094
 3122W        W 7173   3.006   6.021   0.720  0.2157 -0.0944  0.1995
 3123W        W 7174   2.520   6.527   8.837  0.2472  0.3574  0.2204
 3124W        W 7175   3.115   5.373   0.071 -0.0051 -0.1242 -0.1074
 3125W        W 7176   1.281   5.620   4.857 -0.0962 -0.1364  0.1438
 3126W        W 7177   1.911   3.336   5.400 -0.0400  0.1146  0.0635
 3127W        W 7178   4.340   5.696   3.844  0.4181  0.0921 -0.2149
 3128W        W 7179   0.469   6.825   9.080  0.0964 -0.0831  0.0156
 3129W        W 7180   6.373   3.271   1.853  0.0390 -0.0026 -0.0503
 3130W        W 7181   2.258   4.219  11.631  0.1179  0.0075  0.0043
 3131W        W 7182   5.803   2.327  10.107  0.3192  0.1534  0.0112
 3132W        W 7183   0.980   9.245   3.733 -0.1628 -0.3005  0.1305
 3133W        W 7184   0.539   4.130  13.462 -0.2171 -0.1343  0.0375
 3134W        W 7185   4.492   1.453   1.935  0.0285  0.2952  0.1231
 3135W        W 7186   8.875   8.203   3.190  0.1233  0.3098  0.0510
 3136W        W 7187   1.544   1.918   3.704  0.1961  0.2333 -0.3886
 3137W        W 7188   8.999   6.780   1.931 -0.0139 -0.2221  0.2041
 3138W        W 7189   0.745   8.693   4.491  0.2557 -0.0229  0.1789
 3139W        W 7190   2.771   4.837   4.803 -0.0003 -0.0452  0.0576
 3140W        W 7191   1.724   3.001   4.327 -0.0270 -0.0053 -0.0973
 3141W        W 7192   9.300   1.176   0.547 -0.1797  0.0487 -0.3050
 3142W        W 7193   3.368   9.238   2.490  0.4312 -0.4200 -0.0867
 3143W        W 7194   8.002   1.035   3.926  0.3171  0.1774 -0.0397
 3144W        W 7195   4.371   0.897   4.028  0.1756  0.0234 -0.0509
 3145W        W 7196   3.425   1.885   8.745 -0.1453 -0.2584 -0.1761
 3146W        W 7197   4.503   2.803  11.418  0.1555 -0.3140  0.2953
 3147W        W 7198   5.632   0.906   3.391  0.1018 -0.2650 -0.0424
 3148W        W 7199   4.392   2.076   1.214 -0.4275 -0.2030  0.1758
 3149W        W 7200   9.677   6.738  10.144  0.1347 -0.1286 -0.0145
 3150W        W 7201   2.833   4.066  12.601  0.1127  0.2064 -0.1648
 3151W        W 7202   2.249   8.099   1.104 -0.0325 -0.3192  0.3314
 3152W        W 7203   3.157   8.074   0.748  0.1941 -0.1809 -0.0791
 3153W        W 7204   0.525   9.736  11.409 -0.2503  0.0149 -0.0949
 3154W        W 7205   7.866   4.768   8.659  0.0423 -0.0003  0.1302
 3155W        W 7206   0.039   7.331  11.276 -0.0991 -0.2420 -0.0059
 3156W        W 7207   6.301   2.249  13.895 -0.3139  0.1723 -0.1427
 3157W        W 7208   3.228   7.277  13.391  0.0311 -0.0672 -0.1079
 3158W        W 7209   4.306   6.309  10.140  0.2515  0.1396 -0.0867
 3159W        W 7210   3.335   2.269  12.914  0.0810 -0.0910  0.0348
 3160W        W 7211   6.465   2.069   0.255  0.4100 -0.0488  0.2834
 3161W        W 7212   3.883   9.770   5.396  0.1079  0.3182  0.3294
 3162W        W 7213   6.933   7.910  11.581  0.3657 -0.3364  0.1233
 3163W        W 7214   5.906   2.750  12.177  0.3292 -0.3300  0.0470
 3164W        W 7215   2.098   9.481   9.529  0.2077 -0.2482  0.1422
 3165W        W 7216   2.201   7.183  10.583  0.0326  0.1289 -0.1822
 3166W        W 7217   7.337   0.819  12.394 -0.0897 -0.1908 -0.2672
 3167W        W 7218   5.706   9.874   2.449  0.1122 -0.0177 -0.2271
 3168W        W 7219   2.560   4.517   1.764  0.3715  0.0304  0.0624
 3169W        W 7220   1.450   3.248   9.634  0.1316 -0.1314 -0.0224
 3170W        W 7221   0.289   3.168   3.171 -0.6338  0.0238 -0.0886
 3171W        W 7222   5.847   2.825   8.615  0.3930 -0.1873  0.3188
 3172W        W 7223   5.695   0.141  11.404 -0.1672  0.1045  0.4803
 3173W        W 7224   7.204   2.130  11.502 -0.0365 -0.1261  0.1902
 3174W        W 7225   9.225   7.144   2.526 -0.4741 -0.1993  0.0632
 3175W        W 7226   5.313   3.271  14.005  0.1733 -0.3291  0.2621
 3176W        W 7227   5.372   1.268   1.608  0.1231 -0.0760 -0.3458
 3177W        W 7228   6.746   5.244  12.517  0.0892 -0.0440  0.3091
 3178W        W 7229   6.523   4.519   2.244  0.0872  0.0786  0.2092
 3179W        W 7230   1.839   2.164  10.743  0.1543 -0.0459  0.0923
 3180W        W 7231   2.801   1.417   3.216 -0.0362 -0.0527 -0.1042
 3181W        W 7232   6.808   0.214  10.951  0.0546 -0.0862 -0.0036
 3182W        W 7233   1.540   7.891   2.008  0.1070 -0.1377  0.1079
 3183W        W 7234   8.200   6.329  12.480  0.1474  0.2474  0.3115
 3184W        W 7235   8.473   6.616  12.822  0.0004  0.0091 -0.1974
 3185W        W 7236   9.058   2.558  12.838  0.2106 -0.2302 -0.0423
 3186W        W 7237   5.992   6.458  11.952  0.1370 -0.2105  0.2951
 3187W        W 7238   7.525   3.817   3.026  0.1558 -0.0351  0.0738
 3188W        W 7239   3.673   8.451  12.426 -0.2319  0.0740 -0.1441
 3189W        W 7240   9.075   3.891  13.457  0.1241 -0.0837  0.3242
 3190W        W 7241   2.054   5.328  11.517 -0.0987  0.2105  0.0103
 3191W        W 7242   0.235   7.777   3.358 -0.1993 -0.1846  0.4158
 3192W        W 7243   1.365   4.245   0.663 -0.3030  0.1899  0.0618
 3193W        W 7244   0.051   0.621   2.509 -0.1647 -0.0936 -0.3079
 3194W        W 7245   5.846   7.511   2.613 -0.0369  0.0268 -0.0341
 3195W        W 7246   3.214   5.072   2.408 -0.2163 -0.1260  0.1265
 3196W        W 7247   9.667   3.355   0.023  0.0056  0.3537 -0.0571
 3197W        W 7248   8.480   6.876  13.753 -0.1956  0.3842  0.1008
 3198W        W 7249   3.406   8.388   4.235 -0.1486  0.1950 -0.2177
 3199W        W 7250   8.228   9.921  11.296  0.2510 -0.1704 -0.1654
 3200W        W 7251   7.150   7.059   1.555  0.1952 -0.0246  0.1845
 3201W        W 7252   1.089   8.881   1.906  0.0189  0.3536 -0.1164
 3202W        W 7253   6.205   2.790   3.048 -0.0312 -0.1102  0.0942
 3203W        W 7254   5.076   7.140  10.578  0.3309 -0.0526  0.2090
 3204W        W 7255   5.687   9.203   1.622  0.1221 -0.2364  0.0307
 3205W        W 7256   9.102   5.217   2.518 -0.1179 -0.0918  0.0631
 3206W        W 7257   1.951   2.507  10.340  0.2435 -0.0569 -0.0650
 3207W        W 7258   9.614   4.951  10.633 -0.4015  0.0489  0.1168
 3208W        W 7259   2.349   4.879  11.382 -0.1368  0.0050  0.2274
 3209W        W 7260   9.285   1.544  10.332 -0.3276  0.2955 -0.1683
 3210W        W 7261   4.337   5.861  11.466  0.2541 -0.3177  0.1736
 3211W        W 7262   2.596   3.400   4.382 -0.0332 -0.3190  0.2842
 3212W        W 7263   8.876   2.347   9.754 -0.2747  0.1204  0.2367
 3213W        W 7264   3.901   4.642   3.077 -0.0921 -0.2153  0.2318
 3214W        W 7265   9.485   3.170  13.544 -0.2610 -0.0603 -0.2450
 3215W        W 7266   4.692   2.471  12.713 -0.0670 -0.0192 -0.0524
 3216W        W 7267   4.962   9.613   1.978  0.0645  0.1420 -0.0349
 3217W        W 7268   3.460   8.621  10.253  0.3802 -0.1292  0.1678
 3218W        W 7269   6.018   1.139   2.517  0.1490  0.0816 -0.1738
 3219W        W 7270   8.026   3.270  12.129  0.2279 -0.4034 -0.2241
 3220W        W 7271   9.750   4.064  10.480  0.1745 -0.1460 -0.2331
 3221W        W 7272   1.812   8.258   2.289 -0.3847 -0.1298  0.2905
 3222W        W 7273   9.359   6.026   2.029  0.1770  0.2809 -0.2575
 3223W        W 7274   8.120   0.674  11.320  0.0516  0.0994 -0.0157
 3224W        W 7275   3.002   5.535   9.669  0.0067  0.1731  0.0575
 3225W        W 7276   5.535   4.985  13.075  0.2214 -0.0846  0.2517
 3226W        W 7277   3.723   8.033  14.052 -0.2438  0.0939 -0.0021
 3227W        W 7278   8.082   6.498   2.810  0.2527  0.1543 -0.1340
 3228W        W 7279   6.701   4.730  11.184  0.0484 -0.0210 -0.3375
 3229W        W 7280   3.732  10.072  10.753 -0.0246 -0.3074 -0.0761
 3230W        W 7281   0.317   9.448   1.374  0.0315  0.0446  0.2741
 3231W        W 7282   2.550   7.627  12.883  0.0153 -0.3625 -0.0637
 3232W        W 7283   5.821   6.182   3.987 -0.1080  0.0004  0.5139
 3233W        W 7284   4.872   2.021   2.285  0.1368 -0.0326 -0.0654
 3234W        W 7285   1.941   6.104  13.059 -0.0412  0.2548  0.0087
 3235W        W 7286   6.884   9.030  13.742 -0.1804 -0.2043 -0.0321
 3236W        W 7287   6.196   7.379   6.860  0.0917 -0.0205  0.1976
 3237W        W 7288   5.922   9.768   3.863 -0.1272  0.0359 -0.1985
 3238W        W 7289  10.096   4.604  12.827  0.0995  0.1774  0.1040
 3239W        W 7290   7.724   6.424   0.642  0.0881 -0.1318  0.0099
 3240W        W 7291   0.208   3.296   0.545 -0.1068 -0.0859 -0.0325
 3241W        W 7292   0.568   2.951   0.614 -0.2586  0.0832  0.0761
 3242W        W 7293   4.345   3.230  11.055  0.0023  0.3477  0.1859
 3243W        W 7294   8.173   2.334   3.597 -0.2174  0.1853  0.1346
 3244W        W 7295   1.874   5.104  12.478  0.1346  0.2875 -0.2758
 3245W        W 7296   7.553   2.837   1.562 -0.1514  0.3304 -0.1308
 3246W        W 7297   1.283   6.286   2.995  0.2115 -0.1475  0.1426
 3247W        W 7298   3.543   3.650  11.051 -0.1744  0.0201 -0.2580
 3248W        W 7299   0.451   4.359  12.091  0.1817 -0.0201  0.0893
 3249W        W 7300   2.176   5.405   2.884 -0.2047  0.2174 -0.0400
 3250W        W 7301   6.344   6.150   2.234 -0.1091 -0.1798 -0.2599
 3251W        W 7302   2.403   2.365  12.071  0.0725 -0.0349  0.2384
 3252W        W 7303   1.277   4.805  13.264  0.2118 -0.4532 -0.2398
 3253W        W 7304   4.522   2.774   2.560 -0.0854  0.2370 -0.0657
 3254W        W 7305   7.209   5.266   0.044  0.0128  0.0044  0.0896
 3255W        W 7306   5.320   7.116  12.800  0.0202  0.0603  0.2419
 3256W        W 7307   4.902   9.138   4.737  0.0626  0.1905  0.0630
 3257W        W 7308   9.610   4.358   4.625  0.1160  0.0365 -0.2601
 3258W        W 7309   8.303   2.385  13.346 -0.1050 -0.0208  0.1930
 3259W        W 7310   0.569   3.953  12.359  0.0669 -0.4103 -0.0587
 3260W        W 7311   9.577   8.247   2.573 -0.1119  0.2193  0.0122
 3261W        W 7312  10.084   0.912   1.540  0.0804 -0.1460  0.1750
 3262W        W 7313   9.545   1.363   1.303  0.0571  0.0389 -0.2477
 3263W        W 7314   7.397   2.356   2.955  0.0021 -0.2407  0.4766
 3264W        W 7315   0.774   7.622   5.443 -0.0817  0.0103  0.0332
 3265W        W 7316   9.622   0.571   4.413 -0.0188  0.2185 -0.2398
 3266W        W 7317   2.628   1.814  13.113 -0.1239 -0.0969  0.1894
 3267W        W 7318   7.528   0.084   2.357 -0.1640  0.2046  0.0360
 3268W        W 7319   5.933   2.894  13.545  0.0479  0.0258 -0.2418
 3269W        W 7320   3.070   6.874  13.116 -0.3114  0.2176 -0.2545
 3270W        W 7321   2.392   5.096   4.965 -0.1907  0.2869  0.0431
 3271W        W 7322   6.782   5.110  13.693  0.1771 -0.2481 -0.2741
 3272W        W 7323  10.123   1.519  13.040 -0.0026 -0.1503 -0.0916
 3273W        W 7324   1.235   7.061  10.213 -0.0264 -0.2353  0.1746
 3274W        W 7325   7.933   9.193   1.840  0.0668 -0.3784 -0.1455
 3275W        W 7326   0.302   6.972   2.298 -0.1375  0.1443 -0.0296
 3276W        W 7327   3.323  10.031   3.491  0.0821  0.2387  0.1796
 3277W        W 7328   0.467   0.151  11.609 -0.2094 -0.4190  0.0370
 3278W        W 7329   2.718   8.809   0.188 -0.1397 -0.2773 -0.1673
 3279W        W 7330   1.656   8.886   3.068  0.2202  0.0103  0.0343
 3280W        W 7331   1.188   7.409   5.487 -0.3111 -0.2020 -0.0361
 3281W        W 7332   9.877   6.648  11.467  0.1750  0.3242 -0.2819
 3282W        W 7333   4.601   8.812   3.598 -0.2312  0.0286  0.1268
 3283W        W 7334   3.168   7.404  12.323  0.2355 -0.1199 -0.0611
 3284W        W 7335   0.160   1.813  12.665  0.1218 -0.0338 -0.0279
 3285W        W 7336   9.821   5.268   2.108  0.0079 -0.1601  0.5301
 3286W        W 7337   7.848   3.772   2.622 -0.1612 -0.0073  0.0488
 3287W        W 7338   2.143   8.629  11.440 -0.0307  0.0707 -0.0447
 3288W        W 7339   4.487   3.960  13.033 -0.2473 -0.1156 -0.1085
 3289W        W 7340   3.430   1.898   1.602  0.0048 -0.1058  0.2082
 3290W        W 7341   9.947   2.463   0.024  0.2558  0.0412 -0.0129
 3291W        W 7342   4.918   6.697   0.828  0.2569 -0.1619 -0.0137
 3292W        W 7343   5.905   8.524   3.962  0.0102  0.2018  0.3417
 3293W        W 7344   0.644   0.091   1.203 -0.2784 -0.0380 -0.1227
 3294W        W 7345   2.936   3.628   2.959  0.0947 -0.3704 -0.0006
 3295W        W 7346   4.873   9.006   0.466 -0.2905  0.0782 -0.0219
 3296W        W 7347   0.530   3.802  11.890  0.0600 -0.0850  0.0415
 3297W        W 7348   7.166   2.195   2.547 -0.0746  0.0859 -0.0135
 3298W        W 7349   1.758   0.671   1.895  0.1888  0.0316 -0.0913
 3299W        W 7350   8.860   2.087   9.113  0.0414  0.3158  0.0944
 3300W        W 7351   2.211   8.710   4.776 -0.0359  0.1117 -0.0693
 3301W        W 7352   3.415   9.381   4.986  0.1458 -0.0624  0.3661
 3302W        W 7353   3.252   0.747  12.597  0.0467  0.4759 -0.1621
 3303W        W 7354   0.801   6.956   2.467 -0.0536 -0.2959 -0.0319
 3304W        W 7355   5.912   6.693   3.913  0.0742 -0.0423 -0.0266
 3305W        W 7356   9.293   3.184   0.397  0.1044 -0.3631  0.0116
 3306W        W 7357   6.171   3.813   9.305 -0.0978  0.0228  0.4788
 3307W        W 7358   3.349   2.832   3.612  0.0160 -0.1669 -0.2653
 3308W        W 7359   7.354   8.349  10.925  0.1288  0.1151 -0.1133
 3309W        W 7360   3.389   1.142   0.709  0.0686  0.3784 -0.1141
 3310W        W 7361   5.348   6.304   1.200 -0.0598  0.0573  0.2410
 3311W        W 7362   1.695   8.510   2.748 -0.0298  0.2106 -0.3592
 3312W        W 7363   3.849   9.301  12.719  0.0388 -0.1118  0.2539
 3313W        W 7364   3.275   9.096   3.293 -0.0771 -0.2414 -0.1277
 3314W        W 7365   4.961   2.940   4.653  0.1011  0.1040  0.0916
 3315W        W 7366   9.791   6.814  12.800  0.1398 -0.2101 -0.0198
 3316W        W 7367   8.340   0.265   2.872  0.3282 -0.0749 -0.1100
 3317W        W 7368   8.219   2.997   3.106  0.2940  0.2080  0.0512
 3318W        W 7369   6.916   5.836   1.624  0.3120 -0.1551  0.0575
 3319W        W 7370   0.154   3.883   4.392 -0.0070 -0.2339  0.0593
 3320W        W 7371   4.548   2.425   3.033  0.0559  0.0772  0.2400
 3321W        W 7372   3.505   7.012  10.225  0.2135 -0.0555 -0.2350
 3322W        W 7373   6.532   5.872   3.149 -0.0988 -0.0396  0.0179
 3323W        W 7374   8.208   6.368   3.297  0.0457 -0.2368  0.0423
 3324W        W 7375   0.837   4.991   9.765 -0.0909 -0.0297 -0.0782
 3325W        W 7376   1.436   9.280  11.246  0.0575  0.1076  0.5638
 3326W        W 7377   2.132   0.736  11.707 -0.2141 -0.0694  0.4053
 3327W        W 7378   8.778   9.125   3.397  0.1544 -0.4779  0.0192
 3328W        W 7379   1.210   3.280   4.246  0.0771 -0.0723  0.2209
 3329W        W 7380   9.202   6.220   3.283 -0.1553 -0.1757  0.5952
 3330W        W 7381   9.221   2.430   9.333  0.1409  0.1424  0.1096
 3331W        W 7382   0.033   3.415  10.209 -0.1999 -0.0214  0.0813
 3332W        W 7383   2.867   3.948  13.609  0.1829 -0.3430  0.1335
 3333W        W 7384   4.310   4.208   2.297  0.3111  0.3277  0.2652
 3334W        W 7385   7.312   7.587   2.404  0.1044  0.1153 -0.2635
 3335W        W 7386   9.468   4.180  13.156 -0.1139 -0.0508 -0.1877
 3336W        W 7387   4.794   6.443   3.968 -0.2063 -0.2377 -0.1963
 3337W        W 7388   8.298   1.501   9.560 -0.1523  0.3493 -0.0203
 3338W        W 7389   5.073   8.688  11.186 -0.0443  0.0412 -0.3268
 3339W        W 7390   1.585   8.050  11.054 -0.2651 -0.0421 -0.0432
 3340W        W 7391   1.116   6.859   0.079  0.1926 -0.0624  0.0648
 3341W        W 7392   7.934   0.997  12.923  0.0183  0.0965  0.0308
 3342W        W 7393   9.568   4.984   2.487  0.0810  0.0732  0.2380
 3343W        W 7394   0.958   5.502  11.521 -0.1550  0.2208 -0.0852
 3344W        W 7395   9.181   3.966   8.868  0.2274  0.0725 -0.0560
 3345W        W 7396   6.608   3.558  10.850 -0.0800 -0.2076  0.2024
 3346W        W 7397   9.865   4.818   0.132  0.1851 -0.0124 -0.2492
 3347W        W 7398   7.119   0.820   4.462  0.3973 -0.2196 -0.0357
 3348W        W 7399   0.980   5.196   3.542 -0.0426 -0.1356 -0.2903
 3349W        W 7400   3.405   2.878  10.695  0.1961 -0.2969  0.0297
 3350W        W 7401   4.075   8.618  11.197 -0.3291 -0.0514  0.1736
 3351W        W 7402   6.383   8.644   3.183 -0.3092  0.0818 -0.1645
 3352W        W 7403   7.033   1.213  12.293  0.1040 -0.2014 -0.0956
 3353W        W 7404   0.232   6.119  13.980 -0.1081 -0.1899 -0.2430
 3354W        W 7405   8.877   5.446   3.366 -0.0391 -0.1783  0.0491
 3355W        W 7406   2.796   9.519   1.231  0.3022  0.1378  0.3353
 3356W        W 7407   2.073   6.441   2.897  0.0296 -0.1807 -0.2975
 3357W        W 7408   3.531   4.871   9.815 -0.0783  0.0094 -0.1792
 3358W        W 7409   2.604   3.112  13.545 -0.1684 -0.1011 -0.1820
 3359W        W 7410   8.690   0.658   3.227 -0.1910  0.3190 -0.0020
 3360W        W 7411   0.399   4.178   1.237 -0.0422  0.1316 -0.2142
 3361W        W 7412   2.655   5.876  14.083  0.2530 -0.0938  0.1754
 3362W        W 7413   0.110   2.394   2.715 -0.1357 -0.0576 -0.1299
 3363W        W 7414   2.290   5.448  12.489 -0.1511 -0.0128 -0.0489
 3364W        W 7415   1.517   8.664   4.180 -0.1166 -0.1164  0.0245
 3365W        W 7416   8.291   2.929  12.971  0.1062 -0.1580 -0.1138
 3366W        W 7417   6.151   4.389   1.716 -0.2186  0.2406  0.2462
 3367W        W 7418   5.441   0.426   0.156  0.0094  0.1159 -0.0818
 3368W        W 7419   8.497   1.412  12.111 -0.1176 -0.0401  0.0322
 3369W        W 7420   7.554   0.298   2.871 -0.0154 -0.1036 -0.1162
 3370W        W 7421  10.090   3.474   5.331 -0.5309  0.0046  0.0735
 3371W        W 7422   7.027   2.508   0.630 -0.2653 -0.1650 -0.1204
 3372W        W 7423   1.741   0.666   2.763 -0.1912 -0.1771  0.0817
 3373W        W 7424   9.641   4.566   1.380  0.0213  0.2291  0.0533
 3374W        W 7425   9.668   1.411   0.739  0.0037 -0.2925  0.0032
 3375W        W 7426   9.156   7.604  10.957  0.1045  0.2429 -0.0629
 3376W        W 7427   3.855   5.078  13.795 -0.1114 -0.3580  0.1465
 3377W        W 7428   4.675   5.264  13.255 -0.0623  0.3407  0.0451
 3378W        W 7429   3.581   1.086   4.323  0.1363  0.0158 -0.0965
 3379W        W 7430   5.844   0.409   9.800  0.0542  0.0564 -0.1014
 3380W        W 7431   1.032   3.404   9.953  0.2553 -0.0513  0.1346
 3381W        W 7432   8.021   1.309   4.369 -0.0244 -0.1502  0.2119
 3382W        W 7433   4.184   3.815   2.667  0.1975  0.0987 -0.0501
 3383W        W 7434   9.284   5.321   1.268  0.0193 -0.2270 -0.2195
 3384W        W 7435   1.771   1.772  11.060  0.0086 -0.0710 -0.0970
 3385W        W 7436  10.111   6.222   0.260  0.1818  0.1245 -0.0825
 3386W        W 7437   3.296   5.895   2.923 -0.2811 -0.1474  0.1604
 3387W        W 7438   3.143   3.733  11.652  0.0872 -0.2882  0.0539
 3388W        W 7439   1.024   5.653   0.252 -0.1031 -0.0154 -0.1013
 3389W        W 7440   4.728   6.133   3.089  0.0424  0.2697 -0.1500
 3390W        W 7441   7.269   3.163   1.327 -0.4138  0.4064  0.0365
 3391W        W 7442   0.904   4.300   5.185  0.0249  0.0791 -0.0052
 3392W        W 7443   6.483   4.712   9.298 -0.3676  0.1988  0.0733
 3393W        W 7444   3.975   8.743   2.332 -0.1054  0.1579 -0.0589
 3394W        W 7445   5.481   6.690   3.084  0.1304  0.0625  0.3310
 3395W        W 7446   0.890   8.719   9.895 -0.0288  0.0956  0.0716
 3396W        W 7447   9.426   2.614   4.223 -0.0881 -0.0827 -0.1301
 3397W        W 7448   6.102  10.096   1.235  0.2097  0.0380 -0.3361
 3398W        W 7449   4.448   7.596   4.837 -0.0462 -0.2392  0.0560
 3399W        W 7450   9.698   5.580   2.564 -0.2270 -0.0600 -0.3162
 3400W        W 7451   8.441   3.575  10.361  0.0006 -0.2073 -0.2139
 3401W        W 7452   6.519   3.881  12.352 -0.1666  0.0127 -0.3672
 3402W        W 7453   7.979   6.368   2.194 -0.3489  0.0274  0.0031
 3403W        W 7454   4.335   5.353  12.380  0.1479 -0.0794  0.0692
 3404W        W 7455   7.004   1.037   4.006 -0.1451  0.0381 -0.3009
 3405W        W 7456   7.002   5.906  10.953  0.2853  0.2488  0.0480
 3406W        W 7457   6.416   7.547   1.230 -0.0640  0.2315 -0.1722
 3407W        W 7458   6.972   7.301  13.332  0.1105 -0.2378 -0.1320
 3408W        W 7459   2.723   1.689   4.879  0.3907  0.1023  0.2439
 3409W        W 7460   5.543   4.207  13.791 -0.1655  0.0697 -0.1561
 3410W        W 7461   1.960   4.135  12.015  0.0405  0.1177  0.0142
 3411W        W 7462   4.067   5.116   8.940  0.0940 -0.0740 -0.0884
 3412W        W 7463   0.074   9.708   2.688 -0.1417  0.1505 -0.2294
 3413W        W 7464   5.555   0.147   2.706 -0.0349 -0.2433  0.1882
 3414W        W 7465   2.291   8.870  10.423  0.2386  0.0592  0.1106
 3415W        W 7466   1.695   2.583   0.568  0.0056  0.1426 -0.0098
 3416W        W 7467   5.471   1.726   3.188  0.1275  0.0629  0.0899
 3417W        W 7468   1.704   2.403   1.889  0.3297  0.1337  0.3352
 3418W        W 7469   4.968   1.262   2.965 -0.1790  0.0949  0.1446
 3419W        W 7470   5.814   4.959  10.682  0.2783  0.2267  0.2108
 3420W        W 7471   7.809   5.030   3.711  0.1352  0.0498 -0.0463
 3421W        W 7472   2.245   6.677  11.849  0.0253  0.2854  0.1634
 3422W        W 7473   3.454   2.613  10.232 -0.3092  0.3757 -0.1479
 3423W        W 7474   8.134   0.199   0.948 -0.0941 -0.3407  0.0239
 3424W        W 7475   7.245   5.601  10.563 -0.0052 -0.1222  0.1235
 3425W        W 7476   0.149   4.149   9.569  0.3491 -0.2133  0.0351
 3426W        W 7477   4.260   2.425   1.620  0.0767 -0.0228 -0.1325
 3427W        W 7478   3.421   2.258   4.900  0.0789  0.1523 -0.0771
 3428W        W 7479   7.305   3.896  11.009 -0.0559  0.0232  0.0850
 3429W        W 7480   3.111   7.402   1.589 -0.0151 -0.1098 -0.0080
 3430W        W 7481   9.167  10.059   3.322 -0.2322 -0.0434 -0.0169
 3431W        W 7482   1.794   4.520   4.988  0.0797  0.1400 -0.0365
 3432W        W 7483   0.341   6.133  12.104 -0.1939 -0.3545  0.1049
 3433W        W 7484   3.276   1.136   3.300 -0.1576 -0.1502 -0.2165
 3434W        W 7485   0.364   5.510  13.988  0.1200  0.1717  0.1750
 3435W        W 7486   4.307   4.611  10.456 -0.0270  0.1649  0.1854
 3436W        W 7487   8.635   9.838   3.504  0.0603 -0.0555  0.1273
 3437W        W 7488   0.598   6.943   4.002  0.2090 -0.2731  0.1958
 3438W        W 7489   4.970   0.897   1.721  0.0360 -0.0592 -0.3500
 3439W        W 7490   5.621   7.208   2.937  0.2173 -0.1446 -0.2367
 3440W        W 7491   1.727   0.246   0.124  0.2210 -0.0932 -0.0163
 3441W        W 7492   6.732   9.394   0.826 -0.0010  0.2607  0.0163
 3442W        W 7493   0.595   2.731   8.998  0.1060 -0.0798  0.0022
 3443W        W 7494   8.214   1.499   3.929  0.0300 -0.0116  0.0709
 3444W        W 7495   7.533   0.815  10.642  0.1918  0.1686 -0.1255
 3445W        W 7496   1.322   3.249  14.016  0.1654 -0.0343 -0.1630
 3446W        W 7497   4.996   1.376   5.388 -0.1186  0.0471  0.0910
 3447W        W 7498   7.026   0.217   0.925 -0.3012  0.1126 -0.0257
 3448W        W 7499   1.776   8.063  10.449  0.1459  0.1398  0.2868
 3449W        W 7500   1.302   3.191   4.895 -0.0165 -0.1202  0.0149
 3450W        W 7501   4.359   3.035  13.602  0.1123  0.0897  0.2833
 3451W        W 7502   4.721   4.573  10.195 -0.0277 -0.1778  0.1270
 3452W        W 7503   2.207   6.780   4.368  0.3600  0.1201  0.2711
 3453W        W 7504   8.471   6.902  12.239 -0.0173 -0.2269  0.1548
 3454W        W 7505   0.894   5.760  10.341  0.1442  0.1768 -0.1684
 3455W        W 7506   3.404   7.282   3.145 -0.1204 -0.1871  0.0135
 3456W        W 7507   9.973   4.965  13.230  0.1114 -0.1602 -0.0865
 3457W        W 7508   3.526   9.876  12.582  0.1385  0.0419  0.1278
 3458W        W 7509   8.348   4.377  13.225  0.0189  0.0260 -0.3697
 3459W        W 7510   5.077   7.417   0.412 -0.1727 -0.0765 -0.0039
 3460W        W 7511   3.494   9.654   1.859  0.3120  0.1665  0.3395
 3461W        W 7512   9.811   3.119   1.691  0.0015 -0.0192 -0.0485
 3462W        W 7513   8.732   0.517   0.019  0.1869  0.1168 -0.2101
 3463W        W 7514   3.441   8.465  11.163  0.2491  0.0756 -0.0631
 3464W        W 7515   0.344   3.068  13.181  0.2154  0.0061 -0.2452
 3465W        W 7516   8.455   3.833   1.506  0.0559 -0.0192  0.2580
 3466W        W 7517   0.967   6.744  11.795  0.0803 -0.3096 -0.0158
 3467W        W 7518   8.985   5.732  12.133  0.1218  0.1491  0.1964
 3468W        W 7519   9.571   0.843   1.355  0.0364  0.1847  0.4631
 3469W        W 7520   2.175   9.313  13.443  0.0572  0.0452  0.2317
 3470W        W 7521   0.974   1.296   0.625 -0.1583  0.4367 -0.0789
 3471W        W 7522   9.274   5.685   1.587  0.0618  0.2134 -0.0458
 3472W        W 7523   1.826   1.953   2.175 -0.1491 -0.3065  0.1954
 3473W        W 7524   6.060   9.020   0.235 -0.2609  0.1382 -0.1201
 3474W        W 7525   4.843   7.480  13.978 -0.2546  0.1477 -0.1574
 3475W        W 7526   9.604   9.345   1.168  0.2436 -0.1663  0.2901
 3476W        W 7527   4.113   2.379   3.558  0.2881  0.2684 -0.1026
 3477W        W 7528   2.421   1.401  11.778  0.3170 -0.1142  0.1995
 3478W        W 7529   2.084   7.286   0.815  0.2834  0.0243  0.1793
 3479W        W 7530   5.156   8.419  11.635  0.0050  0.1284 -0.1288
 3480W        W 7531   4.413   5.871   1.317 -0.2945  0.0693 -0.2245
 3481W        W 7532   8.413   9.475   3.173  0.2878 -0.3776  0.0009
 3482W        W 7533   7.073   4.028   0.571  0.2430 -0.0005 -0.2099
 3483W        W 7534   5.036   6.205  11.934 -0.0230  0.2171  0.2441
 3484W        W 7535   4.135   7.625   3.975 -0.1600 -0.1272  0.0291
 3485W        W 7536   9.159   8.686  13.634 -0.0859  0.1506  0.0590
 3486W        W 7537   8.298   9.093  12.529 -0.2108 -0.0268  0.0916
 3487W        W 7538   7.693   1.766   4.455 -0.2029 -0.0787 -0.0980
 3488W        W 7539   2.868  10.119  10.562 -0.2976  0.0822  0.1216
 3489W        W 7540   4.323   1.649   4.775  0.3118  0.3211  0.4887
 3490W        W 7541   6.988   4.803   4.072 -0.0650  0.3984  0.0971
 3491W        W 7542   9.279   0.199   2.553  0.1815  0.2131 -0.1461
 3492W        W 7543   9.525   9.679  11.401  0.2831 -0.0278  0.0499
 3493W        W 7544   9.901   5.627  10.748  0.1116  0.3292 -0.2049
 3494W        W 7545   7.969   9.466  11.178 -0.2629  0.2529 -0.0031
 3495W        W 7546   7.897   1.536   9.179 -0.1255  0.1428 -0.0883
 3496W        W 7547   9.357   1.689  11.819  0.2848  0.2960 -0.0928
 3497W        W 7548   2.861   2.965   3.473 -0.2758 -0.0899 -0.0551
 3498W        W 7549   8.978   4.820   9.636  0.2041 -0.3176 -0.1704
 3499W        W 7550   5.208   8.331  10.360  0.2628 -0.1208 -0.1364
 3500W        W 7551   6.750   3.042  13.015  0.2217 -0.0526  0.1146
 3501W        W 7552   8.601   0.439   9.813 -0.4153  0.0307 -0.2522
 3502W        W 7553   8.684   3.721   3.805 -0.0819 -0.0431  0.4971
 3503W        W 7554   5.939   3.386   5.102 -0.2512 -0.1365 -0.0563
 3504W        W 7555   2.103   0.072  11.836 -0.1909  0.0377 -0.1446
 3505W        W 7556   9.136   5.311  11.837 -0.2001  0.0128 -0.2010
 3506W        W 7557   8.868   1.571  11.794 -0.1335  0.3584  0.0011
 3507W        W 7558   1.035   4.347   1.451 -0.1057 -0.1135  0.2936
 3508W        W 7559   4.851   5.824  12.950 -0.0878  0.0764  0.1317
 3509W        W 7560   6.022   4.429   2.255 -0.1779  0.0755 -0.0047
 3510W        W 7561   2.986   4.926   0.992 -0.1554 -0.3485 -0.1818
 3511W        W 7562   0.900   6.903   4.395  0.0715 -0.0715  0.1506
 3512W        W 7563   3.071   9.204  13.842 -0.0756 -0.2503  0.1335
 3513W        W 7564   4.190   6.103   0.760 -0.2272 -0.1960  0.0165
 3514W        W 7565   6.393   3.819  11.234  0.0059  0.2802  0.2197
 3515W        W 7566   8.434   6.791   1.653 -0.1256 -0.0105  0.1327
 3516W        W 7567   5.612   2.205   4.908 -0.0539  0.2081 -0.1965
 3517W        W 7568   0.859   6.443   2.574  0.0853  0.1759  0.2038
 3518W        W 7569   8.151   5.434  12.159 -0.0586 -0.3700 -0.2572
 3519W        W 7570   0.019   3.426   1.594  0.0313  0.0415 -0.0326
 3520W        W 7571   7.411   1.328  10.497 -0.2731 -0.1675 -0.3574
 3521W        W 7572   2.782   9.033   3.226  0.2488 -0.3754  0.2776
 3522W        W 7573   2.685   9.095  11.225  0.0649 -0.0079  0.0191
 3523W        W 7574   9.976   9.490  13.468  0.0572  0.0270  0.0784
 3524W        W 7575   7.486   8.650  13.236 -0.0984  0.2779  0.3401
 3525W        W 7576   3.635   5.692   5.024 -0.3104  0.0869  0.2295
 3526W        W 7577   4.003   2.092  13.843 -0.0446  0.0428  0.0540
 3527W        W 7578   3.079   1.221  11.049 -0.0988  0.4037  0.1289
 3528W        W 7579   2.845   0.446  13.343  0.2693 -0.0225 -0.1418
 3529W        W 7580   5.557   1.194   2.184 -0.2072  0.1681  0.4238
 3530W        W 7581   8.787   6.940   2.450 -0.0714  0.2100 -0.4847
 3531W        W 7582   8.544   2.490  11.697  0.1689  0.0273 -0.0843
 3532W        W 7583   5.884   3.142   4.282 -0.0396  0.3881  0.0900
 3533W        W 7584   9.224   8.752   1.629  0.1805 -0.0347 -0.1175
 3534W        W 7585   5.423   9.746   3.922  0.3058  0.0632 -0.0568
 3535W        W 7586   9.189   1.465   9.729 -0.0460 -0.1961  0.0655
 3536W        W 7587   1.370   8.587   5.807 -0.3998  0.0573  0.1501
 3537W        W 7588   5.822   5.449  13.787  0.2521  0.1176 -0.1836
 3538W        W 7589   0.526   5.570  11.263  0.0761 -0.2843  0.0264
 3539W        W 7590   5.842   5.562   0.544  0.0155  0.0236 -0.2852
 3540W        W 7591   7.901   5.360  11.684  0.1003 -0.2783  0.0191
 3541W        W 7592   2.648   8.629  12.551 -0.1273  0.2708  0.1151
 3542W        W 7593   4.082   1.529   2.355  0.0821 -0.1097 -0.1039
 3543W        W 7594   8.306   6.754   0.137 -0.0844  0.0996 -0.0699
 3544W        W 7595   6.430   8.308  10.578 -0.1110 -0.1721  0.0396
 3545W        W 7596   6.259   2.861  13.146  0.0796  0.2484 -0.0649
 3546W        W 7597   5.944   0.596   0.059  0.0431  0.4003  0.0520
 3547W        W 7598   3.022   8.425   3.803  0.0765  0.1203  0.1395
 3548W        W 7599   3.004  10.046   4.519  0.0946 -0.1340  0.2111
 3549W        W 7600   0.685   8.225   0.295  0.1028 -0.0147  0.0328
 3550W        W 7601   1.374   6.733  12.794 -0.1062 -0.1714  0.2288
 3551W        W 7602   8.759   2.127  13.702 -0.1417  0.0141  0.4708
 3552W        W 7603   1.235   7.614   1.363 -0.1114  0.2408  0.0320
 3553W        W 7604   2.985   2.018  13.858  0.0063  0.1144 -0.3258
 3554W        W 7605   2.269   9.379  12.094  0.0945 -0.1344 -0.1216
 3555W        W 7606   7.578   9.601  11.938  0.1044  0.3297 -0.0741
 3556W        W 7607   2.295   8.773  10.971 -0.0607 -0.3100 -0.2757
 3557W        W 7608   2.125   8.722   4.300  0.2422 -0.0085  0.2167
 3558W        W 7609   7.068   3.864  11.784  0.0769 -0.0694  0.1057
 3559W        W 7610   3.448   5.930   0.992 -0.0090  0.2114 -0.1887
 3560W        W 7611   5.081   2.227  12.289 -0.0123  0.1797  0.0699
 3561W        W 7612   1.817   5.029   3.869  0.5947  0.3791 -0.3503
 3562W        W 7613   2.196   0.024   3.442 -0.0981  0.2175 -0.1249
 3563W        W 7614   9.720   0.903   0.290  0.1543 -0.0672  0.3501
 3564W        W 7615   0.562   7.235  12.844  0.1325  0.0510 -0.1590
 3565W        W 7616   6.437   0.039   2.305  0.1060  0.1838 -0.0411
 3566W        W 7617   4.634   0.097   2.359  0.1382  0.1812  0.1274
 3567W        W 7618   0.712   9.526   3.479  0.0745 -0.0142 -0.0341
 3568W        W 7619   2.852   4.298   2.133  0.1052 -0.1560 -0.0031
 3569W        W 7620   0.448   1.466  12.911  0.1945  0.2300 -0.0093
 3570W        W 7621   5.182   0.681   1.324  0.1243 -0.0604  0.2338
 3571W        W 7622   8.308   6.430  11.957  0.3152  0.0543  0.0360
 3572W        W 7623   7.432   9.093  13.856 -0.0679  0.1511  0.0028
 3573W        W 7624   4.264   5.589  13.330 -0.0705  0.1342  0.1205
 3574W        W 7625   9.107   4.417  13.530  0.3941 -0.0627 -0.0213
 3575W        W 7626   5.881   3.391   2.638 -0.0949 -0.0303  0.2443
 3576W        W 7627   1.569   6.005   0.949 -0.1292 -0.0748  0.0296
 3577W        W 7628   9.536   9.272  13.460  0.1220 -0.2433  0.0868
 3578W        W 7629   5.765   5.834  10.905  0.3486 -0.1986 -0.2785
 3579W        W 7630   5.103   7.410   0.900 -0.1693 -0.0011  0.0571
 3580W        W 7631   5.611   8.473   2.736 -0.1844  0.2662  0.3497
 3581W        W 7632   2.526   3.667  12.443 -0.1117 -0.1858 -0.1508
 3582W        W 7633   9.309   6.718  12.223 -0.1129  0.2737  0.1843
 3583W        W 7634   5.159   2.964   9.958  0.3411 -0.0212  0.0338
 3584W        W 7635   8.113   5.860   3.365  0.4780 -0.0844  0.0320
 3585W        W 7636   3.355   9.464   9.834  0.1166 -0.2644  0.2173
 3586W        W 7637   1.773   9.549   0.073 -0.0334 -0.2781 -0.1696
 3587W        W 7638   5.259   6.766   9.964 -0.1591 -0.1741  0.0219
 3588W        W 7639   0.417   6.433   0.762 -0.0203 -0.2220  0.1307
 3589W        W 7640   3.924   0.659   9.923  0.3204 -0.0545 -0.0224
 3590W        W 7641   2.524   6.445   3.618 -0.0378 -0.3213 -0.0142
 3591W        W 7642   9.261   7.157   4.379  0.1427 -0.2196  0.0165
 3592W        W 7643   5.353   0.414   3.999  0.0676 -0.1297 -0.0282
 3593W        W 7644   0.981   6.466   8.735 -0.0950  0.2580 -0.1534
 3594W        W 7645   3.319   0.120   4.941 -0.1278  0.3925 -0.0572
 3595W        W 7646   3.246   5.185   1.792  0.0209  0.1887  0.1006
 3596W        W 7647   4.195   5.581   0.985 -0.0702 -0.1599 -0.0657
 3597W        W 7648   2.129   6.061   2.092  0.3928  0.2166 -0.0765
 3598W        W 7649   8.040   9.609  11.684  0.3223 -0.1848 -0.3121
 3599W        W 7650   3.729   1.701   4.109 -0.0865 -0.1822 -0.1344
 3600W        W 7651   4.428   4.140  13.526 -0.2965  0.0561  0.2906
 3601W        W 7652   0.898   0.249  12.491 -0.0303  0.0788  0.1849
 3602W        W 7653   3.491   5.488  11.375 -0.1844  0.0697  0.0777
 3603W        W 7654   6.988   1.731  12.365 -0.1105 -0.0972 -0.3186
 3604W        W 7655   8.653   1.607  12.563  0.0916  0.0680  0.2384
 3605W        W 7656   8.929   5.603   0.075  0.0704 -0.0033 -0.0081
 3606W        W 7657   3.594   2.940   4.732  0.0041 -0.1372 -0.1992
 3607W        W 7658   1.160   7.351   0.909 -0.1569 -0.0041  0.1699
 3608W        W 7659   4.848   6.175   1.134 -0.0060  0.0888  0.0107
 3609W        W 7660   5.943   8.627   0.586 -0.3577  0.2116  0.1526
 3610W        W 7661   2.225   0.107   9.835 -0.0725 -0.1899  0.1232
 3611W        W 7662   2.234   2.116   1.643  0.2394 -0.1119 -0.0734
 3612W        W 7663   2.547   4.610  11.803  0.1803 -0.2718 -0.0410
 3613W        W 7664   6.350   0.105  11.813  0.2248 -0.0567 -0.1802
 3614W        W 7665   7.526   6.893   2.847 -0.1981  0.0183 -0.0670
 3615W        W 7666   8.402   1.849  13.458 -0.2018  0.2794 -0.3251
 3616W        W 7667   1.167   0.460  12.919  0.0327 -0.0912  0.2658
 3617W        W 7668   7.496   3.958   0.803  0.0047 -0.0336  0.0385
 3618W        W 7669   7.319   4.777  13.084  0.1509  0.0724  0.2985
 3619W        W 7670   1.632   2.735  13.083  0.0909  0.1927  0.1606
 3620W        W 7671   9.370   6.864  11.559 -0.0052 -0.1059 -0.0638
 3621W        W 7672   8.712   2.190   2.046 -0.1749 -0.2685  0.2119
 3622W        W 7673   6.036   2.043  10.735  0.1702 -0.1457  0.0489
 3623W        W 7674   9.682   0.968  13.401 -0.1425 -0.1552  0.2624
 3624W        W 7675   5.451   0.822  12.643  0.1114  0.2340  0.2287
 3625W        W 7676   1.417   0.979   4.814 -0.1422 -0.0274  0.1074
 3626W        W 7677   8.532   1.357  10.948 -0.2129  0.1639 -0.4869
 3627W        W 7678   1.474   6.190   3.439 -0.1356  0.0972  0.1619
 3628W        W 7679   1.008   0.021   1.582  0.0227  0.0431  0.4964
 3629W        W 7680   4.915   7.864   1.078 -0.0600 -0.1568 -0.4311
 3630W        W 7681   6.009   4.042   3.969  0.2770 -0.2160  0.1635
 3631W        W 7682   6.875   8.507   8.473 -0.1113  0.2030  0.0999
 3632W        W 7683   5.492   7.765   1.770  0.1530  0.3025  0.2085
 3633W        W 7684   2.037   9.477   3.665 -0.0411  0.1173  0.0609
 3634W        W 7685   3.097   6.910   0.663 -0.0934  0.0601  0.0223
 3635W        W 7686   8.905   1.097   4.529 -0.4049  0.0957 -0.0707
 3636W        W 7687   7.498   9.143   0.340  0.2547 -0.2695 -0.1014
 3637W        W 7688   8.555   8.423   0.718  0.0591 -0.0803  0.0088
 3638W        W 7689   3.687   2.468  13.912 -0.0100  0.0083 -0.0356
 3639W        W 7690   9.827   5.559   3.418  0.0744 -0.1572  0.2103
 3640W        W 7691   5.977   8.052  13.452 -0.0863 -0.3167  0.2613
 3641W        W 7692   5.024   4.899   2.529  0.1316 -0.2879  0.0813
 3642W        W 7693   8.886   4.261  13.144 -0.1626 -0.2232 -0.0199
 3643W        W 7694   5.135   3.647  13.727  0.0539 -0.1116 -0.0126
 3644W        W 7695   8.921   3.649  10.199  0.0551 -0.0931 -0.0023
 3645W        W 7696   0.755   7.529  11.874  0.1076  0.1774  0.0784
 3646W        W 7697   6.068   4.918   9.032  0.1406  0.4347 -0.1331
 3647W        W 7698   8.283   3.952   2.402 -0.2420  0.1801 -0.1541
 3648W        W 7699   0.356   1.363  12.321  0.1166  0.1586 -0.0983
 3649W        W 7700   7.862   0.419  13.272  0.1144  0.1947  0.1947
 3650W        W 7701   1.308   4.322   3.583 -0.3346  0.1327 -0.1190
 3651W        W 7702   4.048   5.669   0.529 -0.5427 -0.1157 -0.0321
 3652W        W 7703   9.553   0.255   0.998 -0.1902  0.0371  0.1339
 3653W        W 7704   9.611   4.295   2.881 -0.0398  0.1631 -0.3487
 3654W        W 7705   8.490   0.634  12.218  0.0912  0.0192 -0.0359
 3655W        W 7706   9.299   8.675  11.876 -0.0658 -0.3207  0.2522
 3656W        W 7707   8.396   2.742  12.123 -0.1141  0.1916 -0.1452
 3657W        W 7708   7.991   8.521   0.026 -0.0346 -0.0414 -0.2743
 3658W        W 7709   1.848   5.618   3.235  0.2464 -0.0006 -0.1876
 3659W        W 7710   8.513   0.026   1.975  0.1751  0.0589  0.1861
 3660W        W 7711   6.320   3.996  10.769  0.2899  0.2346 -0.1704
 3661W        W 7712   3.795   8.733   9.645 -0.1583  0.2139  0.0933
 3662W        W 7713   1.957   1.723  12.675  0.1715  0.0395 -0.0416
 3663W        W 7714   8.327   6.647  13.338  0.2646  0.2771  0.2835
 3664W        W 7715   6.299   3.257   1.344 -0.0044  0.1472  0.1305
 3665W        W 7716   5.213   1.722   0.184 -0.2796  0.1254  0.0996
 3666W        W 7717   7.498   6.809   0.304 -0.0884  0.0020  0.0620
 3667W        W 7718   3.989   3.075   0.945 -0.2208  0.1923  0.0874
 3668W        W 7719   6.133   8.437   2.606  0.0741  0.2703  0.1275
 3669W        W 7720   1.834   1.313   0.462  0.2123 -0.1033  0.0177
 3670W        W 7721   4.723   5.289  10.972  0.0547  0.0407 -0.1241
 3671W        W 7722   8.175   2.280  12.144  0.1025 -0.3030 -0.2236
 3672W        W 7723   9.119   2.408   3.283 -0.0119 -0.0122 -0.2028
 3673W        W 7724   6.415   3.499  11.792 -0.0647 -0.0378 -0.2161
 3674W        W 7725   2.964   0.714   3.328  0.1856 -0.3687  0.0348
 3675W        W 7726   1.287   3.312   2.628 -0.0406 -0.4255 -0.1330
 3676W        W 7727   7.951   2.743  10.797  0.0618 -0.1526 -0.1189
 3677W        W 7728   3.553   7.203  13.792 -0.1425 -0.0679 -0.1832
 3678W        W 7729   6.914   4.369  12.047 -0.0768 -0.1865 -0.1731
 3679W        W 7730   6.296   7.582   2.326 -0.0214 -0.2528 -0.0724
 3680W        W 7731   2.867   4.137   3.065 -0.0031 -0.0769  0.2195
 3681W        W 7732   2.115   5.313   8.595  0.0118  0.1496  0.0238
 3682W        W 7733   3.871   8.172  10.979 -0.2362 -0.1978 -0.0276
 3683W        W 7734   0.220   9.381   5.046  0.1222  0.2751 -0.2346
 3684W        W 7735   5.730   3.732   4.340 -0.2158  0.0117 -0.2726
 3685W        W 7736   6.291   8.416  12.303 -0.4217  0.0081 -0.2397
 3686W        W 7737   0.042   2.942   1.475 -0.0216  0.0246 -0.0421
 3687W        W 7738   5.879   1.919   2.217 -0.0890  0.1537 -0.4123
 3688W        W 7739   9.454   7.058   3.219 -0.2544  0.3306  0.0134
 3689W        W 7740   9.139   5.738   1.070  0.3269 -0.1230  0.0796
 3690W        W 7741   2.992   1.581   2.643 -0.1113  0.2161 -0.2749
 3691W        W 7742   3.954   7.874  11.728  0.3235 -0.2701  0.2779
 3692W        W 7743   2.175   0.661   3.571 -0.0956  0.0707 -0.2177
 3693W        W 7744   7.765   0.987  11.550 -0.0518  0.4760  0.1172
 3694W        W 7745   6.990   9.576   2.960  0.0434 -0.2453  0.1185
 3695W        W 7746   3.935   2.968   1.489 -0.0459 -0.2740 -0.0969
 3696W        W 7747   5.959   1.748   1.769 -0.1005 -0.0371  0.2097
 3697W        W 7748   2.794   7.775   0.496 -0.4397  0.3820 -0.1673
 3698W        W 7749   0.627   9.375  12.305  0.2332  0.1902  0.1878
 3699W        W 7750   2.590   8.722   4.429 -0.3021 -0.1051 -0.0777
 3700W        W 7751   1.332   6.303   2.483 -0.0910  0.0059  0.0397
 3701W        W 7752  10.119   1.086  11.776 -0.1796 -0.3962  0.3891
 3702W        W 7753   3.607   5.885  12.705  0.1144 -0.0858 -0.2375
 3703W        W 7754   1.634   3.142   3.845  0.0111  0.0510 -0.1329
 3704W        W 7755   5.060   5.463   9.859  0.1759 -0.1647 -0.0915
 3705W        W 7756   1.383   9.215   1.209  0.6118 -0.1237 -0.1448
 3706W        W 7757   8.870   4.651   2.872 -0.4369 -0.0947  0.1044
 3707W        W 7758   7.022   6.873  11.771 -0.1382 -0.2526 -0.1233
 3708W        W 7759   2.712   2.443  12.470  0.0422  0.0804 -0.1113
 3709W        W 7760   4.036   6.190  12.420  0.0606 -0.0359 -0.4291
 3710W        W 7761   3.525   3.273   1.123  0.2559  0.1267 -0.1322
 3711W        W 7762   5.129   1.043   3.369 -0.2373 -0.3323 -0.1374
 3712W        W 7763   6.502   9.728   2.010  0.0783  0.2830 -0.1647
 3713W        W 7764   1.199   0.768  11.497 -0.0908 -0.1696 -0.0525
 3714W        W 7765   9.878   6.832   3.833 -0.1809  0.1318 -0.1486
 3715W        W 7766   7.979   3.610   4.336  0.1788 -0.3649  0.0349
 3716W        W 7767   1.876  10.100   3.025  0.0735 -0.0307 -0.1481
 3717W        W 7768   1.210   9.172   0.431  0.2171 -0.0140 -0.4104
 3718W        W 7769   9.738   6.635   0.995 -0.0064 -0.3647  0.0228
 3719W        W 7770   7.588   3.346  12.385 -0.0122  0.2204  0.1015
 3720W        W 7771   2.062   5.972  13.785 -0.0691 -0.0793 -0.2261
 3721W        W 7772   3.322   0.235  12.606  0.2326  0.0379 -0.0509
 3722W        W 7773   0.699   2.621   9.780  0.2410 -0.0554  0.0528
 3723W        W 7774   1.965   0.982   2.367  0.0100  0.0692 -0.5797
 3724W        W 7775   4.852   6.307  10.497 -0.4005 -0.0681 -0.1772
 3725W        W 7776   4.927   3.928   4.392 -0.2878  0.1972 -0.3227
 3726W        W 7777   5.067   2.854  13.509  0.3290 -0.2297  0.1096
 3727W        W 7778   6.434   2.639  11.879  0.0004 -0.1635 -0.0373
 3728W        W 7779  10.065   8.700   3.731  0.2868 -0.3351  0.0461
 3729W        W 7780   8.314   4.843   0.872  0.2249 -0.2722  0.0386
 3730W        W 7781   0.961   3.656   3.003 -0.0643 -0.2230 -0.1839
 3731W        W 7782   9.134   0.203   0.210 -0.0652  0.2733 -0.4493
 3732W        W 7783   5.319   5.313   1.204 -0.1133 -0.1211 -0.1124
 3733W        W 7784   7.636   3.547   9.866  0.0985  0.0741  0.1379
 3734W        W 7785   0.080   8.972   4.141  0.0196  0.2264 -0.0249
 3735W        W 7786   1.439   9.506  12.702 -0.0768 -0.2735  0.0302
 3736W        W 7787   7.050   3.609  10.683  0.1185 -0.0894 -0.1298
 3737W        W 7788   9.675   3.751  13.265  0.0640 -0.1257 -0.1764
 3738W        W 7789   2.316   9.099  11.700  0.2613 -0.2757 -0.0429
 3739W        W 7790   2.073   1.812   3.610  0.0135  0.1261  0.0405
 3740W        W 7791   9.337   7.145   9.842  0.0726 -0.3375  0.3609
 3741W        W 7792   3.328   2.591   4.507  0.0488  0.0054  0.1878
 3742W        W 7793   6.286   5.008   0.009 -0.1631 -0.0036 -0.1779
 3743W        W 7794   3.368   8.722  13.587  0.1859  0.0485 -0.0654
 3744W        W 7795   3.299   0.222   1.249 -0.5482  0.0339 -0.0296
 3745W        W 7796   6.438   9.926   1.543  0.1608 -0.1972 -0.2469
 3746W        W 7797   3.187   3.380   1.496 -0.0921 -0.0659 -0.1218
 3747W        W 7798   0.325   7.882  10.069  0.1824  0.1779  0.0461
 3748W        W 7799   3.945   5.694  12.305  0.0889 -0.3678  0.2132
 3749W        W 7800   3.164   5.050  12.417 -0.0945 -0.1001  0.2793
 3750W        W 7801   5.837   9.347   2.419  0.2134 -0.0248  0.0659
 3751W        W 7802   4.398   6.969  12.299 -0.2320 -0.0362  0.0514
 3752W        W 7803   7.958   6.134   9.907  0.0523  0.0137 -0.1380
 3753W        W 7804   1.780   3.582   4.125 -0.1015 -0.2121  0.2836
 3754W        W 7805   8.322   4.793   0.074  0.0125 -0.3205  0.3817
 3755W        W 7806   8.409   7.225   3.867 -0.0943 -0.0886  0.0647
 3756W        W 7807   8.321   1.850   1.931  0.2121  0.2801  0.0272
 3757W        W 7808   5.162   7.295  11.469 -0.2113 -0.1854  0.0688
 3758W        W 7809   3.064   3.327   0.941  0.0905 -0.2727 -0.1480
 3759W        W 7810   9.539   9.080   2.911  0.1841 -0.1999 -0.0515
 3760W        W 7811   8.604   9.123   2.835 -0.2237 -0.2581  0.0472
 3761W        W 7812   0.726   9.620  10.946  0.1010 -0.0174  0.1806
 3762W        W 7813   7.613   2.381  12.856  0.1332 -0.1769  0.1191
 3763W        W 7814   1.178   8.626  11.247  0.2236 -0.1533  0.0247
 3764W        W 7815   1.272   5.818  12.693  0.1389 -0.0461 -0.2469
 3765W        W 7816   1.363   5.729  11.184 -0.0006  0.0591 -0.1803
 3766W        W 7817   0.210   0.125   1.432  0.0015 -0.1300 -0.1259
 3767W        W 7818   5.888   5.147  12.073 -0.0201 -0.1254  0.1801
 3768W        W 7819   0.722   6.242   9.701 -0.0213 -0.0164 -0.0945
 3769W        W 7820   4.321   9.353  12.910  0.0577  0.1972 -0.0298
 3770W        W 7821   9.153   6.268   3.810 -0.2338  0.2987 -0.0225
 3771W        W 7822   3.123   0.877   5.351  0.2743 -0.0103  0.1793
 3772W        W 7823   5.536   5.364  12.294 -0.0042  0.0477  0.0667
 3773W        W 7824   0.969   8.011   2.922 -0.0228 -0.1215  0.1607
 3774W        W 7825   2.991   8.720   2.067 -0.1209  0.3699  0.0683
 3775W        W 7826   7.219   5.618   2.316  0.4863 -0.0598  0.0428
 3776W        W 7827   7.181   8.726   8.167 -0.1150 -0.1727  0.2740
 3777W        W 7828   9.771   8.250  12.904 -0.1118 -0.1978 -0.1789
 3778W        W 7829   7.104   8.572   0.959 -0.1677  0.0708 -0.0622
 3779W        W 7830   4.623   4.843  11.578  0.0072 -0.1218 -0.0466
 3780W        W 7831   5.476   4.916   1.421  0.2615 -0.5445 -0.2247
 3781W        W 7832   0.117   4.282  13.763  0.2068  0.0459 -0.1453
 3782W        W 7833   6.497   1.382   0.455  0.0361 -0.2654 -0.0541
 3783W        W 7834   3.316   4.085   9.320 -0.2181 -0.2349  0.2597
 3784W        W 7835   8.900   4.679  11.285 -0.3011  0.0973 -0.2907
 3785W        W 7836   6.393   8.893  12.525 -0.1247 -0.0967 -0.0437
 3786W        W 7837   0.031   2.028   1.795  0.0109 -0.1461 -0.0736
 3787W        W 7838   5.056   5.012   0.208  0.0155 -0.1878  0.1170
 3788W        W 7839   4.029   3.691   0.083 -0.1721  0.2642 -0.2675
 3789W        W 7840   2.444   3.695  13.846 -0.3891 -0.3339  0.2769
 3790W        W 7841   3.684   4.298   2.449 -0.1347  0.3854  0.0612
 3791W        W 7842   2.187   0.899   5.061 -0.0643 -0.1757 -0.0537
 3792W        W 7843   1.688   1.407  12.342 -0.0935 -0.0118  0.1593
 3793W        W 7844   7.554   0.880   2.653  0.0850 -0.3413  0.2743
 3794W        W 7845   3.920   0.509  11.497 -0.0402 -0.1319 -0.0213
 3795W        W 7846   9.640   7.231  11.290 -0.6060 -0.1082 -0.1088
 3796W        W 7847   2.900   0.616   1.627 -0.2611  0.3502 -0.1373
 3797W        W 7848   6.027   2.850   2.561 -0.0643  0.1436 -0.3349
 3798W        W 7849   1.168   9.338  13.149  0.1474  0.3719  0.2324
 3799W        W 7850   6.297   3.592   4.199  0.0817  0.1594 -0.2280
 3800W        W 7851   1.673   7.535   1.600 -0.0539 -0.0455 -0.1973
 3801W        W 7852   5.439   6.049   3.655 -0.2314 -0.1061  0.0513
 3802W        W 7853   6.375   1.025   2.068 -0.2448 -0.2816  0.3547
 3803W        W 7854   4.411   3.088   3.867 -0.2848 -0.2144  0.0240
 3804W        W 7855   3.455   5.432   4.239  0.0583 -0.2279 -0.1114
 3805W        W 7856   3.065   2.144  13.363 -0.0815 -0.1783  0.0176
 3806W        W 7857   9.988   6.149   4.855  0.1840  0.1675 -0.2479
 3807W        W 7858   2.989   7.758   2.226 -0.1641 -0.0143 -0.0526
 3808W        W 7859   3.980   3.849   0.539  0.2327 -0.1631  0.2820
 3809W        W 7860   0.453   7.033   9.859 -0.0218  0.1091  0.1592
 3810W        W 7861   4.739   6.759  10.678 -0.2484  0.1813 -0.1773
 3811W        W 7862   1.040   3.714   3.963  0.3644  0.0249  0.2033
 3812W        W 7863   7.517   0.204  12.919 -0.0367 -0.1022 -0.2504
 3813W        W 7864   7.555   7.703  12.938 -0.0017  0.4424  0.1728
 3814W        W 7865   8.103   3.805   0.588 -0.1893  0.1928 -0.2282
 3815W        W 7866   2.875   6.676   1.265 -0.1607 -0.2107  0.0705
 3816W        W 7867   1.468   0.074  11.825  0.0417 -0.0621 -0.3331
 3817W        W 7868   8.062   0.595  11.782  0.0246  0.2027  0.2821
 3818W        W 7869   1.253   9.725   1.145 -0.1256 -0.2154 -0.3264
 3819W        W 7870   8.065   4.638  11.957  0.0988 -0.0290 -0.0728
 3820W        W 7871   4.900   2.097   1.399  0.3692 -0.0811 -0.2455
 3821W        W 7872   0.244   8.472  11.659  0.4736 -0.1247  0.0585
 3822W        W 7873   7.361  10.041  12.089  0.1465 -0.0564 -0.0011
 3823W        W 7874   2.867   5.370   2.128  0.3584  0.3261  0.4146
 3824W        W 7875   3.190   4.090  12.927 -0.0231 -0.0235  0.2262
 3825W        W 7876   3.220   6.299   1.882 -0.0586 -0.1731 -0.0682
 3826W        W 7877   0.521   9.339  10.253  0.1464  0.1666 -0.2078
 3827W        W 7878   0.735   4.553  13.282 -0.4834  0.0162 -0.1299
 3828W        W 7879   8.756   8.496  11.045  0.1488 -0.1078 -0.1573
 3829W        W 7880   9.719   0.595  10.473  0.3701  0.2287 -0.0304
 3830W        W 7881   6.607   7.498   2.701  0.0035 -0.2634  0.1537
 3831W        W 7882   2.786   4.496   0.815  0.1193 -0.1931  0.1081
 3832W        W 7883   2.492   2.802   2.107  0.2311 -0.0707  0.1123
 3833W        W 7884   4.302   0.892   5.411 -0.2699  0.0126  0.1978
 3834W        W 7885   0.502   6.853  12.461  0.2556 -0.0151 -0.2424
 3835W        W 7886   2.367   2.703  10.454  0.1565 -0.1327 -0.1400
 3836W        W 7887   8.517   4.556   3.236 -0.1819 -0.2261 -0.1215
 3837W        W 7888   5.829   2.409  13.841  0.0156  0.0394  0.1954
 3838W        W 7889   2.930   7.406  13.749 -0.3770  0.1312  0.2403
 3839W        W 7890   3.389   1.352  10.538 -0.3833 -0.0099  0.0881
 3840W        W 7891   7.162   9.247  11.412  0.2717 -0.1029  0.0657
 3841W        W 7892   6.409   6.645  13.585 -0.0351  0.0578 -0.2202
 3842W        W 7893   1.390   0.556   2.342  0.2665 -0.1638 -0.2369
 3843W        W 7894   5.949   2.719   9.101 -0.0655 -0.2552  0.1265
 3844W        W 7895   9.471   2.893  11.134 -0.3032  0.4302  0.1228
 3845W        W 7896   6.253   2.586   4.893  0.0214 -0.2140  0.3164
 3846W        W 7897   4.833   2.487   4.357  0.1325 -0.0506  0.1248
 3847W        W 7898   0.055   8.465  13.741  0.1487  0.1643 -0.2124
 3848W        W 7899   2.185   6.700  10.338  0.2608  0.0108  0.4495
 3849W        W 7900   1.698   6.561  11.707 -0.3010 -0.0607  0.2062
 3850W        W 7901   8.694   0.794   0.846 -0.0024  0.0239 -0.0199
 3851W        W 7902   9.565   4.548  11.849 -0.2326 -0.1409  0.0404
 3852W        W 7903   0.518   8.427   0.801  0.3669  0.1387 -0.2730
 3853W        W 7904   6.311   0.253  10.823 -0.1582 -0.0421  0.0062
 3854W        W 7905   1.688   6.815   9.967  0.2260 -0.0079 -0.1898
 3855W        W 7906   3.261   2.455  12.430  0.2986  0.2695 -0.0321
 3856W        W 7907   9.181   8.473   0.725  0.3011 -0.0922  0.0786
 3857W        W 7908   8.179   7.307  10.693 -0.0046 -0.1619 -0.0548
 3858W        W 7909   7.056  10.002   0.156  0.1991 -0.2445 -0.0954
 3859W        W 7910  10.016   1.865   4.195  0.1247 -0.2530  0.0053
 3860W        W 7911   6.037   4.520   0.093  0.4692  0.0596 -0.2472
 3861W        W 7912   7.851   6.396  10.865 -0.1545 -0.0387  0.1934
 3862W        W 7913   3.480   0.262  14.018 -0.0091  0.0632  0.1212
 3863W        W 7914   3.287   4.993  10.931  0.0604  0.0986 -0.0714
 3864W        W 7915   8.362   9.314   0.484  0.0428 -0.2062  0.0043
 3865W        W 7916   7.960   1.987  13.601 -0.0341  0.2022 -0.1678
 3866W        W 7917   2.547   2.154  11.213 -0.1890  0.0245  0.1662
 3867W        W 7918   3.622   9.321   0.977  0.2905 -0.2944  0.5696
 3868W        W 7919   6.327   9.263   2.288 -0.1280  0.1003  0.0375
 3869W        W 7920   0.384   5.955  11.547 -0.1192  0.1004  0.3352
 3870W        W 7921   0.886   4.845   3.167 -0.0765  0.3259 -0.1476
 3871W        W 7922   1.790   3.544   9.856  0.0068 -0.1489 -0.1241
 3872W        W 7923   4.485   5.393   9.188  0.3412  0.0844 -0.2247
 3873W        W 7924   6.101   6.193  10.665 -0.0738  0.0095 -0.0298
 3874W        W 7925   5.050   3.892   0.523  0.2133  0.2858  0.3275
 3875W        W 7926   7.378   2.253   4.160  0.0275 -0.0009 -0.1909
 3876W        W 7927   6.764   2.995   9.579 -0.0775  0.1958 -0.0546
 3877W        W 7928   1.269   5.040  10.733  0.4231 -0.1173  0.2455
 3878W        W 7929   6.773   3.475   1.509 -0.1270  0.2712 -0.1954
 3879W        W 7930   2.806   1.685   4.116  0.1271  0.0019  0.0595
 3880W        W 7931   8.547   4.898  11.001  0.3048  0.0196 -0.0408
 3881W        W 7932   7.076   6.789  12.455  0.1695 -0.1601 -0.0253
 3882W        W 7933   7.456   0.669   3.202  0.0032 -0.0467  0.3333
 3883W        W 7934   0.225   0.407  14.042 -0.2175  0.1967 -0.0039
 3884W        W 7935   6.461   3.451   5.036  0.2140 -0.0101 -0.0351
 3885W        W 7936   6.194   9.436  13.345  0.2800 -0.3325 -0.0609
 3886W        W 7937   3.679   6.748   0.098  0.0299  0.2421 -0.2496
 3887W        W 7938   6.264   9.437   2.792  0.1113  0.1661  0.0709
 3888W        W 7939   3.410   9.075  10.496 -0.1733 -0.0741  0.2001
 3889W        W 7940   7.188  10.117   1.346  0.1550 -0.1474 -0.1018
 3890W        W 7941   7.715   4.814  11.095 -0.0953 -0.2756  0.1356
 3891W        W 7942   8.944   3.351   9.635  0.0572 -0.2912 -0.1611
 3892W        W 7943   0.276   9.958  11.039 -0.0218 -0.2886  0.0740
 3893W        W 7944   6.148   8.588  12.785 -0.1708  0.1620 -0.2733
 3894W        W 7945   5.520   5.949   0.562 -0.1260  0.1060 -0.3774
 3895W        W 7946   4.076   2.445   0.263 -0.0110 -0.1129 -0.0346
 3896W        W 7947   8.097   0.030   1.611  0.4040  0.1668 -0.1229
 3897W        W 7948   1.523   7.335  11.296  0.0547 -0.0865 -0.0073
 3898W        W 7949   9.460   3.561   2.273 -0.0982 -0.1646  0.1516
 3899W        W 7950   3.604   0.141   3.880  0.2399 -0.3202  0.2351
 3900W        W 7951   9.027   5.111  12.283  0.0517 -0.0174 -0.1079
 3901W        W 7952   7.372   4.851   1.852 -0.0373  0.0629 -0.0132
 3902W        W 7953   4.109   5.272  11.027 -0.2386  0.1343 -0.0071
 3903W        W 7954   7.440   6.270  10.607 -0.3392  0.1901 -0.2002
 3904W        W 7955   9.923   1.294   2.854 -0.0968 -0.0511  0.0460
 3905W        W 7956   0.038   3.050  12.168 -0.1766  0.2221  0.5416
 3906W        W 7957   2.642   2.541   0.552  0.0172  0.2337 -0.4088
 3907W        W 7958   5.555   0.969   2.620  0.1002  0.2098 -0.0238
 3908W        W 7959   1.044   5.422  13.451  0.1699 -0.2132  0.0154
 3909W        W 7960   2.007   1.135  11.979 -0.1176 -0.0737 -0.4532
 3910W        W 7961  10.001   9.916   8.927 -0.2129 -0.1188 -0.2729
 3911W        W 7962   3.860   8.745  12.774 -0.2655  0.1929  0.0634
 3912W        W 7963   7.560   1.027   9.082  0.2329 -0.0018  0.1590
 3913W        W 7964   2.702   2.425   9.091 -0.0148  0.1698  0.0826
 3914W        W 7965   7.800   2.606  12.288  0.0219 -0.0295  0.0187
 3915W        W 7966   0.005   1.886   3.613 -0.1698 -0.3597  0.1648
 3916W        W 7967   9.832   4.023   0.647 -0.1425 -0.1871 -0.0405
 3917W        W 7968   2.471   4.293   9.734  0.2883 -0.0843  0.3372
 3918W        W 7969   1.803   3.175  10.443 -0.0691 -0.4067  0.4955
 3919W        W 7970   8.703  10.120  13.067 -0.1111 -0.1420 -0.2786
 3920W        W 7971   5.109   2.277   0.196  0.0492  0.0036  0.3112
 3921W        W 7972   7.604   6.844  12.547 -0.0356  0.2789  0.0050
 3922W        W 7973   9.437   2.419  11.554 -0.2003  0.1457 -0.1734
 3923W        W 7974   2.489   7.810   5.527 -0.1475 -0.3743 -0.2142
 3924W        W 7975   1.580   4.075   4.452 -0.0280  0.2728  0.0012
 3925W        W 7976   3.348   6.084   9.672 -0.1997 -0.0861 -0.1394
 3926W        W 7977   5.693   9.563   4.617  0.2036 -0.0236  0.1507
 3927W        W 7978   9.356   1.705   0.341  0.1878  0.0642  0.0109
 3928W        W 7979   2.627   5.505   8.795 -0.2938 -0.0491 -0.0347
 3929W        W 7980   0.734   3.412   0.653 -0.0269  0.0658  0.1339
 3930W        W 7981   3.620   0.429  10.596  0.0118  0.2385 -0.0302
 3931W        W 7982   0.275   5.718   3.935  0.0371  0.1253 -0.1757
 3932W        W 7983   3.925   2.590  13.021 -0.0162  0.0080 -0.0896
 3933W        W 7984   2.320   8.179   3.085 -0.1084  0.0417 -0.1293
 3934W        W 7985   5.193   1.627  13.251  0.2089 -0.1739 -0.0625
 3935W        W 7986   1.405   8.991   3.799  0.0339  0.1840 -0.1918
 3936W        W 7987   2.837   8.966   3.718 -0.2619 -0.0806 -0.1112
 3937W        W 7988   1.093   8.306   1.827 -0.4293  0.0786 -0.1542
 3938W        W 7989   1.206   1.731  12.315 -0.2025 -0.2112 -0.1884
 3939W        W 7990   3.732   1.002  12.470  0.1771  0.0672 -0.1520
 3940W        W 7991   1.557   1.091  11.891  0.0903 -0.0162 -0.1613
 3941W        W 7992   9.800   1.598  10.680 -0.4844  0.1493  0.0591
 3942W        W 7993   5.051   3.708  12.142  0.3677  0.0633  0.0770
 3943W        W 7994   5.044   1.219  12.081 -0.1328 -0.0895 -0.3638
 3944W        W 7995   4.479   6.098  11.934  0.2992 -0.2616  0.4682
 3945W        W 7996   8.181   2.727   9.459 -0.3060 -0.0410  0.0790
 3946W        W 7997   4.114   7.042  11.513  0.2773  0.2574  0.0471
 3947W        W 7998   7.814   8.665  10.897 -0.1891  0.0325 -0.0450
 3948W        W 7999   5.261   9.484   2.570  0.3871  0.1571  0.1536
 3949W        W 8000   3.862   3.409  11.818 -0.0291 -0.0238  0.2322
 3950W        W 8001   6.500   4.440  14.048  0.0739 -0.0436 -0.0785
 3951W        W 8002   8.657   4.169  13.618  0.2724  0.0653  0.1590
 3952W        W 8003   4.345   2.615   3.910  0.0546 -0.6447  0.0611
 3953W        W 8004   0.114   5.206   1.718 -0.3393  0.1503 -0.3795
 3954W        W 8005   4.511   0.728   5.860  0.0042  0.3736  0.2185
 3955W        W 8006   2.855   6.075  10.475 -0.1621  0.0064  0.1134
 3956W        W 8007   3.167   3.151   4.549  0.1488  0.0964 -0.4266
 3957W        W 8008   4.473   4.570   4.333 -0.3554  0.0769 -0.0493
 3958W        W 8009   6.410   8.412   0.697  0.2388 -0.0666  0.0242
 3959W        W 8010   2.431   2.380   3.570  0.2073 -0.3595  0.0381
 3960W        W 8011   9.912   1.102   2.273 -0.1727  0.0848 -0.3444
 3961W        W 8012   2.486   6.764   2.903  0.0978  0.2582 -0.0441
 3962W        W 8013  10.020   6.109  10.665  0.2080 -0.2846  0.0581
 3963W        W 8014   7.481   1.688  11.775 -0.1712 -0.0914  0.2488
 3964W        W 8015   1.512   6.109  13.916 -0.1631  0.0486  0.1331
 3965W        W 8016   5.007   1.956   3.241  0.2418 -0.0711  0.0119
 3966W        W 8017   3.021   5.316  11.503  0.1650  0.0447 -0.1618
 3967W        W 8018   5.322   2.444   1.526  0.0332  0.1865  0.0607
 3968W        W 8019   3.257   3.361  11.356 -0.0990 -0.1240  0.1592
 3969W        W 8020   1.629   2.523   4.218  0.0453  0.3183 -0.1036
 3970W        W 8021   2.176   0.047   2.200  0.0566  0.0373  0.0798
 3971W        W 8022   5.167   0.660  13.793 -0.0157  0.2090 -0.3277
 3972W        W 8023   3.850   1.934   3.680 -0.0114 -0.1242 -0.0209
 3973W        W 8024   9.448   5.542   2.108 -0.0666 -0.0606  0.1603
 3974W        W 8025   2.780   1.393  10.056 -0.1032  0.1302 -0.1605
 3975W        W 8026   7.918   7.237   0.944 -0.2658  0.0526 -0.0124
 3976W        W 8027   1.492   8.501  10.329 -0.0086  0.2020 -0.2915
 3977W        W 8028   8.816   2.612   1.625 -0.0618  0.0655 -0.2192
 3978W        W 8029   9.537   5.794  10.149  0.1492 -0.0213  0.0559
 3979W        W 8030   9.575   2.072   9.400  0.1277  0.2112  0.1962
 3980W        W 8031   1.541   0.656   0.619  0.0380  0.2960 -0.3642
 3981W        W 8032   5.565   4.145  12.373 -0.0612  0.0279 -0.1159
 3982W        W 8033   0.212   6.499  11.395 -0.0260  0.1257 -0.1745
 3983W        W 8034   1.741   1.067  10.157  0.0146 -0.0597  0.1369
 3984W        W 8035   0.259   2.436   1.660 -0.0094 -0.1051  0.0919
 3985W        W 8036   1.804   9.007   4.604  0.3965  0.0774  0.1621
 3986W        W 8037   0.936   2.822  13.922 -0.0381  0.2722 -0.2450
 3987W        W 8038   7.553   0.715  12.844 -0.1049  0.3384 -0.2252
 3988W        W 8039   9.370   5.542  12.932  0.2046 -0.0184  0.1471
 3989W        W 8040   0.502   0.858   8.886 -0.1476  0.2858  0.1327
 3990W        W 8041   0.825   6.820   9.461 -0.0129 -0.0856  0.1479
 3991W        W 8042   8.654   2.370   5.030  0.0331  0.0197 -0.1731
 3992W        W 8043   3.774   2.660   4.267  0.0289  0.1139 -0.0086
 3993W        W 8044   4.796   1.304  12.985  0.1642  0.1748 -0.1069
 3994W        W 8045   4.366  10.040   0.721 -0.1489  0.0393 -0.1303
 3995W        W 8046   5.275   3.552   9.509  0.0860 -0.0598  0.0234
 3996W        W 8047   7.556   7.367   2.802  0.3082  0.1315 -0.0560
 3997W        W 8048   6.979   0.367   4.435  0.0382  0.0788  0.3138
 3998W        W 8049   6.477   4.139   9.519  0.1961  0.2722  0.0841
 3999W        W 8050   3.125   9.567   3.473  0.6348  0.1126  0.1043
 4000W        W 8051   8.201   1.271   3.065 -0.0269 -0.2334  0.2070
 4001W        W 8052   1.275   0.814   3.888 -0.0831 -0.0473 -0.1005
 4002W        W 8053   2.701   6.495   9.269  0.1847 -0.2211 -0.1743
 4003W        W 8054   5.570   4.251   0.247 -0.1806 -0.0752 -0.1074
 4004W        W 8055   9.452   5.226   3.349 -0.3003 -0.0001 -0.0976
 4005W        W 8056   8.958   4.271  10.868 -0.1759 -0.3143  0.0224
 4006W        W 8057   3.945   6.076  10.420  0.0591 -0.0661 -0.4699
 4007W        W 8058   7.740   4.885   0.724 -0.2458 -0.3609  0.2261
 4008W        W 8059   4.865   2.652   0.633  0.0817  0.2133  0.2671
 4009W        W 8060   2.659   1.174   4.095 -0.0630  0.0026  0.1173
 4010W        W 8061   2.241   6.482  12.944  0.1092 -0.0804 -0.0990
 4011W        W 8062   2.414   5.594   9.412  0.1286  0.2829 -0.0778
 4012W        W 8063   9.807  10.019   2.529 -0.3322  0.2767 -0.1117
 4013W        W 8064   4.753   5.123   3.426  0.0280 -0.0986 -0.1783
 4014W        W 8065   3.983   7.378   3.090 -0.1438 -0.2836  0.5222
 4015W        W 8066   0.810   1.606   0.207 -0.0110  0.3380 -0.1351
 4016W        W 8067   0.048   8.952  11.856 -0.1755 -0.0934 -0.0427
 4017W        W 8068   8.065   0.666  12.516 -0.0759 -0.2539  0.4225
 4018W        W 8069   8.377   0.409   1.609 -0.1474 -0.1964  0.0966
 4019W        W 8070   1.906   7.758   0.711  0.0034  0.0317  0.0187
 4020W        W 8071   2.444   3.022   1.665 -0.3544 -0.1809 -0.1287
 4021W        W 8072   9.849   0.598  11.685  0.3114 -0.3028  0.1901
 4022W        W 8073   7.214   4.824   0.896  0.0426 -0.3422  0.1155
 4023W        W 8074   7.606   0.636  11.161  0.1794 -0.1480  0.0081
 4024W        W 8075   6.829   4.108  13.279  0.3047  0.3189 -0.1667
 4025W        W 8076   9.545   0.112   1.596  0.3108  0.0216 -0.3879
 4026W        W 8077   2.779   2.342  13.005 -0.2201 -0.0594 -0.2033
 4027W        W 8078   1.157   1.139   2.801  0.3187 -0.3348 -0.3710
 4028W        W 8079   1.828   4.070   1.040 -0.4681  0.0576 -0.1325
 4029W        W 8080   2.831   4.821  11.408 -0.2107  0.0386  0.0718
 4030W        W 8081   1.312   2.908  12.611 -0.1018  0.0227 -0.0088
 4031W        W 8082   3.808   9.144   4.008  0.1185 -0.1627 -0.2309
 4032W        W 8083   8.728   0.394   0.518 -0.0001  0.2337 -0.1047
 4033W        W 8084   6.393   3.850  13.369  0.1430 -0.0237 -0.0875
 4034W        W 8085   8.633   7.391   0.351  0.3347  0.1157 -0.2203
 4035W        W 8086   4.279   4.025   5.713  0.0425  0.0057  0.3386
 4036W        W 8087   0.413   3.341  12.800 -0.2369  0.0475  0.1818
 4037W        W 8088   8.022   8.911   7.523  0.0718 -0.1504  0.1163
 4038W        W 8089   9.212   6.002   0.272  0.1341 -0.2891 -0.1198
 4039W        W 8090   9.231   5.673  13.389 -0.2018 -0.1753  0.1701
 4040W        W 8091   2.463   8.952  13.201 -0.0320  0.0293 -0.0407
 4041W        W 8092   4.771   5.616   2.892  0.3314  0.0370 -0.0267
 4042W        W 8093   9.027   9.644   3.654  0.0757 -0.1260  0.0071
 4043W        W 8094   9.742   6.441  12.328  0.0333 -0.1166  0.1129
 4044W        W 8095   7.362   2.756  12.592 -0.0430 -0.1742  0.2087
 4045W        W 8096   2.247   2.207   2.112  0.0421 -0.1481 -0.0010
 4046W        W 8097   3.188   2.155  11.867 -0.1352 -0.2219 -0.0737
 4047W        W 8098   6.358   3.823   9.959 -0.3018 -0.2889  0.0866
 4048W        W 8099   8.954   4.943   9.160  0.1158  0.3057 -0.0947
 4049W        W 8100   3.387   3.292   5.078 -0.0024 -0.5002  0.0254
 4050W        W 8101   5.528   7.012  10.832  0.1596  0.2256  0.0371
 4051W        W 8102   1.079   0.790   0.798  0.0065  0.2073 -0.1448
 4052W        W 8103   8.340   0.413   9.371  0.0876 -0.0448 -0.0667
 4053W        W 8104   4.899   5.659   1.448 -0.1366 -0.0600 -0.0331
 4054W        W 8105   3.847   5.110   2.301  0.0075  0.0786  0.0450
 4055W        W 8106   2.936   6.984   2.983  0.2427  0.2424 -0.0179
 4056W        W 8107   6.537   3.721   1.105  0.0416  0.0450 -0.1412
 4057W        W 8108   6.076   1.251   9.575  0.2368  0.0839 -0.1102
 4058W        W 8109   5.712   9.389  13.213 -0.0111  0.0784 -0.0176
 4059W        W 8110   7.065   5.309  12.969  0.0249  0.2089  0.2944
 4060W        W 8111   8.982   8.728  13.041  0.0349  0.3388  0.1615
 4061W        W 8112   0.028   0.836  10.520  0.0383  0.2247 -0.0857
 4062W        W 8113   9.903   5.492   3.924  0.0250 -0.1638 -0.1381
 4063W        W 8114   7.012   6.439   1.446  0.0449  0.0425 -0.1002
 4064W        W 8115   8.664   8.621  13.779  0.1441 -0.0895  0.1603
 4065W        W 8116   0.152   7.402  10.160 -0.0571 -0.0508  0.1543
 4066W        W 8117   9.632   4.769   4.864  0.1992 -0.0288  0.1070
 4067W        W 8118   2.437   9.388   5.482  0.0189 -0.2881 -0.1596
 4068W        W 8119   4.800   9.580  11.414 -0.2355 -0.1784 -0.1252
 4069W        W 8120   2.373   6.086   5.438  0.1911 -0.1144 -0.1273
 4070W        W 8121   6.641   9.352  12.381  0.0131 -0.1299  0.0634
 4071W        W 8122   5.198   3.652  10.348 -0.0003  0.0187 -0.1176
 4072W        W 8123   4.894   6.121  12.413 -0.0557  0.1009  0.0327
 4073W        W 8124   5.708   4.124   0.897  0.0564 -0.4173  0.1466
 4074W        W 8125   1.355   9.616   5.811 -0.1427  0.1799 -0.0101
 4075W        W 8126   9.139   3.419   3.887 -0.1834  0.0613  0.3775
 4076W        W 8127   4.151   1.943  11.795  0.3359 -0.1822  0.3322
 4077W        W 8128   7.390   1.850  10.358  0.0145 -0.2351  0.1788
 4078W        W 8129   4.799   3.581   9.428 -0.2224  0.1440  0.1335
 4079W        W 8130  10.042   2.382  11.524 -0.0935  0.2262 -0.0517
 4080W        W 8131   5.317   7.816  13.850  0.1216 -0.3087  0.2429
 4081W        W 8132   4.526   1.948   1.759  0.1410 -0.1340 -0.1520
 4082W        W 8133   2.449   7.133   0.391 -0.2040  0.0629 -0.1554
 4083W        W 8134   0.188   2.068   0.856 -0.1120 -0.1092 -0.1234
 4084W        W 8135   4.082   1.157  13.564  0.1469 -0.2077  0.2842
 4085W        W 8136   2.075   1.652  12.165 -0.2211 -0.1378 -0.2421
 4086W        W 8137   9.831   8.594   4.935  0.1283  0.1558 -0.2583
 4087W        W 8138   8.688   5.125   2.743  0.0270 -0.0557 -0.3900
 4088W        W 8139   8.204   3.509   3.880 -0.1512  0.2870 -0.0426
 4089W        W 8140   6.339   0.584   0.415  0.3040 -0.0363 -0.0678
 4090W        W 8141   6.730   2.200  12.375 -0.1333 -0.1042 -0.1773
 4091W        W 8142   6.045   6.469  10.209 -0.3228  0.0272 -0.0760
 4092W        W 8143   2.145   7.310   4.133 -0.3717  0.2098 -0.3248
 4093W        W 8144   4.888   8.378   1.808  0.2960  0.0174  0.2663
 4094W        W 8145   0.402   7.274   0.142  0.1929  0.2245 -0.0949
 4095W        W 8146   8.983   3.569   0.622 -0.1497 -0.1091  0.2330
 4096W        W 8147   2.522   9.358   3.592 -0.2293  0.2861  0.2053
 4097W        W 8148   0.076   2.734  13.772  0.3429  0.2668  0.1493
 4098W        W 8149   6.937   5.391  10.977 -0.3895 -0.0123  0.0659
 4099W        W 8150   1.614   3.853  11.821 -0.0865  0.1021  0.1244
 4100W        W 8151   6.086   4.974   3.516 -0.1000  0.1060  0.2768
 4101W        W 8152   5.969   1.807   9.382 -0.1094  0.1489  0.0081
 4102W        W 8153   8.711   0.247   4.238 -0.0919  0.0260  0.1640
 4103W        W 8154   6.984   7.126   7.987 -0.2533 -0.2602 -0.0092
 4104W        W 8155   0.008   9.835  11.467 -0.2220  0.2439  0.1936
 4105W        W 8156   9.036   9.854  11.838  0.1174  0.0619 -0.0402
 4106W        W 8157   8.852   3.725   5.570  0.1018  0.2543  0.1100
 4107W        W 8158   1.957   6.354   0.143  0.0490  0.1130 -0.0756
 4108W        W 8159   8.730   6.458  13.594 -0.0725 -0.1717 -0.4536
 4109W        W 8160   4.333   3.440  13.293  0.1269 -0.1315 -0.2766
 4110W        W 8161   9.738   0.027   3.447  0.3290  0.4197  0.0993
 4111W        W 8162   9.020   2.096  12.623 -0.1420 -0.1418 -0.2500
 4112W        W 8163   4.456   5.363  11.430  0.0822  0.0193 -0.1385
 4113W        W 8164   8.007   4.750   3.095 -0.2225  0.2132  0.2482
 4114W        W 8165   5.509   9.839  13.446 -0.1131  0.1469 -0.0479
 4115W        W 8166   3.070   4.371   1.267  0.0881  0.0584  0.1389
 4116W        W 8167   6.353   3.177   9.993  0.0238  0.2083  0.3351
 4117W        W 8168   1.778   4.177  11.468 -0.1330 -0.2700  0.1976
 4118W        W 8169   8.141   8.152  11.638  0.1897  0.1277  0.0493
 4119W        W 8170   8.324   3.170   4.210  0.1681  0.2786  0.0858
 4120W        W 8171   8.408   9.044  11.609 -0.0024  0.0885 -0.1963
 4121W        W 8172   4.378   5.867   1.794 -0.2637  0.0114  0.0663
 4122W        W 8173   0.909   3.328   8.501  0.0264  0.4529 -0.2489
 4123W        W 8174   0.588   4.970   0.026 -0.1693 -0.2318 -0.0073
 4124W        W 8175   4.049   5.410   4.235 -0.1799  0.1692  0.0845
 4125W        W 8176   5.626   5.698   3.271 -0.1969 -0.2362  0.2846
 4126W        W 8177   1.179   0.016  13.393  0.1078 -0.3644  0.2340
 4127W        W 8178   0.478   8.423  13.437 -0.3231  0.1136 -0.0900
 4128W        W 8179   9.592   4.303  12.679 -0.0261  0.0841  0.2579
 4129W        W 8180   5.138   2.481   1.039  0.0379  0.0762  0.0856
 4130W        W 8181   7.352   9.235  12.931  0.1015  0.0712  0.1697
 4131W        W 8182   6.904   6.572  12.882 -0.3327 -0.2457 -0.0951
 4132W        W 8183   6.345   8.200   5.900  0.3752 -0.3924  0.5273
 4133W        W 8184   4.771   9.314   3.609  0.0348  0.0782  0.2758
 4134W        W 8185   2.734   1.315  11.380  0.1026  0.0708 -0.0700
 4135W        W 8186   2.690   2.664   2.519 -0.4759 -0.0940 -0.0354
 4136W        W 8187   8.117   9.497  12.647 -0.2059  0.0216 -0.0878
 4137W        W 8188   0.524   0.422   2.474 -0.1518  0.0930  0.0238
 4138W        W 8189   3.903   0.912   5.042  0.1021 -0.1096 -0.1825
 4139W        W 8190   7.666   4.786  12.607 -0.0243 -0.1563  0.2053
 4140W        W 8191   2.408   3.689  13.318  0.1469  0.3399  0.0682
 4141W        W 8192   6.618   2.152  10.054  0.0493 -0.1288  0.1620
 4142W        W 8193   7.514   6.607   1.482 -0.2085  0.1218 -0.1085
 4143W        W 8194   5.617   3.827   0.543 -0.1568 -0.2639  0.0309
 4144W        W 8195   7.302   0.814  13.836 -0.1072 -0.1480 -0.1055
 4145W        W 8196   5.686   1.857  10.423  0.0582  0.3095  0.3195
 4146W        W 8197   5.025   2.962   3.341 -0.3778  0.0867  0.0698
 4147W        W 8198   5.845   1.242   1.738  0.0604  0.0865 -0.0207
 4148W        W 8199   1.541   0.694   1.173  0.1944 -0.0624 -0.3564
 4149W        W 8200   9.276   1.037   9.972  0.3105 -0.0884  0.4642
 4150W        W 8201   4.363   3.895   3.740 -0.2728 -0.1436  0.0075
 4151W        W 8202   4.104   3.671  11.255  0.1026  0.4768 -0.2334
 4152W        W 8203   8.721   3.781   4.717  0.1789 -0.0048 -0.2390
 4153W        W 8204   8.299   0.477   2.264 -0.1584 -0.0310 -0.0016
 4154W        W 8205   8.218   6.852  11.228 -0.1177  0.1836 -0.2361
 4155W        W 8206   7.964  10.102  13.634 -0.3005  0.1696  0.1395
 4156W        W 8207   1.124   3.595   9.473 -0.1997  0.1073 -0.1360
 4157W        W 8208   4.006   7.082   0.505  0.1703 -0.3305 -0.3173
 4158W        W 8209   1.264   5.554  10.671  0.3055  0.2124  0.2577
 4159W        W 8210   1.041   2.691   3.076  0.2674 -0.2491 -0.1378
 4160W        W 8211   9.479   0.060  10.478 -0.0743 -0.0291  0.3787
 4161W        W 8212   5.231   7.080   3.311  0.2025  0.0337 -0.1063
 4162W        W 8213   6.784   6.726   3.303  0.0627  0.4000 -0.0639
 4163W        W 8214   8.870   4.706  10.683 -0.0772 -0.0982  0.0773
 4164W        W 8215   7.381   0.766   0.776 -0.0615  0.0226 -0.1426
 4165W        W 8216   0.688   9.979   9.520  0.2783  0.1935  0.0147
 4166W        W 8217   8.451   7.212   2.026 -0.0279  0.1009  0.2357
 4167W        W 8218   9.924   4.043  12.889 -0.1247 -0.1586  0.0906
 4168W        W 8219   0.255   4.952   9.772 -0.0583 -0.1338  0.2313
 4169W        W 8220   7.542   9.060  12.058 -0.0917  0.1549 -0.2628
 4170W        W 8221   6.878   1.855   9.481  0.1899  0.0379 -0.2312
 4171W        W 8222   0.802   0.908   9.783  0.0911 -0.0959 -0.1033
 4172W        W 8223   1.764   4.614   3.108  0.0419  0.3726  0.2890
 4173W        W 8224   1.545   7.958  12.635 -0.2499 -0.2475  0.0677
 4174W        W 8225   7.859   3.224   5.096  0.1018 -0.0161 -0.2159
 4175W        W 8226   1.931   2.167   4.011 -0.1254  0.3023 -0.0528
 4176W        W 8227   1.710   9.872   1.888 -0.2104  0.0212 -0.2886
 4177W        W 8228   3.006   0.135  12.106  0.5879  0.0110 -0.0923
 4178W        W 8229   9.627   0.110   9.255 -0.0882  0.4202 -0.0931
 4179W        W 8230   5.179   0.235   4.939 -0.0376  0.0010  0.1181
 4180W        W 8231   3.996   5.615   2.064 -0.2575  0.1155  0.0018
 4181W        W 8232   9.114   2.123   0.023  0.2173 -0.1638  0.0096
 4182W        W 8233   3.647   2.647   2.307 -0.1414  0.0487  0.2586
 4183W        W 8234   2.706   6.578  11.155  0.2815 -0.0363 -0.0861
 4184W        W 8235   5.077   0.422   2.540 -0.3506 -0.0961  0.1194
 4185W        W 8236   5.365   1.949   1.062  0.1199  0.3032 -0.1050
 4186W        W 8237   6.495   1.824  10.410  0.1759 -0.2969  0.1977
 4187W        W 8238   1.673   3.832   0.584  0.3011  0.1792  0.3027
 4188W        W 8239   4.425   6.236  12.807 -0.0161 -0.2604  0.1093
 4189W        W 8240   0.518   4.832  12.033 -0.0013  0.2546  0.3062
 4190W        W 8241   5.312   5.493   3.707 -0.0696 -0.0169  0.0823
 4191W        W 8242   0.291   5.240   0.850  0.2458 -0.0127 -0.2525
 4192W        W 8243   4.325   0.308   9.948  0.0328 -0.3988  0.0832
 4193W        W 8244   7.640   4.751  13.457 -0.1014 -0.0467 -0.1137
 4194W        W 8245   1.872   7.004  11.483 -0.0605 -0.3135 -0.1628
 4195W        W 8246   1.590   3.779   5.619  0.0453 -0.0382 -0.0572
 4196W        W 8247   0.701   7.102   5.428 -0.1527  0.0015 -0.1166
 4197W        W 8248   4.070   7.686   0.097 -0.1371  0.0437 -0.2709
 4198W        W 8249   5.986   1.314  11.532  0.0154 -0.0043 -0.2150
 4199W        W 8250   3.537   7.469   4.208 -0.1162  0.1780 -0.0336
 4200W        W 8251   7.423   1.714   0.693  0.1439 -0.0569 -0.0564
 4201W        W 8252   9.157   8.454  10.631 -0.0485  0.0589 -0.0558
 4202W        W 8253   8.698   2.890   1.271  0.1389 -0.1671  0.0886
 4203W        W 8254   9.716   3.018  11.604  0.2507 -0.1407 -0.0330
 4204W        W 8255   9.786   1.675   1.608  0.0195  0.0437  0.0169
 4205W        W 8256   1.726   1.367  10.634 -0.2027 -0.0003  0.1585
 4206W        W 8257   2.444   7.182   2.628 -0.0680  0.0610 -0.0759
 4207W        W 8258   2.634   7.147  10.069 -0.0771 -0.2328  0.2877
 4208W        W 8259   7.063   3.082   1.804 -0.3396  0.0871 -0.1512
 4209W        W 8260   1.889   6.484   1.974 -0.1746 -0.0688 -0.0484
 4210W        W 8261   7.791   6.503  12.203 -0.0598 -0.3501  0.2438
 4211W        W 8262   4.329   7.618   1.945 -0.0636  0.0607 -0.1026
 4212W        W 8263   0.940   6.649   5.310  0.3594 -0.1502  0.1899
 4213W        W 8264   5.129   1.214  13.898  0.1441 -0.1526  0.2556
 4214W        W 8265   9.391   3.612   9.233  0.0492  0.0135 -0.3350
 4215W        W 8266   0.962   3.756  13.284  0.0394 -0.1254  0.0442
 4216W        W 8267   3.548   7.692   3.749 -0.0409 -0.1408 -0.1133
 4217W        W 8268   3.733   3.749  10.551 -0.0557 -0.1323 -0.5216
 4218W        W 8269   8.974   6.585  11.154 -0.0938  0.2904 -0.2514
 4219W        W 8270   8.455   1.097  10.528  0.0788  0.1347  0.1788
 4220W        W 8271  10.083   9.199   0.949  0.0146  0.3264  0.1498
 4221W        W 8272   9.374   9.614  10.398 -0.0476  0.3928  0.4228
 4222W        W 8273   1.883   6.411   4.251  0.2143 -0.0358 -0.1486
 4223W        W 8274   4.043   3.023   2.442  0.0565 -0.1822 -0.0116
 4224W        W 8275   4.550   7.071   2.567 -0.3152 -0.2067 -0.0351
 4225W        W 8276   8.174   1.655  11.224 -0.1441 -0.0052  0.2966
 4226W        W 8277   3.294   0.109  13.479  0.2011 -0.0893  0.0670
 4227W        W 8278   9.021   3.658   2.023 -0.1987 -0.1779  0.2500
 4228W        W 8279   6.012   5.644  12.174  0.0841 -0.1469 -0.0814
 4229W        W 8280   5.509   2.283   4.015 -0.0742 -0.0890 -0.0956
 4230W        W 8281   2.839  10.093  13.501  0.1046  0.3650  0.1234
 4231W        W 8282   3.617   7.059  11.324  0.0283  0.0583  0.1792
 4232W        W 8283   9.012   3.020  10.159 -0.1389 -0.0558 -0.1158
 4233W        W 8284   3.672   8.975   1.570  0.0714 -0.3520  0.1260
 4234W        W 8285   5.514   3.033   2.390  0.0719 -0.2707 -0.2207
 4235W        W 8286   7.641   2.270  13.391  0.0412 -0.1541  0.0932
 4236W        W 8287   0.168   9.319  13.097  0.5418 -0.0828 -0.0678
 4237W        W 8288   7.284   5.130  12.374 -0.0283  0.2072 -0.2254
 4238W        W 8289   5.621   8.311   3.233 -0.0023  0.0703  0.3911
 4239W        W 8290   6.645   6.229   4.010  0.0355 -0.0143  0.1242
 4240W        W 8291   8.329   2.296   4.047 -0.2067  0.0408 -0.4659
 4241W        W 8292   7.981   8.680  13.198  0.0013  0.2075  0.0964
 4242W        W 8293   7.968   0.421   9.825  0.0628  0.1421 -0.2163
 4243W        W 8294   9.281   7.353   0.821 -0.0918  0.0065 -0.0092
 4244W        W 8295   9.506   6.200   9.811 -0.0014  0.0494 -0.0490
 4245W        W 8296   5.851   0.565   2.665 -0.2831 -0.0328 -0.0353
 4246W        W 8297   2.497   1.055   3.469  0.1965  0.0644  0.2907
 4247W        W 8298   8.418   9.698  12.312  0.4774  0.0831 -0.0713
 4248W        W 8299   7.224   5.848   9.889 -0.3956  0.0988 -0.1355
 4249W        W 8300   6.899   2.345  10.946  0.2968 -0.0422  0.2655
 4250W        W 8301   3.908   9.110   3.221 -0.2348 -0.2827 -0.2269
 4251W        W 8302   8.945   3.905   9.369 -0.2213  0.1389 -0.0027
 4252W        W 8303   6.212   4.877  11.774  0.1745  0.2210  0.0311
 4253W        W 8304   3.158   3.429   9.815  0.1429  0.3160  0.0773
 4254W        W 8305   4.219   3.227   3.431 -0.0672  0.3231  0.2902
 4255W        W 8306   4.139   1.977   4.403  0.0279 -0.1819  0.1856
 4256W        W 8307   6.712   4.259  11.354  0.1433  0.0892 -0.0604
 4257W        W 8308   0.132   6.313   1.153 -0.2674 -0.1193 -0.2280
 4258W        W 8309   1.875   3.907   1.573  0.0064  0.0795 -0.1064
 4259W        W 8310   2.810   9.583  10.650 -0.0519 -0.0703 -0.7396
 4260W        W 8311   3.492   4.550  10.713 -0.0983  0.0133  0.1534
 4261W        W 8312   7.800   5.231  12.580  0.1680 -0.0512  0.1840
 4262W        W 8313   1.670   6.061  10.922  0.0233 -0.1842 -0.0757
 4263W        W 8314   8.501   6.621   2.120 -0.1954  0.4115 -0.1765
 4264W        W 8315   3.450   8.478   1.400  0.0103  0.0043  0.1329
 4265W        W 8316   0.450   3.064   2.647  0.3202 -0.0268 -0.1207
 4266W        W 8317   5.065   0.418  12.648 -0.1736 -0.3136 -0.0998
 4267W        W 8318   7.736   2.764   5.189 -0.1294  0.2796  0.3148
 4268W        W 8319   1.482   6.495  11.038  0.2582 -0.0499 -0.1777
 4269W        W 8320   6.618   9.769  13.065  0.0976  0.2278 -0.1472
 4270W        W 8321   6.668   3.067  11.982 -0.0528  0.0311 -0.0547
 4271W        W 8322   4.910   6.272  13.163  0.0127 -0.4540 -0.0178
 4272W        W 8323   4.565   8.810   2.087 -0.2171 -0.1424 -0.0375
 4273W        W 8324   4.347   0.064   3.469 -0.0212 -0.1399 -0.0657
 4274W        W 8325   8.834   2.703  10.486  0.2005  0.3182 -0.1062
 4275W        W 8326   5.766   5.646   4.042 -0.0071  0.1494  0.0594
 4276W        W 8327   5.825   3.284   0.572 -0.0336 -0.3397 -0.0397
 4277W        W 8328   3.428   6.427  12.855 -0.0438 -0.0314 -0.0601
 4278W        W 8329   8.500   3.614   4.297  0.0992  0.2436  0.2209
 4279W        W 8330   4.635   0.913  12.242  0.0424 -0.3587 -0.1305
 4280W        W 8331   2.436   3.889   1.979 -0.1351  0.2800  0.4561
 4281W        W 8332   5.871   3.453  11.847 -0.0421  0.0131  0.0355
 4282W        W 8333   9.205  10.102  11.302  0.1203  0.0819 -0.0874
 4283W        W 8334   0.429   2.943   4.403 -0.0978 -0.0402 -0.5140
 4284W        W 8335   0.545   1.543   1.610  0.0925 -0.0374 -0.1190
 4285W        W 8336   1.716   9.873  10.387 -0.0050  0.0221 -0.0489
 4286W        W 8337   9.939   9.927   2.064 -0.0171  0.0592  0.2621
 4287W        W 8338   3.968   3.505   2.362 -0.0677 -0.0749  0.1345
 4288W        W 8339   6.531   6.450  10.011 -0.0037 -0.0780  0.0556
 4289W        W 8340   5.943   0.926  12.573 -0.0187 -0.1477  0.1787
 4290W        W 8341   2.312   5.825   3.017 -0.4866 -0.1871 -0.0913
 4291W        W 8342   2.175   1.405   1.050  0.0305 -0.0163 -0.3192
 4292W        W 8343   9.819   8.384   3.388  0.2402 -0.2270  0.0509
 4293W        W 8344   3.570   9.783   3.958 -0.2498 -0.3246 -0.3250
 4294W        W 8345   7.140   6.768  13.408 -0.1457  0.5131 -0.0645
 4295W        W 8346   4.872   0.351   9.886 -0.0901 -0.0704  0.3353
 4296W        W 8347   2.082   0.789  12.583  0.0277 -0.0990 -0.0543
 4297W        W 8348   7.238   5.146   3.698  0.1748 -0.0658 -0.0841
 4298W        W 8349   0.420   8.852   1.133 -0.1849  0.1876 -0.2180
 4299W        W 8350   5.853   5.188  11.491  0.0798  0.0625 -0.1808
 4300W        W 8351   7.198   0.904   1.629  0.1429  0.0932 -0.0632
 4301W        W 8352   2.100   4.820   5.263 -0.0773  0.0939 -0.0211
 4302W        W 8353   9.132   0.532   4.633 -0.1911  0.0603 -0.1944
 4303W        W 8354   2.207   0.876   4.069  0.2647  0.1363  0.0151
 4304W        W 8355   3.619   4.743  12.525  0.2042 -0.0784 -0.0078
 4305W        W 8356   2.720   2.725   9.625  0.2968  0.1171  0.0564
 4306W        W 8357   9.515   8.606   2.936 -0.1570  0.2784  0.2012
 4307W        W 8358   9.807   4.991   3.819  0.0371  0.1424  0.3665
 4308W        W 8359   0.564  10.059   0.689 -0.2035 -0.0178 -0.1712
 4309W        W 8360   4.829   8.389   1.304  0.2537  0.0683 -0.0411
 4310W        W 8361   7.712   1.051   3.097  0.0820 -0.3584  0.1300
 4311W        W 8362   5.360   9.812  12.288 -0.1522  0.0517  0.1035
 4312W        W 8363   2.909   5.656   0.431 -0.2199  0.0889 -0.1084
 4313W        W 8364   2.431   4.856   0.808  0.0130 -0.2949  0.3195
 4314W        W 8365   6.940   8.548  12.697 -0.1538  0.0225  0.0018
 4315W        W 8366   4.120  10.060  12.328  0.1158  0.3713  0.2236
 4316W        W 8367   1.169   2.922  13.084 -0.3666  0.1757  0.0658
 4317W        W 8368   0.990   0.276   2.571 -0.0581 -0.1143  0.0434
 4318W        W 8369   9.841   1.409   0.212  0.1771 -0.0788  0.0279
 4319W        W 8370   9.855   8.858   3.208 -0.1561  0.0920 -0.1509
 4320W        W 8371   7.993   4.074  12.028  0.1055  0.0114  0.1110
 4321W        W 8372   9.823   3.934   9.646 -0.2648  0.0115 -0.4552
 4322W        W 8373   1.843   1.485   2.310  0.0342 -0.1688 -0.0234
 4323W        W 8374   9.937   8.448  11.945  0.2623  0.1483 -0.3708
 4324W        W 8375   6.944   3.922   1.601 -0.1960 -0.0094  0.1840
 4325W        W 8376   5.183   7.531  12.363  0.2758  0.1285  0.1079
 4326W        W 8377   6.663   5.837  11.826 -0.1984 -0.0750  0.0033
 4327W        W 8378   0.101   7.618   4.958  0.2513  0.0670  0.1525
 4328W        W 8379   5.789   9.241   3.630  0.0257 -0.2180  0.1794
 4329W        W 8380   5.450   0.637  11.273  0.3077  0.0621 -0.0754
 4330W        W 8381   6.767   8.197  10.124  0.1432 -0.2198 -0.1663
 4331W        W 8382   9.655   1.073  11.567 -0.1982  0.0019 -0.3782
 4332W        W 8383   7.627   5.682  12.850  0.2995  0.1693  0.0168
 4333W        W 8384   9.839   1.006   4.233  0.4004 -0.2317  0.0984
 4334W        W 8385   4.437   4.497  14.067  0.1871 -0.1265  0.3485
 4335W        W 8386   8.623   6.537   0.534 -0.2232 -0.0011  0.2504
 4336W        W 8387   9.307   8.517   3.378 -0.3774  0.1149 -0.1658
 4337W        W 8388   9.248   9.145   4.287  0.4158  0.0062 -0.1587
 4338W        W 8389  10.132   7.671   3.765 -0.2579  0.1751  0.1330
 4339W        W 8390   9.141   4.499   0.761  0.1389 -0.3163 -0.1605
 4340W        W 8391   9.169   0.006   1.280 -0.0419 -0.0195  0.0737
 4341W        W 8392   8.715   7.483  11.897 -0.0588  0.1964 -0.1649
 4342W        W 8393   2.720   2.123   5.108 -0.0146  0.0179 -0.2371
 4343W        W 8394   9.164   5.858   4.533 -0.0468  0.1222 -0.1471
 4344W        W 8395   3.981   0.697   1.782 -0.2877 -0.1240  0.0669
 4345W        W 8396   6.029   3.638   1.096  0.2941 -0.0327  0.2901
 4346W        W 8397   2.468   4.557  10.167  0.1438  0.1493  0.1514
 4347W        W 8398   7.330   2.769  10.217  0.1661  0.1514 -0.1264
 4348W        W 8399   2.915   3.731  12.107 -0.1930  0.0293 -0.0080
 4349W        W 8400   2.699   4.919  13.138 -0.1292 -0.1943 -0.0896
 4350W        W 8401   0.649   4.469   9.808  0.0304 -0.0152 -0.3955
 4351W        W 8402   2.449   7.442  11.009 -0.2231 -0.1755  0.1334
 4352W        W 8403   8.660   0.653  13.663  0.0828  0.1715  0.3421
 4353W        W 8404   0.791   2.848  13.442 -0.1143  0.0833  0.0875
 4354W        W 8405   2.360   8.240   4.202  0.1375 -0.0602 -0.0207
 4355W        W 8406  10.119   8.182   2.983 -0.2315 -0.0485 -0.0948
 4356W        W 8407   6.519   5.989  10.844  0.1910 -0.3637 -0.0980
 4357W        W 8408   2.316   9.250   1.487  0.0326  0.1452  0.1221
 4358W        W 8409   5.338   4.513  11.335 -0.1191 -0.4333  0.0768
 4359W        W 8410   7.461   9.617  11.370 -0.1000  0.1615 -0.1900
 4360W        W 8411   8.495   5.377  12.500 -0.3959 -0.0446 -0.1511
 4361W        W 8412   4.668   5.399  12.732  0.2550  0.0599  0.1351
 4362W        W 8413   8.969   8.779   2.510 -0.1516  0.3050  0.0402
 4363W        W 8414   5.199   6.653  13.061 -0.0184  0.0149 -0.0154
 4364W        W 8415   1.286   7.460  13.491 -0.0383 -0.0278  0.2303
 4365W        W 8416   8.824   1.562   3.872  0.3301 -0.0845  0.0748
 4366W        W 8417   2.856   7.102  11.061  0.0879 -0.2714  0.2321
 4367W        W 8418   0.314  10.094  12.322  0.0386  0.1276 -0.2496
 4368W        W 8419   2.740   1.405   9.160  0.1849  0.2508 -0.1863
 4369W        W 8420   6.743   6.232   3.499  0.4404 -0.3981 -0.0807
 4370W        W 8421   3.771   3.819  13.767 -0.0062  0.0694 -0.0013
 4371W        W 8422   4.341   9.731   4.174 -0.0974 -0.1129 -0.2527
 4372W        W 8423   1.443   5.315   3.305 -0.1163  0.2105  0.0200
 4373W        W 8424   4.920   7.159  12.465  0.3081 -0.0524  0.2621
 4374W        W 8425   3.634   6.389  13.714 -0.0018 -0.2340  0.0507
 4375W        W 8426   9.497   6.218   2.922  0.0156  0.3512  0.0114
 4376W        W 8427   4.524   8.181   0.826 -0.0106 -0.1282  0.1246
 4377W        W 8428   0.185   2.611   9.829  0.0101  0.0916 -0.2241
 4378W        W 8429   2.710   3.999  10.373  0.0705  0.2155  0.1054
 4379W        W 8430   6.675   3.418   3.766  0.4093  0.0765 -0.0705
 4380W        W 8431   1.427   5.374  12.396  0.0899 -0.0624  0.1626
 4381W        W 8432   1.973   8.222   9.088 -0.0090  0.2383 -0.0294
 4382W        W 8433   3.053   5.717   1.260  0.2022  0.1141 -0.2547
 4383W        W 8434   3.529   0.057   4.378 -0.2105 -0.0218  0.1203
 4384W        W 8435   9.249   3.599  13.821 -0.1768  0.1092 -0.2187
 4385W        W 8436   0.207   8.994   2.018 -0.1257  0.0346  0.1690
 4386W        W 8437   8.410   4.046  11.600  0.1339  0.0092  0.1536
 4387W        W 8438   9.694   0.665   1.821  0.0774 -0.1180  0.1577
 4388W        W 8439   2.197   9.715  11.678  0.0058  0.0636 -0.1407
 4389W        W 8440   3.542   6.230   0.051 -0.1172 -0.1370 -0.0810
 4390W        W 8441   9.772   4.719  11.055  0.0368  0.1336 -0.1655
 4391W        W 8442   9.639   3.506  12.759  0.1219 -0.0187 -0.1090
 4392W        W 8443   8.229   7.225  14.028  0.0387  0.1548  0.0624
 4393W        W 8444   5.420   2.642   3.176 -0.0164 -0.2157 -0.0448
 4394W        W 8445   7.631   7.897   2.147  0.0810  0.1743  0.0694
 4395W        W 8446   4.852   5.752  11.963 -0.0826  0.1264  0.1261
 4396W        W 8447   6.441   9.116  11.209  0.0535  0.2371  0.4309
 4397W        W 8448   6.510   5.837   3.615  0.1144 -0.1325 -0.2763
 4398W        W 8449   3.752   2.507   0.639  0.2415 -0.0908 -0.1720
 4399W        W 8450   4.728   4.144   2.555  0.3966  0.2953  0.0660
 4400W        W 8451   5.702   2.778   4.809 -0.0554 -0.1352  0.2173
 4401W        W 8452   9.184   0.757  13.519 -0.2577  0.1389  0.1407
 4402W        W 8453   7.019   9.587  12.741  0.2191 -0.1000  0.0739
 4403W        W 8454   2.384   4.419   0.533 -0.0512 -0.1230 -0.2114
 4404W        W 8455   4.612   1.093   9.347  0.4102 -0.1085  0.1505
 4405W        W 8456   6.235   4.333  11.111 -0.1160 -0.4699  0.0149
 4406W        W 8457   7.687   3.504   0.504  0.1294  0.1808 -0.3508
 4407W        W 8458   8.751   0.744   1.425  0.0937  0.1510 -0.1260
 4408W        W 8459   8.600   2.104   8.616  0.3352 -0.2162  0.2173
 4409W        W 8460   5.665   1.478  11.940 -0.1766 -0.0986  0.0390
 4410W        W 8461   8.848   9.630  14.045  0.1962  0.1864  0.1902
 4411W        W 8462   9.104   2.225   5.097 -0.1183  0.1931  0.1932
 4412W        W 8463   0.499   7.383  10.631 -0.3301  0.0948  0.0461
 4413W        W 8464   6.910   9.091  12.734  0.1361 -0.1065 -0.0553
 4414W        W 8465   6.871   3.242   0.505  0.2375 -0.0381 -0.1220
 4415W        W 8466   0.397   1.805   2.687  0.1792 -0.0961  0.1446
 4416W        W 8467   8.792   9.174  13.812 -0.1424  0.1714  0.2742
 4417W        W 8468   0.880   6.993  10.537 -0.2142  0.1674 -0.1932
 4418W        W 8469   6.258   8.670   6.120  0.3854  0.2652 -0.0594
 4419W        W 8470   7.066   3.045   4.609 -0.0195  0.0276 -0.1392
 4420W        W 8471   0.439   6.431   4.188 -0.0458 -0.0223 -0.0252
 4421W        W 8472   6.683   9.657   2.528  0.1099  0.0378  0.1766
 4422W        W 8473   3.054   1.071   2.798  0.3616 -0.2399  0.0133
 4423W        W 8474   3.483   4.810  13.694  0.3025 -0.2229  0.0449
 4424W        W 8475   7.477   7.374   0.536 -0.1156 -0.2081 -0.0848
 4425W        W 8476   3.813   7.464   2.198  0.1470  0.1133 -0.0466
 4426W        W 8477   9.013   3.139   0.849  0.0156  0.1477 -0.2330
 4427W        W 8478   6.459   6.698  12.720 -0.2721  0.0104 -0.1231
 4428W        W 8479   8.780   1.742   1.041  0.1756 -0.2161  0.1473
 4429W        W 8480   3.018   9.446  11.412  0.5198 -0.4297  0.0296
 4430W        W 8481   4.650   4.210   4.650  0.2347  0.0397 -0.0970
 4431W        W 8482   6.150   4.595  10.533  0.0580  0.1301  0.1963
 4432W        W 8483   7.266   4.743  11.384 -0.1463  0.4206 -0.0303
 4433W        W 8484   4.660   3.859   0.921  0.1401 -0.3672 -0.1171
 4434W        W 8485   9.308   2.421   1.360  0.0120 -0.1026  0.1635
 4435W        W 8486   7.672   0.063   4.188  0.3282  0.0810  0.2132
 4436W        W 8487   5.338   3.522   2.450 -0.0781  0.0888 -0.1388
 4437W        W 8488   1.530   8.917  12.628  0.0695 -0.2058  0.0864
 4438W        W 8489   7.919  10.067  13.109 -0.0265  0.0213 -0.1423
 4439W        W 8490   2.390   9.793   3.713 -0.1977  0.0038  0.4245
 4440W        W 8491   4.787   2.315   5.211  0.1081  0.2053 -0.0372
 4441W        W 8492   4.850   0.970  10.715  0.0207  0.0540 -0.1275
 4442W        W 8493   2.027   3.799   4.458 -0.1379  0.0041  0.0792
 4443W        W 8494   3.719   5.687   3.821  0.0583 -0.1376 -0.0711
 4444W        W 8495   9.719   2.581   5.676 -0.2596 -0.4262  0.1427
 4445W        W 8496   4.170   8.728   0.169  0.2531  0.2172  0.3569
 4446W        W 8497   9.480   3.630  12.111 -0.0052  0.1283  0.0460
 4447W        W 8498   1.375   0.939  11.025  0.0778 -0.0799 -0.1018
 4448W        W 8499   9.965   6.869   3.304  0.0417  0.0632 -0.3873
 4449W        W 8500   6.263   4.361  11.668 -0.3412 -0.2942  0.1567
 4450W        W 8501   6.215   7.371  10.952 -0.2807 -0.0105  0.0952
 4451W        W 8502   4.734   0.940   5.067  0.0306  0.0733 -0.0083
 4452W        W 8503   2.696   4.180  10.825  0.0882 -0.1427  0.1901
 4453W        W 8504   3.833   9.249   9.601  0.2262  0.0666  0.2677
 4454W        W 8505   7.487   0.276  12.436  0.0201 -0.2631  0.2830
 4455W        W 8506   6.480   4.192   0.589 -0.2417 -0.2512  0.0315
 4456W        W 8507   9.557   3.099   2.515  0.1263  0.3439 -0.0509
 4457W        W 8508   3.028   8.299  12.153  0.1565  0.0861  0.0504
 4458W        W 8509   6.349   2.678   3.729 -0.3392  0.0564 -0.1361
 4459W        W 8510   9.645   4.699   4.268  0.0430  0.0077 -0.0188
 4460W        W 8511   4.119   1.765  12.240  0.0394 -0.2457  0.0225
 4461W        W 8512   0.681   0.351  13.637  0.0024 -0.1870  0.1806
 4462W        W 8513   1.603   5.874   9.259  0.4204 -0.0878  0.1233
 4463W        W 8514   7.203   3.222   9.793 -0.1343 -0.0678 -0.3015
 4464W        W 8515   7.899   2.645  13.204  0.2716  0.1835  0.0167
 4465W        W 8516   2.959   8.724   5.448 -0.3215 -0.2067  0.0541
 4466W        W 8517   4.588   2.228   3.453 -0.0864 -0.1415 -0.0378
 4467W        W 8518   1.213   4.107   1.853 -0.2556 -0.0099  0.1837
 4468W        W 8519   3.665   7.278   3.544 -0.3967 -0.0622 -0.1814
 4469W        W 8520   6.643   0.605  11.230 -0.3286 -0.0125 -0.0044
 4470W        W 8521   7.320   1.455  10.036 -0.0273  0.1808 -0.2015
 4471W        W 8522   3.094   2.406   0.500 -0.0607  0.2404  0.0828
 4472W        W 8523   0.200   5.549  10.911  0.1025 -0.0297 -0.2068
 4473W        W 8524   7.917   1.510  13.303  0.3280 -0.1277  0.2114
 4474W        W 8525   0.594   2.197  10.044 -0.1891  0.1634 -0.0816
 4475W        W 8526   7.704   7.230   0.028 -0.1330 -0.0308  0.1325
 4476W        W 8527   9.734  10.030  11.619 -0.1414 -0.0642 -0.2068
 4477W        W 8528   9.164   2.907   3.891  0.1297 -0.1574 -0.2548
 4478W        W 8529   0.727   2.795  12.917  0.1638  0.2497 -0.1353
 4479W        W 8530   6.074   0.714  12.009 -0.1489  0.2229  0.0978
 4480W        W 8531   9.191   5.015  10.358  0.0218  0.0101  0.0000
 4481W        W 8532   8.345   8.576  11.611 -0.3429 -0.1550  0.1584
 4482W        W 8533  10.089   9.785   3.566 -0.1382  0.0380  0.2026
 4483W        W 8534   6.848   1.136   1.910  0.0537 -0.3690  0.1376
 4484W        W 8535   7.427   7.699  11.788  0.2358  0.0871  0.1062
 4485W        W 8536   5.793   1.501  11.072 -0.1753  0.2507  0.4554
 4486W        W 8537   4.961   8.276  12.703  0.2641 -0.2451 -0.0097
 4487W        W 8538   3.255   5.043   4.647  0.1390 -0.0476 -0.1950
 4488W        W 8539   3.639   0.859  11.206  0.3425  0.3641  0.0528
 4489W        W 8540   8.192   7.922  12.136  0.1192  0.2596 -0.0764
 4490W        W 8541   9.358   1.258   0.052 -0.3182  0.1442  0.0077
 4491W        W 8542   9.946   4.685  13.712  0.0289  0.3294  0.0164
 4492W        W 8543   6.941   1.217   3.242 -0.1258  0.2738 -0.1983
 4493W        W 8544   5.266   3.132  11.491  0.1425  0.2967  0.1294
 4494W        W 8545   0.312   8.006   0.640  0.2504 -0.1063 -0.2023
 4495W        W 8546   3.281   5.583   4.678  0.2814  0.1234  0.2173
 4496W        W 8547   5.066   1.923   9.047  0.1712 -0.1299  0.3113
 4497W        W 8548   0.956   7.991   3.891  0.3598 -0.1765 -0.3445
 4498W        W 8549   3.394   3.838   3.069  0.0953 -0.0613  0.0809
 4499W        W 8550   0.942   4.033   4.731  0.1828 -0.1403 -0.1561
 4500W        W 8551   8.577   4.317   2.514  0.0871 -0.0959 -0.0253
 4501W        W 8552   2.496   5.101   4.447 -0.0115 -0.0023 -0.0817
 4502W        W 8553   1.115   6.189  10.833 -0.2397 -0.1174 -0.0678
 4503W        W 8554   6.333   0.774  13.951 -0.2781  0.1767  0.2454
 4504W        W 8555   3.157   0.853   8.985 -0.1707 -0.2840  0.0543
 4505W        W 8556   4.528   9.710   1.147  0.0877  0.2863  0.0198
 4506W        W 8557   5.934   1.829  11.675  0.3631 -0.2563 -0.2480
 4507W        W 8558   7.080   5.013   2.892  0.0748 -0.1687 -0.2733
 4508W        W 8559  10.085   5.403  13.373  0.2679 -0.2982  0.3911
 4509W        W 8560   5.352   5.011   9.903 -0.0329  0.1665  0.1232
 4510W        W 8561   5.218  10.104   0.155 -0.0955 -0.1528 -0.2645
 4511W        W 8562   4.198   7.883   4.495  0.0410  0.3739 -0.1065
 4512W        W 8563   0.068   5.993  13.241 -0.1973  0.2269  0.0939
 4513W        W 8564   2.013   6.083  11.586 -0.3519  0.1481  0.0237
 4514W        W 8565   3.123   7.356  10.208  0.0927  0.0474 -0.0376
 4515W        W 8566   4.685   7.853  11.130  0.0123  0.2897  0.3026
 4516W        W 8567   8.683  10.136  12.108  0.4265  0.1800 -0.2253
 4517W        W 8568   6.799   2.356   3.575 -0.0994 -0.1080  0.0515
 4518W        W 8569   1.657   9.922   0.832 -0.1652  0.0452  0.4411
 4519W        W 8570   3.960  10.058   9.321 -0.0747 -0.4301  0.0041
 4520W        W 8571   6.342   2.100   2.416  0.1570 -0.4785 -0.0365
 4521W        W 8572   7.515   8.622   0.010 -0.1552  0.1239  0.3071
 4522W        W 8573   4.451   2.432  11.743 -0.1148  0.0625  0.2518
 4523W        W 8574   5.079   7.975   1.571  0.1335  0.1991 -0.1861
 4524W        W 8575   0.391   6.568   2.639  0.0460  0.0585  0.1024
 4525W        W 8576   3.301   0.552   0.839  0.1187  0.1305  0.1631
 4526W        W 8577   6.810   0.642  13.160 -0.0007  0.1608  0.3840
 4527W        W 8578   5.648   8.795  12.917  0.1409  0.3748  0.2052
 4528W        W 8579   9.969   1.099   1.053  0.5695  0.1457 -0.2269
 4529W        W 8580   0.908   1.663   1.936  0.0753  0.1355  0.0642
 4530W        W 8581   8.421   9.018  11.018 -0.1640  0.0256  0.2963
 4531W        W 8582   6.612   3.948  12.865  0.0582  0.0213  0.0670
 4532W        W 8583   7.749   6.575   3.303  0.2540  0.0096 -0.0586
 4533W        W 8584  10.126   5.741  13.762 -0.0755 -0.0643 -0.0291
 4534W        W 8585   1.353   8.399   0.005 -0.2931 -0.3311  0.0516
 4535W        W 8586   2.028   0.159   5.556  0.0731 -0.3153  0.1062
 4536W        W 8587   6.758   5.295   2.346 -0.1950  0.1087  0.0354
 4537W        W 8588   3.086   0.271   0.336 -0.0391  0.1362  0.1944
 4538W        W 8589   2.478   8.763   2.342 -0.1718  0.2965  0.3179
 4539W        W 8590   9.527   4.531  13.905 -0.0188 -0.4451  0.1602
 4540W        W 8591   0.718   1.712  11.150 -0.0353  0.1041 -0.3891
 4541W        W 8592   2.614   9.698   4.563 -0.0042 -0.4026 -0.1634
 4542W        W 8593   1.701   6.717   4.626  0.0887  0.0379 -0.0291
 4543W        W 8594   4.291  10.037   0.277  0.3393 -0.1039 -0.1838
 4544W        W 8595   3.297   8.849   3.731  0.1318 -0.1853 -0.1746
 4545W        W 8596   5.452   8.267  12.885  0.3604  0.1370 -0.1925
 4546W        W 8597   6.153   3.351  13.492  0.0182 -0.2075  0.1542
 4547W        W 8598   5.736   2.920  11.368 -0.3709  0.3507 -0.0060
 4548W        W 8599   4.590   7.068  11.344  0.1231  0.1634 -0.0160
 4549W        W 8600  10.096   6.930  10.051  0.0698  0.3167 -0.1204
 4550W        W 8601   1.288   8.175  11.519  0.0398 -0.0121 -0.4658
 4551W        W 8602   3.760   6.293  10.806  0.0500  0.1314 -0.0574
 4552W        W 8603   7.178   0.479  12.010  0.1601  0.2384  0.5291
 4553W        W 8604   4.746   2.585   5.691  0.3517  0.1730  0.0523
 4554W        W 8605   3.569   6.515  10.353  0.1014 -0.2320 -0.0782
 4555W        W 8606   0.819   3.676  12.791 -0.1118 -0.1427  0.3121
 4556W        W 8607   6.727   6.230   0.487 -0.2811 -0.2012 -0.1042
 4557W        W 8608   2.185   6.364  13.525  0.2315 -0.1002  0.3092
 4558W        W 8609   9.693   2.751   1.344 -0.0874  0.2661 -0.3657
 4559W        W 8610   4.065   7.187  10.465 -0.2979  0.1012 -0.1677
 4560W        W 8611   4.541   7.858   0.102 -0.3032  0.4388 -0.0858
 4561W        W 8612   0.517   4.595   8.880 -0.2017  0.1816  0.2367
 4562W        W 8613   5.162   4.991   3.673 -0.0578 -0.0875  0.2169
 4563W        W 8614   9.765   7.762   2.535  0.1045 -0.0384  0.2364
 4564W        W 8615   6.791   4.300   3.433 -0.0509 -0.0387  0.3205
 4565W        W 8616   7.771   7.422  10.986 -0.1576 -0.1493  0.1466
 4566W        W 8617   7.614   7.311   1.365 -0.0054  0.0794 -0.0787
 4567W        W 8618   6.902   9.397   2.112  0.3927  0.0739 -0.0036
 4568W        W 8619   4.777   0.745  10.218 -0.0287  0.0836 -0.1065
 4569W        W 8620   9.823   0.044   0.497 -0.1395 -0.3288 -0.1609
 4570W        W 8621   1.174   1.272   1.777  0.0474  0.0390 -0.0103
 4571W        W 8622   2.673   7.068  13.978  0.1675 -0.3592  0.0561
 4572W        W 8623  10.011   0.208   1.765  0.2355 -0.0853 -0.0391
 4573W        W 8624   8.627   0.462  10.312  0.0180 -0.3218  0.1652
 4574W        W 8625   7.702   1.488   3.976  0.3207 -0.1892  0.1475
 4575W        W 8626   4.301   0.848  10.237 -0.3763 -0.2315  0.0239
 4576W        W 8627   1.336   1.391  10.235 -0.3232 -0.2681  0.1943
 4577W        W 8628   6.468   6.976  11.191  0.1022 -0.2007  0.1782
 4578W        W 8629   5.391   6.589  11.762  0.2367 -0.0077 -0.1843
 4579W        W 8630   6.012   0.012   4.195 -0.1028  0.2564 -0.0822
 4580W        W 8631   5.928   8.782   2.939  0.1617  0.0518  0.1689
 4581W        W 8632   5.838   2.030   1.299 -0.3119  0.1043  0.2049
 4582W        W 8633   7.264   1.759   4.248 -0.3147  0.1250  0.1534
 4583W        W 8634   8.889   4.371  12.274  0.1943  0.1684  0.3759
 4584W        W 8635   3.100   7.817  11.315  0.3752  0.2353 -0.0118
 4585W        W 8636   0.938   1.512   5.165  0.1146  0.0644 -0.0553
 4586W        W 8637   8.081   7.602  12.685 -0.0404  0.1321  0.0746
 4587W        W 8638   8.281   3.970   4.548 -0.0381 -0.2416  0.1407
 4588W        W 8639   7.235   3.197  12.895  0.1059 -0.0243 -0.3906
 4589W        W 8640   6.550   3.092  10.467  0.2146 -0.1975  0.4208
 4590W        W 8641   1.015   6.343  12.808 -0.5167 -0.0174  0.2257
 4591W        W 8642   4.189   3.491   8.819  0.0189 -0.1383  0.0965
 4592W        W 8643   1.692   7.946   1.086 -0.1910  0.0535 -0.0844
 4593W        W 8644   4.254   4.291   2.821 -0.4305  0.1381 -0.3021
 4594W        W 8645   5.427   5.190   4.187 -0.2063 -0.3052  0.0752
 4595W        W 8646   8.201   4.650  12.828 -0.0566  0.2370  0.3359
 4596W        W 8647   4.874   9.806   2.611 -0.1643  0.1131  0.2328
 4597W        W 8648   4.275   3.586   0.873  0.1382 -0.2447  0.0070
 4598W        W 8649   0.351   9.840   8.841 -0.0969  0.0645  0.1135
 4599W        W 8650   9.016   5.509  12.616 -0.1470 -0.0341 -0.1692
 4600W        W 8651   9.362   0.965   4.362 -0.1167  0.1499 -0.0191
 4601W        W 8652   3.300   1.960  12.381  0.1713  0.0979 -0.1824
 4602W        W 8653   4.506   3.735   1.584  0.0247 -0.0646  0.0343
 4603W        W 8654   0.435   7.964   3.838 -0.0100  0.0629 -0.0051
 4604W        W 8655   3.070   1.214   0.312 -0.1039 -0.2576 -0.0101
 4605W        W 8656   1.804   0.214   4.239  0.0116 -0.2495  0.2331
 4606W        W 8657   9.295   3.382  10.401  0.0031  0.2243  0.2886
 4607W        W 8658   0.009   9.554  10.196  0.0784  0.0036  0.0728
 4608W        W 8659   2.982   0.826  10.103  0.0739 -0.0392 -0.0697
 4609W        W 8660   3.572   5.160  12.137  0.2278 -0.2329  0.2888
 4610W        W 8661   0.503   3.348   1.683  0.0426 -0.0877  0.1265
 4611W        W 8662   2.345   4.046   1.510 -0.4185 -0.2398 -0.0508
 4612W        W 8663   2.082   2.881  11.507 -0.2556 -0.3527  0.0751
 4613W        W 8664   7.390   3.881   5.048  0.0463 -0.1075  0.2524
 4614W        W 8665   4.474   9.783   2.263 -0.0311 -0.1392  0.0902
 4615W        W 8666  10.074   8.168  13.332 -0.2390 -0.2039 -0.2008
 4616W        W 8667   8.480   2.807   4.506  0.0412  0.3137  0.0655
 4617W        W 8668   7.248   9.370   0.951  0.0659 -0.1114 -0.2832
 4618W        W 8669   4.505   5.816  12.403 -0.5148  0.0965 -0.2833
 4619W        W 8670   7.093   3.542  13.748 -0.3477  0.0293  0.1021
 4620W        W 8671   0.698   8.732   3.285  0.0510  0.1475 -0.0255
 4621W        W 8672   3.462   2.583   9.760  0.1510  0.0538 -0.0132
 4622W        W 8673   2.322   9.676  12.535 -0.1692 -0.1092 -0.1529
 4623W        W 8674   1.660   0.625  13.877  0.1158  0.0488  0.0881
 4624W        W 8675   2.407   3.563   2.978 -0.2914 -0.0361  0.1089
 4625W        W 8676   5.418   1.900  12.425 -0.0160  0.1568 -0.1709
 4626W        W 8677   0.769   7.484   4.083  0.3834 -0.0997  0.1039
 4627W        W 8678   2.344   2.909   0.276 -0.4063  0.1556 -0.0153
 4628W        W 8679   4.682   6.092  10.952 -0.0441 -0.3162 -0.0395
 4629W        W 8680   5.500   8.246  11.951 -0.1393  0.4395  0.1448
 4630W        W 8681   9.474   6.388  11.424  0.0018 -0.0761  0.2216
 4631W        W 8682   4.580   4.730   0.885  0.1452  0.1597  0.3078
 4632W        W 8683   0.672   4.692  10.675 -0.2547  0.3695 -0.0474
 4633W        W 8684   7.212   4.174  11.435  0.0373 -0.0067  0.0927
 4634W        W 8685   4.171   9.124   9.286  0.2113 -0.1234 -0.2121
 4635W        W 8686   6.017   5.275  12.580  0.0666  0.2495  0.3155
 4636W        W 8687   7.877   1.518   2.728 -0.1170  0.0177  0.0284
 4637W        W 8688   1.111   6.265   0.134 -0.0464  0.1492 -0.0483
 4638W        W 8689   6.614   5.670  11.249 -0.1214 -0.0707 -0.2646
 4639W        W 8690   8.434   8.176  13.209  0.1819  0.3251  0.1671
 4640W        W 8691   4.475   5.239   9.717  0.0388  0.1435  0.0674
 4641W        W 8692   2.335   6.161  11.988  0.1085 -0.1440 -0.1226
 4642W        W 8693   8.476   8.821  10.185  0.2562  0.0158  0.0490
 4643W        W 8694   2.408   4.382   2.317  0.2849  0.1699 -0.1613
 4644W        W 8695   0.575   8.382   3.675  0.2418 -0.0762 -0.1969
 4645W        W 8696   4.157   4.098  12.631  0.2826  0.1659  0.0782
 4646W        W 8697   0.998   4.001  13.752 -0.0357  0.0379 -0.1265
 4647W        W 8698   2.347   5.544   3.396 -0.1889  0.2987  0.2221
 4648W        W 8699   9.164   4.586   4.504 -0.1633 -0.3541 -0.1734
 4649W        W 8700   0.543   6.459  13.605 -0.0915  0.1960 -0.1661
 4650W        W 8701   9.493   6.941   0.482 -0.1637  0.0344  0.2440
 4651W        W 8702   0.840   1.479   3.788  0.0972  0.4229  0.2454
 4652W        W 8703   5.891   1.756   4.937  0.0793 -0.1763 -0.1580
 4653W        W 8704   4.040   7.572   9.140  0.0826  0.2637 -0.0069
 4654W        W 8705   1.650   5.368   2.729  0.0520 -0.0547 -0.2054
 4655W        W 8706   1.664   6.893   1.015  0.0355 -0.0197 -0.0112
 4656W        W 8707   2.864   9.036  12.752 -0.0080  0.1123  0.0028
 4657W        W 8708   4.797   6.991  12.927  0.0567  0.0832  0.0543
 4658W        W 8709   2.072   0.017  10.513 -0.0045  0.0719  0.2986
 4659W        W 8710   8.552   8.130  11.342 -0.1675  0.0106  0.1129
 4660W        W 8711   6.942   3.061   4.113  0.1906  0.1892 -0.2848
 4661W        W 8712   2.524   5.277  11.720 -0.5430  0.0476 -0.1942
 4662W        W 8713   9.466   5.899   0.661  0.2065  0.0064 -0.2072
 4663W        W 8714   6.764   6.570  11.429 -0.0281 -0.1192 -0.1203
 4664W        W 8715   5.801   9.133  11.800 -0.0149  0.1191  0.0544
 4665W        W 8716   2.658   7.505   1.782  0.0168 -0.1257  0.2607
 4666W        W 8717   5.462   2.437   8.885  0.1366  0.0083 -0.2757
 4667W        W 8718   4.167   7.639  10.198 -0.2599  0.0871 -0.0662
 4668W        W 8719   3.843   0.887  10.676  0.2104 -0.2237 -0.1701
 4669W        W 8720   8.986   6.075  13.454  0.0686  0.0001 -0.1051
 4670W        W 8721   1.979   4.429  10.110  0.2064 -0.0009 -0.2684
 4671W        W 8722   0.922   1.286   3.244 -0.2100 -0.2221  0.0798
 4672W        W 8723   3.966   9.521   4.951  0.2746  0.0336 -0.0102
 4673W        W 8724   9.611   7.213   4.028 -0.3378 -0.1191  0.1996
 4674W        W 8725   6.910   1.394   2.677 -0.0590 -0.1851  0.0533
 4675W        W 8726   9.059   8.005  12.595 -0.1381  0.0804  0.2602
 4676W        W 8727   0.577   9.634   4.755  0.1926 -0.1543 -0.0843
 4677W        W 8728   0.815   3.560   2.493 -0.1409 -0.0091 -0.1736
 4678W        W 8729   5.970   9.786  10.423  0.2081  0.2885 -0.0922
 4679W        W 8730   2.834   0.851   2.070  0.0272  0.1008  0.1363
 4680W        W 8731   5.314   9.585   1.624  0.0769  0.0711 -0.0023
 4681W        W 8732   2.306   2.331   1.151 -0.0905  0.0818 -0.1102
 4682W        W 8733   9.636   1.251  10.223 -0.0108  0.2108  0.0606
 4683W        W 8734   1.164   7.931  13.119 -0.0510  0.2418  0.2431
 4684W        W 8735   9.666   9.058  11.004 -0.1028 -0.1448  0.0635
 4685W        W 8736   1.941   0.729   9.119  0.0475  0.0322 -0.0502
 4686W        W 8737   0.370   0.606   1.530  0.1191  0.1985 -0.0781
 4687W        W 8738   8.221   0.726   0.148  0.0931  0.3626  0.0810
 4688W        W 8739   6.194   4.046  13.863  0.2142  0.4010  0.1457
 4689W        W 8740   4.036   9.551   3.745  0.1734 -0.3300 -0.1495
 4690W        W 8741   9.759   5.230   2.961 -0.0550 -0.0691  0.0426
 4691W        W 8742   0.909   4.376   5.714 -0.1791  0.1766 -0.0551
 4692W        W 8743   5.194   0.187  11.313 -0.0192  0.1192  0.0079
 4693W        W 8744   0.044   8.549  10.608 -0.1232 -0.0298  0.3324
 4694W        W 8745   1.639   2.160  13.924  0.2291 -0.2949  0.2434
 4695W        W 8746   6.691   4.954  10.627 -0.0090  0.1250 -0.0377
 4696W        W 8747   1.002   9.143  11.025 -0.0925 -0.1213  0.1850
 4697W        W 8748   8.295   8.703   1.776 -0.5313  0.1054  0.0575
 4698W        W 8749   4.044   4.604   2.332 -0.0655 -0.3360 -0.0815
 4699W        W 8750   0.926   6.268  10.241 -0.0094  0.0009  0.1287
 4700W        W 8751   7.648   1.164  12.413 -0.1712 -0.2940  0.0206
 4701W        W 8752   3.691   7.036   4.448  0.2304 -0.1321  0.0646
 4702W        W 8753   9.968   9.321  13.998 -0.1186 -0.0175  0.0511
 4703W        W 8754   8.250   0.321  13.807 -0.1655 -0.2854 -0.0942
 4704W        W 8755   6.638   4.033   3.013  0.0410  0.2040 -0.1023
 4705W        W 8756   1.187   4.555  10.583 -0.1079  0.3302 -0.1196
 4706W        W 8757   1.792   2.819  12.463 -0.1899 -0.1279  0.0355
 4707W        W 8758   2.303   4.126  13.178 -0.0533 -0.2699 -0.0512
 4708W        W 8759   1.726   1.854   2.672  0.0398 -0.1247  0.0426
 4709W        W 8760   8.276   1.252  10.024  0.0231  0.3022 -0.0292
 4710W        W 8761   4.320   1.074  10.686  0.2819 -0.0804  0.1612
 4711W        W 8762   6.848   2.786   5.371 -0.1370 -0.5960 -0.0296
 4712W        W 8763   9.325   6.051  13.020 -0.0392  0.1896  0.2127
 4713W        W 8764   5.648   5.527  11.824  0.3058 -0.1035  0.2353
 4714W        W 8765   1.392   6.349   4.396 -0.0638 -0.0532 -0.1230
 4715W        W 8766   7.683   8.056   3.018 -0.2613 -0.1396 -0.0989
 4716W        W 8767   4.396   1.390  13.272 -0.1687 -0.3460  0.2091
 4717W        W 8768   6.946   0.371   1.497 -0.0206 -0.2214 -0.0636
 4718W        W 8769   5.507   2.732  13.382  0.3105 -0.0308  0.3036
 4719W        W 8770   2.699   0.261   4.517 -0.0434 -0.0564 -0.1191
 4720W        W 8771   9.264   4.477  10.482 -0.3784 -0.0559  0.0847
 4721W        W 8772   3.878   4.127   3.692  0.5658 -0.2202 -0.0535
 4722W        W 8773   1.730   5.906  12.551 -0.3332  0.2805  0.1224
 4723W        W 8774   5.465   1.302  12.398  0.2203  0.0328  0.0918
 4724W        W 8775   2.280   8.528   5.251  0.1427 -0.0095 -0.2056
 4725W        W 8776   1.882   0.682  11.069 -0.2608 -0.1293 -0.1679
 4726W        W 8777   4.454   0.476   4.317 -0.1295  0.0184  0.3191
 4727W        W 8778   9.261   0.870   5.002 -0.0828 -0.0530  0.0078
 4728W        W 8779   4.694   9.099   1.013 -0.1625 -0.0893  0.0145
 4729W        W 8780   1.794   8.853   6.026 -0.0475  0.1992 -0.0073
 4730W        W 8781   1.954   1.558  13.116  0.1533 -0.0305  0.4132
 4731W        W 8782   9.554   1.388   3.179 -0.0104  0.1743  0.0520
 4732W        W 8783   7.475   6.595  12.964 -0.1197  0.1800 -0.0920
 4733W        W 8784   6.689   8.035   0.215  0.1262 -0.1906  0.1361
 4734W        W 8785   2.311   4.006   4.841 -0.4160 -0.3248 -0.0905
 4735W        W 8786   4.945   5.061   4.307 -0.0423  0.0575  0.2769
 4736W        W 8787   7.935   7.665  13.242  0.1698  0.3407  0.0160
 4737W        W 8788   6.265   3.653   3.681 -0.2708  0.3790 -0.1025
 4738W        W 8789   9.452   7.843  11.451  0.0892  0.1237  0.0383
 4739W        W 8790   1.511   0.157   9.723  0.2227  0.0484 -0.0140
 4740W        W 8791   1.601   8.247   0.533 -0.3564  0.1766 -0.1016
 4741W        W 8792   8.606   4.663  13.617 -0.0414  0.1269  0.0015
 4742W        W 8793   3.113  10.082   3.990 -0.0100 -0.0963 -0.1552
 4743W        W 8794   4.422   9.374  11.270  0.1333  0.2668  0.0176
 4744W        W 8795   8.198   4.860  13.499 -0.1067 -0.1175  0.5846
 4745W        W 8796   9.981   2.892  12.990  0.0235  0.0818  0.0849
 4746W        W 8797   3.934   2.838   3.651 -0.0324  0.0657  0.0614
 4747W        W 8798   3.019   4.088  11.246 -0.1345 -0.3361  0.3442
 4748W        W 8799   2.873   9.948  12.605 -0.2278 -0.0260 -0.1461
 4749W        W 8800   4.486   2.719   3.421  0.1247 -0.0693  0.1802
 4750W        W 8801   4.224   5.570  11.899 -0.1433  0.0991 -0.0540
 4751W        W 8802   2.203   8.378   1.873  0.4301 -0.1016 -0.3360
 4752W        W 8803   4.848   4.699  12.052  0.2426  0.0535 -0.1906
 4753W        W 8804   4.753  10.087   0.320 -0.5167  0.2163  0.2423
 4754W        W 8805   1.132   9.833  11.842  0.3342  0.0772  0.1108
 4755W        W 8806   9.566  10.133   2.923 -0.1908 -0.3596 -0.0695
 4756W        W 8807   1.447   1.633   5.426 -0.0296 -0.3395  0.1786
 4757W        W 8808   4.464   3.210   4.698  0.0290 -0.0262 -0.0976
 4758W        W 8809   6.909   3.336   0.987  0.0110 -0.0817 -0.0333
 4759W        W 8810   3.643   5.266  10.769  0.1907  0.2594 -0.0130
 4760W        W 8811   5.980   1.970  13.646  0.0465  0.2214 -0.0508
 4761W        W 8812   4.442   2.312  11.225  0.4180 -0.3473 -0.0900
 4762W        W 8813   7.701   4.267  11.145  0.1447 -0.0654  0.1249
 4763W        W 8814   8.318   2.937   1.646  0.2411  0.1200  0.4065
 4764W        W 8815   3.345   0.981  12.027 -0.2600  0.2351 -0.1490
 4765W        W 8816   7.059   9.016   0.122 -0.3485  0.2048  0.2774
 4766W        W 8817   7.844   2.911  12.656 -0.0259 -0.1359  0.0561
 4767W        W 8818   1.131   4.830   1.028 -0.0816 -0.2789 -0.1188
 4768W        W 8819   5.230   8.191  11.074 -0.0599  0.0258  0.1461
 4769W        W 8820   3.468   5.580   2.036 -0.0987 -0.2001 -0.5822
 4770W        W 8821   2.628   4.543   3.213 -0.0035 -0.0921 -0.0427
 4771W        W 8822   9.509   2.660  13.001 -0.0539  0.0354 -0.1703
 4772W        W 8823   1.270   0.108  10.342 -0.1377  0.3311  0.1188
 4773W        W 8824   4.961   4.189  12.765  0.1224 -0.0407  0.1793
 4774W        W 8825   7.184   4.598   3.629  0.2071 -0.1126 -0.1915
 4775W        W 8826   0.870   6.053   0.549  0.3420  0.0168  0.1392
 4776W        W 8827   9.331   8.172  13.167 -0.1474 -0.2491 -0.1088
 4777W        W 8828   5.551   5.082   1.894  0.1704 -0.1798  0.1858
 4778W        W 8829   8.597   3.184   3.750 -0.1285 -0.0180  0.1782
 4779W        W 8830   2.075   6.073   0.664  0.0206  0.2542 -0.0313
 4780W        W 8831   9.440   4.608   9.625 -0.2019 -0.0232 -0.2862
 4781W        W 8832   9.446   9.359   3.871  0.1839  0.0059 -0.0111
 4782W        W 8833   6.234   9.935  13.327  0.1173  0.2278  0.0191
 4783W        W 8834   4.961   6.752  11.471 -0.2329 -0.2244 -0.0349
 4784W        W 8835   7.626   3.739  13.834 -0.0523  0.1324 -0.1233
 4785W        W 8836  10.044   1.253  12.360  0.2192 -0.2502 -0.0966
 4786W        W 8837   0.231   3.351  11.802 -0.0740  0.2072  0.1026
 4787W        W 8838   7.227   4.322   1.111 -0.1573  0.4611  0.3180
 4788W        W 8839   4.514   2.068  13.593 -0.0379  0.3121 -0.2611
 4789W        W 8840   4.556   3.032   0.787 -0.2757 -0.0204  0.2327
 4790W        W 8841   5.933   6.839   3.063 -0.4132  0.0881 -0.2746
 4791W        W 8842   5.012   7.638  13.434  0.0078  0.1592 -0.1969
 4792W        W 8843   2.281   6.556   0.502  0.1540 -0.0488  0.1382
 4793W        W 8844   1.767   7.304  13.476 -0.3237  0.1182 -0.1626
 4794W        W 8845   2.377   0.436  12.875  0.0942 -0.1921 -0.4068
 4795W        W 8846   9.771   0.961  12.096 -0.0439 -0.4188  0.0044
 4796W        W 8847   2.966   7.727   9.916 -0.2276 -0.0943 -0.0737
 4797W        W 8848   0.679   7.560   1.122  0.0963 -0.0661 -0.1377
 4798W        W 8849   8.489   4.359   9.903  0.1517  0.0021  0.1968
 4799W        W 8850   3.669   9.876   8.753  0.2167  0.1022 -0.3608
 4800W        W 8851   0.953   5.743   9.394  0.2897 -0.2272  0.1606
 4801W        W 8852   8.203   2.973   9.045  0.0977  0.1715 -0.0289
 4802W        W 8853   1.898   0.460   9.760 -0.2376 -0.0763 -0.1017
 4803W        W 8854   3.408   4.600   0.933 -0.0176 -0.1962  0.1026
 4804W        W 8855   1.078  10.078   2.933  0.1640  0.0914 -0.0247
 4805W        W 8856   2.259   1.416   3.217  0.1548  0.0906 -0.1274
 4806W        W 8857   8.777   7.430  13.893 -0.0068 -0.0974  0.1122
 4807W        W 8858   3.182   8.211   2.131  0.1463 -0.1431 -0.3738
 4808W        W 8859   3.413   0.514   9.891 -0.0552 -0.0389  0.1397
 4809W        W 8860   8.035   8.347   0.747 -0.2407  0.3293  0.1475
 4810W        W 8861   2.322   1.173   0.523 -0.1548  0.1498  0.1624
 4811W        W 8862   9.763   2.238   1.512 -0.1196  0.2608  0.1191
 4812W        W 8863   3.203   7.317  11.458 -0.0053 -0.0967 -0.1977
 4813W        W 8864   1.986   0.428   3.147 -0.0864  0.0298 -0.0245
 4814W        W 8865   0.136   3.962   0.828 -0.0379  0.1462  0.0350
 4815W        W 8866  10.085   9.319   0.379  0.1476 -0.1541 -0.3332
 4816W        W 8867   4.371   1.401  10.209  0.0457  0.0405 -0.0556
 4817W        W 8868   6.948   9.000   1.222  0.2220  0.3717  0.1878
 4818W        W 8869   7.739   3.934  10.203  0.2544  0.1249 -0.0065
 4819W        W 8870   2.834   3.090   2.849  0.0434 -0.0641 -0.0013
 4820W        W 8871   2.622   0.507   0.793 -0.3213 -0.0787 -0.1454
 4821W        W 8872   8.108   8.035   0.083  0.1069  0.2606  0.2007
 4822W        W 8873   5.646   4.522  10.448  0.0524 -0.1708 -0.1398
 4823W        W 8874   8.124   5.093   9.542 -0.1428  0.1304  0.0536
 4824W        W 8875   6.281   0.548   3.500 -0.0395  0.2138  0.0033
 4825W        W 8876   9.077   1.174   3.984  0.1038  0.1287  0.0992
 4826W        W 8877   3.216   4.780   3.047  0.1964  0.0518  0.1040
 4827W        W 8878   6.864   2.957   8.687  0.0386  0.2148  0.2747
 4828W        W 8879   1.674   1.868  13.385 -0.0068 -0.3174  0.0014
 4829W        W 8880   4.591   3.450  10.532  0.1081 -0.2115  0.2620
 4830W        W 8881   2.977   0.678  12.032 -0.0781  0.3466  0.0799
 4831W        W 8882   7.727   8.770  13.663 -0.3119 -0.1184 -0.2393
 4832W        W 8883   8.265   3.477   2.795  0.1350  0.2043  0.0707
 4833W        W 8884   0.529   2.866   1.647  0.1384  0.3283  0.3017
 4834W        W 8885   2.116   0.992  10.732  0.0294 -0.1455  0.1743
 4835W        W 8886   7.572   3.656  10.585  0.2216  0.1167  0.4004
 4836W        W 8887   9.869   5.119  10.083 -0.2919  0.2068 -0.0156
 4837W        W 8888  10.114   1.872   0.040  0.0081  0.4249  0.1458
 4838W        W 8889   4.205   8.210   4.054 -0.0583 -0.2021 -0.0419
 4839W        W 8890   5.299   2.225   2.406 -0.5214 -0.0996  0.3438
 4840W        W 8891   8.022   7.219   3.542  0.0610  0.1403  0.1054
 4841W        W 8892   0.365   2.249   3.660  0.1199 -0.0424  0.1969
 4842W        W 8893   3.451   6.693  10.854  0.0033  0.1776  0.0824
 4843W        W 8894   5.602   7.927   2.736 -0.2195  0.3350 -0.1586
 4844W        W 8895   2.798   4.130   3.961  0.2337  0.0764  0.0696
 4845W        W 8896   0.860   6.406   4.470  0.0617  0.2210  0.2576
 4846W        W 8897   5.981   5.058   1.658  0.1067  0.0458 -0.3791
 4847W        W 8898   5.163   7.528   1.409 -0.0665  0.0383 -0.1931
 4848W        W 8899   3.949   1.798  10.879  0.1033  0.0894  0.2429
 4849W        W 8900   7.563   5.168  13.802  0.2204  0.0967 -0.2452
 4850W        W 8901   1.892   9.426   0.829  0.2438  0.0633 -0.4418
 4851W        W 8902   9.166  10.011  10.841  0.0198  0.1496  0.0365
 4852W        W 8903   0.176   2.396  12.617  0.2125  0.4657  0.4151
 4853W        W 8904   9.651   9.946  12.847  0.0115 -0.0716  0.2528
 4854W        W 8905   5.003   0.483   0.922 -0.1949  0.0904  0.0819
 4855W        W 8906   5.329   6.898   0.725 -0.2125 -0.1512  0.0250
 4856W        W 8907   6.614   8.829   0.912  0.1807  0.0221 -0.1323
 4857W        W 8908   4.253   5.270   1.772 -0.0883 -0.1054 -0.1908
 4858W        W 8909   3.423   2.427  11.474 -0.0090  0.0710 -0.3488
 4859W        W 8910   2.099   2.995  13.210  0.0848  0.1134 -0.2506
 4860W        W 8911   5.417   3.648   8.782  0.2689  0.1609  0.1059
 4861W        W 8912   4.249   3.334   0.489 -0.2733  0.3980 -0.0845
 4862W        W 8913   0.313   6.961  10.409  0.3007  0.0686 -0.1490
 4863W        W 8914   1.979   8.781   2.260 -0.0051  0.3180  0.1614
 4864W        W 8915   8.998   3.954   1.581 -0.0972  0.2942  0.1521
 4865W        W 8916   0.586   4.001   2.713 -0.2121 -0.3004  0.1592
 4866W        W 8917  10.107   7.527   0.601  0.2712  0.1209 -0.0572
 4867W        W 8918   5.284   4.153  10.773 -0.0516 -0.1739 -0.0292
 4868W        W 8919   4.722   1.288   1.520 -0.1895  0.2874 -0.0018
 4869W        W 8920   1.197   0.216   5.409 -0.0458  0.1547 -0.5002
 4870W        W 8921   0.626   2.293   2.645 -0.2015  0.2619 -0.2666
 4871W        W 8922   6.775   2.823   2.134  0.1348 -0.0828 -0.0783
 4872W        W 8923   9.517   0.197  11.909  0.0531  0.1043  0.1346
 4873W        W 8924   3.359   8.000  12.381 -0.3840 -0.0003 -0.0444
 4874W        W 8925   0.660   5.948  10.773  0.0071 -0.2024 -0.0754
 4875W        W 8926   2.306   3.178  10.671  0.0227 -0.1727  0.3391
 4876W        W 8927   9.578   6.318   2.402  0.1595 -0.0626  0.2973
 4877W        W 8928   9.531   5.508   4.253 -0.2540 -0.1537 -0.2592
 4878W        W 8929   1.590   5.221  10.342  0.1051 -0.0941 -0.0814
 4879W        W 8930   8.661   8.407   1.493  0.4646  0.4025 -0.1821
 4880W        W 8931   4.071   2.570   1.157  0.2129  0.1168  0.0789
 4881W        W 8932   7.331   8.643  10.146  0.0811  0.0408  0.2047
 4882W        W 8933   3.093   9.566   2.176 -0.1092 -0.0439 -0.2044
 4883W        W 8934   4.832   1.554  13.694  0.3598 -0.0331  0.1224
 4884W        W 8935   9.179   6.615   2.367 -0.1309  0.0942  0.2769
 4885W        W 8936   1.613   2.139  10.161  0.0487  0.2444  0.0749
 4886W        W 8937   1.743   1.536   3.314  0.2632 -0.0496 -0.2780
 4887W        W 8938   8.129   8.406  12.600 -0.3370  0.1491  0.1632
 4888W        W 8939   4.529   4.630   2.574  0.1855  0.2556  0.2523
 4889W        W 8940   2.360   0.525   2.254  0.1558  0.2479  0.0006
 4890W        W 8941   6.087   3.248   3.056  0.2647 -0.1780  0.1160
 4891W        W 8942   7.659   4.584   3.507 -0.0606 -0.2535 -0.0703
 4892W        W 8943   5.106   0.841   2.786  0.1387 -0.3921  0.0375
 4893W        W 8944   8.327   1.555  10.399 -0.2342  0.0842  0.1770
 4894W        W 8945   9.454   7.972   1.419 -0.1235 -0.5322 -0.2068
 4895W        W 8946   8.399   4.737   2.734 -0.0236 -0.2229  0.1854
 4896W        W 8947   2.832   4.679   9.677  0.1440  0.0870 -0.0147
 4897W        W 8948   8.707   8.762  12.538 -0.3583 -0.0453 -0.0090
 4898W        W 8949   5.160   1.677  10.473 -0.0820 -0.2616 -0.3111
 4899W        W 8950   3.146   6.854   4.786  0.2672  0.3691 -0.0361
 4900W        W 8951   5.987   2.409   0.523 -0.0831  0.1334  0.2498
 4901W        W 8952   1.780   2.453  11.665 -0.0626  0.1680  0.2668
 4902W        W 8953   2.396   3.948   9.386 -0.0657 -0.1905 -0.1777
 4903W        W 8954   0.297   3.446  10.783  0.4153  0.1677 -0.0318
 4904W        W 8955   5.801   4.798  11.225  0.0957  0.0757  0.2748
 4905W        W 8956   3.995   0.168   4.522 -0.0011  0.1666 -0.3283
 4906W        W 8957   5.562   3.241  13.502  0.1599  0.2394  0.1378
 4907W        W 8958   8.540   6.854   2.983  0.3976  0.2432 -0.2686
 4908W        W 8959   8.261   0.045  11.775  0.1858 -0.1424 -0.0223
 4909W        W 8960   8.541   0.435  11.755  0.2070  0.0325 -0.3455
 4910W        W 8961   8.822   9.780   1.102 -0.1441  0.4757 -0.3081
 4911W        W 8962   2.112   4.286   9.168 -0.0398  0.2213  0.0943
 4912W        W 8963   4.674   1.538   2.428 -0.3072  0.0443 -0.0753
 4913W        W 8964   0.612   6.228  13.184  0.3522 -0.1104 -0.2037
 4914W        W 8965   1.823   6.844   2.284  0.2964  0.1373 -0.2032
 4915W        W 8966   0.660   8.881  10.397 -0.0905 -0.0887 -0.0589
 4916W        W 8967   0.671   2.251  12.737 -0.0289  0.0753 -0.2480
 4917W        W 8968   3.808   1.588   1.476  0.5422 -0.1329  0.0697
 4918W        W 8969   5.734   6.551   0.545  0.0223  0.0876  0.0187
 4919W        W 8970   3.102   9.885   3.032 -0.0535 -0.0099  0.0011
 4920W        W 8971   8.599   4.319  12.752  0.2281 -0.1546 -0.0243
 4921W        W 8972   6.009   9.668  12.870 -0.1008 -0.4172  0.1556
 4922W        W 8973   1.358   9.819   0.411  0.0564 -0.4489  0.1829
 4923W        W 8974   1.223   7.279   4.199  0.0263  0.0346  0.0078
 4924W        W 8975   3.894   4.752  12.070  0.0684  0.5093 -0.2142
 4925W        W 8976   7.020   5.464  12.059 -0.0673  0.0920  0.0552
 4926W        W 8977   5.334   8.288   0.004 -0.0048  0.0605  0.1142
 4927W        W 8978   3.183   6.799  11.225  0.1239 -0.1033  0.0058
 4928W        W 8979   5.925   4.895   0.766  0.1316  0.1206  0.1263
 4929W        W 8980   3.018   1.884   0.344  0.1851 -0.0431  0.1314
 4930W        W 8981   8.170   8.469  13.648 -0.0019 -0.0035 -0.0893
 4931W        W 8982   2.569   3.437  11.672  0.1255 -0.1117  0.0194
 4932W        W 8983   0.891   5.611   0.705 -0.2203 -0.3482 -0.1644
 4933W        W 8984   9.946   5.754   0.210  0.0190  0.4334 -0.0621
 4934W        W 8985   7.148   2.493  13.726  0.4158 -0.2056 -0.0575
 4935W        W 8986   1.815   7.060  10.985 -0.1875  0.1192  0.1324
 4936W        W 8987   2.104   8.471  13.875 -0.1550 -0.1745 -0.1844
 4937W        W 8988   8.444   0.282  11.309 -0.1268 -0.0909 -0.0832
 4938W        W 8989   2.320   7.707   2.694 -0.0862 -0.4298  0.0340
 4939W        W 8990   6.197   2.352   1.984  0.0485  0.1232  0.0790
 4940W        W 8991   3.120   3.714  10.374  0.2660 -0.0936  0.3757
 4941W        W 8992   5.170   3.478   3.748 -0.2454  0.0641  0.0539
 4942W        W 8993   9.035   0.263  11.734  0.2307  0.4591 -0.3361
 4943W        W 8994   7.239   4.016  13.685 -0.0464  0.1040 -0.0690
 4944W        W 8995   2.108  10.153  13.000 -0.3909 -0.1135 -0.1882
 4945W        W 8996   5.453   9.596   0.288 -0.1348  0.3200  0.0391
 4946W        W 8997   0.156   5.011  10.393  0.1105 -0.1230 -0.1982
 4947W        W 8998   9.023   1.545   1.422  0.1658 -0.0530  0.3062
 4948W        W 8999  10.062   7.975   1.436  0.0147 -0.1372  0.1069
 4949W        W 9000   8.286   3.500  13.185  0.0845  0.1342 -0.2771
 4950W        W 9001   3.006   6.353  11.443 -0.0264 -0.2294 -0.2059
 4951W        W 9002   2.793   1.689  11.078  0.0687  0.2381 -0.1760
 4952W        W 9003  10.050   0.892  11.313  0.1393  0.1038  0.2417
 4953W        W 9004   8.303   5.586  10.731  0.0018  0.0119  0.0507
 4954W        W 9005   0.335   8.345  12.140 -0.1065 -0.2013  0.4971
 4955W        W 9006   9.388   8.093   0.418  0.2487 -0.1788 -0.1132
 4956W        W 9007   9.288   4.727  10.940  0.1709  0.2638 -0.3805
 4957W        W 9008   0.481   4.380  11.603  0.1691 -0.3071 -0.0626
 4958W        W 9009   4.112   0.695  11.034 -0.0265 -0.0889 -0.1025
 4959W        W 9010   6.396   4.095   2.054  0.2707 -0.2265 -0.4570
 4960W        W 9011   1.948   2.304  13.290  0.1384 -0.2714 -0.2383
 4961W        W 9012   5.285   4.322   3.325  0.0122  0.3006  0.1867
 4962W        W 9013   9.481   1.817   9.914  0.0725 -0.1160 -0.0800
 4963W        W 9014   7.504   1.629   9.574  0.2062  0.0199  0.0338
 4964W        W 9015   5.293   7.407   2.038 -0.0168 -0.2045  0.5429
 4965W        W 9016   8.847   0.173   4.790 -0.1609 -0.2744  0.4699
 4966W        W 9017   0.548   8.893  13.528  0.1408  0.1514  0.2768
 4967W        W 9018   2.356   7.225   9.649  0.0223  0.0764 -0.0484
 4968W        W 9019   8.089   8.714   2.827 -0.0928  0.1540  0.2082
 4969W        W 9020   6.487   1.913   4.283  0.0482 -0.3253  0.0722
 4970W        W 9021   8.339   7.966   2.486 -0.0367  0.0756  0.0562
 4971W        W 9022   4.778   4.977  13.808  0.1202  0.2259 -0.1492
 4972W        W 9023   4.312   8.147   1.306  0.2432  0.0514  0.2007
 4973W        W 9024   7.900   2.693   3.328  0.2699  0.1514 -0.0517
 4974W        W 9025   2.998   7.701   4.303 -0.1472  0.1537  0.1398
 4975W        W 9026   2.623   1.073   0.055 -0.0810 -0.0711 -0.2036
 4976W        W 9027   3.739   2.613  11.023 -0.2317  0.0282 -0.2006
 4977W        W 9028   7.287   8.096   1.151  0.1051  0.1252 -0.0664
 4978W        W 9029   0.738   6.735   3.523  0.0679 -0.1083  0.1951
 4979W        W 9030   3.667   6.169   5.208 -0.0203  0.0288 -0.0895
 4980W        W 9031   3.221   1.267   9.869  0.0501  0.1719  0.1192
 4981W        W 9032   0.866   7.522   2.322  0.1428 -0.0773  0.0082
 4982W        W 9033   3.575   9.108  11.809 -0.0926  0.1916 -0.1682
 4983W        W 9034  10.020   0.552   0.567 -0.1588 -0.2237  0.0621
 4984W        W 9035   5.133   7.774  11.391  0.1271 -0.1134 -0.1696
 4985W        W 9036   4.211   5.327  12.906  0.0338 -0.1246  0.4123
 4986W        W 9037   8.565   5.970  10.508  0.1651 -0.0454  0.3983
 4987W        W 9038   0.480   3.118   4.849  0.0368  0.3523  0.2661
 4988W        W 9039   1.537   5.181   0.435 -0.3805 -0.3235 -0.1480
 4989W        W 9040   4.134   4.177  13.865  0.3988  0.0438 -0.0958
 4990W        W 9041   4.328   4.952  14.035 -0.3610 -0.0655  0.1424
 4991W        W 9042   1.982   8.818  13.364  0.3949 -0.2879 -0.3235
 4992W        W 9043   8.512   6.395  11.084 -0.0713  0.0505  0.0200
 4993W        W 9044   1.835   2.638  13.604 -0.0709 -0.0978  0.0295
 4994W        W 9045   9.078   5.149  11.125  0.0903 -0.0053  0.0700
 4995W        W 9046   6.529   8.003  11.161 -0.1717 -0.2696 -0.4304
 4996W        W 9047   9.363   1.750  11.356 -0.0290  0.0701  0.3881
 4997W        W 9048   8.710   0.747   4.908  0.1575  0.2592  0.0435
 4998W        W 9049   5.813   0.358  11.865  0.2490  0.1221 -0.1817
 4999W        W 9050   1.027   9.365   9.223  0.3305 -0.1429  0.0390
 5000W        W 9051   0.495   1.297   9.773 -0.2133  0.0680  0.0116
 5001W        W 9052   3.744   8.308   2.321 -0.0604  0.0783 -0.1915
 5002W        W 9053   5.235   3.827  12.636 -0.3053  0.1652  0.0349
 5003W        W 9054   9.717   1.081  10.698  0.0571  0.0120  0.2492
 5004W        W 9055   5.684   7.915   3.700  0.0702 -0.1169  0.2022
 5005W        W 9056   1.239   8.454  12.943  0.1624 -0.1398 -0.0992
 5006W        W 9057   7.816   7.229   4.196  0.2616 -0.0582  0.1663
 5007W        W 9058   5.355   8.214   1.920 -0.1276  0.0764  0.1321
 5008W        W 9059   7.773   4.249  13.474  0.0565 -0.1932  0.1635
 5009W        W 9060   8.667   4.728  13.087  0.4907  0.0117  0.0383
 5010W        W 9061   1.166   0.757   1.959 -0.2242  0.0749  0.1150
 5011W        W 9062   3.925   7.189  13.356  0.0336 -0.0912  0.0815
 5012W        W 9063   4.097   4.213  11.384  0.0289 -0.0274 -0.0933
 5013W        W 9064   8.689   2.942  13.991  0.1731  0.1693 -0.0989
 5014W        W 9065   1.340   8.253  12.151 -0.0720  0.0055 -0.2139
 5015W        W 9066   6.840   9.425  14.042  0.2326  0.1516 -0.0839
 5016W        W 9067   3.299   2.956   2.543 -0.3077  0.1940  0.0656
 5017W        W 9068   2.508   5.065  12.202 -0.2493 -0.3874 -0.0392
 5018W        W 9069   3.405   2.351   4.006 -0.1639 -0.0686  0.0439
 5019W        W 9070   2.218   9.869  13.523  0.1227  0.0792 -0.0430
 5020W        W 9071   4.713   0.507   0.499  0.2087 -0.1281  0.6323
 5021W        W 9072   8.226   5.070   4.102 -0.1256  0.0406  0.1036
 5022W        W 9073   3.186   5.468  12.023 -0.0597  0.0561  0.2370
 5023W        W 9074   1.604   2.624   3.702 -0.1651 -0.0900 -0.0895
 5024W        W 9075   9.784   2.916  13.962  0.1157 -0.1337  0.4242
 5025W        W 9076   6.872   1.419  13.590  0.1158 -0.0982  0.0619
 5026W        W 9077   8.879   6.140  11.359 -0.2633 -0.2662 -0.3490
 5027W        W 9078   3.952   8.559  10.160  0.1727 -0.1792  0.0447
 5028W        W 9079   4.406   0.811  13.423  0.0575 -0.2346  0.0289
 5029W        W 9080   7.781   3.789  12.432  0.0559 -0.0707 -0.1689
 5030W        W 9081   1.167   1.063   9.350  0.1258 -0.1121 -0.0729
 5031W        W 9082   3.055   7.962   3.431 -0.2394  0.1666 -0.0776
 5032W        W 9083   0.677   8.247  13.092 -0.0141 -0.0214  0.2092
 5033W        W 9084   6.875   2.852   3.706  0.3059  0.0157 -0.1633
 5034W        W 9085   5.745   5.845   2.775 -0.1113  0.1828  0.0604
 5035W        W 9086   2.615   6.985   3.436 -0.1547 -0.2699 -0.3073
 5036W        W 9087   4.330   6.411  10.616  0.0018  0.2187 -0.4525
 5037W        W 9088   2.426   1.177   2.052  0.5228 -0.2605  0.1424
 5038W        W 9089   4.358   9.232   4.991 -0.1297  0.2536 -0.1321
 5039W        W 9090   1.810   3.963   4.891 -0.0919  0.0969 -0.1114
 5040W        W 9091   0.784   4.077   0.445 -0.1876  0.1800  0.2849
 5041W        W 9092   3.152   7.151   4.361 -0.3751 -0.1965 -0.0832
 5042W        W 9093   6.257   6.577  11.482 -0.4027  0.1883 -0.1066
 5043W        W 9094   9.995   5.561   0.731 -0.0068  0.0840 -0.3015
 5044W        W 9095   8.579   8.062  10.852  0.2681 -0.5127 -0.0221
 5045W        W 9096   9.734   0.302  12.729  0.0866 -0.0569  0.2514
 5046W        W 9097   2.443   2.314   4.087 -0.1078 -0.1081 -0.2171
 5047W        W 9098   6.995   3.742   3.987  0.0492  0.0127 -0.1028
 5048W        W 9099   5.625   5.509   4.563  0.0395 -0.1402 -0.2145
 5049W        W 9100   6.652   3.665   1.952 -0.0021 -0.2972 -0.1585
 5050W        W 9101   6.666   9.981  13.614  0.2880  0.0451  0.0004
 5051W        W 9102   9.893   2.162  12.504 -0.0248  0.1526 -0.2563
 5052W        W 9103   1.968   4.179   9.660 -0.4920 -0.0996  0.0211
 5053W        W 9104   2.064   3.569   4.922  0.1694  0.0732  0.1276
 5054W        W 9105   2.831   4.384   4.503 -0.0493 -0.4003 -0.1378
 5055W        W 9106   3.957   3.934   2.136  0.1977  0.0610  0.1709
 5056W        W 9107   0.575   4.288   1.879  0.0050  0.3930  0.0177
 5057W        W 9108  10.100   1.311  11.012 -0.0957  0.1199 -0.1134
 5058W        W 9109   9.502   2.654   3.398  0.2933 -0.4177  0.0391
 5059W        W 9110   9.105   6.632  10.620 -0.4190  0.1339  0.1273
 5060W        W 9111   4.418   8.546   4.516  0.1002 -0.0523  0.0702
 5061W        W 9112   3.762   2.290  12.547 -0.1490  0.1739 -0.0446
 5062W        W 9113   3.728   5.239   1.763  0.1565 -0.0824 -0.3913
 5063W        W 9114   9.363   6.306  10.335 -0.0357  0.3613 -0.0080
 5064W        W 9115   8.957   9.809   1.773  0.3362 -0.0043  0.2631
 5065W        W 9116   9.475   9.825   1.102 -0.1927 -0.1772 -0.0406
 5066W        W 9117   1.340   1.622   2.857 -0.1939 -0.0995 -0.2385
 5067W        W 9118   3.170   5.337   2.964 -0.1292  0.0838 -0.1212
 5068W        W 9119   3.577   1.210   0.224  0.1552 -0.1029  0.2133
 5069W        W 9120   5.526   6.319  13.197  0.0931 -0.0964 -0.1864
 5070W        W 9121   6.650   9.885   4.514 -0.1721  0.4562 -0.1172
 5071W        W 9122   6.831   4.504  13.643  0.0982 -0.0067 -0.2548
 5072W        W 9123   3.614   0.222   0.516 -0.1573  0.3032  0.1156
 5073W        W 9124   6.597   0.085   1.169  0.0782  0.2199 -0.0271
 5074W        W 9125   3.531   6.215   1.398  0.0945 -0.0941 -0.0032
 5075W        W 9126   8.681   5.140   0.283  0.0772  0.2733 -0.4189
 5076W        W 9127   5.532   7.304   1.131 -0.3105 -0.0029  0.0170
 5077W        W 9128   2.279   4.549  12.204 -0.1705  0.1012  0.0212
 5078W        W 9129   9.995   8.652   2.751 -0.1464 -0.1151 -0.0276
 5079W        W 9130   2.098   7.774   3.290  0.0624  0.2859  0.0616
 5080W        W 9131   7.294   3.503  12.007 -0.1785  0.3766 -0.1261
 5081W        W 9132   2.742   9.061  10.675  0.0226 -0.1474  0.1051
 5082W        W 9133   9.713   0.680  10.983  0.0192  0.0429 -0.1562
 5083W        W 9134   9.682   2.063   0.215 -0.1802 -0.0975  0.2540
 5084W        W 9135   8.889   1.739   1.823 -0.1739 -0.0402  0.0217
 5085W        W 9136   1.352   7.048  13.707 -0.3794 -0.0398 -0.3564
 5086W        W 9137   4.980   9.637  11.878 -0.2230  0.3669  0.2139
 5087W        W 9138   0.386   1.491  13.507 -0.0325 -0.0661 -0.0242
 5088W        W 9139   8.787   3.390  13.179 -0.2754  0.1827  0.1635
 5089W        W 9140   3.577   3.071   9.822 -0.0401 -0.2317  0.0006
 5090W        W 9141   7.529   5.653  13.454 -0.0971 -0.4333  0.1096
 5091W        W 9142   0.393   5.109  10.854  0.0551 -0.4185  0.1236
 5092W        W 9143   5.482   9.921  11.128 -0.0706  0.0549 -0.1839
 5093W        W 9144   2.267   2.409  11.558 -0.1388  0.0287  0.0730
 5094W        W 9145   9.996   5.332  13.977 -0.0318  0.4927 -0.2341
 5095W        W 9146   0.414   7.303   2.598 -0.1444 -0.2033 -0.1059
 5096W        W 9147   2.469   8.156  12.090 -0.0310 -0.1924  0.0991
 5097W        W 9148   9.755   2.653  10.549  0.1032  0.4896  0.0489
 5098W        W 9149   1.866   0.413   1.446 -0.1676  0.1188  0.2747
 5099W        W 9150   3.050   7.722  13.255  0.2029 -0.3508 -0.3128
 5100W        W 9151   9.492   0.485   2.979  0.1805 -0.1316 -0.0220
 5101W        W 9152   7.324   6.501  11.660 -0.1490 -0.2114 -0.1169
 5102W        W 9153   0.340   7.898  10.567 -0.0148 -0.5109  0.1214
 5103W        W 9154   5.262   4.044   2.212  0.2823 -0.0869 -0.0112
 5104W        W 9155   3.784   4.162   3.078 -0.0425  0.1021 -0.1422
 5105W        W 9156   7.311   2.769   2.483  0.3809  0.2444  0.0905
 5106W        W 9157   8.345   9.965  13.351  0.0654 -0.0377  0.0155
 5107W        W 9158   1.600   5.998   1.966 -0.2179 -0.2531 -0.6202
 5108W        W 9159   1.942   3.911   3.121  0.1392  0.1010  0.0200
 5109W        W 9160   0.139   8.021  12.931  0.0677  0.1011 -0.3386
 5110W        W 9161   4.269   1.905   3.223  0.1857 -0.3182  0.1909
 5111W        W 9162   2.368   1.934   5.398 -0.1369  0.4199 -0.3343
 5112W        W 9163   4.003   5.060  12.414  0.1366  0.0379 -0.3838
 5113W        W 9164   6.661  10.141   2.721 -0.0060 -0.1609  0.1583
 5114W        W 9165   4.016   2.054  11.322  0.0650 -0.0400 -0.0080
 5115W        W 9166   6.152   3.812   3.020  0.2185 -0.0506 -0.3540
 5116W        W 9167   7.031   7.627   2.935 -0.0195  0.3956 -0.0345
 5117W        W 9168   5.805   7.880   0.770  0.0846 -0.2787 -0.2089
 5118W        W 9169   2.364   7.792  12.414 -0.0217 -0.3752 -0.0394
 5119W        W 9170   9.418   7.602   3.035  0.2289  0.0780 -0.2495
 5120W        W 9171   5.112  10.035  13.273  0.1286  0.0364 -0.2531
 5121W        W 9172   1.738   0.150  11.405  0.2261  0.0278  0.1726
 5122W        W 9173   1.287   2.134   1.679  0.0991  0.0031 -0.0960
 5123W        W 9174   4.348   4.645  13.607 -0.1490  0.1968 -0.1994
 5124W        W 9175   7.123   3.004  13.870  0.0099 -0.2831  0.3884
 5125W        W 9176   3.036   7.537  10.888  0.2377 -0.0724  0.1761
 5126W        W 9177   5.841   2.027  11.211  0.2197  0.0321 -0.0932
 5127W        W 9178   1.814   9.197   1.352 -0.0298 -0.1464  0.1576
 5128W        W 9179   9.356   9.644   0.251 -0.1327 -0.0793  0.2566
 5129W        W 9180   4.804   5.400   3.921 -0.0589  0.0451  0.1284
 5130W        W 9181   2.554   2.281  10.326  0.0097  0.1337 -0.1526
 5131W        W 9182   4.980   5.980   3.456 -0.0446  0.0335  0.1555
 5132W        W 9183   7.284   8.155   0.073 -0.3208 -0.1784  0.2726
 5133W        W 9184   0.404   4.312  10.846  0.1287 -0.0437  0.0168
 5134W        W 9185   7.522   1.294   1.402  0.0949 -0.4237  0.1230
 5135W        W 9186   2.209   6.728  10.869 -0.1363  0.1685  0.2557
 5136W        W 9187   1.683   5.969   3.960  0.0728  0.0001 -0.0705
 5137W        W 9188   6.348   3.078   3.481  0.0534  0.0170 -0.3360
 5138W        W 9189   6.464   2.122   3.828  0.1042 -0.2121 -0.1789
 5139W        W 9190   7.870   4.703   9.159 -0.0521 -0.3268  0.1809
 5140W        W 9191   9.246   0.052  13.447  0.2516 -0.0969  0.0584
 5141W        W 9192   9.749   9.060   2.039  0.1547  0.0769 -0.1765
 5142W        W 9193   9.105   6.364   9.456 -0.1198  0.1498  0.1824
 5143W        W 9194   0.238   4.297  12.534 -0.0918  0.3402  0.0800
 5144W        W 9195   3.481   1.856   9.964 -0.1531 -0.0418 -0.0880
 5145W        W 9196   6.967   8.672  12.156 -0.0338  0.2440  0.1016
 5146W        W 9197   8.421   8.941   0.991  0.1387  0.0084  0.4045
 5147W        W 9198   8.919   0.787  11.609  0.0547 -0.0785  0.0901
 5148W        W 9199   6.740   5.198   3.799 -0.0073  0.0789  0.1763
 5149W        W 9200   9.713   7.301  12.973 -0.0709  0.0441  0.0436
 5150W        W 9201   1.482   9.067  12.111  0.0201 -0.2391 -0.0057
 5151W        W 9202   8.441   9.759   1.652  0.2954 -0.1836  0.2771
 5152W        W 9203   1.185   3.239  13.546 -0.0281  0.1199 -0.1599
 5153W        W 9204   5.136   5.610  12.577  0.1055 -0.2575  0.0642
 5154W        W 9205   5.286   1.783  11.920  0.4875 -0.0625 -0.1893
 5155W        W 9206   8.306   2.472   1.889  0.0395 -0.0309  0.2697
 5156W        W 9207   4.698   1.418   0.086  0.2736  0.1901 -0.1998
 5157W        W 9208   0.605   4.535   0.206 -0.2046  0.1009 -0.2086
 5158W        W 9209   0.217   0.101  13.122 -0.0739 -0.1528  0.2312
 5159W        W 9210   7.933   5.941   1.692 -0.2253  0.2597 -0.0423
 5160W        W 9211   1.338   8.229  13.574 -0.1354  0.0788  0.0307
 5161W        W 9212   9.698   5.798  11.614 -0.1431  0.0155  0.0069
 5162W        W 9213   1.428   0.283  12.520 -0.0543  0.1816  0.2195
 5163W        W 9214   0.414   0.336  11.096  0.0650 -0.0550 -0.3454
 5164W        W 9215   8.815   0.887  10.048 -0.1281  0.2308 -0.0492
 5165W        W 9216   4.640   6.288   0.649 -0.2998 -0.0784 -0.5307
 5166W        W 9217   6.300   5.107   1.052 -0.1982 -0.1716 -0.2590
 5167W        W 9218   1.926   5.765   2.487 -0.0209  0.1489 -0.0863
 5168W        W 9219   7.621  10.111   1.594 -0.2050 -0.1043 -0.1580
 5169W        W 9220   3.977   2.465  11.542  0.3132  0.0541  0.0379
 5170W        W 9221   7.837   3.404   3.051  0.1193  0.0844 -0.0591
 5171W        W 9222   4.718   8.343  11.374 -0.0264  0.0002  0.1145
 5172W        W 9223   3.703   4.098   0.094  0.1942  0.1593  0.0592
 5173W        W 9224   5.516   3.083   3.902  0.1181  0.0981  0.0972
 5174W        W 9225   4.497   3.795   0.426 -0.2741 -0.1160  0.1805
 5175W        W 9226   9.148   0.215  12.704 -0.1015  0.2623  0.2446
 5176W        W 9227   8.675   2.437   0.036 -0.1282  0.0675 -0.0490
 5177W        W 9228   9.214   4.746   0.163  0.5680  0.2109  0.3108
 5178W        W 9229   3.185   6.381  13.307 -0.2976 -0.1588  0.1930
 5179W        W 9230   5.404   5.386   2.802  0.4533 -0.3760 -0.0619
 5180W        W 9231   5.082   1.689   4.595 -0.3381 -0.1208  0.0167
 5181W        W 9232   9.265   7.961   0.924 -0.0259 -0.0999  0.0078
 5182W        W 9233   2.350   6.118   2.603  0.0784 -0.0169 -0.2673
 5183W        W 9234   7.791   1.995   2.056 -0.1895 -0.1459  0.3378
 5184W        W 9235   7.119   6.075   2.130  0.3173 -0.1542 -0.0605
 5185W        W 9236   6.137   6.138  11.184  0.2807 -0.3207 -0.1668
 5186W        W 9237   4.979   8.940  11.992 -0.1385  0.1279  0.0191
 5187W        W 9238   8.316   9.395  14.077  0.0331  0.1186 -0.0033
 5188W        W 9239   7.711   9.109  13.305  0.1720 -0.1701  0.2545
 5189W        W 9240   2.045   2.002  11.364 -0.1821 -0.0328  0.0040
 5190W        W 9241   8.764   7.967   0.960  0.1613 -0.2491 -0.0334
 5191W        W 9242   9.130   1.540   3.010  0.2030 -0.0471 -0.2674
 5192W        W 9243   1.720   3.662   1.975 -0.2488  0.1374 -0.3194
 5193W        W 9244   1.462   1.864  10.590  0.2273  0.2223  0.0590
 5194W        W 9245   5.054   8.983   3.444 -0.1194  0.2963 -0.1958
 5195W        W 9246   8.223   1.416  11.710 -0.1420  0.0265  0.1365
 5196W        W 9247   6.734   3.241  14.024 -0.0170 -0.3222 -0.1675
 5197W        W 9248   7.747   9.919  11.070  0.1064  0.1308 -0.0203
 5198W        W 9249   0.804   3.488  13.701  0.0629 -0.1109  0.1681
 5199W        W 9250   5.230   5.889   2.712  0.3035 -0.0376  0.1394
 5200W        W 9251   6.853   6.739   3.771 -0.1585  0.1496 -0.1401
 5201W        W 9252   8.799   1.481  10.579 -0.0761 -0.2704  0.2544
 5202W        W 9253   1.768   8.089  13.873 -0.3470  0.0807 -0.0634
 5203W        W 9254   2.324   1.416   5.014 -0.0507 -0.2115 -0.1146
 5204W        W 9255   0.773   4.882   2.651  0.0423 -0.0406 -0.1973
 5205W        W 9256   5.618   8.229   2.311 -0.2450 -0.2778 -0.2544
 5206W        W 9257   7.924   1.057  10.371  0.1201  0.1464  0.3191
 5207W        W 9258   4.639   5.660   3.454 -0.0140  0.2709  0.0925
 5208W        W 9259   7.529   1.205  13.108 -0.2231  0.0102  0.0186
 5209W        W 9260   3.572   7.467  10.448 -0.1225 -0.1335 -0.0110
 5210W        W 9261   2.194   7.181   4.667 -0.1673  0.0691  0.1545
 5211W        W 9262   4.812   0.405   3.537  0.1443  0.1502  0.1283
 5212W        W 9263   9.846   2.932   2.152  0.1352 -0.1886  0.4420
 5213W        W 9264   1.220   5.972  11.740  0.0836 -0.3519 -0.0578
 5214W        W 9265   1.679   2.431   2.435  0.0049  0.0207 -0.3719
 5215W        W 9266  10.013   8.643   2.227  0.0470 -0.3210  0.1155
 5216W        W 9267   1.678   8.931   0.968 -0.0529 -0.0081 -0.1289
 5217W        W 9268   9.210   9.474  12.636 -0.0868  0.0294  0.2015
 5218W        W 9269  10.029   9.197   2.917  0.0784 -0.1377  0.2207
 5219W        W 9270   9.360   0.331  10.929  0.3945  0.0591  0.2255
 5220W        W 9271   9.092   7.474   1.307 -0.3856 -0.0275  0.0102
 5221W        W 9272   1.136   8.757  12.347 -0.0865  0.3431  0.2082
 5222W        W 9273   6.288   1.625   3.906 -0.0415 -0.0990 -0.3812
 5223W        W 9274   2.992   4.926   3.512 -0.0961 -0.0554  0.0359
 5224W        W 9275   1.991   0.874   1.425 -0.3845  0.2308 -0.2807
 5225W        W 9276   0.850   8.396  12.210 -0.0869 -0.1561  0.1870
 5226W        W 9277   4.195   8.512   0.688  0.1542  0.2335 -0.1690
 5227W        W 9278   8.861   8.010   2.381 -0.0198 -0.0661 -0.2135
 5228W        W 9279   0.572   6.328  11.104 -0.0399  0.4009 -0.0540
 5229W        W 9280   0.326   5.795   4.781  0.1655 -0.0250 -0.1983
 5230W        W 9281   2.647   9.570  11.889  0.1203  0.0419 -0.0795
 5231W        W 9282   7.559   7.673   0.993 -0.2040  0.0705 -0.1244
 5232W        W 9283   2.757   8.343   0.545  0.3630 -0.0570 -0.0711
 5233W        W 9284   3.367   5.287   5.150 -0.0757  0.1003 -0.2740
 5234W        W 9285   4.823   3.356  10.066  0.0409 -0.0249  0.2043
 5235W        W 9286   6.270   6.301   0.659  0.1062  0.2975  0.2475
 5236W        W 9287   5.088   1.449  11.655  0.3438  0.0557  0.0830
 5237W        W 9288   9.907   2.622  11.962  0.1776  0.2731 -0.0022
 5238W        W 9289   6.599   7.052  11.669 -0.0718 -0.3292  0.3470
 5239W        W 9290   9.497   8.810  11.460  0.0239 -0.1005 -0.0873
 5240W        W 9291   3.645   2.890  11.625 -0.3045  0.2021  0.0520
 5241W        W 9292   3.807   0.299  13.518  0.2037 -0.3904  0.0277
 5242W        W 9293   4.830   9.697  13.543 -0.0974  0.1674 -0.0534
 5243W        W 9294   8.847  10.051   2.339  0.3535  0.2783 -0.0006
 5244W        W 9295   7.918   6.799  13.827 -0.0138  0.1809  0.1848
 5245W        W 9296   7.234   8.639  11.679  0.3299  0.0112 -0.0022
 5246W        W 9297   2.076   0.718   0.747  0.4365  0.1496 -0.2013
 5247W        W 9298   8.001   1.434   0.110 -0.2500 -0.0322 -0.0345
 5248W        W 9299   9.963   3.457   2.256 -0.2765  0.0624 -0.2269
 5249W        W 9300   0.909   1.161  13.925  0.0231 -0.0167  0.0566
 5250W        W 9301   3.972   0.371  11.975  0.0176  0.1781  0.1548
 5251W        W 9302   2.035   1.857   3.069 -0.4474  0.0640  0.2991
 5252W        W 9303   5.581   3.260  11.046  0.0137  0.0952 -0.1024
 5253W        W 9304   8.911   6.940  11.995  0.0826  0.2002  0.2689
 5254W        W 9305   4.315   5.708   9.581  0.1755 -0.0177  0.3461
 5255W        W 9306   8.636   4.267   3.671  0.0319 -0.1125 -0.0031
 5256W        W 9307   4.951   2.845  12.485  0.4026  0.1347  0.2481
 5257W        W 9308   8.943   2.896   3.419 -0.0825  0.0966 -0.0904
 5258W        W 9309   6.664   4.531   9.742 -0.2669  0.1774 -0.1338
 5259W        W 9310   7.296   9.629   1.415  0.1931 -0.0396 -0.2420
 5260W        W 9311   3.661   2.165   9.578 -0.3609  0.1569  0.0325
 5261W        W 9312   8.203   3.032   9.951  0.0027  0.4040 -0.0363
 5262W        W 9313   0.457   8.278  10.864 -0.2393 -0.1148  0.0116
 5263W        W 9314   5.714   4.541   2.797  0.2006 -0.0310  0.0648
 5264W        W 9315   1.484   4.311   9.861 -0.1917 -0.0566 -0.4002
 5265W        W 9316   4.422   1.842  11.068 -0.0726  0.1036 -0.0128
 5266W        W 9317   5.038   9.695   3.430 -0.1699  0.1396 -0.0114
 5267W        W 9318   6.741   4.561   2.993 -0.3288  0.2712 -0.0108
 5268W        W 9319   6.042   8.606  10.359 -0.2193  0.0691 -0.2247
 5269W        W 9320   5.354   4.419   1.350  0.0271  0.1100  0.0049
 5270W        W 9321   5.149   3.738   1.734 -0.0399 -0.1739  0.2479
 5271W        W 9322   2.384   9.529   4.106 -0.0032 -0.2321  0.1329
 5272W        W 9323   7.438   2.591   9.649  0.3960  0.2135  0.1302
 5273W        W 9324   0.763   1.525  12.070 -0.0501  0.1070 -0.1679
 5274W        W 9325   6.896   6.068   0.018  0.0808 -0.2012 -0.0129
 5275W        W 9326   6.958   2.262   0.049  0.3373  0.2721 -0.1533
 5276W        W 9327   0.679   0.363   0.789  0.1837  0.0149 -0.0674
 5277W        W 9328   6.640   5.113  11.814  0.2059 -0.2202  0.1151
 5278W        W 9329   2.947   6.508   2.841 -0.1437 -0.0549 -0.1382
 5279W        W 9330   0.959   2.142  12.340 -0.1127 -0.0546 -0.1387
 5280W        W 9331   5.204   6.171  13.566 -0.2606  0.0664  0.0993
 5281W        W 9332   7.666   0.883  13.451 -0.0841  0.2641 -0.1581
 5282W        W 9333   9.587   9.190   0.212  0.2225 -0.0091 -0.2449
 5283W        W 9334   3.742   5.920   2.393 -0.5025  0.0095 -0.1175
 5284W        W 9335   2.444   5.636   1.959  0.2905 -0.3187 -0.0731
 5285W        W 9336   2.079   0.232   2.651  0.0799 -0.2230  0.0727
 5286W        W 9337   8.683   5.983   0.318  0.1548  0.1586  0.1768
 5287W        W 9338   6.638   2.839   0.399  0.1605  0.3394 -0.0825
 5288W        W 9339   6.387   9.787   4.118 -0.1128  0.3781  0.1328
 5289W        W 9340   3.870   7.563  13.718 -0.1420  0.0078 -0.0665
 5290W        W 9341   8.873   1.401   0.229  0.0011  0.4226  0.0361
 5291W        W 9342   2.156   7.371   1.781  0.1270 -0.0836 -0.2146
 5292W        W 9343   0.439  10.154   2.881 -0.4672 -0.2338  0.2443
 5293W        W 9344   3.750   5.531  13.617 -0.4303  0.1181 -0.0626
 5294W        W 9345   9.550  10.129   0.114  0.2330  0.1589 -0.1465
 5295W        W 9346   2.412   5.925  13.429  0.0718 -0.0379  0.0919
 5296W        W 9347   8.741   6.358   1.729  0.1385  0.2270 -0.1515
 5297W        W 9348   6.305   1.635  13.200 -0.2427  0.0010  0.0903
 5298W        W 9349   0.065   3.684   9.809 -0.4500  0.2423 -0.1852
 5299W        W 9350   4.934   5.420   0.536  0.0258  0.1085 -0.1107
 5300W        W 9351   8.302   8.367   3.188  0.0924  0.1543  0.1824
 5301W        W 9352   8.564   7.113  11.597  0.1835 -0.2341  0.0042
 5302W        W 9353   1.060   3.098  11.201 -0.1133  0.0347 -0.0464
 5303W        W 9354   1.733   2.030  12.938  0.1154  0.0562  0.0340
 5304W        W 9355   8.371   9.806   0.278  0.2763  0.2442  0.2110
 5305W        W 9356   9.423   7.766  12.899  0.0805 -0.1213  0.1075
 5306W        W 9357   3.973   6.776  10.063 -0.1653 -0.0226  0.3099
 5307W        W 9358   0.267   2.365   0.037 -0.0035 -0.1246  0.0571
 5308W        W 9359   8.104   7.327   1.711  0.0496 -0.0066 -0.2231
 5309W        W 9360   2.795   7.995   2.591 -0.0208  0.0066 -0.0295
 5310W        W 9361   3.703   4.578   3.906 -0.0070 -0.1236 -0.0741
 5311W        W 9362   3.645   3.138   2.186  0.0398 -0.2833 -0.2558
 5312W        W 9363   7.648   9.798   2.593  0.1946 -0.0163  0.1209
 5313W        W 9364   8.293   5.190  10.331 -0.0183 -0.1037 -0.0915
 5314W        W 9365   9.944   3.341  11.107 -0.0410  0.0135 -0.0984
 5315W        W 9366   8.957   9.263   1.777 -0.1679  0.0121 -0.0572
 5316W        W 9367   3.605   4.274  13.730  0.1018 -0.0850 -0.1483
 5317W        W 9368   2.103   2.972   5.797  0.2445  0.1839  0.1601
 5318W        W 9369   9.236   2.441  10.726 -0.1350 -0.2960 -0.1146
 5319W        W 9370   3.546   3.661   2.203  0.2350  0.0334 -0.1760
 5320W        W 9371   9.869   2.430   9.680  0.1779  0.1454 -0.0532
 5321W        W 9372   0.022   2.254  11.075  0.1130  0.1349 -0.1014
 5322W        W 9373   8.731   9.137   4.294 -0.0327  0.4224  0.0955
 5323W        W 9374   2.309   3.548   9.822 -0.0180 -0.3581 -0.0229
 5324W        W 9375   1.086   6.429  11.351  0.1979  0.1489  0.0199
 5325W        W 9376   5.050   4.100  13.845  0.2796 -0.3056 -0.1180
 5326W        W 9377   4.416   8.706   1.098  0.0262  0.0180  0.1797
 5327W        W 9378   3.687   4.283  12.681  0.0511  0.2703  0.3092
 5328W        W 9379   7.962   5.518  11.187 -0.2445  0.0333 -0.1306
 5329W        W 9380   7.053   5.627  11.557  0.1485  0.1442  0.0879
 5330W        W 9381   7.243   3.002   0.721  0.0663  0.0989 -0.1044
 5331W        W 9382   3.255   4.145   4.836 -0.2927 -0.3897 -0.2763
 5332W        W 9383   6.253   0.295  13.816  0.0543  0.3541  0.1279
 5333W        W 9384   6.629   5.066   9.734 -0.0305 -0.1948  0.0311
 5334W        W 9385   4.164   5.860  12.843  0.3309  0.1992 -0.1550
 5335W        W 9386   4.040   9.229   0.082  0.2384  0.2658  0.1071
 5336W        W 9387   2.374   1.554   9.468  0.0878 -0.4778  0.0088
 5337W        W 9388   2.405   5.732  11.372  0.2303  0.0553 -0.0672
 5338W        W 9389   3.616   6.904  13.050  0.0080  0.3482  0.0835
 5339W        W 9390   7.393   1.280   1.851  0.1979 -0.2194 -0.0290
 5340W        W 9391   6.999   8.810  11.090  0.1213  0.1134  0.0032
 5341W        W 9392   4.387   0.179  11.675  0.1589 -0.0783  0.2034
 5342W        W 9393   2.101   2.576   3.229  0.2056  0.2517  0.1746
 5343W        W 9394   9.258   3.952  10.376 -0.0176 -0.3577 -0.3966
 5344W        W 9395   0.125   4.915   2.318 -0.0266 -0.1270  0.0961
 5345W        W 9396  10.039   5.738  12.730  0.0552  0.0766 -0.0532
 5346W        W 9397   2.648   5.271   0.068 -0.3425 -0.0037 -0.1215
 5347W        W 9398   9.544   9.574   2.166 -0.3240  0.0021 -0.0778
 5348W        W 9399   0.662   0.546  12.812 -0.1268  0.1395 -0.3142
 5349W        W 9400   6.943   2.157   4.471  0.0070 -0.0122  0.0327
 5350W        W 9401   3.702   5.113  11.589 -0.0056 -0.0557 -0.4012
 5351W        W 9402   7.032   6.086   9.474 -0.2343 -0.1795 -0.2041
 5352W        W 9403   9.948   3.483  13.622  0.1018  0.0203 -0.1596
 5353W        W 9404   7.075   4.383  12.918 -0.1075  0.2648 -0.0671
 5354W        W 9405   3.385   8.119   0.305 -0.0635 -0.1076 -0.2241
 5355W        W 9406   2.610   0.354   3.455  0.1310  0.1020 -0.0741
 5356W        W 9407   4.453   7.689   1.034 -0.1390  0.2985  0.1522
 5357W        W 9408   5.031   4.470   0.119  0.3142 -0.2052 -0.1718
 5358W        W 9409   2.717   6.849  11.622 -0.3171 -0.1688 -0.2555
 5359W        W 9410   7.422   7.282  12.062 -0.1524  0.2114 -0.0251
 5360W        W 9411   1.701   8.414   1.847 -0.0086 -0.0026  0.2731
 5361W        W 9412   2.802   9.179   1.681  0.2786  0.1759 -0.1933
 5362W        W 9413   2.529   3.832   5.297 -0.0800  0.2933  0.1974
 5363W        W 9414   7.859   3.978  11.506  0.0981 -0.2344 -0.0563
 5364W        W 9415   3.252   6.800   1.551  0.1774  0.0280  0.0535
 5365W        W 9416   9.595   4.747  12.917  0.0238  0.2367 -0.1799
 5366W        W 9417   4.527   6.478   9.219 -0.1916 -0.3432 -0.0417
 5367W        W 9418   1.318   7.157  11.809  0.1753  0.1364  0.2550
 5368W        W 9419   7.986   0.882   2.131  0.3387  0.1935  0.1418
 5369W        W 9420   0.728   8.287   5.307 -0.2180 -0.0036  0.2407
 5370W        W 9421   0.493   3.592   2.925  0.0072 -0.1265  0.0073
 5371W        W 9422   9.230   5.031  12.749  0.2033 -0.0729 -0.2986
 5372W        W 9423   0.976   4.683  10.132  0.2401  0.3427  0.2589
 5373W        W 9424   8.546   2.843   2.059  0.2177 -0.1578 -0.0075
 5374W        W 9425   6.194   4.544   9.652  0.0130 -0.0657  0.1480
 5375W        W 9426   9.122   1.271  12.683 -0.3304 -0.1469 -0.0513
 5376W        W 9427   2.337   6.463   4.657 -0.2067  0.0917 -0.0543
 5377W        W 9428   3.688   7.672  12.602 -0.1862 -0.1190  0.0232
 5378W        W 9429   1.510   3.037   3.049 -0.3298 -0.1387  0.1688
 5379W        W 9430   1.092   5.916   9.891  0.1112 -0.0146 -0.1135
 5380W        W 9431   0.713   2.110  14.052 -0.0578  0.0923  0.1386
 5381W        W 9432   7.968   2.817   2.241  0.0296 -0.0338 -0.1888
 5382W        W 9433  10.022   7.328   2.053  0.2376  0.0508  0.0874
 5383W        W 9434   5.538   3.611  12.273  0.2029 -0.3049  0.0515
 5384W        W 9435   3.757   0.796  13.429 -0.0089 -0.0632  0.2958
 5385W        W 9436   3.757   0.590   2.936 -0.2119  0.0240  0.0536
 5386W        W 9437   2.246   2.526   2.523  0.3921 -0.1554 -0.0285
 5387W        W 9438   0.709   1.794  13.219 -0.0231 -0.3033 -0.1150
 5388W        W 9439   7.556   9.201   1.360 -0.0349 -0.0373 -0.3224
 5389W        W 9440   9.664   8.017  13.555  0.1494 -0.0550  0.1670
 5390W        W 9441   2.023   6.374   1.040 -0.3316 -0.0537  0.1463
 5391W        W 9442   6.638   7.537   0.528 -0.1439  0.0489 -0.1946
 5392W        W 9443   1.484   9.536   9.512 -0.1787  0.1923  0.1979
 5393W        W 9444   0.113   9.399  10.658 -0.1754  0.0053 -0.1441
 5394W        W 9445   9.913  10.113   1.286  0.1602  0.1677  0.1341
 5395W        W 9446   2.506   5.153  10.524 -0.1144  0.0689 -0.0500
 5396W        W 9447   5.448   3.418   0.991  0.3352 -0.2209  0.0016
 5397W        W 9448   8.376  10.048   2.479  0.0478  0.3441  0.1630
 5398W        W 9449   0.754   7.359  11.025 -0.3016  0.1484 -0.3734
 5399W        W 9450   4.082   3.584   4.558  0.0483 -0.1321 -0.1605
 5400W        W 9451   4.521   4.348   1.215  0.2377  0.0565  0.2213
 5401W        W 9452   6.763   0.923  13.633 -0.0267 -0.0023 -0.1434
 5402W        W 9453   1.801   1.646  10.207 -0.1669  0.0536 -0.0716
 5403W        W 9454   6.189   9.578  11.293  0.0979 -0.1455  0.1786
 5404W        W 9455   4.691   8.530   2.704 -0.3326  0.1385  0.0838
 5405W        W 9456   7.961   1.779   3.595 -0.0437  0.1260  0.1315
 5406W        W 9457   6.344   7.912  12.255 -0.1620 -0.1378  0.0569
 5407W        W 9458   4.861   6.896   0.355  0.2802 -0.1096  0.1448
 5408W        W 9459   5.148   1.188  10.382  0.0823 -0.2414 -0.0383
 5409W        W 9460   8.783   7.207   1.588 -0.1264 -0.0415  0.1246
 5410W        W 9461   6.934   4.971   3.336  0.3747 -0.0050 -0.0650
 5411W        W 9462   3.656   4.776   0.524  0.2456 -0.0789  0.0524
 5412W        W 9463   4.990   5.935   0.467  0.2341  0.2858 -0.0949
 5413W        W 9464   7.503   8.764   6.111 -0.3311 -0.2206  0.0838
 5414W        W 9465   7.931   4.268  12.633 -0.1043 -0.1449 -0.1751
 5415W        W 9466   5.726   7.268  11.832 -0.2136 -0.0388 -0.3264
 5416W        W 9467   2.053   9.733   5.500  0.0363  0.2847  0.2738
 5417W        W 9468   5.750   4.477  13.143  0.2060 -0.0486  0.2501
 5418W        W 9469   3.163   2.684   5.069  0.1885 -0.2016 -0.0637
 5419W        W 9470   1.054   9.173  12.654  0.0079  0.0086  0.0964
 5420W        W 9471   7.318   7.937  13.483  0.0624 -0.0565 -0.1314
 5421W        W 9472   9.610   2.218  12.033  0.1759  0.2273  0.1018
 5422W        W 9473   2.098   0.384   5.028  0.0998 -0.2151 -0.1793
 5423W        W 9474   3.321   5.263  13.715  0.0992 -0.0465 -0.1708
 5424W        W 9475   0.380   9.020   3.005 -0.1610  0.1083 -0.1270
 5425W        W 9476   4.158   3.566  12.806  0.1898 -0.0184 -0.3177
 5426W        W 9477   3.567   3.797  12.002  0.3508 -0.0049 -0.0517
 5427W        W 9478   8.214   7.695   2.101  0.1902 -0.0258 -0.2763
 5428W        W 9479   7.708   2.939  11.968 -0.2683 -0.2004 -0.1561
 5429W        W 9480   8.477   8.671  12.969  0.0162 -0.2561  0.0203
 5430W        W 9481   1.283   5.090   1.889  0.2297 -0.1750  0.3407
 5431W        W 9482   1.679   4.221  13.419  0.2402  0.0755 -0.3568
 5432W        W 9483   7.585   1.177  14.041 -0.0241  0.1151 -0.0563
 5433W        W 9484   6.461   3.112   2.371 -0.0784 -0.0407 -0.2954
 5434W        W 9485   4.970   3.605   0.145 -0.0264  0.1091 -0.1659
 5435W        W 9486   2.037   8.864   0.626 -0.2216  0.1806  0.2362
 5436W        W 9487   4.946   4.103  10.278 -0.4065 -0.3304  0.0016
 5437W        W 9488   1.428   8.929   0.012 -0.0003 -0.0003  0.2020
 5438W        W 9489   2.400   9.401  12.996  0.2323 -0.1017 -0.3371
 5439W        W 9490   1.747   4.871  14.050 -0.0500 -0.0370  0.1685
 5440W        W 9491   4.111   6.312   4.426  0.2012 -0.1822  0.5506
 5441W        W 9492   8.786   4.826  12.596 -0.1510  0.0744 -0.2309
 5442W        W 9493   2.505   7.810   3.539  0.1418  0.1316 -0.4727
 5443W        W 9494   9.596   7.488   1.329 -0.2402  0.0982  0.3761
 5444W        W 9495   4.749   6.901   2.945  0.5910  0.0967 -0.2064
 5445W        W 9496   3.735   9.109   2.060 -0.0095 -0.0632 -0.2259
 5446W        W 9497   8.296   7.436  12.225 -0.1544 -0.0600  0.0045
 5447W        W 9498   5.483   2.816   1.208 -0.1650 -0.0105 -0.0410
 5448W        W 9499   3.616   8.590  10.724 -0.1259 -0.3499 -0.0389
 5449W        W 9500   7.043   1.399   9.550  0.0053 -0.1339 -0.1487
 5450W        W 9501   9.726   3.512   3.826  0.1916  0.3599  0.2470
 5451W        W 9502   0.221   7.393  11.966 -0.0047  0.1137  0.2314
 5452W        W 9503   8.981   9.527   4.124  0.0822  0.1392 -0.0896
 5453W        W 9504   6.796   1.840   2.457 -0.0029  0.0042 -0.1346
 5454W        W 9505   1.588   2.579   3.148 -0.0320 -0.0731  0.1317
 5455W        W 9506   9.984   2.419   3.843  0.0348 -0.1809  0.3076
 5456W        W 9507   1.197   6.679   3.299  0.1357 -0.2803 -0.1140
 5457W        W 9508   6.265   4.851   2.011 -0.1126  0.0758  0.1557
 5458W        W 9509   9.704   9.855   4.993 -0.0234 -0.0184  0.1326
 5459W        W 9510   5.339   4.755   3.105 -0.1346 -0.2764  0.1782
 5460W        W 9511   0.030   8.908   1.511  0.0301  0.1918 -0.0202
 5461W        W 9512   5.649   4.765   3.875 -0.3094 -0.0677  0.1372
 5462W        W 9513   8.527   8.929  13.371 -0.2792 -0.3758 -0.2828
 5463W        W 9514   6.349   4.985   4.040  0.0536 -0.0475  0.4936
 5464W        W 9515   6.236   8.541  13.713 -0.0657  0.1586  0.2307
 5465W        W 9516   1.046   8.339   3.343  0.0092  0.2379  0.4511
 5466W        W 9517   7.944   9.906   0.038 -0.0212  0.0825 -0.2677
 5467W        W 9518  10.000   1.214  13.709 -0.3660  0.0519 -0.0414
 5468W        W 9519   3.699   8.935  13.228  0.0366  0.4413  0.3248
 5469W        W 9520   6.397   4.345  13.442 -0.0819 -0.0185 -0.2663
 5470W        W 9521   5.407   9.902  11.694 -0.1715  0.2230 -0.1848
 5471W        W 9522   5.490   6.213   1.728 -0.0147  0.0211  0.2048
 5472W        W 9523   8.733   3.640   2.938  0.1583  0.0549 -0.0885
 5473W        W 9524   3.137   5.540  12.603  0.1341 -0.0874  0.1332
 5474W        W 9525   5.864   7.252  12.762 -0.2777  0.3825  0.3094
 5475W        W 9526   3.806   2.712   9.441 -0.0953 -0.1616 -0.2972
 5476W        W 9527   0.310   0.077   9.726  0.1321  0.0382  0.1416
 5477W        W 9528   0.340   1.678  10.144  0.1246 -0.1831  0.1896
 5478W        W 9529   1.323   7.734   0.674 -0.0550 -0.1027 -0.0493
 5479W        W 9530   5.829   7.938  12.302  0.0952 -0.3644 -0.0719
 5480W        W 9531   7.655   6.896   2.349  0.1980  0.2057  0.1243
 5481W        W 9532   2.684   2.956   9.061 -0.2828 -0.3048  0.2184
 5482W        W 9533   8.422   3.374  13.988 -0.1383 -0.1689  0.0776
 5483W        W 9534   1.482   4.903  12.739 -0.3931 -0.0699  0.1302
 5484W        W 9535   9.659   3.871  14.055 -0.2562  0.2818  0.2586
 5485W        W 9536   0.877   8.252  11.134  0.2246  0.0808  0.1267
 5486W        W 9537   8.210   1.298  12.538 -0.2130 -0.2658  0.3034
 5487W        W 9538   8.828   8.393   3.894 -0.1405  0.1777  0.1340
 5488W        W 9539   9.448   3.385  11.254  0.2272  0.0213  0.1750
 5489W        W 9540   8.339   2.302   0.348 -0.2779  0.1033  0.2778
 5490W        W 9541   4.555   9.294  12.359  0.0525  0.1999 -0.2865
 5491W        W 9542   3.462   9.584   0.451  0.0654 -0.2316 -0.0744
 5492W        W 9543   6.602   3.080   2.907 -0.0579  0.1175  0.1418
 5493W        W 9544   9.494   7.272   2.084 -0.1674  0.0548  0.1363
 5494W        W 9545   7.619   7.517   3.698 -0.3250  0.0929 -0.2219
 5495W        W 9546   3.836   5.695   2.991  0.0633 -0.1339  0.4593
 5496W        W 9547   4.254   7.634  13.337 -0.2222 -0.2763  0.5203
 5497W        W 9548   4.668   0.381   4.716 -0.3070 -0.4636 -0.0243
 5498W        W 9549   5.989   2.356   3.694  0.1547  0.2099  0.0485
 5499W        W 9550   7.197   7.575   1.306 -0.0357 -0.0925  0.0352
 5500W        W 9551   1.890   8.955   5.066  0.1207  0.1635  0.0097
 5501W        W 9552   8.883   1.038  10.894  0.1997  0.0583  0.2053
 5502W        W 9553   2.678   6.170   4.434 -0.0277  0.2127  0.4308
 5503W        W 9554   4.252   0.702   2.260  0.0578 -0.0373  0.1755
 5504W        W 9555   3.129   7.053  10.616 -0.0696 -0.0555  0.1500
 5505W        W 9556   3.670   3.335   2.769  0.0933  0.0096  0.0574
 5506W        W 9557   6.937   1.653  10.455 -0.2279  0.1673  0.0747
 5507W        W 9558   7.124   6.007   1.225 -0.0451  0.1146  0.0135
 5508W        W 9559   1.131   4.217  13.295  0.0239 -0.4000 -0.7435
 5509W        W 9560   8.750   6.026  11.824 -0.1711  0.1842  0.0299
 5510W        W 9561   3.148   8.370  10.654  0.2256  0.0840  0.0208
 5511W        W 9562   0.202   1.503   0.352  0.1188  0.0674  0.2688
 5512W        W 9563   2.339   2.438   4.740  0.3372 -0.1563  0.2536
 5513W        W 9564   4.262   0.455  13.173  0.0603  0.2403 -0.2070
 5514W        W 9565   4.709   3.283   3.527 -0.1941  0.0612 -0.0391
 5515W        W 9566   4.019   6.721  11.148  0.3718  0.1863 -0.0684
 5516W        W 9567   7.334   8.831  12.478  0.1407  0.0842  0.2421
 5517W        W 9568   9.964   7.519   0.127 -0.0321  0.0080  0.1970
 5518W        W 9569   3.649   4.242   0.585 -0.0320  0.2029  0.0792
 5519W        W 9570   8.629   5.933   9.574  0.0968  0.0380 -0.1732
 5520W        W 9571   1.127   9.315   2.181 -0.1449  0.1246  0.1947
 5521W        W 9572   2.260   4.003  10.057  0.0536 -0.1061 -0.0276
 5522W        W 9573   4.266   2.485   4.400 -0.1582 -0.0047 -0.1433
 5523W        W 9574   8.772   5.929   3.283  0.1265 -0.3940 -0.0917
 5524W        W 9575   0.940   6.293   3.458  0.2573 -0.0119  0.3026
 5525W        W 9576   7.856   5.573   1.317 -0.0787  0.3602  0.1800
 5526W        W 9577   4.225   8.586  10.702  0.0421  0.1382 -0.4559
 5527W        W 9578   8.421   7.996  12.617 -0.0735  0.1072 -0.2500
 5528W        W 9579   6.305   5.490   2.890  0.2502  0.0615 -0.0388
 5529W        W 9580   2.869   7.956  11.726 -0.0514  0.0133 -0.2174
 5530W        W 9581   0.601   7.369  12.386  0.1201 -0.0153 -0.1232
 5531W        W 9582   6.237   4.897  10.911 -0.0225  0.0841  0.4763
 5532W        W 9583   1.940   8.052   2.737 -0.1747  0.1700  0.3276
 5533W        W 9584   5.434   7.828  10.676  0.0845  0.1431 -0.1111
 5534W        W 9585   0.484   7.340   3.635 -0.2229 -0.1194 -0.2365
 5535W        W 9586   8.828   7.019   1.112 -0.0081  0.1924  0.0121
 5536W        W 9587   4.042   2.522   2.551 -0.1510 -0.1193 -0.2088
 5537W        W 9588   8.568   5.445  13.023  0.3008  0.2172 -0.0492
 5538W        W 9589   3.744   4.152   1.051 -0.4147 -0.1309  0.1028
 5539W        W 9590   5.491   9.780  12.935 -0.2226  0.0904 -0.0824
 5540W        W 9591   2.371   9.028   3.911 -0.0604 -0.3443  0.5235
 5541W        W 9592   4.478   8.429  12.752  0.4599  0.4007 -0.2127
 5542W        W 9593   8.559   9.690   2.145  0.1957  0.3768  0.2136
 5543W        W 9594   1.741   9.015  10.421  0.0943  0.3123  0.2126
 5544W        W 9595   2.772   6.318  13.706  0.1559 -0.2253 -0.0224
 5545W        W 9596   3.110   6.049  12.870  0.4039 -0.2269  0.1751
 5546W        W 9597   3.710   5.667   5.588  0.1867  0.1176  0.1275
 5547W        W 9598   5.900   3.533   9.658  0.0499  0.1128  0.3050
 5548W        W 9599   0.577   4.519   3.424  0.1806 -0.1444  0.1632
 5549W        W 9600   9.719   3.592   1.807  0.0499 -0.2833 -0.0006
 5550W        W 9601   0.745   9.489  11.800  0.2691 -0.0413 -0.2599
 5551W        W 9602   7.264   4.307   1.651 -0.1283  0.2613  0.1709
 5552W        W 9603   0.740   5.894  12.810  0.0642 -0.1252 -0.1600
 5553W        W 9604   0.978   4.750  11.047 -0.0706 -0.0084  0.0416
 5554W        W 9605   6.137   8.308  10.966 -0.2519 -0.3831 -0.1172
 5555W        W 9606   9.963   4.347  13.273 -0.2119  0.1474  0.2680
 5556W        W 9607   9.640   1.201   3.605  0.1349  0.1111 -0.2112
 5557W        W 9608   9.793   0.495  13.565 -0.0897 -0.3007 -0.1160
 5558W        W 9609   7.370   1.375  13.576  0.2842 -0.2123 -0.2439
 5559W        W 9610   1.906   6.664  13.762 -0.0180  0.1284  0.0719
 5560W        W 9611   1.165   6.826   0.929  0.0057 -0.1937  0.0647
 5561W        W 9612   7.848   9.955  12.636  0.0511  0.2032 -0.1838
 5562W        W 9613   2.347   0.527  10.868 -0.0150  0.5965  0.0318
 5563W        W 9614   6.780   2.842   0.873 -0.2612  0.2426 -0.3464
 5564W        W 9615   5.815   6.338  11.543 -0.3274  0.1457  0.0184
 5565W        W 9616   2.109   0.637   5.485  0.1729  0.0865  0.2696
 5566W        W 9617   6.237   9.989   0.578 -0.3120 -0.0248  0.1024
 5567W        W 9618   5.274   8.691  10.754 -0.2199  0.0340 -0.2664
 5568W        W 9619   0.996   9.616   9.635 -0.2092  0.1432 -0.3930
 5569W        W 9620   6.057   1.186  13.195  0.0599  0.1799  0.2911
 5570W        W 9621   8.630   6.775  10.791 -0.1817  0.2889  0.3595
 5571W        W 9622   2.736   2.231  11.675 -0.0304 -0.0889 -0.0214
 5572W        W 9623   7.857   7.276  11.695 -0.1586 -0.3091 -0.0816
 5573W        W 9624   2.587   1.561  12.236 -0.2411  0.1259 -0.2306
 5574W        W 9625   8.629   4.851  12.091 -0.3369  0.1231 -0.4444
 5575W        W 9626   9.210   1.517   2.522 -0.0572  0.0332  0.0018
 5576W        W 9627   3.440   2.936   1.560  0.1485  0.1822  0.1605
 5577W        W 9628   9.738   6.345   3.945  0.1411  0.1211 -0.1247
 5578W        W 9629   9.142   1.954   9.517  0.0772 -0.0732  0.0178
 5579W        W 9630   5.527   7.179  12.367  0.2450 -0.4265 -0.2014
 5580W        W 9631   8.246   6.163   3.889 -0.0204 -0.0667 -0.2520
 5581W        W 9632   2.760   3.837   9.891 -0.1974 -0.2353 -0.1301
 5582W        W 9633   0.123   4.021  12.084 -0.0230 -0.0437 -0.2228
 5583W        W 9634   5.935   2.101   0.175 -0.1541 -0.2190  0.1199
 5584W        W 9635   7.303   1.793   1.215 -0.0178  0.2461  0.2506
 5585W        W 9636   1.205   6.661   1.551  0.2092 -0.3008  0.3694
 5586W        W 9637   5.963   3.229   3.713  0.0640 -0.3718 -0.0856
 5587W        W 9638   7.751   9.490   0.967  0.1267  0.2849 -0.0815
 5588W        W 9639   1.737   2.149   0.897  0.1607  0.0743  0.1209
 5589W        W 9640   2.541   8.862  12.137  0.3219 -0.2849  0.2201
 5590W        W 9641   4.444   5.978  13.829  0.0090  0.1848  0.3845
 5591W        W 9642   4.780   1.790   0.428  0.3218 -0.1915 -0.4560
 5592W        W 9643   6.506   1.978   0.955 -0.2413 -0.2149  0.2785
 5593W        W 9644   4.156   7.850   3.060  0.0915  0.2570 -0.0627
 5594W        W 9645   4.687   1.751   3.590  0.2009 -0.0339  0.0349
 5595W        W 9646   1.394   0.817   0.167 -0.0574  0.0413  0.1921
 5596W        W 9647   8.630   2.214  11.254 -0.0081  0.1476  0.1782
 5597W        W 9648   4.285   2.265  10.177  0.0743 -0.0331  0.0502
 5598W        W 9649   7.926   1.413   1.739 -0.0389  0.0607  0.1572
 5599W        W 9650   2.329   2.617   9.959  0.1373 -0.1188  0.1569
 5600W        W 9651   8.433   5.076   3.167 -0.1852  0.1472  0.1636
 5601W        W 9652   0.916   0.494  10.249 -0.1901  0.0869  0.3064
 5602W        W 9653   3.778   0.190  10.095 -0.1190  0.2213  0.0170
 5603W        W 9654   7.711   4.871  11.620  0.3459 -0.1634 -0.0718
 5604W        W 9655   1.050   5.582   1.937  0.0897 -0.3599  0.2639
 5605W        W 9656   0.911   4.074   9.951 -0.1883 -0.3482 -0.4176
 5606W        W 9657   9.950   9.337   3.829  0.0829  0.0961 -0.1613
 5607W        W 9658   4.456   1.360   5.212  0.3687 -0.4017 -0.3251
 5608W        W 9659   1.050   5.250  10.330 -0.0829 -0.2836  0.2507
 5609W        W 9660   1.626   3.158  13.378  0.0924 -0.1131  0.0416
 5610W        W 9661   5.979   1.959   2.764 -0.1801  0.2293 -0.2416
 5611W        W 9662   5.193   7.130  13.255 -0.0546 -0.0070  0.0330
 5612W        W 9663   9.140   9.586   0.722 -0.0238  0.2439 -0.1610
 5613W        W 9664   2.238   2.113  12.949 -0.4688 -0.0389  0.0864
 5614W        W 9665   2.782   1.520  14.031  0.1132  0.2114  0.0344
 5615W        W 9666   7.089   1.501  13.172 -0.0818  0.5058  0.0225
 5616W        W 9667   8.983   6.054  12.604  0.1045  0.1047  0.0496
 5617W        W 9668   8.432   5.558   2.652 -0.1162 -0.3170 -0.0338
 5618W        W 9669   9.466   2.565  14.089  0.1211 -0.1072 -0.1987
 5619W        W 9670   9.228   7.898   2.763 -0.0901 -0.2050  0.0079
 5620W        W 9671   4.165   4.892  11.381 -0.0356 -0.1601 -0.1961
 5621W        W 9672   6.523   7.087   3.028 -0.0201  0.3197  0.2086
 5622W        W 9673   1.659   9.699   1.397 -0.1810  0.1232  0.2303
 5623W        W 9674   9.737   6.766  11.945  0.1979 -0.0906 -0.0294
 5624W        W 9675   3.315   6.248   4.532  0.0605 -0.1579  0.0009
 5625W        W 9676   4.308   8.007   9.937  0.2644 -0.0655  0.0866
 5626W        W 9677   6.622   3.961  11.739  0.1995 -0.0979 -0.2762
 5627W        W 9678   0.427   8.100  13.871 -0.1107 -0.1771 -0.1892
 5628W        W 9679   8.968   7.847  13.133 -0.0703 -0.0532 -0.2084
 5629W        W 9680   5.274   6.099   2.186 -0.0514  0.1899  0.1367
 5630W        W 9681   8.067   1.032  12.060  0.2075 -0.0346 -0.1516
 5631W        W 9682   7.386   3.971   2.548  0.0278 -0.0138 -0.2755
 5632W        W 9683   3.141   4.780  13.265 -0.0397 -0.0654  0.1263
 5633W        W 9684   0.088   2.672   2.286 -0.0421  0.0158 -0.0767
 5634W        W 9685   3.522   2.151   0.307  0.0506  0.1193 -0.1448
 5635W        W 9686   3.296   0.463   9.352  0.1111 -0.2624 -0.0243
 5636W        W 9687   2.910   5.974  13.359 -0.0838 -0.1516  0.2432
 5637W        W 9688   8.989   1.927   3.439 -0.3817 -0.1318  0.1436
 5638W        W 9689   8.140   2.156  11.426 -0.0880 -0.4599  0.1067
 5639W        W 9690   5.925   6.385   9.538  0.0946  0.1814  0.1505
 5640W        W 9691   3.148   5.431   5.624  0.3460  0.4002  0.0721
 5641W        W 9692   5.266   7.280   9.867 -0.1031 -0.3548 -0.1333
 5642W        W 9693   0.774  10.118   3.319  0.1906  0.1682  0.0038
 5643W        W 9694   9.413   5.461  10.886 -0.3542  0.1166  0.0595
 5644W        W 9695   4.693  10.092   4.449 -0.1348 -0.0512 -0.0239
 5645W        W 9696   6.060   7.463   3.027  0.1497  0.0628  0.3075
 5646W        W 9697   3.590   6.705   1.213  0.1774 -0.0579  0.1090
 5647W        W 9698   5.133   1.290   2.528  0.0406  0.0966 -0.3929
 5648W        W 9699   9.151   4.137  13.901 -0.5514  0.0082 -0.0547
 5649W        W 9700   7.875   2.895  10.324  0.0654  0.2313 -0.0508
 5650W        W 9701   6.076   4.758  12.920 -0.3587  0.1846  0.1407
 5651W        W 9702   8.905   8.946  11.451  0.0352 -0.0535  0.3516
 5652W        W 9703   9.818   2.638   2.656 -0.5266  0.0738 -0.2941
 5653W        W 9704   6.881   7.202  11.279 -0.0021 -0.2434 -0.1014
 5654W        W 9705   9.846   2.711  12.523  0.0128 -0.1987 -0.2027
 5655W        W 9706   2.785   0.826  10.922  0.2501 -0.0156  0.4845
 5656W        W 9707   0.868   1.676  13.738  0.3804  0.2697  0.1087
 5657W        W 9708   3.067   4.828   0.036  0.0317 -0.1447  0.1497
 5658W        W 9709   6.954   3.364  11.700  0.1399 -0.1446 -0.0199
 5659W        W 9710   4.072   9.536   1.005 -0.0755 -0.0871  0.1565
 5660W        W 9711   4.085   2.831  11.846  0.1420 -0.2644 -0.2540
 5661W        W 9712   9.645   5.093   1.031 -0.1551  0.0594 -0.1053
 5662W        W 9713   1.462   9.774   2.908  0.1166  0.3735  0.2232
 5663W        W 9714   3.154   8.683  12.482 -0.4016 -0.0130 -0.0121
 5664W        W 9715   5.535   3.916   9.800 -0.2522 -0.1338  0.0265
 5665W        W 9716   3.403   9.970   0.131 -0.1049  0.3373 -0.0616
 5666W        W 9717   5.423   1.550  10.083  0.0585  0.1741  0.0621
 5667W        W 9718   3.677   7.521  11.460 -0.0745  0.3163 -0.0330
 5668W        W 9719   0.060   3.980  11.611  0.3268 -0.0843 -0.1009
 5669W        W 9720   1.760   0.306   0.964 -0.1465  0.2836  0.1889
 5670W        W 9721   4.683   5.220  11.920 -0.1577  0.1512  0.0297
 5671W        W 9722   1.502   5.646   0.155  0.1032 -0.0548  0.1454
 5672W        W 9723   7.167  10.057   4.265  0.2729 -0.0579 -0.0964
 5673W        W 9724   0.882   0.483  11.047 -0.3124 -0.5947  0.0249
 5674W        W 9725   5.538   5.745   9.301 -0.3889 -0.0257  0.4451
 5675W        W 9726   8.297   8.191   6.187  0.3040  0.0612 -0.1616
 5676W        W 9727   1.129  10.105  12.825  0.2120 -0.2026 -0.0224
 5677W        W 9728   2.096   4.586  13.683  0.1399 -0.0234 -0.2946
 5678W        W 9729   0.696   0.907   2.822 -0.0238  0.0696 -0.0838
 5679W        W 9730  10.110   2.331   3.244 -0.1868 -0.3436  0.2517
 5680W        W 9731   2.003   9.416  10.383 -0.2386 -0.0012  0.0289
 5681W        W 9732   9.114   3.402   2.615 -0.2292 -0.3152 -0.0894
 5682W        W 9733   1.875   6.268   2.455 -0.0040 -0.0918  0.1047
 5683W        W 9734   2.794   7.968   3.913 -0.0959 -0.4283  0.0092
 5684W        W 9735   6.936   5.497   3.401  0.0729 -0.0824 -0.0258
 5685W        W 9736   7.112   3.592  10.154  0.0619 -0.3735 -0.2571
 5686W        W 9737   6.946   3.749   3.472 -0.1708 -0.1055  0.0410
 5687W        W 9738   7.970   3.447  10.213 -0.2566 -0.1383  0.1934
 5688W        W 9739   1.706   0.941  13.301 -0.1492 -0.2362 -0.3359
 5689W        W 9740   2.481   1.925  14.022 -0.3113  0.0002  0.0366
 5690W        W 9741   8.153   1.586   5.730 -0.1420  0.2009  0.4127
 5691W        W 9742   1.272   3.417  13.010 -0.0625  0.2288  0.1040
 5692W        W 9743   4.551   3.198  12.872  0.1183 -0.0516  0.1132
 5693W        W 9744   1.204   8.696   2.963 -0.1964 -0.0922  0.1881
 5694W        W 9745   3.322   0.466   2.280 -0.1813  0.0780  0.1668
 5695W        W 9746   8.703   2.327   3.706 -0.3344 -0.1138  0.1466
 5696W        W 9747   7.549   0.400  13.729  0.1391 -0.2836 -0.1433
 5697W        W 9748   0.985   4.455   2.698 -0.0746 -0.1982 -0.0719
 5698W        W 9749   9.994   8.805   0.096 -0.0181  0.1168  0.1321
 5699W        W 9750   9.971   9.368   1.708 -0.2851 -0.0319  0.0347
 5700W        W 9751   0.672   9.038   2.148 -0.0828 -0.0209 -0.2269
 5701W        W 9752   0.564   9.514   9.439 -0.1349 -0.3109  0.2094
 5702W        W 9753   8.712   5.671   4.813 -0.0101  0.1395  0.0983
 5703W        W 9754   9.077   1.619   4.326 -0.0496 -0.0453 -0.0308
 5704W        W 9755   8.678  10.054  11.513 -0.0195  0.0124 -0.2218
 5705W        W 9756  10.067   7.249  13.373 -0.0234  0.1341 -0.1316
 5706W        W 9757   4.819   1.400   4.896 -0.1304 -0.1827  0.0743
 5707W        W 9758   9.547   4.208  10.003  0.2655  0.3181 -0.0960
 5708W        W 9759   7.350   4.006   0.121 -0.3033  0.1515  0.0622
 5709W        W 9760   1.450   4.814   3.578  0.0844  0.0235  0.2667
 5710W        W 9761   4.566   2.443  10.616  0.0557 -0.1512  0.0616
 5711W        W 9762   0.390   2.169   3.086 -0.2659 -0.0912 -0.0919
 5712W        W 9763   3.519   3.180   4.065 -0.0972 -0.0187 -0.0092
 5713W        W 9764   2.308   5.493  13.889  0.1293 -0.0317  0.0836
 5714W        W 9765   2.789   2.389   1.941  0.4734 -0.5213 -0.1461
 5715W        W 9766   8.685   0.111   3.283 -0.0281  0.0675 -0.1320
 5716W        W 9767   9.180   9.902  13.842 -0.2642  0.2836 -0.2516
 5717W        W 9768   9.162   9.831  12.988  0.1152 -0.0592 -0.0447
 5718W        W 9769   6.212   1.645   1.225  0.1930 -0.0055  0.0209
 5719W        W 9770   2.281   5.451   1.530 -0.2291  0.1302 -0.0370
 5720W        W 9771   4.602   1.429   3.239 -0.0881 -0.0675 -0.0679
 5721W        W 9772   1.593   7.307   2.097 -0.2359 -0.0624 -0.0478
 5722W        W 9773   1.959   1.497  11.580 -0.0293 -0.2051  0.1335
 5723W        W 9774   1.058   7.516  10.606 -0.2502  0.2064  0.1259
 5724W        W 9775   9.538   4.189   2.373 -0.1111  0.2329 -0.2333
 5725W        W 9776   4.822   3.300   1.592 -0.1395 -0.0238  0.0035
 5726W        W 9777   4.662   0.630  13.836 -0.1074  0.0518 -0.1318
 5727W        W 9778   8.956   5.546   0.575  0.0625 -0.1248 -0.2874
 5728W        W 9779   0.062   4.481  11.358  0.0575  0.0970  0.1130
 5729W        W 9780   2.291   1.331  10.357  0.2334  0.0378  0.2068
 5730W        W 9781   9.306   7.975   3.376  0.2471 -0.1084 -0.1626
 5731W        W 9782   5.354   3.453  11.862  0.1755 -0.0404  0.1841
 5732W        W 9783   9.482   8.432  14.072  0.2267 -0.0700 -0.1823
 5733W        W 9784   1.116   2.676   1.886 -0.0448  0.0848  0.2576
 5734W        W 9785   5.672   4.252   3.696  0.2454 -0.1226  0.1265
 5735W        W 9786   2.050   3.849   3.779  0.0307  0.3917  0.1049
 5736W        W 9787   4.137   5.688   4.679 -0.1937  0.3515  0.1046
 5737W        W 9788   9.087   4.399   9.100  0.3639  0.1597 -0.1562
 5738W        W 9789   8.127   2.329   2.362 -0.3722  0.1519 -0.2780
 5739W        W 9790   4.825   3.175   0.391  0.4038  0.1201  0.2923
 5740W        W 9791   0.168   6.064   2.278 -0.0080 -0.0575 -0.0982
 5741W        W 9792   7.226   3.702   9.065 -0.0755  0.0185  0.0847
 5742W        W 9793   7.989   7.882   1.727  0.5993  0.1352 -0.1038
 5743W        W 9794   9.118   6.586   0.405  0.0820 -0.2147  0.1184
 5744W        W 9795   4.031  10.052  13.386 -0.2685  0.4485 -0.3006
 5745W        W 9796   6.608   3.182  13.523  0.0123 -0.0794  0.0103
 5746W        W 9797   8.425   1.988   0.729  0.2330  0.1901 -0.2808
 5747W        W 9798   7.369   8.140  11.495 -0.2521  0.0063 -0.1406
 5748W        W 9799   7.304   1.378  12.690  0.0093  0.3630  0.1712
 5749W        W 9800   0.639   6.482   1.605 -0.1419 -0.0137 -0.2793
 5750W        W 9801   4.631   8.636  13.992  0.0785 -0.1439 -0.2142
 5751W        W 9802   7.336   1.882  12.752  0.2601  0.1335  0.1308
 5752W        W 9803   8.054   0.931   2.611 -0.3847 -0.0643 -0.5642
 5753W        W 9804   4.155   2.805   3.032  0.1394 -0.1263  0.0737
 5754W        W 9805   1.062  10.089   0.859  0.1665 -0.1091  0.0609
 5755W        W 9806   2.171   2.295   0.658 -0.3256  0.1959  0.2995
 5756W        W 9807   6.640   7.620  12.574 -0.0015 -0.0870 -0.1097
 5757W        W 9808   0.869   5.789   3.482 -0.1415  0.1853 -0.0178
 5758W        W 9809   8.061   6.793   1.941 -0.1201 -0.2435  0.2970
 5759W        W 9810   5.879   7.499  12.293  0.0549 -0.0200  0.0308
 5760W        W 9811   6.141   0.867   9.965  0.0100  0.0582 -0.1964
 5761W        W 9812   1.181   4.090  10.812 -0.3427  0.4309 -0.4421
 5762W        W 9813   0.149   1.333   2.471  0.1297 -0.1331 -0.2643
 5763W        W 9814   4.985   0.078  12.137  0.3157  0.0559  0.0570
 5764W        W 9815   3.667   1.698  12.552 -0.2850  0.1271 -0.1969
 5765W        W 9816   0.785   9.277   1.163  0.1865 -0.2988  0.1044
 5766W        W 9817   0.244   7.131   4.873 -0.3888  0.1670  0.0006
 5767W        W 9818   5.789   8.418  12.372  0.0356 -0.1305  0.1858
 5768W        W 9819   1.201   7.602  12.230 -0.2154 -0.0971 -0.2550
 5769W        W 9820   0.444   2.554  11.259  0.0148  0.3809 -0.2677
 5770W        W 9821   8.608   8.094  11.836  0.0126  0.0780 -0.3399
 5771W        W 9822   9.328   4.912  11.531 -0.0240  0.2253 -0.1786
 5772W        W 9823   3.648   8.620  11.586 -0.1790  0.0445  0.0368
 5773W        W 9824   3.943   5.024   1.306  0.1489 -0.2191 -0.1832
 5774W        W 9825   3.059   5.310  10.498  0.0227  0.1660  0.0346
 5775W        W 9826  10.154   3.140   5.000  0.1208  0.1230 -0.0230
 5776W        W 9827   2.439   6.905   3.865  0.1041 -0.0152 -0.2218
 5777W        W 9828   7.109   1.189   4.877  0.1760 -0.0222 -0.0036
 5778W        W 9829   0.983   4.773   8.797 -0.0093  0.0498  0.0945
 5779W        W 9830   9.811   7.221   0.881  0.5170  0.2226  0.0561
 5780W        W 9831   0.200   8.944   0.528  0.2891 -0.1574 -0.3257
 5781W        W 9832   2.846   3.100   2.342 -0.2091  0.1323 -0.0284
 5782W        W 9833   1.667   3.756   2.529 -0.0555 -0.1526  0.1217
 5783W        W 9834   3.071   3.526   0.473 -0.2176  0.3001  0.0159
 5784W        W 9835   9.827   4.004  11.954 -0.0753  0.1072  0.2116
 5785W        W 9836   3.739   0.821   0.754 -0.2306 -0.1271  0.6088
 5786W        W 9837   2.960   0.409   4.148  0.0868 -0.5246 -0.1129
 5787W        W 9838   5.155   2.982  10.935  0.0601 -0.1429 -0.0340
 5788W        W 9839   1.825   3.258  12.262  0.0989  0.4340 -0.1646
 5789W        W 9840   9.315   1.533   1.899  0.2794 -0.0903 -0.3715
 5790W        W 9841  10.082   4.287   1.197  0.0577 -0.1114  0.2999
 5791W        W 9842   5.609   0.007   1.995  0.1868 -0.1302 -0.0320
 5792W        W 9843   6.974   0.489   3.966 -0.1296 -0.2868  0.3482
 5793W        W 9844   2.550   8.582   3.925  0.0589  0.1058  0.2603
 5794W        W 9845   8.490   5.891  12.726  0.1413  0.1436  0.0586
 5795W        W 9846   8.688   1.723  11.351 -0.1945  0.0325  0.1298
 5796W        W 9847   5.732   6.500   4.390 -0.2487 -0.2587  0.1483
 5797W        W 9848   7.027   4.735   9.452 -0.0984  0.1573 -0.1302
 5798W        W 9849   0.766   3.884   1.541  0.2376  0.1144 -0.1287
 5799W        W 9850   7.269   6.079   0.482 -0.0618  0.3636 -0.2970
 5800W        W 9851   4.462   0.445   1.756  0.0775  0.2351 -0.1671
 5801W        W 9852   9.026   4.277   0.311  0.0833 -0.0187 -0.0277
 5802W        W 9853   0.781   0.229  13.138 -0.0465  0.0855 -0.1658
 5803W        W 9854   1.756   5.525   4.717 -0.2985 -0.1225  0.1623
 5804W        W 9855   0.651   7.837   1.991 -0.1634  0.1082 -0.1090
 5805W        W 9856   2.577   9.181   2.729  0.1455 -0.2553  0.2929
 5806W        W 9857   0.322   7.235   1.291  0.2055 -0.0578 -0.2172
 5807W        W 9858   2.866   4.895   1.542  0.0146 -0.1707  0.1233
 5808W        W 9859   4.597   3.081   3.032  0.1989  0.0173  0.1408
 5809W        W 9860   3.227   7.812   2.898 -0.4379 -0.2596 -0.1652
 5810W        W 9861   4.178   4.133   4.679 -0.0809  0.1276  0.1322
 5811W        W 9862   1.925   7.588  12.702  0.2032 -0.2571 -0.0023
 5812W        W 9863   3.163   6.993   3.479  0.1351 -0.0147  0.2340
 5813W        W 9864   8.918   6.664  12.627  0.0118  0.0985  0.4484
 5814W        W 9865   3.868   6.437   9.394 -0.3136 -0.0289 -0.0866
 5815W        W 9866  10.053   9.162  12.698 -0.0832  0.0312  0.0043
 5816W        W 9867   6.730   3.429   4.482 -0.5254  0.0385  0.0309
 5817W        W 9868   6.550   3.120   5.652  0.1139 -0.0798 -0.1799
 5818W        W 9869   3.113   9.193   0.246  0.0883 -0.1120  0.3544
 5819W        W 9870   4.448   2.813   0.253 -0.1659  0.0342 -0.0338
 5820W        W 9871   3.818   8.171   1.400  0.2969 -0.2400 -0.3880
 5821W        W 9872   0.510   5.874  13.625 -0.0839  0.3210  0.2228
 5822W        W 9873   1.532   4.605  11.539  0.1162  0.2640  0.3431
 5823W        W 9874   6.011   6.148  12.389  0.2889 -0.0861  0.0999
 5824W        W 9875   6.000   0.295   2.260  0.1747  0.1871  0.1404
 5825W        W 9876   0.628   2.145   9.551 -0.1077  0.1111 -0.0788
 5826W        W 9877   1.449   8.715   0.545  0.0182  0.0535 -0.3420
 5827W        W 9878   8.452   2.105  12.747  0.1988 -0.0627 -0.2702
 5828W        W 9879  10.081   4.057  10.129  0.2449 -0.1300 -0.2368
 5829W        W 9880   5.958   8.331   7.434 -0.0786 -0.3767  0.1820
 5830W        W 9881   7.498   8.806  11.267  0.0591 -0.5756  0.1185
 5831W        W 9882   5.720   4.058   3.128 -0.1499  0.1254 -0.2213
 5832W        W 9883   9.427   9.270   1.709  0.2866  0.0443 -0.1498
 5833W        W 9884   3.113   2.890  11.726  0.1152  0.1782 -0.0261
 5834W        W 9885   2.018   2.466  12.764  0.1524  0.1308  0.1340
 5835W        W 9886   0.709   9.118   0.655 -0.1805  0.1270  0.3442
 5836W        W 9887   7.893   0.420   1.355  0.0373 -0.1376  0.3173
 5837W        W 9888   9.277   3.329   1.623  0.2630 -0.1074 -0.0025
 5838W        W 9889   6.313   7.918   2.830  0.0984  0.3152  0.3069
 5839W        W 9890   8.675   7.842  13.521 -0.0182  0.1324  0.2173
 5840W        W 9891   9.571   8.842   3.623 -0.0984 -0.1822  0.1803
 5841W        W 9892   3.906   4.822  10.175  0.0957 -0.1617  0.1713
 5842W        W 9893   6.031   6.297   1.874  0.0779  0.1824 -0.1354
 5843W        W 9894  10.034   0.393   9.656 -0.0781 -0.0815  0.0956
 5844W        W 9895   6.636   2.858  10.955 -0.0063  0.2712  0.2340
 5845W        W 9896   1.163   6.337   9.521 -0.0254  0.0497 -0.1831
 5846W        W 9897   2.088   8.116  12.785 -0.2446 -0.0588 -0.0349
 5847W        W 9898   3.843   5.198   2.978  0.2535 -0.3142  0.0647
 5848W        W 9899   9.660   1.492   2.338  0.1221 -0.0986  0.0747
 5849W        W 9900   0.541   9.889   3.699  0.0927  0.3110  0.0911
 5850W        W 9901   6.431   7.272  10.505  0.0747  0.0219 -0.0353
 5851W        W 9902   3.288   8.652   0.494  0.0913  0.0329 -0.1971
 5852W        W 9903   3.559   0.093   9.654  0.2823  0.1213  0.1905
 5853W        W 9904   9.770   9.762  13.917  0.3050  0.0698  0.0388
 5854W        W 9905   2.012   3.319  11.808 -0.0355  0.3158  0.3392
 5855W        W 9906   4.978   3.482   0.785  0.3062 -0.1414 -0.0062
 5856W        W 9907   6.310   9.484   0.546  0.1590 -0.0032 -0.1684
 5857W        W 9908   9.970   5.807   2.053 -0.0923 -0.3482 -0.2788
 5858W        W 9909   0.307   6.976  11.066  0.0053  0.4436 -0.0416
 5859W        W 9910   7.834   8.068   1.191 -0.3288 -0.1356 -0.3794
 5860W        W 9911   6.879   3.213   9.156  0.4567  0.0175  0.4067
 5861W        W 9912  10.121   2.163  12.004  0.1477  0.0265 -0.2719
 5862W        W 9913   8.773   4.122   0.779  0.2103  0.1109  0.0269
 5863W        W 9914   5.482   1.730  11.456  0.0978  0.0862  0.1338
 5864W        W 9915   3.975   8.484   1.857  0.1240 -0.0033  0.2432
 5865W        W 9916   4.922   1.307   0.554  0.0918 -0.1281  0.0805
 5866W        W 9917   0.365   1.846   3.978 -0.0247 -0.0457  0.1031
 5867W        W 9918   4.041   6.862   0.938 -0.2721  0.1520 -0.0728
 5868W        W 9919   7.971   0.019   2.743 -0.0426  0.2557 -0.0311
 5869W        W 9920   5.613   8.904   0.368  0.1122  0.1352  0.1826
 5870W        W 9921   9.411   5.624   2.983  0.0198  0.1952 -0.2266
 5871W        W 9922   8.332   2.039  10.487 -0.0506  0.1761 -0.2251
 5872W        W 9923   1.750   1.265   2.837 -0.4150  0.1506  0.0552
 5873W        W 9924   7.273   2.365   3.689 -0.3695 -0.1028  0.2093
 5874W        W 9925   7.847   5.024  10.461  0.0873  0.1268 -0.1746
 5875W        W 9926   6.081   2.671   4.452  0.2644  0.0279  0.0096
 5876W        W 9927   0.778   3.492   4.645  0.0701 -0.3063  0.2838
 5877W        W 9928   2.627   1.750  10.575 -0.0212 -0.0192  0.2628
 5878W        W 9929   0.175   8.609   3.279 -0.1038 -0.2847 -0.0832
 5879W        W 9930   6.885   3.553   2.954 -0.1235 -0.1349  0.0338
 5880W        W 9931   5.436   4.698   4.309 -0.1101 -0.0412 -0.3330
 5881W        W 9932   1.820   8.911  11.120 -0.0362 -0.1019 -0.1293
 5882W        W 9933   1.464   9.727   4.487  0.0475  0.1470  0.0552
 5883W        W 9934   4.162   5.126  11.822  0.0484 -0.0798  0.2273
 5884W        W 9935   9.238   9.247   3.388  0.1869  0.3474  0.0366
 5885W        W 9936   4.047   5.597  10.500  0.1774  0.2512 -0.1791
 5886W        W 9937   8.910   8.365  13.353 -0.0802  0.0882  0.1899
 5887W        W 9938   7.004   4.572  10.420  0.0570 -0.2136 -0.3834
 5888W        W 9939   9.574   7.135  13.538 -0.0574  0.1489 -0.0380
 5889W        W 9940   3.179   7.037   1.136  0.1751 -0.1703  0.1418
 5890W        W 9941   8.305   3.878   3.563  0.4145  0.0097  0.1135
 5891W        W 9942   1.260   2.830   0.317 -0.0880  0.0441 -0.0200
 5892W        W 9943   5.753   1.673  14.075  0.0801 -0.1283 -0.0614
 5893W        W 9944   6.936   4.746  14.063  0.1648 -0.2509  0.0072
 5894W        W 9945   0.506   0.455   3.435 -0.0958 -0.0439 -0.0519
 5895W        W 9946   1.145   7.490   5.009 -0.0446  0.0104 -0.2903
 5896W        W 9947   6.941   8.593  10.500 -0.3241  0.2090 -0.0088
 5897W        W 9948   0.483   5.695   3.069  0.3109  0.0544  0.0006
 5898W        W 9949   4.504   7.256   0.180 -0.1789 -0.0175  0.1135
 5899W        W 9950   9.979   1.738  12.293  0.0378 -0.2603 -0.0309
 5900W        W 9951   3.280   1.980   2.560 -0.1377  0.0242 -0.0513
 5901W        W 9952   7.025   3.273  11.133 -0.0256  0.0391  0.0305
 5902W        W 9953   5.604   3.840   9.279 -0.2463 -0.1318  0.1901
 5903W        W 9954   9.897   6.155  10.162  0.0141  0.1286  0.2485
 5904W        W 9955   6.839   0.765   0.055 -0.1337 -0.1882  0.1419
 5905W        W 9956   6.050   8.854  12.125  0.1026 -0.1478  0.1774
 5906W        W 9957  10.039   1.454   3.871 -0.2557  0.1704  0.0665
 5907W        W 9958   6.129   8.599   1.028  0.0686  0.1279 -0.2722
 5908W        W 9959  10.093   2.490   1.261  0.0761  0.1030  0.4763
 5909W        W 9960   9.439   6.802  11.049 -0.0288  0.0446 -0.0424
 5910W        W 9961   9.557   4.097   1.080 -0.1090 -0.0777 -0.3072
 5911W        W 9962   8.552   8.373   2.205  0.1079 -0.1890  0.2724
 5912W        W 9963   1.841   6.465   9.032 -0.1639  0.1716  0.1397
 5913W        W 9964   5.927   0.134  10.531 -0.1763 -0.1924  0.0301
 5914W        W 9965   1.663   0.776  10.591  0.0556  0.3104 -0.4348
 5915W        W 9966   8.274   0.449   3.360  0.2124 -0.1531  0.0195
 5916W        W 9967   9.299   3.986   0.686 -0.2027  0.0592  0.1169
 5917W        W 9968   1.122   2.001  12.869  0.0680 -0.2819  0.0033
 5918W        W 9969   7.752   2.617   1.075 -0.1091  0.1904  0.0190
 5919W        W 9970   4.026   4.505  10.972 -0.4954 -0.0172  0.1848
 5920W        W 9971   8.156   4.030  11.115 -0.0389  0.2616  0.3566
 5921W        W 9972   6.270   5.173   2.451 -0.4347 -0.3119  0.0373
 5922W        W 9973   9.172   0.397   3.384  0.1831  0.0552 -0.0148
 5923W        W 9974   0.185   2.836   3.967  0.0523 -0.1248  0.0218
 5924W        W 9975   7.824   0.997   0.431  0.1585  0.0861  0.1002
 5925W        W 9976   2.714  10.024   9.777  0.0574 -0.1135  0.0193
 5926W        W 9977   5.731   6.458  12.770  0.1531  0.2041  0.2743
 5927W        W 9978   5.637   8.460  13.710  0.4069  0.0323  0.0003
 5928W        W 9979  10.007   5.665  10.251  0.0416 -0.2190  0.3091
 5929W        W 9980   5.568   0.296   1.347 -0.0001 -0.1473  0.2126
 5930W        W 9981   2.344   4.586  10.678 -0.1295  0.3086 -0.0779
 5931W        W 9982   3.773   9.940   2.242 -0.0328  0.0631  0.2447
 5932W        W 9983   1.432   7.707   3.963  0.0861  0.0957 -0.1326
 5933W        W 9984   5.652   1.466   9.672 -0.3789  0.1080  0.2301
 5934W        W 9985  10.056   5.304   1.198  0.1627 -0.1077  0.2707
 5935W        W 9986  10.068   7.929   9.524 -0.0966 -0.3698 -0.2319
 5936W        W 9987   7.371   3.422   2.716  0.1583 -0.2894 -0.2045
 5937W        W 9988   2.237   6.112  10.983  0.0498  0.1825 -0.0706
 5938W        W 9989   6.543   4.508   4.119  0.0685  0.1322  0.0105
 5939W        W 9990   2.272   2.775  12.415 -0.1052  0.0029 -0.2337
 5940W        W 9991   4.819   1.611  11.249 -0.5302  0.0331 -0.0059
 5941W        W 9992   1.297   4.535  12.369  0.2668 -0.0585 -0.2915
 5942W        W 9993   6.560   4.248  10.280 -0.0192  0.1504  0.3609
 5943W        W 9994   9.902   7.674  11.043  0.0336 -0.1962  0.0140
 5944W        W 9995   0.198   6.931  11.649  0.1586  0.0822 -0.2768
 5945W        W 9996   4.629   8.776  11.567  0.1670  0.1627 -0.0638
 5946W        W 9997   8.782   6.419   3.116  0.1947 -0.2373 -0.2873
 5947W        W 9998   3.474   3.609   0.176 -0.1144  0.0103  0.0145
 5948W        W 9999   3.127   4.429  13.847  0.0133  0.0486  0.2199
 5949W        W10000   0.440   7.383  13.515 -0.1738 -0.1830 -0.0517
 5950W        W10001   2.020   6.977   2.869 -0.1436 -0.1614  0.1168
 5951W        W10002   2.988   7.226   2.075  0.2927 -0.1012 -0.1491
 5952W        W10003   2.846   8.817  13.697  0.1821  0.2160 -0.1618
 5953W        W10004   8.597   5.185   2.241  0.0694 -0.2724  0.4386
 5954W        W10005   1.871   1.170  14.057 -0.0761  0.0260 -0.1984
 5955W        W10006   0.669   1.866   9.108 -0.3504 -0.0901 -0.4196
 5956W        W10007   9.904   2.287   2.260 -0.2598  0.2792 -0.1336
 5957W        W10008   7.684   5.154   1.507 -0.0028 -0.2495 -0.0131
 5958W        W10009   4.157   5.799  10.023 -0.2292  0.1202 -0.0052
 5959W        W10010   1.715   4.001  10.957  0.4022  0.3143 -0.2287
 5960W        W10011   7.772   3.654  11.926 -0.1288  0.1522 -0.2477
 5961W        W10012   8.986   5.410   1.936  0.3079  0.0050  0.1047
 5962W        W10013   2.520   2.035   0.442  0.1806 -0.0947  0.0518
 5963W        W10014   7.663   4.261   2.987  0.1272 -0.3849  0.3018
 5964W        W10015   2.830   1.072   0.784  0.3608  0.0037 -0.2038
 5965W        W10016   8.699   5.213   4.539 -0.0440 -0.4354  0.1477
 5966W        W10017   4.071   7.261   2.601 -0.1419 -0.0368 -0.0014
 5967W        W10018   9.509   6.680   1.513  0.2720 -0.4225  0.0852
 5968W        W10019   6.281   0.779  10.884  0.0480  0.0908  0.2307
 5969W        W10020   6.366   2.138  13.341  0.0069  0.0776  0.1032
 5970W        W10021   9.675   4.568   0.864 -0.2191 -0.0036  0.0732
 5971W        W10022   9.032   8.308  13.938  0.0833 -0.1703 -0.1598
 5972W        W10023   5.996   4.751  12.393  0.2405  0.0946  0.1251
 5973W        W10024   8.605   7.541  12.622  0.0463 -0.2414  0.0758
 5974W        W10025   6.456   2.072  11.080 -0.2041  0.4301 -0.1069
 5975W        W10026   2.712   2.089   1.463 -0.1175  0.0384 -0.0759
 5976W        W10027   6.254   7.832  10.754  0.1163  0.0150 -0.2027
 5977W        W10028   9.401   9.147  10.114 -0.2891  0.1207  0.1600
 5978W        W10029   7.091   7.698   5.901 -0.2799  0.0412  0.0410
 5979W        W10030   1.914   8.138  12.298  0.0576  0.1770  0.1794
 5980W        W10031   8.295   6.261   0.258  0.1679 -0.2257 -0.1447
 5981W        W10032   4.409   7.062  10.828 -0.0284  0.0180  0.1689
 5982W        W10033   9.659   8.300   0.804 -0.1460 -0.0988 -0.3531
 5983W        W10034   9.171   4.731  13.129  0.0228  0.1964  0.1563
 5984W        W10035   9.620   8.928  13.909  0.2354 -0.0677  0.1925
 5985W        W10036   5.880   4.260  11.975 -0.2609  0.2612 -0.0176
 5986W        W10037   7.621   7.724   0.189 -0.0217  0.1772  0.0199
 5987W        W10038   7.933   6.409   1.113 -0.0423  0.1473 -0.1581
 5988W        W10039   1.193   9.340  10.074  0.2503  0.2585  0.1624
 5989W        W10040   1.861   8.524  10.795 -0.0259 -0.0433  0.0367
 5990W        W10041   2.787   5.668  10.749  0.1946  0.2550  0.0747
 5991W        W10042   7.959   2.132   1.055 -0.4139  0.2494 -0.2294
 5992W        W10043   2.383   6.534   1.947  0.1412 -0.1834  0.1375
 5993W        W10044   9.120   3.822  12.980 -0.3372 -0.2304  0.0330
 5994W        W10045   4.386   3.471   9.705  0.0573  0.0796  0.0964
 5995W        W10046   4.529   9.657   0.119  0.0760  0.0715 -0.0404
 5996W        W10047   4.009   7.126   3.980 -0.0617  0.0577 -0.1513
 5997W        W10048   4.352   2.729  13.140 -0.0500  0.0247 -0.0098
 5998W        W10049   8.842   0.311   9.307  0.2338 -0.4342  0.1448
 5999W        W10050   3.552   5.083   3.382 -0.5422 -0.0633 -0.0998
 6000W        W10051   5.513   1.082  13.545 -0.0867 -0.1868  0.2261
 6001W        W10052   8.756   2.770   5.467 -0.0564 -0.1395  0.1019
 6002W        W10053   5.240   5.675   1.863 -0.1061 -0.0974 -0.1547
 6003W        W10054   8.375   1.359   2.077  0.1804  0.0451  0.3218
 6004W        W10055   1.526   5.583   4.220 -0.2556 -0.1614  0.1541
 6005W        W10056   2.782   5.667  13.012  0.1243 -0.0073  0.1870
 6006W        W10057   5.954   0.387   3.157 -0.2894  0.1284 -0.0168
 6007W        W10058   1.220   1.777  11.132 -0.1830 -0.1374 -0.1337
 6008W        W10059   0.168   0.996   2.846 -0.2240 -0.0062  0.2255
 6009W        W10060   4.286   3.303  11.604 -0.0313  0.2287 -0.1908
 6010W        W10061   1.040   8.442   0.745 -0.0837 -0.1704  0.0735
 6011W        W10062   9.209  10.112  12.212 -0.0779 -0.2078  0.0752
 6012W        W10063   3.075   7.759   0.023 -0.2147 -0.2965  0.1648
 6013W        W10064   5.386   4.699  10.890  0.2684 -0.0842 -0.0429
 6014W        W10065   8.112   2.226  10.933 -0.1321  0.2380  0.1016
 6015W        W10066   7.136   6.713   0.637 -0.1224  0.2445 -0.0491
 6016W        W10067   3.311   1.620   3.103 -0.3725 -0.1212  0.2510
 6017W        W10068   0.341   5.266   5.113 -0.1732 -0.0292 -0.0774
 6018W        W10069   0.008   8.160   1.004 -0.0198  0.0317  0.0879
 6019W        W10070   9.605   2.303   2.996  0.2703  0.1889  0.0565
 6020W        W10071   9.164   9.872   2.682  0.1915 -0.0677  0.2394
 6021W        W10072   0.691   8.695  12.621  0.0697 -0.1672 -0.1574
 6022W        W10073   9.500   0.374  11.390  0.1541 -0.3937 -0.1898
 6023W        W10074   4.741   4.252   9.771 -0.0545 -0.2461 -0.0321
 6024W        W10075   4.880   2.565  11.083 -0.3015  0.0614  0.0743
 6025W        W10076   6.378   9.298  12.810  0.1274  0.0641  0.0687
 6026W        W10077   0.287   5.802  10.473  0.1241 -0.0910  0.2563
 6027W        W10078   6.717   2.962   1.413  0.0989 -0.0600  0.2114
 6028W        W10079   2.058   5.187   9.462 -0.1858 -0.0023 -0.0481
 6029W        W10080   9.945   6.329  13.569  0.0717 -0.0708  0.2292
 6030W        W10081   6.824   3.785   2.484 -0.0680  0.2104  0.1324
 6031W        W10082   5.071   2.953  12.004 -0.1966 -0.0899  0.0648
 6032W        W10083   2.446   6.710  13.711 -0.1595 -0.1659  0.1839
 6033W        W10084   1.313   4.178  10.323  0.0213  0.1276  0.3459
 6034W        W10085   2.283   3.766  11.897  0.0020  0.2876 -0.0134
 6035W        W10086   7.598   9.603  13.466 -0.1352 -0.1071 -0.0553
 6036W        W10087   9.847   0.148   5.302 -0.0562 -0.0060  0.0837
 6037W        W10088   8.617   5.361  12.005 -0.3983  0.0322 -0.2448
 6038W        W10089   7.256   4.135   3.458  0.1987  0.1084  0.0421
 6039W        W10090   7.078   8.329  13.176  0.1999 -0.0022 -0.0765
 6040W        W10091   3.076   1.165  12.841  0.1472 -0.2625  0.1006
 6041W        W10092   1.976   8.620  10.148 -0.1654  0.2674  0.1597
 6042W        W10093   5.892   6.829  11.608  0.1683  0.2456 -0.0592
 6043W        W10094   9.187   3.885   2.564  0.0567  0.0176  0.0748
 6044W        W10095   8.897   7.247   2.970 -0.2815 -0.2010 -0.2019
 6045W        W10096   6.895   8.143   0.728  0.1656  0.2094  0.0865
 6046W        W10097   0.460   4.671  12.913  0.3941  0.2170  0.1279
 6047W        W10098   6.125   4.287   2.954  0.2459 -0.1381 -0.1508
 6048W        W10099   0.358   0.938   3.350 -0.1417 -0.3372  0.1057
 6049W        W10100   7.764   1.339   2.274 -0.2656  0.1477 -0.1135
 6050W        W10101   2.825   5.422   1.619  0.0587 -0.1410 -0.1310
 6051W        W10102   7.206   4.776   4.603  0.0524 -0.0974  0.1428
 6052W        W10103   1.790   3.073   9.944  0.0669 -0.2787 -0.1515
 6053W        W10104   2.385   7.715   0.863 -0.0816  0.0237  0.0577
 6054W        W10105   1.263   8.639  11.862  0.1687  0.3224  0.2235
 6055W        W10106   9.941   6.014  12.286  0.0202  0.3156 -0.3084
 6056W        W10107   6.039   1.204  12.174 -0.0052 -0.2527 -0.0810
 6057W        W10108   2.145   7.242   3.596 -0.1404  0.1338  0.0305
 6058W        W10109   0.339   1.979   0.412 -0.0303 -0.1275  0.1541
 6059W        W10110   7.533   1.363   4.635 -0.1161  0.0596 -0.2301
 6060W        W10111   3.177   4.651   9.170 -0.0800 -0.3234 -0.1011
 6061W        W10112   4.987   2.255   2.840  0.2281 -0.2215  0.2491
 6062W        W10113   4.757   1.962  14.068  0.0867  0.3643  0.2602
 6063W        W10114   7.433   5.086   3.247  0.2976  0.1805 -0.0429
 6064W        W10115   7.864   1.530  10.312 -0.1840  0.0818  0.1661
 6065W        W10116   3.426   7.140   0.367  0.0018 -0.0772 -0.2162
 6066W        W10117   5.602   0.920  12.078  0.2158 -0.0439 -0.0498
 6067W        W10118   6.972   2.509   9.815 -0.2089  0.0810  0.1467
 6068W        W10119   2.875   3.082   5.052 -0.1934 -0.2433  0.3132
 6069W        W10120   1.192   3.870  12.082 -0.2035  0.0146 -0.1327
 6070W        W10121   6.257   5.749  13.451  0.1329 -0.4576  0.0147
 6071W        W10122   2.668   8.483  10.724  0.2047  0.1557  0.1012
 6072W        W10123   8.025   9.763   2.108  0.0125 -0.2443  0.0835
 6073W        W10124   6.625   9.858  10.084 -0.2811 -0.4175 -0.1619
 6074W        W10125   6.778   0.314   3.414 -0.0175 -0.1254  0.1043
 6075W        W10126   4.072   6.403  13.910 -0.0285 -0.0846 -0.1083
 6076W        W10127   1.987   4.069   2.302 -0.2616  0.0553  0.2555
 6077W        W10128   8.508   6.007  13.388 -0.1412 -0.0585  0.1208
 6078W        W10129   0.144   4.502   3.218  0.0471  0.0152  0.0817
 6079W        W10130   0.215   6.178   2.924 -0.0568 -0.0241  0.2353
 6080W        W10131   7.711   4.410   0.890 -0.0094 -0.1217  0.0381
 6081W        W10132   2.129   4.806   1.874  0.1760  0.2919 -0.1035
 6082W        W10133   2.333   8.524  12.964  0.1407 -0.1686  0.2250
 6083W        W10134   7.556   7.786   1.542 -0.0608 -0.3100  0.2422
 6084W        W10135   2.102   4.018  10.610 -0.1763  0.0512 -0.4397
 6085W        W10136   6.103   8.183  11.429 -0.1411  0.1393  0.1853
 6086W        W10137   3.827   8.331   0.362 -0.1503  0.0971 -0.1063
 6087W        W10138   4.287   1.878  10.470 -0.2304  0.1238 -0.0535
 6088W        W10139   7.855   8.385   3.679 -0.0468 -0.0028  0.0350
 6089W        W10140   5.794   0.940  11.070 -0.0026  0.1683  0.1001
 6090W        W10141   2.278   0.821  13.463 -0.2464 -0.1702  0.0596
 6091W        W10142   7.359   7.212   1.002 -0.0626  0.0816  0.4323
 6092W        W10143   2.514   6.979   5.421 -0.1218  0.4619  0.1863
 6093W        W10144   2.468   1.332  10.878 -0.1367  0.2194 -0.0292
 6094W        W10145   9.391   5.427   0.739  0.0350  0.3005 -0.3091
 6095W        W10146   7.898   2.497  13.736 -0.0601  0.0805 -0.0164
 6096W        W10147   9.009   6.244   2.668 -0.1482 -0.2205 -0.2147
 6097W        W10148   4.510   7.384   4.363  0.1036  0.1698 -0.0044
 6098W        W10149   8.275   6.465  10.137  0.0019 -0.4159 -0.1258
 6099W        W10150   3.534   2.299   1.265  0.0541  0.0521  0.2769
 6100W        W10151   3.816   9.087   2.651 -0.1265  0.1083  0.1099
 6101W        W10152   2.804   4.422  12.983  0.0004  0.0353  0.2556
 6102W        W10153   3.467   1.622   0.481  0.3463  0.0292  0.0042
 6103W        W10154   9.247   6.326   1.686  0.1362  0.1253  0.2497
 6104W        W10155   8.678   2.343  12.262  0.1424 -0.1653 -0.0490
 6105W        W10156   4.996   1.670   1.281 -0.2541 -0.4374 -0.1139
 6106W        W10157   0.588   2.008  10.533  0.0801  0.1835 -0.1696
 6107W        W10158   3.934   1.201   3.945 -0.0061  0.1259 -0.0002
 6108W        W10159   0.127   1.658   4.822 -0.1408  0.0317 -0.1072
 6109W        W10160   8.481   4.267  10.726  0.2577  0.1710  0.2123
 6110W        W10161   2.243   9.169   4.338  0.0758 -0.1280 -0.0462
 6111W        W10162   6.917   5.876   0.796 -0.1936 -0.3262  0.0014
 6112W        W10163   6.760   1.521  12.762 -0.1385 -0.1728 -0.0550
 6113W        W10164   3.983   7.407   4.667 -0.0938 -0.0033  0.1444
 6114W        W10165   3.925   5.970  13.672 -0.0137 -0.1674 -0.0073
 6115W        W10166   4.615   1.982  11.557  0.0765  0.0082  0.1529
 6116W        W10167   4.216   1.487   2.920 -0.0825  0.4038 -0.0393
 6117W        W10168   0.476   8.371  10.216 -0.1352  0.0603  0.3351
 6118W        W10169   3.869   6.854  13.741 -0.2759  0.0740 -0.4204
 6119W        W10170   9.133   5.885  11.027 -0.0361  0.0851  0.2186
 6120W        W10171   1.910   3.337   2.824  0.1309  0.2828  0.0389
 6121W        W10172   2.919   3.151  10.634 -0.2051  0.0635 -0.3128
 6122W        W10173   5.474   6.721  11.258 -0.0532 -0.1279 -0.1768
 6123W        W10174   6.993   6.088  10.420  0.3775 -0.1107  0.3827
 6124W        W10175   7.132   6.225   2.645 -0.2424 -0.2018 -0.0826
 6125W        W10176   1.153   2.312   9.914 -0.0234  0.1636 -0.2367
 6126W        W10177   2.313   8.520   0.218 -0.1110 -0.1259 -0.4127
 6127W        W10178   4.297   7.578   3.468 -0.1441  0.2360 -0.2476
 6128W        W10179   9.860   0.349   2.722  0.1368 -0.3010 -0.1353
 6129W        W10180   1.838   0.395   2.287 -0.0078  0.1636  0.0247
 6130W        W10181   2.265   0.338   3.931  0.1395 -0.1904  0.0034
 6131W        W10182   3.959   9.917  11.910  0.1255  0.1923 -0.0157
 6132W        W10183   3.733   7.780   0.480 -0.2335 -0.2138  0.0810
 6133W        W10184   1.627   6.253  13.451  0.4954  0.2053 -0.0895
 6134W        W10185   5.138   2.264   1.924 -0.1256  0.2275 -0.1232
 6135W        W10186   8.375   6.220   1.377 -0.0395  0.0760 -0.3931
 6136W        W10187   0.954   4.162   3.140  0.2730 -0.3128 -0.3945
 6137W        W10188   1.524   5.771  13.214  0.1560  0.2983  0.2316
 6138W        W10189   6.470   4.664   0.906 -0.0178  0.1278  0.0481
 6139W        W10190   4.041   6.577   0.458  0.4439  0.0812  0.0484
 6140W        W10191   0.460   6.548  11.897  0.0099 -0.3009  0.2320
 6141W        W10192   0.731   9.237   9.836 -0.0380  0.2597  0.1734
 6142W        W10193   0.907   3.125   0.243  0.0116 -0.0419 -0.1221
 6143W        W10194   8.656   7.569  10.646  0.2672 -0.0469  0.0334
 6144W        W10195   1.774   9.954   2.550  0.0494 -0.3218  0.1631
 6145W        W10196   4.618   3.785  10.070  0.1458  0.1381 -0.2350
 6146W        W10197   9.251   2.772  13.414  0.2607 -0.0622  0.4797
 6147W        W10198   5.962   9.945  11.698 -0.2469 -0.0202 -0.0343
 6148W        W10199   3.794   6.609   3.664 -0.1961  0.0005  0.0268
 6149W        W10200   9.241   3.919  11.212  0.1086 -0.0368  0.4244
 6150W        W10201   4.880   9.674  12.367 -0.0283 -0.0866  0.1556
 6151W        W10202   7.760   8.330  13.407  0.0721  0.1953 -0.2109
 6152W        W10203   7.660   2.403   2.410  0.1818 -0.1444 -0.1625
 6153W        W10204   4.503   0.917   1.860  0.1507  0.1124  0.2807
 6154W        W10205   3.102   4.605   2.518  0.0893  0.1911  0.1860
 6155W        W10206   1.410   2.564   1.473 -0.0357  0.0617  0.0151
 6156W        W10207   6.233   0.255   0.814 -0.1527  0.0380  0.0083
 6157W        W10208   5.922   9.251  10.476  0.0294  0.0858 -0.1561
 6158W        W10209   1.659   6.645   2.693  0.2311  0.8289 -0.2557
 6159W        W10210   6.503   6.457  11.034  0.0350  0.0373 -0.0490
 6160W        W10211   9.755   1.475  13.337  0.4288 -0.2522  0.0345
 6161W        W10212   9.639   0.257   2.143  0.0815 -0.1305  0.0090
 6162W        W10213   2.068   0.485  10.428 -0.5461 -0.2128  0.1157
 6163W        W10214   5.998   8.583   3.467 -0.2682  0.2150  0.0109
 6164W        W10215   4.575   2.908   9.696  0.0937 -0.1573 -0.2027
 6165W        W10216   9.798   1.723  12.744 -0.1408 -0.2247  0.1406
 6166W        W10217   7.092   9.580   3.466 -0.0288  0.0945 -0.1920
 6167W        W10218   8.301   5.248   1.325  0.0817  0.4299  0.0695
 6168W        W10219   3.980   7.165  10.939  0.0844 -0.0565 -0.0674
 6169W        W10220   8.129   4.415   5.566 -0.2222 -0.3344 -0.0582
 6170W        W10221   2.373   2.950   3.596  0.3942 -0.1817 -0.1269
 6171W        W10222   3.618   0.145  11.675  0.3442 -0.0017 -0.1201
 6172W        W10223   7.735   0.317  10.754 -0.3111 -0.3751  0.0218
 6173W        W10224   1.177   4.661   9.619  0.2568  0.1288 -0.2579
 6174W        W10225   6.666   2.494  11.340  0.0055  0.3902  0.0186
 6175W        W10226   7.816   0.712  14.011  0.2251 -0.1034  0.3794
 6176W        W10227   3.805   0.242  12.544  0.0492 -0.1409  0.0888
 6177W        W10228   1.847   9.067   3.973 -0.2228 -0.0019  0.1396
 6178W        W10229   9.900   9.018  13.140  0.2022 -0.1242  0.1876
 6179W        W10230   0.132   5.685   1.739 -0.1916 -0.1363  0.1112
 6180W        W10231   7.470   2.458   9.045 -0.0447  0.0453 -0.1815
 6181W        W10232   8.441   7.901   0.539  0.1652 -0.0472  0.0128
 6182W        W10233   1.702   5.949   2.880 -0.1478 -0.0073 -0.0948
 6183W        W10234   5.443   1.598  13.688  0.1065  0.1473 -0.0805
 6184W        W10235   0.460   0.389  10.091 -0.2818 -0.1557  0.1443
 6185W        W10236   3.441   1.343   2.441 -0.0017  0.0173  0.3319
 6186W        W10237   8.039   1.892   9.487  0.2604 -0.0393  0.2908
 6187W        W10238   1.274   4.691   5.059 -0.4507 -0.2027  0.1625
 6188W        W10239   0.019   3.299   3.949  0.0731 -0.1893 -0.3772
 6189W        W10240   2.018   7.633  13.899  0.2633  0.0152  0.0182
 6190W        W10241   2.807   1.953  10.004 -0.1980 -0.0289 -0.0287
 6191W        W10242   1.247   5.456  11.947 -0.1365 -0.0917 -0.0044
 6192W        W10243   6.849   6.870  10.897 -0.1295 -0.1334 -0.3177
 6193W        W10244   2.669   7.459  10.475  0.1839  0.4066 -0.0496
 6194W        W10245   9.132   9.563   1.384  0.2435 -0.2452 -0.1211
 6195W        W10246   9.187   2.431   3.792  0.0332 -0.2029  0.0740
 6196W        W10247   5.149   1.573  12.719 -0.1713  0.2619  0.0954
 6197W        W10248   3.725   2.521   1.653  0.1554 -0.1314  0.0980
 6198W        W10249   3.703   5.970   1.823  0.2272  0.0439 -0.4952
 6199W        W10250   5.576   8.316   0.486 -0.1031  0.0571  0.0008
 6200W        W10251   2.023   2.107   9.860 -0.0129  0.1301 -0.4471
 6201W        W10252   4.029   0.878   4.409 -0.0225 -0.0600  0.1316
 6202W        W10253   5.375   5.820  13.132 -0.2974  0.0291 -0.0126
 6203W        W10254   9.854   9.425   4.823  0.1829  0.2460 -0.1841
 6204W        W10255   1.410   2.271  13.179  0.1478 -0.2390  0.2919
 6205W        W10256   2.620   0.586  13.739 -0.1903 -0.0919  0.0569
 6206W        W10257   9.412   3.899  11.670 -0.1428  0.3758  0.1819
 6207W        W10258   8.524   4.225   1.181 -0.1381 -0.0556  0.1304
 6208W        W10259   0.766   5.304  12.034 -0.2104  0.2169 -0.0797
 6209W        W10260   3.249   3.101   0.165  0.2302 -0.0293 -0.0048
 6210W        W10261   3.437   9.423  13.074  0.1039 -0.2895 -0.0970
 6211W        W10262   7.825   7.206  12.944  0.0921  0.2860  0.2607
 6212W        W10263   3.215   4.574  12.650  0.0528 -0.0889 -0.1233
 6213W        W10264   6.896   5.933  13.507 -0.0658  0.5491 -0.0659
 6214W        W10265   8.971   2.066   1.385  0.0946 -0.0867  0.3270
 6215W        W10266   9.966   0.445   1.301 -0.1787  0.2837 -0.0708
 6216W        W10267   0.178   2.569  10.728 -0.0936 -0.1683 -0.1695
 6217W        W10268   1.606   0.712  12.859  0.2603 -0.1128  0.2912
 6218W        W10269   7.825   2.405   0.186  0.0795 -0.2073  0.1896
 6219W        W10270   5.201   4.509   3.933 -0.0567  0.1246  0.1099
 6220W        W10271   3.330   7.282   2.443 -0.1435  0.3898 -0.0127
 6221W        W10272   2.408   2.230   2.931  0.2029 -0.2174 -0.0847
 6222W        W10273   8.752   3.122   0.365 -0.1982 -0.0155 -0.1475
 6223W        W10274   8.170   1.171  11.258 -0.0510 -0.2143  0.2012
 6224W        W10275   9.183   8.781  11.018 -0.1934 -0.0792  0.1676
 6225W        W10276   5.189   6.969   1.209  0.1082 -0.1242 -0.3008
 6226W        W10277   0.091   1.825  10.734  0.1794  0.1086  0.4157
 6227W        W10278   9.471   2.930   0.789 -0.3247 -0.0729 -0.4294
 6228W        W10279   4.975   4.525   4.429  0.0768 -0.3136 -0.2781
 6229W        W10280   2.761   5.058   5.866  0.1851  0.0040  0.1178
 6230W        W10281   2.611   0.925  13.096 -0.0735 -0.2588 -0.3031
 6231W        W10282   9.140   7.921  13.666  0.3029  0.3413 -0.0917
 6232W        W10283   3.444   8.822   1.078  0.1628  0.1452 -0.1398
 6233W        W10284   4.611   8.939   1.520  0.0141 -0.0173 -0.0397
 6234W        W10285   3.028   8.268  13.380 -0.2431 -0.0013  0.1816
 6235W        W10286   1.646   5.046   4.919 -0.0484 -0.2455  0.2896
 6236W        W10287   1.929   6.897   0.566 -0.0684  0.0187  0.1095
 6237W        W10288   3.418   8.051   5.060  0.0075  0.0251 -0.0889
 6238W        W10289   4.641   2.531  12.190  0.1355  0.0613 -0.1381
 6239W        W10290   9.027   4.278   9.679  0.0321 -0.1476 -0.1937
 6240W        W10291   9.215   3.168   3.069 -0.1687  0.1811  0.1535
 6241W        W10292   6.560   8.385   1.791 -0.1275 -0.1809  0.3634
 6242W        W10293   1.586   7.363   0.519  0.1782  0.0944 -0.1715
 6243W        W10294   5.305   0.547   3.529 -0.1023  0.2290  0.1309
 6244W        W10295   5.686   6.750   1.082  0.3002  0.0220 -0.2972
 6245W        W10296   7.989   3.908   9.738  0.3337 -0.2527 -0.0295
 6246W        W10297   9.974   1.782   0.577  0.0318 -0.0246 -0.1424
 6247W        W10298   1.290   5.787   3.168  0.0740 -0.1312 -0.1853
 6248W        W10299   6.331   3.363  12.296  0.1176  0.0884 -0.1219
 6249W        W10300   5.756   4.304  10.913  0.3525  0.1143  0.1227
 6250W        W10301   9.683   2.990   3.012 -0.0627  0.0753 -0.0871
 6251W        W10302   9.212   1.311  11.476  0.1756  0.0410  0.3719
 6252W        W10303   0.279   5.315  12.163  0.4080  0.0561 -0.1292
 6253W        W10304   6.047   1.714   9.907  0.0649  0.2085 -0.0206
 6254W        W10305   7.730   1.494  11.373  0.2635  0.1439 -0.0623
 6255W        W10306   5.171   4.473   9.906 -0.1146 -0.1192  0.0032
 6256W        W10307   2.138   2.790   1.289  0.1469  0.1390 -0.1403
 6257W        W10308   1.826   5.580  10.686  0.1982  0.0121  0.0200
 6258W        W10309   0.074   0.107   0.856 -0.1414  0.2251 -0.0173
 6259W        W10310   6.502   0.937   0.730 -0.4842  0.2678 -0.0344
 6260W        W10311   8.196   2.938   1.062 -0.0085  0.0956 -0.0626
 6261W        W10312   7.265   2.887   9.244 -0.1039 -0.0970  0.2387
 6262W        W10313   3.738   3.282  11.366 -0.1785  0.3566 -0.2266
 6263W        W10314   4.810  10.048  13.926  0.0345  0.2889 -0.1384
 6264W        W10315   2.696   9.583   3.146  0.0583  0.2010  0.0992
 6265W        W10316   4.831  10.075   0.835 -0.0129  0.2081  0.0309
 6266W        W10317   8.710   3.953  11.137  0.1726 -0.1935 -0.1272
 6267W        W10318   1.061   3.056  12.220 -0.2564  0.3090  0.1804
 6268W        W10319   2.309   4.988  12.687  0.2502  0.1536 -0.0802
 6269W        W10320   0.381   2.991  11.105 -0.3364 -0.2852 -0.3139
 6270W        W10321   0.251   0.513   2.997 -0.0465  0.0670 -0.0574
 6271W        W10322   6.722   7.908   2.435 -0.4203  0.1711 -0.1446
 6272W        W10323   5.260   9.583   4.372  0.1620 -0.1857 -0.1036
 6273W        W10324   2.898   1.957   3.011  0.0712  0.0756 -0.1308
 6274W        W10325   3.992   7.187   5.226 -0.1409  0.0725  0.1529
 6275W        W10326   0.536   5.369   9.547  0.0876 -0.0791 -0.1581
 6276W        W10327   1.329   6.467   9.945 -0.4271  0.0554  0.0247
 6277W        W10328   4.832   2.020  10.854 -0.0350  0.0567  0.0010
 6278W        W10329   5.495   0.066   3.221 -0.2446  0.1618  0.4911
 6279W        W10330   8.675   1.752   2.334  0.1541 -0.2662 -0.0358
 6280W        W10331   7.036   3.567   9.525 -0.3589 -0.0206  0.0056
 6281W        W10332   1.812   9.916  12.649 -0.0659 -0.1695  0.0934
 6282W        W10333   1.150   0.503   9.717 -0.0136  0.0560  0.1824
 6283W        W10334   3.999   7.968   3.590 -0.1071 -0.2351 -0.0294
 6284W        W10335   1.177   5.336  12.899  0.1856 -0.0686 -0.0682
 6285W        W10336   1.309   2.587  12.111  0.1061  0.0818 -0.3566
 6286W        W10337   1.080   8.567   3.765  0.5008  0.3447  0.0127
 6287W        W10338   1.414   0.488  13.335 -0.3805  0.3569 -0.1255
 6288W        W10339   4.283   2.223   4.887  0.0982  0.0899  0.0039
 6289W        W10340   6.174   6.977  10.175  0.1825  0.2604  0.2299
 6290W        W10341   9.336   3.859  12.532  0.0007  0.0222  0.1384
 6291W        W10342   2.138   4.315   3.268 -0.0513 -0.0395  0.3830
 6292W        W10343   0.382   1.459  10.902  0.0292 -0.0905  0.1714
 6293W        W10344   3.087   0.120   2.567 -0.1275  0.0582 -0.1038
 6294W        W10345   9.266   6.166  12.194 -0.2456 -0.1862 -0.1616
 6295W        W10346   9.286   4.603   2.557  0.0655  0.0491 -0.1810
 6296W        W10347   2.879   2.058   0.784 -0.0525 -0.0054  0.3312
 6297W        W10348   2.587   1.028   1.604 -0.0424 -0.0209  0.2100
 6298W        W10349   8.150   0.168  10.252 -0.1457 -0.3029  0.0123
 6299W        W10350   5.580   7.392   0.604 -0.1610  0.0771  0.0820
 6300W        W10351   8.759   6.414   1.118  0.3388 -0.2491  0.0882
 6301W        W10352   2.616   9.939   1.559  0.0084  0.1359  0.2327
 6302W        W10353   4.134   1.116   1.525  0.1162  0.3325  0.1357
 6303W        W10354   1.161   3.686   0.657 -0.0715 -0.1431  0.1963
 6304W        W10355   7.924   3.212   1.879 -0.1504  0.2244  0.1677
 6305W        W10356   9.148   9.069   1.188  0.0357  0.0402 -0.1356
 6306W        W10357   7.903   5.246  13.436  0.2534 -0.0203  0.0906
 6307W        W10358   7.582   5.243  13.046  0.1727  0.3435  0.2288
 6308W        W10359   5.934   1.372  13.712  0.1368 -0.1687  0.0283
 6309W        W10360  10.068   6.928   1.268  0.1721 -0.0315 -0.1036
 6310W        W10361   4.242   6.195  13.390 -0.3483  0.1458 -0.0634
 6311W        W10362   4.598   6.454  13.916  0.2147 -0.1174  0.1186
 6312W        W10363   9.310   2.000   1.721  0.0386 -0.1681 -0.2813
 6313W        W10364   9.950   9.680  12.535 -0.1223  0.1150 -0.0280
 6314W        W10365   7.374   3.939   9.857  0.2186 -0.2965  0.0632
 6315W        W10366   3.041   9.720   1.721 -0.1028  0.1118  0.0231
 6316W        W10367   8.442   1.927   3.692  0.2821  0.0593  0.2402
 6317W        W10368   2.093   7.872   2.127 -0.1694 -0.0426  0.0992
 6318W        W10369   4.984   4.512  13.549 -0.3317 -0.1845  0.0954
 6319W        W10370   9.529   0.234   3.848 -0.4968  0.0031  0.1189
 6320W        W10371   9.429   0.431  12.360  0.0623  0.0411  0.0782
 6321W        W10372   1.221   5.065  11.372 -0.0222 -0.1974 -0.2603
 6322W        W10373   6.877   5.532   9.659  0.3334  0.2019 -0.0127
 6323W        W10374   6.944   4.836  12.758  0.1193  0.1099 -0.0409
 6324W        W10375   8.929   1.001  13.086  0.3089 -0.1442  0.1201
 6325W        W10376   5.399   3.711  10.830  0.0189 -0.0180 -0.0705
 6326W        W10377   7.081   9.692  13.229 -0.1377  0.1373 -0.0061
 6327W        W10378   7.694   8.221   0.310 -0.0567  0.1337 -0.1017
 6328W        W10379   7.421   4.453  13.900 -0.1149 -0.1596  0.1010
 6329W        W10380   2.570   6.954   4.879 -0.0033  0.2981 -0.0085
 6330W        W10381   2.531   0.897   5.586  0.1787  0.0679  0.1797
 6331W        W10382   7.288   2.665  13.092  0.2036  0.0753  0.1756
 6332W        W10383   7.582   0.787   1.235 -0.0825 -0.2090 -0.0646
 6333W        W10384   5.503   2.418  12.904 -0.2218 -0.2426  0.1793
 6334W        W10385   3.073   3.636  12.834  0.1047 -0.2239  0.0713
 6335W        W10386   9.328   8.433  12.768  0.1564  0.0417  0.1629
 6336W        W10387   0.000   0.925   0.028 -0.4371  0.1343 -0.1829
 6337W        W10388   3.355   3.760  13.320 -0.0019  0.3008 -0.1713
 6338W        W10389   0.020   9.146   3.421  0.1020 -0.0246 -0.1555
 6339W        W10390   7.244   4.441  12.412 -0.1226  0.1070 -0.1702
 6340W        W10391   6.589   3.983   3.861  0.2037  0.0507  0.2164
 6341W        W10392   6.032   8.007   2.403  0.0134  0.1643 -0.3193
 6342W        W10393   5.596   9.970   4.353  0.0686  0.2203 -0.0291
 6343W        W10394   2.429   2.942   4.654  0.3021  0.0419 -0.2664
 6344W        W10395   2.518   6.879  12.897  0.1350 -0.0089  0.1843
 6345W        W10396   9.310   7.020   1.200  0.1347 -0.0631  0.0934
 6346W        W10397   3.281   8.900   4.962 -0.3851 -0.3001 -0.4767
 6347W        W10398   4.142   1.315  11.900 -0.2865  0.1310 -0.1108
 6348W        W10399  10.095   0.592   4.515 -0.0594 -0.1811 -0.0753
 6349W        W10400   0.080   6.561  12.517 -0.1777 -0.0846 -0.1586
 6350W        W10401   3.474   7.216  11.934 -0.1768  0.2858 -0.0819
 6351W        W10402   2.339   9.124   2.032  0.0440  0.2529 -0.2063
 6352W        W10403   4.917   0.995  13.512 -0.2209 -0.0056  0.2816
 6353W        W10404   6.203   1.248  11.051 -0.3213 -0.0032  0.1381
 6354W        W10405   4.505   5.243   0.720  0.0066 -0.1452 -0.1659
 6355W        W10406   4.416   8.132   1.861  0.1102 -0.0176 -0.2333
 6356W        W10407   3.882   2.794  12.328 -0.0303 -0.0691 -0.4851
 6357W        W10408   9.922   9.859   0.875 -0.1866  0.0360 -0.1529
 6358W        W10409   5.176  10.090  12.714 -0.1472 -0.3169  0.0301
 6359W        W10410   5.102   8.714   0.117  0.1379  0.2902 -0.0804
 6360W        W10411   8.398   6.208   0.838 -0.0772  0.1797  0.0421
 6361W        W10412   2.959   0.239   9.979  0.0728  0.0251 -0.2338
 6362W        W10413   9.066   8.124   9.744 -0.2325 -0.1834  0.1009
 6363W        W10414   6.518   7.163   7.706  0.0908 -0.1782  0.1093
 6364W        W10415   9.247   3.728   0.169  0.2737  0.0752  0.0218
 6365W        W10416   4.611   4.049   0.004  0.4792  0.2010  0.1205
 6366W        W10417   1.611   3.490   0.981 -0.0010  0.1093 -0.2522
 6367W        W10418   7.486   8.444   3.313 -0.1014 -0.5832 -0.2445
 6368W        W10419   9.972   5.135   4.325  0.2946  0.2950  0.0528
 6369W        W10420   0.864   3.498  12.303  0.0192 -0.4662  0.1760
 6370W        W10421   3.119   8.618   4.551 -0.0276 -0.2950 -0.1434
 6371W        W10422   7.800   0.065   0.600  0.1189  0.0586 -0.1561
 6372W        W10423   8.982   0.440   5.313  0.0721  0.0849 -0.0918
 6373W        W10424   0.856   1.564  10.736  0.2801  0.3694  0.0349
 6374W        W10425   5.376   1.910  11.007  0.1197 -0.2749  0.0148
 6375W        W10426   2.853   7.468   2.701 -0.2010 -0.1170 -0.1932
 6376W        W10427   0.766   4.948  11.569  0.2718  0.0768 -0.0255
 6377W        W10428   0.150   7.952   1.913  0.1194  0.0716 -0.0360
 6378W        W10429   5.649   5.805   0.112  0.0877 -0.2065  0.2723
 6379W        W10430   7.543   2.739  13.988 -0.3216 -0.2295  0.3450
 6380W        W10431   1.349   2.391  10.498  0.0393 -0.1443 -0.0548
 6381W        W10432   0.796   2.679  12.407 -0.1443 -0.0359  0.0642
 6382W        W10433   3.235   1.893   3.946 -0.0652  0.4307  0.1652
 6383W        W10434   5.293   0.622  10.472 -0.0034  0.0561  0.0137
 6384W        W10435   8.014   0.288   3.832  0.2421  0.0598 -0.3980
 6385W        W10436   3.236   4.274  13.381 -0.3290  0.1305 -0.0002
 6386W        W10437   7.424   1.044   9.659  0.0291  0.0734  0.0300
 6387W        W10438   1.841   6.565  12.691  0.0154  0.0181  0.2088
 6388W        W10439   0.282   9.836   2.181 -0.0350 -0.0942  0.1548
 6389W        W10440   6.576   1.603  10.908 -0.0442 -0.1549 -0.0916
 6390W        W10441   9.124   8.362   2.808 -0.2794 -0.0061  0.1636
 6391W        W10442   5.592   1.485   9.069 -0.1007 -0.0212 -0.0201
 6392W        W10443   4.572   7.822  13.631 -0.0684  0.3089 -0.3094
 6393W        W10444   8.723   2.944   8.946  0.4687 -0.3244  0.0523
 6394W        W10445   0.113   9.889   1.683  0.2905 -0.1073 -0.3233
 6395W        W10446   6.740   4.812   2.583  0.1697  0.1083  0.2069
 6396W        W10447   0.672   9.651   2.951 -0.3113  0.2927 -0.1376
 6397W        W10448   3.989   5.173   0.768  0.2566 -0.1141 -0.1377
 6398W        W10449   1.765   6.390  10.185  0.2962  0.0930 -0.1877
 6399W        W10450   2.078   8.866   2.798 -0.1355  0.0391  0.1966
 6400W        W10451   4.485   9.147  10.656  0.1396 -0.1009 -0.0057
 6401W        W10452   6.465   1.412   1.714  0.0592 -0.1006 -0.1113
 6402W        W10453   9.002   8.444  11.483  0.0772  0.0974  0.1290
 6403W        W10454   6.149   9.116   0.875 -0.3453  0.0768 -0.0061
 6404W        W10455   1.411   4.389  13.806 -0.2001 -0.0285 -0.0254
 6405W        W10456   1.245   4.543   3.139  0.1480 -0.0908  0.0338
 6406W        W10457   5.367   4.387  11.939 -0.0279  0.0151  0.1482
 6407W        W10458  10.047   6.626   2.333  0.0132  0.1483  0.2092
 6408W        W10459   4.908   0.321   1.436 -0.0074 -0.0579 -0.2364
 6409W        W10460   5.807   4.278  11.483 -0.0070  0.1414 -0.0105
 6410W        W10461   8.771   1.358   0.728  0.3130  0.2184  0.2621
 6411W        W10462  10.098   4.518   3.718  0.1669 -0.1377 -0.0691
 6412W        W10463   1.213   3.938  12.898 -0.1245  0.0057  0.0536
 6413W        W10464   7.597   9.584   3.520 -0.1834 -0.1263 -0.3896
 6414W        W10465   2.301   0.705   9.536  0.0132 -0.2729  0.2926
 6415W        W10466   4.761   1.985  10.310 -0.0414 -0.0944  0.0272
 6416W        W10467   8.622   3.598  13.592 -0.2745 -0.0224  0.0193
 6417W        W10468   0.537   9.136  10.838  0.2153  0.1135 -0.2887
 6418W        W10469   9.548   5.376  10.385 -0.3774  0.0002  0.0767
 6419W        W10470   9.471   0.579  13.177  0.1106 -0.2445  0.1109
 6420W        W10471   4.486   0.242   0.081  0.0422  0.1403 -0.3264
 6421W        W10472   9.279   7.637   2.346 -0.0490  0.3408  0.2137
 6422W        W10473   5.673   6.856  13.115 -0.1643  0.3074 -0.0204
 6423W        W10474   8.044   5.692   3.904  0.2104 -0.2229  0.1508
 6424W        W10475   3.951   8.570  13.501  0.1774 -0.2701  0.0022
 6425W        W10476   1.131   5.351   2.564 -0.5955  0.0507 -0.4277
 6426W        W10477   0.527   5.267  13.571  0.1686  0.0389 -0.1156
 6427W        W10478   2.436   7.588   9.964 -0.1867 -0.2764 -0.2368
 6428W        W10479   3.659   1.712   2.742 -0.0154 -0.0277  0.0226
 6429W        W10480   8.263   6.384  13.821 -0.0849 -0.3189  0.0222
 6430W        W10481   2.458   8.524  13.503 -0.0146 -0.1549  0.0193
 6431W        W10482   6.477   7.700  10.300  0.0030  0.1601  0.0342
 6432W        W10483   5.797   4.980   2.349 -0.0012 -0.1853  0.1817
 6433W        W10484   9.952   5.793   3.001 -0.1166  0.0277  0.0995
 6434W        W10485   4.843   2.877   5.117  0.0989  0.2012  0.0166
 6435W        W10486   3.051   9.419   2.850  0.1680  0.2723  0.0106
 6436W        W10487   3.306   7.385  12.925  0.4484 -0.0246 -0.0803
 6437W        W10488  10.116   1.438   3.381  0.0361 -0.0032 -0.1811
 6438W        W10489   8.206   1.750   3.148 -0.1769  0.1950  0.1769
 6439W        W10490   6.048   1.448   2.173 -0.3010 -0.1537 -0.0127
 6440W        W10491   6.702   0.613  10.615  0.0785 -0.1130 -0.1002
 6441W        W10492   2.840   0.449  12.485  0.2954 -0.0445  0.1368
 6442W        W10493   3.501   4.500   3.403  0.0616 -0.1163  0.1446
 6443W        W10494   9.285   1.156  11.899 -0.1134 -0.0745  0.2575
 6444W        W10495   8.574   4.804   3.820 -0.3365  0.2487 -0.0145
 6445W        W10496   2.521   5.007   3.442 -0.1429 -0.0622  0.1100
 6446W        W10497   1.283   0.107   4.454  0.3752 -0.1031 -0.4269
 6447W        W10498   7.943   2.223   4.641  0.0940  0.1740  0.0260
 6448W        W10499   3.182   3.281   2.026 -0.2038  0.1184  0.1458
 6449W        W10500   1.603   7.160   2.617 -0.2514 -0.3160  0.0623
 6450W        W10501   8.738   9.188   2.317  0.1347 -0.2246 -0.0913
 6451W        W10502   4.353   9.258   3.370 -0.2305  0.2243  0.4309
 6452W        W10503   2.082   5.283   1.918  0.0450 -0.1090 -0.0410
 6453W        W10504   6.191   8.693   2.118 -0.2341  0.1915  0.0971
 6454W        W10505  10.136   6.803   4.253 -0.1282  0.0862 -0.1156
 6455W        W10506   0.278   1.139   1.921  0.1594  0.2619  0.2736
 6456W        W10507   4.183   1.714  12.739 -0.2634  0.3291  0.0185
 6457W        W10508   8.520   2.624  12.629 -0.2189  0.0537 -0.0054
 6458W        W10509   8.460   5.413  11.155 -0.0552 -0.2093  0.0684
 6459W        W10510   6.094   8.245   1.995  0.1461 -0.2276  0.0441
 6460W        W10511   9.661   2.396  11.045  0.3846  0.0169 -0.0875
 6461W        W10512   1.462   6.014  10.455 -0.0856 -0.2361 -0.0883
 6462W        W10513   5.628   0.429  13.740  0.2813  0.1298  0.0832
 6463W        W10514   0.176   6.055  11.111  0.1710  0.0159 -0.0188
 6464W        W10515   7.654   2.294  11.595 -0.2476  0.2332  0.2351
 6465W        W10516   9.454   1.363   8.834 -0.0313 -0.1989 -0.2635
 6466W        W10517   9.643   7.128  14.078 -0.0545  0.1450  0.3317
 6467W        W10518   1.129   6.787   2.807  0.1726  0.2567  0.1427
 6468W        W10519   6.969   5.874   3.739 -0.1188  0.0454 -0.1371
 6469W        W10520   1.980   3.454  13.115 -0.0390 -0.1794 -0.1515
 6470W        W10521   2.565   3.421  12.900 -0.2207 -0.0792  0.0826
 6471W        W10522   0.809   2.053   4.219  0.0841 -0.0293 -0.0081
 6472W        W10523   5.962   1.740   4.366 -0.2557  0.0231  0.0086
 6473W        W10524   1.430   0.192  13.777 -0.3205  0.2385  0.2152
 6474W        W10525   3.485   2.960   0.600  0.0179  0.2477 -0.0510
 6475W        W10526   8.265   4.273   0.783 -0.0942  0.3368  0.1130
 6476W        W10527   4.977   1.787   1.833 -0.1424  0.0253  0.0282
 6477W        W10528   4.171   8.257  14.065  0.0475  0.0872 -0.2298
 6478W        W10529  10.062   6.527  10.394 -0.1641 -0.0736  0.0753
 6479W        W10530   1.963   6.489  11.221  0.0097  0.0673  0.2783
 6480W        W10531   6.543   8.388   2.287 -0.1957  0.0473 -0.0376
 6481W        W10532   2.155   8.549  11.931 -0.1637 -0.0360 -0.1627
 6482W        W10533   5.986   5.920   3.516 -0.1035 -0.0013  0.0578
 6483W        W10534   6.568   1.267  10.494  0.0156  0.2119 -0.0842
 6484W        W10535   4.517   9.153   0.063  0.0340  0.2544 -0.0953
 6485W        W10536   7.805   5.589  13.836 -0.0137 -0.0476 -0.1116
 6486W        W10537   1.705   8.137   9.921 -0.3801  0.2415  0.0542
 6487W        W10538   9.848   7.753   9.930  0.0889  0.0694  0.0020
 6488W        W10539   1.025   3.603   0.088 -0.1496  0.0394 -0.4307
 6489W        W10540   5.058   6.435   2.902  0.2587 -0.3663 -0.1136
 6490W        W10541   2.061   1.269   4.328 -0.0669 -0.3085 -0.2126
 6491W        W10542   8.886   5.895   1.841 -0.1958  0.2305  0.1565
 6492W        W10543   8.479   1.967  11.749  0.1754 -0.2497 -0.1521
 6493W        W10544   3.508   9.408   2.963 -0.2487  0.0140 -0.3200
 6494W        W10545   5.435   0.545   3.036  0.0681  0.2662 -0.0957
 6495W        W10546   7.497   2.358   5.186  0.0853  0.1729  0.1398
 6496W        W10547   2.856   7.367   4.725  0.0375 -0.0620 -0.0412
 6497W        W10548   9.678   9.497   2.677  0.1961  0.1358  0.2441
 6498W        W10549   7.633   5.033   0.193 -0.3125 -0.0827 -0.1476
 6499W        W10550   4.452   6.531   2.866  0.0884  0.1715 -0.3677
 6500W        W10551   0.796   2.537   3.480  0.1214  0.0145 -0.1316
 6501W        W10552   4.630   0.272  10.305 -0.1999 -0.0367 -0.1896
 6502W        W10553   5.488   7.727   4.122 -0.1559  0.2922  0.0362
 6503W        W10554   6.244   5.278  13.627  0.2328  0.0393 -0.2413
 6504W        W10555   7.024   0.362   2.871 -0.0091 -0.1832  0.1381
 6505W        W10556   6.112   0.809   4.406  0.0287 -0.0374 -0.0315
 6506W        W10557   9.811   1.919  11.069  0.1771  0.0869  0.2209
 6507W        W10558   5.171   6.580   2.014 -0.1164  0.0556 -0.2976
 6508W        W10559   5.770   6.397   3.454 -0.1457 -0.0359 -0.1399
 6509W        W10560   0.014   0.508   4.046 -0.0611 -0.0205 -0.0592
 6510W        W10561   1.411   6.907   0.520  0.0247 -0.1548  0.2928
 6511W        W10562   3.183   2.166  10.370 -0.2513 -0.3018  0.1664
 6512W        W10563   0.229   4.852  11.625  0.3391 -0.4028 -0.3916
 6513W        W10564   3.129   0.534  11.194  0.0990 -0.3183  0.0863
 6514W        W10565   5.738   7.139  11.278 -0.1810 -0.3756  0.0644
 6515W        W10566   1.340   1.325   1.176  0.0828 -0.0569 -0.0692
 6516W        W10567   4.230   7.227   1.241  0.2318 -0.1992 -0.3377
 6517W        W10568   5.028   0.112   2.922 -0.1268 -0.1668 -0.1023
 6518W        W10569   5.989   2.152   4.620  0.3077 -0.2110  0.0373
 6519W        W10570   3.497   4.242  11.700 -0.1717 -0.0992  0.0788
 6520W        W10571   1.646   7.242   3.914 -0.0339  0.1768  0.0106
 6521W        W10572   3.648   0.574   1.273 -0.1454 -0.1159  0.1749
 6522W        W10573   2.014   3.882  13.530  0.0442 -0.1517 -0.2521
 6523W        W10574   8.435   7.377   3.138  0.0357 -0.1987  0.3396
 6524W        W10575   8.796   2.348   0.594  0.0313  0.0281  0.1598
 6525W        W10576   3.176   5.439   3.798 -0.0054  0.2981 -0.1180
 6526W        W10577  10.053   1.857   2.550 -0.1178  0.1521  0.1549
 6527W        W10578   6.372   8.530  11.772  0.2680 -0.1932 -0.2004
 6528W        W10579   2.177   3.370   3.900  0.3242 -0.1316 -0.2992
 6529W        W10580   4.302   5.145  13.514 -0.1793 -0.1853 -0.0763
 6530W        W10581   3.539   0.530  12.203  0.0257  0.0530  0.1668
 6531W        W10582   2.503   7.913  11.253  0.2187 -0.1731 -0.0805
 6532W        W10583   8.996   1.954  10.028 -0.2824 -0.1376  0.1477
 6533W        W10584   4.987   4.425   2.857  0.0546 -0.2955 -0.2821
 6534W        W10585   0.425   3.092  13.792  0.3058  0.1266 -0.0480
 6535W        W10586   1.132   0.917   1.288  0.3325 -0.0621  0.2887
 6536W        W10587   2.273   1.961   4.853 -0.0128  0.0304 -0.1062
 6537W        W10588   9.883   1.117  12.976 -0.0412 -0.0724  0.0925
 6538W        W10589   5.853   0.394   1.794  0.0431 -0.0470  0.0234
 6539W        W10590   6.595   8.988  12.005 -0.1534 -0.0870  0.1671
 6540W        W10591   5.027   7.000  11.054  0.0752  0.1407  0.1005
 6541W        W10592   8.508   9.757  11.839  0.1009  0.3918 -0.0154
 6542W        W10593   0.507   2.330  12.218  0.1574 -0.0380 -0.0874
 6543W        W10594   1.523   2.005   4.352 -0.0347  0.0679  0.0886
 6544W        W10595   8.352   8.038   1.224  0.1871  0.0818  0.0796
 6545W        W10596   0.970   5.346   3.036 -0.1848 -0.0397  0.0171
 6546W        W10597   0.598   7.833  12.792 -0.1120 -0.0135  0.0737
 6547W        W10598   3.925   9.693   0.090 -0.0664 -0.2074  0.0033
 6548W        W10599   1.623   6.057   0.396  0.1525  0.2884 -0.1821
 6549W        W10600   3.956   8.936  10.517  0.1725 -0.2617  0.1920
 6550W        W10601   5.804   8.576   0.060 -0.0432  0.2849 -0.0729
 6551W        W10602   3.564   8.947  11.061 -0.0483 -0.1404 -0.1773
 6552W        W10603   6.708   1.875   1.409  0.0523 -0.2986 -0.3940
 6553W        W10604   8.867   4.683  10.136  0.2383 -0.0350 -0.4267
 6554W        W10605   9.135   8.307   1.313  0.0057  0.1634  0.2474
 6555W        W10606   8.106   5.199   2.705  0.0967 -0.1207  0.4177
 6556W        W10607   8.266   0.746  10.119  0.0192 -0.2991  0.0575
 6557W        W10608   1.394   1.153   3.256  0.0341 -0.0976 -0.1107
 6558W        W10609   6.423   5.146   4.789 -0.0664  0.0180 -0.1259
 6559W        W10610   7.962   3.643   9.274 -0.1415 -0.1096 -0.1108
 6560W        W10611   3.624   1.416   1.924  0.2770 -0.1662 -0.4394
 6561W        W10612   2.167   2.801   5.284 -0.0751 -0.1530  0.0294
 6562W        W10613   5.099   5.332  12.978 -0.0169  0.1917  0.0201
 6563W        W10614   8.669   4.636   0.459  0.0105  0.0531  0.2535
 6564W        W10615   4.786   3.630  12.844  0.0580  0.0080  0.3646
 6565W        W10616   9.430   7.607   0.358 -0.1156  0.0940  0.3331
 6566W        W10617   2.722   5.016  10.066 -0.0314  0.2930 -0.2788
 6567W        W10618   4.059  10.006   1.144 -0.0176 -0.1999 -0.2462
 6568W        W10619   2.204   4.845   2.432  0.2685  0.0024  0.0264
 6569W        W10620   5.947  10.080  10.990 -0.1227  0.1853  0.3299
 6570W        W10621   4.242   8.869  13.821  0.4129  0.2110 -0.0739
 6571W        W10622   3.935   1.381  10.541  0.0444  0.2430 -0.1390
 6572W        W10623   2.713   7.445  11.444 -0.0946 -0.1041  0.0064
 6573W        W10624   3.193   8.787  14.045 -0.3531 -0.0281 -0.0038
 6574W        W10625   4.406   2.053   0.717  0.1406  0.1814  0.1670
 6575W        W10626   5.545   2.017   0.527  0.1306  0.3708 -0.0872
 6576W        W10627   2.656   6.808   9.708 -0.0250 -0.0024  0.0057
 6577W        W10628   9.824   4.936  12.496 -0.0352  0.2118  0.0725
 6578W        W10629   0.806   5.303   1.139  0.0573 -0.0531  0.1112
 6579W        W10630   5.879   5.053   4.198  0.0023 -0.0349  0.3352
 6580W        W10631   0.757   5.083   3.978 -0.1818  0.2307 -0.1891
 6581W        W10632   1.512   8.578   3.499  0.0152  0.1256  0.0222
 6582W        W10633   2.993   8.794   4.141 -0.2730 -0.0032  0.1137
 6583W        W10634   5.456   3.787   0.073  0.0276  0.1306 -0.0978
 6584W        W10635   9.005   1.987   2.871 -0.3231 -0.0387  0.1236
 6585W        W10636   7.650   7.493   1.890 -0.0675 -0.1278  0.0851
 6586W        W10637   6.510   1.125   2.791 -0.0432  0.1588 -0.2644
 6587W        W10638   6.865   0.676  12.283 -0.3114 -0.2548 -0.1899
 6588W        W10639   1.096   2.353  13.783  0.1620  0.2176 -0.1499
 6589W        W10640   3.906   0.035  11.277 -0.3210  0.3161 -0.1700
 6590W        W10641   9.115   5.548  10.108 -0.4023  0.0921  0.0422
 6591W        W10642   1.323   2.296   3.944  0.1423  0.0019 -0.0387
 6592W        W10643   5.444   2.992   4.451  0.0654  0.0265 -0.3452
 6593W        W10644   8.236   7.631  11.728  0.1224  0.1236  0.1546
 6594W        W10645   8.789   4.489  14.044 -0.2350  0.0907 -0.0877
 6595W        W10646   9.440   5.065   4.452  0.1393 -0.1315 -0.0776
 6596W        W10647   7.993   9.868  12.126  0.1445 -0.2252 -0.1636
 6597W        W10648   6.645   9.475  13.575 -0.2284  0.1504 -0.2918
 6598W        W10649   7.608   2.190  12.041  0.0200 -0.0158 -0.2976
 6599W        W10650   0.918   0.783   0.333 -0.0784 -0.1484  0.0302
 6600W        W10651   5.409   4.146   4.242 -0.1360  0.0895 -0.0503
 6601W        W10652   2.702   3.675  11.281  0.1023  0.2401  0.1992
 6602W        W10653   7.478   7.495  13.375  0.5655 -0.0090 -0.0828
 6603W        W10654  10.074   3.621   0.256 -0.0061 -0.0328 -0.0735
 6604W        W10655   9.712   5.381   1.643  0.0647  0.1995 -0.1461
 6605W        W10656   9.203   0.671   1.989 -0.0919 -0.0199  0.0014
 6606W        W10657   1.840   8.631   0.208 -0.1058 -0.1055  0.1570
 6607W        W10658   7.522   8.243  12.991  0.1202  0.3722  0.1632
 6608W        W10659   5.309   0.658   9.921 -0.2503 -0.0677  0.3591
 6609W        W10660   1.460   6.524   3.807 -0.0404 -0.0577  0.3705
 6610W        W10661   3.071   4.309   3.453  0.0451 -0.2961  0.3334
 6611W        W10662   2.333   2.616  13.440 -0.1804 -0.2310 -0.0453
 6612W        W10663   7.849   7.740  11.459 -0.0098 -0.2914 -0.1099
 6613W        W10664  10.060  10.124  14.055 -0.0005  0.0387 -0.1364
 6614W        W10665   5.525   1.162   0.757 -0.4380 -0.1367 -0.4926
 6615W        W10666   1.865   7.127  12.856  0.0079 -0.0157 -0.0551
 6616W        W10667   4.218   2.531  13.641 -0.0021 -0.1586 -0.1841
 6617W        W10668   7.922   9.126   0.647 -0.0928 -0.0498  0.0072
 6618W        W10669   7.165   0.928  13.362 -0.0100 -0.4585  0.0465
 6619W        W10670   3.202   5.470   0.799 -0.0987 -0.2694 -0.2238
 6620W        W10671   1.597   2.146   9.561  0.0885  0.0263 -0.0976
 6621W        W10672   1.687   1.185  12.829 -0.2036 -0.1011 -0.0900
 6622W        W10673   1.752   4.923  10.735  0.0802  0.2558 -0.0442
 6623W        W10674   3.431  10.035  11.225  0.0373 -0.2467 -0.0393
 6624W        W10675   8.748   0.383   2.486 -0.0717  0.0311  0.3777
 6625W        W10676   1.837   9.124  13.789  0.1847  0.3379  0.4688
 6626W        W10677   8.286   5.075  11.774  0.0492 -0.2408 -0.2312
 6627W        W10678   1.798   4.567   2.286  0.3770  0.1300 -0.3233
 6628W        W10679   9.444   4.867   9.191 -0.0915  0.0986  0.2011
 6629W        W10680   5.676   8.408   1.034  0.0479 -0.0107  0.1162
 6630W        W10681   3.916   0.140   3.085 -0.1305  0.3646 -0.2177
 6631W        W10682   2.251   1.788   4.064 -0.0787  0.3529  0.0246
 6632W        W10683   2.266   3.031   9.622 -0.0578  0.2113 -0.0305
 6633W        W10684   3.156   6.456  13.961 -0.0509  0.0835 -0.2104
 6634W        W10685   0.912   2.791   2.543  0.0972 -0.2883 -0.1352
 6635W        W10686   9.356   2.303   9.795 -0.1287 -0.4262 -0.0215
 6636W        W10687   0.143   5.123   9.307 -0.1960  0.2533 -0.0047
 6637W        W10688   7.404   1.288   0.490 -0.0739  0.2698  0.2444
 6638W        W10689   0.736   0.042  10.364  0.2630  0.1798  0.0683
 6639W        W10690   3.188   0.913   2.364 -0.1471 -0.4322  0.3339
 6640W        W10691   2.763   5.727   4.623  0.2922 -0.0014 -0.5606
 6641W        W10692   2.736   4.498  13.475 -0.2524  0.0088  0.0971
 6642W        W10693   1.123   3.704  11.516 -0.0494 -0.0777  0.1713
 6643W        W10694   2.333   1.743   9.933 -0.4438  0.1620 -0.2787
 6644W        W10695   4.702   7.157   3.413 -0.0172 -0.0148  0.0486
 6645W        W10696   1.607   5.622  11.632 -0.1637 -0.0575  0.1935
 6646W        W10697   7.203   2.676   4.949 -0.1515 -0.1719 -0.0882
 6647W        W10698   2.181   4.965   1.442 -0.0223 -0.1381  0.1723
 6648W        W10699   8.571   3.303   0.769 -0.2647 -0.1073  0.0057
 6649W        W10700   4.958   5.252  11.419 -0.0229 -0.0362  0.0075
 6650W        W10701   4.321   1.595   1.423 -0.4966  0.1081 -0.2819
 6651W        W10702   1.947   5.159  13.024 -0.1224 -0.3158 -0.2478
 6652W        W10703   6.700   1.659   9.967  0.0429  0.2559 -0.2121
 6653W        W10704   1.333   5.644   3.644  0.3647 -0.1393 -0.0508
 6654W        W10705  10.045   2.800   9.424 -0.1562  0.0131 -0.0160
 6655W        W10706   5.088   2.461  13.799  0.1857 -0.1041 -0.0383
 6656W        W10707   5.340   4.004  11.269 -0.2707  0.0787  0.1272
 6657W        W10708   1.466   0.161   1.924  0.0155  0.0236 -0.1795
 6658W        W10709   0.553   8.305   1.774  0.3257 -0.0433 -0.2268
 6659W        W10710   8.780   0.035   2.793 -0.1941  0.0042  0.1397
 6660W        W10711   0.638   5.563  13.208 -0.1788  0.1299  0.0559
 6661W        W10712   5.326   9.299   0.710 -0.1269 -0.2680 -0.1501
 6662W        W10713   1.520   1.102   5.830  0.0489 -0.2908  0.1822
 6663W        W10714   7.684   8.082  11.866  0.0665 -0.2710 -0.1468
 6664W        W10715   1.946   3.690  12.344 -0.0267 -0.0159 -0.1665
 6665W        W10716   8.491   7.416  10.225 -0.2674  0.2199 -0.1692
 6666W        W10717   7.943   5.648   2.913  0.1986  0.0340 -0.0322
 6667W        W10718   3.597   4.615  13.036 -0.0421  0.0886  0.1075
 6668W        W10719   2.993   3.801   3.538  0.0229 -0.1352  0.2562
 6669W        W10720   5.413   2.641   2.142  0.0497 -0.1406 -0.1877
 6670W        W10721   3.844   6.756  12.602  0.3674  0.0361  0.0380
 6671W        W10722   4.676   0.912   3.406 -0.2039 -0.1206  0.0630
 6672W        W10723  10.090   3.248  12.658  0.1931 -0.0245  0.1689
 6673W        W10724   7.019   9.084  11.877  0.1985 -0.3754  0.0327
 6674W        W10725   5.842   9.643  13.763 -0.0214  0.0747  0.1243
 6675W        W10726   8.774   3.482  11.028 -0.3417 -0.0787  0.0215
 6676W        W10727   8.944   5.675   2.894 -0.1723  0.2668  0.1419
 6677W        W10728   3.736   9.129  10.067 -0.2578 -0.1573 -0.1609
 6678W        W10729   8.141   4.580  10.995  0.4356  0.1247 -0.1187
 6679W        W10730   7.272   7.745  12.396  0.0380 -0.2337  0.1962
 6680W        W10731   8.751   5.084  11.553  0.0891 -0.2248 -0.1542
 6681W        W10732   6.605   4.439  10.762  0.5140  0.0149 -0.0325
 6682W        W10733   6.443   1.454   5.510 -0.1465  0.1079  0.3229
 6683W        W10734   0.995   4.560   2.093 -0.0243  0.0890  0.0460
 6684W        W10735   6.082   2.231   0.959 -0.0509 -0.2206  0.3617
 6685W        W10736   4.745   5.476   1.879  0.0168  0.1864 -0.2747
 6686W        W10737   8.399   0.962   3.410 -0.0460 -0.0328  0.3131
 6687W        W10738   9.307   0.354  13.874 -0.0771 -0.0239  0.1763
 6688W        W10739   0.054   0.522   3.564  0.3712 -0.0653  0.2574
 6689W        W10740   0.465   5.083   3.296  0.0641  0.1287  0.1849
 6690W        W10741  10.138  10.138  12.662  0.2759 -0.0564 -0.3096
 6691W        W10742   1.861   3.004   0.323  0.1098  0.0559  0.2622
 6692W        W10743   8.488   3.396   1.326 -0.5214  0.4147  0.1639
 6693W        W10744   8.858   1.252   2.137 -0.1328  0.1842 -0.1608
 6694W        W10745   7.310   9.970  12.620 -0.0142 -0.0277 -0.0083
 6695W        W10746   6.047   4.456   0.642  0.2822  0.1940 -0.0664
 6696W        W10747   3.957   2.659   9.990  0.1442  0.0973 -0.1768
 6697W        W10748   0.726   4.921   0.800  0.1214 -0.4004 -0.0124
 6698W        W10749   7.731   6.320  12.651  0.2788 -0.0522 -0.0543
 6699W        W10750   0.529   1.100   4.587 -0.0317  0.2091  0.2911
 6700W        W10751   0.768   7.835   3.486  0.0633  0.1592 -0.1765
 6701W        W10752   2.340   7.248  12.636  0.1529 -0.3005  0.1624
 6702W        W10753   1.922   7.979   1.622 -0.3851  0.1755 -0.1143
 6703W        W10754   6.255   3.941   5.094  0.0782 -0.3997  0.1585
 6704W        W10755   9.207   1.892   3.892  0.3266 -0.0421 -0.1118
 6705W        W10756  10.046   6.541   9.733 -0.3640  0.0996 -0.1706
 6706W        W10757   5.676   0.971   4.769  0.0494  0.1981  0.2843
 6707W        W10758   2.956   7.291   0.341 -0.0140  0.1390  0.1143
 6708W        W10759   8.198   1.798  12.283  0.0505  0.2949  0.0124
 6709W        W10760   3.657   9.902   2.929 -0.0450 -0.1513  0.1771
 6710W        W10761   4.301   6.761   0.091  0.0168  0.1034 -0.1609
 6711W        W10762   0.385   5.542  12.821 -0.1139 -0.1785  0.2551
 6712W        W10763   4.822   8.201  14.006 -0.2928  0.0458 -0.3239
 6713W        W10764   5.807   9.867   1.615 -0.1726 -0.0389  0.1059
 6714W        W10765   1.473   1.621  12.736  0.0486 -0.3454  0.2485
 6715W        W10766   4.555   0.522  10.721 -0.0482  0.2021 -0.1211
 6716W        W10767   9.317   9.897   4.045  0.1654  0.2969  0.0344
 6717W        W10768   7.314   0.205   0.493  0.0624 -0.0681  0.1546
 6718W        W10769   3.162   2.457   1.562  0.0611  0.1654 -0.0083
 6719W        W10770   3.730   4.929  11.108 -0.2987  0.1489  0.3097
 6720W        W10771   2.487  10.028   3.004 -0.0991  0.2854 -0.1561
 6721W        W10772   8.341   4.589   4.339  0.2071 -0.0434  0.0019
 6722W        W10773   6.955   8.530  14.040 -0.0906 -0.0732 -0.0922
 6723W        W10774   5.015   0.969  11.229  0.5881  0.3662 -0.1849
 6724W        W10775   7.014   1.366   1.375  0.0652 -0.1462 -0.0897
 6725W        W10776   8.040   3.384  12.785 -0.1710  0.1857 -0.0430
 6726W        W10777   0.858   4.896  13.676 -0.3914  0.0299  0.0963
 6727W        W10778   8.614   9.416   3.799 -0.0031 -0.0375 -0.0354
 6728W        W10779   2.518   1.117   9.653  0.5000  0.0307  0.1386
 6729W        W10780   2.340   0.471   1.300 -0.0206 -0.1938  0.0393
 6730W        W10781   8.724   7.889   2.842 -0.1057 -0.0879 -0.0048
 6731W        W10782   9.202   3.171   2.122 -0.1550  0.1620  0.1340
 6732W        W10783   6.294   6.212  12.749 -0.2109 -0.0180 -0.4999
 6733W        W10784   4.652   6.829   1.263 -0.0092  0.1044  0.0332
 6734W        W10785   9.934   4.328   0.011  0.1737 -0.1145  0.0042
 6735W        W10786   9.820   1.941  11.687 -0.0733 -0.3715 -0.1236
 6736W        W10787   3.973   9.368   4.481  0.2012  0.3639 -0.0001
 6737W        W10788   3.661   3.357   1.690  0.0196  0.2053  0.2026
 6738W        W10789   3.122   2.928   9.749 -0.1488 -0.2428 -0.2926
 6739W        W10790   9.366   3.719   3.557  0.1017 -0.0996  0.0870
 6740W        W10791   9.454   0.813  12.735 -0.0366 -0.0126 -0.0121
 6741W        W10792   1.642   9.835   3.491 -0.0249  0.0239 -0.0515
 6742W        W10793   1.099   9.948   3.703  0.2887 -0.0583 -0.1710
 6743W        W10794   0.752   7.354  10.172  0.2800  0.1782 -0.1120
 6744W        W10795   0.919   5.333  11.028 -0.1832 -0.2176 -0.2673
 6745W        W10796   5.767   4.058   2.588 -0.4427 -0.1057  0.0241
 6746W        W10797   1.226   1.028  12.966 -0.0218 -0.1507 -0.0097
 6747W        W10798   0.315   1.968   4.471  0.3989  0.1568  0.1236
 6748W        W10799   5.392   4.914  12.119 -0.1997 -0.0137 -0.0896
 6749W        W10800   8.871   5.622  11.389  0.0337  0.1491  0.2175
 6750W        W10801   7.976   8.927  11.275  0.0503  0.1060  0.0694
 6751W        W10802   4.011   7.764   1.577  0.2025  0.0502  0.0995
 6752W        W10803   9.691   0.750   0.853 -0.0358 -0.0198  0.2968
 6753W        W10804   8.661   1.051   1.787 -0.1993  0.0945  0.0069
 6754W        W10805   6.228   9.912  13.845  0.0087 -0.0610 -0.0267
 6755W        W10806   8.989   0.562   2.844  0.2116  0.0293 -0.0868
 6756W        W10807   6.443   1.251   4.182 -0.2012  0.1740  0.1498
 6757W        W10808   2.207   5.922  12.383  0.1907 -0.1712 -0.1625
 6758W        W10809   8.623   5.143   9.438 -0.0763 -0.0037  0.2263
 6759W        W10810   3.209   7.543   1.080 -0.1921 -0.0182 -0.0466
 6760W        W10811   4.635   9.354   2.509  0.1112  0.0610  0.2810
 6761W        W10812   6.439   5.657   0.459  0.2361  0.1230  0.0020
 6762W        W10813   8.194   4.785   3.503  0.2139 -0.1345 -0.2181
 6763W        W10814   0.382   9.814  13.238 -0.3007 -0.1520 -0.0088
 6764W        W10815   3.871   1.879   4.816  0.0208  0.1407 -0.0517
 6765W        W10816   2.031   2.253   5.198 -0.1645  0.2406 -0.0458
 6766W        W10817   5.895   2.568  11.708  0.2975  0.2898 -0.0110
 6767W        W10818   1.948   7.161   1.346  0.0174 -0.0905 -0.1471
 6768W        W10819   4.591  10.057  10.593  0.0812 -0.0712 -0.0947
 6769W        W10820   3.390   8.288   3.184 -0.0512  0.0859  0.0579
 6770W        W10821  10.092   6.502   0.676 -0.1310 -0.0132  0.0547
 6771W        W10822   9.999   6.925  11.064 -0.0117  0.0872  0.0139
 6772W        W10823   0.936   6.905  12.757 -0.0662 -0.2076  0.0259
 6773W        W10824   6.210   5.355   4.392  0.3092 -0.3454  0.1748
 6774W        W10825   8.455   0.930   2.314  0.1520  0.0095  0.1174
 6775W        W10826   1.142   3.617  11.006 -0.0043  0.3981  0.1423
 6776W        W10827   1.465   2.623  14.025  0.1115  0.2471 -0.2592
 6777W        W10828   1.471   2.795  11.282  0.0297 -0.1389  0.0236
 6778W        W10829   6.026   8.066   0.352 -0.1843 -0.1377  0.2284
 6779W        W10830   3.317   7.580   4.808 -0.1320 -0.1026  0.2541
 6780W        W10831   3.629   5.549   0.027  0.1844 -0.0881 -0.2286
 6781W        W10832   0.748   5.332   4.847  0.1627  0.1908 -0.2367
 6782W        W10833   3.642   6.356   2.118 -0.0961  0.0960 -0.0223
 6783W        W10834   5.432   0.322  10.806 -0.0236  0.1465  0.1265
 6784W        W10835   8.140   4.317   2.054 -0.0772 -0.0574  0.2426
 6785W        W10836   4.296   6.825  12.813  0.2269 -0.0435  0.1585
 6786W        W10837   3.362   3.832   1.255 -0.0624 -0.0484 -0.0287
 6787W        W10838   9.024   1.968  12.106  0.1108 -0.1045 -0.0197
 6788W        W10839   2.411   4.303   4.319 -0.2945  0.0447 -0.0746
 6789W        W10840   6.601   0.291  10.182  0.0847 -0.1645  0.0358
 6790W        W10841   0.139   4.624   0.016 -0.1271  0.0684 -0.2510
 6791W        W10842   8.564   1.169   1.167 -0.1800 -0.2547  0.0078
 6792W        W10843   7.791   5.896   0.784  0.0996 -0.3336  0.1165
 6793W        W10844   0.282   4.507  10.308 -0.0307  0.2082  0.0806
 6794W        W10845   7.235   2.733  11.243  0.0330 -0.0251  0.0946
 6795W        W10846   8.708   1.074  12.509 -0.0492  0.0606  0.2706
 6796W        W10847   2.314   3.575   1.604  0.0891  0.0213  0.0444
 6797W        W10848   6.382   5.380  10.873 -0.0022 -0.1515  0.4702
 6798W        W10849   8.002   6.730  12.887  0.1341  0.0520 -0.1499
 6799W        W10850   3.131   4.263  10.467 -0.1163 -0.1033  0.0413
 6800W        W10851   3.323   0.954   1.221 -0.2689  0.0383 -0.0365
 6801W        W10852   4.316   0.950  12.836  0.1456 -0.0136 -0.1615
 6802W        W10853   6.832   4.286   2.549 -0.0272 -0.0872 -0.0698
 6803W        W10854   0.976   3.362   1.758 -0.1172 -0.1867 -0.1708
 6804W        W10855   3.913   9.340   0.527 -0.0370 -0.0043  0.4236
 6805W        W10856   9.787   9.481  11.900 -0.1123 -0.3014 -0.0411
 6806W        W10857   5.282   5.575  11.183 -0.0098  0.0569 -0.0247
 6807W        W10858   4.330   4.843  13.140  0.3539  0.0935 -0.0409
 6808W        W10859   2.379   5.589   0.489 -0.2264 -0.0265  0.2605
 6809W        W10860   1.584   9.335   3.298  0.3556 -0.0470 -0.0203
 6810W        W10861   4.977   3.416  10.830  0.3032 -0.1699 -0.0370
 6811W        W10862   4.194   7.052   3.512  0.0654 -0.1737 -0.4301
 6812W        W10863   2.146   3.683   1.127  0.1432 -0.2858  0.1534
 6813W        W10864   0.893   5.684   1.465 -0.0581 -0.0535  0.4711
 6814W        W10865   9.910   6.020   2.568 -0.2495 -0.1896 -0.2033
 6815W        W10866   2.920   5.841  11.263 -0.2184  0.1985 -0.1004
 6816W        W10867   0.343   4.228   3.970  0.0977 -0.0398 -0.0618
 6817W        W10868   0.153   3.747   8.820 -0.1909  0.1336 -0.4516
 6818W        W10869   9.376   7.605  13.329  0.0761 -0.1083 -0.0301
 6819W        W10870   3.039   3.002  13.771 -0.2519  0.2878  0.1920
 6820W        W10871   6.547   9.771   2.993  0.0468 -0.4128 -0.1177
 6821W        W10872   8.352   6.146  11.517 -0.0100  0.0833  0.2898
 6822W        W10873  10.103   9.854  10.629  0.1061  0.1604 -0.0805
 6823W        W10874   2.790   2.090   3.753 -0.3542 -0.4050 -0.0192
 6824W        W10875   2.698   8.270   3.436 -0.1403 -0.2206 -0.0793
 6825W        W10876   5.101   3.573  11.323  0.1535  0.1906  0.3124
 6826W        W10877   8.616   3.875  13.155  0.1326  0.1206  0.2849
 6827W        W10878   8.192   0.407   4.300 -0.0628  0.3033  0.0008
 6828W        W10879   8.005   2.998  13.910  0.0944  0.1969  0.1420
 6829W        W10880   2.482   7.473   5.078  0.0910 -0.1060  0.0440
 6830W        W10881   9.525   4.899   0.549  0.4837 -0.1726 -0.1185
 6831W        W10882   3.153   5.143  12.927  0.1121  0.2228 -0.0451
 6832W        W10883   2.768   3.179   3.885  0.1909 -0.0070 -0.0384
 6833W        W10884   7.218  10.030   2.787  0.1791 -0.0046 -0.0442
 6834W        W10885   5.541   0.401  12.885  0.3162  0.1243  0.1488
 6835W        W10886   6.760   8.552  13.565 -0.0352  0.1149 -0.1887
 6836W        W10887   6.922   8.397   1.393  0.0587  0.1689  0.2881
 6837W        W10888   4.183   3.982   1.265  0.1611  0.1943  0.0783
 6838W        W10889   6.082   7.761  11.221  0.2607  0.2239  0.0414
 6839W        W10890   2.073   5.467  10.297  0.1694  0.1437 -0.1550
 6840W        W10891   4.915   9.873   1.370  0.2551  0.1108  0.2101
 6841W        W10892   9.351   5.760   3.444 -0.0867  0.2443 -0.1966
 6842W        W10893   1.290   7.918   9.727  0.2282 -0.0379 -0.0780
 6843W        W10894   8.779   8.605  11.927  0.3059  0.0236 -0.2556
 6844W        W10895   7.293   3.364   3.221 -0.0549 -0.0169 -0.0091
 6845W        W10896   8.710   5.188  13.875  0.0952 -0.0974 -0.0548
 6846W        W10897   1.285   6.397  11.982  0.2000  0.0805 -0.2865
 6847W        W10898   8.984   2.524   4.694 -0.2550  0.1743 -0.4576
 6848W        W10899   1.138   9.650   5.050 -0.1285 -0.0953  0.0776
 6849W        W10900   4.450   3.052   5.563  0.2746 -0.2953  0.1726
 6850W        W10901   4.893   3.649   2.197  0.0516  0.3566  0.0274
 6851W        W10902   5.877  10.143  12.603  0.5411  0.1375  0.1014
 6852W        W10903   2.441   6.284   3.147 -0.2088 -0.0335 -0.2888
 6853W        W10904   0.237   2.018  13.116 -0.2107 -0.0093 -0.1147
 6854W        W10905   2.850   1.297   1.238 -0.2871 -0.3026 -0.2258
 6855W        W10906   6.631   9.878  11.486 -0.0320  0.3500 -0.0152
 6856W        W10907   6.937   1.620   1.814 -0.0945  0.0111  0.1209
 6857W        W10908   5.253   3.184   1.429  0.1967  0.0359  0.0829
 6858W        W10909   9.572   0.734   9.659 -0.2548 -0.3284  0.0482
 6859W        W10910   5.750   8.150   1.614 -0.3799  0.2405 -0.1928
 6860W        W10911   4.543   6.987   9.116 -0.2562  0.0288 -0.1707
 6861W        W10912   9.534   4.560   2.055  0.1884  0.0037 -0.0888
 6862W        W10913   9.554   8.485  12.277 -0.0846 -0.0544  0.1083
 6863W        W10914   1.668   6.996   3.491  0.1611  0.0483 -0.2552
 6864W        W10915   5.204   8.254   0.965 -0.0316  0.0695  0.0031
 6865W        W10916  10.133   1.728  13.624 -0.0385  0.1012  0.0695
 6866W        W10917   5.933   9.084  12.617  0.2649 -0.0785  0.0070
 6867W        W10918   0.099   5.319   0.319  0.0296  0.2060  0.3967
 6868W        W10919   3.594   1.936  11.593  0.1772  0.1098 -0.1766
 6869W        W10920   6.393   6.057   0.107 -0.1750 -0.3590 -0.2101
 6870W        W10921   2.836   3.098  11.373  0.3025  0.0596 -0.1851
 6871W        W10922   6.568   0.825   3.827  0.4531 -0.3241  0.0212
 6872W        W10923   4.923   1.640   4.078 -0.0437 -0.1708  0.0174
 6873W        W10924   4.685   9.217   9.382 -0.1818  0.1775 -0.0038
 6874W        W10925   5.282   3.081  13.125  0.2560  0.0832 -0.2986
 6875W        W10926   0.161   6.935  13.030 -0.0533  0.0547 -0.1482
 6876W        W10927   8.250   3.162   0.409  0.1750 -0.0248  0.1762
 6877W        W10928   9.400   7.620   4.164  0.1252  0.0911 -0.2810
 6878W        W10929   0.427   1.090   0.773  0.1857  0.1210  0.0816
 6879W        W10930   3.115   9.287  10.963  0.0105  0.3817  0.0368
 6880W        W10931   2.830   7.943  13.736  0.1374  0.0121  0.2329
 6881W        W10932   4.564   6.168   3.617 -0.1445  0.0585  0.2763
 6882W        W10933   4.338   1.130   4.783 -0.0973 -0.0369 -0.0962
 6883W        W10934   4.872   5.088  12.376  0.2979 -0.0851  0.0519
 6884W        W10935   1.454   9.439  10.475  0.0062 -0.1469  0.3719
 6885W        W10936   6.369   2.415   2.815  0.2357  0.1723  0.1280
 6886W        W10937   4.642   2.346   1.974 -0.2493  0.3053 -0.1357
 6887W        W10938   1.177   3.282   3.278  0.0956  0.0771 -0.1320
 6888W        W10939   2.716  10.028   2.044 -0.0036  0.1161  0.2332
 6889W        W10940   2.179   8.538  12.438  0.0716 -0.0882  0.0083
 6890W        W10941   0.488   5.339   2.650 -0.3311  0.1256 -0.1106
 6891W        W10942   1.660   3.498   4.586 -0.0076  0.2425  0.0867
 6892W        W10943   0.408   6.587   9.553  0.0842 -0.0137  0.3188
 6893W        W10944   3.465   7.257  10.936  0.0888  0.1367  0.2531
 6894W        W10945   8.951   2.056  10.548 -0.3785 -0.1729  0.2400
 6895W        W10946   1.028   9.070   4.172  0.1887  0.0411 -0.0513
 6896W        W10947   6.222   0.196   0.195 -0.0389 -0.1481  0.1045
 6897W        W10948   5.182   6.005  10.897 -0.0846  0.0368  0.0368
 6898W        W10949   6.297   6.655   2.769 -0.1879  0.2239 -0.0181
 6899W        W10950   5.127   5.240   1.665  0.1355 -0.0449 -0.0370
 6900W        W10951   3.955   9.563   2.509  0.2726  0.2948  0.0256
 6901W        W10952   7.533   5.360   0.560  0.1650 -0.2070 -0.0959
 6902W        W10953   1.154   4.814   0.051 -0.1765  0.0374 -0.2170
 6903W        W10954   2.042   5.181   3.417  0.1192  0.3860  0.1453
 6904W        W10955   9.774   7.148   1.668 -0.0451  0.1284  0.1375
 6905W        W10956   9.885   2.631   4.403 -0.1162 -0.0244 -0.0126
 6906W        W10957   3.312   6.395   0.843 -0.1815 -0.4935 -0.1758
 6907W        W10958   4.987   9.584  14.062 -0.1541 -0.1345  0.1409
 6908W        W10959   7.288   4.595   3.153  0.2278  0.0271  0.1026
 6909W        W10960   6.884   4.847  13.273  0.3368 -0.1079  0.2243
 6910W        W10961   9.343   9.056  10.628 -0.2553 -0.1626 -0.1409
 6911W        W10962   9.808   1.826   4.894  0.5005  0.4860  0.1630
 6912W        W10963   1.776   3.065  13.816  0.0949 -0.0056 -0.3363
 6913W        W10964   7.688   9.224  11.533  0.2166  0.1657 -0.2171
 6914W        W10965   0.052   5.278   3.094  0.1186 -0.1097 -0.1002
 6915W        W10966   0.910   2.515   0.299  0.1405  0.1420  0.0652
 6916W        W10967   5.794   7.856   3.174 -0.0511 -0.1232 -0.1117
 6917W        W10968   2.612   5.172   1.218 -0.0465 -0.0191 -0.0408
 6918W        W10969   4.201   3.727  10.673 -0.0635 -0.1309  0.1108
 6919W        W10970   3.948   2.229   3.047  0.1995 -0.3079  0.1197
 6920W        W10971   1.949  10.096   1.229 -0.0438 -0.0124 -0.1220
 6921W        W10972   8.800   1.173   9.549  0.2798 -0.0928 -0.0586
 6922W        W10973   1.968   4.306   2.731  0.0201  0.1511  0.0686
 6923W        W10974   4.646   2.436   9.819  0.1977  0.1629 -0.1419
 6924W        W10975   7.293   8.284  12.401  0.0038  0.1020 -0.2358
 6925W        W10976   9.268   6.936   3.761  0.1279 -0.3097 -0.0718
 6926W        W10977   7.901   1.496   5.306 -0.2096 -0.2032  0.0261
 6927W        W10978   0.558   1.450   5.527 -0.0055  0.0024  0.1600
 6928W        W10979   5.112   1.131   1.113  0.3556  0.0775  0.1949
 6929W        W10980   7.131   2.103   1.613  0.0368  0.1508 -0.0741
 6930W        W10981   9.121   7.537  10.277 -0.0843  0.0679 -0.0557
 6931W        W10982   5.304   9.262  11.827 -0.2481 -0.2133 -0.0546
 6932W        W10983   0.777   7.041   1.303  0.1041 -0.1548 -0.1466
 6933W        W10984   7.162   0.340   0.018 -0.2386 -0.2834 -0.3929
 6934W        W10985   5.859   2.487   1.464  0.0049  0.2623  0.0174
 6935W        W10986   8.951   7.024   0.625 -0.2747 -0.3476  0.0573
 6936W        W10987   8.430   1.540   0.473 -0.0278 -0.2064 -0.2273
 6937W        W10988   2.125   3.646  11.427  0.2869  0.0753 -0.2269
 6938W        W10989   6.036   4.069   0.256  0.1982 -0.0939 -0.3914
 6939W        W10990   9.248   6.484  13.195  0.0004 -0.2558  0.1954
 6940W        W10991   0.126   5.141  11.255 -0.0295  0.1471 -0.1011
 6941W        W10992   3.448   2.200   1.972 -0.1800 -0.3113 -0.0668
 6942W        W10993   4.726   6.609  10.000 -0.0271 -0.0255 -0.1035
 6943W        W10994   6.015   5.902  13.869  0.1612  0.0868 -0.1016
 6944W        W10995   7.108   8.051  12.760 -0.1957 -0.0836 -0.2507
 6945W        W10996   1.479  10.041   8.922  0.0543 -0.0805 -0.1416
 6946W        W10997   0.967   0.724  13.350 -0.0846  0.0661  0.1603
 6947W        W10998   7.628   3.654   4.688 -0.2024  0.0700  0.0447
 6948W        W10999   5.905   9.817   0.854  0.1164 -0.1184 -0.2739
 6949W        W11000   6.693   3.451  12.667  0.4457 -0.0300 -0.0039
 6950W        W11001   1.272  10.063   2.312  0.1962 -0.3497  0.1424
 6951W        W11002   9.820   7.741   3.365 -0.1730  0.0936 -0.0973
 6952W        W11003   3.872   9.246   5.390 -0.2384 -0.2847  0.0094
 6953W        W11004   5.283   0.914   3.829  0.0863  0.1227  0.0449
 6954W        W11005   4.143   6.666   1.952 -0.1235  0.1487  0.2668
 6955W        W11006   1.463   8.726   5.000 -0.0749 -0.4737  0.0319
 6956W        W11007   3.557   5.456   2.576  0.2171 -0.0233  0.1414
 6957W        W11008   7.492   2.868  10.739  0.0298  0.0176 -0.0761
 6958W        W11009   2.566   5.632   4.186  0.1922 -0.3553 -0.1479
 6959W        W11010   5.607   6.378   9.969 -0.2573 -0.1213 -0.0488
 6960W        W11011   1.947   4.649  12.621  0.1540  0.1276 -0.0571
 6961W        W11012   0.446   2.637  10.285  0.1124 -0.1950  0.0438
 6962W        W11013   1.334   1.947   2.198 -0.1768 -0.1351 -0.1629
 6963W        W11014   1.268   3.008   0.830 -0.0682  0.2627  0.1027
 6964W        W11015   7.816   0.599  10.304  0.0517  0.2331 -0.2318
 6965W        W11016   2.487   1.885   3.278  0.1700  0.0265  0.0306
 6966W        W11017   4.070   6.797   1.447  0.3104  0.1237 -0.0544
 6967W        W11018   2.131   0.404   6.423 -0.0258 -0.5951 -0.3349
 6968W        W11019   5.608   2.894   1.715 -0.2121 -0.1019 -0.1025
 6969W        W11020   4.126   7.563   0.674  0.3442  0.2039 -0.2641
 6970W        W11021   5.219   4.532  13.000 -0.1391 -0.0994 -0.1580
 6971W        W11022   6.469   8.517  11.263  0.0235  0.2256  0.0030
 6972W        W11023   6.406   4.585  12.107  0.2061 -0.2323  0.4232
 6973W        W11024   6.601   7.219   3.562  0.0939 -0.4199  0.0488
 6974W        W11025   4.053   0.820   3.673 -0.0607 -0.0302  0.1902
 6975W        W11026   5.920   0.429  12.369 -0.1012  0.0142 -0.0671
 6976W        W11027   0.387   2.896   9.449  0.1109  0.0484 -0.0558
 6977W        W11028   2.513   6.114   0.455 -0.2440  0.1335 -0.0222
 6978W        W11029   4.901   5.949   3.950  0.1930  0.0933  0.0735
 6979W        W11030   4.952   9.943  11.134 -0.1058 -0.1688 -0.0245
 6980W        W11031   7.584   5.905   2.480  0.0508 -0.2092 -0.5784
 6981W        W11032   8.953   0.929   2.489 -0.1751  0.0010 -0.2218
 6982W        W11033   5.590   4.747   0.410 -0.0097  0.0087 -0.0640
 6983W        W11034   0.688   3.554   3.424 -0.0242 -0.1641 -0.4036
 6984W        W11035   9.477   4.691   3.538  0.2868 -0.0132 -0.0664
 6985W        W11036   0.601   5.385   1.744 -0.2518  0.0978 -0.2581
 6986W        W11037   0.619   8.160   4.296  0.2068  0.0104  0.0515
 6987W        W11038   7.860   2.311  10.435 -0.2206 -0.2381 -0.1777
 6988W        W11039   9.418   2.205  10.318 -0.0451 -0.2069  0.1635
 6989W        W11040   8.589   1.857  10.885  0.0353  0.4005  0.1099
 6990W        W11041   9.759   9.333   3.356 -0.0686  0.0090  0.0642
 6991W        W11042   9.706   6.680  13.763 -0.1777  0.5448  0.1581
 6992W        W11043   6.781   1.851  13.322  0.1455  0.2605  0.1097
 6993W        W11044   8.796   7.527   2.502 -0.0589  0.1452  0.0605
 6994W        W11045   0.819   9.300   1.709 -0.0394 -0.2809 -0.3973
 6995W        W11046   4.739   4.424  10.707 -0.3227 -0.0322  0.3924
 6996W        W11047   0.856   8.011   1.489 -0.3181  0.0333  0.1643
 6997W        W11048   2.997   8.423   1.601 -0.0174 -0.0086  0.2061
 6998W        W11049   8.427   4.215   0.275 -0.0689 -0.1125  0.1301
 6999W        W11050   4.122   1.973   2.713  0.2738 -0.0101  0.1450
 7000W        W11051   8.046   9.020   0.138 -0.1734 -0.1996  0.2471
 7001W        W11052   8.043   2.674   0.537  0.1144 -0.3834  0.0180
 7002W        W11053   9.182   2.183   5.931 -0.1089  0.2677 -0.1741
 7003W        W11054   0.443   4.003   3.203  0.0597 -0.0079 -0.1200
 7004W        W11055   8.184   9.170   1.398  0.1060  0.1318 -0.0367
 7005W        W11056   2.462   9.103   0.474  0.1878 -0.1383 -0.1551
 7006W        W11057   0.471   4.351   0.741  0.0156 -0.2324  0.2568
 7007W        W11058   8.879   5.547   9.624 -0.2076 -0.2270 -0.1626
 7008W        W11059   0.523   5.400   3.672 -0.2417 -0.0042  0.0832
 7009W        W11060   6.298   5.678   2.359  0.4799 -0.1282  0.0273
 7010W        W11061   6.992   0.715   9.666 -0.3300 -0.0253 -0.1493
 7011W        W11062   1.550   4.074  12.448 -0.0237  0.2011 -0.2523
 7012W        W11063   9.838   3.099   0.391  0.1656 -0.2042  0.1229
 7013W        W11064   1.495   3.791  13.276 -0.2311 -0.0899  0.1949
 7014W        W11065   1.904   4.235   0.469 -0.1494 -0.1291 -0.0240
 7015W        W11066   7.387   2.186   4.680  0.1649  0.0436 -0.0167
 7016W        W11067   4.963   2.483   3.275 -0.1568 -0.0958  0.0151
 7017W        W11068   1.041   9.053  11.564 -0.2437 -0.0428 -0.3753
 7018W        W11069   4.635   2.326   0.389  0.2589  0.1842  0.1446
 7019W        W11070   0.154   5.013  13.810  0.1540 -0.1071 -0.0803
 7020W        W11071   2.698   6.148   2.006  0.1236 -0.3089 -0.2248
 7021W        W11072   0.829   2.129   2.111 -0.0675  0.2663 -0.1237
 7022W        W11073   5.436   0.769   1.735 -0.0546  0.1671 -0.0700
 7023W        W11074   1.625   1.883   4.898 -0.2601 -0.2792 -0.3925
 7024W        W11075   9.868  10.038  10.226 -0.0360 -0.3538 -0.3530
 7025W        W11076   3.805   3.443  13.250 -0.0124  0.1600 -0.0926
 7026W        W11077   7.685   1.982  11.137  0.1522 -0.3297 -0.0270
 7027W        W11078   2.262   9.162   3.147  0.1365 -0.0343 -0.1915
 7028W        W11079   7.773   1.603  13.778 -0.2617 -0.3112 -0.0747
 7029W        W11080   6.379   9.696   1.005  0.0626  0.1898 -0.2259
 7030W        W11081   6.912   2.268   3.059  0.3867  0.1451  0.0853
 7031W        W11082   8.569   2.608   2.466 -0.2281  0.1463 -0.0347
 7032W        W11083   8.601   4.039   1.976 -0.0376  0.2302 -0.2167
 7033W        W11084   1.827   5.545   3.708 -0.0746 -0.0779 -0.0041
 7034W        W11085   3.968   0.170   1.499  0.2279  0.2477  0.3885
 7035W        W11086   6.106   3.043  10.941  0.2528 -0.1932 -0.1532
 7036W        W11087   1.115   4.836   4.188 -0.2821 -0.0681  0.1157
 7037W        W11088   9.151   1.122   1.612  0.0176  0.1389 -0.2824
 7038W        W11089   1.884   5.049   8.925 -0.0614  0.0054 -0.2711
 7039W        W11090   1.637   9.282  13.194  0.2001  0.0293  0.0121
 7040W        W11091   5.954   4.097   9.713 -0.0936 -0.2330 -0.2599
 7041W        W11092   3.991   3.798   4.062  0.0113 -0.1991  0.2170
 7042W        W11093   6.227   1.026   5.430 -0.1437 -0.0229  0.5192
 7043W        W11094   4.718   8.822  13.469  0.1111 -0.1093 -0.1922
 7044W        W11095   4.041   1.153   2.014 -0.1090 -0.0482 -0.0686
 7045W        W11096   3.822   1.728   0.094  0.0570  0.3219 -0.3329
 7046W        W11097   6.408   0.329   1.525  0.2347  0.2169  0.2305
 7047W        W11098   9.708   3.785  10.965  0.3189  0.2107 -0.1943
 7048W        W11099   5.171   3.008   0.784 -0.0778  0.4880 -0.0793
 7049W        W11100   4.894   4.978  10.561  0.2312 -0.0430 -0.0591
 7050W        W11101   1.414   8.227   3.933 -0.1485  0.1616 -0.3486
 7051W        W11102   6.153   7.019  12.027 -0.1999 -0.1540  0.1966
 7052W        W11103   1.885   3.153  11.166  0.0603 -0.0774  0.2585
 7053W        W11104   5.332   8.509  13.324 -0.3084  0.1860 -0.2009
 7054W        W11105   1.267   7.589   2.614  0.1564 -0.1631 -0.3566
 7055W        W11106   7.693  10.055   1.128  0.1665 -0.2065  0.1812
 7056W        W11107   8.793   3.900  12.622 -0.1574  0.1573 -0.1340
 7057W        W11108   3.756   5.999   4.630 -0.0278  0.0449 -0.0728
 7058W        W11109   9.476   3.149   3.564  0.3341  0.0317  0.0379
 7059W        W11110   2.747   3.252   1.295  0.3816 -0.0505 -0.2808
 7060W        W11111   0.221   3.718   9.316  0.0353 -0.0989 -0.1300
 7061W        W11112   9.965   0.951   3.251  0.0674  0.0353  0.1030
 7062W        W11113   2.041   7.704   9.032 -0.3371  0.1282  0.1843
 7063W        W11114   3.966   9.676  11.228  0.0019  0.2184 -0.2892
 7064W        W11115   7.768   0.528   0.401 -0.3373  0.1803 -0.0542
 7065W        W11116   7.578   3.486   2.297  0.0405 -0.2829 -0.0173
 7066W        W11117   7.462   9.271  11.016  0.0133 -0.1955  0.0495
 7067W        W11118   3.759   1.215   3.430  0.0900 -0.2935 -0.0975
 7068W        W11119   3.269   3.923  13.885 -0.0209 -0.2758 -0.1963
 7069W        W11120   0.662   6.481  14.087 -0.0608  0.3579 -0.1393
 7070W        W11121   3.300   1.641  11.896  0.1712  0.2106  0.0516
 7071W        W11122   1.202   1.795   3.369  0.0164 -0.1147 -0.1876
 7072W        W11123   0.518   8.846   1.629  0.0445  0.0476 -0.2082
 7073W        W11124   7.954   8.919  11.867 -0.2321  0.4258 -0.2178
 7074W        W11125   7.808   3.189   9.010 -0.0827 -0.1130  0.1254
 7075W        W11126   4.521   4.464  11.229 -0.0746 -0.2810  0.2174
 7076W        W11127   3.223   5.250   1.222  0.1350 -0.1886  0.1219
 7077W        W11128   3.706   4.272  12.144  0.1331  0.3192  0.2317
 7078W        W11129   9.379   9.668  12.206  0.0177 -0.0684 -0.0437
 7079W        W11130   7.240   9.459   2.515 -0.1861  0.0822 -0.0387
 7080W        W11131   4.162   9.009  13.310 -0.1521  0.5346  0.0851
 7081W        W11132   2.173   2.098   5.814  0.1980  0.2972 -0.1088
 7082W        W11133   6.456   7.984  11.762 -0.0855  0.3264  0.2166
 7083W        W11134   1.312   2.703  13.511  0.0514  0.2857  0.1965
 7084W        W11135   6.744   2.455   4.906 -0.0703  0.1487 -0.1306
 7085W        W11136   7.216   1.432   3.819 -0.2239 -0.0166  0.4212
 7086W        W11137   5.201  10.105   2.403  0.0289 -0.0536  0.1327
 7087W        W11138   2.435   7.596  13.594 -0.2842  0.2166 -0.0904
 7088W        W11139   3.220   9.841  10.781 -0.1198  0.2444  0.2020
 7089W        W11140   5.712   8.053  10.980 -0.3188 -0.0607 -0.2621
 7090W        W11141   5.556   2.145  13.359 -0.1091 -0.3117  0.2384
 7091W        W11142   3.628   4.699   4.885 -0.2624 -0.1153  0.3470
 7092W        W11143   1.712  10.136   4.726  0.2000 -0.2225  0.0228
 7093W        W11144   0.222   4.619  13.367 -0.0496 -0.2801  0.2967
 7094W        W11145   0.464   7.387   0.695  0.1093  0.1949  0.1955
 7095W        W11146   5.819   1.633  13.300 -0.1245  0.0338 -0.0099
 7096W        W11147   2.549   0.465   5.319  0.2208 -0.4386  0.1105
 7097W        W11148   7.121   8.540   2.555  0.1404  0.1114 -0.1907
 7098W        W11149   0.893   4.533   4.595 -0.1102  0.2648  0.2197
 7099W        W11150   9.597   3.621   0.445  0.1224  0.2439 -0.2104
 7100W        W11151   6.330   2.136  11.623 -0.1034  0.0440 -0.0609
 7101W        W11152   4.813   7.447   1.803  0.1793  0.1218  0.1555
 7102W        W11153   5.632   3.676   2.025 -0.0147 -0.0301 -0.2258
 7103W        W11154   0.450   3.194   3.673  0.1409 -0.2621  0.0748
 7104W        W11155   9.624   7.458   9.506  0.2660 -0.1673 -0.3779
 7105W        W11156   5.952   2.774   2.097  0.3311  0.0183  0.1412
 7106W        W11157   4.177   8.429   2.780  0.1669 -0.0164  0.1061
 7107W        W11158   1.388   0.685   4.384 -0.1518  0.1267  0.3141
 7108W        W11159   2.453   0.380   2.963  0.2397 -0.1044 -0.3265
 7109W        W11160   1.687   3.256   2.378 -0.1924 -0.0983 -0.0330
 7110W        W11161   0.209   4.736   0.949  0.1588 -0.0746 -0.2729
 7111W        W11162   2.631   7.393  12.263 -0.0499 -0.3678 -0.1950
 7112W        W11163   4.154   5.939   5.096  0.0086 -0.0497 -0.1547
 7113W        W11164   2.062   9.223   2.452 -0.0981  0.0018 -0.1417
 7114W        W11165   8.260   2.968   2.607  0.1613  0.0666 -0.1703
 7115W        W11166   8.029   6.028  10.516  0.0664 -0.2122  0.3001
 7116W        W11167   2.193   5.175   0.445 -0.1766  0.0228 -0.0477
 7117W        W11168   4.986   5.350   2.306 -0.1433  0.1123 -0.1520
 7118W        W11169   9.974   7.695  10.409  0.3096  0.0491 -0.5127
 7119W        W11170   3.820   5.772  10.911 -0.3366 -0.1328 -0.0082
 7120W        W11171   0.361   1.285   3.691 -0.2013  0.0791 -0.0147
 7121W        W11172   5.494   5.189   3.296 -0.2254 -0.2618  0.1764
 7122W        W11173   3.292   7.954   4.088  0.0666  0.0741  0.1276
 7123W        W11174   2.728   5.609  13.638  0.1507 -0.1886 -0.2305
 7124W        W11175   7.781   4.168  14.004  0.0232  0.0730 -0.1759
 7125W        W11176   4.417   9.773   1.617  0.2168 -0.1872  0.0981
 7126W        W11177   4.374   3.696   3.151 -0.2201 -0.2508  0.0692
 7127W        W11178   2.205   4.143  12.499 -0.1283 -0.0232 -0.0658
 7128W        W11179   7.789   4.861   2.231  0.1686  0.3340  0.1011
 7129W        W11180   4.699   1.041  11.678 -0.2301  0.0343 -0.0285
 7130W        W11181   1.607   2.897  11.868 -0.2197  0.4507  0.0324
 7131W        W11182   5.971   8.987   3.976 -0.3176 -0.2979  0.0833
 7132W        W11183   5.801   2.278  12.493  0.0265  0.4204 -0.2301
 7133W        W11184   2.958   7.406  11.868 -0.2234  0.0723  0.1175
 7134W        W11185   8.440   3.418   1.835 -0.1433 -0.3873 -0.2770
 7135W        W11186   0.716   9.345   5.182  0.1607  0.0998  0.0547
 7136W        W11187   8.624   3.263  10.002  0.1875 -0.2020 -0.0632
 7137W        W11188   8.790   4.129  10.288  0.3738 -0.0569  0.1997
 7138W        W11189   8.094   2.350   5.082 -0.1690  0.1613 -0.1383
 7139W        W11190   9.951   4.018   2.056 -0.0188  0.3720  0.0931
 7140W        W11191   2.358   5.776  10.549  0.1374 -0.2762  0.1531
 7141W        W11192   4.684   7.488   2.291 -0.0814 -0.1261  0.2408
 7142W        W11193   0.131   9.318  12.211 -0.1790  0.2239 -0.1339
 7143W        W11194   7.516   9.921  13.942 -0.1175 -0.0918 -0.1558
 7144W        W11195   8.814   2.967  12.362 -0.1830  0.0688  0.0264
 7145W        W11196   9.033   2.724   0.195 -0.2748  0.0435 -0.1521
 7146W        W11197   7.139   4.421  10.889  0.0355  0.0627  0.3537
 7147W        W11198   1.966   4.516   0.873 -0.0478 -0.0796  0.0513
 7148W        W11199   9.872   4.594   2.403  0.0333 -0.0451  0.1383
 7149W        W11200   3.805   7.325  10.066 -0.1886 -0.1692 -0.2185
 7150W        W11201   1.458   1.060   2.350  0.0836  0.1180  0.1624
 7151W        W11202   4.265   7.171   9.935 -0.4007 -0.2359 -0.0473
 7152W        W11203   6.339   7.939   0.822  0.0188 -0.0047 -0.0157
 7153W        W11204   3.902   3.353   3.778 -0.1142  0.2618 -0.0184
 7154W        W11205   7.548   3.265  13.850 -0.2417  0.1534  0.1130
 7155W        W11206   9.635  10.061  10.994  0.0802 -0.1004 -0.0619
 7156W        W11207   5.390   0.214  12.329 -0.1827 -0.0565  0.4375
 7157W        W11208   5.974   4.939  13.356  0.0830 -0.0064  0.0844
 7158W        W11209   2.687   4.814  10.933 -0.2583 -0.2126  0.1209
 7159W        W11210   3.140   7.412   3.900 -0.0136 -0.0670 -0.0077
 7160W        W11211   8.745   3.923   0.013 -0.0306  0.0182 -0.2289
 7161W        W11212   5.143   3.862   2.848 -0.0882  0.1142 -0.4603
 7162W        W11213   3.264  10.039   2.098 -0.1843  0.2550  0.3234
 7163W        W11214   7.922   5.112  10.005  0.0638 -0.0520  0.3462
 7164W        W11215   2.578   2.660   3.142 -0.0291  0.1641 -0.0029
 7165W        W11216   6.949   0.551   1.979  0.0975 -0.1903 -0.0200
 7166W        W11217   0.788   7.575  13.198  0.0984  0.2382 -0.0228
 7167W        W11218   7.493   6.941   6.925 -0.1699 -0.2221 -0.0827
 7168W        W11219   3.481   9.882   1.335 -0.0721 -0.0660 -0.3830
 7169W        W11220   9.643   6.643  10.637  0.1642  0.0094 -0.1413
 7170W        W11221   0.137   9.014  10.345 -0.1928  0.2866 -0.0968
 7171W        W11222   0.499   2.111  11.024 -0.1872  0.0804  0.2200
 7172W        W11223   3.170   1.234  13.785 -0.0199  0.1351  0.1291
 7173W        W11224   6.227   6.053   2.671  0.2101  0.3111 -0.0196
 7174W        W11225   5.089   9.509  13.186  0.0752 -0.3722 -0.0281
 7175W        W11226   1.037   5.252   9.377  0.2667  0.0185  0.0796
 7176W        W11227   2.691   7.647   1.272  0.3344 -0.0692  0.0134
 7177W        W11228   2.569   0.528   9.984 -0.1608  0.0459 -0.1886
 7178W        W11229   7.317   7.103  12.929 -0.4353  0.2741  0.0932
 7179W        W11230   6.140   9.388   4.401  0.3265 -0.0134  0.1928
 7180W        W11231   8.080   9.581  13.659  0.1234 -0.1883 -0.1153
 7181W        W11232   4.155   6.177  11.057  0.4554 -0.2945 -0.1932
 7182W        W11233   6.722   5.623  10.539  0.1208  0.3202  0.2287
 7183W        W11234   9.942   1.602   1.105 -0.1401 -0.4058 -0.3232
 7184W        W11235   1.257   8.850   4.580  0.1774  0.0595  0.3280
 7185W        W11236   0.202   2.389   9.417 -0.3686  0.0907 -0.0196
 7186W        W11237   5.330   9.807   2.968 -0.0384  0.0834 -0.0596
 7187W        W11238   0.671   7.645   0.307  0.0014  0.1752  0.1673
 7188W        W11239   1.841   8.924   9.574 -0.1815 -0.2240 -0.1925
 7189W        W11240   4.646   6.096   2.593 -0.1751 -0.1251 -0.0765
 7190W        W11241   1.223   6.079   4.013 -0.0351  0.1597 -0.1562
 7191W        W11242   6.769   5.103   1.154 -0.3006 -0.0200 -0.0826
 7192W        W11243   7.822   4.068   4.804  0.3912  0.1991  0.2701
 7193W        W11244   9.192   9.817   4.923  0.2866  0.0023 -0.1900
 7194W        W11245   9.099   2.785   9.674 -0.0234 -0.1276  0.1538
 7195W        W11246   4.179   4.311   4.064  0.2834  0.0186  0.0399
 7196W        W11247   2.844   1.628   9.618  0.4285 -0.1832 -0.0435
 7197W        W11248   8.291   6.460  10.657  0.0189 -0.1743  0.0216
 7198W        W11249   1.018   8.134  12.608 -0.2232  0.1686 -0.3218
 7199W        W11250   3.616   4.957   9.340  0.0788 -0.1215  0.0100
 7200W        W11251   9.947   0.366  12.245 -0.2644  0.0940  0.0450
 7201W        W11252   4.468   5.188   4.391 -0.1703 -0.2165  0.0473
 7202W        W11253   7.724   2.802   9.314 -0.2450 -0.2055 -0.0797
 7203W        W11254   7.596   5.999   1.249 -0.1335  0.0331 -0.1019
 7204W        W11255   7.597   1.157  10.986  0.2242  0.0697  0.0304
 7205W        W11256   6.450   6.043  12.223 -0.2628 -0.3559  0.0309
 7206W        W11257   1.748   0.027  12.201  0.0661 -0.0057 -0.0490
 7207W        W11258   3.078   8.787  10.931  0.0268  0.0853 -0.0530
 7208W        W11259   7.252   8.457  13.651 -0.2030  0.3031 -0.0080
 7209W        W11260   6.333   8.011   1.546  0.1984  0.0155 -0.0533
 7210W        W11261   0.188   0.450  12.611 -0.2031 -0.0610 -0.1416
 7211W        W11262   4.637   0.546   2.665  0.1741 -0.0942 -0.1889
 7212W        W11263   2.588   9.681   0.320  0.1330 -0.3398  0.0677
 7213W        W11264   3.351   4.343   2.902 -0.1559  0.1210  0.0230
 7214W        W11265   3.587   7.857   3.272 -0.0355 -0.0509 -0.0801
 7215W        W11266   4.447   4.961  12.677 -0.2832  0.2331  0.0764
 7216W        W11267   5.723   9.553  11.446 -0.0407  0.0815  0.1848
 7217W        W11268   4.776   2.577   1.535 -0.2951 -0.3498 -0.1076
 7218W        W11269   3.423   0.514  13.133 -0.2442 -0.2088 -0.1215
 7219W        W11270   9.012   7.755   0.045  0.0744 -0.0119 -0.1335
 7220W        W11271   5.285   0.274  11.815  0.0511  0.4367  0.0364
 7221W        W11272   0.876   9.076   0.060  0.1759  0.0663 -0.2197
 7222W        W11273   2.827   2.169  10.753  0.0440 -0.1925  0.1186
 7223W        W11274   3.670   7.610   2.851  0.1137  0.0806  0.1190
 7224W        W11275   3.666   1.495  13.767  0.1361 -0.2408  0.4434
 7225W        W11276   3.353   7.679  13.725 -0.2076 -0.1765  0.0097
 7226W        W11277   5.273   1.393   5.868  0.0865 -0.1445  0.0488
 7227W        W11278   7.616   9.055   2.655  0.3637  0.0139  0.0380
 7228W        W11279   8.801   5.598  13.529  0.0589  0.0336  0.3880
 7229W        W11280   3.381   4.649  11.935  0.1630 -0.2993  0.2072
 7230W        W11281   8.369   4.425  12.290 -0.0548 -0.1853  0.2926
 7231W        W11282   2.423   6.305   9.725 -0.0503  0.0982 -0.4160
 7232W        W11283   7.925   8.929   1.054 -0.0831  0.0346  0.1336
 7233W        W11284   3.243   6.541   0.337 -0.0451 -0.4758  0.0951
 7234W        W11285   5.225   2.934   5.417  0.1528 -0.1781  0.1890
 7235W        W11286   5.925   1.327   3.501 -0.1332 -0.0281  0.3622
 7236W        W11287   2.373   1.012   4.625  0.0582  0.2027 -0.0481
 7237W        W11288   4.160  10.112  10.378  0.1159 -0.2037  0.1433
 7238W        W11289   6.165   3.616   2.244  0.1896  0.2686  0.2691
 7239W        W11290   2.491   6.889   0.845  0.2171  0.0820  0.1743
 7240W        W11291   3.653   3.181   3.369 -0.2756 -0.1348  0.5033
 7241W        W11292   6.598   0.547   9.279  0.2435 -0.0861  0.0324
 7242W        W11293   5.656   6.905   3.485 -0.3272  0.1747  0.1260
 7243W        W11294   9.011   6.938  13.745  0.0779 -0.1241  0.1222
 7244W        W11295   5.195   6.493   3.451  0.1446 -0.2582  0.0266
 7245W        W11296   7.985   8.023  12.945 -0.1666  0.0936  0.0637
 7246W        W11297   3.560   6.568   9.861 -0.0135 -0.1772  0.0594
 7247W        W11298   3.529   4.166   1.542  0.1921  0.1220 -0.2542
 7248W        W11299   3.309   1.494   1.329  0.0539  0.0095 -0.0823
 7249W        W11300   2.370   0.451  12.327 -0.1221  0.0512  0.1281
 7250W        W11301   5.013   7.856   0.223  0.3471  0.1414 -0.0674
 7251W        W11302   5.766   6.352   2.817 -0.0789  0.0933  0.3821
 7252W        W11303   6.697   3.703   0.662 -0.4117 -0.2024  0.1441
 7253W        W11304   5.450   6.738  13.519  0.0656  0.0015 -0.3903
 7254W        W11305   8.330   9.636  10.833  0.1163 -0.1919  0.2637
 7255W        W11306   6.253   2.208  10.299  0.1870 -0.1106 -0.1252
 7256W        W11307   2.228   4.921   0.003  0.0743 -0.2179  0.2228
 7257W        W11308   6.150   6.221  13.291 -0.0408  0.1126  0.0189
 7258W        W11309   3.284   4.598  10.155  0.3045  0.0896 -0.4160
 7259W        W11310   6.571   5.427  12.913 -0.2434 -0.2173  0.0459
 7260W        W11311  10.073   8.628  10.114 -0.4128  0.1089  0.1931
 7261W        W11312   4.074   1.083   9.812  0.3067 -0.0928 -0.1956
 7262W        W11313   1.101   5.970   1.091 -0.1134  0.1027  0.4997
 7263W        W11314   9.654   5.552  13.689 -0.0900  0.0625  0.2506
 7264W        W11315   1.096   0.348   5.933  0.4655 -0.0719  0.0419
 7265W        W11316   1.205   1.855   0.070 -0.1938  0.3467 -0.1253
 7266W        W11317   2.609   5.742   0.992  0.1482  0.1210  0.0482
 7267W        W11318   1.129   8.090   0.373 -0.1591  0.4322  0.0988
 7268W        W11319   0.598   2.515  13.752  0.0245 -0.0078 -0.0140
 7269W        W11320   2.817   9.143   2.251  0.1606  0.0946 -0.1677
 7270W        W11321   3.754   6.671  11.683 -0.0747  0.3555  0.0802
 7271W        W11322   4.734   8.777  12.473 -0.1298  0.2767  0.0645
 7272W        W11323   8.158   5.116   0.453  0.3010 -0.1048  0.1693
 7273W        W11324   5.183   1.430  10.958 -0.2038 -0.0299 -0.1447
 7274W        W11325   2.856   0.353   2.180  0.1925 -0.1293  0.0295
 7275W        W11326   1.926   7.627   3.813 -0.3079 -0.0406 -0.0680
 7276W        W11327   4.588   8.675   9.814  0.0261 -0.0609 -0.0873
 7277W        W11328   5.823   0.491   3.660 -0.0687  0.2013 -0.1396
 7278W        W11329   5.851   2.799   3.449 -0.0173 -0.0382  0.1864
 7279W        W11330   1.668   6.151   1.483 -0.0458  0.3144 -0.1300
 7280W        W11331   5.177   4.555  10.437  0.1665  0.3923 -0.1781
 7281W        W11332   7.544   3.035   4.343  0.4252  0.4388 -0.2265
 7282W        W11333   3.828   0.880  11.976 -0.2205  0.1853  0.0595
 7283W        W11334   2.683   7.939  10.808 -0.1677 -0.1957  0.1480
 7284W        W11335   8.525   3.312   4.678  0.0596 -0.0860 -0.0607
 7285W        W11336   2.282   9.243  10.772 -0.3366 -0.1683  0.0529
 7286W        W11337   9.505   6.105  13.511  0.3189  0.3381 -0.1204
 7287W        W11338   1.387   2.311   4.800  0.3220  0.1341 -0.0738
 7288W        W11339  10.131   4.446   0.585 -0.1434  0.1544  0.2089
 7289W        W11340   1.360   7.137  13.053 -0.1617 -0.2091 -0.1856
 7290W        W11341   9.372   9.614   3.058 -0.0136  0.1187 -0.0456
 7291W        W11342   4.686   9.591   3.028 -0.0446  0.0618  0.0766
 7292W        W11343   2.673   8.665   9.459 -0.1406 -0.2940  0.2357
 7293W        W11344   9.752   5.339   0.386 -0.0012 -0.0600  0.3325
 7294W        W11345   0.985   8.090   2.282 -0.0466  0.1914 -0.0457
 7295W        W11346   7.610   4.977   2.845 -0.1303 -0.0726  0.1311
 7296W        W11347   6.371   0.873  12.938 -0.3068 -0.0825 -0.1182
 7297W        W11348   7.100   9.507   0.484 -0.0809 -0.0745  0.0922
 7298W        W11349   8.594   0.826  11.255  0.3118 -0.1383  0.1975
 7299W        W11350   3.568   9.331   3.591  0.0696  0.2316  0.2134
 7300W        W11351   4.378   8.708   4.010 -0.3927  0.0332  0.1957
 7301W        W11352   6.407   1.546  11.745 -0.0087 -0.1021  0.1364
 7302W        W11353   6.081   8.552   1.591 -0.0962  0.1872 -0.0929
 7303W        W11354   6.145   2.238  12.114 -0.1686  0.0168  0.1007
 7304W        W11355   1.187   2.900   9.924  0.3493  0.2854  0.2650
 7305W        W11356   4.784   7.608   3.551  0.0386  0.1406  0.0878
 7306W        W11357   4.455   9.489   0.669  0.2637 -0.3672 -0.0677
 7307W        W11358   7.096   1.332   4.387  0.0720  0.3353 -0.0008
 7308W        W11359   7.708   8.167  13.858  0.3324 -0.0220  0.1822
 7309W        W11360   6.558   6.542  14.084 -0.0307 -0.3611 -0.0570
 7310W        W11361   6.778   7.620  13.690 -0.0668 -0.1385  0.1398
 7311W        W11362   2.990   7.099   5.214 -0.1835 -0.3904  0.3054
 7312W        W11363   0.026   8.751   9.633 -0.0681 -0.1361  0.1011
 7313W        W11364   3.863   0.594  12.903  0.1365  0.0507  0.1943
 7314W        W11365   0.669   3.735   1.989 -0.1120  0.4500 -0.2427
 7315W        W11366   5.514   1.979   4.501  0.1629 -0.3791 -0.0120
 7316W        W11367   4.770   8.527   3.164 -0.0847 -0.1087 -0.2473
 7317W        W11368   3.305   1.682  14.060 -0.3956 -0.1856 -0.0179
 7318W        W11369   9.228   3.701   5.175  0.1439 -0.2205  0.0643
 7319W        W11370   0.352   9.440   0.836  0.2006 -0.1203  0.0300
 7320W        W11371   6.668   8.897   2.205  0.1411  0.5396  0.1427
 7321W        W11372  10.080   2.330   0.495 -0.0073 -0.2219 -0.0693
 7322W        W11373   0.209   8.349   0.166 -0.0759  0.0937  0.0095
 7323W        W11374   8.463   4.873   9.918 -0.1052  0.4277  0.0328
 7324W        W11375   3.480   1.422  12.876  0.0583  0.0906 -0.3622
 7325W        W11376   6.429   5.670   9.480 -0.0905  0.2048  0.0548
 7326W        W11377   6.474   8.068  13.653  0.3011  0.0845  0.1750
 7327W        W11378   5.932   7.623  13.172 -0.0221 -0.0881 -0.0131
 7328W        W11379   2.121   5.808   4.007  0.0087  0.0368 -0.1983
 7329W        W11380   6.708   5.205   4.307 -0.0674  0.0759  0.1105
 7330W        W11381   1.128   6.633  13.241 -0.0946 -0.2081  0.1170
 7331W        W11382   7.234   3.423   4.311  0.1047  0.1469  0.0788
 7332W        W11383   0.327   2.734  11.904  0.2430  0.1062  0.0483
 7333W        W11384   2.133   5.204  10.899 -0.2210 -0.4150 -0.4048
 7334W        W11385  10.103   8.788  12.328  0.0719  0.0140 -0.0279
 7335W        W11386   5.180   1.783   2.750  0.2009  0.2391  0.0832
 7336W        W11387   8.915   1.709   8.736  0.3715 -0.0119 -0.2779
 7337W        W11388   4.445   4.841  10.919  0.1969 -0.1797 -0.2497
 7338W        W11389   6.704   7.492  10.944 -0.1540  0.0479  0.1288
 7339W        W11390   9.126   1.917   2.201 -0.0676 -0.0842 -0.1597
 7340W        W11391   3.691   4.109  13.143 -0.1810 -0.2456 -0.1150
 7341W        W11392   5.511   8.048  13.415 -0.1411  0.2803  0.2538
 7342W        W11393   9.386   4.178  12.133 -0.2950  0.3853  0.0156
 7343W        W11394   1.324   9.962  12.348  0.1729 -0.0354 -0.2791
 7344W        W11395   0.850   2.192   4.905  0.0486 -0.2668 -0.2278
 7345W        W11396   8.999   8.296   1.839 -0.1932  0.1907 -0.0543
 7346W        W11397   6.142   1.794   0.558  0.1560 -0.1399  0.0851
 7347W        W11398   9.424   2.145   2.552 -0.1506 -0.1092 -0.0871
 7348W        W11399  10.073   5.262   2.605 -0.1261  0.0954  0.0250
 7349W        W11400   4.798   3.749   3.955 -0.1795 -0.1288  0.0128
 7350W        W11401   4.908   2.062   0.824  0.2234 -0.0477 -0.0755
 7351W        W11402   0.830   3.213   2.914  0.1035 -0.0174 -0.0674
 7352W        W11403   4.117   0.660  13.823 -0.0662  0.1575 -0.1921
 7353W        W11404   9.547   2.697  10.024 -0.0994  0.0789 -0.3928
 7354W        W11405   9.032   7.143  10.751  0.1908  0.2800 -0.3651
 7355W        W11406   2.368   2.718  11.132  0.0378  0.3614  0.1254
 7356W        W11407   9.969   2.419  12.991  0.0472  0.4084  0.0213
 7357W        W11408   6.358   1.320  10.060  0.2858  0.2236 -0.3382
 7358W        W11409   8.011   9.683   1.350  0.0441 -0.1262  0.0655
 7359W        W11410   1.528   5.299  13.316  0.1906 -0.1610  0.0626
 7360W        W11411   8.816   9.787  13.484 -0.4014  0.3436  0.2331
 7361W        W11412   5.376   9.333  13.635 -0.0692 -0.1736 -0.0436
 7362W        W11413   0.532   4.574  13.789 -0.0622  0.1419  0.0707
 7363W        W11414   7.037   0.042  13.161  0.2751  0.0096 -0.0802
 7364W        W11415   0.218   4.386   2.660 -0.0202  0.2717  0.3249
 7365W        W11416   6.180   7.039   7.306  0.0008 -0.2485  0.0826
 7366W        W11417   9.515   0.453   0.306 -0.1756 -0.2870 -0.1492
 7367W        W11418   6.416   0.628  13.472  0.3653 -0.2031  0.0891
 7368W        W11419   8.191   5.913  14.046 -0.0826 -0.1445 -0.1659
 7369W        W11420  10.103   9.837  11.989 -0.1735 -0.1636 -0.0503
 7370W        W11421   6.464   4.822  12.566  0.0027 -0.0023 -0.0426
 7371W        W11422   1.975   0.271  13.687  0.1705 -0.0677  0.1990
 7372W        W11423   1.804   1.925   1.650  0.2130  0.2005 -0.3297
 7373W        W11424   6.631   9.187   0.331  0.3903 -0.1796 -0.1952
 7374W        W11425   7.486   3.890   4.254 -0.0411  0.0901  0.2090
 7375W        W11426   6.683   6.831   0.928 -0.4663 -0.5163 -0.0880
 7376W        W11427   6.295   1.574   2.653  0.0351 -0.2284  0.2325
 7377W        W11428   0.318   5.131  13.140 -0.2153 -0.0272  0.1964
 7378W        W11429   0.104   3.621   3.510  0.1038  0.3675 -0.1481
 7379W        W11430   8.522   2.874  10.844  0.2397  0.0972 -0.3525
 7380W        W11431   6.323   0.690   2.509 -0.1203 -0.5406 -0.1364
 7381W        W11432   7.532   5.359  10.210 -0.1793 -0.0416  0.1584
 7382W        W11433   4.649   5.470  13.758  0.1051  0.1003  0.0042
 7383W        W11434   5.962   8.248  11.942 -0.5066  0.0636 -0.0142
 7384W        W11435   4.746   3.266  12.253 -0.0931 -0.0340  0.1167
 7385W        W11436   0.993   0.823   2.457  0.0813 -0.1418  0.0572
 7386W        W11437   4.809   8.316   3.623  0.3841 -0.1521 -0.3170
 7387W        W11438   4.915   2.913   1.188 -0.1328 -0.0619  0.0306
 7388W        W11439  10.012   4.994   0.608 -0.0394  0.1459 -0.2433
 7389W        W11440   6.255   5.236   0.541 -0.2175 -0.0100  0.0460
 7390W        W11441   4.202   8.025   0.467 -0.3458  0.1977  0.0088
 7391W        W11442   1.081   3.071   2.188 -0.0906  0.0930  0.0345
 7392W        W11443   5.244   7.996  12.390  0.0524 -0.1812 -0.0621
 7393W        W11444   0.336   9.614  12.610  0.0844 -0.0834 -0.1491
 7394W        W11445   0.369   7.854  13.376 -0.1442 -0.1421 -0.4854
 7395W        W11446   3.075   0.499  10.523 -0.1731  0.1954  0.1480
 7396W        W11447   3.733   3.380  12.481 -0.0939  0.0144  0.1358
 7397W        W11448   5.872   3.230  12.313 -0.3619 -0.0734  0.3087
 7398W        W11449   0.831   2.662   0.984  0.0768  0.2406  0.0613
 7399W        W11450   5.624   0.894   1.295 -0.1710  0.4571  0.1735
 7400W        W11451   1.119   1.180  11.747  0.3379  0.1513  0.0260
 7401W        W11452   9.749   8.421   1.347 -0.2731  0.0431  0.1078
 7402W        W11453   2.541   3.639  10.774 -0.1288 -0.1081  0.3520
 7403W        W11454   6.053   1.164   1.271  0.3211  0.1051  0.0683
 7404W        W11455   5.097   5.000  13.340 -0.0472  0.2232 -0.4470
 7405W        W11456   5.935   2.541  11.157  0.0422  0.2605  0.1953
 7406W        W11457   4.508   6.649  13.239  0.0915 -0.1529  0.2528
 7407W        W11458   6.991   0.733   1.066 -0.3792 -0.4108 -0.0270
 7408W        W11459   2.640   1.078   2.467 -0.2159 -0.0868 -0.1573
 7409W        W11460   9.870   8.910   0.620 -0.1203  0.0193  0.0074
 7410W        W11461   8.160   4.321   3.731  0.1325 -0.1207 -0.1530
 7411W        W11462   7.972   2.135   2.848  0.0357  0.1415 -0.2426
 7412W        W11463   4.085   1.764  13.452  0.0318 -0.0008  0.3038
 7413W        W11464   6.066   7.524   0.434  0.0260  0.1072  0.0087
 7414W        W11465   1.024   6.230  13.678 -0.2499  0.0290 -0.1867
 7415W        W11466   6.867   2.888  11.576  0.1096  0.2600  0.0932
 7416W        W11467   1.573   2.000   3.143  0.0164 -0.0149  0.0916
 7417W        W11468   8.540   3.071   9.580 -0.0042  0.0187  0.1907
 7418W        W11469   7.099   0.068  13.692  0.0633 -0.2709  0.1813
 7419W        W11470   8.046   3.179  11.106 -0.7210  0.0461 -0.2182
 7420W        W11471   4.380   0.852   0.064 -0.5560  0.0721 -0.1469
 7421W        W11472   5.950   2.460  13.280 -0.0984 -0.1076  0.0807
 7422W        W11473   1.698   7.677   2.439 -0.0506  0.0768 -0.0393
 7423W        W11474   8.278   8.553  11.119  0.1452 -0.4389 -0.0036
 7424W        W11475   8.981   9.296   0.330 -0.0491 -0.1022  0.2071
 7425W        W11476   4.031   1.155   9.307 -0.0619  0.0460 -0.4985
 7426W        W11477   7.872   9.285   3.849  0.1862  0.1040  0.0003
 7427W        W11478   5.060   8.602  13.723  0.1985  0.1221  0.1315
 7428W        W11479   4.073   4.817   1.826 -0.1752  0.5755 -0.1583
 7429W        W11480   1.361   0.488   1.590  0.4244  0.0073  0.1936
 7430W        W11481   0.992   7.587  12.687  0.0482 -0.0178  0.3359
 7431W        W11482   0.189   9.755   0.494  0.2523  0.0168  0.1127
 7432W        W11483   9.622   8.279  10.472 -0.2435 -0.1639  0.2908
 7433W        W11484   0.279   4.563   9.336 -0.2389 -0.3624 -0.1461
 7434W        W11485   2.074   3.413  13.649  0.1474 -0.2459 -0.2568
 7435W        W11486   8.751   7.700   2.021  0.1646 -0.0183 -0.1989
 7436W        W11487   6.890   2.272   1.090  0.1156 -0.1404 -0.1788
 7437W        W11488   4.401   2.765  10.209  0.0136  0.0646 -0.1163
 7438W        W11489   5.763   9.453   2.959 -0.0460  0.1058 -0.1370
 7439W        W11490   8.802   0.162  13.745  0.1346 -0.1973 -0.2448
 7440W        W11491   9.056   6.699   3.388 -0.2253 -0.3165  0.2886
 7441W        W11492   0.174   7.654   1.023 -0.2477 -0.1076 -0.0859
 7442W        W11493   1.841   1.942  11.887 -0.1022 -0.1466 -0.3004
 7443W        W11494   2.487   6.364  11.567 -0.0227  0.2636 -0.0698
 7444W        W11495   0.355   4.996   1.387 -0.4151 -0.1873  0.2496
 7445W        W11496   1.393   0.484  12.075  0.0711 -0.2077 -0.1475
 7446W        W11497   7.415   3.654  11.464 -0.1565 -0.1801 -0.1350
 7447W        W11498   4.091   8.171  10.401  0.0619  0.1788 -0.2597
 7448W        W11499   3.637   5.363   8.694 -0.0243 -0.0389 -0.1994
 7449W        W11500   8.281   3.102  10.463 -0.1826 -0.1072 -0.0490
 7450W        W11501   8.473   2.010   1.489  0.3570 -0.2422  0.0668
 7451W        W11502   0.148   5.682   2.703 -0.0784  0.1352  0.0028
 7452W        W11503   3.625   2.485   3.324 -0.1598  0.0301 -0.3137
 7453W        W11504   5.238   5.767  11.679  0.1549 -0.5479  0.0625
 7454W        W11505   0.993   1.893  10.296 -0.2102  0.1416  0.2036
 7455W        W11506   9.206   6.492  13.728  0.2579  0.2230 -0.2666
 7456W        W11507   8.349   3.184   5.234  0.1354  0.2156 -0.2666
 7457W        W11508   0.521   6.684   4.624 -0.0146 -0.2735 -0.3502
 7458W        W11509   1.604   7.440  13.894  0.1435 -0.2144 -0.3778
 7459W        W11510   1.927   5.706   9.585  0.0957  0.0500 -0.1088
 7460W        W11511   2.460   7.132  11.892  0.1255 -0.2022 -0.1067
 7461W        W11512   3.863   2.412   4.746 -0.1684  0.4361  0.2458
 7462W        W11513   9.700   8.098   9.130  0.1110  0.2153  0.1729
 7463W        W11514   1.431   0.144   0.600 -0.3568  0.2624  0.1656
 7464W        W11515   1.300   9.385  14.023  0.0755 -0.0252 -0.1174
 7465W        W11516   0.363   5.746   0.382 -0.0647  0.1546 -0.3313
 7466W        W11517   0.289  10.047  10.192 -0.0212  0.2626  0.0472
 7467W        W11518   4.330   3.956   9.702 -0.1576 -0.0195 -0.2641
 7468W        W11519   1.425   2.847   2.593 -0.1830  0.1392 -0.1087
 7469W        W11520   9.360   1.208  13.649 -0.0603  0.0697 -0.0018
 7470W        W11521   3.099   2.269   5.361 -0.3392  0.2066  0.1757
 7471W        W11522   6.066   3.859  11.623 -0.0454  0.0260  0.2058
 7472W        W11523   0.580   3.401   9.353 -0.1042  0.1944  0.1470
 7473W        W11524   2.693   5.521  12.170  0.1006  0.3149  0.1842
 7474W        W11525   8.082   5.172  13.899  0.0907 -0.1832 -0.0536
 7475W        W11526   3.456   5.608   1.524 -0.3505  0.3168 -0.5259
 7476W        W11527   1.627   0.271   9.271  0.1199  0.0873  0.1491
 7477W        W11528   6.947   2.050   3.959 -0.0631 -0.1563  0.2816
 7478W        W11529   1.243   3.745   4.438 -0.2867 -0.2160  0.0800
 7479W        W11530   1.419   6.453   1.146  0.2426 -0.1543  0.2140
 7480W        W11531   5.833   1.273   4.154 -0.1343  0.1016 -0.1630
 7481W        W11532   1.407   3.809   1.482 -0.0817  0.1294 -0.2313
 7482W        W11533   5.739   4.493   9.914  0.0696  0.1727 -0.0954
 7483W        W11534   4.616   3.354   1.156 -0.0714 -0.1093 -0.0379
 7484W        W11535   7.582   7.892  10.907  0.2396 -0.0788  0.0495
 7485W        W11536   1.429   5.737   1.465  0.1280 -0.0235  0.1615
 7486W        W11537   7.888   6.489  13.437 -0.0666  0.0548  0.3213
 7487W        W11538   8.216   2.205  13.945 -0.1524 -0.2402  0.0563
 7488W        W11539   2.817   1.172  10.564 -0.1377 -0.0170  0.1680
 7489W        W11540   7.772   2.379   3.887 -0.0900 -0.2562  0.0738
 7490W        W11541   2.335   2.255  10.762  0.0271 -0.0028 -0.0044
 7491W        W11542   5.240   6.680  10.471  0.2422 -0.0515  0.0866
 7492W        W11543   9.640   1.695   3.596 -0.0420  0.0126  0.3137
 7493W        W11544  10.015   0.215  11.322 -0.0277 -0.1325  0.0373
 7494W        W11545   0.006   4.070   3.022 -0.2339  0.2020 -0.2874
 7495W        W11546   3.738   1.242   1.124  0.1648  0.1456  0.1537
 7496W        W11547   5.001   6.095   1.692 -0.1960  0.0975  0.2167
 7497W        W11548  10.148   7.507   1.571  0.1437 -0.0886 -0.0695
 7498W        W11549   0.090   5.523   9.052 -0.0167 -0.3128  0.0708
 7499W        W11550   9.672   2.111  13.828 -0.0061 -0.2289  0.0316
 7500W        W11551  10.079   8.168  10.292  0.0301 -0.2788  0.1042
 7501W        W11552   1.477   3.227  10.858 -0.0697 -0.0487 -0.0771
 7502W        W11553   5.927   2.946   0.192  0.2222  0.0233  0.2481
 7503W        W11554   8.238   7.143  12.691 -0.1624 -0.4346  0.2952
 7504W        W11555   1.434   1.161   0.664  0.0830  0.0199 -0.0406
 7505W        W11556   5.496   5.472   2.250 -0.1630  0.0395 -0.2113
 7506W        W11557   8.309   1.593   1.017  0.1800 -0.0939 -0.1092
 7507W        W11558   1.231   3.891   9.072 -0.0663 -0.2621 -0.1700
 7508W        W11559   2.809   3.951   0.047  0.1158  0.2734  0.2309
 7509W        W11560   2.024   9.766  10.811 -0.1750 -0.0299 -0.2474
 7510W        W11561   6.331   5.714   1.835  0.0880 -0.0968  0.2411
 7511W        W11562   1.689   9.810  11.765 -0.0917 -0.0978 -0.1706
 7512W        W11563   4.164   9.548   9.878 -0.2117  0.1784  0.0108
 7513W        W11564   2.158   0.219   0.615 -0.2335 -0.0989 -0.0533
 7514W        W11565   8.741   2.045   4.139  0.0030  0.3238 -0.1145
 7515W        W11566   6.245   1.609   0.093  0.2791 -0.0012  0.0731
 7516W        W11567   7.921   7.686  13.877  0.1421  0.4732  0.0960
 7517W        W11568   8.173   2.801   4.939 -0.2054  0.1706 -0.0940
 7518W        W11569   3.464   6.091   4.094 -0.0514  0.1699  0.2620
 7519W        W11570   3.228   8.692  11.977  0.0284 -0.3362  0.1025
 7520W        W11571   8.066   4.417  11.495 -0.1415 -0.1938  0.1695
 7521W        W11572   3.512   3.689   4.175 -0.0747 -0.0933  0.1744
 7522W        W11573  10.038   9.470   2.247  0.0798  0.1171 -0.0247
 7523W        W11574   1.768   8.678   9.083 -0.3708 -0.1050 -0.1613
 7524W        W11575   5.246   1.592   0.789  0.1094  0.0869 -0.1408
 7525W        W11576   0.542   9.095   4.696  0.0846 -0.0213  0.0661
 7526W        W11577   4.094   3.543   5.590 -0.0656  0.1418 -0.3523
 7527W        W11578   7.591   1.683   0.139 -0.2091 -0.0596 -0.1563
 7528W        W11579   6.324   4.142   2.558  0.1740 -0.0135 -0.1118
 7529W        W11580   0.138   2.684   4.761 -0.0937  0.3877  0.1680
 7530W        W11581   8.829   5.175   9.951 -0.0811 -0.0199 -0.0304
 7531W        W11582   3.674   0.088   5.553  0.2370 -0.0487 -0.2957
 7532W        W11583   0.028   3.841  11.060  0.2865  0.1288 -0.0390
 7533W        W11584   3.916   1.297  13.089  0.1954  0.4112 -0.0827
 7534W        W11585   8.839   8.747   1.989 -0.1138 -0.2499  0.1682
 7535W        W11586   5.283   2.562   5.025 -0.1547 -0.0060 -0.0551
 7536W        W11587   7.379   5.747  11.197  0.2153 -0.2679  0.1445
 7537W        W11588   1.075   0.236   9.275  0.0724 -0.2376  0.2517
 7538W        W11589   0.279   9.405  13.579 -0.0662  0.0531  0.0647
 7539W        W11590   4.402   9.764  12.656 -0.3876 -0.0907 -0.0767
 7540W        W11591   4.149   4.837   4.095  0.0152  0.1500 -0.1760
 7541W        W11592   3.175   9.992  13.081 -0.1523 -0.0393 -0.1421
 7542W        W11593   5.839   8.814   2.414  0.1099  0.3417  0.0393
 7543W        W11594   2.569   6.244   0.986  0.1161 -0.1660  0.0039
 7544W        W11595   1.497   4.766   0.688 -0.1350 -0.0538 -0.1080
 7545W        W11596   7.106   9.673  13.704 -0.2670  0.0692 -0.0719
 7546W        W11597   2.844   9.061  11.806  0.0847  0.0123 -0.2666
 7547W        W11598   3.456   3.388  13.739 -0.3803  0.2139  0.1772
 7548W        W11599   8.845   6.254  10.775  0.0676  0.1227 -0.2060
 7549W        W11600   3.204   9.438  11.871 -0.0928  0.1371 -0.0627
 7550W        W11601   1.797   0.255   3.643  0.0758 -0.3042 -0.0238
 7551W        W11602   1.879   7.425   2.983  0.2288 -0.1960 -0.0514
 7552W        W11603  10.109   8.658   5.478 -0.0366  0.1408  0.4701
 7553W        W11604   0.626   9.266  11.378 -0.1611  0.1020 -0.2688
 7554W        W11605   4.199   3.317   2.864 -0.0099  0.2367 -0.1337
 7555W        W11606   0.416   9.658   9.856 -0.0750  0.1095  0.0723
 7556W        W11607   4.179  10.088   1.994 -0.0016 -0.1606  0.0751
 7557W        W11608   7.314   7.100  10.103 -0.1884 -0.0530  0.3426
 7558W        W11609   9.613   5.036  13.829 -0.1973  0.2849  0.2010
 7559W        W11610   8.521   5.245   1.757  0.1620  0.0490  0.1025
 7560W        W11611   0.473   1.736   3.390  0.0432  0.0733 -0.5276
 7561W        W11612   6.387   7.181   0.299 -0.1037  0.1492  0.0012
 7562W        W11613   2.181   1.967   2.552 -0.0910 -0.1161  0.0932
 7563W        W11614   6.067   5.601   0.968 -0.0180 -0.0456  0.1419
 7564W        W11615   8.767   5.075   1.107  0.2532  0.2450  0.0863
 7565W        W11616   9.957   5.443  12.291  0.1858 -0.2691 -0.2891
 7566W        W11617   2.868   9.974  11.146 -0.0427 -0.3227  0.1055
 7567W        W11618   0.843   4.967   1.631 -0.0508  0.0749 -0.2196
 7568W        W11619   0.074   0.753  12.122  0.3228 -0.0334  0.1090
 7569W        W11620   7.609   5.798   2.030  0.3973 -0.2884 -0.0757
 7570W        W11621   2.159   6.766   3.327 -0.2019 -0.1461 -0.0086
 7571W        W11622   7.581   6.653   4.213 -0.2928 -0.0631 -0.0393
 7572W        W11623   3.221   6.258   3.284 -0.1801  0.1026  0.0542
 7573W        W11624   7.757   2.846  11.457 -0.1675 -0.0224 -0.0177
 7574W        W11625   5.096   2.085   4.292  0.0879  0.2573  0.0231
 7575W        W11626   3.809   5.760   9.609 -0.0452 -0.0144 -0.1391
 7576W        W11627   6.055   5.480   3.338 -0.2740 -0.1668 -0.1089
 7577W        W11628   8.696   5.187  10.571  0.0600 -0.1750  0.3952
 7578W        W11629   5.018   7.835   2.077  0.0510 -0.1168  0.2482
 7579W        W11630   4.724   7.410  10.878 -0.1216 -0.4407 -0.0294
 7580W        W11631   9.112   7.286   0.166 -0.0763  0.0156  0.0849
 7581W        W11632   6.237   5.427  11.791  0.0906  0.1636  0.0411
 7582W        W11633   4.689   0.901   0.859  0.0404  0.1202 -0.0245
 7583W        W11634   1.988   6.231   9.602  0.0049  0.0130 -0.0447
 7584W        W11635   0.307   9.449   1.830  0.2681 -0.2662 -0.0603
 7585W        W11636   1.666   5.974   4.605 -0.0096  0.3232 -0.2693
 7586W        W11637   7.840   1.411   9.765  0.3129  0.0705 -0.2957
 7587W        W11638   5.152   5.617   3.186  0.2914 -0.2251 -0.3318
 7588W        W11639   8.799   9.394  11.670  0.3414  0.0025 -0.1202
 7589W        W11640   5.171   0.827   0.572 -0.2982  0.1828 -0.1567
 7590W        W11641   4.714   4.048   3.043 -0.1457  0.0241  0.2526
 7591W        W11642   4.033   3.962  10.097 -0.1796  0.2519  0.2239
 7592W        W11643   8.664   4.535   9.411  0.0727 -0.1836 -0.2420
 7593W        W11644   5.849  10.139  13.073 -0.2691 -0.2494 -0.1645
 7594W        W11645   4.298   2.617   0.703  0.0597 -0.1948  0.1561
 7595W        W11646   6.162   2.140   5.133 -0.1974 -0.1517  0.2873
 7596W        W11647   7.797   1.622   1.174 -0.1486 -0.2527 -0.1907
 7597W        W11648   7.463   8.212   1.807 -0.0113  0.0979 -0.0664
 7598W        W11649   9.957   4.424  12.337 -0.1600 -0.2022 -0.0514
 7599W        W11650   0.658   2.686   2.092 -0.0554  0.1695 -0.2760
 7600W        W11651   3.884   3.608   3.173 -0.1104  0.0008  0.0912
 7601W        W11652   6.563   6.123  11.472  0.3253 -0.3714 -0.0138
 7602W        W11653   5.882   3.657  13.128  0.0293 -0.1566 -0.0866
 7603W        W11654   0.028   8.467   0.601 -0.0741  0.0687  0.0143
 7604W        W11655   2.090   9.411   5.109  0.0553  0.1958  0.3759
 7605W        W11656   6.019   3.186   5.589  0.0984  0.0814  0.4734
 7606W        W11657   1.015   9.528  11.378 -0.4093 -0.0184 -0.3777
 7607W        W11658   1.653   7.807  13.516 -0.1474 -0.1565  0.2515
 7608W        W11659   8.505   5.812   3.733 -0.3112  0.2504 -0.1079
 7609W        W11660   8.813   2.567   3.000 -0.0830 -0.0858 -0.1134
 7610W        W11661   2.390   3.262  11.192 -0.0328  0.2719  0.2547
 7611W        W11662   5.895   0.419  11.038 -0.1234 -0.1016  0.0026
 7612W        W11663   9.102   6.749   2.862 -0.0315 -0.1528  0.0078
 7613W        W11664   3.785   7.627  10.973  0.2493  0.0086  0.0760
 7614W        W11665   4.228   6.959   2.959 -0.3044 -0.2904  0.5200
 7615W        W11666   1.905   6.476  12.202 -0.2319 -0.1772 -0.3561
 7616W        W11667   3.222   2.450  10.930  0.3961  0.1037  0.1273
 7617W        W11668   5.447   5.678  10.125 -0.0086 -0.2170 -0.2297
 7618W        W11669   1.465   4.290  11.895 -0.1480  0.0374 -0.0445
 7619W        W11670   9.722   8.886   1.600  0.1788  0.2151 -0.2668
 7620W        W11671   8.751   7.846  12.226 -0.1241 -0.4291 -0.1934
 7621W        W11672   9.284   2.265  13.544  0.0658 -0.1741 -0.0971
 7622W        W11673   3.684   8.592   2.834  0.1455  0.1992  0.0533
 7623W        W11674   2.617   3.138   0.638 -0.0750 -0.0774 -0.2612
 7624W        W11675   8.326   7.549  13.625  0.3243 -0.0587  0.3240
 7625W        W11676   4.795   5.700  11.315 -0.0818 -0.0820  0.0978
 7626W        W11677   5.902  10.136  13.587 -0.1563 -0.1160  0.0515
 7627W        W11678   6.609   5.870   1.218  0.0298 -0.0479 -0.1858
 7628W        W11679   9.300   0.334   9.617 -0.1957 -0.1745  0.0352
 7629W        W11680   3.624   5.358  12.721  0.1192  0.2175  0.0802
 7630W        W11681   9.371   2.652   2.411  0.0829 -0.2058  0.2023
 7631W        W11682   2.576   5.874   1.538 -0.0313 -0.1540 -0.3413
 7632W        W11683   7.128   7.774   0.320  0.1727 -0.2099  0.2404
 7633W        W11684   6.192   4.700   2.661  0.0771  0.0290  0.1947
 7634W        W11685   9.200   5.868  11.683 -0.0221  0.1765 -0.2894
 7635W        W11686   9.500   9.715   4.552 -0.0690  0.0033 -0.1076
 7636W        W11687   1.490   0.544  10.146 -0.2475 -0.1097 -0.2851
 7637W        W11688   0.745   0.380   3.017 -0.0552 -0.1255 -0.1273
 7638W        W11689   6.144  10.147   1.873  0.1907  0.1068  0.2789
 7639W        W11690   2.189   0.339  11.413 -0.3542 -0.0914  0.2573
 7640W        W11691   2.161   6.784   9.791 -0.0203  0.0960 -0.0157
 7641W        W11692   7.595   4.383  11.694  0.0257  0.1762 -0.3011
 7642W        W11693   8.654   0.611  10.791  0.0810  0.0541  0.0639
 7643W        W11694   6.721   3.975  13.744  0.0423  0.1528 -0.2345
 7644W        W11695   5.449   2.816  13.922  0.1003 -0.0441  0.0812
 7645W        W11696   3.654   9.447  10.709  0.2629  0.1631  0.1115
 7646W        W11697   1.474   5.442   1.029 -0.1616  0.1280  0.1760
 7647W        W11698   3.411   8.599   5.781  0.0733 -0.1140 -0.0841
 7648W        W11699   7.889   7.260  13.653  0.1222  0.1744  0.2455
 7649W        W11700   1.763   6.684   1.457  0.1051  0.0285  0.0212
 7650W        W11701   2.217   9.914   0.699 -0.1136  0.0788 -0.5077
 7651W        W11702   3.742   4.384   9.908  0.1423  0.4830  0.1214
 7652W        W11703   7.938   0.472   1.856 -0.0255 -0.2767  0.1154
 7653W        W11704   4.816  10.110   3.307 -0.2276 -0.0486 -0.1101
 7654W        W11705   3.478   0.837  10.304 -0.0975 -0.1397 -0.0493
 7655W        W11706   9.390   1.461   5.666  0.2647  0.0946 -0.1199
 7656W        W11707   1.216   9.062   9.619  0.3471  0.0913 -0.1944
 7657W        W11708   5.572   1.498   4.601  0.2291  0.1923 -0.1861
 7658W        W11709   1.887   8.573   3.822 -0.1363  0.0267  0.0798
 7659W        W11710   6.539   3.257  11.259 -0.0889 -0.0247 -0.1923
 7660W        W11711   7.592   3.583  12.834 -0.2761  0.2126  0.2516
 7661W        W11712   5.408   2.459   4.522 -0.6226  0.1695 -0.3837
 7662W        W11713   4.963   8.364  12.160  0.1574  0.1418 -0.2080
 7663W        W11714   4.815   7.083  10.017 -0.0163 -0.0981  0.3490
 7664W        W11715   3.392   7.642   1.955  0.1693 -0.2670 -0.1258
 7665W        W11716   1.515   7.754   3.014 -0.1290 -0.1578  0.1789
 7666W        W11717   4.617   7.570  11.575 -0.1523  0.3387  0.2330
 7667W        W11718   7.186   6.422   3.085 -0.2050 -0.2178  0.0596
 7668W        W11719   4.267   7.623  10.741 -0.2879  0.0417 -0.4167
 7669W        W11720   4.978   4.812   1.288 -0.0476  0.1262  0.4314
 7670W        W11721   3.051   3.476  14.015 -0.1654  0.0719  0.1637
 7671W        W11722   1.638   0.468   4.754 -0.1452 -0.1195  0.2646
 7672W        W11723   4.780   3.917  10.689  0.0252  0.1588  0.2111
 7673W        W11724   4.291   5.901   2.888 -0.2727 -0.1624 -0.0419
 7674W        W11725   8.434   1.482   5.164 -0.0867 -0.0013  0.1930
 7675W        W11726   5.159   7.126  13.788  0.1762 -0.0147 -0.0063
 7676W        W11727   8.208   5.116  13.056  0.0336 -0.0258 -0.0793
 7677W        W11728   2.540  10.013  12.108  0.4242  0.0351  0.1237
 7678W        W11729   3.374   0.480   1.751 -0.1364 -0.3229 -0.0757
 7679W        W11730   8.534  10.068   0.734  0.2251  0.1432  0.0352
 7680W        W11731   3.958   8.309   4.519 -0.1146 -0.0278 -0.5397
 7681W        W11732   9.502   5.195  13.387  0.3158 -0.0190 -0.1251
 7682W        W11733   7.616   4.269   2.209 -0.2044 -0.3083 -0.5258
 7683W        W11734   6.209   5.701  12.697  0.0077  0.4187 -0.1988
 7684W        W11735   7.747   0.200  12.004  0.0509 -0.3498  0.1145
 7685W        W11736   1.823   7.012  11.988 -0.0290 -0.2361 -0.0265
 7686W        W11737   4.824  10.101  11.628  0.0714 -0.0371  0.0139
 7687W        W11738   8.638   1.929   9.570  0.0557  0.2605 -0.0965
 7688W        W11739   8.127   4.562   9.572  0.1277  0.0901 -0.1002
 7689W        W11740   9.292   1.132   9.363  0.0725  0.0591  0.5959
 7690W        W11741   9.342   9.375  13.939  0.1126  0.0610  0.1008
 7691W        W11742   9.886   9.712   3.110 -0.0588 -0.1884  0.2137
 7692W        W11743   8.375   0.031   4.575 -0.0259  0.1533 -0.1749
 7693W        W11744   1.419   0.457  11.138 -0.3143  0.0826 -0.2065
 7694W        W11745   9.893   7.601   4.172  0.2093  0.3427  0.0382
 7695W        W11746   9.531   3.812   4.200 -0.1604 -0.1647 -0.2706
 7696W        W11747   3.081   2.795  12.769 -0.0984 -0.0596  0.0283
 7697W        W11748   0.677   6.143   3.834 -0.2163  0.4149 -0.0782
 7698W        W11749   3.461   8.374   9.789 -0.2593  0.1200  0.0861
 7699W        W11750   0.040   1.400   1.563 -0.0763 -0.2186 -0.1502
 7700W        W11751  10.038   4.906  12.029 -0.2697  0.1755  0.3512
 7701W        W11752   1.871   2.274   2.854 -0.0868 -0.0457 -0.3420
 7702W        W11753   2.550   8.647   2.959 -0.2475 -0.1757  0.2871
 7703W        W11754   4.591   5.518  10.133  0.0535  0.2525  0.0248
 7704W        W11755   3.905   8.325   3.194 -0.4319 -0.1609  0.1458
 7705W        W11756   8.793   6.316  13.038  0.0392 -0.2024  0.1579
 7706W        W11757   8.473   7.646   1.497  0.2639  0.2151  0.2770
 7707W        W11758   0.324   6.319  10.472 -0.1204 -0.0248 -0.0555
 7708W        W11759   0.382   7.422   2.009 -0.3032 -0.0628  0.2519
 7709W        W11760   1.038   5.844   2.553 -0.0613  0.0164 -0.0368
 7710W        W11761   3.504   7.881   2.380  0.2448  0.0673 -0.1320
 7711W        W11762   8.203   1.102   0.717 -0.1797  0.1435 -0.2350
 7712W        W11763   5.554   8.663   1.821 -0.0531 -0.1029 -0.1757
 7713W        W11764   4.356   4.785  12.173 -0.1981  0.1641  0.0170
 7714W        W11765   8.993   4.998   0.664 -0.2196 -0.0867 -0.0466
 7715W        W11766   3.327   9.809   2.575 -0.1083 -0.1776  0.2162
 7716W        W11767   2.187   0.460   4.544 -0.1052  0.0091 -0.0863
 7717W        W11768   8.388   3.471  11.805  0.0486 -0.2744  0.0807
 7718W        W11769   9.078   4.563   3.851 -0.0435 -0.0602  0.1165
 7719W        W11770   6.800   8.341  10.892  0.2496  0.0668 -0.2035
 7720W        W11771   8.580   6.607  11.564 -0.0195 -0.2494  0.1857
 7721W        W11772   8.947   9.657  11.272  0.2979 -0.1834  0.0084
 7722W        W11773   5.043   0.561  10.946  0.0220  0.1353 -0.2235
 7723W        W11774   1.278   7.854  13.992 -0.1143 -0.2371  0.0243
 7724W        W11775   1.991   9.046  12.222  0.1656  0.2722 -0.1380
 7725W        W11776   5.317   3.639   4.715 -0.2164  0.1214  0.1582
 7726W        W11777   9.552   2.171   3.495  0.2623 -0.2117 -0.2391
 7727W        W11778   3.816   1.665   3.205 -0.2419 -0.1542 -0.1282
 7728W        W11779   4.930   5.154   0.963  0.0673  0.0388  0.0825
 7729W        W11780   4.109  10.029   9.877 -0.3045 -0.4588 -0.0087
 7730W        W11781   3.071   4.520  10.985  0.2283 -0.1894  0.1584
 7731W        W11782   5.680   6.831  12.094 -0.1493 -0.1366 -0.1642
 7732W        W11783   2.646   1.892   1.976  0.1431 -0.1151 -0.0446
 7733W        W11784   0.709   1.393   2.636  0.2653  0.1951 -0.1300
 7734W        W11785   2.262   0.817   2.706 -0.0963 -0.0548 -0.1654
 7735W        W11786   3.117   7.000  14.073  0.0633 -0.1748  0.0832
 7736W        W11787   7.922   9.752   3.144  0.4479 -0.0695 -0.0482
 7737W        W11788   9.229   7.595   1.764  0.0765  0.2549 -0.1304
 7738W        W11789   1.655   7.623  10.742  0.0363 -0.2392 -0.0700
 7739W        W11790   1.268   5.069   8.975 -0.3339 -0.0908 -0.2367
 7740W        W11791   4.016   2.907  11.318 -0.1163  0.0360 -0.1391
 7741W        W11792   1.256   9.903  10.004  0.1791  0.2387  0.1523
 7742W        W11793   3.117   0.904  13.307  0.1493 -0.1200 -0.1391
 7743W        W11794   7.414   3.861   1.377  0.3378 -0.0514 -0.0543
 7744W        W11795   9.669   9.401   0.676 -0.0395 -0.0207  0.0105
 7745W        W11796   1.312   3.985   0.201 -0.0283 -0.2090 -0.3237
 7746W        W11797   5.475   4.619  13.506  0.2138 -0.0515 -0.1652
 7747W        W11798   8.912   6.035   1.401 -0.2250  0.0984  0.2725
 7748W        W11799   4.504   8.354  13.640 -0.2643  0.2671  0.0702
 7749W        W11800   7.932   9.135  10.807 -0.0209 -0.4915 -0.1127
 7750W        W11801   3.139   2.399   2.313  0.2017 -0.1490 -0.2238
 7751W        W11802   4.824   2.724   3.800  0.1846 -0.1316  0.0483
 7752W        W11803   8.431   9.874  13.883  0.1041 -0.0161 -0.1893
 7753W        W11804   5.142   8.950   1.607 -0.3765  0.0386 -0.2971
 7754W        W11805   0.045   8.916   5.024  0.2878  0.0505 -0.1820
 7755W        W11806   2.596   6.389   1.551  0.0187  0.0138 -0.3183
 7756W        W11807   5.691   8.962   0.911 -0.0278  0.0649  0.1392
 7757W        W11808   3.066   7.750  12.720 -0.0811 -0.1735 -0.3235
 7758W        W11809   8.201   4.336  13.790 -0.4305 -0.3606  0.2550
 7759W        W11810   2.166   6.880  13.279  0.0379 -0.1976  0.2869
 7760W        W11811   4.726   9.788  13.029  0.1572 -0.1191  0.2121
 7761W        W11812   4.885   2.506  10.210 -0.0388 -0.0467 -0.0691
 7762W        W11813   7.932   7.296   2.229  0.0014  0.1668 -0.1739
 7763W        W11814   2.133   2.022  10.336 -0.0450  0.1472 -0.0529
 7764W        W11815   4.677   1.883   4.994  0.4471 -0.1994 -0.0578
 7765W        W11816   7.427   3.021   8.301  0.0905 -0.2919 -0.1350
 7766W        W11817   6.522   2.378   0.640 -0.0211  0.0778  0.1175
 7767W        W11818   7.481   9.879   0.335 -0.1559 -0.0480 -0.0525
 7768W        W11819   8.729   9.937   4.024 -0.2999 -0.0147  0.3138
 7769W        W11820   0.934   4.334   0.914  0.0491 -0.1158 -0.0480
 7770W        W11821   0.494   7.696   4.567 -0.1609  0.0114  0.3187
 7771W        W11822   1.991   3.266   1.938 -0.0259  0.1419 -0.1919
 7772W        W11823   1.002   8.019  11.890 -0.0148 -0.1778  0.1206
 7773W        W11824   5.441   1.587   4.101 -0.1150 -0.1890 -0.0250
 7774W        W11825   0.902   4.507  12.007  0.1602  0.0665  0.2899
 7775W        W11826   7.498   5.614   3.305  0.0854  0.3774 -0.0624
 7776W        W11827   0.927   1.158  11.278 -0.2304 -0.3140  0.0956
 7777W        W11828   4.398   6.818   9.652 -0.3028  0.1889  0.0640
 7778W        W11829   4.575   9.600  10.372  0.1117  0.2495  0.0612
 7779W        W11830   2.783   4.985   3.021 -0.0711 -0.0043  0.1531
 7780W        W11831   2.455   4.651   1.258  0.1906 -0.0474 -0.0434
 7781W        W11832   5.785   9.613  11.995  0.2921  0.2039 -0.1184
 7782W        W11833   1.855   9.577   4.145 -0.1667 -0.0227 -0.0461
 7783W        W11834   2.951   4.011   1.642 -0.0001 -0.0677 -0.1913
 7784W        W11835   0.357   6.738   1.233 -0.2128  0.1107  0.1997
 7785W        W11836   1.437   2.239  11.086 -0.0537  0.2134 -0.3363
 7786W        W11837   9.938   1.523  11.444  0.1351  0.1891  0.3494
 7787W        W11838   9.592   7.957  14.058 -0.1228  0.0077 -0.1860
 7788W        W11839   7.934   0.214  11.249 -0.2603  0.3298 -0.1000
 7789W        W11840   5.778   1.700   0.871  0.0401 -0.0356 -0.2166
 7790W        W11841   9.491   5.888  10.623  0.2549 -0.1108  0.0412
 7791W        W11842   9.605   1.393  11.080 -0.1081  0.0964 -0.0715
 7792W        W11843   1.088   4.993  12.423 -0.2268  0.2943  0.2277
 7793W        W11844   4.076   2.896   1.970 -0.3029 -0.0352 -0.1366
 7794W        W11845   6.395   7.480  12.010 -0.0767  0.2758  0.1417
 7795W        W11846   0.235   0.979   4.180 -0.2113 -0.1609  0.0897
 7796W        W11847   6.796   9.301  13.163  0.1491 -0.1407 -0.1323
 7797W        W11848   3.702   6.962   2.286 -0.0326 -0.0091  0.1270
 7798W        W11849   4.551   8.371   0.317  0.0902 -0.1144 -0.4674
 7799W        W11850   5.387   5.028  12.613  0.0505 -0.0880 -0.0600
 7800W        W11851   6.830   7.792  12.124  0.1742 -0.2072 -0.2501
 7801W        W11852   3.182   2.829   4.095 -0.0741  0.0541  0.1765
 7802W        W11853   6.904   0.465  13.584 -0.1411 -0.0287  0.2717
 7803W        W11854   3.731   8.514  13.970  0.0014  0.0772 -0.1609
 7804W        W11855   9.908   3.406   8.649  0.1513  0.0503  0.0203
 7805W        W11856   8.602   3.960  12.147 -0.2150 -0.3117 -0.1997
 7806W        W11857   3.634   7.662  13.299  0.2007  0.3985  0.0259
 7807W        W11858   7.063   9.951  11.131 -0.0157  0.2293  0.1415
 7808W        W11859   8.643   9.583  12.965 -0.1211 -0.1755 -0.0093
 7809W        W11860   8.037   3.831   3.110 -0.0367  0.1974  0.1744
 7810W        W11861   0.240   6.621   3.249  0.1400  0.0546 -0.2919
 7811W        W11862   7.386   8.024   0.652 -0.0535 -0.2145  0.4389
 7812W        W11863   4.109   8.125  12.619  0.0891 -0.0231 -0.0048
 7813W        W11864   4.646   6.639   3.455 -0.2514  0.1634  0.0501
 7814W        W11865   4.181   5.870   3.410  0.0057 -0.1795 -0.2084
 7815W        W11866   6.915   8.049  13.808  0.0194  0.3812 -0.0905
 7816W        W11867   2.085   5.875   1.253 -0.0817  0.1078 -0.0453
 7817W        W11868   1.992   6.104  10.500 -0.1489 -0.0566  0.0495
 7818W        W11869   5.564   1.379  10.601  0.2711 -0.0186 -0.2022
 7819W        W11870   3.898   1.898   0.564  0.2169  0.0262  0.0956
 7820W        W11871   9.057   7.906   3.802  0.0165  0.0591 -0.2617
 7821W        W11872   7.192   5.329  13.510 -0.0515 -0.1448 -0.1016
 7822W        W11873   1.897   2.485  11.152  0.2088  0.0731 -0.0090
 7823W        W11874   3.953   2.899   5.574  0.1318 -0.0128  0.0120
 7824W        W11875   1.654   9.707   5.018  0.0275  0.2545  0.1340
 7825W        W11876   2.598   4.656   3.984 -0.0043  0.2604 -0.0449
 7826W        W11877   9.017   3.403  12.642  0.2949  0.0832 -0.3301
 7827W        W11878   0.883   8.192   9.891  0.3579  0.3714 -0.3663
 7828W        W11879   1.376   6.568  13.806  0.0950 -0.1133  0.1349
 7829W        W11880   5.258   3.904   0.936  0.2634 -0.0057  0.0565
 7830W        W11881   2.068   5.845   0.128  0.1474  0.0706 -0.2017
 7831W        W11882   4.608  10.124  13.445 -0.0554  0.2174 -0.3554
 7832W        W11883   7.492   3.304   9.350  0.0109 -0.2115 -0.0154
 7833W        W11884   5.652   2.300   1.924 -0.2841  0.2726 -0.1245
 7834W        W11885   7.400   2.178   0.364  0.0321  0.0932 -0.1116
 7835W        W11886   0.983   4.671  12.858  0.0202 -0.0086  0.4634
 7836W        W11887   4.001   7.045  12.006 -0.1130  0.0252  0.2404
 7837W        W11888   3.881   0.789   0.283  0.0263  0.1122 -0.0633
 7838W        W11889   6.432   4.981  13.165  0.1501 -0.0011 -0.0591
 7839W        W11890   8.437   8.501   0.176 -0.1334  0.1373 -0.3059
 7840W        W11891   4.981   0.463   4.293  0.0296 -0.1325 -0.0261
 7841W        W11892   8.232   6.217  13.015  0.0637 -0.0507  0.1581
 7842W        W11893   0.438   5.714  12.348 -0.2192  0.0153  0.0168
 7843W        W11894   5.598   9.670   3.462  0.0117  0.0333  0.1610
 7844W        W11895   4.923   8.312   2.334 -0.2187  0.0557 -0.2617
 7845W        W11896   8.296   0.604   0.614 -0.1469 -0.1140 -0.2561
 7846W        W11897   0.682   9.995   2.484 -0.3498  0.1808  0.0742
 7847W        W11898   2.872   2.577  11.377 -0.0499  0.1123 -0.1393
 7848W        W11899   2.278   3.216   1.150 -0.1567 -0.0045 -0.0931
 7849W        W11900   5.762   5.967   4.451  0.4237 -0.4182 -0.0128
 7850W        W11901   4.834   0.502  11.632  0.4202 -0.0727  0.2543
 7851W        W11902   5.329   6.707  12.550  0.0182 -0.0115 -0.2562
 7852W        W11903   0.344   0.630  13.185 -0.3586  0.1411 -0.0985
 7853W        W11904   2.133   6.243   1.644  0.3384  0.1535 -0.0450
 7854W        W11905   5.713   6.035  11.954  0.1259  0.4602 -0.0327
 7855W        W11906   8.455   0.739   2.813 -0.0635 -0.2629 -0.0235
 7856W        W11907   6.752   1.733  14.040  0.0540  0.3487  0.0772
 7857W        W11908   6.462   9.010  13.542 -0.0658 -0.1687  0.2645
 7858W        W11909   0.738   9.638   2.119 -0.1030 -0.0373  0.2502
 7859W        W11910   5.904   3.256   1.978  0.0766  0.0620 -0.2121
 7860W        W11911   9.166   3.613  10.802 -0.0851 -0.0345 -0.0573
 7861W        W11912   6.108   5.652  10.556  0.2329  0.2343  0.0689
 7862W        W11913   5.048   3.054   2.324  0.2618 -0.5051 -0.0096
 7863W        W11914   4.410   2.579   8.858 -0.1405 -0.1749  0.0677
 7864W        W11915   4.656   3.612   2.683  0.0953 -0.0634  0.0135
 7865W        W11916   7.257   2.275  12.477  0.1053  0.2506  0.2287
 7866W        W11917   6.987   4.685   1.422 -0.0422  0.0607 -0.2585
 7867W        W11918  10.126   1.066   0.585  0.1690 -0.2772 -0.2167
 7868W        W11919   3.886   9.578   3.273  0.1993  0.0955  0.0656
 7869W        W11920   8.966   3.382   0.009 -0.0042 -0.1968 -0.1719
 7870W        W11921   6.107   5.489   0.076 -0.0715 -0.1281  0.1621
 7871W        W11922   5.459   2.689  10.306 -0.1265  0.0613 -0.2471
 7872W        W11923   0.969   1.861   2.548  0.0658 -0.1262 -0.1512
 7873W        W11924   4.363   8.920   2.681  0.1840 -0.1474 -0.0478
 7874W        W11925   1.256   7.941  10.539 -0.0061 -0.1252  0.1387
 7875W        W11926   3.711   3.817   2.718  0.1545 -0.3051  0.1001
 7876W        W11927   0.384   7.807   1.463  0.1455 -0.0290  0.4144
 7877W        W11928   7.583   9.509  12.486  0.2308 -0.0185  0.0757
 7878W        W11929   4.480   3.313   5.138 -0.2948  0.3223 -0.0113
 7879W        W11930   4.195   9.653  10.711 -0.0136  0.0073 -0.0727
 7880W        W11931   5.662  10.068   0.457  0.1004 -0.3380 -0.2506
 7881W        W11932   7.793   0.514   2.433  0.0946 -0.1757  0.3584
 7882W        W11933   0.521   2.798   0.155  0.1335  0.0347  0.1293
 7883W        W11934   3.496   8.233   3.699 -0.1565 -0.1216 -0.0216
 7884W        W11935   4.235   8.031  11.317 -0.1612 -0.1085 -0.4231
 7885W        W11936   3.443   8.104   1.773 -0.0953 -0.2811 -0.0649
 7886W        W11937   9.796   9.310  10.514  0.2744 -0.2634 -0.2224
 7887W        W11938   0.608   8.604  13.945  0.1397 -0.0169 -0.1068
 7888W        W11939   6.142   6.734   0.296  0.0842  0.3032 -0.1799
 7889W        W11940   4.144   1.512   3.571  0.2371  0.5472  0.1425
 7890W        W11941   9.305   9.220  11.914  0.0148 -0.0990  0.4295
 7891W        W11942   6.703   4.384   1.729  0.0561  0.0261 -0.3523
 7892W        W11943   3.516   0.900   1.984 -0.1706 -0.2212 -0.0345
 7893W        W11944   6.412   3.702   0.210 -0.0225  0.1457  0.1858
 7894W        W11945   3.987   6.552  12.146  0.2350 -0.2462 -0.0512
 7895W        W11946  10.096   3.073   2.566  0.1023  0.0969  0.1815
 7896W        W11947  10.035   4.373   1.703 -0.1972 -0.1014 -0.0451
 7897W        W11948   9.405   7.477  12.525 -0.1068 -0.2141 -0.1183
 7898W        W11949   4.459   3.317   2.329 -0.0511 -0.5185 -0.1408
 7899W        W11950   5.000   3.121   4.080 -0.0522 -0.1831  0.1810
 7900W        W11951   6.844   4.053   9.897 -0.0593 -0.0963  0.2566
 7901W        W11952   0.808   1.331   1.111 -0.1858  0.0252  0.0109
 7902W        W11953   5.051   6.744  12.115 -0.2347 -0.1255  0.0994
 7903W        W11954   3.197   5.860  14.026  0.1174  0.2460 -0.1678
 7904W        W11955   2.732   5.205   3.890  0.1447 -0.2721 -0.1207
 7905W        W11956   8.037   6.052   2.637  0.0121  0.2345 -0.1203
 7906W        W11957   5.951   9.138   1.986 -0.2330 -0.3376 -0.0172
 7907W        W11958   0.395   2.174  11.696  0.3632 -0.1177 -0.0102
 7908W        W11959   4.283   0.520   3.205 -0.1348 -0.2304 -0.0846
 7909W        W11960   4.395   5.181   1.258 -0.1381 -0.2567  0.0249
 7910W        W11961   1.163   4.137   9.535 -0.3913 -0.0095  0.2013
 7911W        W11962   7.852   5.967  11.360 -0.0441 -0.1830 -0.0193
 7912W        W11963   3.891   2.205   5.251  0.3656 -0.0098 -0.1276
 7913W        W11964   4.387   5.064   2.235  0.2193 -0.1344  0.1807
 7914W        W11965   2.735   2.890  10.150  0.2534 -0.0566  0.0211
 7915W        W11966   3.571   1.776  13.191 -0.2191  0.0680 -0.0100
 7916W        W11967   1.427   3.096   1.319 -0.2882  0.2850  0.0632
 7917W        W11968   5.861   4.956  10.013  0.0221 -0.1163  0.1477
 7918W        W11969   6.159   1.053   0.258  0.0436 -0.0023 -0.2293
 7919W        W11970   8.133   2.537   1.372 -0.2807  0.0290  0.0062
 7920W        W11971   4.102   4.327   0.285  0.2939  0.1606  0.1625
 7921W        W11972   1.413   7.127   3.075  0.0417 -0.1356  0.0514
 7922W        W11973   3.852   9.983   3.582 -0.0089  0.2495 -0.2168
 7923W        W11974   1.386   5.600   9.655  0.0428  0.3199  0.1560
 7924W        W11975   9.534   2.141  12.888  0.0266  0.0336 -0.0634
 7925W        W11976   5.309   0.241   0.605 -0.3402  0.1613 -0.0854
 7926W        W11977   8.722   6.980   0.126  0.1177  0.1007  0.1297
 7927W        W11978   3.947   2.664  10.530 -0.2425  0.5694  0.2003
 7928W        W11979   7.855   3.573   3.518 -0.0428 -0.2376 -0.2140
 7929W        W11980   7.027   8.827  13.256  0.2803 -0.1064  0.1045
 7930W        W11981   0.185   0.593   1.056 -0.0997  0.1716 -0.0060
 7931W        W11982   9.036   9.077   3.836  0.2198 -0.0038  0.0717
 7932W        W11983   8.641   9.384   1.413  0.0944  0.0902  0.4036
 7933W        W11984   0.444   1.698  14.037  0.0153  0.1599 -0.2817
 7934W        W11985   2.561   0.589   4.862  0.0934  0.0408  0.2463
 7935W        W11986   0.549   6.033   2.585 -0.0584  0.1569  0.0751
 7936W        W11987   7.759   6.297  11.796  0.0216  0.2035  0.2849
 7937W        W11988   8.786   1.591  13.114  0.1052  0.1472 -0.0414
 7938W        W11989   3.737   6.639   4.144  0.0838 -0.1671  0.1793
 7939W        W11990   1.035   3.197   3.764  0.1120 -0.0641 -0.0414
 7940W        W11991   6.011   0.325   4.636 -0.0359 -0.1321 -0.1427
 7941W        W11992   5.761   3.914  10.640 -0.1849 -0.1845  0.0925
 7942W        W11993   2.038   9.833  12.143  0.0410 -0.0459 -0.1561
 7943W        W11994   2.408   0.687   0.352 -0.0262  0.1894 -0.4510
 7944W        W11995   2.577   9.213   4.691  0.0641  0.3117 -0.0092
 7945W        W11996   2.772   6.642   0.143 -0.1901 -0.0487  0.0719
 7946W        W11997   9.423   2.328   2.053 -0.1969  0.0131 -0.1135
 7947W        W11998   4.970   3.127   9.525 -0.1401  0.5436  0.3026
 7948W        W11999   8.112   4.479   4.835 -0.2091 -0.0799 -0.5269
 7949W        W12000   4.834   0.607   3.094 -0.1719 -0.0187 -0.1568
 7950W        W12001   8.824   6.511   0.023  0.0464  0.1994  0.1069
 7951W        W12002   3.613   5.464   0.539 -0.0023 -0.0135 -0.1419
 7952W        W12003   1.435   1.463  13.288  0.0478  0.1391  0.1138
 7953W        W12004   1.992   2.774  10.759  0.0310 -0.0823 -0.0326
 7954W        W12005   8.437   6.960   9.924  0.1739 -0.1808  0.3549
 7955W        W12006  10.155   4.439  11.836  0.1288  0.0630  0.1021
 7956W        W12007   7.700   6.970  11.258 -0.0365  0.0454 -0.0800
 7957W        W12008   4.569   8.897  12.955  0.0846 -0.0759  0.2971
 7958W        W12009   7.098   7.172   3.101  0.0475  0.2682 -0.4252
 7959W        W12010   7.141   5.785  13.036  0.2068  0.0615  0.1065
 7960W        W12011   5.393   7.389   0.047  0.0665 -0.0447  0.1923
 7961W        W12012   1.213   1.222  10.667 -0.0820  0.0790  0.0860
 7962W        W12013   1.611   7.510   3.436  0.3214 -0.0091 -0.4457
 7963W        W12014   2.339   8.260   2.437 -0.1433  0.1208 -0.0261
 7964W        W12015  10.124   8.996  13.682 -0.1955 -0.0264  0.2921
 7965W        W12016   5.861   1.319  10.165 -0.1090  0.0113  0.2004
 7966W        W12017   0.005   5.595   4.450  0.1969  0.1584  0.0002
 7967W        W12018   3.893   8.104   9.113 -0.0549 -0.1365  0.6388
 7968W        W12019   1.911   5.851  10.065 -0.0291 -0.0647  0.0379
 7969W        W12020   1.394   2.095  12.000 -0.0929 -0.2682 -0.0930
 7970W        W12021   8.984   2.333   2.504  0.2199  0.0147 -0.3294
 7971W        W12022   2.179   2.578   1.775  0.0351  0.1752  0.3583
 7972W        W12023   8.721   6.344  12.228  0.1866 -0.0567 -0.2071
 7973W        W12024   1.461   6.239  12.957  0.0948 -0.1517  0.3721
 7974W        W12025   3.748   1.654   9.179  0.1467  0.2511  0.0724
 7975W        W12026   1.436   8.939  10.808  0.1382  0.0494  0.1640
 7976W        W12027   8.785   3.007  12.886 -0.2222 -0.1144 -0.0278
 7977W        W12028   8.518   5.500   4.110  0.1450  0.1987 -0.0416
 7978W        W12029   2.166   1.291   3.826 -0.1347  0.1698 -0.1019
 7979W        W12030   8.964   7.986  10.524  0.3254  0.3088 -0.3745
 7980W        W12031   9.412   1.292   4.706  0.2517  0.0034 -0.3027
 7981W        W12032   6.721   0.224   0.417  0.2162  0.2419 -0.0471
 7982W        W12033   4.824   4.465   1.687 -0.0607  0.0038  0.1985
 7983W        W12034   7.483   7.977   3.546 -0.0397  0.0687  0.0989
 7984W        W12035   4.088   2.854  13.979  0.0284  0.2734 -0.2086
 7985W        W12036   7.337   5.178  11.803 -0.0481 -0.0213 -0.2303
 7986W        W12037   3.523   3.498  10.144  0.2016 -0.0426  0.0414
 7987W        W12038   8.452   1.520   1.601  0.1288  0.1766 -0.0768
 7988W        W12039   4.511   2.131   3.970 -0.1883  0.0069 -0.2479
 7989W        W12040   2.847  10.082   3.554  0.2073 -0.0458 -0.3124
 7990W        W12041   3.160   8.877  11.434 -0.0807  0.1047  0.1404
 7991W        W12042   6.262   2.613   0.153 -0.2570  0.0450  0.0082
 7992W        W12043   4.442   3.419   4.231 -0.0304  0.0169  0.2770
 7993W        W12044   8.937   0.414  11.140 -0.0273 -0.1540 -0.0284
 7994W        W12045   8.005   3.202   9.487 -0.0001 -0.1857  0.0525
 7995W        W12046   8.599   0.045   0.121  0.1181  0.3316 -0.0073
 7996W        W12047   6.084   8.268   3.060  0.2650 -0.3545 -0.2670
 7997W        W12048   3.174   1.432   4.140 -0.1773  0.2657  0.1979
 7998W        W12049   0.754   4.061   3.678 -0.0049 -0.0433 -0.4554
 7999W        W12050   8.413   5.644  11.638 -0.0184 -0.2288 -0.0220
 8000W        W12051   4.799   0.814  13.014 -0.1099 -0.0708  0.0088
 8001W        W12052   0.783   9.789   1.070 -0.0109 -0.0383 -0.1195
 8002W        W12053   4.190   1.904   9.336  0.4114  0.1221 -0.1354
 8003W        W12054   6.804   8.956  10.228 -0.0830 -0.5580  0.4149
 8004W        W12055   6.756   2.192  13.661 -0.1746 -0.1566 -0.0416
 8005W        W12056   7.893   8.820  12.335  0.2285  0.1105  0.0482
 8006W        W12057   8.073   2.478  12.684  0.2571  0.1884 -0.0858
 8007W        W12058   2.986   6.549  10.568 -0.0292 -0.5359  0.1498
 8008W        W12059   1.108   0.651  10.622 -0.1590 -0.0614 -0.2344
 8009W        W12060   9.646   9.564  10.004  0.0795  0.1179 -0.1086
 8010W        W12061   2.875   5.387   3.389  0.3257  0.1364 -0.1905
 8011W        W12062   8.216   5.793   1.109  0.0191 -0.0061 -0.1008
 8012W        W12063   3.577   3.708  12.837  0.0331 -0.3427 -0.0095
 8013W        W12064   4.937   9.124   2.162 -0.1427 -0.1203  0.0591
 8014W        W12065  10.012   8.213  12.382  0.2308 -0.2245  0.0491
 8015W        W12066   0.726   4.168  12.940  0.0988 -0.2402  0.1569
 8016W        W12067   4.690   4.321   3.940 -0.0232  0.1237 -0.0925
 8017W        W12068   3.658   5.655  11.835 -0.0341 -0.0772 -0.1065
 8018W        W12069   6.819   8.345  11.806 -0.0547 -0.1868  0.1835
 8019W        W12070   4.307   9.316   1.388  0.0914 -0.1402  0.0519
 8020W        W12071   4.538   9.750   3.647 -0.0463  0.2009  0.2370
 8021W        W12072   9.244   7.029  10.307  0.0140 -0.0112  0.0313
 8022W        W12073   8.051   3.732   1.996  0.2404 -0.1923  0.1716
 8023W        W12074   9.020   4.451   3.294  0.1415 -0.0948  0.1459
 8024W        W12075   3.269   3.338   3.130 -0.0267 -0.0336 -0.0099
 8025W        W12076   1.781   9.565  13.591 -0.3075  0.1267  0.1256
 8026W        W12077   2.964   6.154   0.258 -0.1052 -0.1933  0.2252
 8027W        W12078   0.052   1.123   4.654  0.0143  0.1337  0.0104
 8028W        W12079   3.304   1.801   9.437 -0.2874 -0.1799  0.1747
 8029W        W12080   5.276   4.194   1.747 -0.2836 -0.0554  0.2719
 8030W        W12081   3.168   8.879   1.504  0.1803 -0.0073 -0.0951
 8031W        W12082   2.005   9.663  13.106 -0.0010  0.0948 -0.2001
 8032W        W12083   0.286   0.101  10.606  0.0618  0.3474 -0.3556
 8033W        W12084   9.202   6.593   9.965  0.0554 -0.0634 -0.1515
 8034W        W12085   5.647   0.949  14.001  0.0100 -0.1889 -0.4050
 8035W        W12086   8.813   1.662  13.621  0.0050 -0.0459  0.0578
 8036W        W12087   2.211   3.676   2.483 -0.1262  0.2826 -0.1415
 8037W        W12088   2.149   3.559  10.324  0.2914 -0.1992  0.0598
 8038W        W12089   6.185   1.686  11.281 -0.2155  0.1226  0.3927
 8039W        W12090   6.288   6.503   4.310  0.5613 -0.0750 -0.3355
 8040W        W12091   0.026   5.256   3.608  0.0242 -0.0622  0.2310
 8041W        W12092   5.626   8.097  11.519 -0.0546 -0.0583  0.3059
 8042W        W12093   2.176   7.525  11.523 -0.1434  0.0965  0.2469
 8043W        W12094   3.966   1.220   0.576  0.0606  0.0223  0.1750
 8044W        W12095   6.740   7.095   1.879 -0.0901 -0.0992  0.0348
 8045W        W12096   9.265   9.230  11.303  0.2592 -0.0387 -0.1733
 8046W        W12097   3.306   5.708  13.545 -0.0602 -0.1233  0.0646
 8047W        W12098   3.599   9.830  13.356  0.1291 -0.3656 -0.1775
 8048W        W12099   8.842   7.709   3.322 -0.0545 -0.1283 -0.4370
 8049W        W12100   0.079   1.376  10.493 -0.1495  0.1565 -0.0313
 8050W        W12101   1.603   0.122  12.958  0.0149  0.1338 -0.0138
 8051W        W12102   8.265   8.767   0.552  0.0400 -0.1937  0.1811
 8052W        W12103   0.934   6.751  13.693 -0.0195  0.1214 -0.0014
 8053W        W12104   9.679   2.588   0.447 -0.2186  0.1616 -0.2937
 8054W        W12105   7.760   8.686   0.438 -0.0879 -0.0990 -0.1729
 8055W        W12106   8.124   6.661   0.678 -0.0943  0.1868  0.2457
 8056W        W12107   0.534   9.948   0.127 -0.0262  0.2461 -0.0294
 8057W        W12108   6.893   2.981  10.114  0.2243 -0.3501  0.0916
 8058W        W12109   8.881   7.431   3.888 -0.2404 -0.2543  0.0490
 8059W        W12110   5.837   7.292   2.133  0.0598  0.0473 -0.1017
 8060W        W12111   3.911   7.205   0.052  0.1297 -0.3978 -0.1830
 8061W        W12112   9.876   7.686  11.615 -0.4875 -0.2673  0.0942
 8062W        W12113   7.471   6.275  11.190  0.1676 -0.1043  0.4596
 8063W        W12114   9.228   0.588  10.082 -0.0172 -0.0087  0.2033
 8064W        W12115   4.980   7.353   2.886  0.3291 -0.0527 -0.1870
 8065W        W12116   9.079   1.499  12.252 -0.0826  0.0472  0.1121
 8066W        W12117   1.075   6.126   1.594 -0.0921  0.1498 -0.2445
 8067W        W12118   8.208   0.500  10.605 -0.1669 -0.3347 -0.1699
 8068W        W12119   7.187   2.707   3.317 -0.1599  0.0360 -0.1100
 8069W        W12120   4.026   8.060   0.913 -0.0757  0.1047  0.0227
 8070W        W12121   9.226   3.814   9.838 -0.4714 -0.0255 -0.3600
 8071W        W12122   8.079   9.211   2.859  0.0120  0.0568  0.0568
 8072W        W12123   8.297   2.766   0.116  0.0304 -0.1267 -0.1813
 8073W        W12124   1.464   8.067   4.438 -0.1088  0.2369  0.0974
 8074W        W12125   8.501   2.794   0.675  0.1849 -0.0729 -0.0342
 8075W        W12126   7.236   1.975   3.350 -0.0035 -0.1381  0.3991
 8076W        W12127   5.618   2.380   1.012  0.0562 -0.1581  0.0580
 8077W        W12128   2.697   1.710  13.598 -0.0835  0.0520 -0.1492
 8078W        W12129   3.693   8.960   9.193  0.1311  0.0064  0.0259
 8079W        W12130   6.164   8.992  13.138 -0.0252  0.0412  0.1159
 8080W        W12131   8.272   3.935  12.719  0.0732 -0.2124  0.1561
 8081W        W12132   9.037   6.552  11.775  0.2678  0.0372 -0.3187
 8082W        W12133   0.243   8.497   4.146 -0.1374 -0.0973  0.0513
 8083W        W12134   3.392   3.239  12.917 -0.1881 -0.1162 -0.2214
 8084W        W12135   5.056   4.788   0.624  0.0547  0.2438 -0.2054
 8085W        W12136   7.866   5.508   0.235 -0.0319 -0.3458  0.4210
 8086W        W12137   1.420   9.920   5.374 -0.1740  0.1355 -0.0387
 8087W        W12138   1.778  10.053  13.367  0.0963 -0.1610 -0.0033
 8088W        W12139   7.724   9.644   1.783 -0.0598  0.1248  0.1211
 8089W        W12140   4.921   3.389  11.750 -0.0309 -0.2489  0.0631
 8090W        W12141   1.840   7.497   4.780  0.2054 -0.1484 -0.1497
 8091W        W12142   3.698   5.280   4.657  0.0627 -0.0791 -0.2718
 8092W        W12143   7.781   6.171  13.899 -0.0725 -0.5517 -0.4398
 8093W        W12144   2.823   7.912   4.709 -0.0031 -0.3014 -0.0993
 8094W        W12145   8.706   7.092  12.805 -0.1572  0.0622 -0.0023
 8095W        W12146   2.240   1.306   2.625 -0.2931 -0.0073 -0.3147
 8096W        W12147   3.407   7.594   9.796  0.2553 -0.1942  0.2930
 8097W        W12148   1.095   9.636   2.608  0.1456  0.0518 -0.0253
 8098W        W12149   2.872   7.233  12.726  0.1168 -0.2170 -0.0822
 8099W        W12150   8.596   9.008   0.119 -0.0608 -0.0636 -0.1264
 8100W        W12151   1.112   4.269   4.153 -0.1490  0.0423 -0.1712
 8101W        W12152   0.126   2.403   4.226  0.1686  0.0453  0.2457
 8102W        W12153   1.957   5.711  11.143  0.1057  0.1545  0.0758
 8103W        W12154   6.449   2.656  10.198 -0.0898  0.0319 -0.2883
 8104W        W12155   4.519   1.945   9.883  0.0183 -0.2273 -0.1317
 8105W        W12156   7.647   6.095   3.039 -0.2681 -0.2513 -0.0012
 8106W        W12157   7.129   2.836   0.253 -0.2324 -0.1561 -0.1432
 8107W        W12158   9.825   6.440   4.481  0.1638  0.2108 -0.2604
 8108W        W12159   7.003   0.739   3.547  0.1398  0.0544 -0.2460
 8109W        W12160   8.938   7.277   2.078  0.1965 -0.1240 -0.2398
 8110W        W12161   5.059   6.653   4.328 -0.2257 -0.1133  0.0336
 8111W        W12162   2.633   0.842  12.604 -0.2123 -0.0593 -0.1410
 8112W        W12163   3.886   9.827   0.610 -0.2161 -0.2187 -0.2462
 8113W        W12164   2.701   7.054   1.559  0.0081  0.1669 -0.0220
 8114W        W12165   6.648   9.075   3.170  0.2942  0.0000  0.1690
 8115W        W12166   1.676   7.798  11.438 -0.4673 -0.1853  0.1362
 8116W        W12167   8.902   2.565   4.213  0.3120 -0.2190 -0.2241
 8117W        W12168   7.293   6.392  12.134  0.0411  0.0635 -0.1266
 8118W        W12169   2.278   5.291   9.912 -0.0668 -0.0819  0.4747
 8119W        W12170   7.280   2.684   1.127 -0.1703  0.1317 -0.2534
 8120W        W12171   5.593   3.906  11.823 -0.1039  0.2533  0.1786
 8121W        W12172   4.621   2.895   4.329 -0.3168 -0.0913 -0.0688
 8122W        W12173   4.207   4.926   3.313 -0.4062 -0.0667  0.0903
 8123W        W12174   2.140   6.885   1.730  0.0069 -0.1925 -0.3379
 8124W        W12175   0.723   9.671  13.641  0.0967  0.0181 -0.0741
 8125W        W12176   9.792   5.247  12.901 -0.0731  0.2042  0.1790
 8126W        W12177   3.164   4.706   5.056  0.2523  0.2701  0.1671
 8127W        W12178   8.514   4.375  11.249 -0.2697 -0.0337  0.0544
 8128W        W12179   5.559   3.583  11.391 -0.0164 -0.0077 -0.3455
 8129W        W12180   2.525   9.864  13.098  0.1239  0.1052  0.0270
 8130W        W12181   4.956   4.813  11.113 -0.1568  0.0366 -0.0063
 8131W        W12182   2.757   8.403  13.971  0.2663  0.0136 -0.0274
 8132W        W12183   9.639   7.970  11.931  0.3422 -0.0511 -0.1573
 8133W        W12184   0.888   0.128   9.899  0.0112 -0.0458  0.4419
 8134W        W12185   1.548   3.425   9.179 -0.2028  0.0576 -0.1736
 8135W        W12186   3.802   5.600  13.078  0.1640  0.0966 -0.0651
 8136W        W12187   5.373   2.629  11.219 -0.0945  0.0810  0.0610
 8137W        W12188   2.929   6.839  13.603  0.1456  0.0748  0.0218
 8138W        W12189   8.430   5.558   3.196  0.2065  0.0503  0.1462
 8139W        W12190   1.200   0.771  12.552 -0.0219 -0.2652  0.0448
 8140W        W12191   4.070   6.260   1.555  0.1808 -0.1459  0.0707
 8141W        W12192   7.998   5.456   1.796  0.0241 -0.0611  0.1504
 8142W        W12193   9.510   7.135  10.714 -0.2959  0.0044 -0.3767
 8143W        W12194   6.867   1.694   3.495  0.1774  0.0655 -0.1269
 8144W        W12195   1.305   6.826   2.332 -0.0511  0.2569  0.1112
 8145W        W12196   5.486   6.756   1.535  0.1916  0.0173  0.2486
 8146W        W12197   7.701   4.022   1.779 -0.0456  0.1177 -0.0856
 8147W        W12198   4.077   3.084   4.364 -0.1108 -0.0636 -0.1897
 8148W        W12199   0.458   0.914   2.402  0.1498 -0.1331 -0.0847
 8149W        W12200   7.493   3.458   1.703 -0.0334  0.2368 -0.3448
 8150W        W12201   7.936   1.530   0.656 -0.1487 -0.0167 -0.0047
 8151W        W12202   6.160   5.473   1.451 -0.3939 -0.0620 -0.1305
 8152W        W12203   6.702   9.287   7.085 -0.1536 -0.2337  0.2252
 8153W        W12204   9.258   3.012  13.974 -0.0072 -0.0918 -0.0211
 8154W        W12205   2.717   9.755   2.600 -0.1074 -0.0433  0.3897
 8155W        W12206   9.579   2.010   0.768  0.3802 -0.1818 -0.0193
 8156W        W12207   0.709   1.544   4.219 -0.0455 -0.0844  0.4532
 8157W        W12208   2.623   5.696   2.414 -0.3018 -0.2234  0.0825
 8158W        W12209   6.470   8.611  10.144  0.2484  0.2432  0.0318
 8159W        W12210   5.471   2.224   3.515 -0.1864  0.3327  0.4104
 8160W        W12211   3.937   5.439   3.393  0.0177 -0.1655 -0.0955
 8161W        W12212   4.186   4.247  12.191  0.0974 -0.1123  0.0680
 8162W        W12213   4.297   1.999   0.131  0.1121 -0.0900  0.0109
 8163W        W12214   9.739   1.208   1.792 -0.1248 -0.2508  0.1689
 8164W        W12215   1.460   9.224   4.872 -0.1485  0.1161  0.0767
 8165W        W12216   7.107   4.155   2.939 -0.2528  0.0050  0.1418
 8166W        W12217   3.983   9.565  13.698 -0.0544  0.1951  0.0564
 8167W        W12218   1.090   1.629  11.604  0.1576 -0.1892  0.2645
 8168W        W12219   7.334   5.993  13.825  0.2184 -0.3032  0.0392
 8169W        W12220   8.690   3.234   5.596  0.0813  0.1881  0.0825
 8170W        W12221   7.628   4.394  12.990  0.2205  0.0970 -0.3616
 8171W        W12222   3.241   1.639  11.261  0.2225 -0.1705 -0.0413
 8172W        W12223   8.004   7.627   1.298  0.1082  0.0022  0.0374
 8173W        W12224   5.093   2.160   4.790  0.2229  0.1101  0.0352
 8174W        W12225   3.347   0.055  10.391 -0.1007 -0.0967  0.1911
 8175W        W12226   2.323   9.938   9.460  0.2350  0.3091  0.5622
 8176W        W12227   3.606   5.884  10.081  0.0731 -0.1055 -0.1520
 8177W        W12228   8.104   5.644  13.052  0.2923  0.2547 -0.1678
 8178W        W12229   4.115   5.447   2.542  0.5044 -0.0235 -0.1417
 8179W        W12230   2.300   5.358   2.379 -0.0015  0.1822 -0.3546
 8180W        W12231   7.782   8.536  11.574 -0.0178  0.1178 -0.0963
 8181W        W12232   4.421   6.740  11.813 -0.1503 -0.3217  0.3106
 8182W        W12233   1.359   3.808   9.831 -0.1656 -0.1571  0.2532
 8183W        W12234   3.960   3.320   9.312  0.1079 -0.0919  0.1635
 8184W        W12235   6.910   3.511  13.236 -0.0577 -0.1498  0.2948
 8185W        W12236   2.763   1.998  12.652 -0.1310 -0.0581  0.0316
 8186W        W12237   3.142   4.508   3.984  0.1062 -0.0315 -0.0357
 8187W        W12238   5.661   1.296  12.867 -0.1362 -0.0604 -0.2932
 8188W        W12239   3.229   3.382   3.660 -0.2123  0.2247 -0.1901
 8189W        W12240   5.556   5.377  13.333  0.0139 -0.2636  0.0941
 8190W        W12241   2.999   3.717   5.092  0.2122  0.3209 -0.1820
 8191W        W12242   7.605   8.463   0.962  0.0441  0.1410 -0.1049
 8192W        W12243   1.148   4.996   4.719  0.0206 -0.1664  0.1516
 8193W        W12244   9.597   6.782   2.612 -0.0497  0.0915 -0.4349
 8194W        W12245   7.942   3.160   4.610 -0.4610  0.2534  0.1495
 8195W        W12246   8.709   6.430   9.781  0.0050  0.0123  0.2582
 8196W        W12247   7.800   8.798   1.523 -0.0190  0.0995 -0.0985
 8197W        W12248   6.557   8.078  12.727  0.0904  0.0841 -0.0469
 8198W        W12249   3.700   0.573   4.591  0.1154  0.2128  0.0071
 8199W        W12250   2.939   6.292   4.032  0.3275  0.1108 -0.0055
 8200W        W12251   7.889   6.895   1.397 -0.3569 -0.0406 -0.0163
 8201W        W12252   0.098   5.614   9.532 -0.2004  0.0740 -0.1748
 8202W        W12253   0.599   9.650   4.215  0.0520  0.0403  0.2036
 8203W        W12254   4.293   8.707   3.212 -0.1712  0.0135 -0.3450
 8204W        W12255   5.138   9.229  12.358 -0.1122 -0.3091  0.0763
 8205W        W12256   8.179   3.013  11.707  0.0247  0.1663  0.1789
 8206W        W12257   0.103   7.283  12.586  0.0886 -0.4658 -0.0664
 8207W        W12258   2.516   0.069   9.004  0.1003 -0.0297  0.0128
 8208W        W12259   1.090   7.180   1.939 -0.1680  0.0980 -0.2930
 8209W        W12260   9.893   7.242  11.817 -0.4913  0.1501  0.0254
 8210W        W12261   2.370   0.935   1.092 -0.1794 -0.2544  0.1117
 8211W        W12262   2.745   4.201   4.994 -0.0182 -0.2160  0.1449
 8212W        W12263   2.843   3.212  12.064  0.0064  0.3036  0.2847
 8213W        W12264   5.846   3.567   3.347  0.1128 -0.3314 -0.3006
 8214W        W12265   5.259   2.418   9.890  0.1728 -0.0484  0.1606
 8215W        W12266   9.462   8.753   0.408  0.3479  0.1424 -0.2811
 8216W        W12267   7.999   3.639   1.501  0.1743  0.1074  0.0179
 8217W        W12268   8.332   6.823   3.512  0.1316 -0.0953 -0.2497
 8218W        W12269   2.239   5.304   3.866  0.1320 -0.3752 -0.0444
 8219W        W12270   5.091   4.619  12.492 -0.1167 -0.0713 -0.1494
 8220W        W12271   1.159   4.978  11.885 -0.1276  0.1612 -0.2453
 8221W        W12272   5.652   5.853  12.522 -0.1241 -0.0183 -0.1566
 8222W        W12273   9.836   0.127  13.211  0.0166  0.0561 -0.1604
 8223W        W12274   5.612   2.351  10.718 -0.1740 -0.0900  0.2579
 8224W        W12275   4.388   4.594   4.931  0.2156 -0.2035 -0.0911
 8225W        W12276   1.188   5.601   8.957  0.2491 -0.0152 -0.0427
 8226W        W12277   7.671   2.679   8.611  0.1863  0.0682 -0.0603
 8227W        W12278   9.047   3.813  12.107 -0.1846 -0.3577 -0.0486
 8228W        W12279   7.884   6.898  10.772 -0.1232  0.1612  0.0601
 8229W        W12280   2.682   1.527   0.497 -0.3213 -0.0531  0.4245
 8230W        W12281   0.019   0.578  10.913  0.1771  0.3632 -0.2730
 8231W        W12282   7.583   6.982   3.752 -0.1143  0.2634  0.1998
 8232W        W12283   0.845   2.059   3.650  0.3632 -0.0562 -0.0376
 8233W        W12284   9.864   7.772  13.169  0.2927  0.1489  0.0564
 8234W        W12285   6.357   3.216   0.326  0.2427 -0.0727  0.3129
 8235W        W12286   2.184   3.162  12.725  0.2906 -0.1234  0.1411
 8236W        W12287   4.016   3.064  12.819 -0.1210 -0.2215  0.3187
 8237W        W12288   3.431   0.911   4.824  0.0947  0.0618 -0.0751
 8238W        W12289   1.720   9.209   0.445  0.0884  0.3476  0.3467
 8239W        W12290   0.361   3.591   1.246  0.1522  0.2495 -0.2338
 8240W        W12291   7.396   3.112  11.616  0.0282 -0.0536  0.0846
 8241W        W12292   7.180   1.182  11.514  0.1146 -0.0058  0.0981
 8242W        W12293   6.991   0.147   9.953  0.1654 -0.0576 -0.1397
 8243W        W12294   0.163   3.937  10.591  0.3236  0.2158  0.4547
 8244W        W12295   7.413   4.491   2.615 -0.1127 -0.2662  0.1021
 8245W        W12296   6.996  10.047   3.748  0.0735 -0.2099 -0.0660
 8246W        W12297   6.792   8.284  12.322  0.1830 -0.1086  0.3480
 8247W        W12298   6.302   0.011   3.191 -0.2515 -0.1747 -0.0984
 8248W        W12299   9.101   2.992   9.211  0.1155  0.0938  0.3169
 8249W        W12300   0.155   1.096  13.269  0.1667 -0.0863 -0.2138
 8250W        W12301   7.846   4.671  13.986  0.2031 -0.4736  0.2834
 8251W        W12302   1.361   9.469   0.772 -0.0259 -0.3602  0.1963
 8252W        W12303   5.223   1.815   3.695  0.2044 -0.0218  0.1918
 8253W        W12304   5.746   7.049   0.262 -0.1551 -0.0966 -0.0510
 8254W        W12305   6.369   3.574   5.492  0.1636  0.3539  0.1129
 8255W        W12306   1.909   0.873   4.516  0.1468 -0.2363 -0.0440
 8256W        W12307   1.230   0.635   2.820  0.0459 -0.3893 -0.0756
 8257W        W12308   6.889   4.511   0.648  0.2459  0.0262 -0.0221
 8258W        W12309   8.863   5.426   9.124 -0.1682 -0.3537 -0.0079
 8259W        W12310   5.474   7.361  10.439  0.1346 -0.2731 -0.0572
 8260W        W12311   3.305   9.393   1.445  0.0352 -0.0193 -0.3339
 8261W        W12312   4.516   9.344   1.862 -0.0270 -0.2216 -0.2097
 8262W        W12313   5.823   0.841  11.580  0.3049 -0.2341  0.0087
 8263W        W12314   5.301   8.552  12.512 -0.0038  0.3771  0.1125
 8264W        W12315   6.706   3.470   9.917 -0.2635 -0.2243  0.2150
 8265W        W12316   1.326   8.570   2.291 -0.2130  0.3502  0.2843
 8266W        W12317   9.270   1.797   4.877  0.2084  0.0745  0.3379
 8267W        W12318   7.619   1.807   3.089 -0.0946 -0.1004 -0.0641
 8268W        W12319   1.840   4.921  11.268 -0.0561 -0.1697 -0.1482
 8269W        W12320   4.908   9.568   0.476  0.1994  0.0271 -0.1923
 8270W        W12321   4.202   2.441  12.590 -0.2897  0.1677 -0.1545
 8271W        W12322   3.848  10.111   4.996 -0.2218 -0.0879  0.0382
 8272W        W12323   9.350   7.505   3.638 -0.3708 -0.0597  0.0066
 8273W        W12324   2.034   1.886   1.215  0.2393  0.1958 -0.0628
 8274W        W12325   0.588   4.471   2.947  0.1004  0.0793  0.1177
 8275W        W12326   4.956   2.791   2.830 -0.1322  0.2789 -0.1158
 8276W        W12327   4.209   0.592   4.777  0.0822 -0.2336  0.1233
 8277W        W12328   0.840   1.703   3.000  0.0522 -0.1151  0.0741
 8278W        W12329   4.458   9.412  11.854  0.1360 -0.2030  0.1164
 8279W        W12330   3.451   1.265  13.334  0.1478  0.0628  0.1931
 8280W        W12331   9.193   2.203   4.292 -0.1475 -0.1155 -0.1186
 8281W        W12332  10.095   0.021   3.931 -0.1000  0.0337 -0.0817
 8282W        W12333   4.097   2.367  12.074  0.2112  0.0862 -0.0915
 8283W        W12334   1.107   8.389   4.323  0.0126  0.1786 -0.1410
 8284W        W12335   0.636   8.729  11.253 -0.2585 -0.2681  0.2442
 8285W        W12336   7.436   0.164  10.221 -0.1719  0.1410 -0.3212
 8286W        W12337   6.929   6.917  13.900 -0.0401 -0.0352  0.3288
 8287W        W12338   7.252   1.624  11.310  0.1195  0.2378 -0.0150
 8288W        W12339   7.366   5.521   2.817 -0.1363 -0.2816 -0.2073
 8289W        W12340   4.418   2.887  12.523 -0.1084 -0.2899 -0.0574
 8290W        W12341   5.034   3.236  12.733 -0.2577 -0.2659  0.0004
 8291W        W12342   8.695   0.524   1.981  0.0803 -0.1523 -0.3509
 8292W        W12343   7.066   8.151   3.470 -0.0115 -0.0138  0.1545
 8293W        W12344   2.389   3.875   3.416 -0.0898  0.1790 -0.1103
 8294W        W12345   3.965   4.633  13.950  0.1611  0.1063  0.0220
 8295W        W12346   1.510   6.898   1.843 -0.0282  0.0209 -0.3539
 8296W        W12347   5.812   2.358   9.467 -0.0165  0.0174  0.1307
 8297W        W12348   3.945   6.359  12.890  0.0806  0.3215  0.0550
 8298W        W12349   5.072   3.891   9.854  0.1435  0.0347  0.2795
 8299W        W12350   8.324   3.071  12.487 -0.1211  0.0465 -0.0745
 8300W        W12351   3.138   5.063   9.525 -0.0139 -0.1035  0.1656
 8301W        W12352   4.399   6.915  13.594  0.0426  0.0059 -0.1876
 8302W        W12353   4.952   1.718  12.271  0.1997  0.2156 -0.1976
 8303W        W12354   0.883   4.113  11.684 -0.2191  0.1086  0.2094
 8304W        W12355   8.558   2.148   2.681 -0.1674  0.3443  0.0416
 8305W        W12356   0.860   7.097   8.987 -0.0758 -0.4265 -0.1631
 8306W        W12357   8.437   5.995   9.999  0.2915 -0.1335 -0.2649
 8307W        W12358   9.125   1.031   1.066 -0.0281 -0.0209 -0.0024
 8308W        W12359   4.370   5.017  10.130  0.3177  0.4378 -0.0746
 8309W        W12360   0.800   2.553  11.803 -0.4629  0.2639 -0.0149
 8310W        W12361   8.814   1.046  12.057 -0.1982  0.0277  0.0324
 8311W        W12362   7.718   3.370   3.934 -0.0950  0.1362 -0.4928
 8312W        W12363   6.375   4.783  10.125 -0.1480 -0.2462 -0.1078
 8313W        W12364   1.853   2.243   4.656 -0.3455  0.2700 -0.2709
 8314W        W12365   1.510   4.482   0.228  0.1619  0.1170  0.0513
 8315W        W12366   0.059   0.103   4.414 -0.1047 -0.2025 -0.3635
 8316W        W12367   6.901   8.850   1.764 -0.1947  0.0591  0.1770
 8317W        W12368   7.176   3.276   3.734  0.2703  0.0689 -0.0384
 8318W        W12369   2.344   6.285   4.040  0.1236  0.1106  0.1948
 8319W        W12370   4.371   6.810  10.330 -0.1371  0.3703 -0.1032
 8320W        W12371   2.932   2.186   4.217  0.1256 -0.1577 -0.2805
 8321W        W12372   2.032   4.402   1.371 -0.1309  0.0594  0.1021
 8322W        W12373   9.013   2.727   2.096  0.2032  0.0678 -0.0744
 8323W        W12374   9.469   9.825   1.776  0.0478  0.1776  0.1279
 8324W        W12375   0.804   5.076   2.209 -0.1256 -0.0465  0.0957
 8325W        W12376   7.737   4.094   0.405  0.1776  0.2109 -0.1335
 8326W        W12377   7.526   2.834  13.498 -0.1643 -0.1710 -0.0235
 8327W        W12378   4.057   4.595  12.610 -0.1687  0.0291 -0.0796
 8328W        W12379   1.787   8.196  11.710 -0.0558 -0.3057 -0.1988
 8329W        W12380   5.394   4.774  14.005 -0.0256 -0.0053 -0.2154
 8330W        W12381   8.765   6.877  10.256 -0.0882  0.0036  0.1472
 8331W        W12382   5.969   0.055   3.521 -0.0710 -0.0001 -0.1374
 8332W        W12383   5.385   6.139   3.129  0.1177  0.0016  0.1238
 8333W        W12384   8.793   2.109  13.204  0.2338  0.0462 -0.0009
 8334W        W12385   3.543   7.557   0.067  0.0794  0.2380  0.0469
 8335W        W12386   7.685   9.388   2.245  0.3557  0.2859  0.1527
 8336W        W12387   0.112   6.677  13.518  0.1185 -0.1064  0.0231
 8337W        W12388   1.578  10.036  10.948  0.3078  0.1212 -0.1552
 8338W        W12389   9.717  10.089  12.291  0.2097  0.0401  0.0734
 8339W        W12390   8.224   4.398   1.533  0.0572  0.2261  0.0485
 8340W        W12391   1.857   3.406   1.472  0.3573 -0.0471 -0.2076
 8341W        W12392   8.407   4.062   9.369  0.0107 -0.0683 -0.2513
 8342W        W12393   3.565   7.314   0.851  0.0137  0.2139  0.1493
 8343W        W12394   2.675   7.824   3.050  0.0869 -0.1513  0.2193
 8344W        W12395   0.600   3.963   9.506  0.0362 -0.0646 -0.0158
 8345W        W12396   1.986   2.828   2.221  0.0823 -0.0102 -0.2016
 8346W        W12397   0.280   4.921   2.823  0.0059 -0.0214 -0.0702
 8347W        W12398   0.815   2.083   0.511  0.2089 -0.0300  0.3393
 8348W        W12399   5.550   2.804   9.695  0.1188  0.0217 -0.0819
 8349W        W12400   6.759   2.715  13.991 -0.1387 -0.2326 -0.1382
 8350W        W12401   9.122   8.935  14.059 -0.0105  0.0546 -0.0775
 8351W        W12402   7.507   8.972   0.861 -0.0798  0.0441  0.1616
 8352W        W12403   0.175   6.450  13.014 -0.1596 -0.0865 -0.4280
 8353W        W12404   9.027   5.462   4.269  0.0409 -0.0611  0.2677
 8354W        W12405   4.566   2.440  13.956 -0.2841 -0.0848 -0.2566
 8355W        W12406   1.647   7.748   0.259  0.1682  0.1825  0.0656
 8356W        W12407   4.011   1.804   9.803 -0.0728  0.1259  0.1333
 8357W        W12408   9.569   2.727   9.443  0.0252  0.0775  0.0038
 8358W        W12409   5.941   9.131  11.233  0.2088  0.1737 -0.0004
 8359W        W12410   5.592   2.498   0.180  0.0442 -0.1209 -0.3444
 8360W        W12411   2.991   2.847   0.672  0.0167 -0.0593 -0.2185
 8361W        W12412   5.800   5.866   1.986 -0.2748 -0.0259 -0.4209
 8362W        W12413   4.574   8.361  11.852 -0.1266  0.2224 -0.0206
 8363W        W12414   7.232   0.141   1.880  0.4478 -0.0471 -0.1266
 8364W        W12415  10.076   8.682   1.045 -0.3809 -0.0031 -0.0260
 8365W        W12416   3.230   6.853  12.617  0.0099 -0.1620 -0.3439
 8366W        W12417   5.727   5.335  11.059  0.1156 -0.0473  0.1916
 8367W        W12418   7.152   0.681  11.480 -0.1471 -0.2842  0.1889
 8368W        W12419   7.821   3.155  13.182  0.1937 -0.1167  0.0431
 8369W        W12420   2.606   1.646   0.949 -0.0641 -0.1442 -0.0583
 8370W        W12421  10.051   2.243   4.657  0.2244  0.0712  0.1897
 8371W        W12422   5.707   0.152   0.919  0.3722 -0.1161 -0.0038
 8372W        W12423   4.534   0.508  12.682  0.3199  0.0196 -0.0071
 8373W        W12424   5.959   6.150   0.299 -0.4400  0.2697  0.1374
 8374W        W12425   7.522   9.184  10.450  0.1122 -0.0179  0.2277
 8375W        W12426   4.855   9.373   1.443  0.4175  0.0471 -0.1733
 8376W        W12427   0.023   2.812   2.970 -0.3030  0.3376 -0.0980
 8377W        W12428   9.607   4.084   3.784  0.0663  0.0131  0.1959
 8378W        W12429   3.927   9.434  13.236 -0.1015 -0.0029  0.0222
 8379W        W12430   5.814   6.019  10.227  0.0461 -0.1981 -0.3065
 8380W        W12431   7.127   6.339   3.913 -0.1330 -0.2829  0.1787
 8381W        W12432   4.466   0.062   1.396 -0.0379 -0.2189  0.3271
 8382W        W12433   4.010   5.686   1.545 -0.0441  0.2631 -0.0017
 8383W        W12434   2.677   6.534  13.265  0.2795 -0.0021 -0.0381
 8384W        W12435   8.166   8.528   1.201 -0.1673  0.3327 -0.3913
 8385W        W12436   9.898   7.159   2.511 -0.1649  0.1436 -0.1057
 8386W        W12437   1.660   1.086   4.092 -0.0816 -0.2349  0.0882
 8387W        W12438   8.796   3.105   4.188  0.0529 -0.0934 -0.1378
 8388W        W12439   1.640   7.449   1.036 -0.1701 -0.1466 -0.1109
 8389W        W12440   2.651   0.559  11.367 -0.0238 -0.0221  0.1294
 8390W        W12441   2.898   2.426   1.119 -0.3608 -0.2013  0.3150
 8391W        W12442   1.296   4.164  11.333  0.0162 -0.2900 -0.0018
 8392W        W12443   2.582   4.604  13.916  0.0205 -0.0191 -0.0602
 8393W        W12444   4.732   6.078   2.093  0.1367  0.0636  0.0263
 8394W        W12445  10.096   6.140  11.556  0.0523 -0.1399 -0.1103
 8395W        W12446   4.433   9.914  11.129  0.2575 -0.3243  0.0014
 8396W        W12447   4.133   1.285  12.422  0.1346  0.0600 -0.1378
 8397W        W12448   9.822   4.933   8.492 -0.1968  0.2624  0.1032
 8398W        W12449   1.816   9.944   9.525  0.0825  0.0546  0.0955
 8399W        W12450   4.786   7.082  11.847 -0.1418  0.0666 -0.0186
 8400W        W12451   0.815   8.004  13.491  0.0190 -0.2433 -0.2211
 8401W        W12452   1.467   8.511   0.970 -0.0475  0.2415  0.0427
 8402W        W12453   8.190   9.320   2.339  0.1717  0.1273  0.1634
 8403W        W12454   0.556   9.376   0.235 -0.2275 -0.0216 -0.3204
 8404W        W12455   6.386   1.981   9.624 -0.1747 -0.2740  0.0373
 8405W        W12456   3.743   7.607  12.077  0.1540  0.2523  0.0498
 8406W        W12457   3.988   2.961   8.965 -0.1745  0.1768 -0.0311
 8407W        W12458   6.060   3.529  10.849  0.0083  0.0791  0.0361
 8408W        W12459   5.562   2.236  11.514 -0.1467 -0.3091 -0.3086
 8409W        W12460   1.015   8.925   1.419 -0.0588  0.3026  0.1115
 8410W        W12461   3.416   0.175   3.103  0.3233  0.0869  0.2709
 8411W        W12462   0.479   6.940  13.739 -0.0124  0.1943  0.3117
 8412W        W12463   9.908   1.826  10.253 -0.3124 -0.1600  0.2508
 8413W        W12464   6.325   2.338   3.327 -0.1650 -0.1902 -0.2670
 8414W        W12465   7.434   8.100   2.620  0.2232  0.4683  0.2884
 8415W        W12466   3.407   9.863   5.241 -0.0316 -0.0654 -0.3254
 8416W        W12467   6.849   3.248   3.352 -0.0340  0.3039  0.0058
 8417W        W12468   7.413   1.561   5.169 -0.0920 -0.0197 -0.0471
 8418W        W12469   3.094   8.196  10.088  0.0537  0.0622 -0.3533
 8419W        W12470   6.808   7.858   1.222  0.2446 -0.2834  0.1422
 8420W        W12471   9.716   8.729  12.664 -0.0547 -0.2899 -0.2031
 8421W        W12472   1.920   9.362  12.657 -0.1877  0.1193  0.0131
 8422W        W12473   2.924   0.244   3.081 -0.1711 -0.0220 -0.0992
 8423W        W12474   1.620   0.576  11.625 -0.0981  0.1027  0.1940
 8424W        W12475   0.425   0.643   3.853  0.2773  0.0655  0.0683
 8425W        W12476   1.538   3.554   2.998  0.1097 -0.1319  0.1033
 8426W        W12477   6.038   3.383  11.336  0.2167  0.0087  0.3223
 8427W        W12478   9.459   5.314  12.428  0.0085 -0.0297  0.0626
 8428W        W12479   5.705   9.263  14.077  0.4847  0.2705 -0.2806
 8429W        W12480   7.514   4.422   8.464  0.1048 -0.2863  0.0220
 8430W        W12481   4.649  10.149  12.497 -0.3644  0.0214 -0.1127
 8431W        W12482   1.606   0.879  12.327  0.1827 -0.0461  0.1516
 8432W        W12483   3.607   2.298  10.667  0.2281 -0.1374  0.0777
 8433W        W12484   0.570   4.472   2.350 -0.1206 -0.4786  0.0067
 8434W        W12485   8.291   1.794   9.975  0.0780  0.2872  0.0704
 8435W        W12486   7.865   2.612   2.798 -0.1017 -0.0431 -0.1085
 8436W        W12487   4.970   9.083  11.465  0.2753 -0.0247 -0.2110
 8437W        W12488   3.582   7.887   0.965 -0.0295 -0.1086 -0.0191
 8438W        W12489   6.294   2.999  13.955 -0.2579 -0.0408  0.1164
 8439W        W12490   7.996   7.168   2.869  0.0643  0.3137 -0.1733
 8440W        W12491   9.030   4.232  11.716 -0.2580  0.4876 -0.0437
 8441W        W12492   4.457   8.055  13.103  0.1817  0.1475  0.1262
 8442W        W12493   5.350   2.667   3.640  0.3014  0.2636 -0.3060
 8443W        W12494   6.120   9.861   4.624  0.3999  0.2882 -0.1126
 8444W        W12495   5.864   9.940   2.947 -0.0662 -0.1125 -0.2562
 8445W        W12496   3.301   2.849  11.188  0.0639 -0.0737  0.2127
 8446W        W12497   9.837   6.142   0.922 -0.1837 -0.3684  0.0725
 8447W        W12498   1.654   4.837  13.585  0.0742 -0.0281  0.0779
 8448ION    NA+12499   3.517   9.469  14.014 -0.3745  0.0446 -0.1284
 8449ION    NA+12500   5.616   3.978  12.941 -0.0133 -0.3871  0.1242
 8450ION    NA+12501   5.026   5.133   2.970 -0.1848 -0.2382 -0.3098
 8451ION    NA+12502   0.403   0.997  10.228 -0.2908 -0.2334  0.2181
 8452ION    NA+12503   4.140   1.616   0.924  0.1218  0.0301  0.0711
 8453ION    NA+12504   9.204   6.646   0.905 -0.2866 -0.0766  0.0400
 8454ION    NA+12505   7.253   0.476   2.431 -0.0032 -0.0616  0.1898
 8455ION    NA+12506   9.276   3.671   8.515 -0.2066 -0.2092 -0.1610
 8456ION    NA+12507   7.206   2.998  12.035  0.2989  0.4246 -0.0372
 8457ION    NA+12508   8.122   6.553   4.227  0.0627 -0.0533 -0.0780
 8458ION    NA+12509   6.840   2.350  11.767  0.0910  0.1046  0.1062
 8459ION    NA+12510   0.981   0.355   3.597 -0.1727 -0.4875 -0.2756
 8460ION    NA+12511   2.406   5.208   5.484 -0.3748 -0.3175 -0.1854
 8461ION    NA+12512   1.113   0.393   1.089  0.2894  0.1114  0.0998
 8462ION    NA+12513   2.650   9.260   0.042  0.0178 -0.3145  0.1550
 8463ION    NA+12514   9.890   5.955   3.711 -0.0667 -0.0410 -0.0545
 8464ION    NA+12515   9.972   2.926   8.968 -0.1794  0.0471  0.0215
 8465ION    NA+12516   3.429   6.955   3.898 -0.0663  0.0012 -0.0835
 8466ION    NA+12517   8.484   5.957   9.057 -0.0326  0.0864  0.2374
 8467ION    NA+12518   1.356   8.424  10.834  0.0938  0.1167 -0.0298
 8468ION    NA+12519   3.766   9.670  10.120 -0.0782 -0.1873 -0.0031
 8469ION    NA+12520   3.599   8.391   0.916 -0.0591  0.1129  0.1023
 8470ION    NA+12521   8.843   3.146   1.681 -0.0188  0.1124  0.1894
 8471ION    NA+12522   4.685   4.284   0.521 -0.0556  0.1791  0.3501
 8472ION    NA+12523   1.685   7.026  10.528 -0.1953  0.0706 -0.0727
 8473ION    NA+12524   0.199   7.806  12.322 -0.2577  0.3122 -0.2776
 8474ION    NA+12525   6.737   6.274   1.004 -0.1484  0.1305 -0.1568
 8475ION    NA+12526   6.723   5.037   0.603 -0.0464  0.5674  0.1131
 8476ION    NA+12527   1.358   1.537   9.295  0.1167 -0.1598 -0.2428
 8477ION    NA+12528   8.259   7.589   0.847  0.2041 -0.0324  0.1467
 8478ION    NA+12529   4.966   7.842   2.642  0.2215  0.2355  0.1466
 8479ION    NA+12530   1.277   2.336   3.456 -0.1505 -0.1689 -0.2468
 8480ION    NA+12531   6.640   6.373  13.240  0.1218 -0.0103 -0.3329
 8481ION    NA+12532   7.799   1.856  10.682 -0.2298 -0.1033 -0.3306
 8482ION    NA+12533   0.186   1.496   4.269 -0.1020  0.4170 -0.0303
 8483ION    NA+12534   9.883   1.362   5.036  0.2551  0.0378 -0.2013
 8484ION    NA+12535   3.184   2.801   3.124 -0.0833  0.0053 -0.2246
 8485ION    NA+12536   3.296   5.903  12.177  0.5952 -0.1970 -0.0917
 8486ION    NA+12537   2.859   9.361   0.654  0.1343  0.0974 -0.0484
 8487ION    NA+12538   3.641   0.062  13.050  0.0917  0.0464 -0.0295
 8488ION    NA+12539   6.687   0.173   1.938 -0.1305 -0.0358  0.2753
 8489ION    NA+12540   8.678   3.849   9.770 -0.1169  0.0520  0.0327
 8490ION    NA+12541   5.543   7.815   0.211  0.0446 -0.0654 -0.1429
 8491ION    NA+12542   2.655   8.636  11.312  0.1696 -0.0212 -0.0567
 8492ION    NA+12543   0.834   9.944  12.278  0.1105  0.0402 -0.0074
 8493ION    NA+12544   0.231   2.062   2.240 -0.2899  0.0542  0.0894
 8494ION    NA+12545   1.080   7.578   3.153 -0.0722 -0.1545 -0.2813
 8495ION    NA+12546   5.356   3.293   1.935  0.2012  0.2408  0.0931
 8496ION    NA+12547   5.175   9.865   4.847  0.2871  0.1010 -0.1300
 8497ION    NA+12548   0.858   1.769   9.815  0.0602 -0.1540  0.2176
 8498ION    NA+12549   3.660   5.136  13.306 -0.0350  0.1324 -0.1124
 8499ION    NA+12550   3.043   1.809   4.526 -0.0008 -0.3324  0.0761
 8500ION    NA+12551   8.903   9.681   3.081 -0.1216  0.3461  0.0736
 8501ION    NA+12552   2.384   1.654  11.323 -0.1512 -0.2183 -0.2961
 8502ION    NA+12553   9.055   3.848   1.059 -0.1899 -0.3137 -0.1293
 8503ION    NA+12554   1.632   3.846   9.420 -0.1415  0.0386 -0.1323
 8504ION    NA+12555   0.361   1.214  13.927  0.0712 -0.1045  0.2398
 8505ION    NA+12556   2.040   5.151  12.027  0.2653  0.2332 -0.2629
 8506ION    NA+12557   5.035   3.602   1.274 -0.0797 -0.3338 -0.2107
 8507ION    NA+12558   6.699   6.422   2.526  0.0444 -0.0261  0.3367
 8508ION    NA+12559   1.883   8.144   4.105 -0.0697 -0.1707  0.0066
 8509ION    NA+12560   4.723   4.925   4.743  0.1148  0.1724  0.3503
 8510ION    NA+12561   2.491   8.540   0.948  0.0948  0.0830 -0.0136
 8511ION    NA+12562   5.642   2.075   5.401  0.3814  0.1442  0.2096
 8512ION    NA+12563   2.513   0.382  11.834 -0.1356  0.2128  0.1849
 8513ION    NA+12564   0.238   7.746  11.568  0.2876 -0.4741 -0.0595
 8514ION    NA+12565  10.152   0.151  11.818  0.1998  0.1401 -0.0350
 8515ION    NA+12566   6.585   0.976   9.636  0.0426 -0.2472  0.0919
 8516ION    NA+12567   3.062   9.119   1.026  0.1264 -0.1195 -0.1086
 8517ION    NA+12568   0.436   4.035  10.058  0.2403  0.0413 -0.4581
 8518ION    NA+12569   7.972   1.947   4.108  0.1589 -0.3382 -0.2154
 8519ION    NA+12570   5.965   6.473   1.413 -0.1029 -0.1101  0.2815
 8520ION    NA+12571   5.900   5.443   2.583  0.1905  0.2061  0.2163
 8521ION    NA+12572   6.697   4.645  11.690 -0.0727 -0.2971 -0.2503
 8522ION    NA+12573   7.485   4.112  10.615 -0.2258  0.1504 -0.0189
 8523ION    NA+12574   2.175   8.826   1.168  0.0865  0.0242  0.0788
 8524ION    NA+12575   5.101   5.380  10.350 -0.2552  0.0386 -0.0745
 8525ION    NA+12576   5.657   8.927  13.443  0.1332  0.0956  0.1437
 8526ION    NA+12577   5.499   9.061   2.698  0.1631  0.3863  0.2888
 8527ION    NA+12578   3.194   7.286   9.274  0.3169  0.1298  0.4615
 8528ION    NA+12579   6.106   0.739   1.599 -0.2554  0.2739  0.1814
 8529ION    NA+12580   3.765   3.102  10.332  0.1418 -0.1182  0.2180
 8530ION    NA+12581   0.232   9.805   9.335  0.2630  0.0691  0.0371
 8531ION    NA+12582   9.667   3.320   1.275 -0.1312  0.3971 -0.1647
 8532ION    NA+12583   6.378   7.190  12.994  0.1071 -0.2834  0.0424
 8533ION    NA+12584   3.736   0.785   2.450  0.0106 -0.0805  0.4156
 8534ION    NA+12585   6.989   5.612  13.860  0.1813  0.4832 -0.0211
 8535ION    NA+12586   5.227   0.334   1.959 -0.3023  0.0874  0.1560
 8536ION    NA+12587   6.313   2.691   8.751  0.0925  0.2124 -0.0473
 8537ION    CL-12588   0.694   7.883  12.263 -0.1635  0.4506 -0.0525
 8538ION    CL-12589   0.945   0.797   4.665 -0.1859  0.0976  0.0277
 8539ION    CL-12590   6.645   6.346   2.993 -0.0930 -0.0175  0.0237
 8540ION    CL-12591   8.748   3.267   2.269  0.0749 -0.2023  0.1353
 8541ION    CL-12592   0.289   0.734   9.811  0.1536  0.0636  0.0245
 8542ION    CL-12593   1.995   3.498   9.408  0.0447 -0.3120 -0.2525
 8543ION    CL-12594   2.847   8.855   0.716  0.0190  0.0952  0.1352
 8544ION    CL-12595   9.853   6.326   1.427 -0.2993  0.3051  0.2047
 8545ION    CL-12596   2.565  10.144  11.485 -0.1579 -0.1268 -0.2064
 8546ION    CL-12597   3.845   0.369   2.134  0.1653  0.0412 -0.2642
 8547ION    CL-12598   7.981   0.098   2.149  0.0557 -0.1096  0.0022
 8548ION    CL-12599   3.192   2.507  13.710  0.1552 -0.3281  0.2626
 8549ION    CL-12600   5.496   3.476  12.822 -0.1669  0.1096  0.0720
 8550ION    CL-12601   6.747   0.421   2.445 -0.0845 -0.2393 -0.2318
 8551ION    CL-12602   2.211   8.218   3.652 -0.1113 -0.3421  0.3777
 8552ION    CL-12603   5.022   6.940   3.794 -0.2544 -0.3037 -0.1427
 8553ION    CL-12604   2.234   5.651  11.912 -0.1417 -0.0878 -0.0323
 8554ION    CL-12605   5.939   7.458  14.067  0.0892  0.1297  0.1558
 8555ION    CL-12606   9.004   6.117   0.767 -0.2799 -0.0481 -0.3924
 8556ION    CL-12607   4.468   1.132   0.462  0.0231 -0.0075 -0.5456
 8557ION    CL-12608   8.403   3.604  11.313 -0.0101  0.3287 -0.0387
 8558ION    CL-12609   6.978   1.122   9.928 -0.0228 -0.1027 -0.0493
 8559ION    CL-12610   2.449   9.240   0.990 -0.2530 -0.2094 -0.3214
 8560ION    CL-12611   3.070   8.513   1.034  0.3575  0.0761 -0.2594
 8561ION    CL-12612   3.073   9.624   4.326 -0.3055 -0.0370  0.0361
 8562ION    CL-12613   9.188   2.894   1.378  0.1698 -0.1203 -0.4601
 8563ION    CL-12614   3.722   9.022  13.748  0.0723  0.0361 -0.4551
 8564ION    CL-12615   5.120   2.862   1.794 -0.1523 -0.0202 -0.0199
 8565ION    CL-12616   2.889   2.247   4.701 -0.4393 -0.0433  0.1013
 8566ION    CL-12617   1.450   4.601   4.610  0.1138 -0.0663 -0.0032
 8567ION    CL-12618   6.202   6.173   1.110  0.3573 -0.0631 -0.0158
 8568ION    CL-12619   4.873   5.048  10.029  0.0752  0.0920  0.1035
 8569ION    CL-12620   9.385   3.504   0.906 -0.3377  0.2454  0.1164
 8570ION    CL-12621   0.781   4.206  10.415  0.2681  0.0908 -0.0553
 8571ION    CL-12622   9.723   2.938   3.968  0.1502 -0.0467  0.1507
 8572ION    CL-12623   9.885   1.445   4.441  0.0985 -0.0219  0.1058
 8573ION    CL-12624   0.960   0.157  11.953 -0.1387 -0.1099  0.1064
 8574ION    CL-12625   8.356   0.298  13.230 -0.0127 -0.0191  0.2541
 8575ION    CL-12626   3.205   3.090  10.243 -0.0034  0.0810 -0.0195
 8576ION    CL-12627   2.168   8.052  10.042  0.1537  0.2265  0.1889
 8577ION    CL-12628   5.530   0.460   2.317  0.2930 -0.1627 -0.2366
 8578ION    CL-12629   6.522   5.674  13.896 -0.1120  0.0208  0.1821
 8579ION    CL-12630  10.039   8.126  11.422  0.0307 -0.1380  0.2088
 8580ION    CL-12631   4.075   3.094   9.804  0.0094  0.1751  0.0977
 8581ION    CL-12632   2.801   0.149  12.937  0.0413 -0.0858 -0.0022
 8582ION    CL-12633   9.929   7.677  12.717 -0.0248 -0.2917 -0.0376
 8583ION    CL-12634   8.402   5.432   9.798  0.1890  0.3350  0.0163
 8584ION    CL-12635   7.912   7.880   0.717 -0.1444  0.0395  0.1003
 8585ION    CL-12636   3.022   2.451   2.873 -0.3722  0.3068  0.1438
 8586ION    CL-12637   5.035   8.114  13.542 -0.0251 -0.0001  0.2121
 8587ION    CL-12638   8.386   8.913   3.198 -0.2586  0.3490 -0.0831
 8588ION    CL-12639   3.006   9.268  10.180  0.0782 -0.1012  0.3008
 8589ION    CL-12640   7.492   1.089   4.204  0.0337  0.0958  0.0171
 8590ION    CL-12641   8.341   1.791   4.413 -0.0106 -0.3275  0.1914
 8591ION    CL-12642   8.323   0.684   3.863 -0.1944 -0.0900 -0.3891
 8592ION    CL-12643   9.010   0.081   3.787  0.0493  0.3874  0.1004
 8593ION    CL-12644   6.740   1.912  11.474  0.0698 -0.1118 -0.0769
 8594ION    CL-12645   3.404   6.793  13.537  0.0993 -0.2319  0.0861
 8595ION    CL-12646   3.222   9.613   0.961  0.0197  0.3791 -0.4093
 8596ION    CL-12647   5.280   8.670   2.348  0.0757  0.2051  0.0673
 8597ION    CL-12648   8.438   7.036   0.747 -0.0591 -0.1565  0.1202
 8598ION    CL-12649   0.590   0.176   3.829  0.0081 -0.0155 -0.0874
 8599ION    CL-12650   3.916   4.711  13.455  0.0537 -0.1770  0.0871
 8600ION    CL-12651   5.425   7.544  13.126  0.1911  0.0356  0.0646
 8601ION    CL-12652   7.289   9.880   0.844  0.1432 -0.0396 -0.0395
 8602ION    CL-12653   4.930   4.461   2.255 -0.0534  0.2875 -0.0153
 8603ION    CL-12654   1.506   2.825  10.282  0.3685 -0.1160  0.1196
 8604ION    CL-12655   9.394   3.731   1.436  0.1426  0.1018 -0.1894
 8605ION    CL-12656   1.968   8.427   0.840  0.1394 -0.0604  0.0089
 8606ION    CL-12657   4.165   1.089   2.573  0.1612 -0.1173  0.2492
 8607ION    CL-12658   4.184   3.436   1.379  0.3018  0.0598 -0.2594
 8608ION    CL-12659   0.776   1.376  10.244  0.0174 -0.2672  0.1052
 8609ION    CL-12660   2.755   8.560  11.812  0.2453 -0.0299 -0.0694
 8610ION    CL-12661   3.054   9.621   0.063  0.0682 -0.0208  0.0258
 8611ION    CL-12662   4.444   6.775   0.662  0.0041  0.1301 -0.0644
 8612ION    CL-12663   0.185   5.820   3.428  0.3135  0.0598 -0.0531
 8613ION    CL-12664   5.158   1.204   4.470 -0.0950  0.4947 -0.1095
 8614ION    CL-12665   3.732  10.014  13.804 -0.1749  0.1892 -0.1892
 8615ION    CL-12666   5.768   5.360  10.270 -0.5235  0.1589 -0.1077
 8616ION    CL-12667   9.992   4.237   4.246 -0.2526 -0.0928 -0.0173
 8617ION    CL-12668   7.348   2.586  11.794  0.2804 -0.1570  0.2397
 8618ION    CL-12669   2.840   6.439   4.902  0.0554  0.2938 -0.4397
 8619ION    CL-12670   4.854   7.955   3.121 -0.0915  0.3665  0.2875
 8620ION    CL-12671   0.766   7.715   9.880 -0.0524  0.1167  0.2419
 8621ION    CL-12672   7.588   4.427  10.215  0.3636  0.1532  0.1151
 8622ION    CL-12673   6.344   0.094  11.304  0.0659 -0.0449 -0.0996
 8623ION    CL-12674   3.941   9.860  12.851 -0.1289  0.3776 -0.1491
 8624ION    CL-12675   4.371   9.218   3.987 -0.0706  0.3429 -0.0088
 8625ION    CL-12676   5.726   9.410   4.130  0.2228  0.3044 -0.0517
  10.15505  10.15505  14.09338
