Protein in INSANE! Membrane UpperLeaflet>POPC=1.0 LowerLeaflet>POPC=1.0
11530
    1AU     AUC    1   0.495   4.530   5.647 -0.0433  0.0254  0.0050
    1AU     AUC    2   0.848   4.441   5.553  0.0031  0.0641  0.0134
    1AU     AUC    3   0.729   4.669   5.830  0.0145 -0.0684  0.0007
    1AU     AUC    4   0.247   4.434   5.435 -0.0202 -0.0201 -0.0387
    1AU     AUC    5   0.208   4.653   5.689  0.0562 -0.0957 -0.0121
    1AU     AUC    6   0.392   4.740   5.426 -0.0792  0.0769 -0.0664
    1AU     AUC    7   0.708   4.735   5.511 -0.0193  0.0816 -0.0964
    1AU     AUC    8   0.301   4.311   5.733  0.0132 -0.0936  0.1041
    1AU     AUC    9   0.655   4.341   5.844 -0.0251 -0.0170  0.0278
    1AU     AUC   10   0.457   4.584   5.962 -0.0419 -0.0289 -0.1144
    1AU     AUC   11   0.486   4.857   5.740 -0.0272 -0.0087  0.0423
    1AU     AUC   12   0.578   4.234   5.511 -0.0940 -0.0298 -0.0362
    1AU     AUC   13   0.596   4.503   5.318 -0.0535  0.0635  0.1276
    1AU     AUC   14   1.149   4.341   5.507  0.1458  0.0086 -0.0147
    1AU     AUC   15   1.136   4.551   5.789 -0.0109  0.0597 -0.0285
    1AU     AUC   16   0.966   4.757   6.050 -0.0187  0.0477 -0.0298
    1AU     AUC   17  -0.002   4.313   5.224 -0.0093  0.0189  0.1078
    1AU     AUC   18  -0.126   4.537   5.475  0.0003 -0.0045 -0.0495
    1AU     AUC   19  -0.078   4.766   5.767 -0.0524 -0.1205 -0.0713
    1AU     AUC   20   0.300   4.959   5.158  0.0705 -0.0048  0.0169
    1AU     AUC   21   0.631   4.998   5.216 -0.0113 -0.0350 -0.0105
    1AU     AUC   22   0.917   4.999   5.344  0.0554  0.0073 -0.0682
    1AU     AUC   23   0.101   4.065   5.873  0.0550 -0.0079  0.0275
    1AU     AUC   24   0.441   4.043   5.946  0.0762  0.0731 -0.1272
    1AU     AUC   25   0.803   4.058   6.045 -0.0143  0.0465 -0.0187
    1AU     AUC   26   0.393   4.574   6.303 -0.1041 -0.0475  0.0216
    1AU     AUC   27   0.394   4.906   6.124 -0.0486 -0.0098 -0.0423
    1AU     AUC   28   0.450   5.134   5.842  0.0635  0.0381  0.0305
    1AU     AUC   29   0.578   3.890   5.395  0.0189 -0.0141 -0.1214
    1AU     AUC   30   0.637   4.143   5.197 -0.0163  0.0450 -0.0418
    1AU     AUC   31   0.708   4.430   5.051  0.1090 -0.0589  0.1399
    1AU     AUC   32   0.689   4.667   6.187  0.0219  0.0162 -0.0307
    1AU     AUC   33   0.721   4.995   6.023  0.0074  0.0721 -0.0215
    1AU     AUC   34   0.884   4.083   5.441  0.0868 -0.1334  0.0210
    1AU     AUC   35   0.949   4.351   5.197 -0.0024  0.0065 -0.0182
    1AU     AUC   36   0.141   4.702   6.045  0.0145  0.1150  0.0193
    1AU     AUC   37   0.173   4.992   5.794  0.0333 -0.0190  0.0098
    1AU     AUC   38   0.240   4.107   5.333 -0.0279 -0.0465 -0.0493
    1AU     AUC   39   0.332   4.361   5.091  0.0259 -0.0926 -0.0703
    1AU     AUC   40   1.091   4.684   5.450 -0.0083 -0.0267  0.0185
    1AU     AUC   41   0.956   4.903   5.732 -0.0494  0.0132  0.0495
    1AU     AUC   42   0.108   4.623   5.191 -0.0424  0.0068 -0.0313
    1AU     AUC   43   0.094   4.914   5.467  0.0569  0.0394  0.0113
    1AU     AUC   44   1.002   4.201   5.787 -0.0176 -0.0030 -0.0387
    1AU     AUC   45   0.930   4.390   6.025 -0.0648  0.0433  0.0246
    1AU     AUC   46  -0.010   4.237   5.577 -0.0299 -0.0620 -0.0392
    1AU     AUC   47  -0.008   4.435   5.850  0.0223 -0.0071  0.0464
    1AU     AUC   48   0.385   5.113   5.455 -0.0575  0.0882  0.0245
    1AU     AUC   49   0.666   5.110   5.610 -0.0358  0.0292 -0.0965
    1AU     AUC   50   0.254   4.318   6.109  0.0149  0.0103 -0.0627
    1AU     AUC   51   0.596   4.273   6.194  0.0355  0.0293 -0.0026
    1AU     AUC   52   0.500   4.654   5.058  0.0013  0.1028 -0.0955
    1AU     AUC   53   0.829   4.691   5.149  0.0399 -0.0078 -0.0260
    1AU     AUC   54   0.293   3.989   5.625 -0.0228  0.0353 -0.0922
    1AU     AUC   55   0.683   3.954   5.681 -0.0222  0.0832  0.0026
    1AU    AUSL   56   0.902   4.914   6.356 -0.0701 -0.0047 -0.0846
    1AU    AUSL   57   0.676   4.516   6.522  0.0439  0.0570 -0.0004
    1AU     AUL   58   0.930   4.722   6.647  0.0070  0.0462 -0.0420
    1AU       S   59   1.008   4.277   6.799 -0.6850 -0.0802  0.1139
    1AU     LIG   60   1.407   4.487   6.880  0.0059 -0.2719  0.0241
    1AU     LIG   61   1.830   4.273   6.908  0.1096  0.0278  0.1018
    1AU       S   62   0.695   5.115   6.729  0.2273  0.3784 -0.1815
    1AU     LIG   63   0.810   5.347   7.083 -0.2093 -0.0788 -0.2161
    1AU     LIG   64   0.975   5.681   7.208 -0.0463 -0.1929 -0.1190
    1AU    AUSL   65   0.455   4.863   6.430  0.0436  0.0398  0.0166
    1AU    AUSL   66   0.263   5.155   6.101 -0.0478 -0.0896 -0.0123
    1AU     AUL   67   0.249   5.238   6.496  0.1068 -0.0306 -0.0647
    1AU       S   68   0.439   4.864   6.682  0.0270  0.1919 -0.1433
    1AU     LIG   69   0.639   4.574   7.034 -0.3667  0.0667  0.0249
    1AU     LIG   70   0.668   4.229   7.317  0.0289  0.0990 -0.0119
    1AU       S   71  -0.347   5.149   6.569  0.0269 -0.3580 -0.1851
    1AU     LIG   72  -0.738   4.995   6.539 -0.1316  0.0101 -0.1968
    1AU     LIG   73  -1.048   4.949   6.372  0.0128 -0.2270  0.0098
    1AU    AUSL   74   0.635   5.240   6.284 -0.0317 -0.0627  0.0164
    1AU    AUSL   75   1.013   5.214   6.051 -0.0086  0.0015  0.0011
    1AU     AUL   76   1.022   5.204   6.383 -0.0363  0.0460  0.0008
    1AU       S   77   0.651   5.486   6.436 -0.1068  0.1393  0.0188
    1AU     LIG   78   1.035   5.627   6.520 -0.1665  0.0203 -0.0319
    1AU     LIG   79   1.307   5.584   6.727  0.2569 -0.1053  0.2525
    1AU       S   80   0.978   5.599   6.025 -0.1642 -0.1664  0.2280
    1AU     LIG   81   1.414   5.483   6.240  0.2848  0.3215  0.1026
    1AU     LIG   82   1.710   5.195   6.467  0.0773  0.1530 -0.1839
    1AU    AUSL   83   1.210   4.096   5.148  0.0605  0.0042  0.0425
    1AU    AUSL   84   1.165   4.490   4.926 -0.0527 -0.0125  0.0140
    1AU     AUL   85   1.322   4.197   4.744  0.0349 -0.0008  0.0105
    1AU       S   86   1.185   3.777   4.899 -0.0143  0.0697 -0.1797
    1AU     LIG   87   1.139   3.859   4.415 -0.3868  0.0665  0.0926
    1AU     LIG   88   1.187   4.171   4.136  0.0610  0.0083  0.1290
    1AU       S   89   1.537   4.573   4.880 -0.5716 -0.1844  0.2639
    1AU     LIG   90   1.725   4.820   4.689 -0.1775 -0.0349  0.3690
    1AU     LIG   91   1.841   4.838   4.222 -0.0433  0.3505  0.3663
    1AU    AUSL   92   0.834   3.894   5.185 -0.0365  0.0151 -0.0287
    1AU    AUSL   93   1.081   4.067   5.570  0.1025  0.0629 -0.0174
    1AU     AUL   94   1.306   3.882   5.343  0.0844 -0.0045 -0.0282
    1AU       S   95   1.359   3.409   5.656 -0.1055 -0.0213 -0.0626
    1AU     LIG   96   1.609   3.019   5.653 -0.0402  0.1371  0.0010
    1AU     LIG   97   2.098   2.930   5.751  0.3597 -0.0223  0.1788
    1AU       S   98   0.973   3.607   5.044  0.1067 -0.0338 -0.2040
    1AU     LIG   99   0.702   3.358   5.060  0.4363  0.0554 -0.0197
    1AU     LIG  100   0.400   3.232   5.182  0.2676 -0.1305 -0.1486
    1AU    AUSL  101   0.880   4.193   4.887  0.0177 -0.0535  0.0358
    1AU    AUSL  102   0.445   3.774   5.041  0.0709 -0.0253 -0.0682
    1AU     AUL  103   0.741   3.903   4.796  0.1146  0.0870 -0.0138
    1AU       S  104   0.372   3.602   4.719 -0.2623  0.1312 -0.1571
    1AU     LIG  105   0.436   3.722   4.360 -0.1777  0.0164 -0.3288
    1AU     LIG  106   0.003   3.426   4.264 -0.2628  0.1215  0.0786
    1AU       S  107   1.202   3.507   5.020 -0.3852  0.0133  0.3267
    1AU     LIG  108   1.190   3.049   5.271  0.2184 -0.0530 -0.2838
    1AU     LIG  109   1.257   2.590   5.519 -0.2106 -0.0276 -0.1489
    1AU    AUSL  110  -0.147   5.045   6.005  0.0421  0.0013  0.0477
    1AU    AUSL  111   0.197   5.335   5.726 -0.0061 -0.0944  0.0494
    1AU     AUL  112   0.043   5.429   6.002  0.0425 -0.1310 -0.0501
    1AU       S  113  -0.261   5.248   6.343 -0.4171  0.1109  0.1770
    1AU     LIG  114  -0.385   5.608   6.197 -0.0764  0.3052  0.4812
    1AU     LIG  115  -0.694   5.733   5.875  0.1741  0.3424  0.1131
    1AU       S  116  -0.163   5.597   5.632  0.3185  0.3624  0.0332
    1AU     LIG  117  -0.271   5.932   5.842 -0.5602  0.3486  0.1120
    1AU     LIG  118  -0.186   6.057   6.202  0.0382 -0.3385 -0.1020
    1AU    AUSL  119   0.037   4.856   6.363  0.0082 -0.1039 -0.0836
    1AU    AUSL  120  -0.101   4.628   6.032  0.0469 -0.0312 -0.0026
    1AU     AUL  121  -0.356   4.795   6.175  0.0003 -0.0105  0.0665
    1AU       S  122  -0.223   4.519   6.601 -0.0945  0.0700 -0.1052
    1AU     LIG  123   0.164   4.476   6.802 -0.2217  0.0835  0.2106
    1AU     LIG  124   0.202   4.266   7.136 -0.0182  0.1469  0.1249
    1AU       S  125  -0.164   5.017   6.523 -0.0246  0.0575 -0.0642
    1AU     LIG  126  -0.006   4.924   6.904  0.1707  0.2135 -0.2311
    1AU     LIG  127   0.379   5.070   7.144  0.2005  0.1551  0.0965
    1AU    AUSL  128   0.078   3.999   5.007  0.0191 -0.0101  0.1433
    1AU    AUSL  129   0.290   3.923   5.409  0.1264 -0.0539  0.0085
    1AU     AUL  130   0.158   3.681   5.161 -0.0441  0.0402  0.0414
    1AU       S  131   0.089   3.615   4.676  0.1863  0.1802 -0.3585
    1AU     LIG  132  -0.041   3.943   4.354 -0.5403 -0.3266  0.0966
    1AU     LIG  133   0.076   3.915   3.909  0.0322 -0.1905  0.1044
    1AU       S  134  -0.301   3.559   5.154  0.0465  0.3567  0.2946
    1AU     LIG  135  -0.691   3.518   5.008 -0.0130  0.2344  0.4407
    1AU     LIG  136  -0.874   3.735   4.731 -0.0102 -0.0095  0.1586
    1AU    AUSL  137   0.479   4.217   4.994  0.0833 -0.0462 -0.0939
    1AU    AUSL  138   0.101   4.430   4.951 -0.0436 -0.0764  0.0559
    1AU     AUL  139   0.266   4.090   4.697  0.0341 -0.0223  0.0062
    1AU       S  140  -0.083   4.385   4.686 -0.3840 -0.3354 -0.1135
    1AU     LIG  141  -0.391   4.566   4.387 -0.1936 -0.1032  0.0904
    1AU     LIG  142  -0.674   4.919   4.116  0.4073  0.5472 -0.0726
    1AU       S  143   0.266   3.405   4.714  0.1272  0.3528 -0.1101
    1AU     LIG  144   0.083   3.069   4.797 -0.0709  0.3706  0.0737
    1AU     LIG  145   0.241   2.781   5.101  0.0756  0.0812 -0.2816
    1AU    AUSL  146   1.257   5.045   5.465 -0.0434 -0.1123 -0.0467
    1AU    AUSL  147   1.283   4.467   5.342 -0.0147 -0.0710  0.0136
    1AU     AUL  148   1.473   4.861   5.230 -0.0407 -0.0393  0.0370
    1AU       S  149   1.576   4.401   5.215  0.3249 -0.1202  0.2517
    1AU     LIG  150   1.914   4.376   5.489  0.2820 -0.1008  0.1087
    1AU     LIG  151   2.168   4.373   5.862  0.0945  0.0124  0.0895
    1AU       S  152   1.748   5.096   5.975  0.1964  0.1195 -0.1483
    1AU     LIG  153   2.025   4.887   6.186 -0.5571 -0.0493 -0.1068
    1AU     LIG  154   2.211   4.446   6.338  0.2220 -0.0453  0.3822
    1AU    AUSL  155   1.436   4.697   5.652  0.0912  0.1154  0.0191
    1AU    AUSL  156   1.358   4.521   6.084 -0.0609  0.0409 -0.0887
    1AU     AUL  157   1.680   4.576   5.915 -0.0544  0.0589  0.0428
    1AU       S  158   1.610   4.990   5.759  0.2511 -0.1806  0.1225
    1AU     LIG  159   1.750   5.248   5.441 -0.1825 -0.4686  0.3443
    1AU     LIG  160   2.066   5.297   5.210 -0.1817  0.0698 -0.1559
    1AU       S  161   1.639   4.194   6.212 -0.0085  0.1061  0.1580
    1AU     LIG  162   1.715   4.522   6.471  0.0764 -0.2659 -0.0307
    1AU     LIG  163   1.889   4.770   6.791  0.1582 -0.1486 -0.1033
    1AU    AUSL  164   1.139   4.847   5.895 -0.0632 -0.0954 -0.1083
    1AU    AUSL  165   0.884   5.120   5.637 -0.0198 -0.0211  0.0792
    1AU     AUL  166   1.206   5.271   5.743 -0.0157  0.0072  0.0126
    1AU       S  167   0.800   5.849   6.069 -0.5301 -0.1686  0.1833
    1AU     LIG  168   0.805   6.288   5.973  0.0482  0.1327 -0.2048
    1AU     LIG  169   0.774   6.459   6.412 -0.2171 -0.3383 -0.3824
    1AU       S  170   1.497   5.018   6.064  0.1436  0.1072 -0.1228
    1AU     LIG  171   1.369   4.901   6.453 -0.0861  0.4715  0.1994
    1AU     LIG  172   1.189   5.015   6.918  0.2926  0.1885  0.2384
    1AU    AUSL  173  -0.011   4.917   5.184  0.0039 -0.0539 -0.0533
    1AU    AUSL  174  -0.142   5.122   5.572  0.1107 -0.0268  0.0372
    1AU     AUL  175  -0.335   5.114   5.264  0.0734  0.0800 -0.0159
    1AU       S  176  -0.337   5.397   5.690 -0.0629  0.2269  0.3947
    1AU     LIG  177  -0.765   5.476   5.407 -0.4313  0.0429  0.0285
    1AU     LIG  178  -0.893   5.027   5.286  0.1487 -0.2513  0.2133
    1AU       S  179  -0.098   5.251   4.889 -0.1413  0.0236  0.0198
    1AU     LIG  180   0.195   5.261   4.575  0.4154  0.1339  0.0762
    1AU     LIG  181   0.108   5.205   4.071  0.2514 -0.2262  0.1120
    1AU    AUSL  182  -0.263   4.541   5.118  0.0339 -0.0062  0.0162
    1AU    AUSL  183   0.112   4.826   4.789 -0.0953 -0.0039 -0.0126
    1AU     AUL  184  -0.223   4.776   4.884 -0.0967  0.0329  0.0392
    1AU       S  185  -0.447   4.286   4.952 -0.2548 -0.2047 -0.7063
    1AU     LIG  186  -0.760   4.644   4.762  0.2876  0.1091 -0.2323
    1AU     LIG  187  -1.103   4.761   4.818  0.2943  0.1305  0.0336
    1AU       S  188   0.050   4.789   4.471 -0.1492  0.2017 -0.2331
    1AU     LIG  189  -0.226   5.045   4.428  0.2082  0.0164 -0.0198
    1AU     LIG  190  -0.369   5.369   4.327 -0.0327  0.3843 -0.1087
    1AU    AUSL  191  -0.213   4.718   5.539 -0.0051  0.0122  0.0622
    1AU    AUSL  192  -0.437   4.322   5.435  0.0778  0.0376  0.0517
    1AU     AUL  193  -0.554   4.673   5.304  0.0612  0.1227  0.0732
    1AU       S  194  -0.812   4.340   5.563 -0.1045 -0.2288  0.0374
    1AU     LIG  195  -1.191   4.608   5.446 -0.0103 -0.2519 -0.0384
    1AU     LIG  196  -1.556   4.767   5.385  0.1932 -0.2463 -0.0622
    1AU       S  197  -0.580   4.955   5.709 -0.3257  0.2435 -0.2388
    1AU     LIG  198  -0.707   5.157   6.028  0.0194  0.1763 -0.0241
    1AU     LIG  199  -1.066   5.269   5.940  0.3353  0.4274 -0.0650
    1AU    AUSL  200   1.144   4.151   6.056 -0.0311  0.0901  0.0101
    1AU    AUSL  201   0.949   4.522   6.193 -0.0379 -0.0328  0.0190
    1AU     AUL  202   1.228   4.427   6.391 -0.0237  0.0587 -0.0214
    1AU       S  203   1.456   4.011   6.259 -0.3944 -0.0921  0.0276
    1AU     LIG  204   1.361   3.615   6.276 -0.0908 -0.1235 -0.0461
    1AU     LIG  205   1.686   3.303   6.058  0.0356 -0.1037  0.2822
    1AU       S  206   1.197   4.070   6.744  0.0907 -0.0366  0.1315
    1AU     LIG  207   1.457   3.743   6.889 -0.0206 -0.1404 -0.1076
    1AU     LIG  208   1.638   3.345   6.975 -0.0973  0.2535  0.4976
    1AU    AUSL  209   1.424   4.254   5.718  0.1229 -0.0258 -0.0640
    1AU    AUSL  210   1.022   3.761   5.952  0.0503  0.1192  0.0255
    1AU     AUL  211   1.318   3.902   5.814  0.0474  0.0804  0.0600
    1AU       S  212   1.719   4.079   6.009 -0.0089 -0.1862  0.0067
    1AU     LIG  213   1.824   3.782   5.981  0.1773 -0.1205 -0.0507
    1AU     LIG  214   2.084   3.726   5.690 -0.3011 -0.2567  0.1375
    1AU       S  215   1.203   3.440   5.862 -0.3208 -0.4962 -0.0521
    1AU     LIG  216   1.135   3.047   5.925  0.2613  0.1350  0.0472
    1AU     LIG  217   1.391   2.683   6.068 -0.2829 -0.0544 -0.1784
    1AU    AUSL  218  -0.156   4.211   5.806 -0.0512  0.0992 -0.0687
    1AU    AUSL  219  -0.106   4.089   5.362  0.0899  0.0137  0.0934
    1AU     AUL  220  -0.452   4.061   5.663  0.0683 -0.0331 -0.0337
    1AU       S  221  -0.284   3.828   5.238  0.5590  0.1175 -0.1319
    1AU     LIG  222  -0.713   3.953   5.260 -0.4078  0.5839  0.4230
    1AU     LIG  223  -1.128   3.925   5.342  0.0590  0.0016  0.0695
    1AU       S  224  -0.932   4.281   5.679 -0.0594 -0.0898 -0.0326
    1AU     LIG  225  -1.276   4.263   5.811  0.0181 -0.1529 -0.0720
    1AU     LIG  226  -1.659   4.502   5.775  0.2183  0.1223  0.0023
    1AU    AUSL  227  -0.451   4.522   5.812 -0.0010 -0.0235 -0.0894
    1AU    AUSL  228  -0.159   4.251   6.225 -0.1201  0.0636 -0.0045
    1AU     AUL  229  -0.411   4.321   6.069  0.1491  0.1001 -0.0118
    1AU       S  230  -0.314   4.390   6.524  0.3577 -0.0849  0.3049
    1AU     LIG  231  -0.253   4.095   6.899 -0.4540  0.1080 -0.3634
    1AU     LIG  232  -0.547   4.060   7.192  0.1916  0.2226 -0.2306
    1AU       S  233  -0.788   4.531   5.745  0.0923 -0.2722  0.0714
    1AU     LIG  234  -1.059   4.721   5.928  0.0851 -0.2967  0.1338
    1AU     LIG  235  -1.402   4.910   5.853  0.0766  0.6540  0.1316
    1AU    AUSL  236   0.539   5.375   5.473 -0.0477 -0.0550 -0.0560
    1AU    AUSL  237   0.144   5.297   5.299  0.0014 -0.0284 -0.0013
    1AU     AUL  238   0.311   5.607   5.471  0.0396 -0.0310  0.0156
    1AU       S  239  -0.122   5.583   5.285  0.1548  0.3186  0.0786
    1AU     LIG  240  -0.475   5.919   5.428  0.3642 -0.0696 -0.1732
    1AU     LIG  241  -0.827   6.104   5.382 -0.2197  0.3611 -0.3668
    1AU       S  242   0.673   5.729   5.148  0.0334  0.0435  0.0910
    1AU     LIG  243   0.833   5.817   4.684 -0.1028 -0.0473  0.0105
    1AU     LIG  244   0.677   5.987   4.270 -0.0142 -0.0316  0.2851
    1AU    AUSL  245   0.490   5.284   5.052 -0.0144  0.1617  0.0044
    1AU    AUSL  246   0.853   5.058   4.906  0.0056 -0.0003 -0.1166
    1AU     AUL  247   0.664   5.318   4.772 -0.0703 -0.0353  0.1602
    1AU       S  248   0.754   5.898   5.236 -0.2520 -0.3774 -0.1742
    1AU     LIG  249   0.555   6.113   5.551  0.0182  0.2639 -0.0384
    1AU     LIG  250   0.265   6.141   5.864 -0.2815  0.3487  0.0133
    1AU       S  251   0.930   4.999   4.492  0.0625 -0.2037 -0.2727
    1AU     LIG  252   1.417   5.079   4.351 -0.1632 -0.0318  0.2029
    1AU     LIG  253   1.781   5.289   4.486  0.0705 -0.0252 -0.4978
    1AU    AUSL  254   0.927   5.301   5.267  0.0277  0.0037  0.0220
    1AU    AUSL  255   0.618   5.340   5.884 -0.1844 -0.0102  0.0558
    1AU     AUL  256   0.832   5.527   5.565  0.0122  0.0613 -0.0477
    1AU       S  257   0.599   5.603   5.952 -0.3250 -0.0933 -0.3534
    1AU     LIG  258   0.246   5.764   6.273  0.2268  0.1515 -0.1688
    1AU     LIG  259  -0.010   5.672   6.573 -0.3593  0.0403  0.0906
    1AU       S  260   0.930   5.605   5.103  0.2742 -0.0087 -0.0536
    1AU     LIG  261   1.361   5.523   5.263  0.0211 -0.2966 -0.1770
    1AU     LIG  262   1.517   5.614   5.743 -0.2178  0.0794 -0.4155
    1AU    AUSL  263   0.420   4.185   6.474 -0.0518  0.0042 -0.1508
    1AU    AUSL  264   0.863   4.135   6.373 -0.0514  0.0823  0.1286
    1AU     AUL  265   0.594   4.205   6.708 -0.0186 -0.0050  0.0310
    1AU       S  266  -0.414   3.776   6.011  0.1007  0.4890 -0.0638
    1AU     LIG  267  -0.807   3.951   6.087 -0.1161  0.3368  0.1674
    1AU     LIG  268  -1.209   4.052   6.264  0.2560  0.0078  0.3527
    1AU       S  269   1.003   3.990   6.524  0.0556 -0.4264 -0.0014
    1AU     LIG  270   0.967   3.588   6.519  0.2996 -0.1284  0.0123
    1AU     LIG  271   0.869   3.300   6.243 -0.1450  0.1286 -0.0453
    1AU    AUSL  272   0.191   4.056   6.104 -0.0678 -0.0726  0.0118
    1AU    AUSL  273   0.202   4.498   6.315 -0.0207  0.0211 -0.0400
    1AU     AUL  274   0.049   4.132   6.503  0.0146 -0.0738 -0.1032
    1AU       S  275  -0.212   3.811   6.134 -0.2299  0.1286 -0.2711
    1AU     LIG  276  -0.502   3.896   6.461 -0.0852 -0.1967 -0.1469
    1AU     LIG  277  -0.828   4.098   6.624  0.0602  0.2957  0.2385
    1AU       S  278  -0.448   4.582   6.665  0.1075 -0.0591 -0.0476
    1AU     LIG  279  -0.279   4.529   7.107 -0.1648  0.0648 -0.0876
    1AU     LIG  280   0.074   4.732   7.354 -0.0803  0.3852 -0.0549
    1AU    AUSL  281   0.574   3.846   6.268 -0.0518 -0.0647  0.0645
    1AU    AUSL  282   0.263   3.695   5.924  0.0669  0.0326  0.0794
    1AU     AUL  283   0.255   3.743   6.319  0.0765  0.0184 -0.1012
    1AU       S  284   0.259   3.348   6.049 -0.0569 -0.1043  0.0863
    1AU     LIG  285   0.010   3.121   6.201 -0.2974  0.0176  0.1632
    1AU     LIG  286  -0.479   2.966   6.245  0.2323 -0.4888 -0.1830
    1AU       S  287  -0.201   3.621   6.105  0.3240  0.0462  0.0214
    1AU     LIG  288  -0.240   3.284   5.817 -0.1114  0.3379  0.4242
    1AU     LIG  289  -0.255   2.765   5.791  0.0650 -0.0608 -0.1440
    1AU    AUSL  290   0.783   4.645   4.846 -0.0293  0.0107  0.0644
    1AU    AUSL  291   1.036   4.811   5.190 -0.0099  0.0001 -0.0752
    1AU     AUL  292   1.152   4.859   4.870 -0.0114  0.0775  0.0390
    1AU       S  293   0.901   4.648   4.535 -0.1755  0.1166 -0.0132
    1AU     LIG  294   0.757   4.223   4.388 -0.1825  0.3144 -0.1557
    1AU     LIG  295   0.422   4.180   4.220  0.1637 -0.4061  0.2306
    1AU       S  296   1.691   4.401   5.006  0.3614  0.0836  0.0204
    1AU     LIG  297   2.074   4.152   5.063  0.3357  0.1175 -0.1133
    1AU     LIG  298   2.317   4.097   5.443 -0.3363 -0.0322 -0.2749
    1AU    AUSL  299   0.454   4.864   5.022  0.0740  0.0792 -0.0199
    1AU    AUSL  300   0.418   4.521   4.685  0.0201  0.0330 -0.0764
    1AU     AUL  301   0.477   4.879   4.656  0.0508 -0.0281 -0.0382
    1AU       S  302   0.895   4.634   4.283  0.2185  0.3689 -0.4594
    1AU     LIG  303   1.366   4.596   4.371  0.3051  0.1198  0.2751
    1AU     LIG  304   1.686   4.380   4.290  0.2729  0.1751 -0.1027
    1AU       S  305   0.138   4.501   4.467  0.1246 -0.3098  0.2384
    1AU     LIG  306   0.436   4.670   4.192  0.2184 -0.2398 -0.0399
    1AU     LIG  307   0.594   4.988   4.110 -0.3295 -0.2224 -0.2613
    1AU    AUSL  308   0.515   3.600   5.551  0.0554 -0.1009 -0.0280
    1AU    AUSL  309  -0.049   3.816   5.666 -0.0284 -0.0941 -0.0742
    1AU     AUL  310   0.173   3.533   5.597  0.0459 -0.0119 -0.0050
    1AU       S  311  -0.293   3.662   5.457  0.2129  0.5562  0.2803
    1AU     LIG  312  -0.726   3.521   5.769 -0.0057 -0.0879 -0.2218
    1AU     LIG  313  -0.900   3.097   5.790  0.0251  0.3148  0.0776
    1AU       S  314   0.453   3.160   6.030 -0.5376 -0.0937  0.4133
    1AU     LIG  315   0.675   2.774   6.027  0.1131 -0.1887  0.0579
    1AU     LIG  316   0.889   2.408   5.813 -0.3500 -0.0857  0.1588
    1AU    AUSL  317   0.653   3.906   5.859  0.0430  0.0164 -0.0287
    1AU    AUSL  318   0.930   3.683   5.523 -0.0494 -0.0213  0.0057
    1AU     AUL  319   0.730   3.518   5.821  0.0413 -0.0044 -0.0735
    1AU       S  320   0.364   3.178   5.802 -0.2694 -0.2673  0.1883
    1AU     LIG  321   0.141   3.038   5.586 -0.4130  0.2042  0.4068
    1AU     LIG  322  -0.175   3.005   5.265  0.1519  0.1780  0.1123
    1AU       S  323   1.083   3.481   5.508 -0.1288 -0.0995 -0.2564
    1AU     LIG  324   0.752   3.139   5.498 -0.4448  0.2093  0.1643
    1AU     LIG  325   0.530   2.757   5.549 -0.1321 -0.1444 -0.0270
    2POPC   NC3  326   2.524  10.514   7.434 -0.1607 -0.1123 -0.0413
    2POPC   PO4  327   3.011  10.571   7.463 -0.0387  0.0027  0.0109
    2POPC   GL1  328   2.784  10.721   7.090 -0.1836 -0.0377  0.1591
    2POPC   GL2  329   2.463  10.858   7.146  0.3317 -0.3906  0.5834
    2POPC   C1A  330   2.631  10.807   6.581 -0.1154 -0.1454 -0.2515
    2POPC   D2A  331   2.730  11.063   6.234  0.0648  0.2286 -0.0541
    2POPC   C3A  332   2.520  11.370   6.044  0.1812 -0.0676  0.3759
    2POPC   C4A  333   2.480  11.585   5.660 -0.0933  0.1640  0.4017
    2POPC   C1B  334   2.650  11.174   6.914  0.0296 -0.3836  0.1240
    2POPC   C2B  335   2.875  11.370   6.589 -0.0670  0.0629 -0.1533
    2POPC   C3B  336   2.935  11.536   6.269  0.0203 -0.1357  0.0104
    2POPC   C4B  337   2.825  11.995   6.175 -0.4310 -0.1991 -0.1523
    3POPC   NC3  338   6.935   3.641   7.866 -0.1518  0.3078  0.1377
    3POPC   PO4  339   6.823   4.060   7.863  0.0418  0.0132 -0.1100
    3POPC   GL1  340   6.795   3.808   7.444  0.0551  0.2267  0.0345
    3POPC   GL2  341   6.470   4.096   7.329  0.0260  0.5412 -0.0200
    3POPC   C1A  342   6.861   3.835   7.041  0.1298  0.4198 -0.3505
    3POPC   D2A  343   6.708   3.898   6.673 -0.0076 -0.0898  0.0213
    3POPC   C3A  344   6.684   4.249   6.377 -0.2322 -0.0302 -0.1821
    3POPC   C4A  345   6.894   4.631   6.426  0.0954 -0.1647 -0.2135
    3POPC   C1B  346   6.163   3.965   6.911 -0.2733 -0.4148 -0.3645
    3POPC   C2B  347   6.108   4.198   6.493  0.0556 -0.1742 -0.0594
    3POPC   C3B  348   6.248   4.331   6.034  0.0276  0.1220 -0.0133
    3POPC   C4B  349   6.309   4.497   5.647 -0.0367  0.0054  0.0712
    4POPC   NC3  350  10.279  10.600   7.559 -0.2437 -0.2560  0.3419
    4POPC   PO4  351   9.830  10.662   7.397 -0.3237  0.1393 -0.0855
    4POPC   GL1  352   9.998  10.615   7.076  0.3251  0.3709 -0.0267
    4POPC   GL2  353  10.271  10.787   7.102  0.0980 -0.1166  0.4886
    4POPC   C1A  354  10.066  10.430   6.737 -0.0901 -0.0901 -0.2464
    4POPC   D2A  355   9.737  10.437   6.373  0.4698  0.0725 -0.0846
    4POPC   C3A  356   9.868  10.592   5.886 -0.3010 -0.1510  0.4905
    4POPC   C4A  357   9.894  10.318   5.487  0.1471 -0.0361 -0.1476
    4POPC   C1B  358  10.332  10.920   6.663  0.1639  0.0969 -0.1057
    4POPC   C2B  359  10.632  10.944   6.281  0.0319 -0.1781 -0.1786
    4POPC   C3B  360  10.941  11.180   6.102  0.0563  0.1520 -0.1538
    4POPC   C4B  361  11.181  11.376   5.733 -0.0531  0.1038  0.1104
    5POPC   NC3  362   4.282   1.690   8.146 -0.0827  0.1594 -0.2410
    5POPC   PO4  363   3.952   1.480   8.109 -0.3050 -0.2287  0.2386
    5POPC   GL1  364   4.058   1.601   7.670  0.2923  0.1027 -0.0652
    5POPC   GL2  365   4.383   1.747   7.589  0.2039 -0.1722  0.1892
    5POPC   C1A  366   3.976   1.558   7.215 -0.1182 -0.0947  0.0260
    5POPC   D2A  367   4.047   1.423   6.799  0.4068 -0.0784  0.1000
    5POPC   C3A  368   4.133   1.636   6.489 -0.1980 -0.2652  0.3302
    5POPC   C4A  369   4.275   2.017   6.393  0.2096  0.0376  0.1326
    5POPC   C1B  370   4.266   1.923   7.291 -0.1603  0.1466 -0.0489
    5POPC   C2B  371   4.429   1.996   6.912  0.0061  0.1655 -0.0032
    5POPC   C3B  372   4.753   1.878   6.546 -0.0321 -0.0235  0.1624
    5POPC   C4B  373   4.995   1.579   6.423  0.2268  0.4603  0.2208
    6POPC   NC3  374   3.918   4.426   7.918  0.2712 -0.0784 -0.0022
    6POPC   PO4  375   4.304   4.649   7.838 -0.1010  0.1251 -0.1628
    6POPC   GL1  376   3.899   4.623   7.469 -0.0831  0.0518  0.1502
    6POPC   GL2  377   3.676   4.570   7.476 -0.0665 -0.1392  0.0189
    6POPC   C1A  378   4.082   4.368   7.138 -0.3187  0.1903  0.0139
    6POPC   D2A  379   4.047   4.181   6.665 -0.2834  0.0094 -0.1101
    6POPC   C3A  380   3.697   4.213   6.322  0.0114  0.3335 -0.0236
    6POPC   C4A  381   3.510   4.288   5.899  0.0419 -0.1377  0.1210
    6POPC   C1B  382   3.618   4.668   7.039  0.1945  0.1945 -0.2742
    6POPC   C2B  383   3.566   4.702   6.604  0.2030  0.1651 -0.1693
    6POPC   C3B  384   3.299   4.883   6.255  0.0268 -0.0171  0.1393
    6POPC   C4B  385   3.373   4.780   5.852  0.0644 -0.0462  0.1692
    7POPC   NC3  386   8.102   9.346   7.536 -0.1279  0.1940 -0.1654
    7POPC   PO4  387   7.906   9.781   7.367 -0.3015  0.1898  0.0317
    7POPC   GL1  388   8.081   9.878   6.954  0.1685 -0.5504  0.1337
    7POPC   GL2  389   7.813   9.712   6.852  0.1786 -0.2282 -0.0927
    7POPC   C1A  390   7.948  10.147   6.638  0.2366  0.2583  0.1840
    7POPC   D2A  391   8.004  10.517   6.510 -0.2349  0.1462  0.0556
    7POPC   C3A  392   8.124  10.582   6.137 -0.0040 -0.2396 -0.2797
    7POPC   C4A  393   8.348  10.299   5.980 -0.1368  0.1994  0.0052
    7POPC   C1B  394   7.935   9.661   6.439  0.0600 -0.3506 -0.1752
    7POPC   C2B  395   7.757   9.620   6.094  0.1142 -0.0221 -0.1389
    7POPC   C3B  396   7.665   9.211   5.961 -0.3571 -0.1583 -0.1115
    7POPC   C4B  397   7.437   8.892   6.142  0.2001  0.1958  0.0620
    8POPC   NC3  398   8.844   5.174   8.420  0.0129  0.0671 -0.2296
    8POPC   PO4  399   9.140   5.056   8.233  0.2625  0.1326  0.0852
    8POPC   GL1  400   9.183   5.197   7.889  0.0469  0.0231  0.1884
    8POPC   GL2  401   9.336   5.429   7.804 -0.4774 -0.0120  0.1113
    8POPC   C1A  402   9.489   5.099   7.478 -0.0219 -0.0218 -0.1336
    8POPC   D2A  403   9.834   4.960   7.442 -0.0220 -0.0457 -0.2354
    8POPC   C3A  404  10.290   4.964   7.446  0.1800  0.0453 -0.1493
    8POPC   C4A  405  10.544   5.314   7.538  0.1067  0.1459 -0.1603
    8POPC   C1B  406   9.523   5.655   7.337  0.1406  0.2625 -0.2391
    8POPC   C2B  407   9.657   5.790   6.953  0.1301 -0.0651  0.1309
    8POPC   C3B  408   9.599   5.955   6.590 -0.1829 -0.0738 -0.0238
    8POPC   C4B  409   9.973   5.980   6.347  0.0661  0.0554  0.2400
    9POPC   NC3  410   0.659   2.679   8.598  0.0640  0.3678 -0.1887
    9POPC   PO4  411   0.354   2.477   8.263 -0.2074  0.1835  0.1944
    9POPC   GL1  412   0.226   2.692   7.853  0.0553  0.1335 -0.0227
    9POPC   GL2  413  -0.105   2.940   7.809 -0.1185  0.3563 -0.0622
    9POPC   C1A  414   0.321   3.007   7.506 -0.1788  0.2166  0.1283
    9POPC   D2A  415   0.464   3.385   7.423  0.1898  0.0868  0.0302
    9POPC   C3A  416   0.297   3.644   7.289 -0.0748  0.0507 -0.0447
    9POPC   C4A  417   0.282   3.788   6.846  0.3861  0.0647  0.0876
    9POPC   C1B  418  -0.161   3.081   7.366 -0.3251  0.2883 -0.3412
    9POPC   C2B  419  -0.112   3.505   7.119  0.0215  0.4292 -0.2689
    9POPC   C3B  420  -0.133   3.857   7.294  0.1180  0.1022  0.0110
    9POPC   C4B  421  -0.024   4.196   7.594 -0.5477 -0.0870  0.1940
   10POPC   NC3  422  10.157   3.460   8.488  0.1119 -0.3864  0.1635
   10POPC   PO4  423  10.220   3.933   8.450  0.0950 -0.1852 -0.0195
   10POPC   GL1  424  10.379   3.796   8.131  0.0645  0.1033  0.1031
   10POPC   GL2  425  10.304   3.903   7.875 -0.0137  0.0666  0.0646
   10POPC   C1A  426  10.878   3.905   8.005  0.1359  0.3547  0.1558
   10POPC   D2A  427  11.120   3.918   7.673 -0.0161  0.0235 -0.0126
   10POPC   C3A  428  11.482   4.129   7.795  0.1939 -0.0745  0.1074
   10POPC   C4A  429  11.818   4.476   7.791 -0.1259  0.0065  0.0967
   10POPC   C1B  430   9.874   3.987   7.722 -0.5134  0.0107  0.1738
   10POPC   C2B  431   9.627   4.275   7.421  0.3539  0.0124  0.3744
   10POPC   C3B  432   9.403   4.304   6.993 -0.1927 -0.0342  0.0265
   10POPC   C4B  433   9.244   3.904   6.714 -0.0833 -0.1095  0.1169
   11POPC   NC3  434   1.027  10.411   8.331  0.2244 -0.2263 -0.0340
   11POPC   PO4  435   0.938  10.610   7.886  0.0382  0.4047  0.0484
   11POPC   GL1  436   0.887  10.792   7.418  0.0259  0.4002 -0.0645
   11POPC   GL2  437   0.961  10.559   7.231  0.2482  0.0995 -0.0205
   11POPC   C1A  438   0.867  11.242   7.281  0.3545 -0.1117 -0.1550
   11POPC   D2A  439   0.772  11.400   6.843 -0.1678  0.1733 -0.1340
   11POPC   C3A  440   0.774  11.328   6.418  0.2412  0.0568 -0.0321
   11POPC   C4A  441   0.855  11.436   6.051 -0.0426  0.0204  0.2371
   11POPC   C1B  442   0.908  10.469   6.809  0.0830 -0.1858 -0.5422
   11POPC   C2B  443   0.560  10.443   6.363  0.0057  0.0768  0.0343
   11POPC   C3B  444   0.377  10.640   5.959 -0.2969  0.1772  0.3163
   11POPC   C4B  445   0.351  10.947   5.518 -0.1655  0.0579 -0.0365
   12POPC   NC3  446   7.237   1.779   7.576 -0.2752  0.0324  0.0482
   12POPC   PO4  447   6.890   1.836   7.340  0.0889  0.0786  0.1068
   12POPC   GL1  448   6.607   1.930   7.029  0.1651 -0.4290  0.1228
   12POPC   GL2  449   6.215   1.774   7.008 -0.0660  0.2394  0.1031
   12POPC   C1A  450   6.347   1.947   6.550 -0.1253 -0.0011 -0.3127
   12POPC   D2A  451   5.933   2.002   6.282  0.2987 -0.3713 -0.1203
   12POPC   C3A  452   5.621   2.346   6.064 -0.2112  0.2568  0.5838
   12POPC   C4A  453   5.633   2.588   5.740 -0.1217  0.0281  0.3253
   12POPC   C1B  454   5.861   1.680   6.656 -0.0824  0.0552 -0.0823
   12POPC   C2B  455   5.431   1.727   6.630 -0.0903 -0.1599  0.1241
   12POPC   C3B  456   5.199   2.124   6.513 -0.0548 -0.2044 -0.0198
   12POPC   C4B  457   5.173   2.549   6.377 -0.1725 -0.0322 -0.0817
   13POPC   NC3  458   8.615   5.829   8.410  0.2225  0.0565  0.0353
   13POPC   PO4  459   8.525   5.460   8.112 -0.2201 -0.4124 -0.0766
   13POPC   GL1  460   8.714   5.388   7.669 -0.0847  0.2048  0.0243
   13POPC   GL2  461   8.635   5.151   7.464 -0.0870  0.2235 -0.0671
   13POPC   C1A  462   9.075   5.477   7.326 -0.1643 -0.0384 -0.0444
   13POPC   D2A  463   9.346   5.301   7.045  0.0128  0.0030  0.1178
   13POPC   C3A  464   9.512   5.299   6.718 -0.1864  0.2242  0.4453
   13POPC   C4A  465   9.720   5.504   6.320 -0.0907 -0.2585  0.0558
   13POPC   C1B  466   8.660   5.420   7.069  0.1155  0.1160  0.0039
   13POPC   C2B  467   8.681   5.840   6.924  0.0065  0.1080 -0.0220
   13POPC   C3B  468   8.392   6.001   6.574  0.2731 -0.1220  0.0930
   13POPC   C4B  469   8.446   6.189   6.118 -0.2377 -0.1187 -0.3831
   14POPC   NC3  470   1.623   6.624   8.678 -0.0418 -0.1574  0.0886
   14POPC   PO4  471   1.459   6.477   8.267 -0.2329  0.2299  0.0345
   14POPC   GL1  472   1.579   6.406   7.732  0.2504  0.0070  0.2507
   14POPC   GL2  473   1.521   6.786   7.575 -0.0336  0.0182 -0.0280
   14POPC   C1A  474   1.634   6.316   7.254 -0.1306  0.3006  0.3953
   14POPC   D2A  475   1.539   6.413   6.961 -0.1083  0.0457  0.3036
   14POPC   C3A  476   1.441   6.079   6.723 -0.0262 -0.1442 -0.1375
   14POPC   C4A  477   1.329   6.035   6.371  0.0634 -0.0845  0.3145
   14POPC   C1B  478   1.671   6.832   7.161 -0.3228  0.1908 -0.0255
   14POPC   C2B  479   1.701   6.749   6.621 -0.1743 -0.3802 -0.1239
   14POPC   C3B  480   1.577   6.833   6.215  0.0402 -0.2668  0.0288
   14POPC   C4B  481   1.438   7.096   5.874  0.0258 -0.0250 -0.1242
   15POPC   NC3  482   2.819   6.816   8.556  0.2938 -0.1394 -0.1053
   15POPC   PO4  483   2.421   6.720   8.223 -0.0867  0.3642  0.1425
   15POPC   GL1  484   2.385   6.729   7.737  0.0680  0.0877  0.0425
   15POPC   GL2  485   2.148   6.545   7.571  0.0325 -0.3719 -0.1478
   15POPC   C1A  486   2.435   6.751   7.274 -0.0619 -0.0163  0.1183
   15POPC   D2A  487   2.562   6.779   6.831  0.3169 -0.0193 -0.3692
   15POPC   C3A  488   2.630   6.852   6.426 -0.2529  0.3000 -0.0939
   15POPC   C4A  489   2.774   6.695   6.023 -0.0252 -0.1414 -0.3624
   15POPC   C1B  490   2.093   6.505   7.053 -0.1957  0.1402  0.1860
   15POPC   C2B  491   2.204   6.601   6.610  0.1515 -0.0225  0.1340
   15POPC   C3B  492   2.115   6.866   6.181 -0.0101 -0.0653 -0.2525
   15POPC   C4B  493   1.871   7.228   5.927 -0.0809 -0.0834 -0.0224
   16POPC   NC3  494   1.314  10.454   7.534 -0.4168 -0.3238 -0.3146
   16POPC   PO4  495   1.671  10.326   7.585  0.0427 -0.0020 -0.4703
   16POPC   GL1  496   1.599  10.181   7.171 -0.2768  0.0286 -0.1011
   16POPC   GL2  497   1.394  10.219   7.068 -0.1097  0.0347 -0.1945
   16POPC   C1A  498   1.813  10.264   6.797 -0.1636  0.0350 -0.2088
   16POPC   D2A  499   1.779  10.374   6.416 -0.2834  0.0280 -0.1328
   16POPC   C3A  500   1.578  10.433   6.019  0.2057  0.1301  0.1202
   16POPC   C4A  501   1.721  10.553   5.656  0.0459 -0.1173 -0.4160
   16POPC   C1B  502   1.366  10.097   6.661  0.0313 -0.0444 -0.0887
   16POPC   C2B  503   1.374  10.061   6.282  0.4264 -0.0042  0.0376
   16POPC   C3B  504   1.164   9.980   5.845 -0.2827 -0.0645 -0.1819
   16POPC   C4B  505   1.151  10.388   5.708 -0.2194  0.0038 -0.0560
   17POPC   NC3  506   4.111   5.445   7.812  0.3046 -0.1761 -0.3458
   17POPC   PO4  507   3.667   5.527   7.763  0.2409  0.0114  0.1103
   17POPC   GL1  508   3.817   5.098   7.454 -0.0378 -0.1642  0.1260
   17POPC   GL2  509   3.529   5.174   7.239  0.1954  0.1312  0.0053
   17POPC   C1A  510   3.957   4.988   7.016  0.1500 -0.1115 -0.2704
   17POPC   D2A  511   4.148   4.739   6.688  0.0716  0.3880 -0.2106
   17POPC   C3A  512   4.126   4.740   6.299  0.0206  0.2506  0.1313
   17POPC   C4A  513   4.025   4.556   5.916 -0.1083 -0.0269  0.2235
   17POPC   C1B  514   3.650   5.452   7.002  0.1066  0.1509 -0.1422
   17POPC   C2B  515   3.609   5.654   6.663 -0.1636 -0.2799 -0.2537
   17POPC   C3B  516   3.296   5.879   6.536  0.1482 -0.1436  0.4162
   17POPC   C4B  517   2.956   5.872   6.292  0.0016  0.3308  0.2438
   18POPC   NC3  518   5.608   6.525   7.645 -0.0101 -0.1681 -0.3814
   18POPC   PO4  519   5.850   6.682   7.296 -0.1211  0.1021  0.2390
   18POPC   GL1  520   5.913   6.520   6.950  0.1223  0.0812  0.1396
   18POPC   GL2  521   5.944   6.293   7.025 -0.1954 -0.0899  0.0290
   18POPC   C1A  522   5.953   6.417   6.434 -0.3289 -0.0525 -0.2004
   18POPC   D2A  523   5.833   6.165   6.132  0.2703 -0.4275  0.1218
   18POPC   C3A  524   5.889   6.363   5.690 -0.4022 -0.1868 -0.2317
   18POPC   C4A  525   5.869   6.695   5.414  0.1416  0.1023  0.3057
   18POPC   C1B  526   6.026   5.996   6.796 -0.1622  0.1058 -0.0689
   18POPC   C2B  527   6.346   5.927   6.413 -0.0877  0.0995  0.1097
   18POPC   C3B  528   6.644   5.923   6.089 -0.0430  0.1829  0.0521
   18POPC   C4B  529   6.948   5.907   5.853  0.2364  0.0849  0.0531
   19POPC   NC3  530   6.553   8.754   7.739 -0.0027 -0.1160 -0.0044
   19POPC   PO4  531   6.993   9.024   7.708  0.0412  0.1737  0.3315
   19POPC   GL1  532   6.794   8.725   7.318 -0.2916 -0.5449  0.0553
   19POPC   GL2  533   6.388   8.914   7.276  0.2661  0.0679  0.1131
   19POPC   C1A  534   6.751   8.382   7.046 -0.0004  0.0978 -0.2845
   19POPC   D2A  535   6.795   8.344   6.582  0.2029  0.0573 -0.0200
   19POPC   C3A  536   6.531   8.225   6.360  0.0932  0.1761 -0.2213
   19POPC   C4A  537   6.188   8.030   6.294  0.1512 -0.1502  0.0677
   19POPC   C1B  538   6.342   8.643   6.891 -0.2801 -0.1461  0.1382
   19POPC   C2B  539   6.106   8.505   6.478 -0.0929  0.0506 -0.0577
   19POPC   C3B  540   5.788   8.406   6.295 -0.1054 -0.0764 -0.1063
   19POPC   C4B  541   5.396   8.465   6.101  0.1467 -0.0842  0.0761
   20POPC   NC3  542   9.367   8.644   8.069  0.3095  0.3239 -0.1908
   20POPC   PO4  543   9.291   8.477   7.680  0.1738  0.2196  0.1228
   20POPC   GL1  544   9.599   8.433   7.331 -0.0268  0.0680  0.1277
   20POPC   GL2  545   9.288   8.598   7.169 -0.1049 -0.0035  0.0308
   20POPC   C1A  546   9.935   8.271   7.016 -0.0339  0.1096 -0.1789
   20POPC   D2A  547  10.313   7.866   6.964  0.0077  0.3167 -0.2439
   20POPC   C3A  548  10.236   7.416   7.136  0.3019  0.2347 -0.2562
   20POPC   C4A  549  10.523   6.958   7.162  0.0619 -0.2227 -0.0276
   20POPC   C1B  550   9.240   8.720   6.699 -0.1044  0.4947  0.1427
   20POPC   C2B  551   9.401   8.499   6.328 -0.0604 -0.1690  0.1469
   20POPC   C3B  552   9.551   8.480   5.878  0.3158 -0.1137 -0.0656
   20POPC   C4B  553   9.732   8.455   5.561 -0.2560  0.3147 -0.0179
   21POPC   NC3  554   7.258   4.869   7.512  0.1297  0.0491  0.1185
   21POPC   PO4  555   7.243   5.358   7.505  0.0780  0.0320  0.4641
   21POPC   GL1  556   7.509   5.098   7.137 -0.0888 -0.0983 -0.0357
   21POPC   GL2  557   7.725   4.860   7.293  0.4177  0.0436  0.0576
   21POPC   C1A  558   7.670   4.964   6.664  0.0464 -0.0409  0.2372
   21POPC   D2A  559   7.735   4.505   6.456 -0.0958  0.2783 -0.3669
   21POPC   C3A  560   7.756   4.520   6.039  0.1758  0.4492  0.1127
   21POPC   C4A  561   7.581   4.345   5.745  0.1526  0.0278  0.1153
   21POPC   C1B  562   7.850   4.658   6.976  0.1267 -0.0426  0.0680
   21POPC   C2B  563   8.302   4.595   6.765 -0.0798  0.0810 -0.1539
   21POPC   C3B  564   8.528   4.440   6.408  0.1628 -0.0684 -0.2177
   21POPC   C4B  565   8.371   4.563   5.987 -0.2023  0.0006 -0.1280
   22POPC   NC3  566   6.181   6.386   7.450 -0.2206  0.1027  0.0544
   22POPC   PO4  567   6.553   6.557   7.535 -0.3257  0.1011  0.2386
   22POPC   GL1  568   6.621   6.296   7.130  0.0589 -0.0096  0.2887
   22POPC   GL2  569   6.463   6.105   7.031 -0.0161  0.1428 -0.1032
   22POPC   C1A  570   6.848   5.968   6.788 -0.3261  0.0850 -0.3138
   22POPC   D2A  571   6.983   5.981   6.445  0.0566  0.3357  0.0214
   22POPC   C3A  572   7.286   6.306   6.351 -0.2632  0.1739  0.0966
   22POPC   C4A  573   7.584   6.624   5.982  0.0020  0.3017  0.0241
   22POPC   C1B  574   6.386   6.337   6.630 -0.1246 -0.4319 -0.4773
   22POPC   C2B  575   6.336   6.406   6.110  0.1247 -0.1188  0.0608
   22POPC   C3B  576   6.586   6.268   5.735 -0.0457  0.2164 -0.1105
   22POPC   C4B  577   6.812   6.217   5.422 -0.3750 -0.0088  0.0883
   23POPC   NC3  578   2.054   9.964   7.650  0.0652 -0.2817 -0.1213
   23POPC   PO4  579   1.690   9.754   7.756 -0.2690  0.1494 -0.0167
   23POPC   GL1  580   1.709   9.728   7.317  0.2177 -0.2014  0.2358
   23POPC   GL2  581   1.915   9.416   7.171 -0.0397  0.4618 -0.1755
   23POPC   C1A  582   1.610   9.729   6.885  0.0480 -0.2144  0.1894
   23POPC   D2A  583   1.761   9.840   6.449 -0.2568 -0.0221 -0.0112
   23POPC   C3A  584   1.900  10.054   6.082 -0.0033  0.0818 -0.1783
   23POPC   C4A  585   2.202  10.317   5.890  0.0111 -0.1197  0.0702
   23POPC   C1B  586   1.968   9.371   6.749 -0.3397  0.4413 -0.1209
   23POPC   C2B  587   2.213   9.187   6.409 -0.1096 -0.1817  0.1933
   23POPC   C3B  588   2.541   9.011   6.140 -0.0126  0.1710 -0.0345
   23POPC   C4B  589   3.001   9.039   5.937 -0.1772 -0.1189 -0.3171
   24POPC   NC3  590   3.948   3.337   8.090  0.1341  0.2913  0.2730
   24POPC   PO4  591   3.511   3.664   8.209 -0.1486 -0.0855  0.0462
   24POPC   GL1  592   3.517   3.584   7.784 -0.0024 -0.3195  0.1059
   24POPC   GL2  593   3.853   3.519   7.601  0.0831  0.1369  0.0171
   24POPC   C1A  594   3.419   3.637   7.306 -0.0280 -0.0692  0.3185
   24POPC   D2A  595   3.056   3.807   7.006 -0.0754 -0.2144  0.2176
   24POPC   C3A  596   3.006   3.777   6.597 -0.1111 -0.0154  0.0376
   24POPC   C4A  597   3.079   3.891   6.117 -0.2162  0.4141  0.0580
   24POPC   C1B  598   3.727   3.258   7.214  0.0392  0.1321  0.3113
   24POPC   C2B  599   3.404   2.883   6.905  0.0742  0.1122  0.2920
   24POPC   C3B  600   3.328   2.891   6.376 -0.0741  0.2797  0.1934
   24POPC   C4B  601   3.480   2.686   6.012 -0.0724  0.0075 -0.0192
   25POPC   NC3  602   8.529   8.421   8.163 -0.2285 -0.1526  0.3010
   25POPC   PO4  603   8.981   8.223   7.914  0.2232 -0.1395 -0.0064
   25POPC   GL1  604   8.998   8.203   7.406  0.1058 -0.0609 -0.0771
   25POPC   GL2  605   8.845   7.852   7.221 -0.0177  0.1846  0.1028
   25POPC   C1A  606   8.916   8.258   6.884 -0.0002  0.2194 -0.1456
   25POPC   D2A  607   8.898   8.269   6.472  0.1326 -0.2783  0.0082
   25POPC   C3A  608   8.583   8.207   6.130  0.1668 -0.1718  0.0525
   25POPC   C4A  609   8.421   8.091   5.695  0.0885 -0.1750 -0.4884
   25POPC   C1B  610   9.156   7.679   6.957 -0.1104  0.0949  0.0183
   25POPC   C2B  611   9.545   7.526   6.650  0.2062 -0.3189 -0.0560
   25POPC   C3B  612   9.601   7.517   6.244  0.2952 -0.1770 -0.0505
   25POPC   C4B  613   9.721   7.530   5.803 -0.0019 -0.0698 -0.3469
   26POPC   NC3  614   7.815  10.257   7.391  0.1775 -0.0480 -0.0885
   26POPC   PO4  615   8.013  10.593   7.292 -0.0383 -0.3378  0.2442
   26POPC   GL1  616   8.024  10.864   6.884 -0.2041  0.1976 -0.3262
   26POPC   GL2  617   7.735  11.045   6.807 -0.2620  0.1377 -0.1515
   26POPC   C1A  618   8.156  11.014   6.486 -0.1694 -0.4054  0.0812
   26POPC   D2A  619   7.959  11.114   5.995 -0.2790 -0.0113 -0.3751
   26POPC   C3A  620   8.087  10.841   5.672  0.3260  0.0209  0.1606
   26POPC   C4A  621   8.108  10.426   5.361  0.0746 -0.2577  0.2344
   26POPC   C1B  622   7.680  11.094   6.417 -0.1538 -0.0383  0.2134
   26POPC   C2B  623   7.617  10.737   6.100  0.0864  0.0870 -0.0937
   26POPC   C3B  624   7.181  10.559   5.947  0.2140 -0.0026  0.0643
   26POPC   C4B  625   6.757  10.486   5.840  0.0204  0.0286 -0.1473
   27POPC   NC3  626   9.462   5.452   8.327 -0.1855 -0.1643  0.0224
   27POPC   PO4  627   9.391   5.863   8.506 -0.3249 -0.0167 -0.2847
   27POPC   GL1  628   9.580   6.020   8.180  0.0449 -0.1263 -0.1948
   27POPC   GL2  629   9.352   6.092   7.856  0.0614 -0.1435  0.0257
   27POPC   C1A  630   9.863   6.171   7.833 -0.1818  0.1326 -0.0046
   27POPC   D2A  631  10.275   6.154   7.761 -0.4160 -0.0643  0.0469
   27POPC   C3A  632  10.596   6.093   7.380  0.1997 -0.1858 -0.1023
   27POPC   C4A  633  10.739   6.048   6.962  0.1080  0.0508 -0.5310
   27POPC   C1B  634   9.593   6.135   7.398 -0.2266  0.0740 -0.0932
   27POPC   C2B  635   9.988   6.043   7.255 -0.1567  0.1398  0.2620
   27POPC   C3B  636  10.375   5.747   7.108 -0.2063  0.1149 -0.2857
   27POPC   C4B  637  10.437   5.356   6.964  0.1731  0.2235  0.1643
   28POPC   NC3  638   5.598   2.824   8.026  0.3607  0.2694  0.2533
   28POPC   PO4  639   5.845   2.801   7.702 -0.0507 -0.3103  0.1773
   28POPC   GL1  640   5.907   2.493   7.366 -0.1366  0.0002  0.2421
   28POPC   GL2  641   6.190   2.344   7.330  0.1742 -0.0781 -0.0799
   28POPC   C1A  642   5.806   2.676   7.005 -0.0127 -0.4902  0.0839
   28POPC   D2A  643   5.566   2.795   6.696 -0.1044  0.1273  0.0527
   28POPC   C3A  644   5.685   2.845   6.256 -0.3306  0.0403  0.0705
   28POPC   C4A  645   5.729   3.236   5.995 -0.3784  0.0927  0.1513
   28POPC   C1B  646   6.296   2.523   7.003  0.2098 -0.2282 -0.3303
   28POPC   C2B  647   6.155   2.882   6.661 -0.1947  0.0018  0.1315
   28POPC   C3B  648   6.157   3.100   6.279  0.1557 -0.1047  0.0753
   28POPC   C4B  649   6.124   3.532   5.999  0.0576 -0.0283 -0.1423
   29POPC   NC3  650   3.549  10.461   7.588  0.0112 -0.1182  0.2130
   29POPC   PO4  651   3.940  10.191   7.588  0.0240 -0.2144  0.1619
   29POPC   GL1  652   3.809  10.079   7.198  0.0369  0.0313  0.2692
   29POPC   GL2  653   3.661   9.813   7.040  0.0582  0.1898  0.2422
   29POPC   C1A  654   3.815  10.265   6.807 -0.0292 -0.0752 -0.0133
   29POPC   D2A  655   3.570  10.503   6.493  0.1281  0.2778 -0.0709
   29POPC   C3A  656   3.326  10.484   6.125  0.1868  0.1806  0.3095
   29POPC   C4A  657   3.203  10.677   5.707  0.0686 -0.2123  0.2451
   29POPC   C1B  658   3.397  10.032   6.701 -0.0019  0.0422  0.0480
   29POPC   C2B  659   3.402   9.967   6.229  0.0907  0.0071  0.4596
   29POPC   C3B  660   3.495   9.782   5.835 -0.2498 -0.2626  0.3021
   29POPC   C4B  661   3.192   9.517   5.639 -0.0098  0.2453 -0.1055
   30POPC   NC3  662   9.978   2.230   7.934 -0.2643  0.1177  0.1434
   30POPC   PO4  663   9.703   1.995   7.824  0.2732  0.1113  0.2258
   30POPC   GL1  664   9.833   2.117   7.434 -0.1001 -0.0727 -0.0999
   30POPC   GL2  665   9.679   1.869   7.151  0.1492 -0.0478  0.0194
   30POPC   C1A  666  10.065   2.217   7.051 -0.0486 -0.0766  0.2462
   30POPC   D2A  667  10.179   2.475   6.590  0.1547 -0.2685 -0.4734
   30POPC   C3A  668  10.518   2.632   6.315 -0.0441  0.2165 -0.1706
   30POPC   C4A  669  10.830   2.712   5.996 -0.1502  0.4795 -0.0465
   30POPC   C1B  670   9.526   1.920   6.770  0.2333  0.0196  0.0768
   30POPC   C2B  671   9.254   2.248   6.527 -0.0538 -0.1496 -0.0211
   30POPC   C3B  672   9.128   2.484   6.106 -0.2891  0.2669  0.2109
   30POPC   C4B  673   9.418   2.715   5.775 -0.1354 -0.1246  0.2732
   31POPC   NC3  674   8.824   1.336   8.055 -0.3485  0.1349 -0.1396
   31POPC   PO4  675   9.236   1.252   7.834  0.3074  0.0982 -0.1833
   31POPC   GL1  676   9.496   1.140   7.365  0.3831  0.1448 -0.1539
   31POPC   GL2  677   9.740   1.401   7.331 -0.3816 -0.1391 -0.2583
   31POPC   C1A  678   9.325   1.291   6.993  0.0975  0.0953  0.1085
   31POPC   D2A  679   9.359   1.144   6.522  0.1281 -0.3296 -0.0805
   31POPC   C3A  680   9.347   1.439   6.109 -0.0818  0.2452 -0.4114
   31POPC   C4A  681   9.811   1.434   5.914  0.1239 -0.2137 -0.0507
   31POPC   C1B  682   9.711   1.447   6.790 -0.1523 -0.0666  0.3376
   31POPC   C2B  683   9.710   1.634   6.368 -0.3533 -0.0706  0.1612
   31POPC   C3B  684   9.438   1.937   6.111  0.1186 -0.2520 -0.2430
   31POPC   C4B  685   9.652   2.293   5.889  0.0763  0.1274  0.0103
   32POPC   NC3  686   4.908  10.040   7.934  0.1435  0.0635 -0.3449
   32POPC   PO4  687   4.686  10.093   7.572 -0.2272  0.0133 -0.1684
   32POPC   GL1  688   4.862  10.282   7.143 -0.1256  0.0618  0.0829
   32POPC   GL2  689   4.724  10.619   6.964  0.3039 -0.0834 -0.1187
   32POPC   C1A  690   5.043  10.160   6.737 -0.3481  0.0936  0.0274
   32POPC   D2A  691   4.975  10.168   6.270  0.0543  0.1530 -0.1917
   32POPC   C3A  692   4.654  10.412   6.246 -0.0428 -0.0609  0.0076
   32POPC   C4A  693   4.380  10.823   6.208 -0.0358  0.0724  0.1103
   32POPC   C1B  694   4.775  10.796   6.607  0.2402  0.0997  0.0565
   32POPC   C2B  695   4.674  11.154   6.390  0.0060  0.0514  0.2546
   32POPC   C3B  696   4.793  11.117   5.942 -0.2833 -0.2064  0.2882
   32POPC   C4B  697   4.638  10.876   5.649  0.0797  0.1438 -0.3226
   33POPC   NC3  698   1.852   3.979   8.623 -0.0192 -0.0178 -0.2425
   33POPC   PO4  699   2.072   4.268   8.295 -0.1738 -0.0327 -0.1344
   33POPC   GL1  700   2.244   4.213   7.911  0.4459  0.0003 -0.0710
   33POPC   GL2  701   1.955   3.968   7.754 -0.2385 -0.2843 -0.4220
   33POPC   C1A  702   2.377   4.192   7.589  0.0042 -0.1515  0.1463
   33POPC   D2A  703   2.296   4.287   7.163  0.1327 -0.4656 -0.2146
   33POPC   C3A  704   2.333   4.757   7.068  0.0780  0.0623 -0.2730
   33POPC   C4A  705   2.078   5.098   7.117  0.0090  0.0192  0.0419
   33POPC   C1B  706   1.859   3.901   7.338 -0.1114  0.5342  0.5699
   33POPC   C2B  707   2.013   3.698   6.963  0.1240  0.0867 -0.1134
   33POPC   C3B  708   1.868   3.527   6.533 -0.1590  0.1404 -0.2715
   33POPC   C4B  709   2.192   3.392   6.103  0.0033  0.3051  0.3345
   34POPC   NC3  710   7.416   7.723   7.966 -0.1890  0.2323  0.1327
   34POPC   PO4  711   7.803   7.983   7.854 -0.2886 -0.3189 -0.0536
   34POPC   GL1  712   8.020   7.989   7.442  0.2869  0.4293 -0.2697
   34POPC   GL2  713   8.344   7.811   7.455 -0.1398  0.0309 -0.0163
   34POPC   C1A  714   8.001   7.895   7.041  0.1291  0.0272 -0.0470
   34POPC   D2A  715   7.869   7.672   6.729  0.1588  0.0469  0.0421
   34POPC   C3A  716   8.098   7.809   6.400 -0.3640  0.3448  0.0936
   34POPC   C4A  717   8.057   8.148   6.128  0.0507 -0.0871  0.1827
   34POPC   C1B  718   8.348   7.540   7.020 -0.0880 -0.0103  0.0680
   34POPC   C2B  719   8.625   7.702   6.645 -0.0423  0.1835  0.3116
   34POPC   C3B  720   8.854   7.850   6.257 -0.3292 -0.3833  0.2409
   34POPC   C4B  721   9.133   8.164   6.060 -0.1935 -0.3784  0.2472
   35POPC   NC3  722   0.045  10.186   8.183 -0.0506 -0.1539 -0.2273
   35POPC   PO4  723   0.014  10.291   7.713  0.0523  0.3474  0.2569
   35POPC   GL1  724   0.075  10.341   7.346 -0.0844 -0.0340 -0.1420
   35POPC   GL2  725   0.122  10.698   7.201 -0.1101  0.0387  0.1245
   35POPC   C1A  726  -0.134  10.341   6.965  0.0595 -0.0263 -0.0948
   35POPC   D2A  727  -0.083  10.504   6.648 -0.0110  0.1347 -0.0507
   35POPC   C3A  728   0.290  10.693   6.736  0.1699 -0.0752 -0.0082
   35POPC   C4A  729   0.575  10.869   6.590 -0.1515 -0.2162 -0.3614
   35POPC   C1B  730   0.544  10.935   7.113  0.1579 -0.0801  0.1634
   35POPC   C2B  731   0.999  10.993   6.910  0.0474  0.1324 -0.0363
   35POPC   C3B  732   1.233  11.073   6.431  0.1285  0.1356 -0.2847
   35POPC   C4B  733   1.638  10.853   6.339 -0.2049  0.0958  0.0672
   36POPC   NC3  734   3.740   7.796   8.014 -0.0015  0.0428 -0.2327
   36POPC   PO4  735   3.517   8.250   7.891  0.1015 -0.0326  0.0338
   36POPC   GL1  736   3.566   8.550   7.526 -0.0584  0.0962  0.0731
   36POPC   GL2  737   3.283   8.696   7.359  0.1906 -0.0934  0.1268
   36POPC   C1A  738   3.827   8.829   7.190  0.0587 -0.4376  0.0025
   36POPC   D2A  739   4.215   8.911   6.964  0.1443  0.0633 -0.2883
   36POPC   C3A  740   4.229   9.217   6.680 -0.0570  0.0589  0.0946
   36POPC   C4A  741   4.483   9.567   6.527  0.2956 -0.0867 -0.2648
   36POPC   C1B  742   3.364   8.954   7.065  0.5724 -0.0014 -0.2393
   36POPC   C2B  743   3.117   9.162   6.830  0.0652 -0.1366 -0.1583
   36POPC   C3B  744   2.892   9.267   6.408  0.1655  0.5463 -0.0346
   36POPC   C4B  745   3.065   9.580   6.171 -0.1272  0.2622 -0.0751
   37POPC   NC3  746   5.557  10.597   7.385  0.1040 -0.0359 -0.1231
   37POPC   PO4  747   5.776  10.206   7.462 -0.4127 -0.1936  0.1659
   37POPC   GL1  748   5.952  10.006   7.082 -0.0306 -0.1853 -0.1628
   37POPC   GL2  749   6.244  10.004   7.179 -0.4428  0.1880 -0.0679
   37POPC   C1A  750   5.784   9.830   6.657  0.1200 -0.1677 -0.2298
   37POPC   D2A  751   5.383   9.942   6.466  0.2043 -0.1195  0.2347
   37POPC   C3A  752   5.384   9.770   6.046  0.2690 -0.2393 -0.1187
   37POPC   C4A  753   5.423   9.645   5.616 -0.0076  0.2642  0.1883
   37POPC   C1B  754   6.373  10.158   6.801 -0.2090 -0.0366  0.0716
   37POPC   C2B  755   6.286  10.177   6.456  0.2867 -0.1703  0.2699
   37POPC   C3B  756   5.870  10.250   6.397 -0.1076 -0.1440  0.3002
   37POPC   C4B  757   5.517  10.334   6.192  0.0751 -0.1600  0.1732
   38POPC   NC3  758   7.711  10.119   7.888  0.0519  0.1661  0.1392
   38POPC   PO4  759   7.443  10.050   7.588 -0.1475  0.2128  0.0452
   38POPC   GL1  760   7.456  10.049   7.059 -0.1529 -0.3222  0.0689
   38POPC   GL2  761   7.274   9.763   6.918 -0.0897  0.1659 -0.2899
   38POPC   C1A  762   7.255  10.201   6.656 -0.3142  0.0827 -0.1955
   38POPC   D2A  763   6.947  10.282   6.282 -0.1835  0.1594 -0.1399
   38POPC   C3A  764   6.859  10.800   6.309 -0.0817  0.1169  0.0302
   38POPC   C4A  765   6.651  11.272   6.534 -0.1264 -0.1526 -0.1117
   38POPC   C1B  766   7.447   9.754   6.510 -0.2216 -0.2787 -0.1628
   38POPC   C2B  767   7.393   9.976   6.121  0.0859 -0.3134 -0.0429
   38POPC   C3B  768   7.611  10.288   5.802 -0.0803  0.2021  0.1524
   38POPC   C4B  769   7.657  10.179   5.385 -0.2900 -0.1168 -0.1796
   39POPC   NC3  770   4.178   9.401   7.759  0.1934  0.1586  0.1349
   39POPC   PO4  771   3.737   9.618   7.524 -0.1498  0.0417 -0.0661
   39POPC   GL1  772   3.372   9.691   7.444  0.2287  0.0972  0.0396
   39POPC   GL2  773   3.273   9.454   7.209 -0.0792 -0.0615  0.1719
   39POPC   C1A  774   3.110   9.963   7.135  0.0388 -0.2166 -0.1412
   39POPC   D2A  775   2.935  10.292   7.014 -0.1360  0.2389 -0.1041
   39POPC   C3A  776   2.576  10.295   6.782 -0.1053 -0.3607 -0.1505
   39POPC   C4A  777   2.315  10.529   6.811  0.3357 -0.3242 -0.1502
   39POPC   C1B  778   3.684   9.284   6.897 -0.0197  0.3628  0.0725
   39POPC   C2B  779   3.811   8.921   6.649  0.1294 -0.2406 -0.3857
   39POPC   C3B  780   4.222   8.743   6.504  0.0032 -0.1308 -0.1712
   39POPC   C4B  781   4.704   8.679   6.656  0.1795 -0.1561  0.0102
   40POPC   NC3  782   7.675   3.399   8.189 -0.0145  0.1086 -0.0338
   40POPC   PO4  783   7.986   3.153   7.868  0.1119 -0.2258  0.1534
   40POPC   GL1  784   8.201   3.020   7.440  0.2124  0.0614  0.0834
   40POPC   GL2  785   8.425   2.729   7.530 -0.1446 -0.0077  0.1767
   40POPC   C1A  786   8.215   2.806   7.049 -0.5633  0.2014  0.1805
   40POPC   D2A  787   8.442   2.698   6.639  0.0150 -0.0133  0.2733
   40POPC   C3A  788   8.630   2.556   6.188 -0.0305 -0.0186  0.0607
   40POPC   C4A  789   8.732   2.368   5.767 -0.3483 -0.2195 -0.0633
   40POPC   C1B  790   8.699   3.005   7.278  0.0205  0.0488 -0.0566
   40POPC   C2B  791   8.762   3.185   6.860 -0.0463 -0.2049  0.0104
   40POPC   C3B  792   8.948   3.539   6.530 -0.0903  0.0715  0.1746
   40POPC   C4B  793   9.016   3.769   6.191  0.0895 -0.1755 -0.3151
   41POPC   NC3  794   1.742   0.271   7.849  0.1487  0.1911 -0.0409
   41POPC   PO4  795   1.601   0.230   7.465  0.2974 -0.0098  0.2262
   41POPC   GL1  796   1.483   0.091   7.119  0.0943  0.1287 -0.0476
   41POPC   GL2  797   1.565   0.359   6.913  0.0049 -0.1014 -0.1534
   41POPC   C1A  798   1.378  -0.088   6.695  0.0774  0.1162 -0.0911
   41POPC   D2A  799   1.123  -0.157   6.359 -0.1535  0.4096  0.1169
   41POPC   C3A  800   0.948   0.094   6.136 -0.0517  0.2602 -0.0022
   41POPC   C4A  801   0.746   0.300   5.922 -0.0339  0.2261 -0.1372
   41POPC   C1B  802   1.705   0.607   6.589 -0.4445  0.0836 -0.1737
   41POPC   C2B  803   1.977   0.769   6.408 -0.4582  0.2275  0.1194
   41POPC   C3B  804   2.065   0.872   5.914 -0.1208  0.0078  0.0290
   41POPC   C4B  805   2.021   1.172   5.553 -0.2211  0.0827  0.3810
   42POPC   NC3  806   1.422   6.892   8.079  0.0942  0.0246  0.1052
   42POPC   PO4  807   1.013   7.119   8.235  0.1778 -0.0477 -0.1254
   42POPC   GL1  808   0.957   7.028   7.842  0.0169 -0.3040  0.0157
   42POPC   GL2  809   0.661   6.824   7.677 -0.1833  0.2383 -0.0653
   42POPC   C1A  810   1.074   7.038   7.435  0.0399 -0.0808  0.0899
   42POPC   D2A  811   1.136   7.051   7.071 -0.1459 -0.0576 -0.4088
   42POPC   C3A  812   0.805   7.024   6.795 -0.1538  0.0480 -0.1082
   42POPC   C4A  813   0.767   6.927   6.358  0.2781  0.0536  0.1572
   42POPC   C1B  814   0.771   6.773   7.233  0.2287  0.3028 -0.3948
   42POPC   C2B  815   1.078   6.594   6.861 -0.0125  0.1844  0.1540
   42POPC   C3B  816   1.214   6.604   6.415  0.0338  0.0925  0.1613
   42POPC   C4B  817   1.076   6.713   6.027  0.0422 -0.3597 -0.2281
   43POPC   NC3  818   1.555   8.113   7.564  0.2683 -0.2688 -0.2537
   43POPC   PO4  819   1.418   7.770   7.717 -0.0014  0.1082 -0.1876
   43POPC   GL1  820   1.169   7.543   7.367  0.2342  0.0051  0.1058
   43POPC   GL2  821   0.817   7.749   7.423 -0.1558 -0.1453 -0.2943
   43POPC   C1A  822   1.031   7.537   7.055  0.0550  0.1499  0.2182
   43POPC   D2A  823   0.922   7.418   6.538  0.2034  0.1136 -0.2827
   43POPC   C3A  824   1.080   7.738   6.221 -0.1133 -0.0279  0.0076
   43POPC   C4A  825   1.323   7.619   5.875 -0.1104  0.1536  0.1683
   43POPC   C1B  826   0.610   7.742   6.949 -0.1148  0.0867  0.0033
   43POPC   C2B  827   0.373   7.500   6.694 -0.0092  0.0145  0.0169
   43POPC   C3B  828   0.431   7.266   6.414  0.0571  0.3453 -0.2264
   43POPC   C4B  829   0.266   7.059   6.149 -0.2395 -0.2772  0.0358
   44POPC   NC3  830   8.690   0.844   7.555 -0.2461  0.0198  0.0518
   44POPC   PO4  831   8.484   1.136   7.768 -0.1959  0.0408  0.0067
   44POPC   GL1  832   8.550   1.414   7.387 -0.1186  0.1255  0.2807
   44POPC   GL2  833   8.364   1.072   7.273  0.0465 -0.3073 -0.2759
   44POPC   C1A  834   8.768   1.361   7.039  0.1110 -0.1282 -0.0848
   44POPC   D2A  835   8.976   1.459   6.605  0.0003  0.0991  0.0903
   44POPC   C3A  836   8.957   1.764   6.360  0.1171 -0.1374 -0.0479
   44POPC   C4A  837   8.923   2.050   6.164 -0.3690 -0.0707 -0.3153
   44POPC   C1B  838   8.563   0.898   6.905  0.2363  0.1750  0.0288
   44POPC   C2B  839   8.559   0.656   6.419  0.1914  0.0491 -0.0822
   44POPC   C3B  840   8.537   0.221   6.203  0.2704 -0.0393  0.0164
   44POPC   C4B  841   8.849  -0.018   6.088 -0.2488 -0.3217  0.1961
   45POPC   NC3  842   3.465   1.477   8.307  0.2392  0.2861 -0.0456
   45POPC   PO4  843   3.504   1.567   7.882  0.1278 -0.1323 -0.2314
   45POPC   GL1  844   3.509   1.837   7.648 -0.2615  0.2032 -0.1393
   45POPC   GL2  845   3.795   2.059   7.524  0.2101 -0.0608 -0.2334
   45POPC   C1A  846   3.242   2.198   7.497 -0.0384  0.1188  0.0681
   45POPC   D2A  847   2.829   2.175   7.473 -0.8257 -0.2830  0.0663
   45POPC   C3A  848   2.745   2.011   7.116  0.2112  0.0035  0.0784
   45POPC   C4A  849   2.460   1.755   6.941  0.2231  0.0704 -0.3796
   45POPC   C1B  850   3.666   1.950   7.188  0.2055  0.1038  0.0739
   45POPC   C2B  851   3.847   1.993   6.724  0.0271  0.1667 -0.2791
   45POPC   C3B  852   3.864   2.249   6.291  0.0347 -0.3832 -0.0882
   45POPC   C4B  853   3.984   2.604   5.970 -0.0715  0.1615 -0.1414
   46POPC   NC3  854   7.311   4.882   8.010 -0.0287 -0.1328 -0.2687
   46POPC   PO4  855   7.698   5.184   7.712 -0.1879  0.0615  0.3585
   46POPC   GL1  856   7.951   5.311   7.402  0.4730 -0.1400 -0.1359
   46POPC   GL2  857   8.183   5.459   7.435 -0.2841 -0.2092 -0.3664
   46POPC   C1A  858   7.707   5.514   6.952  0.1147  0.0232  0.1123
   46POPC   D2A  859   7.559   5.443   6.450  0.1736 -0.1091  0.3574
   46POPC   C3A  860   7.252   5.089   6.375  0.1313  0.0679 -0.0184
   46POPC   C4A  861   7.014   5.028   6.020 -0.0309  0.2159  0.2850
   46POPC   C1B  862   8.232   5.662   6.953  0.4565  0.1726  0.2550
   46POPC   C2B  863   8.504   5.532   6.595 -0.0822  0.0052  0.0945
   46POPC   C3B  864   8.788   5.345   6.239 -0.1140 -0.1677 -0.0579
   46POPC   C4B  865   9.213   5.225   6.320 -0.0504 -0.1406  0.1696
   47POPC   NC3  866  10.522   9.853   7.429 -0.0654  0.3310  0.0333
   47POPC   PO4  867  10.382   9.446   7.438  0.0458  0.4357  0.0370
   47POPC   GL1  868  10.356   9.521   6.953 -0.1030  0.0051 -0.0771
   47POPC   GL2  869  10.668   9.574   6.921  0.4921  0.0358 -0.0050
   47POPC   C1A  870  10.156   9.621   6.498  0.3235 -0.0168 -0.1822
   47POPC   D2A  871   9.975   9.880   6.267  0.0181 -0.4698 -0.1932
   47POPC   C3A  872  10.113  10.223   6.197  0.2202  0.0054 -0.1982
   47POPC   C4A  873  10.166  10.647   6.278  0.0900  0.1060  0.2839
   47POPC   C1B  874  10.716   9.660   6.446  0.1096 -0.1519 -0.0119
   47POPC   C2B  875  10.467   9.704   6.087 -0.0667 -0.0395 -0.0695
   47POPC   C3B  876  10.055   9.591   5.906  0.3726  0.1123  0.2515
   47POPC   C4B  877  10.063   9.217   5.812  0.5966 -0.2178 -0.1881
   48POPC   NC3  878   5.108   0.581   7.807  0.0636  0.0149  0.2914
   48POPC   PO4  879   4.728   0.375   7.805 -0.0522 -0.3897  0.0020
   48POPC   GL1  880   4.752   0.632   7.453 -0.1864  0.1774 -0.3777
   48POPC   GL2  881   4.945   0.521   7.214 -0.1865 -0.1280  0.0941
   48POPC   C1A  882   4.450   0.731   7.160 -0.5631 -0.0538 -0.0766
   48POPC   D2A  883   4.413   0.366   6.844 -0.1645  0.0699  0.2316
   48POPC   C3A  884   4.103   0.084   6.774  0.4074  0.1155 -0.0255
   48POPC   C4A  885   3.672   0.268   6.747 -0.0245 -0.1369  0.0534
   48POPC   C1B  886   4.841   0.675   6.841  0.3270 -0.1175  0.2265
   48POPC   C2B  887   4.399   0.866   6.724  0.0501 -0.2632 -0.1198
   48POPC   C3B  888   4.073   1.043   6.408 -0.0963  0.0636 -0.0241
   48POPC   C4B  889   3.775   1.329   6.387  0.0416 -0.1034 -0.1021
   49POPC   NC3  890   2.378   1.025   8.301  0.1327  0.2971 -0.0142
   49POPC   PO4  891   2.463   1.346   7.985  0.1508 -0.1645  0.0295
   49POPC   GL1  892   2.592   1.385   7.622  0.0786  0.0260 -0.0686
   49POPC   GL2  893   2.311   1.345   7.323 -0.2379  0.0859  0.2865
   49POPC   C1A  894   2.771   1.510   7.207 -0.0124  0.0305  0.2896
   49POPC   D2A  895   3.133   1.383   6.966 -0.3104  0.0948  0.3238
   49POPC   C3A  896   3.296   1.257   6.496  0.0278 -0.1288  0.2537
   49POPC   C4A  897   3.309   1.170   6.066  0.3086 -0.2377 -0.0993
   49POPC   C1B  898   2.225   1.388   6.781 -0.2369 -0.1250 -0.0456
   49POPC   C2B  899   2.402   1.595   6.381  0.0270 -0.3579 -0.0508
   49POPC   C3B  900   2.271   1.916   6.205 -0.0335 -0.0457  0.3884
   49POPC   C4B  901   2.257   2.117   5.822  0.2252 -0.1431 -0.0761
   50POPC   NC3  902   4.962   6.970   7.813 -0.5957 -0.2958 -0.0042
   50POPC   PO4  903   4.955   6.551   7.580 -0.0548  0.2405 -0.2460
   50POPC   GL1  904   5.079   6.605   7.169 -0.1128 -0.2588 -0.1516
   50POPC   GL2  905   5.394   6.480   7.216 -0.0608  0.0860  0.0886
   50POPC   C1A  906   4.961   6.711   6.781  0.1474 -0.1274  0.1326
   50POPC   D2A  907   4.593   6.492   6.564  0.3563 -0.1909 -0.1584
   50POPC   C3A  908   4.479   6.555   6.080  0.3769  0.1934 -0.0947
   50POPC   C4A  909   4.602   6.359   5.767 -0.2477 -0.0820  0.5504
   50POPC   C1B  910   5.478   6.274   6.809  0.1249 -0.1032 -0.0104
   50POPC   C2B  911   5.640   5.993   6.545 -0.2052 -0.0152  0.2842
   50POPC   C3B  912   5.933   5.584   6.498  0.1151 -0.0026 -0.2298
   50POPC   C4B  913   6.321   5.494   6.190 -0.0487 -0.4024  0.1000
   51POPC   NC3  914   1.121   1.093   7.634 -0.1908  0.3006 -0.0028
   51POPC   PO4  915   1.163   1.534   7.593  0.0494  0.2296 -0.0362
   51POPC   GL1  916   1.134   1.610   7.178  0.0429 -0.1436 -0.0054
   51POPC   GL2  917   1.088   1.946   7.223 -0.2015 -0.1419 -0.0599
   51POPC   C1A  918   1.144   1.652   6.760  0.2740  0.3355 -0.0472
   51POPC   D2A  919   1.088   1.764   6.390  0.2313 -0.2257 -0.1669
   51POPC   C3A  920   1.235   2.003   6.056 -0.0676 -0.0625  0.1788
   51POPC   C4A  921   1.127   2.097   5.591 -0.3381 -0.1329  0.1910
   51POPC   C1B  922   1.388   2.063   7.026  0.0098  0.4303  0.0850
   51POPC   C2B  923   1.697   2.340   6.981 -0.0041 -0.1021 -0.1246
   51POPC   C3B  924   1.992   2.505   6.737  0.0632 -0.0396 -0.0084
   51POPC   C4B  925   2.151   2.366   6.325 -0.1968  0.1805  0.2084
   52POPC   NC3  926   3.430   4.095   8.552  0.0032 -0.0090  0.2554
   52POPC   PO4  927   3.537   4.180   8.059  0.0774 -0.0015  0.0186
   52POPC   GL1  928   3.505   4.137   7.637  0.1148  0.1588  0.1760
   52POPC   GL2  929   3.844   4.100   7.497 -0.0018 -0.1239  0.3552
   52POPC   C1A  930   3.426   4.179   7.252 -0.0646 -0.0812  0.0346
   52POPC   D2A  931   3.544   4.220   6.883 -0.0373  0.1205  0.0933
   52POPC   C3A  932   3.230   4.265   6.556 -0.4968 -0.0933 -0.0925
   52POPC   C4A  933   3.116   4.424   6.184 -0.2144  0.2585 -0.1050
   52POPC   C1B  934   3.858   3.855   7.171  0.1653  0.2153 -0.1553
   52POPC   C2B  935   3.982   3.648   6.807 -0.2279  0.0286 -0.1970
   52POPC   C3B  936   4.120   3.718   6.410  0.1924  0.0490 -0.0925
   52POPC   C4B  937   4.281   3.545   6.028 -0.1466 -0.1034  0.4328
   53POPC   NC3  938   7.628   0.283   7.380 -0.1438  0.1343  0.2130
   53POPC   PO4  939   7.236   0.425   7.245  0.3982 -0.2461 -0.1954
   53POPC   GL1  940   7.057   0.263   6.859 -0.1453  0.1442 -0.0773
   53POPC   GL2  941   7.173  -0.020   6.835 -0.0959  0.0765  0.0418
   53POPC   C1A  942   7.193   0.535   6.449  0.0653  0.0502 -0.1092
   53POPC   D2A  943   7.141   0.922   6.255  0.1757  0.3333 -0.1349
   53POPC   C3A  944   6.711   1.097   5.960  0.0091  0.3271  0.2515
   53POPC   C4A  945   6.537   1.458   5.981  0.1647 -0.1119  0.1592
   53POPC   C1B  946   7.411  -0.008   6.544  0.1496 -0.0572 -0.1339
   53POPC   C2B  947   7.637  -0.357   6.331  0.1326 -0.0452 -0.0878
   53POPC   C3B  948   7.910  -0.592   6.135 -0.1224 -0.1735  0.0732
   53POPC   C4B  949   8.228  -0.925   6.012 -0.0931  0.1086 -0.0565
   54POPC   NC3  950   1.103   2.076   7.739 -0.1000 -0.1223  0.0472
   54POPC   PO4  951   1.265   2.475   8.051 -0.0033 -0.0504 -0.0031
   54POPC   GL1  952   1.368   2.633   7.659 -0.0013  0.0506  0.3224
   54POPC   GL2  953   1.642   2.379   7.433  0.1333  0.1055 -0.1602
   54POPC   C1A  954   1.533   2.904   7.268  0.0183  0.0641  0.4051
   54POPC   D2A  955   1.457   2.847   6.886  0.0422  0.1128 -0.0001
   54POPC   C3A  956   1.455   2.631   6.582  0.0918  0.2294 -0.2259
   54POPC   C4A  957   1.633   2.349   6.406 -0.0877  0.0748  0.1031
   54POPC   C1B  958   1.233   2.471   7.243 -0.1144  0.0733 -0.0379
   54POPC   C2B  959   1.029   2.734   6.984  0.0886 -0.0110 -0.0868
   54POPC   C3B  960   0.609   2.969   6.727  0.0030  0.2356  0.1213
   54POPC   C4B  961   0.360   3.233   6.523 -0.1504  0.1722 -0.5038
   55POPC   NC3  962   0.191   8.293   7.927 -0.1890 -0.0470 -0.2030
   55POPC   PO4  963   0.038   8.210   7.480 -0.1474  0.0848  0.0683
   55POPC   GL1  964   0.167   7.950   7.300 -0.1003  0.0086  0.0145
   55POPC   GL2  965   0.289   7.749   7.447 -0.0416  0.0387  0.0924
   55POPC   C1A  966   0.154   7.988   6.859  0.2124 -0.1136  0.0375
   55POPC   D2A  967   0.261   8.162   6.460  0.4008 -0.0032  0.1902
   55POPC   C3A  968   0.134   8.091   6.012  0.0223  0.0947 -0.0073
   55POPC   C4A  969   0.149   8.457   5.712 -0.0938  0.3223  0.0250
   55POPC   C1B  970   0.138   7.434   7.146 -0.1161 -0.0583  0.1248
   55POPC   C2B  971  -0.038   7.249   6.672 -0.1638  0.3262  0.0233
   55POPC   C3B  972  -0.144   6.930   6.313  0.0023  0.1010  0.0560
   55POPC   C4B  973  -0.084   6.578   5.974  0.0350  0.1559  0.0437
   56POPC   NC3  974   5.960   1.856   8.318 -0.3255  0.1019  0.2217
   56POPC   PO4  975   5.669   1.801   7.934 -0.1121  0.0822  0.0421
   56POPC   GL1  976   5.474   1.594   7.712 -0.4621 -0.1770  0.2132
   56POPC   GL2  977   5.206   1.523   7.784 -0.0604 -0.4039 -0.2236
   56POPC   C1A  978   5.532   1.460   7.285  0.1662 -0.1546  0.3127
   56POPC   D2A  979   5.548   1.259   6.932  0.3317 -0.0715 -0.0596
   56POPC   C3A  980   5.803   1.210   6.603 -0.0098 -0.1553 -0.1706
   56POPC   C4A  981   5.900   0.990   6.387  0.2337  0.3518  0.1002
   56POPC   C1B  982   4.969   1.536   7.372  0.0491 -0.3156 -0.1541
   56POPC   C2B  983   5.006   1.708   7.007 -0.2309 -0.2547 -0.0131
   56POPC   C3B  984   5.328   1.967   7.039  0.0630  0.0549  0.0023
   56POPC   C4B  985   5.398   2.432   7.161  0.0445  0.1149 -0.0065
   57POPC   NC3  986   3.374   6.861   7.952 -0.1193  0.0695  0.0239
   57POPC   PO4  987   3.343   6.406   7.961  0.1357 -0.1169 -0.1392
   57POPC   GL1  988   3.118   6.623   7.630 -0.3032  0.1995 -0.1115
   57POPC   GL2  989   2.864   6.819   7.585  0.1173  0.1809 -0.1660
   57POPC   C1A  990   3.313   6.686   7.185  0.2545  0.2671 -0.1024
   57POPC   D2A  991   3.404   7.037   6.950 -0.0043 -0.1036  0.2581
   57POPC   C3A  992   3.298   6.949   6.512 -0.1730  0.3026  0.0008
   57POPC   C4A  993   3.186   6.853   6.165 -0.1849 -0.4366 -0.0506
   57POPC   C1B  994   2.920   6.955   7.148 -0.3281 -0.1209 -0.0444
   57POPC   C2B  995   2.906   7.243   6.704 -0.1049 -0.1612 -0.0473
   57POPC   C3B  996   3.048   7.353   6.334 -0.2308  0.0258  0.3052
   57POPC   C4B  997   3.228   7.334   6.038  0.1105 -0.1234  0.1765
   58POPC   NC3  998   3.406   9.492   7.905 -0.3651  0.0438 -0.1470
   58POPC   PO4  999   3.074   9.187   7.839  0.1794 -0.0154  0.4027
   58POPC   GL1 1000   2.971   9.143   7.449  0.1869 -0.0041  0.2568
   58POPC   GL2 1001   2.802   8.904   7.387  0.1094  0.0218 -0.1904
   58POPC   C1A 1002   2.778   9.412   7.039  0.2780  0.2856  0.0026
   58POPC   D2A 1003   2.481   9.492   6.700 -0.1777 -0.0440 -0.0841
   58POPC   C3A 1004   2.542   9.656   6.288 -0.3492  0.1886  0.1981
   58POPC   C4A 1005   2.556   9.897   5.943  0.2712 -0.0286 -0.0476
   58POPC   C1B 1006   2.964   8.703   6.960  0.2324  0.3101  0.1880
   58POPC   C2B 1007   2.974   8.351   6.641  0.2383  0.0662  0.0996
   58POPC   C3B 1008   2.778   8.229   6.196 -0.0988 -0.1657 -0.1048
   58POPC   C4B 1009   2.734   8.050   5.791 -0.0804  0.0374 -0.1248
   59POPC   NC3 1010   8.626   4.310   8.291  0.1195 -0.1865  0.1512
   59POPC   PO4 1011   8.366   4.491   7.948 -0.0909  0.2742 -0.1540
   59POPC   GL1 1012   8.460   4.657   7.479  0.2326  0.1462  0.0418
   59POPC   GL2 1013   8.238   4.829   7.352  0.0293 -0.0167 -0.2264
   59POPC   C1A 1014   8.633   4.910   7.039 -0.1061  0.2119  0.1516
   59POPC   D2A 1015   8.578   4.945   6.537 -0.1171 -0.0267  0.1180
   59POPC   C3A 1016   8.126   4.876   6.417 -0.1658  0.1617  0.0307
   59POPC   C4A 1017   7.767   5.024   6.181 -0.1413 -0.4638  0.1852
   59POPC   C1B 1018   8.121   5.077   6.948  0.0515 -0.1354  0.0957
   59POPC   C2B 1019   7.988   5.412   6.581  0.1088 -0.0342  0.1127
   59POPC   C3B 1020   8.214   5.631   6.195  0.0321  0.1891  0.2815
   59POPC   C4B 1021   8.206   5.872   5.820 -0.1529 -0.3703  0.0543
   60POPC   NC3 1022   6.572   7.037   7.409 -0.0319  0.0241 -0.0951
   60POPC   PO4 1023   6.249   7.300   7.355  0.0658 -0.2099 -0.0460
   60POPC   GL1 1024   6.156   7.497   6.966  0.0917  0.0309 -0.1853
   60POPC   GL2 1025   5.810   7.615   6.967  0.0468 -0.0443  0.1784
   60POPC   C1A 1026   6.120   7.396   6.610 -0.1680  0.1094 -0.1325
   60POPC   D2A 1027   6.173   7.331   6.269 -0.2608  0.0607  0.0189
   60POPC   C3A 1028   5.910   7.498   5.984 -0.0497 -0.1749  0.0387
   60POPC   C4A 1029   5.450   7.544   5.839 -0.2261 -0.1267 -0.1174
   60POPC   C1B 1030   5.827   7.766   6.621 -0.3136  0.3597 -0.1093
   60POPC   C2B 1031   5.724   7.868   6.208 -0.2862  0.3792  0.1645
   60POPC   C3B 1032   5.865   8.138   5.901 -0.0534 -0.0609  0.0554
   60POPC   C4B 1033   6.219   8.307   5.708  0.1249 -0.0353  0.4317
   61POPC   NC3 1034   1.655   5.198   8.274 -0.0168  0.2587 -0.0814
   61POPC   PO4 1035   2.105   5.128   8.195 -0.1322 -0.2987  0.0824
   61POPC   GL1 1036   1.918   5.214   7.851 -0.2020 -0.1086  0.1671
   61POPC   GL2 1037   2.117   5.358   7.656 -0.2392 -0.1904 -0.0519
   61POPC   C1A 1038   1.601   5.315   7.665 -0.0369  0.1712  0.0864
   61POPC   D2A 1039   1.186   5.655   7.612  0.0781  0.0590  0.0846
   61POPC   C3A 1040   1.202   6.163   7.574  0.2143 -0.0474  0.2963
   61POPC   C4A 1041   1.192   6.523   7.369 -0.0129  0.1985  0.1348
   61POPC   C1B 1042   2.161   4.902   7.564  0.0117 -0.5613  0.2026
   61POPC   C2B 1043   1.925   4.569   7.343 -0.1807  0.0998  0.4355
   61POPC   C3B 1044   1.533   4.295   7.395 -0.1312  0.2586  0.0027
   61POPC   C4B 1045   1.182   4.207   7.359 -0.0656 -0.1823 -0.0828
   62POPC   NC3 1046   5.402   3.918   8.245  0.1713 -0.1381 -0.0406
   62POPC   PO4 1047   5.286   3.697   7.769 -0.0965 -0.1393  0.3115
   62POPC   GL1 1048   5.243   3.598   7.349  0.2747  0.1461  0.0703
   62POPC   GL2 1049   5.182   3.433   7.149  0.0250 -0.2127 -0.0956
   62POPC   C1A 1050   5.594   3.712   6.996  0.0756 -0.1516  0.2226
   62POPC   D2A 1051   5.733   3.936   6.661  0.4400  0.0518  0.0367
   62POPC   C3A 1052   5.519   4.154   6.331 -0.0874 -0.0006 -0.0415
   62POPC   C4A 1053   5.323   3.935   6.010  0.2069 -0.3205 -0.1044
   62POPC   C1B 1054   5.162   3.376   6.828  0.4001  0.0358  0.0026
   62POPC   C2B 1055   5.172   3.137   6.390  0.0940 -0.0950  0.1405
   62POPC   C3B 1056   4.814   2.928   6.083  0.2470 -0.1995  0.0250
   62POPC   C4B 1057   4.348   2.928   6.155  0.2124 -0.0309  0.2304
   63POPC   NC3 1058   6.568   1.226   7.836  0.1697 -0.1234 -0.1081
   63POPC   PO4 1059   6.669   0.910   7.620  0.2940  0.1153 -0.0273
   63POPC   GL1 1060   6.612   0.949   7.171  0.0073 -0.0823 -0.1071
   63POPC   GL2 1061   6.564   0.674   7.141 -0.3078 -0.1544 -0.0244
   63POPC   C1A 1062   6.699   1.022   6.864 -0.3910 -0.1047  0.0131
   63POPC   D2A 1063   6.833   1.228   6.513  0.3396 -0.1630 -0.0582
   63POPC   C3A 1064   7.091   1.419   6.488 -0.0554  0.3230  0.0381
   63POPC   C4A 1065   7.111   1.896   6.787 -0.5812 -0.0304 -0.3504
   63POPC   C1B 1066   6.523   0.285   6.940 -0.0761  0.0018 -0.0267
   63POPC   C2B 1067   6.352  -0.024   6.937  0.1368  0.2012  0.4306
   63POPC   C3B 1068   5.995  -0.169   6.847  0.0029  0.0349  0.4007
   63POPC   C4B 1069   5.545  -0.369   6.790  0.0004 -0.0531  0.1808
   64POPC   NC3 1070   2.685   7.136   7.984  0.1564 -0.1828 -0.3489
   64POPC   PO4 1071   3.043   7.270   7.838  0.0157  0.2643 -0.1642
   64POPC   GL1 1072   3.303   7.205   7.537  0.1779  0.0701  0.2171
   64POPC   GL2 1073   3.134   7.382   7.329  0.1480  0.1349 -0.0232
   64POPC   C1A 1074   3.664   7.384   7.257 -0.4035  0.1608  0.2877
   64POPC   D2A 1075   3.701   7.784   7.030  0.1316  0.1245 -0.0955
   64POPC   C3A 1076   4.129   7.971   7.016  0.0264 -0.0224  0.0495
   64POPC   C4A 1077   4.587   7.927   7.138  0.0878  0.2137  0.0526
   64POPC   C1B 1078   3.254   7.516   6.904  0.0627 -0.1642 -0.1633
   64POPC   C2B 1079   3.460   7.447   6.471 -0.2037  0.1240  0.1328
   64POPC   C3B 1080   3.683   7.645   6.165 -0.1275  0.0105  0.0673
   64POPC   C4B 1081   3.681   8.034   6.052 -0.1806 -0.1518  0.1107
   65POPC   NC3 1082   6.491   2.039   7.549  0.0457 -0.0012 -0.1788
   65POPC   PO4 1083   6.572   2.434   7.913  0.1982  0.0364 -0.1047
   65POPC   GL1 1084   6.742   2.561   7.477  0.0060 -0.1296 -0.0200
   65POPC   GL2 1085   7.016   2.372   7.243  0.0989 -0.1520 -0.0119
   65POPC   C1A 1086   6.841   2.839   7.138  0.0638 -0.1812 -0.0713
   65POPC   D2A 1087   7.093   2.734   6.830  0.2247  0.1205  0.2670
   65POPC   C3A 1088   7.086   2.892   6.377 -0.0486  0.1046  0.0088
   65POPC   C4A 1089   7.030   3.176   6.052  0.0418  0.2301  0.3380
   65POPC   C1B 1090   6.817   2.338   6.845 -0.2417 -0.1286 -0.2562
   65POPC   C2B 1091   6.490   2.473   6.549  0.1340 -0.3225 -0.1891
   65POPC   C3B 1092   6.315   2.294   6.215  0.0633 -0.1663 -0.2899
   65POPC   C4B 1093   6.431   1.922   6.031  0.3384  0.3578  0.0299
   66POPC   NC3 1094   1.781   2.429   7.955 -0.0358  0.0643 -0.0098
   66POPC   PO4 1095   1.584   2.084   7.862  0.3379  0.0889 -0.1050
   66POPC   GL1 1096   1.947   2.083   7.655 -0.0433  0.3805  0.1961
   66POPC   GL2 1097   2.108   2.331   7.525  0.2339 -0.1773 -0.0310
   66POPC   C1A 1098   1.969   1.933   7.118 -0.0982 -0.0343  0.1478
   66POPC   D2A 1099   1.932   1.951   6.659 -0.1183  0.1408  0.1178
   66POPC   C3A 1100   1.540   1.956   6.580  0.0310  0.1274  0.0116
   66POPC   C4A 1101   1.129   2.249   6.511  0.0157 -0.0905 -0.1090
   66POPC   C1B 1102   2.099   2.595   7.237  0.4403 -0.0315 -0.1622
   66POPC   C2B 1103   1.956   2.920   6.932 -0.0407 -0.0418  0.0856
   66POPC   C3B 1104   1.852   3.039   6.589  0.2012  0.1707 -0.1187
   66POPC   C4B 1105   1.858   2.797   6.214 -0.1010  0.1307 -0.2466
   67POPC   NC3 1106   5.390   5.553   7.559  0.5850  0.1252 -0.1369
   67POPC   PO4 1107   5.636   5.239   7.469  0.0043  0.1068  0.0080
   67POPC   GL1 1108   5.659   4.995   7.114  0.0623  0.1034  0.0072
   67POPC   GL2 1109   5.393   4.834   7.075  0.3491  0.3183  0.0404
   67POPC   C1A 1110   5.541   5.140   6.680 -0.1062  0.0391 -0.1295
   67POPC   D2A 1111   5.459   5.401   6.342 -0.0108 -0.2855  0.0624
   67POPC   C3A 1112   5.393   5.801   6.173  0.2272  0.0452  0.0656
   67POPC   C4A 1113   5.387   6.101   5.765 -0.1891 -0.0128 -0.0686
   67POPC   C1B 1114   4.976   4.678   6.877  0.1721 -0.0918  0.1050
   67POPC   C2B 1115   4.642   4.828   6.595 -0.0750 -0.0181  0.1432
   67POPC   C3B 1116   4.457   5.162   6.495 -0.1673 -0.1555 -0.0697
   67POPC   C4B 1117   4.308   5.309   6.232  0.0389 -0.1569  0.1008
   68POPC   NC3 1118   8.916   7.380   8.402 -0.5228 -0.1315 -0.0952
   68POPC   PO4 1119   9.003   7.396   7.943  0.1798  0.2047  0.3482
   68POPC   GL1 1120   9.074   7.363   7.524  0.1419 -0.2053  0.0377
   68POPC   GL2 1121   9.379   7.456   7.345  0.1219  0.0337 -0.0890
   68POPC   C1A 1122   8.788   7.348   7.073 -0.0315 -0.2411 -0.2459
   68POPC   D2A 1123   8.650   7.152   6.594 -0.1004 -0.0709 -0.1131
   68POPC   C3A 1124   8.457   7.337   6.278 -0.1642 -0.0051 -0.2066
   68POPC   C4A 1125   8.415   7.639   6.003 -0.1446 -0.0903  0.2682
   68POPC   C1B 1126   9.733   7.294   7.050  0.0003 -0.3872  0.2056
   68POPC   C2B 1127  10.025   7.370   6.631 -0.0968 -0.0379  0.0081
   68POPC   C3B 1128  10.111   7.452   6.250  0.0292  0.1742  0.1293
   68POPC   C4B 1129  10.459   7.293   5.960 -0.2861 -0.2477  0.0723
   69POPC   NC3 1130   2.799  10.587   7.908  0.0918 -0.0394  0.2641
   69POPC   PO4 1131   2.627  10.155   7.861 -0.0976  0.1038 -0.3766
   69POPC   GL1 1132   2.561   9.980   7.409 -0.2023 -0.0808 -0.0345
   69POPC   GL2 1133   2.161  10.037   7.159  0.0997 -0.0059 -0.0321
   69POPC   C1A 1134   2.649   9.871   6.941  0.0051 -0.0558  0.2793
   69POPC   D2A 1135   2.854   9.859   6.627 -0.1884 -0.0780  0.1953
   69POPC   C3A 1136   2.837  10.093   6.308 -0.1016 -0.4002  0.4721
   69POPC   C4A 1137   3.050  10.021   5.873  0.1007  0.0456 -0.2190
   69POPC   C1B 1138   2.129   9.883   6.865 -0.0358  0.1446 -0.1502
   69POPC   C2B 1139   2.256  10.099   6.475  0.0641  0.0120  0.2726
   69POPC   C3B 1140   2.479  10.472   6.291  0.1253 -0.0324  0.1864
   69POPC   C4B 1141   2.852  10.510   6.069 -0.1141 -0.1147 -0.1293
   70POPC   NC3 1142   2.609   5.245   7.908 -0.4261 -0.2204  0.0298
   70POPC   PO4 1143   3.075   5.406   7.937  0.0205 -0.2685  0.1433
   70POPC   GL1 1144   3.031   5.444   7.494 -0.2079 -0.3560 -0.2635
   70POPC   GL2 1145   3.289   5.598   7.436  0.0682 -0.1237  0.0736
   70POPC   C1A 1146   2.800   5.485   7.167  0.0222 -0.0787 -0.1870
   70POPC   D2A 1147   2.344   5.497   7.206  0.1948 -0.2226 -0.0352
   70POPC   C3A 1148   2.181   5.473   6.743  0.1278  0.0690 -0.1962
   70POPC   C4A 1149   2.112   5.443   6.313  0.1962  0.0141  0.0237
   70POPC   C1B 1150   3.226   5.712   7.025 -0.1019  0.0179  0.1760
   70POPC   C2B 1151   2.982   5.561   6.695 -0.2110 -0.1809  0.0533
   70POPC   C3B 1152   2.639   5.579   6.537  0.1715  0.4474 -0.1628
   70POPC   C4B 1153   2.637   5.241   6.341 -0.2049 -0.0391 -0.3127
   71POPC   NC3 1154   7.683   8.480   7.681 -0.0688  0.0360 -0.0095
   71POPC   PO4 1155   7.447   8.072   7.531  0.2318 -0.0627  0.0728
   71POPC   GL1 1156   7.365   7.900   7.094 -0.0397  0.1006 -0.0122
   71POPC   GL2 1157   7.046   7.991   7.186 -0.1727 -0.0113  0.1126
   71POPC   C1A 1158   7.382   7.702   6.690 -0.0191 -0.4324  0.2288
   71POPC   D2A 1159   7.472   7.618   6.145  0.0438 -0.2522 -0.3492
   71POPC   C3A 1160   7.712   7.784   6.003 -0.1584  0.0621 -0.1957
   71POPC   C4A 1161   7.933   8.034   5.659 -0.0844  0.0049 -0.2476
   71POPC   C1B 1162   6.875   7.840   6.715 -0.0998 -0.2763 -0.0700
   71POPC   C2B 1163   7.028   7.493   6.449 -0.1738 -0.0043  0.1871
   71POPC   C3B 1164   6.878   7.182   6.272  0.0440 -0.1650 -0.0296
   71POPC   C4B 1165   6.990   6.818   6.330 -0.2811  0.3352 -0.0443
   72POPC   NC3 1166   4.471   4.017   7.770  0.1601  0.1932 -0.1222
   72POPC   PO4 1167   4.259   3.619   7.785 -0.1462 -0.2304 -0.1195
   72POPC   GL1 1168   4.267   3.357   7.355  0.0118  0.0416  0.1332
   72POPC   GL2 1169   4.307   3.663   7.291 -0.0933 -0.1381 -0.2531
   72POPC   C1A 1170   4.495   3.082   7.078  0.0575  0.1251 -0.2782
   72POPC   D2A 1171   4.689   3.339   6.763  0.0925 -0.4493  0.1095
   72POPC   C3A 1172   4.570   3.323   6.350 -0.0983 -0.1239  0.0638
   72POPC   C4A 1173   4.781   3.558   5.983 -0.2880 -0.0601  0.1634
   72POPC   C1B 1174   4.452   3.854   6.955  0.0763  0.1681 -0.5204
   72POPC   C2B 1175   4.592   3.923   6.564  0.1902 -0.2513 -0.1258
   72POPC   C3B 1176   4.350   4.039   6.132 -0.1344 -0.3662 -0.3857
   72POPC   C4B 1177   4.019   3.997   5.918 -0.2305  0.1360  0.1440
   73POPC   NC3 1178   8.685   3.243   8.713  0.0152 -0.0676 -0.0253
   73POPC   PO4 1179   8.791   3.354   8.254 -0.1107 -0.0052 -0.0986
   73POPC   GL1 1180   8.689   3.472   7.778  0.1480 -0.1107  0.1454
   73POPC   GL2 1181   8.886   3.735   7.611 -0.2652 -0.1162  0.1358
   73POPC   C1A 1182   8.487   3.454   7.358  0.1389 -0.2151 -0.0124
   73POPC   D2A 1183   8.114   3.770   7.176 -0.0010 -0.0536  0.2414
   73POPC   C3A 1184   7.933   3.646   6.884  0.0681  0.0136  0.2440
   73POPC   C4A 1185   7.865   3.451   6.492 -0.0492  0.1309  0.0783
   73POPC   C1B 1186   9.106   3.465   7.378  0.0925 -0.1637 -0.0483
   73POPC   C2B 1187   9.242   3.386   6.940  0.1453  0.0393  0.0690
   73POPC   C3B 1188   9.250   3.166   6.558  0.2890 -0.0190  0.0000
   73POPC   C4B 1189   9.425   2.988   6.206  0.0415  0.1215 -0.0728
   74POPC   NC3 1190   3.801   1.181   7.761  0.0786  0.0731  0.1611
   74POPC   PO4 1191   3.550   0.723   7.637 -0.3263 -0.1665 -0.1561
   74POPC   GL1 1192   3.461   1.095   7.388  0.1512  0.0176 -0.0170
   74POPC   GL2 1193   3.552   1.428   7.361  0.0519  0.1316  0.1046
   74POPC   C1A 1194   3.591   1.257   6.929  0.2090  0.2540  0.2505
   74POPC   D2A 1195   3.473   1.680   6.696  0.1046 -0.3967  0.0783
   74POPC   C3A 1196   3.339   1.797   6.214 -0.2238 -0.1214  0.1714
   74POPC   C4A 1197   3.075   1.579   5.852 -0.1308  0.1258 -0.0133
   74POPC   C1B 1198   3.194   1.794   7.170 -0.4030 -0.0548  0.0602
   74POPC   C2B 1199   3.259   2.197   6.935  0.0546 -0.0087 -0.0055
   74POPC   C3B 1200   3.665   2.445   6.818  0.0381 -0.1947 -0.0651
   74POPC   C4B 1201   4.135   2.403   6.702  0.2289 -0.4193 -0.1173
   75POPC   NC3 1202   1.275   9.963   7.487  0.0988 -0.0639 -0.2360
   75POPC   PO4 1203   1.206   9.577   7.537 -0.1151 -0.1025  0.0456
   75POPC   GL1 1204   1.300   9.472   7.215  0.0930 -0.1089 -0.0060
   75POPC   GL2 1205   1.173   9.749   7.055  0.0742 -0.1138  0.0693
   75POPC   C1A 1206   1.403   9.236   6.819 -0.0415 -0.0637 -0.2698
   75POPC   D2A 1207   1.582   9.333   6.437 -0.1077 -0.2499  0.2698
   75POPC   C3A 1208   1.866   9.069   6.120 -0.0371  0.2690 -0.2663
   75POPC   C4A 1209   2.061   8.771   6.233 -0.1369 -0.3770 -0.0948
   75POPC   C1B 1210   1.117   9.593   6.615  0.5696 -0.0032 -0.0114
   75POPC   C2B 1211   1.231   9.603   6.158 -0.0736 -0.0241 -0.1755
   75POPC   C3B 1212   1.630   9.574   5.998 -0.0766 -0.0688  0.0428
   75POPC   C4B 1213   2.117   9.568   6.041 -0.3565 -0.1256  0.0444
   76POPC   NC3 1214   5.772   7.208   7.450 -0.1708  0.0998  0.0968
   76POPC   PO4 1215   5.341   6.965   7.488  0.1252  0.0856 -0.0719
   76POPC   GL1 1216   5.411   6.984   7.103 -0.2364  0.0007  0.0022
   76POPC   GL2 1217   5.242   7.193   6.857  0.2533  0.2648 -0.0017
   76POPC   C1A 1218   5.508   6.762   6.713  0.1484  0.1421  0.0734
   76POPC   D2A 1219   5.501   6.551   6.327 -0.2086 -0.0134 -0.0545
   76POPC   C3A 1220   5.414   6.726   5.819 -0.1550 -0.0900 -0.1740
   76POPC   C4A 1221   5.225   7.092   5.763 -0.2422 -0.0089  0.1642
   76POPC   C1B 1222   5.675   7.207   6.723 -0.2800 -0.0523 -0.0890
   76POPC   C2B 1223   5.913   6.902   6.513 -0.1082 -0.0094  0.2247
   76POPC   C3B 1224   5.991   6.811   6.086  0.2334  0.0071  0.0738
   76POPC   C4B 1225   6.220   6.781   5.714 -0.2749  0.2073 -0.0797
   77POPC   NC3 1226   7.508   2.898   7.972  0.2247 -0.0022  0.4435
   77POPC   PO4 1227   7.309   2.566   7.628  0.0125 -0.0778 -0.3000
   77POPC   GL1 1228   7.384   2.865   7.450 -0.1319 -0.1304  0.1281
   77POPC   GL2 1229   7.681   3.119   7.438 -0.0286 -0.1345 -0.1762
   77POPC   C1A 1230   7.309   3.117   7.103 -0.5838  0.0127  0.0552
   77POPC   D2A 1231   7.426   3.160   6.663 -0.2560  0.1854  0.2154
   77POPC   C3A 1232   7.740   2.851   6.510 -0.0489 -0.0444 -0.3388
   77POPC   C4A 1233   8.015   2.813   6.170 -0.0045 -0.1182 -0.1011
   77POPC   C1B 1234   7.844   3.185   7.090 -0.0387 -0.0879 -0.0096
   77POPC   C2B 1235   8.259   3.278   6.829 -0.0438 -0.0666 -0.1650
   77POPC   C3B 1236   8.409   3.169   6.333  0.4588  0.0390 -0.1811
   77POPC   C4B 1237   8.562   3.381   6.023  0.4130  0.2847  0.1902
   78POPC   NC3 1238   0.048   6.301   8.416  0.2374 -0.0511  0.1021
   78POPC   PO4 1239   0.049   6.766   8.374  0.0821 -0.1242 -0.0933
   78POPC   GL1 1240   0.066   6.664   7.948  0.2122 -0.2239  0.0528
   78POPC   GL2 1241  -0.258   6.566   7.992 -0.3352 -0.0982  0.1020
   78POPC   C1A 1242   0.342   6.380   7.603 -0.0124 -0.0544 -0.2412
   78POPC   D2A 1243   0.729   6.290   7.565 -0.1549 -0.3658  0.0103
   78POPC   C3A 1244   0.850   6.251   7.189  0.3499  0.1127  0.1675
   78POPC   C4A 1245   0.946   6.111   6.926  0.2866  0.3893 -0.1609
   78POPC   C1B 1246  -0.169   6.546   7.527  0.3967  0.0827 -0.1364
   78POPC   C2B 1247  -0.270   6.401   7.064  0.1023 -0.1152 -0.0582
   78POPC   C3B 1248  -0.441   6.093   6.772 -0.3126 -0.1840 -0.1017
   78POPC   C4B 1249  -0.559   5.662   6.698 -0.0098 -0.0298 -0.0282
   79POPC   NC3 1250   7.172   9.536   7.743  0.0193  0.2501  0.2094
   79POPC   PO4 1251   7.399   9.574   7.367  0.1467 -0.2162  0.1775
   79POPC   GL1 1252   7.327   9.209   7.075  0.1355  0.0010  0.0528
   79POPC   GL2 1253   7.097   9.093   7.124 -0.0631  0.2186  0.2811
   79POPC   C1A 1254   7.318   8.848   6.692 -0.1007 -0.1921  0.0467
   79POPC   D2A 1255   7.031   8.950   6.422  0.3783  0.2590  0.0009
   79POPC   C3A 1256   7.000   8.990   5.963 -0.0393 -0.1360  0.0560
   79POPC   C4A 1257   6.816   8.825   5.541  0.0598  0.0956 -0.0883
   79POPC   C1B 1258   6.789   8.830   6.818  0.0731  0.0677 -0.0226
   79POPC   C2B 1259   6.476   8.779   6.402 -0.1194  0.1950 -0.0431
   79POPC   C3B 1260   6.453   8.598   6.060 -0.0621  0.0693  0.0800
   79POPC   C4B 1261   6.843   8.355   5.844 -0.3926  0.2389  0.0172
   80POPC   NC3 1262   3.564   0.098   8.230  0.0515 -0.2941  0.2032
   80POPC   PO4 1263   3.287   0.139   7.898 -0.2183  0.0006  0.0771
   80POPC   GL1 1264   3.326   0.305   7.423  0.0946 -0.0334  0.2166
   80POPC   GL2 1265   3.170   0.615   7.308 -0.0157 -0.2522  0.1326
   80POPC   C1A 1266   3.247   0.314   6.954  0.1592  0.2301  0.0499
   80POPC   D2A 1267   3.181   0.278   6.571 -0.0691  0.2312 -0.1738
   80POPC   C3A 1268   3.403   0.303   6.264 -0.2719  0.0759 -0.0887
   80POPC   C4A 1269   3.252   0.505   5.922  0.2763  0.3274  0.0635
   80POPC   C1B 1270   3.220   0.843   6.958 -0.0900 -0.1549 -0.0170
   80POPC   C2B 1271   3.497   0.700   6.608  0.1791  0.0349  0.0230
   80POPC   C3B 1272   3.643   0.724   6.257  0.0043 -0.0357 -0.2881
   80POPC   C4B 1273   3.647   0.819   5.841 -0.5127 -0.1081 -0.1913
   81POPC   NC3 1274   1.751   8.721   7.624  0.1199 -0.1546  0.0586
   81POPC   PO4 1275   1.406   8.583   7.533  0.0703  0.0976 -0.1096
   81POPC   GL1 1276   1.531   8.462   7.125 -0.1107 -0.1802  0.0967
   81POPC   GL2 1277   1.914   8.509   7.115 -0.1950  0.1705  0.0198
   81POPC   C1A 1278   1.564   8.164   6.734  0.3624 -0.0707 -0.1907
   81POPC   D2A 1279   1.243   8.172   6.379 -0.0378 -0.1771 -0.0593
   81POPC   C3A 1280   1.119   8.548   6.230  0.3312  0.3165 -0.0153
   81POPC   C4A 1281   0.959   8.593   5.916  0.0014  0.0273 -0.0212
   81POPC   C1B 1282   1.988   8.396   6.644 -0.0496  0.1619  0.0686
   81POPC   C2B 1283   1.679   8.422   6.285  0.0422 -0.5232 -0.2594
   81POPC   C3B 1284   1.555   8.627   5.929 -0.2279 -0.1419  0.0482
   81POPC   C4B 1285   1.422   8.547   5.591  0.1334  0.2639 -0.0068
   82POPC   NC3 1286   9.142  10.448   7.561  0.0486 -0.1025  0.1359
   82POPC   PO4 1287   9.142  10.872   7.731  0.0189 -0.0208  0.0907
   82POPC   GL1 1288   8.882  10.940   7.214  0.1120  0.5274  0.2657
   82POPC   GL2 1289   8.542  10.775   7.080  0.2376  0.0392  0.3138
   82POPC   C1A 1290   8.874  11.163   6.822 -0.2475  0.2450 -0.0452
   82POPC   D2A 1291   8.980  11.542   6.689  0.0002  0.0950 -0.1141
   82POPC   C3A 1292   8.888  11.776   6.290  0.0943  0.0621 -0.0289
   82POPC   C4A 1293   8.965  11.439   5.966 -0.0394 -0.1071 -0.2135
   82POPC   C1B 1294   8.723  10.667   6.639  0.0595  0.0935  0.1597
   82POPC   C2B 1295   8.547  10.360   6.430  0.4717 -0.0984  0.2611
   82POPC   C3B 1296   8.356   9.936   6.433 -0.1193 -0.0765 -0.0503
   82POPC   C4B 1297   8.386   9.572   6.743  0.4199  0.0547  0.0283
   83POPC   NC3 1298   4.584   9.131   7.182 -0.3298 -0.1189 -0.0719
   83POPC   PO4 1299   4.431   8.898   7.406  0.0285 -0.0856  0.3000
   83POPC   GL1 1300   4.353   8.493   7.151  0.2513  0.0476 -0.0152
   83POPC   GL2 1301   4.524   8.365   7.013 -0.2736 -0.0545 -0.0984
   83POPC   C1A 1302   4.010   8.427   6.793 -0.1300  0.1579 -0.0560
   83POPC   D2A 1303   3.784   8.320   6.482  0.0069 -0.0776  0.2193
   83POPC   C3A 1304   3.797   8.545   6.096  0.1448 -0.0612 -0.0112
   83POPC   C4A 1305   3.884   8.704   5.657 -0.1768  0.1896  0.0889
   83POPC   C1B 1306   4.493   8.188   6.646 -0.2158  0.1047  0.0743
   83POPC   C2B 1307   4.453   8.382   6.256 -0.1272  0.3386 -0.1787
   83POPC   C3B 1308   4.427   8.717   5.967  0.0708  0.1944 -0.2839
   83POPC   C4B 1309   4.145   9.085   5.886 -0.0491 -0.0503 -0.0430
   84POPC   NC3 1310   9.948   9.703   7.355 -0.2293  0.0513 -0.1015
   84POPC   PO4 1311  10.111  10.121   7.582  0.0225  0.1122 -0.3584
   84POPC   GL1 1312  10.156  10.075   7.102  0.0914  0.0865 -0.0512
   84POPC   GL2 1313   9.850   9.963   6.905  0.0649  0.2417 -0.2317
   84POPC   C1A 1314  10.341  10.025   6.644  0.0673 -0.0961  0.1199
   84POPC   D2A 1315  10.602  10.116   6.251  0.0439 -0.4836  0.1968
   84POPC   C3A 1316  10.519  10.526   5.933  0.1623 -0.0854  0.0058
   84POPC   C4A 1317  10.457  10.838   5.579 -0.1516  0.5375  0.1366
   84POPC   C1B 1318   9.568   9.982   6.551 -0.2608 -0.1279 -0.0102
   84POPC   C2B 1319   9.191   9.710   6.403 -0.3337 -0.1128 -0.0633
   84POPC   C3B 1320   9.117   9.373   6.282 -0.0323  0.2082  0.0363
   84POPC   C4B 1321   9.071   8.969   6.207 -0.2909  0.1287 -0.3683
   85POPC   NC3 1322   4.707   8.182   8.012  0.0131 -0.2042  0.2538
   85POPC   PO4 1323   4.552   7.716   7.895  0.0127  0.1290  0.1547
   85POPC   GL1 1324   4.784   7.594   7.464 -0.0459 -0.2500 -0.0139
   85POPC   GL2 1325   4.515   7.451   7.274 -0.1592 -0.0037  0.4293
   85POPC   C1A 1326   4.928   7.606   7.046  0.1344 -0.2193 -0.4137
   85POPC   D2A 1327   4.832   7.326   6.637 -0.1034 -0.1486  0.0001
   85POPC   C3A 1328   5.144   7.067   6.430 -0.3717 -0.0407 -0.2315
   85POPC   C4A 1329   5.573   7.068   6.179 -0.2579  0.1164  0.0250
   85POPC   C1B 1330   4.523   7.156   6.987  0.2546 -0.1255 -0.1404
   85POPC   C2B 1331   4.405   7.088   6.620  0.1692 -0.1929  0.0492
   85POPC   C3B 1332   4.120   7.346   6.319  0.1142  0.0246  0.4489
   85POPC   C4B 1333   4.133   7.460   5.933 -0.0500 -0.1429 -0.3217
   86POPC   NC3 1334   9.609   0.442   7.477 -0.1292 -0.1504  0.0219
   86POPC   PO4 1335   9.259   0.686   7.525 -0.0531  0.0791  0.0317
   86POPC   GL1 1336   9.328   0.599   7.025  0.2438 -0.2329 -0.0583
   86POPC   GL2 1337   9.685   0.849   7.017 -0.1786 -0.1218  0.1709
   86POPC   C1A 1338   9.440   0.590   6.643  0.1698 -0.0435  0.1409
   86POPC   D2A 1339   9.755   0.805   6.541 -0.2179 -0.1167 -0.1133
   86POPC   C3A 1340   9.959   0.683   6.227 -0.4697 -0.0239 -0.0177
   86POPC   C4A 1341  10.214   0.476   5.985  0.3405 -0.0081  0.0473
   86POPC   C1B 1342   9.914   0.507   6.862  0.0860 -0.1104  0.0272
   86POPC   C2B 1343   9.845   0.215   6.606  0.0134 -0.0737  0.1490
   86POPC   C3B 1344   9.654   0.300   6.228 -0.1327  0.0775 -0.1709
   86POPC   C4B 1345   9.443   0.655   6.050  0.0775  0.1007  0.0471
   87POPC   NC3 1346   9.585   7.562   7.808  0.1038  0.0109 -0.2021
   87POPC   PO4 1347   9.670   7.098   7.686  0.0646  0.0397  0.0859
   87POPC   GL1 1348   9.586   6.912   7.281  0.1060  0.1008  0.2205
   87POPC   GL2 1349   9.195   6.984   7.202  0.1734 -0.1431 -0.2173
   87POPC   C1A 1350   9.518   6.875   6.757 -0.1090  0.2319  0.0071
   87POPC   D2A 1351   9.656   7.072   6.409  0.2840  0.2563 -0.0506
   87POPC   C3A 1352  10.002   6.922   6.257 -0.2993 -0.1062  0.0500
   87POPC   C4A 1353  10.241   6.510   6.316 -0.2108 -0.1244 -0.0500
   87POPC   C1B 1354   9.158   7.188   6.759  0.1169  0.0456 -0.0788
   87POPC   C2B 1355   9.065   7.311   6.406  0.1603  0.1683 -0.0787
   87POPC   C3B 1356   8.915   7.172   6.078 -0.3579 -0.2908  0.1858
   87POPC   C4B 1357   8.938   6.998   5.579 -0.2097  0.0073  0.0555
   88POPC   NC3 1358   8.396   2.868   8.070  0.1304  0.2658 -0.0220
   88POPC   PO4 1359   8.879   2.876   8.261  0.1707  0.0612 -0.3157
   88POPC   GL1 1360   8.874   2.750   7.795  0.3022 -0.1396  0.0448
   88POPC   GL2 1361   9.084   2.911   7.598  0.3244  0.1591 -0.1213
   88POPC   C1A 1362   8.976   2.442   7.475  0.3522 -0.0775  0.0771
   88POPC   D2A 1363   9.217   2.127   7.238  0.0582  0.0774 -0.1095
   88POPC   C3A 1364   8.986   2.049   6.859 -0.0869 -0.0894 -0.0064
   88POPC   C4A 1365   8.719   2.266   6.571 -0.0987 -0.2887 -0.2400
   88POPC   C1B 1366   9.511   2.939   7.433 -0.2419  0.0250  0.0637
   88POPC   C2B 1367   9.663   3.138   6.962  0.4339 -0.1024 -0.2755
   88POPC   C3B 1368   9.741   3.128   6.626  0.1013  0.0017 -0.1310
   88POPC   C4B 1369  10.040   3.395   6.362  0.2389 -0.2197  0.1241
   89POPC   NC3 1370   5.495   8.455   7.407 -0.0240 -0.2532 -0.0446
   89POPC   PO4 1371   5.532   8.849   7.537  0.0815 -0.2150 -0.0202
   89POPC   GL1 1372   5.373   9.066   7.186 -0.1742  0.1341  0.0175
   89POPC   GL2 1373   5.085   8.924   6.944  0.0278 -0.0190 -0.2207
   89POPC   C1A 1374   5.569   9.174   6.836 -0.2158  0.1628  0.3590
   89POPC   D2A 1375   5.871   9.397   6.438 -0.0067 -0.1290  0.1673
   89POPC   C3A 1376   6.020   9.767   6.187 -0.0297 -0.2316 -0.0999
   89POPC   C4A 1377   6.233  10.009   5.823 -0.4142 -0.2118 -0.1480
   89POPC   C1B 1378   5.219   8.818   6.540  0.0040  0.0581  0.0892
   89POPC   C2B 1379   4.938   8.829   6.134 -0.2339 -0.1411  0.1726
   89POPC   C3B 1380   4.882   8.524   5.846  0.1416  0.2811  0.1614
   89POPC   C4B 1381   4.583   8.202   5.530  0.1744 -0.0590 -0.1535
   90POPC   NC3 1382   0.827   4.482   8.583 -0.3147 -0.0181  0.1778
   90POPC   PO4 1383   1.183   4.593   8.506 -0.1438 -0.1512 -0.2118
   90POPC   GL1 1384   1.181   4.845   8.160 -0.1878 -0.3557  0.3288
   90POPC   GL2 1385   1.479   4.800   8.013  0.1664  0.2274  0.0977
   90POPC   C1A 1386   0.976   5.135   7.912 -0.0155  0.2200 -0.0362
   90POPC   D2A 1387   0.785   5.559   8.004  0.0039 -0.0363 -0.2078
   90POPC   C3A 1388   0.687   5.733   7.611 -0.0742  0.1682  0.1297
   90POPC   C4A 1389   0.470   5.952   7.240 -0.2764 -0.1433  0.3350
   90POPC   C1B 1390   1.579   4.743   7.647 -0.1779 -0.0491 -0.1104
   90POPC   C2B 1391   1.606   4.984   7.311  0.1517  0.0942 -0.2176
   90POPC   C3B 1392   1.337   5.361   7.258 -0.1194  0.2551 -0.1797
   90POPC   C4B 1393   1.396   5.819   7.168  0.1495 -0.1080  0.0774
   91POPC   NC3 1394   6.378   3.787   7.704  0.0435 -0.0991  0.1109
   91POPC   PO4 1395   6.152   3.345   7.694  0.1463  0.5873 -0.0766
   91POPC   GL1 1396   5.994   3.283   7.364  0.2697 -0.2407  0.2124
   91POPC   GL2 1397   6.127   2.953   7.334  0.4194 -0.3442  0.0149
   91POPC   C1A 1398   6.012   3.452   6.908  0.1970  0.1370  0.1616
   91POPC   D2A 1399   6.051   3.620   6.512 -0.2306  0.0556  0.2925
   91POPC   C3A 1400   5.878   3.918   6.137  0.0844 -0.1005  0.0049
   91POPC   C4A 1401   5.777   4.157   5.829  0.3893  0.1572  0.1640
   91POPC   C1B 1402   6.400   3.071   7.072 -0.0819  0.0326 -0.2781
   91POPC   C2B 1403   6.650   2.987   6.694  0.0761 -0.0462 -0.0808
   91POPC   C3B 1404   6.622   2.862   6.249 -0.2373  0.4167 -0.0695
   91POPC   C4B 1405   6.547   2.634   5.877 -0.2712  0.2642  0.1053
   92POPC   NC3 1406   4.969   9.810   7.243  0.0728 -0.1861  0.0400
   92POPC   PO4 1407   5.019   9.393   7.285  0.0101  0.3069  0.0771
   92POPC   GL1 1408   5.097   9.410   6.935 -0.0373 -0.1552 -0.0677
   92POPC   GL2 1409   4.959   9.570   6.714 -0.0602  0.0135 -0.0921
   92POPC   C1A 1410   5.318   9.354   6.456 -0.1817 -0.1073  0.0352
   92POPC   D2A 1411   5.127   9.307   6.063 -0.0197  0.0811  0.0032
   92POPC   C3A 1412   4.853   9.606   6.203  0.0474 -0.0490  0.4783
   92POPC   C4A 1413   4.455   9.962   6.261  0.0788  0.0389 -0.0445
   92POPC   C1B 1414   4.850   9.218   6.550  0.0189 -0.0147  0.1375
   92POPC   C2B 1415   4.538   9.198   6.196 -0.3892 -0.0089 -0.1070
   92POPC   C3B 1416   4.321   9.587   5.969  0.0297 -0.3719  0.1907
   92POPC   C4B 1417   3.993   9.980   5.974 -0.0202 -0.0718 -0.1601
   93POPC   NC3 1418   8.061   1.332   7.576 -0.1005 -0.0906  0.0882
   93POPC   PO4 1419   7.788   1.614   7.898  0.0996 -0.1420  0.0450
   93POPC   GL1 1420   7.841   1.820   7.427 -0.1609 -0.0723  0.1514
   93POPC   GL2 1421   8.166   1.745   7.332 -0.2645  0.0593 -0.0899
   93POPC   C1A 1422   7.785   1.876   6.948 -0.1382  0.3175 -0.0634
   93POPC   D2A 1423   7.688   2.093   6.665  0.1825  0.1180 -0.1538
   93POPC   C3A 1424   7.776   2.373   6.257  0.0891  0.1563  0.0231
   93POPC   C4A 1425   7.490   2.647   5.978  0.1074 -0.1010  0.1293
   93POPC   C1B 1426   8.260   1.386   6.940 -0.2581  0.0423  0.1907
   93POPC   C2B 1427   8.507   1.381   6.503  0.1475  0.2268 -0.1388
   93POPC   C3B 1428   8.530   1.418   6.042 -0.0584 -0.1520  0.1278
   93POPC   C4B 1429   8.699   1.581   5.694 -0.3174  0.2133  0.3729
   94POPC   NC3 1430   8.130   6.725   7.724  0.0565 -0.0697 -0.1019
   94POPC   PO4 1431   7.935   6.887   8.012  0.1377 -0.1422 -0.2105
   94POPC   GL1 1432   8.088   7.185   7.746  0.1077 -0.1635 -0.0715
   94POPC   GL2 1433   8.017   7.419   7.654 -0.1011 -0.1056 -0.0113
   94POPC   C1A 1434   8.351   7.097   7.288  0.2467 -0.2872  0.0311
   94POPC   D2A 1435   8.205   6.998   6.919 -0.1070  0.2880 -0.0529
   94POPC   C3A 1436   8.076   7.259   6.696  0.0194 -0.2678 -0.0204
   94POPC   C4A 1437   7.904   7.388   6.281 -0.1225 -0.0537 -0.2195
   94POPC   C1B 1438   7.953   7.367   7.239  0.0219 -0.0570  0.0476
   94POPC   C2B 1439   7.602   7.290   6.952 -0.0197  0.0627 -0.1848
   94POPC   C3B 1440   7.577   7.189   6.549 -0.0290 -0.1651  0.0206
   94POPC   C4B 1441   7.495   7.129   6.184 -0.1631 -0.0797 -0.3132
   95POPC   NC3 1442   4.200   9.755   7.427  0.1642  0.0809 -0.3063
   95POPC   PO4 1443   4.590   9.632   7.461  0.1967  0.2998  0.2116
   95POPC   GL1 1444   4.480   9.634   6.999  0.0963 -0.2238  0.0191
   95POPC   GL2 1445   4.644   9.857   6.867  0.1299 -0.1488 -0.1549
   95POPC   C1A 1446   4.074   9.708   6.786 -0.2674 -0.3619  0.1399
   95POPC   D2A 1447   3.925   9.738   6.487 -0.0078 -0.0877  0.3440
   95POPC   C3A 1448   3.847   9.422   6.180 -0.1280  0.3135  0.0603
   95POPC   C4A 1449   3.628   9.180   5.932 -0.0819  0.0217  0.0008
   95POPC   C1B 1450   4.417  10.224   6.717  0.1289 -0.0977  0.1279
   95POPC   C2B 1451   4.124  10.334   6.371  0.0424 -0.2397 -0.3773
   95POPC   C3B 1452   3.894  10.620   6.108 -0.2083 -0.1058 -0.0063
   95POPC   C4B 1453   3.623  10.851   5.841  0.2738  0.2083 -0.0157
   96POPC   NC3 1454   1.827   7.495   7.965  0.0321 -0.0401 -0.0778
   96POPC   PO4 1455   2.253   7.453   7.962 -0.3454  0.0828  0.1282
   96POPC   GL1 1456   2.474   7.309   7.547  0.3519  0.1019  0.2585
   96POPC   GL2 1457   2.491   7.649   7.362 -0.0917 -0.1453  0.1197
   96POPC   C1A 1458   2.516   7.237   7.085 -0.1578  0.1741 -0.2371
   96POPC   D2A 1459   2.374   7.413   6.713 -0.0455 -0.0109  0.0221
   96POPC   C3A 1460   2.436   7.271   6.272  0.1776  0.2913 -0.1190
   96POPC   C4A 1461   2.678   7.171   6.003  0.0692  0.1866  0.4756
   96POPC   C1B 1462   2.816   7.687   6.981  0.0859  0.2170  0.1471
   96POPC   C2B 1463   2.932   7.801   6.550  0.0189  0.0767  0.0651
   96POPC   C3B 1464   2.715   7.707   6.238  0.0743  0.0217 -0.1636
   96POPC   C4B 1465   2.424   7.652   5.890  0.1396 -0.2173 -0.0110
   97POPC   NC3 1466   6.379   2.922   7.725  0.1461  0.0726  0.0121
   97POPC   PO4 1467   6.599   3.263   7.896 -0.5020  0.0918 -0.1519
   97POPC   GL1 1468   6.599   3.347   7.419  0.2614  0.1225  0.2304
   97POPC   GL2 1469   6.431   3.572   7.237 -0.0386 -0.0493 -0.0080
   97POPC   C1A 1470   6.861   3.331   7.101  0.0848 -0.1709 -0.2346
   97POPC   D2A 1471   6.973   3.367   6.666  0.2238  0.1500 -0.2007
   97POPC   C3A 1472   6.870   3.657   6.274 -0.2003  0.0129 -0.2332
   97POPC   C4A 1473   6.479   3.862   6.200  0.0626  0.3472 -0.0320
   97POPC   C1B 1474   6.498   3.538   6.844  0.1238  0.3453  0.1206
   97POPC   C2B 1475   6.469   3.445   6.485  0.1121 -0.0001 -0.2291
   97POPC   C3B 1476   6.571   3.346   6.046 -0.0594  0.0033  0.0784
   97POPC   C4B 1477   6.933   3.494   5.684  0.3681  0.1374 -0.0967
   98POPC   NC3 1478   7.700   1.025   7.939 -0.0375 -0.0489  0.0371
   98POPC   PO4 1479   7.540   0.738   7.608 -0.0368  0.2078  0.0199
   98POPC   GL1 1480   7.649   0.773   7.171 -0.4933  0.2185 -0.0116
   98POPC   GL2 1481   7.900   0.981   7.168 -0.0363  0.0695 -0.0010
   98POPC   C1A 1482   8.085   0.780   6.788 -0.4158 -0.0469  0.1001
   98POPC   D2A 1483   8.179   0.968   6.449  0.2331 -0.0525 -0.2145
   98POPC   C3A 1484   8.302   0.918   6.089 -0.0012  0.0221 -0.2074
   98POPC   C4A 1485   8.447   0.558   5.828 -0.3482  0.2511 -0.3082
   98POPC   C1B 1486   7.784   1.211   6.852  0.1813  0.2147 -0.2750
   98POPC   C2B 1487   7.568   1.370   6.532  0.3520 -0.0866 -0.0070
   98POPC   C3B 1488   7.425   1.764   6.346 -0.2321 -0.1719 -0.0623
   98POPC   C4B 1489   7.332   2.102   6.071 -0.3357  0.0974  0.4169
   99POPC   NC3 1490   6.677   5.981   7.531  0.2250  0.0268  0.2649
   99POPC   PO4 1491   6.202   5.870   7.422 -0.3596  0.2049  0.0042
   99POPC   GL1 1492   5.834   5.693   7.171 -0.0596  0.3210  0.0166
   99POPC   GL2 1493   6.003   5.541   7.012  0.1515 -0.1756 -0.0161
   99POPC   C1A 1494   5.468   5.666   6.820 -0.2184  0.3274 -0.1824
   99POPC   D2A 1495   5.119   5.767   6.590 -0.2312 -0.1502  0.0824
   99POPC   C3A 1496   4.905   5.568   6.192  0.0109  0.0681  0.0706
   99POPC   C4A 1497   4.702   5.259   5.825  0.0461 -0.2147  0.1447
   99POPC   C1B 1498   6.423   5.481   6.754  0.2095 -0.1241  0.1179
   99POPC   C2B 1499   6.794   5.452   6.407  0.1320  0.2866 -0.2765
   99POPC   C3B 1500   7.170   5.508   6.091 -0.1214 -0.0442  0.0426
   99POPC   C4B 1501   7.430   5.372   5.881 -0.0626 -0.1821  0.1014
  100POPC   NC3 1502   4.545   6.761   7.495  0.5306  0.1586 -0.3171
  100POPC   PO4 1503   4.316   6.369   7.763  0.1037 -0.4314 -0.1054
  100POPC   GL1 1504   4.109   6.509   7.367  0.0545 -0.0324  0.1552
  100POPC   GL2 1505   4.293   6.613   7.038 -0.3054  0.0748  0.0475
  100POPC   C1A 1506   3.809   6.421   7.127 -0.1117 -0.3461 -0.2680
  100POPC   D2A 1507   3.618   6.590   6.719 -0.1520 -0.2131  0.0821
  100POPC   C3A 1508   3.774   6.608   6.350  0.1828 -0.0317 -0.3595
  100POPC   C4A 1509   4.133   6.858   6.188  0.0539 -0.1064 -0.0838
  100POPC   C1B 1510   4.105   6.533   6.718 -0.0484 -0.2158  0.1122
  100POPC   C2B 1511   4.169   6.253   6.343  0.0595  0.1612  0.1081
  100POPC   C3B 1512   4.271   5.917   6.061  0.3104  0.2270  0.0353
  100POPC   C4B 1513   4.210   5.521   5.766  0.1168 -0.1275 -0.4619
  101POPC   NC3 1514   2.292   6.321   7.989  0.2823  0.1340 -0.1576
  101POPC   PO4 1515   1.955   6.149   8.013 -0.3321  0.0049  0.2210
  101POPC   GL1 1516   1.910   5.907   7.553  0.3851  0.1804  0.1069
  101POPC   GL2 1517   2.091   6.011   7.385  0.1458 -0.1645 -0.1063
  101POPC   C1A 1518   1.826   5.566   7.267  0.0712  0.0562  0.2581
  101POPC   D2A 1519   1.702   5.382   6.945 -0.1173  0.1705  0.1063
  101POPC   C3A 1520   1.745   5.694   6.613 -0.0667  0.2077 -0.0167
  101POPC   C4A 1521   1.762   5.807   6.113 -0.1287 -0.2956  0.3107
  101POPC   C1B 1522   1.953   5.981   6.962  0.2679 -0.2925  0.2173
  101POPC   C2B 1523   1.904   6.204   6.568 -0.2040 -0.2320  0.1630
  101POPC   C3B 1524   1.841   6.341   6.264 -0.1352  0.1693  0.2497
  101POPC   C4B 1525   1.607   6.194   5.773 -0.0827  0.0157  0.2784
  102POPC   NC3 1526   8.493   5.865   7.595  0.2665 -0.0917  0.0711
  102POPC   PO4 1527   8.234   6.236   7.560  0.0263 -0.0089 -0.2195
  102POPC   GL1 1528   8.297   6.394   7.201 -0.0378  0.0140  0.2093
  102POPC   GL2 1529   8.402   6.642   7.318  0.4698 -0.0967  0.1077
  102POPC   C1A 1530   8.703   6.345   6.986  0.0935  0.2694  0.3438
  102POPC   D2A 1531   8.832   6.224   6.638 -0.4377 -0.2264  0.0187
  102POPC   C3A 1532   8.869   5.884   6.482 -0.0325 -0.2386 -0.1837
  102POPC   C4A 1533   9.241   5.728   6.366 -0.0241 -0.0306 -0.0978
  102POPC   C1B 1534   8.789   6.774   7.248 -0.2593  0.0560  0.1652
  102POPC   C2B 1535   9.005   6.723   6.787  0.0756  0.2420 -0.5296
  102POPC   C3B 1536   8.959   6.822   6.429 -0.0906  0.4471  0.4593
  102POPC   C4B 1537   9.290   6.858   6.059 -0.0136 -0.0038  0.0803
  103POPC   NC3 1538   0.293   9.473   7.334  0.3286 -0.1649  0.0206
  103POPC   PO4 1539   0.295   9.823   7.212 -0.2245 -0.1568  0.0612
  103POPC   GL1 1540   0.597   9.670   6.977 -0.0879 -0.1548  0.1167
  103POPC   GL2 1541   0.828   9.411   7.063 -0.2342  0.0881  0.0202
  103POPC   C1A 1542   0.526   9.564   6.598 -0.0766  0.2253  0.0159
  103POPC   D2A 1543   0.693   9.530   6.207 -0.0433 -0.2045  0.2486
  103POPC   C3A 1544   0.681   9.044   6.037  0.1539  0.1360 -0.3656
  103POPC   C4A 1545   0.375   8.878   5.850  0.0563  0.0668  0.1372
  103POPC   C1B 1546   0.949   9.116   6.822  0.3000 -0.1456  0.0476
  103POPC   C2B 1547   1.052   9.036   6.398 -0.2556  0.1094  0.1177
  103POPC   C3B 1548   1.260   9.051   6.180 -0.0099  0.2360  0.0008
  103POPC   C4B 1549   1.445   9.090   5.776  0.0156 -0.0764 -0.0059
  104POPC   NC3 1550   9.615   0.898   7.850 -0.1530  0.0140 -0.1256
  104POPC   PO4 1551   9.964   0.935   7.513  0.0047 -0.1416 -0.0622
  104POPC   GL1 1552  10.160   0.911   7.106  0.7542  0.1873 -0.0103
  104POPC   GL2 1553  10.302   0.720   7.102  0.2027 -0.1109 -0.2153
  104POPC   C1A 1554  10.087   1.129   6.784  0.1809  0.2316  0.1333
  104POPC   D2A 1555  10.030   1.190   6.338 -0.1490  0.1087  0.3897
  104POPC   C3A 1556  10.165   1.593   6.195  0.2108 -0.0897 -0.0040
  104POPC   C4A 1557  10.005   1.895   5.889 -0.1273  0.0659 -0.2220
  104POPC   C1B 1558  10.653   0.591   6.835  0.2539 -0.1597 -0.1618
  104POPC   C2B 1559  10.883   0.751   6.551  0.2644 -0.3466  0.2582
  104POPC   C3B 1560  11.009   0.980   6.216  0.1547  0.0661  0.0789
  104POPC   C4B 1561  10.948   1.306   5.940 -0.0193 -0.0620  0.1875
  105POPC   NC3 1562   3.850   6.421   7.873  0.0530 -0.1735  0.2787
  105POPC   PO4 1563   3.945   5.930   7.921 -0.0069 -0.4605  0.0536
  105POPC   GL1 1564   3.698   6.098   7.522  0.1247  0.0096 -0.1783
  105POPC   GL2 1565   3.416   6.148   7.417 -0.1568  0.2184 -0.0057
  105POPC   C1A 1566   3.723   5.952   7.075 -0.3540 -0.1417 -0.0801
  105POPC   D2A 1567   3.703   6.142   6.584 -0.0444 -0.0222 -0.0428
  105POPC   C3A 1568   3.603   6.122   6.183 -0.0157 -0.0953 -0.1239
  105POPC   C4A 1569   3.446   5.754   5.973 -0.0348  0.2169 -0.1150
  105POPC   C1B 1570   3.253   6.209   6.930  0.5108 -0.0018 -0.0243
  105POPC   C2B 1571   2.874   6.114   6.771  0.3577 -0.2453  0.3268
  105POPC   C3B 1572   2.654   6.292   6.370 -0.1964  0.0704 -0.0963
  105POPC   C4B 1573   2.323   6.442   6.039  0.0735  0.2719 -0.2576
  106POPC   NC3 1574   2.583   2.532   8.554  0.0445 -0.1714 -0.0223
  106POPC   PO4 1575   2.634   2.675   8.217 -0.0435 -0.0286 -0.0098
  106POPC   GL1 1576   2.480   2.823   7.843  0.1656 -0.3995  0.1371
  106POPC   GL2 1577   2.524   2.634   7.616 -0.1189  0.0897 -0.2792
  106POPC   C1A 1578   2.360   3.036   7.366  0.1783 -0.2573 -0.2603
  106POPC   D2A 1579   2.318   3.325   7.044  0.0504 -0.1968  0.3546
  106POPC   C3A 1580   2.363   3.157   6.603 -0.3564 -0.2143 -0.0876
  106POPC   C4A 1581   2.402   2.886   6.271  0.0760 -0.4256 -0.0796
  106POPC   C1B 1582   2.560   2.494   7.229 -0.0959  0.0202  0.0006
  106POPC   C2B 1583   2.358   2.221   6.982  0.0115  0.3395 -0.1979
  106POPC   C3B 1584   2.580   2.204   6.566 -0.0993 -0.2155  0.3055
  106POPC   C4B 1585   2.729   2.510   6.250 -0.0580  0.0159 -0.0299
  107POPC   NC3 1586  10.556   5.311   9.200  0.2072 -0.1670 -0.0878
  107POPC   PO4 1587  10.785   5.007   8.793 -0.0478 -0.1826 -0.0108
  107POPC   GL1 1588  10.909   5.098   8.290  0.0851 -0.0076  0.2519
  107POPC   GL2 1589  11.021   5.403   8.374  0.1587  0.1340  0.1642
  107POPC   C1A 1590  11.063   5.029   7.951  0.2184  0.5137 -0.0669
  107POPC   D2A 1591  11.279   5.222   7.582 -0.1778  0.0349 -0.1215
  107POPC   C3A 1592  11.497   4.911   7.386  0.1741  0.4118  0.0445
  107POPC   C4A 1593  11.856   4.717   7.292  0.3358 -0.1501 -0.0710
  107POPC   C1B 1594  10.897   5.553   7.943 -0.1786  0.0267 -0.2191
  107POPC   C2B 1595  10.831   5.743   7.599 -0.1109 -0.0458 -0.0177
  107POPC   C3B 1596  10.877   5.521   7.265  0.0983  0.1846  0.2071
  107POPC   C4B 1597  11.056   5.584   6.871  0.1377  0.3034 -0.1266
  108POPC   NC3 1598   9.774   8.445   7.790  0.2139  0.0307 -0.1051
  108POPC   PO4 1599   9.928   7.980   7.884  0.0682  0.0100 -0.0107
  108POPC   GL1 1600   9.841   8.043   7.500  0.1934  0.2882 -0.1222
  108POPC   GL2 1601   9.897   7.688   7.393  0.2424  0.0243 -0.0661
  108POPC   C1A 1602   9.470   7.986   7.158 -0.1677  0.0349 -0.3185
  108POPC   D2A 1603   9.485   8.097   6.791  0.1429  0.0044 -0.0165
  108POPC   C3A 1604   9.321   7.937   6.417  0.1819  0.1856 -0.0253
  108POPC   C4A 1605   9.584   7.989   6.134 -0.1902 -0.0673  0.0450
  108POPC   C1B 1606   9.836   7.724   6.976 -0.1737 -0.1280 -0.0643
  108POPC   C2B 1607   9.953   7.915   6.643 -0.0540  0.2839 -0.0497
  108POPC   C3B 1608  10.061   7.967   6.219  0.0653 -0.0774 -0.2067
  108POPC   C4B 1609   9.967   8.043   5.755 -0.2303  0.1969 -0.2113
  109POPC   NC3 1610   9.561  10.273   7.338  0.1262 -0.0842  0.4184
  109POPC   PO4 1611   9.196   9.975   7.396  0.2865 -0.0522 -0.3480
  109POPC   GL1 1612   9.321   9.780   7.036  0.2624 -0.2400 -0.1804
  109POPC   GL2 1613   9.052   9.630   6.892 -0.1391  0.3116  0.1316
  109POPC   C1A 1614   9.630   9.561   6.760 -0.0383 -0.3273 -0.2066
  109POPC   D2A 1615   9.765   9.394   6.248  0.1941  0.2703 -0.0800
  109POPC   C3A 1616   9.498   9.248   6.003 -0.0520  0.0326  0.1002
  109POPC   C4A 1617   9.149   9.170   5.759  0.1090 -0.0722 -0.4006
  109POPC   C1B 1618   9.300   9.246   6.732  0.3552  0.1785 -0.1228
  109POPC   C2B 1619   9.601   9.039   6.572 -0.1154  0.0443 -0.2466
  109POPC   C3B 1620   9.754   8.836   6.270 -0.2616 -0.1203  0.0637
  109POPC   C4B 1621   9.991   8.752   5.917 -0.1271 -0.0251 -0.0450
  110POPC   NC3 1622   2.102   3.766   8.213 -0.0436  0.2265 -0.0131
  110POPC   PO4 1623   2.021   3.250   8.101  0.2280 -0.3586 -0.1558
  110POPC   GL1 1624   2.273   3.381   7.791 -0.0153  0.1943  0.0424
  110POPC   GL2 1625   2.683   3.378   7.715 -0.1898 -0.2077  0.1171
  110POPC   C1A 1626   2.329   3.671   7.493  0.0946 -0.1475 -0.1352
  110POPC   D2A 1627   2.537   3.813   7.099 -0.2155 -0.0878  0.0787
  110POPC   C3A 1628   2.454   3.828   6.746  0.1392 -0.3066 -0.2120
  110POPC   C4A 1629   2.033   3.988   6.468 -0.2103 -0.0372  0.1624
  110POPC   C1B 1630   2.753   3.431   7.273 -0.1013  0.0722 -0.5566
  110POPC   C2B 1631   2.750   3.423   6.812  0.0182 -0.0667 -0.1070
  110POPC   C3B 1632   2.685   3.474   6.320 -0.1076 -0.2033 -0.1235
  110POPC   C4B 1633   2.784   3.568   5.856 -0.3094 -0.0561  0.2558
  111POPC   NC3 1634   6.198  10.118   7.710 -0.3370  0.0846 -0.1408
  111POPC   PO4 1635   6.417   9.777   7.590  0.2324  0.1311 -0.2212
  111POPC   GL1 1636   6.351   9.469   7.245  0.2637 -0.1628  0.2077
  111POPC   GL2 1637   5.995   9.509   7.063 -0.2141 -0.0296  0.2223
  111POPC   C1A 1638   6.645   9.257   6.973  0.0269 -0.0586  0.0339
  111POPC   D2A 1639   6.871   9.329   6.637  0.1455 -0.2934 -0.1381
  111POPC   C3A 1640   7.287   9.301   6.510  0.0021  0.1014 -0.1566
  111POPC   C4A 1641   7.731   9.134   6.492  0.3932  0.0820 -0.2149
  111POPC   C1B 1642   6.250   9.666   6.765 -0.2081 -0.4019 -0.0525
  111POPC   C2B 1643   6.450   9.685   6.475 -0.1644  0.0336  0.0035
  111POPC   C3B 1644   6.591   9.931   6.142  0.2226 -0.2851  0.0463
  111POPC   C4B 1645   6.949   9.980   5.907 -0.1958  0.1877 -0.0676
  112POPC   NC3 1646   0.313   1.459   8.063 -0.3043  0.4382 -0.1466
  112POPC   PO4 1647   0.019   1.527   7.952 -0.2362  0.0736  0.1306
  112POPC   GL1 1648   0.159   1.715   7.645  0.0334  0.1721  0.0092
  112POPC   GL2 1649   0.141   1.569   7.370 -0.1835  0.2864 -0.0594
  112POPC   C1A 1650   0.277   2.030   7.462 -0.0283 -0.0617  0.0536
  112POPC   D2A 1651   0.211   2.460   7.410 -0.0393 -0.1295  0.3782
  112POPC   C3A 1652   0.488   2.755   7.118  0.1218  0.0214 -0.3824
  112POPC   C4A 1653   0.738   3.068   7.192  0.0191 -0.2156  0.3029
  112POPC   C1B 1654   0.299   1.814   6.988  0.0317 -0.1083 -0.0896
  112POPC   C2B 1655   0.364   2.312   6.843 -0.1492 -0.0267 -0.0504
  112POPC   C3B 1656   0.694   2.521   6.707 -0.1875 -0.1051 -0.0714
  112POPC   C4B 1657   0.941   2.759   6.390 -0.0743  0.1308 -0.0164
  113POPC   NC3 1658   7.126   0.873   7.355  0.3423 -0.1074  0.1468
  113POPC   PO4 1659   6.996   1.335   7.459  0.0426  0.1304 -0.2477
  113POPC   GL1 1660   6.887   1.444   7.071  0.0055  0.0064  0.0701
  113POPC   GL2 1661   7.163   1.236   6.893  0.0615 -0.1352 -0.2072
  113POPC   C1A 1662   6.712   1.657   6.711 -0.1711  0.0185 -0.0365
  113POPC   D2A 1663   6.791   1.911   6.385 -0.1471 -0.0643 -0.1138
  113POPC   C3A 1664   6.998   1.699   5.993  0.1768  0.4255  0.1558
  113POPC   C4A 1665   7.135   1.832   5.645  0.0505  0.0888 -0.0657
  113POPC   C1B 1666   7.455   0.902   6.651 -0.1861  0.1125 -0.0581
  113POPC   C2B 1667   7.666   0.903   6.291  0.1383  0.0174 -0.2229
  113POPC   C3B 1668   7.487   0.629   6.007 -0.0258 -0.0780 -0.0959
  113POPC   C4B 1669   7.206   0.494   5.576 -0.0379  0.1076 -0.1832
  114POPC   NC3 1670   4.016   8.321   7.518  0.2775  0.1574 -0.0356
  114POPC   PO4 1671   3.726   7.960   7.497 -0.0129  0.0990 -0.0865
  114POPC   GL1 1672   3.609   8.217   7.163  0.2262 -0.2276 -0.4173
  114POPC   GL2 1673   3.233   8.079   6.957  0.3211 -0.2515  0.0672
  114POPC   C1A 1674   3.490   8.502   6.872  0.1474  0.0378  0.0790
  114POPC   D2A 1675   3.308   8.704   6.500 -0.1220  0.1671 -0.1269
  114POPC   C3A 1676   3.440   9.089   6.409  0.2359 -0.2612  0.1256
  114POPC   C4A 1677   3.399   9.540   6.487 -0.0218 -0.0381  0.0618
  114POPC   C1B 1678   3.438   7.944   6.492  0.3668 -0.3900  0.3595
  114POPC   C2B 1679   3.178   7.868   6.126  0.3042 -0.0673 -0.3964
  114POPC   C3B 1680   3.198   8.000   5.683  0.0647 -0.2156 -0.0204
  114POPC   C4B 1681   2.951   8.129   5.391  0.2736 -0.0141 -0.0020
  115POPC   NC3 1682   5.429   0.937   8.546 -0.2618  0.1646  0.3564
  115POPC   PO4 1683   5.329   0.983   8.051  0.0901 -0.0662  0.3319
  115POPC   GL1 1684   5.444   1.075   7.613  0.2893  0.1963 -0.0122
  115POPC   GL2 1685   5.137   1.007   7.391  0.1925 -0.0330  0.5632
  115POPC   C1A 1686   5.691   1.009   7.376 -0.3058  0.1267  0.4251
  115POPC   D2A 1687   5.899   0.832   7.020  0.1482  0.1012  0.3562
  115POPC   C3A 1688   6.200   0.874   6.778  0.1916 -0.1071 -0.0393
  115POPC   C4A 1689   6.395   1.050   6.376 -0.0629  0.0357  0.0574
  115POPC   C1B 1690   5.308   0.819   7.009 -0.1943 -0.0394  0.1061
  115POPC   C2B 1691   5.381   1.012   6.566 -0.1587  0.2098 -0.1681
  115POPC   C3B 1692   5.439   1.288   6.309  0.2349 -0.0038 -0.0318
  115POPC   C4B 1693   5.598   1.640   6.182  0.2373 -0.2666 -0.3002
  116POPC   NC3 1694   1.267   3.302   8.346 -0.0724 -0.0021 -0.0120
  116POPC   PO4 1695   0.951   3.626   8.313 -0.0137  0.0875 -0.6608
  116POPC   GL1 1696   1.042   3.704   7.960  0.0109  0.1272 -0.0397
  116POPC   GL2 1697   1.321   3.937   7.750 -0.0280 -0.4821  0.0854
  116POPC   C1A 1698   0.909   3.668   7.551 -0.2891 -0.1287 -0.1671
  116POPC   D2A 1699   0.824   3.760   7.081  0.2408 -0.0854  0.1677
  116POPC   C3A 1700   0.645   3.468   6.910 -0.1942  0.0530  0.0562
  116POPC   C4A 1701   0.220   3.180   7.007 -0.1013 -0.2638 -0.1879
  116POPC   C1B 1702   1.429   3.702   7.407  0.3508 -0.0002 -0.1278
  116POPC   C2B 1703   1.184   3.405   7.121  0.1400 -0.0040 -0.1528
  116POPC   C3B 1704   1.085   3.214   6.829 -0.0724 -0.1736  0.1836
  116POPC   C4B 1705   1.414   3.123   6.493  0.2907  0.0300  0.0419
  117POPC   NC3 1706   4.468   0.829   7.843 -0.0145  0.1559 -0.0659
  117POPC   PO4 1707   4.302   1.202   7.851  0.0976 -0.2075  0.1033
  117POPC   GL1 1708   4.476   1.189   7.466  0.0354 -0.2117 -0.0685
  117POPC   GL2 1709   4.319   1.231   7.276  0.2567 -0.1701 -0.2222
  117POPC   C1A 1710   4.800   1.136   7.117  0.2256 -0.1475  0.1341
  117POPC   D2A 1711   5.031   1.240   6.769  0.3092 -0.0426 -0.1299
  117POPC   C3A 1712   4.864   1.046   6.411 -0.0478 -0.1056 -0.1275
  117POPC   C4A 1713   4.647   0.975   6.045  0.1095 -0.1348  0.0886
  117POPC   C1B 1714   4.482   1.473   7.048  0.4621 -0.1486  0.3042
  117POPC   C2B 1715   4.574   1.375   6.617 -0.0847 -0.0073  0.2215
  117POPC   C3B 1716   4.461   1.379   6.236 -0.0721  0.0976 -0.2390
  117POPC   C4B 1717   4.343   1.723   6.002  0.2211  0.1461  0.1053
  118POPC   NC3 1718   8.390   7.624   7.960  0.1402  0.3362  0.2014
  118POPC   PO4 1719   8.339   8.024   7.883 -0.1213  0.1570  0.1484
  118POPC   GL1 1720   8.535   8.213   7.614 -0.0806  0.0018 -0.1393
  118POPC   GL2 1721   8.221   8.504   7.549 -0.2601  0.0262 -0.2735
  118POPC   C1A 1722   8.531   8.206   7.170 -0.1052 -0.2387 -0.0705
  118POPC   D2A 1723   8.404   8.202   6.705 -0.0799  0.2843  0.6213
  118POPC   C3A 1724   8.205   8.483   6.524  0.2856 -0.0970 -0.0976
  118POPC   C4A 1725   7.749   8.528   6.439 -0.0680  0.0537 -0.2892
  118POPC   C1B 1726   8.013   8.409   7.142 -0.3395  0.0226 -0.1375
  118POPC   C2B 1727   7.674   8.244   6.871  0.0235 -0.0031 -0.1951
  118POPC   C3B 1728   7.589   8.049   6.457 -0.1160 -0.1459 -0.1718
  118POPC   C4B 1729   7.170   7.963   6.281 -0.2985  0.2421 -0.1854
  119POPC   NC3 1730   2.328   7.912   7.766 -0.2397  0.1681 -0.2663
  119POPC   PO4 1731   1.941   7.911   7.732  0.1459 -0.1073  0.2098
  119POPC   GL1 1732   2.030   7.572   7.443 -0.2751  0.0738 -0.0912
  119POPC   GL2 1733   1.756   7.541   7.470  0.0331 -0.0945  0.3231
  119POPC   C1A 1734   2.046   7.156   7.281  0.2787  0.1836 -0.0096
  119POPC   D2A 1735   2.074   6.971   6.937 -0.1325 -0.2092  0.0558
  119POPC   C3A 1736   2.003   7.184   6.539 -0.2434  0.1196  0.1211
  119POPC   C4A 1737   1.588   7.413   6.295 -0.1220  0.3977 -0.1183
  119POPC   C1B 1738   1.533   7.259   7.263  0.1445 -0.0609 -0.3424
  119POPC   C2B 1739   1.577   7.259   6.791 -0.0653 -0.0879  0.0116
  119POPC   C3B 1740   1.259   7.100   6.543 -0.1658  0.3215  0.0473
  119POPC   C4B 1741   1.102   7.282   6.131  0.0601 -0.0783 -0.0710
  120POPC   NC3 1742   2.597   4.501   8.676  0.3152 -0.0634  0.0456
  120POPC   PO4 1743   2.613   4.207   8.258  0.3286  0.4302 -0.0243
  120POPC   GL1 1744   2.787   4.327   7.899  0.1337 -0.0847 -0.0547
  120POPC   GL2 1745   3.053   4.351   7.751  0.0072  0.3138 -0.0832
  120POPC   C1A 1746   2.613   4.616   7.632 -0.1720  0.1545  0.2419
  120POPC   D2A 1747   2.572   5.068   7.391  0.0641 -0.1735 -0.0777
  120POPC   C3A 1748   2.585   5.149   6.896 -0.0175  0.1759  0.0426
  120POPC   C4A 1749   2.342   5.015   6.645  0.1748  0.2073 -0.0416
  120POPC   C1B 1750   2.840   4.189   7.350 -0.1215  0.4638 -0.1148
  120POPC   C2B 1751   2.764   4.256   6.844  0.2352  0.1486  0.0091
  120POPC   C3B 1752   2.696   4.158   6.407  0.2857  0.2175  0.1002
  120POPC   C4B 1753   2.446   3.873   6.080  0.0141 -0.2188 -0.1144
  121POPC   NC3 1754  10.433   2.538   8.047 -0.0733 -0.1003 -0.1018
  121POPC   PO4 1755   9.931   2.689   8.060 -0.0115  0.0074 -0.2933
  121POPC   GL1 1756  10.050   2.630   7.597  0.5179 -0.2006  0.0847
  121POPC   GL2 1757  10.372   2.369   7.451 -0.0274 -0.3669  0.1321
  121POPC   C1A 1758   9.809   2.589   7.206  0.0060 -0.0700  0.1642
  121POPC   D2A 1759   9.524   2.370   6.952 -0.2807  0.0094 -0.4399
  121POPC   C3A 1760   9.408   2.725   6.780 -0.1186  0.0827  0.0241
  121POPC   C4A 1761   9.196   2.891   7.051  0.1262 -0.2221 -0.0233
  121POPC   C1B 1762  10.462   2.625   7.172 -0.2494  0.2766 -0.1052
  121POPC   C2B 1763  10.610   2.767   6.927  0.0513  0.1140 -0.0547
  121POPC   C3B 1764  10.942   2.706   6.497 -0.0442 -0.3684 -0.0874
  121POPC   C4B 1765  11.076   2.290   6.354 -0.2380  0.1027 -0.0058
  122POPC   NC3 1766   0.506   8.928   8.037  0.1687  0.1712  0.3281
  122POPC   PO4 1767   0.418   8.627   7.672  0.0747  0.3467 -0.1096
  122POPC   GL1 1768   0.414   8.457   7.250  0.0932 -0.0820 -0.1701
  122POPC   GL2 1769   0.303   8.696   7.132  0.2118  0.2470 -0.1831
  122POPC   C1A 1770   0.623   8.253   6.878 -0.0765 -0.1746  0.1343
  122POPC   D2A 1771   0.805   8.005   6.546  0.2343 -0.2419 -0.3916
  122POPC   C3A 1772   0.551   7.834   6.187 -0.1596  0.3017  0.1517
  122POPC   C4A 1773   0.778   7.553   5.814 -0.2836 -0.0797  0.0380
  122POPC   C1B 1774   0.124   8.564   6.730 -0.1198  0.2797 -0.0546
  122POPC   C2B 1775   0.032   8.592   6.219  0.1175  0.1626 -0.2711
  122POPC   C3B 1776  -0.167   8.807   5.880  0.1205  0.0261  0.0611
  122POPC   C4B 1777  -0.354   8.779   5.537  0.1403 -0.0038 -0.0857
  123POPC   NC3 1778   7.916   4.706   7.789  0.1315  0.1382  0.1180
  123POPC   PO4 1779   7.930   4.250   7.609 -0.1687 -0.3177  0.1674
  123POPC   GL1 1780   8.089   4.344   7.268  0.1508  0.1896  0.1224
  123POPC   GL2 1781   8.382   4.199   7.225  0.0920 -0.4749 -0.1314
  123POPC   C1A 1782   8.054   4.206   6.813  0.0186 -0.0267  0.0356
  123POPC   D2A 1783   8.119   4.200   6.362  0.2793  0.3705  0.3156
  123POPC   C3A 1784   8.580   4.113   6.102  0.1216 -0.2392  0.1479
  123POPC   C4A 1785   8.945   4.014   5.773 -0.0081 -0.0243  0.0958
  123POPC   C1B 1786   8.578   4.217   6.865 -0.0450 -0.1081  0.1345
  123POPC   C2B 1787   8.786   4.001   6.572  0.1051  0.1051 -0.2662
  123POPC   C3B 1788   9.012   4.272   6.276  0.4046 -0.3734  0.1671
  123POPC   C4B 1789   8.960   4.713   6.265 -0.1233  0.0018  0.4339
  124POPC   NC3 1790  10.404   1.286   7.622 -0.1651 -0.2242  0.0749
  124POPC   PO4 1791  10.476   0.913   7.538  0.1023 -0.1490  0.2090
  124POPC   GL1 1792  10.695   1.018   7.229 -0.0775  0.2925  0.1975
  124POPC   GL2 1793  11.081   0.902   7.206 -0.1922 -0.2730 -0.1483
  124POPC   C1A 1794  10.518   1.255   6.955 -0.0576  0.1519  0.1869
  124POPC   D2A 1795  10.431   1.594   6.686 -0.0407  0.1961 -0.0908
  124POPC   C3A 1796  10.692   1.724   6.360  0.1081  0.2340  0.1196
  124POPC   C4A 1797  11.088   1.782   6.511 -0.1107  0.1439 -0.0644
  124POPC   C1B 1798  11.124   1.153   6.842 -0.0818  0.2005 -0.2165
  124POPC   C2B 1799  10.885   1.381   6.665 -0.3050  0.1551  0.0586
  124POPC   C3B 1800  10.534   1.161   6.454  0.1824 -0.1800  0.2113
  124POPC   C4B 1801  10.445   0.725   6.326  0.0791 -0.0062  0.1489
  125POPC   NC3 1802   4.317  10.649   7.741  0.1870  0.0405  0.0050
  125POPC   PO4 1803   4.273  10.992   8.059  0.0100 -0.1280  0.3346
  125POPC   GL1 1804   4.204  11.121   7.553  0.2506  0.1078 -0.0934
  125POPC   GL2 1805   4.078  11.480   7.533  0.0635 -0.0323  0.2285
  125POPC   C1A 1806   3.982  11.070   7.218  0.2933 -0.2504  0.0747
  125POPC   D2A 1807   3.683  10.734   7.188  0.1160  0.1945  0.0098
  125POPC   C3A 1808   3.373  10.517   6.912  0.0456  0.2956 -0.3182
  125POPC   C4A 1809   3.073  10.469   6.560 -0.2861  0.0781 -0.2007
  125POPC   C1B 1810   3.883  11.547   7.146  0.0007 -0.2486 -0.0183
  125POPC   C2B 1811   3.927  11.378   6.824 -0.2220  0.4495  0.0983
  125POPC   C3B 1812   4.077  11.176   6.485 -0.0813  0.2379 -0.0181
  125POPC   C4B 1813   4.119  11.363   6.040 -0.2950 -0.1498 -0.1514
  126POPC   NC3 1814   6.120   5.352   7.459 -0.2825 -0.3395  0.2123
  126POPC   PO4 1815   6.428   5.137   7.555 -0.3165  0.1749  0.2596
  126POPC   GL1 1816   6.425   5.161   7.153 -0.0300  0.0185 -0.1598
  126POPC   GL2 1817   6.152   4.961   7.044 -0.1371 -0.0217 -0.0088
  126POPC   C1A 1818   6.645   5.039   6.775  0.1765 -0.1663 -0.0187
  126POPC   D2A 1819   6.613   5.014   6.318  0.3432  0.0448 -0.3747
  126POPC   C3A 1820   6.686   4.595   6.011  0.1079 -0.1843 -0.0358
  126POPC   C4A 1821   7.064   4.390   5.783  0.4037 -0.2369 -0.1985
  126POPC   C1B 1822   6.103   5.112   6.636 -0.1542 -0.1179 -0.1377
  126POPC   C2B 1823   5.802   5.054   6.277  0.0774 -0.1711 -0.3326
  126POPC   C3B 1824   5.464   4.879   6.118 -0.0482 -0.3160 -0.1987
  126POPC   C4B 1825   5.271   4.709   6.445  0.3422 -0.0011 -0.1608
  127POPC   NC3 1826   0.373   3.665   8.547 -0.0233  0.0768 -0.2586
  127POPC   PO4 1827  -0.007   3.372   8.385  0.0484  0.0248  0.2611
  127POPC   GL1 1828   0.356   3.138   8.010 -0.0956 -0.1871  0.0656
  127POPC   GL2 1829   0.564   3.504   7.967 -0.1036  0.2146 -0.0108
  127POPC   C1A 1830   0.774   3.156   7.707 -0.1419 -0.0806 -0.3722
  127POPC   D2A 1831   1.109   3.028   7.482 -0.0024 -0.2134  0.2173
  127POPC   C3A 1832   1.526   3.151   7.673  0.1762 -0.3237  0.3426
  127POPC   C4A 1833   1.912   3.300   7.432 -0.0798  0.1922 -0.0621
  127POPC   C1B 1834   0.097   3.468   7.770  0.1451  0.0062  0.1251
  127POPC   C2B 1835  -0.277   3.420   7.696  0.0887  0.0439 -0.0641
  127POPC   C3B 1836  -0.558   3.531   7.349  0.0755 -0.1254  0.1961
  127POPC   C4B 1837  -0.577   3.487   6.896 -0.0747 -0.1912  0.1995
  128POPC   NC3 1838   7.483   5.923   7.402  0.0144 -0.2081  0.0193
  128POPC   PO4 1839   7.148   6.185   7.496  0.0065 -0.2336  0.0339
  128POPC   GL1 1840   7.249   6.387   7.182  0.0212  0.0411  0.0629
  128POPC   GL2 1841   7.339   6.178   6.987  0.0349 -0.0862  0.2042
  128POPC   C1A 1842   7.013   6.414   6.734 -0.0052  0.0321 -0.1127
  128POPC   D2A 1843   6.787   6.397   6.359  0.1448  0.2481 -0.0593
  128POPC   C3A 1844   7.088   6.378   5.934 -0.1148 -0.0963  0.0593
  128POPC   C4A 1845   7.425   6.109   5.651  0.1246 -0.0242  0.2508
  128POPC   C1B 1846   7.400   5.863   6.807 -0.3733 -0.2762 -0.1445
  128POPC   C2B 1847   7.181   5.454   6.792  0.1191  0.0251 -0.3989
  128POPC   C3B 1848   7.125   4.996   6.818  0.1064 -0.3397  0.1820
  128POPC   C4B 1849   7.351   4.609   6.754 -0.1246  0.2333 -0.2336
  129POPC   NC3 1850   7.236   4.484   8.306  0.1930 -0.5300  0.1250
  129POPC   PO4 1851   7.052   4.479   7.745 -0.0829  0.2751 -0.0602
  129POPC   GL1 1852   6.964   4.354   7.404 -0.2898 -0.0039 -0.0867
  129POPC   GL2 1853   6.966   4.675   7.175 -0.0406  0.0065 -0.1365
  129POPC   C1A 1854   7.177   4.195   7.060 -0.0224 -0.0385  0.1914
  129POPC   D2A 1855   7.115   4.161   6.574 -0.0198  0.2678 -0.0157
  129POPC   C3A 1856   7.270   4.310   6.256  0.0113 -0.2206  0.2133
  129POPC   C4A 1857   7.335   4.652   6.231  0.1017  0.0325  0.0242
  129POPC   C1B 1858   6.776   4.388   6.882  0.2266  0.2471  0.3299
  129POPC   C2B 1859   6.417   4.551   6.760 -0.2932 -0.1232 -0.1005
  129POPC   C3B 1860   6.238   4.694   6.396  0.0026 -0.3443 -0.4304
  129POPC   C4B 1861   6.228   4.909   5.971 -0.1014  0.1336 -0.1376
  130POPC   NC3 1862   8.495   2.104   7.709  0.0078  0.2759 -0.0777
  130POPC   PO4 1863   8.258   2.425   7.919  0.0604  0.0902 -0.1918
  130POPC   GL1 1864   8.090   2.306   7.439  0.0804 -0.0866 -0.1369
  130POPC   GL2 1865   7.883   2.531   7.216  0.1081  0.0749 -0.2627
  130POPC   C1A 1866   8.174   2.242   6.937  0.2108 -0.1410 -0.1518
  130POPC   D2A 1867   8.255   2.222   6.435  0.0611 -0.4455 -0.2657
  130POPC   C3A 1868   7.993   1.948   6.188  0.4897  0.1000  0.1680
  130POPC   C4A 1869   7.715   1.725   5.899 -0.0988 -0.4325  0.0503
  130POPC   C1B 1870   7.583   2.630   6.884  0.1376 -0.1690  0.2424
  130POPC   C2B 1871   7.326   2.410   6.554 -0.2531  0.0650  0.0883
  130POPC   C3B 1872   6.914   2.395   6.294 -0.4739 -0.2503  0.0955
  130POPC   C4B 1873   6.819   2.155   5.862  0.0611 -0.1146 -0.0323
  131POPC   NC3 1874  10.024   6.139   8.710  0.1715 -0.0193 -0.0771
  131POPC   PO4 1875  10.433   5.968   8.650 -0.1877 -0.0971 -0.1635
  131POPC   GL1 1876  10.431   5.663   8.295 -0.1412  0.1418  0.1198
  131POPC   GL2 1877  10.365   5.788   8.047 -0.3655  0.0943 -0.3048
  131POPC   C1A 1878  10.528   5.248   8.083  0.0730  0.3475 -0.0321
  131POPC   D2A 1879  10.537   4.806   7.890 -0.0171  0.1593  0.2003
  131POPC   C3A 1880  10.906   4.558   7.921 -0.0218  0.3277  0.0324
  131POPC   C4A 1881  11.239   4.554   7.693  0.0617  0.2795 -0.0486
  131POPC   C1B 1882  10.273   5.673   7.693  0.2315  0.1371  0.3804
  131POPC   C2B 1883  10.013   5.544   7.292  0.2152 -0.1354 -0.1093
  131POPC   C3B 1884   9.929   5.297   7.048 -0.2204  0.0342 -0.0665
  131POPC   C4B 1885  10.135   4.960   7.011  0.6359 -0.1829  0.0897
  132POPC   NC3 1886   6.868   9.987   7.529 -0.1947  0.1455  0.1266
  132POPC   PO4 1887   6.647  10.306   7.473 -0.2070 -0.4171 -0.2878
  132POPC   GL1 1888   6.791  10.209   7.091 -0.1978 -0.4824  0.3321
  132POPC   GL2 1889   6.710   9.849   7.048 -0.2075 -0.0105 -0.0906
  132POPC   C1A 1890   6.742  10.519   6.720  0.0867 -0.2410 -0.0240
  132POPC   D2A 1891   6.433  10.816   6.426  0.0888  0.1810  0.0425
  132POPC   C3A 1892   6.103  10.722   6.293 -0.1026 -0.1731  0.3274
  132POPC   C4A 1893   6.189  10.512   5.945 -0.2016 -0.0876  0.3470
  132POPC   C1B 1894   6.855   9.928   6.640  0.1732  0.0342  0.1107
  132POPC   C2B 1895   6.994   9.692   6.288 -0.0677 -0.3048 -0.1864
  132POPC   C3B 1896   7.203   9.463   6.048  0.0751 -0.1557 -0.0594
  132POPC   C4B 1897   7.266   9.270   5.646  0.1696 -0.0375  0.0769
  133POPC   NC3 1898   8.404   9.044   8.059  0.2374 -0.1941  0.1027
  133POPC   PO4 1899   8.385   8.943   7.650 -0.0905 -0.1949 -0.0712
  133POPC   GL1 1900   8.564   8.992   7.203  0.5414  0.1628  0.0560
  133POPC   GL2 1901   8.564   8.657   7.024 -0.1139 -0.1599  0.2553
  133POPC   C1A 1902   8.727   9.281   6.829  0.1402 -0.1593  0.2037
  133POPC   D2A 1903   8.643   9.447   6.359 -0.1102 -0.0270 -0.1909
  133POPC   C3A 1904   8.652   9.243   6.047 -0.0938  0.4088  0.1716
  133POPC   C4A 1905   8.654   9.081   5.657  0.0165  0.1206  0.1905
  133POPC   C1B 1906   8.696   8.802   6.547 -0.3129 -0.1212  0.0174
  133POPC   C2B 1907   8.597   8.736   6.109  0.1167  0.1424 -0.0142
  133POPC   C3B 1908   8.418   8.653   5.797  0.2213 -0.1608 -0.1305
  133POPC   C4B 1909   8.194   8.641   5.483 -0.1602  0.0619 -0.0564
  134POPC   NC3 1910   9.808   9.348   7.716 -0.0449  0.2335 -0.0587
  134POPC   PO4 1911   9.503   8.966   7.612  0.3198  0.3355  0.1019
  134POPC   GL1 1912   9.764   9.014   7.174  0.1680  0.1080 -0.0816
  134POPC   GL2 1913  10.028   9.186   7.194 -0.4644 -0.0261  0.2994
  134POPC   C1A 1914   9.838   8.722   6.832 -0.0945  0.1675 -0.0365
  134POPC   D2A 1915   9.909   8.381   6.502  0.1416  0.1202 -0.1209
  134POPC   C3A 1916  10.199   8.422   6.219  0.0622  0.0152  0.1117
  134POPC   C4A 1917  10.359   8.302   5.894  0.0746 -0.0185  0.0158
  134POPC   C1B 1918  10.062   9.118   6.787  0.0284  0.2570  0.1180
  134POPC   C2B 1919  10.269   9.068   6.296  0.0051 -0.1117  0.0182
  134POPC   C3B 1920  10.599   9.243   6.101 -0.1239 -0.0973 -0.1667
  134POPC   C4B 1921  10.927   9.519   5.879  0.2467  0.2186  0.0723
  135POPC   NC3 1922   2.528   9.184   7.708 -0.1904  0.0358 -0.1190
  135POPC   PO4 1923   2.160   8.953   7.855 -0.0918 -0.0522  0.0174
  135POPC   GL1 1924   2.160   8.984   7.384  0.3849  0.4398 -0.0776
  135POPC   GL2 1925   2.315   8.685   7.394 -0.2425  0.0235 -0.0676
  135POPC   C1A 1926   2.377   9.122   7.052 -0.0636 -0.1603  0.0659
  135POPC   D2A 1927   2.635   8.963   6.700 -0.4901 -0.0236 -0.0651
  135POPC   C3A 1928   2.885   8.729   6.302 -0.0104 -0.1735 -0.0749
  135POPC   C4A 1929   3.327   8.336   6.163  0.0730  0.0777  0.1010
  135POPC   C1B 1930   2.457   8.545   6.994 -0.0892  0.0333  0.0234
  135POPC   C2B 1931   2.412   8.487   6.474 -0.0551  0.1067  0.1055
  135POPC   C3B 1932   2.519   8.573   5.985  0.0266 -0.0807  0.0884
  135POPC   C4B 1933   2.910   8.549   5.818  0.1305 -0.2291 -0.2994
  136POPC   NC3 1934   0.201   0.750   7.749  0.1727 -0.0201 -0.3331
  136POPC   PO4 1935   0.290   1.166   7.650  0.1281 -0.2154 -0.0649
  136POPC   GL1 1936   0.651   1.318   7.347  0.2946  0.0621  0.3445
  136POPC   GL2 1937   0.879   1.081   7.136 -0.0404 -0.2826  0.0567
  136POPC   C1A 1938   0.681   1.529   7.019 -0.3216 -0.1529  0.2250
  136POPC   D2A 1939   0.806   1.974   6.836 -0.3366  0.1810  0.4135
  136POPC   C3A 1940   0.705   2.297   7.232 -0.0414 -0.1614 -0.1549
  136POPC   C4A 1941   0.742   2.628   7.544  0.1033 -0.2037 -0.2189
  136POPC   C1B 1942   0.941   1.205   6.744 -0.0496  0.0855  0.0313
  136POPC   C2B 1943   0.779   1.144   6.396 -0.0732 -0.1424 -0.3021
  136POPC   C3B 1944   0.702   1.500   6.141 -0.3650  0.1502 -0.0023
  136POPC   C4B 1945   0.829   1.773   5.778 -0.0345 -0.1865 -0.0409
  137POPC   NC3 1946   9.911   7.124   8.122 -0.2312  0.1375 -0.0132
  137POPC   PO4 1947  10.331   7.020   8.162 -0.1538 -0.0181 -0.0746
  137POPC   GL1 1948  10.215   6.956   7.684  0.5432  0.4281  0.4280
  137POPC   GL2 1949  10.075   7.044   7.453 -0.2017 -0.1475  0.0244
  137POPC   C1A 1950   9.999   6.491   7.404  0.2080  0.1997  0.0994
  137POPC   D2A 1951   9.727   6.470   7.105 -0.4319  0.5068 -0.1449
  137POPC   C3A 1952   9.804   6.444   6.632  0.1806  0.1034 -0.1852
  137POPC   C4A 1953   9.661   6.584   6.259  0.1407 -0.3213  0.1448
  137POPC   C1B 1954  10.053   6.938   7.093 -0.0093  0.1523 -0.1589
  137POPC   C2B 1955  10.256   6.733   6.734 -0.0196  0.2454 -0.1629
  137POPC   C3B 1956  10.636   6.495   6.640 -0.0357  0.1254 -0.0353
  137POPC   C4B 1957  10.936   6.254   6.381  0.1501 -0.0546 -0.0063
  138POPC   NC3 1958   5.883   9.603   7.521  0.1518 -0.4610  0.1754
  138POPC   PO4 1959   6.015   9.145   7.600 -0.1330 -0.1592  0.0661
  138POPC   GL1 1960   5.863   9.099   7.211 -0.0130  0.3493 -0.0149
  138POPC   GL2 1961   5.918   8.758   7.188 -0.3539 -0.1980 -0.2611
  138POPC   C1A 1962   6.097   9.121   6.861  0.1069  0.0622  0.1202
  138POPC   D2A 1963   6.366   9.193   6.597  0.0463 -0.1897 -0.0474
  138POPC   C3A 1964   6.188   9.105   6.205 -0.2389  0.0387  0.3850
  138POPC   C4A 1965   6.180   8.934   5.852  0.1666 -0.0726  0.0514
  138POPC   C1B 1966   5.620   8.681   6.807  0.1374 -0.0878 -0.3622
  138POPC   C2B 1967   5.747   8.878   6.480 -0.3236  0.2205  0.1386
  138POPC   C3B 1968   5.658   8.989   6.120  0.0558  0.2101  0.1862
  138POPC   C4B 1969   5.331   8.887   5.799  0.0587 -0.1905 -0.0979
  139POPC   NC3 1970   3.179   8.200   7.446  0.0694 -0.2710 -0.1738
  139POPC   PO4 1971   2.664   8.261   7.633  0.0032  0.0769  0.1857
  139POPC   GL1 1972   2.580   8.158   7.288  0.1978  0.1413  0.3802
  139POPC   GL2 1973   2.190   8.156   7.359  0.0015 -0.0098 -0.0257
  139POPC   C1A 1974   2.561   8.093   6.895 -0.0032  0.1661 -0.0188
  139POPC   D2A 1975   2.349   7.928   6.548 -0.1737  0.5184 -0.1511
  139POPC   C3A 1976   2.087   8.140   6.156 -0.0397  0.2855  0.1302
  139POPC   C4A 1977   2.004   8.363   5.810  0.0911  0.0882 -0.2607
  139POPC   C1B 1978   2.025   7.893   6.977  0.1401  0.1475  0.0257
  139POPC   C2B 1979   1.882   7.661   6.679  0.1427  0.3460  0.0927
  139POPC   C3B 1980   2.098   7.607   6.216  0.0718 -0.2066  0.0204
  139POPC   C4B 1981   1.815   7.713   5.846  0.0585  0.3669  0.0116
  140POPC   NC3 1982   0.592  10.383   7.502  0.3883 -0.3439  0.1187
  140POPC   PO4 1983   0.854  10.192   7.590 -0.2333  0.4871 -0.2342
  140POPC   GL1 1984   0.773  10.092   7.153 -0.1892 -0.1124  0.3102
  140POPC   GL2 1985   0.428  10.322   7.026 -0.0445  0.3954 -0.3684
  140POPC   C1A 1986   0.771  10.002   6.688 -0.0703  0.1192 -0.1635
  140POPC   D2A 1987   0.890  10.012   6.309  0.2460  0.1152 -0.3153
  140POPC   C3A 1988   0.649  10.262   5.918  0.1524 -0.0863 -0.2006
  140POPC   C4A 1989   0.675  10.537   5.508 -0.3460 -0.0387 -0.0412
  140POPC   C1B 1990   0.276  10.088   6.636  0.2381 -0.0479  0.3094
  140POPC   C2B 1991   0.399   9.969   6.265  0.1208 -0.1547  0.2118
  140POPC   C3B 1992   0.213  10.043   5.840  0.1835 -0.0714  0.0683
  140POPC   C4B 1993   0.233  10.307   5.542  0.0675  0.1951  0.0996
  141POPC   NC3 1994   2.159   0.971   7.645  0.2505 -0.0137 -0.1532
  141POPC   PO4 1995   2.025   0.680   7.909  0.0059 -0.1209  0.0158
  141POPC   GL1 1996   1.882   0.591   7.448  0.0064  0.0485 -0.0484
  141POPC   GL2 1997   2.043   0.441   7.229  0.2853 -0.1537  0.0142
  141POPC   C1A 1998   1.783   0.842   7.096  0.2414  0.5033 -0.0693
  141POPC   D2A 1999   1.733   1.106   6.684 -0.3312  0.1758 -0.2892
  141POPC   C3A 2000   1.391   1.342   6.473  0.2338  0.0251  0.0494
  141POPC   C4A 2001   1.189   1.401   6.113 -0.0469  0.1761 -0.2881
  141POPC   C1B 2002   2.147   0.384   6.764  0.1124  0.0381 -0.3921
  141POPC   C2B 2003   2.164   0.217   6.402 -0.2131  0.0847 -0.0668
  141POPC   C3B 2004   2.053   0.107   6.031 -0.2118  0.2536 -0.3259
  141POPC   C4B 2005   2.430   0.107   5.886  0.0846 -0.1146 -0.3014
  142POPC   NC3 2006   4.765   6.157   7.842  0.1675 -0.0444  0.1008
  142POPC   PO4 2007   4.845   5.842   7.549 -0.0219  0.0219  0.0027
  142POPC   GL1 2008   4.905   5.538   7.154 -0.1748  0.3254  0.0527
  142POPC   GL2 2009   5.233   5.332   7.081 -0.1333 -0.1045 -0.0683
  142POPC   C1A 2010   4.675   5.512   6.766  0.0490 -0.1120  0.0159
  142POPC   D2A 2011   4.559   5.711   6.517  0.1692 -0.1724 -0.0859
  142POPC   C3A 2012   4.666   6.084   6.298 -0.0367  0.1897 -0.1423
  142POPC   C4A 2013   4.999   6.062   6.056  0.0790 -0.1542 -0.0838
  142POPC   C1B 2014   5.082   5.184   6.585 -0.0572 -0.0585  0.0641
  142POPC   C2B 2015   5.021   5.088   6.153  0.2168 -0.3343  0.0825
  142POPC   C3B 2016   5.159   4.948   5.717  0.2565 -0.2232 -0.1898
  142POPC   C4B 2017   4.978   4.520   5.452 -0.2477  0.1506  0.2034
  143POPC   NC3 2018   1.549   1.584   7.966  0.1260 -0.0064 -0.1563
  143POPC   PO4 2019   1.584   1.249   7.714 -0.0473  0.0868 -0.2606
  143POPC   GL1 2020   1.567   1.292   7.287 -0.0578 -0.3995  0.0547
  143POPC   GL2 2021   1.830   1.351   7.226  0.0080  0.0220  0.0258
  143POPC   C1A 2022   1.365   1.177   6.983  0.2374  0.0901  0.0310
  143POPC   D2A 2023   1.251   0.781   6.798  0.1886  0.3693  0.2481
  143POPC   C3A 2024   1.247   0.868   6.300  0.2594 -0.3603 -0.3226
  143POPC   C4A 2025   1.577   0.684   6.102  0.0103 -0.1384  0.4615
  143POPC   C1B 2026   1.657   1.571   6.869 -0.1288  0.0275  0.3173
  143POPC   C2B 2027   1.860   1.525   6.382 -0.1916  0.0119  0.1270
  143POPC   C3B 2028   1.674   1.219   6.079 -0.1609 -0.1754 -0.0368
  143POPC   C4B 2029   1.573   1.154   5.677  0.0152  0.1572  0.2716
  144POPC   NC3 2030   6.345   0.417   7.872  0.1971 -0.3219 -0.2188
  144POPC   PO4 2031   5.943   0.264   7.624  0.0386  0.1009  0.2006
  144POPC   GL1 2032   5.941   0.318   7.163  0.2830 -0.1972 -0.2423
  144POPC   GL2 2033   5.693   0.202   6.941  0.2509 -0.2202 -0.1430
  144POPC   C1A 2034   6.106   0.364   6.697  0.0813  0.0175 -0.0000
  144POPC   D2A 2035   6.145   0.587   6.340 -0.2851  0.4397  0.0656
  144POPC   C3A 2036   6.193   0.848   5.918 -0.2638 -0.0065 -0.0206
  144POPC   C4A 2037   6.297   1.110   5.556 -0.2326  0.1230  0.0634
  144POPC   C1B 2038   5.702   0.102   6.543 -0.0682  0.3350  0.2699
  144POPC   C2B 2039   5.555   0.137   6.083 -0.1763 -0.3903 -0.2855
  144POPC   C3B 2040   5.378   0.365   5.795  0.2501 -0.0742 -0.1739
  144POPC   C4B 2041   5.322   0.822   5.625  0.0443 -0.1903 -0.0901
  145POPC   NC3 2042   5.146   3.212   7.691  0.3049 -0.5341 -0.0893
  145POPC   PO4 2043   5.595   3.236   7.605  0.2003  0.3634 -0.1854
  145POPC   GL1 2044   5.575   3.172   7.118  0.1460 -0.1222 -0.1757
  145POPC   GL2 2045   5.266   2.928   7.054  0.0379  0.0781 -0.0871
  145POPC   C1A 2046   5.608   3.287   6.609  0.1590  0.0036 -0.0456
  145POPC   D2A 2047   5.462   3.604   6.320 -0.0161 -0.0663 -0.2279
  145POPC   C3A 2048   5.179   3.811   6.528 -0.1448 -0.1417 -0.0614
  145POPC   C4A 2049   4.996   3.902   6.906  0.2479 -0.1122 -0.4146
  145POPC   C1B 2050   4.905   2.851   6.726 -0.0329 -0.2062  0.0908
  145POPC   C2B 2051   4.447   2.860   6.645  0.1594 -0.1112 -0.1640
  145POPC   C3B 2052   4.137   3.255   6.509 -0.0061 -0.2061 -0.0906
  145POPC   C4B 2053   3.652   3.234   6.519  0.0731 -0.0033  0.2303
  146POPC   NC3 2054   3.989   2.459   7.936 -0.0627  0.2305 -0.3857
  146POPC   PO4 2055   4.390   2.180   7.971  0.2270 -0.0273 -0.0662
  146POPC   GL1 2056   4.439   2.294   7.561  0.1658  0.1607 -0.1578
  146POPC   GL2 2057   4.322   2.576   7.534  0.1192  0.3139  0.1754
  146POPC   C1A 2058   4.793   2.105   7.275 -0.1564 -0.0611 -0.0082
  146POPC   D2A 2059   4.935   2.358   6.957 -0.2306  0.4517  0.1147
  146POPC   C3A 2060   4.738   2.380   6.563  0.0942 -0.2076 -0.2694
  146POPC   C4A 2061   4.601   2.464   6.130 -0.3841  0.0415  0.2378
  146POPC   C1B 2062   4.136   2.884   7.262  0.0327  0.0361 -0.0738
  146POPC   C2B 2063   3.996   2.897   6.825  0.3224  0.2455  0.2731
  146POPC   C3B 2064   3.909   2.805   6.399  0.1715  0.1355 -0.0679
  146POPC   C4B 2065   3.884   3.063   6.093 -0.1095  0.1288  0.1691
  147POPC   NC3 2066   9.413   6.610   8.135 -0.0961  0.2044 -0.1477
  147POPC   PO4 2067   9.025   6.484   7.984 -0.1630 -0.0817  0.2272
  147POPC   GL1 2068   9.043   6.398   7.530 -0.0945  0.2709 -0.0495
  147POPC   GL2 2069   8.788   6.250   7.489  0.0373 -0.0191 -0.3014
  147POPC   C1A 2070   9.225   6.503   7.174  0.3607  0.2833 -0.2934
  147POPC   D2A 2071   9.301   6.318   6.921  0.2514  0.1094  0.0270
  147POPC   C3A 2072   9.252   6.391   6.477 -0.0302  0.1475  0.3663
  147POPC   C4A 2073   8.930   6.365   6.182  0.3814 -0.0727  0.0700
  147POPC   C1B 2074   9.086   6.021   7.279  0.2686 -0.0864 -0.0802
  147POPC   C2B 2075   9.187   5.813   6.967 -0.0194 -0.0006 -0.0115
  147POPC   C3B 2076   9.019   5.377   6.698  0.4734 -0.1771 -0.2182
  147POPC   C4B 2077   9.087   4.924   6.697  0.1686  0.0034 -0.1793
  148POPC   NC3 2078   6.529   4.427   7.712  0.0884 -0.1578 -0.0835
  148POPC   PO4 2079   6.098   4.303   7.616 -0.3566 -0.1903 -0.3110
  148POPC   GL1 2080   5.989   4.494   7.147 -0.6036 -0.1294 -0.6494
  148POPC   GL2 2081   5.770   4.265   7.073 -0.1384 -0.1919  0.0972
  148POPC   C1A 2082   5.875   4.702   6.768  0.1927 -0.1738  0.0190
  148POPC   D2A 2083   5.723   4.597   6.515  0.0791 -0.2068 -0.0954
  148POPC   C3A 2084   5.853   4.570   6.183  0.0786 -0.0756  0.2936
  148POPC   C4A 2085   5.732   4.625   5.778 -0.0648  0.2201  0.0452
  148POPC   C1B 2086   5.351   4.357   6.824 -0.0613 -0.0055  0.1175
  148POPC   C2B 2087   4.979   4.259   6.483  0.0162  0.2833  0.0596
  148POPC   C3B 2088   4.859   4.090   6.106  0.1659 -0.2133 -0.2899
  148POPC   C4B 2089   4.905   4.059   5.668 -0.5882 -0.0107  0.0982
  149POPC   NC3 2090   3.477   3.154   8.269 -0.0657 -0.1598 -0.1072
  149POPC   PO4 2091   3.756   2.809   8.167  0.1965 -0.1186 -0.0815
  149POPC   GL1 2092   3.522   2.778   7.848  0.0719 -0.0037  0.2896
  149POPC   GL2 2093   3.615   2.996   7.649  0.0319 -0.0833 -0.1924
  149POPC   C1A 2094   3.175   2.676   7.540  0.0274  0.3054 -0.0547
  149POPC   D2A 2095   3.049   2.564   7.182  0.0530  0.0192  0.2303
  149POPC   C3A 2096   2.912   2.570   6.859  0.2739 -0.1189 -0.1567
  149POPC   C4A 2097   2.442   2.706   6.735  0.0271  0.0634 -0.2565
  149POPC   C1B 2098   3.586   2.633   7.307 -0.2427 -0.0061  0.0949
  149POPC   C2B 2099   3.977   2.414   7.215  0.0474  0.1929 -0.1234
  149POPC   C3B 2100   4.473   2.484   7.052  0.2232 -0.0778  0.0971
  149POPC   C4B 2101   4.755   2.686   7.195  0.3832 -0.2373 -0.0316
  150POPC   NC3 2102   1.187   8.400   8.264 -0.0792  0.0172  0.0616
  150POPC   PO4 2103   1.151   8.262   7.905 -0.0514 -0.1255 -0.0190
  150POPC   GL1 2104   1.108   8.230   7.448 -0.1923  0.1793 -0.0861
  150POPC   GL2 2105   0.907   8.373   7.304 -0.0989  0.1621  0.0069
  150POPC   C1A 2106   1.118   8.034   6.939 -0.1312 -0.0341  0.3154
  150POPC   D2A 2107   1.312   7.728   6.652  0.2473  0.0115 -0.0394
  150POPC   C3A 2108   1.649   7.887   6.295 -0.1157 -0.0039 -0.0735
  150POPC   C4A 2109   1.502   8.119   5.907 -0.0909  0.1605 -0.1650
  150POPC   C1B 2110   0.838   8.703   7.031 -0.0901 -0.1387 -0.1921
  150POPC   C2B 2111   1.183   8.662   6.699 -0.2342  0.0428 -0.3257
  150POPC   C3B 2112   1.627   8.773   6.688  0.1874 -0.2155 -0.1596
  150POPC   C4B 2113   2.025   8.888   6.764 -0.0020 -0.0070 -0.0164
  151POPC   NC3 2114  10.537   7.343   7.818 -0.1233 -0.1118 -0.0915
  151POPC   PO4 2115  10.813   7.502   7.905 -0.1633 -0.2438  0.1271
  151POPC   GL1 2116  11.003   7.250   7.607  0.0108 -0.1287  0.0685
  151POPC   GL2 2117  11.284   7.347   7.671 -0.0559 -0.1103 -0.2210
  151POPC   C1A 2118  10.879   6.825   7.439  0.1038  0.0014  0.2223
  151POPC   D2A 2119  10.838   6.524   7.187 -0.5126  0.1875  0.3278
  151POPC   C3A 2120  11.112   6.360   6.878  0.1416  0.0913 -0.0630
  151POPC   C4A 2121  11.269   5.960   6.596  0.0138  0.0765 -0.0301
  151POPC   C1B 2122  11.289   7.319   7.237  0.0901 -0.3159  0.0539
  151POPC   C2B 2123  10.985   6.959   6.938 -0.2366 -0.2995 -0.1678
  151POPC   C3B 2124  10.999   6.787   6.546  0.0757 -0.1728 -0.1155
  151POPC   C4B 2125  11.069   6.578   6.087  0.0555 -0.1948  0.2648
  152POPC   NC3 2126   4.226   7.068   8.181 -0.3636  0.1841 -0.1373
  152POPC   PO4 2127   4.075   6.898   7.839 -0.0197  0.1726 -0.1980
  152POPC   GL1 2128   4.128   7.039   7.334 -0.1229  0.0217 -0.0310
  152POPC   GL2 2129   3.877   6.923   7.106  0.2937  0.0017  0.0153
  152POPC   C1A 2130   4.066   7.424   6.954  0.0567  0.3107 -0.2379
  152POPC   D2A 2131   3.939   7.774   6.595 -0.1413  0.0962  0.1033
  152POPC   C3A 2132   4.149   8.001   6.307  0.0184  0.0135  0.0995
  152POPC   C4A 2133   4.155   8.270   5.863 -0.0547  0.1442 -0.0320
  152POPC   C1B 2134   3.852   7.079   6.650 -0.0408 -0.0496  0.0810
  152POPC   C2B 2135   3.662   7.090   6.208 -0.2464  0.1992 -0.0011
  152POPC   C3B 2136   3.722   7.106   5.758  0.0424 -0.3067  0.0666
  152POPC   C4B 2137   3.909   6.739   5.419 -0.1097  0.1258  0.1003
  153POPC   NC3 2138   9.343   2.831   8.021  0.0248 -0.2383  0.1637
  153POPC   PO4 2139   9.673   3.139   8.079 -0.1072 -0.0109 -0.2059
  153POPC   GL1 2140   9.935   3.249   7.719  0.2627  0.2301  0.2380
  153POPC   GL2 2141   9.661   3.392   7.597  0.0907 -0.2312  0.0649
  153POPC   C1A 2142  10.028   3.046   7.295  0.1962  0.0949  0.1500
  153POPC   D2A 2143  10.121   2.858   6.903  0.0180 -0.0369 -0.0786
  153POPC   C3A 2144  10.415   3.195   6.664 -0.2257  0.0741 -0.0105
  153POPC   C4A 2145  10.536   3.593   6.608  0.0820  0.1851 -0.0583
  153POPC   C1B 2146   9.700   3.732   7.201  0.0941 -0.2957 -0.0407
  153POPC   C2B 2147   9.690   3.645   6.637  0.2037  0.1663 -0.0629
  153POPC   C3B 2148   9.535   3.507   6.199 -0.0844  0.2548  0.1207
  153POPC   C4B 2149   9.388   3.722   5.794 -0.0423  0.1645 -0.0836
  154POPC   NC3 2150   8.679   3.863   8.138  0.2890 -0.1502 -0.2363
  154POPC   PO4 2151   9.053   4.090   7.975  0.1342  0.1734  0.2783
  154POPC   GL1 2152   8.900   4.280   7.562  0.1821  0.2209  0.0550
  154POPC   GL2 2153   9.149   4.166   7.340  0.1157 -0.3533 -0.5205
  154POPC   C1A 2154   8.830   4.487   7.171  0.2388 -0.5735  0.4707
  154POPC   D2A 2155   8.988   4.395   6.742  0.0821  0.0923 -0.0870
  154POPC   C3A 2156   9.406   4.497   6.559 -0.0439 -0.2455  0.2001
  154POPC   C4A 2157   9.846   4.516   6.339  0.0404 -0.1647 -0.1574
  154POPC   C1B 2158   8.950   3.841   7.063  0.0538 -0.1054  0.0594
  154POPC   C2B 2159   8.628   3.639   6.894 -0.2268 -0.0449 -0.3882
  154POPC   C3B 2160   8.319   3.637   6.568 -0.2905 -0.1683 -0.1225
  154POPC   C4B 2161   8.158   3.706   6.149  0.1125 -0.0619  0.1650
  155POPC   NC3 2162  10.628   8.658   7.521  0.0335  0.1865  0.0435
  155POPC   PO4 2163  10.721   9.053   7.566 -0.0137 -0.0716  0.0381
  155POPC   GL1 2164  10.520   9.080   7.137  0.0047  0.1667  0.2113
  155POPC   GL2 2165  10.466   8.831   7.067  0.0095  0.0781 -0.2908
  155POPC   C1A 2166  10.616   9.125   6.704 -0.0626  0.0595 -0.0679
  155POPC   D2A 2167  10.984   9.128   6.468  0.3284  0.0433  0.0140
  155POPC   C3A 2168  11.181   8.641   6.492  0.1000 -0.0803  0.2419
  155POPC   C4A 2169  11.185   8.436   6.092 -0.0769 -0.2160 -0.0387
  155POPC   C1B 2170  10.299   8.633   6.688 -0.1780 -0.2715 -0.5313
  155POPC   C2B 2171  10.376   8.159   6.528  0.1178 -0.1555 -0.3872
  155POPC   C3B 2172  10.475   7.712   6.481 -0.0413  0.1062 -0.2422
  155POPC   C4B 2173  10.764   7.604   6.262  0.0242  0.1245  0.3046
  156POPC   NC3 2174   5.081   7.760   7.776 -0.2182 -0.3485  0.0997
  156POPC   PO4 2175   5.051   8.146   7.617 -0.2045  0.0961 -0.2782
  156POPC   GL1 2176   5.048   8.080   7.220 -0.5244  0.4891  0.0300
  156POPC   GL2 2177   5.361   8.008   7.131 -0.0165 -0.0240  0.2444
  156POPC   C1A 2178   5.036   8.321   6.789  0.1634 -0.2293 -0.0190
  156POPC   D2A 2179   5.007   8.409   6.364  0.3141 -0.2980 -0.3038
  156POPC   C3A 2180   4.856   8.134   6.126  0.4556 -0.2367 -0.3297
  156POPC   C4A 2181   5.115   7.954   5.919  0.0143  0.2034  0.2871
  156POPC   C1B 2182   5.354   7.695   6.855 -0.0010  0.2022 -0.0564
  156POPC   C2B 2183   5.383   7.492   6.412 -0.3222 -0.1484 -0.0913
  156POPC   C3B 2184   5.041   7.508   6.210  0.2854 -0.1184  0.3561
  156POPC   C4B 2185   4.623   7.593   6.192 -0.0279 -0.2491 -0.2048
  157POPC   NC3 2186   3.102   3.888   8.094 -0.2374  0.0891  0.0722
  157POPC   PO4 2187   3.035   3.494   8.043  0.0100  0.0458 -0.2608
  157POPC   GL1 2188   3.180   3.244   7.786  0.0374  0.0885  0.2259
  157POPC   GL2 2189   2.970   2.981   7.941 -0.1133 -0.2549  0.0202
  157POPC   C1A 2190   3.208   3.226   7.353  0.0632  0.1558 -0.0320
  157POPC   D2A 2191   3.261   3.350   6.923 -0.1299 -0.0020  0.2031
  157POPC   C3A 2192   3.483   3.653   6.759 -0.2199 -0.1104  0.0086
  157POPC   C4A 2193   3.598   3.751   6.358  0.1735 -0.1124 -0.0620
  157POPC   C1B 2194   2.816   2.973   7.440  0.1273  0.1872 -0.0685
  157POPC   C2B 2195   2.762   3.012   7.052  0.2106 -0.0071  0.1378
  157POPC   C3B 2196   2.853   2.971   6.563  0.1709 -0.0917 -0.1105
  157POPC   C4B 2197   2.868   2.976   6.120  0.1434  0.0816  0.1782
  158POPC   NC3 2198   3.109   0.614   7.816 -0.0333 -0.1884 -0.2351
  158POPC   PO4 2199   3.024   1.017   7.646  0.0466  0.0621  0.2876
  158POPC   GL1 2200   2.644   0.966   7.361  0.1541 -0.1430 -0.1734
  158POPC   GL2 2201   2.438   0.703   7.357  0.1597 -0.0044 -0.1013
  158POPC   C1A 2202   2.719   1.059   6.943 -0.0466  0.2301 -0.0034
  158POPC   D2A 2203   2.683   1.326   6.668 -0.2656 -0.0171  0.0435
  158POPC   C3A 2204   2.933   1.676   6.508 -0.1443 -0.0605 -0.2285
  158POPC   C4A 2205   2.818   1.919   6.205  0.2141  0.0765 -0.1620
  158POPC   C1B 2206   2.268   0.892   6.987 -0.0869 -0.1750  0.1198
  158POPC   C2B 2207   2.358   0.947   6.610  0.1770  0.1698  0.0963
  158POPC   C3B 2208   2.337   1.124   6.275 -0.0857 -0.0361 -0.1002
  158POPC   C4B 2209   2.288   1.310   6.022  0.1308 -0.1287  0.0592
  159POPC   NC3 2210   4.782   4.849   7.758 -0.1847  0.2870 -0.2209
  159POPC   PO4 2211   4.752   4.445   7.866  0.1160  0.2750 -0.1268
  159POPC   GL1 2212   4.634   4.469   7.457  0.0087 -0.5199  0.0199
  159POPC   GL2 2213   4.714   4.175   7.209  0.2583  0.0760 -0.0663
  159POPC   C1A 2214   4.423   4.785   7.137  0.0148 -0.2255 -0.1304
  159POPC   D2A 2215   4.431   5.160   7.023 -0.2005 -0.2843 -0.0521
  159POPC   C3A 2216   4.145   5.422   6.847  0.2782  0.1779  0.0288
  159POPC   C4A 2217   3.898   5.217   6.533  0.1076 -0.1657 -0.0278
  159POPC   C1B 2218   4.563   4.373   6.838 -0.0221 -0.0133  0.5584
  159POPC   C2B 2219   4.466   4.408   6.374  0.0913  0.0164 -0.3981
  159POPC   C3B 2220   4.847   4.647   6.189  0.3994  0.1453 -0.1423
  159POPC   C4B 2221   5.209   4.460   5.977  0.1130 -0.2256 -0.1841
  160POPC   NC3 2222   6.127   7.847   7.290  0.1432 -0.2859  0.1926
  160POPC   PO4 2223   5.920   8.232   7.325 -0.0691 -0.1169  0.0219
  160POPC   GL1 2224   5.897   8.199   6.894 -0.0610  0.0884 -0.1045
  160POPC   GL2 2225   6.253   8.159   6.882  0.0657  0.0146 -0.1828
  160POPC   C1A 2226   5.510   8.214   6.625  0.0017  0.3953  0.0021
  160POPC   D2A 2227   5.301   7.970   6.421  0.0790  0.0865  0.2431
  160POPC   C3A 2228   4.889   7.846   6.628 -0.4677 -0.0126  0.0097
  160POPC   C4A 2229   4.432   7.657   6.665 -0.2866  0.0222 -0.2379
  160POPC   C1B 2230   6.395   7.871   6.695 -0.3245 -0.1851  0.2252
  160POPC   C2B 2231   6.575   7.655   6.280  0.0168 -0.1621  0.2217
  160POPC   C3B 2232   6.921   7.628   5.951  0.0508 -0.1530 -0.1479
  160POPC   C4B 2233   7.257   7.976   5.754 -0.0312  0.2601 -0.0772
  161POPC   NC3 2234   9.888   1.439   8.388 -0.0481  0.3800  0.1194
  161POPC   PO4 2235  10.158   1.657   8.024 -0.2646  0.2431  0.2256
  161POPC   GL1 2236  10.346   1.861   7.620 -0.0284  0.3492 -0.1229
  161POPC   GL2 2237  10.255   1.720   7.354  0.3405  0.4137  0.2188
  161POPC   C1A 2238  10.512   2.022   7.044 -0.4892 -0.0880  0.1292
  161POPC   D2A 2239  10.599   2.199   6.655 -0.1836 -0.4939 -0.0400
  161POPC   C3A 2240  10.312   2.097   6.305 -0.3387  0.1079 -0.1220
  161POPC   C4A 2241  10.138   2.407   6.018 -0.3597  0.0310  0.3356
  161POPC   C1B 2242  10.072   1.631   7.056 -0.2623 -0.0667 -0.0782
  161POPC   C2B 2243  10.063   1.853   6.709  0.1067 -0.2781  0.2522
  161POPC   C3B 2244   9.773   2.180   6.461  0.1778  0.2198  0.1358
  161POPC   C4B 2245   9.689   2.552   6.308 -0.2111  0.1020  0.0068
  162POPC   NC3 2246   8.916   4.654   8.104  0.0276 -0.1125 -0.0056
  162POPC   PO4 2247   8.732   4.954   7.962 -0.2733  0.2615  0.1469
  162POPC   GL1 2248   8.984   4.780   7.587  0.1289  0.0686 -0.1063
  162POPC   GL2 2249   9.310   4.610   7.744  0.1495 -0.1638  0.0250
  162POPC   C1A 2250   9.268   4.736   7.163 -0.0043 -0.1520  0.0826
  162POPC   D2A 2251   9.583   4.852   6.906 -0.5317 -0.2302 -0.1918
  162POPC   C3A 2252   9.870   4.540   7.106 -0.0979 -0.1749 -0.0200
  162POPC   C4A 2253  10.172   4.385   7.575  0.1266  0.4655 -0.2110
  162POPC   C1B 2254   9.729   4.580   7.794 -0.0865  0.1273 -0.1825
  162POPC   C2B 2255  10.058   4.944   7.873  0.0546  0.4764  0.1490
  162POPC   C3B 2256   9.845   5.378   7.722 -0.0895  0.2273  0.1163
  162POPC   C4B 2257   9.779   5.725   7.719  0.1176  0.1304  0.0801
  163POPC   NC3 2258   7.087   8.756   8.087  0.1381  0.2474  0.0241
  163POPC   PO4 2259   7.200   8.557   7.569 -0.1442 -0.0048 -0.2447
  163POPC   GL1 2260   7.236   8.558   7.129 -0.1433  0.0466 -0.1231
  163POPC   GL2 2261   7.467   8.718   7.107 -0.1088  0.0357  0.0042
  163POPC   C1A 2262   7.209   8.312   6.769 -0.2650 -0.0692 -0.0976
  163POPC   D2A 2263   7.246   8.423   6.315 -0.2118 -0.1510 -0.1380
  163POPC   C3A 2264   7.548   8.314   6.016 -0.0573  0.2491 -0.0338
  163POPC   C4A 2265   7.834   8.580   5.836  0.0719  0.2491 -0.2652
  163POPC   C1B 2266   7.812   8.827   6.845  0.2494 -0.1317  0.1406
  163POPC   C2B 2267   8.225   8.954   6.784 -0.2128  0.0420  0.2561
  163POPC   C3B 2268   8.226   9.191   6.352  0.2010 -0.3618  0.0858
  163POPC   C4B 2269   8.201   9.214   5.887  0.1017 -0.2436  0.3599
  164POPC   NC3 2270   8.787   9.938   7.112 -0.0498 -0.2130 -0.4186
  164POPC   PO4 2271   9.046  10.379   7.078  0.2628 -0.0735 -0.1991
  164POPC   GL1 2272   9.280  10.283   6.821 -0.0901 -0.3445 -0.0308
  164POPC   GL2 2273   9.463  10.463   6.839 -0.0128  0.0037  0.0196
  164POPC   C1A 2274   9.172  10.282   6.393  0.4663  0.1512  0.2128
  164POPC   D2A 2275   9.294  10.364   6.027  0.2162 -0.2264  0.4225
  164POPC   C3A 2276   9.613  10.084   5.832 -0.0155  0.1929  0.0319
  164POPC   C4A 2277   9.663   9.720   5.686 -0.2177 -0.1302 -0.3411
  164POPC   C1B 2278   9.198  10.763   6.630 -0.0563 -0.0620 -0.4057
  164POPC   C2B 2279   9.047  11.087   6.342  0.0023  0.3236  0.1636
  164POPC   C3B 2280   9.158  10.969   5.831 -0.2610  0.0074  0.1564
  164POPC   C4B 2281   9.290  10.999   5.467  0.2026  0.2105 -0.1315
  165POPC   NC3 2282   9.354   1.753   7.567 -0.3118  0.1673  0.4595
  165POPC   PO4 2283   8.876   1.697   7.622  0.0872  0.1570  0.3255
  165POPC   GL1 2284   8.651   1.913   7.239  0.0160  0.0762 -0.1800
  165POPC   GL2 2285   8.564   2.266   7.217 -0.1090 -0.2800  0.0589
  165POPC   C1A 2286   8.539   1.809   6.804 -0.0220  0.1480  0.2740
  165POPC   D2A 2287   8.066   1.630   6.563 -0.0875  0.0108  0.3087
  165POPC   C3A 2288   8.043   1.355   6.161  0.0719  0.3486 -0.1182
  165POPC   C4A 2289   7.824   1.064   5.844 -0.1108  0.0892 -0.2226
  165POPC   C1B 2290   8.795   2.518   6.968 -0.1082 -0.0821 -0.2263
  165POPC   C2B 2291   8.962   2.719   6.592 -0.3451  0.3436  0.1202
  165POPC   C3B 2292   8.872   2.998   6.243 -0.0412 -0.0216 -0.0814
  165POPC   C4B 2293   8.880   2.867   5.783 -0.0567 -0.0121  0.0479
  166POPC   NC3 2294   3.417   5.063   7.780 -0.2604  0.2624  0.0447
  166POPC   PO4 2295   3.445   4.628   7.882  0.1498 -0.0915 -0.2536
  166POPC   GL1 2296   3.127   4.714   7.447 -0.1270 -0.3354  0.2542
  166POPC   GL2 2297   3.054   4.972   7.339 -0.2446 -0.0710  0.2731
  166POPC   C1A 2298   3.130   4.614   6.911  0.3999  0.0122 -0.3360
  166POPC   D2A 2299   2.969   4.740   6.602 -0.0596 -0.1930  0.1567
  166POPC   C3A 2300   2.682   4.650   6.357  0.1839 -0.1795  0.0144
  166POPC   C4A 2301   2.679   4.355   5.998  0.0494 -0.0739 -0.2017
  166POPC   C1B 2302   3.158   5.095   6.913 -0.2637 -0.0171  0.3408
  166POPC   C2B 2303   3.365   5.261   6.561  0.0552 -0.2853  0.5542
  166POPC   C3B 2304   3.124   5.430   6.193  0.1181  0.3004  0.0044
  166POPC   C4B 2305   2.764   5.524   5.948 -0.1409 -0.1638 -0.1641
  167POPC   NC3 2306   4.323   5.903   7.590 -0.0312  0.0767 -0.1596
  167POPC   PO4 2307   4.455   5.493   7.440  0.1700 -0.0960 -0.0058
  167POPC   GL1 2308   4.483   5.861   7.153  0.3219 -0.1526  0.0036
  167POPC   GL2 2309   4.260   6.046   7.048  0.1099  0.1576  0.2309
  167POPC   C1A 2310   4.827   6.105   6.857  0.0385 -0.4766 -0.1240
  167POPC   D2A 2311   5.097   6.312   6.532  0.1266 -0.0059 -0.1715
  167POPC   C3A 2312   4.989   6.573   6.214  0.1799  0.0827  0.3773
  167POPC   C4A 2313   4.893   6.762   5.814  0.1333 -0.2831 -0.0983
  167POPC   C1B 2314   4.137   5.879   6.732 -0.2675  0.1449 -0.1445
  167POPC   C2B 2315   3.887   5.678   6.306 -0.0298  0.0635  0.0888
  167POPC   C3B 2316   3.750   5.371   6.043 -0.1057  0.0876  0.0174
  167POPC   C4B 2317   3.836   5.047   5.754 -0.0017  0.1333 -0.0856
  168POPC   NC3 2318   6.594   0.985   8.445 -0.0279  0.0501 -0.1374
  168POPC   PO4 2319   6.321   0.862   8.086 -0.1022 -0.0777  0.3612
  168POPC   GL1 2320   6.128   1.182   7.683 -0.2693 -0.1900  0.0876
  168POPC   GL2 2321   5.841   1.334   7.769  0.0168 -0.2048 -0.3398
  168POPC   C1A 2322   6.107   1.261   7.176 -0.2392  0.1461  0.0197
  168POPC   D2A 2323   6.261   1.409   6.696  0.1188 -0.0070 -0.0207
  168POPC   C3A 2324   6.084   1.515   6.198 -0.2277  0.0448 -0.1361
  168POPC   C4A 2325   5.858   1.258   5.951 -0.2198 -0.0057  0.0527
  168POPC   C1B 2326   5.959   1.593   7.433  0.2230 -0.4087 -0.0083
  168POPC   C2B 2327   5.770   1.929   7.266 -0.1024  0.0191  0.1703
  168POPC   C3B 2328   5.836   2.154   6.908  0.0543 -0.1730  0.0069
  168POPC   C4B 2329   5.941   2.447   6.557  0.1108 -0.1645 -0.2922
  169POPC   NC3 2330   7.462   3.947   7.603  0.3507  0.2368  0.0744
  169POPC   PO4 2331   7.401   3.467   7.791 -0.1264  0.1271 -0.1503
  169POPC   GL1 2332   7.269   3.555   7.391  0.1605  0.1773  0.1738
  169POPC   GL2 2333   7.613   3.578   7.277  0.4882 -0.2596  0.2178
  169POPC   C1A 2334   7.337   3.636   6.891 -0.1996 -0.1504 -0.0984
  169POPC   D2A 2335   7.314   3.708   6.479  0.0136  0.1909  0.1192
  169POPC   C3A 2336   7.484   3.492   6.078 -0.0755 -0.3178  0.0536
  169POPC   C4A 2337   7.436   3.451   5.637  0.0079  0.1936 -0.1645
  169POPC   C1B 2338   7.633   4.060   7.023 -0.2026  0.2127  0.5146
  169POPC   C2B 2339   7.612   4.080   6.600  0.2329  0.2235  0.1700
  169POPC   C3B 2340   7.663   3.931   6.153  0.2318 -0.0712  0.1800
  169POPC   C4B 2341   7.274   3.872   5.891  0.0370 -0.2599 -0.1059
  170POPC   NC3 2342   2.308   5.822   7.792  0.0235 -0.1047 -0.0486
  170POPC   PO4 2343   2.737   5.751   7.959 -0.0567 -0.0165  0.1580
  170POPC   GL1 2344   2.697   5.815   7.523  0.0582 -0.0208  0.4064
  170POPC   GL2 2345   2.928   6.025   7.349 -0.0064  0.2838 -0.3058
  170POPC   C1A 2346   2.480   5.951   7.045  0.1196  0.1484 -0.2721
  170POPC   D2A 2347   2.334   6.142   6.741 -0.2288 -0.1083  0.0350
  170POPC   C3A 2348   2.257   5.926   6.284  0.1020 -0.1530  0.3292
  170POPC   C4A 2349   2.404   6.013   5.865  0.0388 -0.0798 -0.0457
  170POPC   C1B 2350   2.861   6.464   7.219 -0.0164  0.2165  0.1474
  170POPC   C2B 2351   3.008   6.591   6.744  0.0557  0.1035 -0.0344
  170POPC   C3B 2352   3.139   6.398   6.295  0.0551  0.2104 -0.1532
  170POPC   C4B 2353   3.089   6.301   5.883  0.0552  0.1337  0.0532
  171POPC   NC3 2354   7.897   6.258   7.980 -0.3756 -0.0302  0.1971
  171POPC   PO4 2355   7.717   6.327   7.551  0.0507 -0.1669  0.0174
  171POPC   GL1 2356   7.780   6.400   7.232 -0.1045 -0.0140  0.0111
  171POPC   GL2 2357   7.885   6.089   7.097 -0.0306 -0.1798  0.2956
  171POPC   C1A 2358   8.136   6.421   6.787  0.1107  0.1480  0.0852
  171POPC   D2A 2359   8.416   6.640   6.561  0.4165  0.0133  0.1045
  171POPC   C3A 2360   8.551   6.741   6.128  0.2475 -0.1406 -0.0757
  171POPC   C4A 2361   8.531   6.956   5.914  0.2443  0.1988  0.1461
  171POPC   C1B 2362   7.656   6.373   6.713 -0.3075  0.0594  0.2818
  171POPC   C2B 2363   7.399   6.750   6.621  0.0900  0.2752 -0.3802
  171POPC   C3B 2364   7.065   7.099   6.771  0.1416 -0.2333 -0.0404
  171POPC   C4B 2365   6.643   7.283   6.737  0.0397  0.0010  0.1183
  172POPC   NC3 2366   7.504   6.941   8.270  0.3126 -0.1158 -0.2343
  172POPC   PO4 2367   7.452   7.219   7.923  0.0043  0.4563  0.0449
  172POPC   GL1 2368   7.462   7.030   7.483  0.0773  0.0325 -0.1839
  172POPC   GL2 2369   7.743   6.886   7.395 -0.1631 -0.3301 -0.0863
  172POPC   C1A 2370   7.287   6.916   7.164  0.0486 -0.1965  0.2069
  172POPC   D2A 2371   6.828   6.745   7.116 -0.1170  0.0130 -0.2282
  172POPC   C3A 2372   6.620   6.764   6.762  0.5121 -0.1268 -0.0266
  172POPC   C4A 2373   6.417   6.894   6.411  0.0109  0.2489 -0.0048
  172POPC   C1B 2374   7.755   6.816   6.971 -0.2201  0.1340 -0.0486
  172POPC   C2B 2375   7.865   6.787   6.502 -0.3195  0.1629 -0.0255
  172POPC   C3B 2376   8.039   6.884   6.120  0.0541  0.0899 -0.0771
  172POPC   C4B 2377   8.066   6.848   5.731 -0.1232  0.0048  0.0817
  173POPC   NC3 2378   4.585   0.132   7.378 -0.4335  0.0280 -0.0055
  173POPC   PO4 2379   5.100   0.141   7.442 -0.0439 -0.0828 -0.0745
  173POPC   GL1 2380   5.220  -0.008   7.019  0.0553 -0.0667  0.0867
  173POPC   GL2 2381   5.218   0.312   6.921 -0.2018 -0.3798 -0.0149
  173POPC   C1A 2382   5.250  -0.014   6.506 -0.0056 -0.0260 -0.1651
  173POPC   D2A 2383   5.036   0.029   6.035  0.0827 -0.1987  0.1741
  173POPC   C3A 2384   5.244  -0.249   5.742 -0.0431 -0.1382 -0.0723
  173POPC   C4A 2385   5.557  -0.488   5.761 -0.1865 -0.1091 -0.1144
  173POPC   C1B 2386   5.181   0.521   6.497  0.0876 -0.0128 -0.0266
  173POPC   C2B 2387   5.189   0.748   6.155 -0.1865  0.2209 -0.0108
  173POPC   C3B 2388   5.073   1.165   5.924 -0.2057 -0.1472  0.2162
  173POPC   C4B 2389   4.911   1.490   5.951  0.0981  0.2386 -0.1333
  174POPC   NC3 2390   9.098   3.976   3.153  0.0205 -0.0668 -0.2008
  174POPC   PO4 2391   8.854   3.944   3.514  0.1757 -0.0238 -0.0984
  174POPC   GL1 2392   8.877   3.836   3.918 -0.3207  0.0066  0.2207
  174POPC   GL2 2393   9.090   3.698   3.966 -0.3463 -0.3181 -0.0185
  174POPC   C1A 2394   8.793   3.840   4.360 -0.2477 -0.1503  0.1847
  174POPC   D2A 2395   8.860   3.666   4.726  0.2003 -0.0341 -0.2869
  174POPC   C3A 2396   8.453   3.399   4.958 -0.1200  0.1627 -0.0289
  174POPC   C4A 2397   8.154   3.080   5.058  0.0431  0.4307  0.2635
  174POPC   C1B 2398   9.004   3.380   4.267  0.1272 -0.1227  0.4264
  174POPC   C2B 2399   9.256   3.095   4.349  0.1401 -0.2678 -0.3362
  174POPC   C3B 2400   9.679   3.056   4.384 -0.1062 -0.2315  0.0946
  174POPC   C4B 2401   9.963   2.806   4.202 -0.1006 -0.0025  0.2916
  175POPC   NC3 2402   5.224   3.060   3.885  0.2543  0.2327 -0.1658
  175POPC   PO4 2403   5.396   3.189   4.333  0.1814  0.2460  0.0525
  175POPC   GL1 2404   5.402   3.369   4.733 -0.0802  0.1745 -0.4189
  175POPC   GL2 2405   5.319   3.119   4.855 -0.0369 -0.0396 -0.1151
  175POPC   C1A 2406   5.308   3.614   5.195 -0.2343  0.2248 -0.1152
  175POPC   D2A 2407   5.087   3.520   5.595  0.3150 -0.2483 -0.4022
  175POPC   C3A 2408   5.229   3.312   5.876  0.2609 -0.1269 -0.2880
  175POPC   C4A 2409   5.287   2.903   5.982 -0.0848  0.1842  0.1790
  175POPC   C1B 2410   5.164   2.767   5.101 -0.2558 -0.1884 -0.0669
  175POPC   C2B 2411   5.209   2.702   5.533  0.1092 -0.0754 -0.0050
  175POPC   C3B 2412   5.130   2.362   5.832 -0.2088 -0.2079 -0.1308
  175POPC   C4B 2413   5.204   1.924   6.039 -0.0000 -0.1298 -0.2448
  176POPC   NC3 2414   7.821   6.416   4.269  0.1419 -0.1537  0.1410
  176POPC   PO4 2415   7.870   6.008   4.379 -0.1277 -0.0180 -0.0667
  176POPC   GL1 2416   7.846   6.210   4.761 -0.1776 -0.1545  0.3158
  176POPC   GL2 2417   8.070   6.374   4.873 -0.1567  0.0092  0.0007
  176POPC   C1A 2418   7.709   6.027   5.125  0.0137 -0.2132  0.2467
  176POPC   D2A 2419   7.809   5.710   5.404 -0.0818 -0.2391 -0.1926
  176POPC   C3A 2420   7.736   5.828   5.872 -0.0866  0.1989  0.2855
  176POPC   C4A 2421   7.479   5.905   6.215  0.0571 -0.0851 -0.0475
  176POPC   C1B 2422   8.132   6.348   5.321 -0.0062 -0.0301  0.3470
  176POPC   C2B 2423   7.927   6.330   5.785 -0.1461  0.3882  0.1704
  176POPC   C3B 2424   7.949   6.294   6.234 -0.0234 -0.0795  0.1891
  176POPC   C4B 2425   7.835   5.943   6.570 -0.1449  0.0883  0.4367
  177POPC   NC3 2426   8.442   7.675   4.226  0.3190  0.0266 -0.0891
  177POPC   PO4 2427   8.916   7.570   4.141 -0.1858 -0.2297 -0.1818
  177POPC   GL1 2428   8.664   7.389   4.598  0.0631 -0.0886  0.0989
  177POPC   GL2 2429   8.691   7.015   4.645  0.2138 -0.3353 -0.1087
  177POPC   C1A 2430   8.375   7.394   5.049  0.0592  0.0804 -0.1988
  177POPC   D2A 2431   8.529   7.348   5.527  0.0737  0.2490 -0.1389
  177POPC   C3A 2432   8.846   7.591   5.703 -0.0935 -0.1829  0.0066
  177POPC   C4A 2433   9.265   7.537   5.913  0.0924  0.0261  0.1356
  177POPC   C1B 2434   8.834   7.196   5.082  0.0022 -0.0275  0.1317
  177POPC   C2B 2435   9.233   7.310   5.325  0.2207 -0.0726  0.5768
  177POPC   C3B 2436   9.453   7.151   5.595 -0.0124 -0.0331  0.1268
  177POPC   C4B 2437   9.734   6.907   5.827  0.1049 -0.1150  0.2473
  178POPC   NC3 2438   2.452   4.240   3.095 -0.0393  0.1709  0.3985
  178POPC   PO4 2439   2.070   4.165   3.412  0.0639 -0.1213  0.1386
  178POPC   GL1 2440   2.009   4.011   3.820 -0.1097  0.0656  0.3129
  178POPC   GL2 2441   1.630   3.948   3.835  0.1223 -0.3043  0.1609
  178POPC   C1A 2442   2.206   3.679   4.108 -0.0539  0.3194 -0.0986
  178POPC   D2A 2443   2.583   3.631   4.439  0.1323  0.1578 -0.0937
  178POPC   C3A 2444   2.438   3.583   4.828  0.2414 -0.1890  0.0513
  178POPC   C4A 2445   2.054   3.605   5.089  0.0266  0.1222 -0.1037
  178POPC   C1B 2446   1.640   3.884   4.264 -0.2742  0.1683 -0.1863
  178POPC   C2B 2447   1.919   3.632   4.487 -0.4236 -0.4845 -0.0270
  178POPC   C3B 2448   2.081   3.252   4.747  0.0102 -0.3167  0.2052
  178POPC   C4B 2449   2.386   3.155   5.068 -0.2024 -0.0309  0.1463
  179POPC   NC3 2450   3.552   4.014   3.319  0.3015  0.1723 -0.1054
  179POPC   PO4 2451   3.793   4.134   3.644  0.2105 -0.2957  0.1004
  179POPC   GL1 2452   3.822   3.986   4.053  0.3465 -0.1035 -0.0754
  179POPC   GL2 2453   3.742   3.609   4.145 -0.1588  0.0097  0.2177
  179POPC   C1A 2454   3.919   3.996   4.443 -0.1881 -0.2232  0.1208
  179POPC   D2A 2455   3.903   3.605   4.826  0.0083 -0.4424 -0.2657
  179POPC   C3A 2456   3.903   3.561   5.241 -0.1772  0.1113  0.0134
  179POPC   C4A 2457   3.827   3.562   5.628  0.0432 -0.0267 -0.0210
  179POPC   C1B 2458   3.474   3.609   4.528  0.0290 -0.1687  0.2121
  179POPC   C2B 2459   3.492   3.301   4.849 -0.1319  0.2018 -0.0580
  179POPC   C3B 2460   3.447   3.298   5.256  0.0407  0.0936 -0.0090
  179POPC   C4B 2461   3.679   3.076   5.635 -0.1061  0.1577  0.4589
  180POPC   NC3 2462   4.944   2.608   3.309  0.2222 -0.2743 -0.2294
  180POPC   PO4 2463   5.251   2.585   3.581 -0.2097 -0.0527 -0.1265
  180POPC   GL1 2464   5.270   2.464   4.020  0.0240  0.0726 -0.1531
  180POPC   GL2 2465   5.132   2.732   4.256 -0.0024 -0.1190 -0.0340
  180POPC   C1A 2466   5.407   2.343   4.407  0.1052  0.3557 -0.0093
  180POPC   D2A 2467   5.331   2.234   4.789 -0.0270  0.0363 -0.0198
  180POPC   C3A 2468   5.141   2.000   5.048  0.0971  0.0183 -0.3550
  180POPC   C4A 2469   4.973   1.796   5.315 -0.1903 -0.0835 -0.1060
  180POPC   C1B 2470   4.922   2.653   4.623  0.0598  0.1221  0.2261
  180POPC   C2B 2471   4.695   2.780   4.861  0.0170  0.0739 -0.0831
  180POPC   C3B 2472   4.412   3.024   5.081  0.2761 -0.1320  0.2402
  180POPC   C4B 2473   4.390   3.451   5.383  0.2651  0.3329  0.1661
  181POPC   NC3 2474   8.583   2.604   3.923  0.1926 -0.1903  0.0589
  181POPC   PO4 2475   8.440   2.280   4.231  0.0824 -0.0611  0.2360
  181POPC   GL1 2476   8.545   2.659   4.439 -0.3441 -0.2569 -0.0553
  181POPC   GL2 2477   8.203   2.770   4.417  0.1656  0.3553  0.1194
  181POPC   C1A 2478   8.560   2.713   4.823  0.0875  0.0783  0.0223
  181POPC   D2A 2479   8.730   2.888   5.137  0.3187 -0.4421 -0.0254
  181POPC   C3A 2480   9.049   2.631   5.371  0.0293 -0.0140  0.0243
  181POPC   C4A 2481   9.200   2.306   5.623  0.2771 -0.1694 -0.0451
  181POPC   C1B 2482   7.883   2.688   4.810 -0.0567 -0.1881 -0.0073
  181POPC   C2B 2483   8.133   2.556   5.138  0.0622 -0.2895 -0.1934
  181POPC   C3B 2484   8.390   2.640   5.425  0.1564  0.0937 -0.2483
  181POPC   C4B 2485   8.335   2.915   5.774 -0.0802 -0.0517  0.1361
  182POPC   NC3 2486   5.625   7.385   3.687 -0.2834  0.3119  0.0705
  182POPC   PO4 2487   5.454   7.230   4.070  0.0168  0.3027  0.0614
  182POPC   GL1 2488   5.339   7.382   4.391  0.2724  0.1344 -0.1775
  182POPC   GL2 2489   5.056   7.607   4.520 -0.0897  0.2887 -0.0144
  182POPC   C1A 2490   5.395   7.422   4.854  0.0797  0.4379 -0.2808
  182POPC   D2A 2491   5.661   7.790   4.985 -0.0130 -0.2414 -0.4130
  182POPC   C3A 2492   6.031   7.768   4.785  0.2099  0.2977 -0.4703
  182POPC   C4A 2493   6.291   7.379   4.972 -0.2363  0.4783  0.2496
  182POPC   C1B 2494   5.001   7.670   4.982  0.0437 -0.4702 -0.1687
  182POPC   C2B 2495   5.248   8.018   5.046  0.1291 -0.2216  0.2245
  182POPC   C3B 2496   5.194   8.457   5.110  0.0772  0.0180 -0.0823
  182POPC   C4B 2497   5.553   8.746   5.238  0.1101 -0.1724 -0.0208
  183POPC   NC3 2498   3.889   9.876   3.685 -0.1576  0.1000 -0.0213
  183POPC   PO4 2499   3.905   9.420   3.677 -0.0688 -0.1127 -0.0856
  183POPC   GL1 2500   3.878   9.606   4.091 -0.2896 -0.3231 -0.1010
  183POPC   GL2 2501   4.266   9.535   4.090 -0.0592  0.1295 -0.1458
  183POPC   C1A 2502   3.594   9.655   4.458  0.0427 -0.2125 -0.5471
  183POPC   D2A 2503   3.538   9.484   4.832  0.0449 -0.3013  0.1418
  183POPC   C3A 2504   3.105   9.365   5.065  0.0842 -0.3126 -0.4677
  183POPC   C4A 2505   2.745   9.302   5.177  0.1639 -0.0282 -0.1601
  183POPC   C1B 2506   4.153   9.422   4.511  0.1816 -0.2268 -0.0824
  183POPC   C2B 2507   4.056   9.218   4.858 -0.0604 -0.1171  0.1410
  183POPC   C3B 2508   4.167   9.241   5.426  0.0469 -0.0699  0.1322
  183POPC   C4B 2509   3.950   9.555   5.702 -0.0377 -0.0331 -0.2944
  184POPC   NC3 2510   7.484   6.055   4.088  0.0449 -0.0513  0.2334
  184POPC   PO4 2511   7.004   6.091   4.075 -0.0159  0.1762 -0.1059
  184POPC   GL1 2512   6.944   6.199   4.481  0.0485 -0.0217 -0.0828
  184POPC   GL2 2513   7.237   6.022   4.530 -0.2267  0.0766 -0.0589
  184POPC   C1A 2514   6.844   6.424   4.895 -0.1124  0.2153  0.0600
  184POPC   D2A 2515   6.846   6.764   5.261  0.0022  0.2148 -0.1549
  184POPC   C3A 2516   6.718   6.687   5.528  0.2872  0.0789 -0.1806
  184POPC   C4A 2517   6.712   6.759   5.981  0.1209  0.3332 -0.1087
  184POPC   C1B 2518   7.402   6.288   4.879  0.1134 -0.2838 -0.2040
  184POPC   C2B 2519   7.304   6.436   5.279  0.1263 -0.1297  0.1106
  184POPC   C3B 2520   7.241   6.676   5.571  0.0165  0.2909  0.2548
  184POPC   C4B 2521   7.156   6.903   5.892  0.0474  0.0037 -0.1035
  185POPC   NC3 2522   4.010   1.639   3.931  0.1393  0.2833  0.0092
  185POPC   PO4 2523   3.584   1.816   3.692 -0.2314  0.1951  0.4344
  185POPC   GL1 2524   3.456   1.687   4.066  0.0494 -0.1464  0.1271
  185POPC   GL2 2525   3.241   1.469   4.235  0.0152  0.1954 -0.0091
  185POPC   C1A 2526   3.679   1.752   4.464 -0.2681 -0.1225 -0.3731
  185POPC   D2A 2527   3.689   1.880   4.881  0.0342 -0.2286 -0.2412
  185POPC   C3A 2528   3.661   1.996   5.239 -0.3667 -0.1324  0.0629
  185POPC   C4A 2529   3.943   1.853   5.535 -0.0187  0.0206  0.0859
  185POPC   C1B 2530   3.117   1.261   4.663 -0.0799 -0.2481  0.0505
  185POPC   C2B 2531   3.130   1.100   5.070 -0.1447 -0.3671 -0.1183
  185POPC   C3B 2532   3.207   1.360   5.393 -0.0376 -0.0452  0.3093
  185POPC   C4B 2533   3.491   1.667   5.595  0.0484  0.0672 -0.2495
  186POPC   NC3 2534   1.491   9.431   3.162 -0.1014  0.0394 -0.1482
  186POPC   PO4 2535   1.338   9.063   3.452  0.1076  0.0930 -0.0351
  186POPC   GL1 2536   1.525   9.078   3.909 -0.0061  0.0064 -0.1355
  186POPC   GL2 2537   1.925   8.907   4.046 -0.2322  0.4057  0.2077
  186POPC   C1A 2538   1.503   8.741   4.152 -0.2050 -0.1311  0.0974
  186POPC   D2A 2539   1.289   8.654   4.463 -0.2398  0.0577 -0.2083
  186POPC   C3A 2540   1.628   8.544   4.691 -0.1242  0.0400 -0.1844
  186POPC   C4A 2541   2.058   8.397   4.670 -0.0473 -0.1378 -0.3971
  186POPC   C1B 2542   1.960   8.817   4.490  0.2370  0.6252  0.0745
  186POPC   C2B 2543   2.258   8.839   4.861  0.0409 -0.4814  0.1068
  186POPC   C3B 2544   2.333   9.026   5.330 -0.1871 -0.2914  0.2757
  186POPC   C4B 2545   2.203   8.947   5.745 -0.0307 -0.1296  0.0738
  187POPC   NC3 2546   6.049   6.038   4.035  0.2602 -0.0333 -0.2855
  187POPC   PO4 2547   6.054   5.590   4.106 -0.5928 -0.0878  0.1448
  187POPC   GL1 2548   5.841   5.604   4.447 -0.3794  0.1038  0.4783
  187POPC   GL2 2549   5.810   5.915   4.461  0.2711 -0.2850 -0.0500
  187POPC   C1A 2550   5.621   5.494   4.784 -0.0290  0.2269  0.0264
  187POPC   D2A 2551   5.184   5.465   5.020 -0.0118  0.1708  0.0167
  187POPC   C3A 2552   5.063   5.111   5.248  0.2241 -0.0167  0.1025
  187POPC   C4A 2553   4.741   4.990   5.455 -0.0284 -0.2729 -0.0675
  187POPC   C1B 2554   5.938   6.064   4.932 -0.0191 -0.4340  0.1101
  187POPC   C2B 2555   5.633   6.275   5.213  0.0187  0.0459 -0.1731
  187POPC   C3B 2556   5.352   6.448   5.411  0.1811 -0.2175 -0.3865
  187POPC   C4B 2557   5.092   6.788   5.344  0.0543  0.1179 -0.0379
  188POPC   NC3 2558   7.776   4.617   3.907 -0.2462  0.2227 -0.1660
  188POPC   PO4 2559   8.121   4.860   3.969  0.2126  0.2424  0.0940
  188POPC   GL1 2560   8.014   5.003   4.336  0.1060 -0.0916 -0.0445
  188POPC   GL2 2561   7.731   4.783   4.425 -0.2854  0.1037  0.3259
  188POPC   C1A 2562   8.004   4.924   4.781 -0.2233 -0.0322 -0.1147
  188POPC   D2A 2563   8.412   4.832   5.052  0.2519  0.0332  0.3858
  188POPC   C3A 2564   8.473   4.659   5.347 -0.0845 -0.0718  0.2541
  188POPC   C4A 2565   8.531   4.255   5.615 -0.0055 -0.1162 -0.1442
  188POPC   C1B 2566   7.606   4.385   4.752 -0.0876  0.3773  0.1462
  188POPC   C2B 2567   7.600   4.149   5.113  0.0364  0.4145 -0.0933
  188POPC   C3B 2568   7.739   3.888   5.444 -0.0259 -0.3207  0.0379
  188POPC   C4B 2569   7.863   3.695   5.779 -0.1426  0.0573  0.1316
  189POPC   NC3 2570   4.005   0.179   3.777 -0.0305  0.0711  0.1958
  189POPC   PO4 2571   4.139  -0.212   3.471  0.0303  0.1440 -0.3372
  189POPC   GL1 2572   4.276  -0.287   3.823 -0.0132  0.2418 -0.0392
  189POPC   GL2 2573   4.252  -0.093   4.066  0.0530  0.2230 -0.0850
  189POPC   C1A 2574   4.209  -0.598   4.229  0.0886 -0.3138 -0.1368
  189POPC   D2A 2575   4.062  -0.661   4.535  0.2696 -0.1287  0.1808
  189POPC   C3A 2576   3.966  -0.927   4.888 -0.1043  0.0636 -0.2632
  189POPC   C4A 2577   3.667  -0.932   5.312  0.1165 -0.0560 -0.0171
  189POPC   C1B 2578   4.218  -0.073   4.545 -0.0127  0.4093  0.0973
  189POPC   C2B 2579   4.173  -0.387   4.965 -0.3407  0.2141  0.0386
  189POPC   C3B 2580   4.116  -0.601   5.329 -0.0043  0.0933  0.0317
  189POPC   C4B 2581   4.374  -0.851   5.520  0.0703  0.2656  0.0700
  190POPC   NC3 2582  10.622   1.374   4.287 -0.1436  0.1036  0.0784
  190POPC   PO4 2583  10.497   1.143   3.986 -0.1706  0.1947 -0.3155
  190POPC   GL1 2584  10.246   0.919   4.304 -0.0195  0.1301 -0.2687
  190POPC   GL2 2585  10.028   1.228   4.385  0.1675 -0.1658 -0.0918
  190POPC   C1A 2586   9.834   0.698   4.380  0.0496 -0.0954 -0.1114
  190POPC   D2A 2587   9.591   0.414   4.642  0.3350  0.2244 -0.1232
  190POPC   C3A 2588   9.738   0.298   5.020  0.0762  0.3131  0.2621
  190POPC   C4A 2589   9.956   0.145   5.426  0.2092  0.1381 -0.1768
  190POPC   C1B 2590  10.230   1.087   4.781  0.2624 -0.0694  0.1465
  190POPC   C2B 2591  10.014   1.254   5.146 -0.1749 -0.2727  0.0378
  190POPC   C3B 2592  10.068   0.991   5.545 -0.2012  0.1289  0.1938
  190POPC   C4B 2593   9.856   0.915   5.817  0.4443 -0.2201 -0.1008
  191POPC   NC3 2594   9.976  10.182   3.664  0.0905  0.3109  0.1853
  191POPC   PO4 2595  10.301  10.351   3.430 -0.1983 -0.2117  0.2242
  191POPC   GL1 2596  10.367  10.205   3.935  0.0701  0.0641 -0.0595
  191POPC   GL2 2597  10.129   9.968   4.122  0.2211 -0.1538  0.2391
  191POPC   C1A 2598  10.491  10.370   4.366  0.0403 -0.1084  0.1652
  191POPC   D2A 2599  10.330  10.315   4.719 -0.1007  0.2458  0.1536
  191POPC   C3A 2600  10.555  10.054   5.011 -0.0331 -0.1970  0.3561
  191POPC   C4A 2601  10.618   9.860   5.396 -0.1848  0.2800  0.0730
  191POPC   C1B 2602   9.838  10.061   4.429  0.0233  0.2661 -0.0330
  191POPC   C2B 2603   9.551   9.891   4.698  0.0800 -0.0071 -0.0744
  191POPC   C3B 2604   9.357   9.721   5.023  0.0356  0.1717  0.0483
  191POPC   C4B 2605   9.090   9.538   5.366  0.4065 -0.1326 -0.1774
  192POPC   NC3 2606   2.932   2.534   3.890 -0.3097  0.1576  0.1600
  192POPC   PO4 2607   2.954   3.011   3.993 -0.1057 -0.0283 -0.0378
  192POPC   GL1 2608   3.019   2.866   4.370  0.3445  0.0255  0.0132
  192POPC   GL2 2609   3.363   2.828   4.595 -0.1955 -0.0274  0.4299
  192POPC   C1A 2610   2.964   2.960   4.967 -0.2116 -0.1765  0.0160
  192POPC   D2A 2611   2.888   3.212   5.336 -0.1403 -0.0171 -0.4195
  192POPC   C3A 2612   3.089   3.619   5.453 -0.0450 -0.0094  0.0504
  192POPC   C4A 2613   3.388   3.787   5.705  0.0209 -0.0624 -0.3160
  192POPC   C1B 2614   3.412   2.749   5.081 -0.0375  0.3746  0.0063
  192POPC   C2B 2615   3.242   2.911   5.548 -0.0136  0.0781 -0.1140
  192POPC   C3B 2616   3.291   3.368   5.882  0.2667  0.0252  0.0154
  192POPC   C4B 2617   3.153   3.390   6.333 -0.1667  0.1252  0.0437
  193POPC   NC3 2618   9.256   0.181   3.662 -0.1172  0.1275 -0.4045
  193POPC   PO4 2619   8.834   0.405   3.632 -0.0637  0.2610  0.0801
  193POPC   GL1 2620   8.804   0.435   4.102  0.0317 -0.2401 -0.1095
  193POPC   GL2 2621   8.932   0.132   4.101 -0.1418 -0.2698  0.1395
  193POPC   C1A 2622   8.759   0.545   4.474 -0.1582  0.3525 -0.2258
  193POPC   D2A 2623   8.741   0.901   4.919 -0.1270 -0.1398 -0.0304
  193POPC   C3A 2624   8.725   1.421   5.014 -0.1201  0.1290 -0.0192
  193POPC   C4A 2625   8.940   1.759   4.877  0.0742 -0.1714  0.0994
  193POPC   C1B 2626   9.082   0.169   4.569  0.1418  0.3469  0.3094
  193POPC   C2B 2627   9.240   0.180   4.898  0.0989 -0.2125 -0.1181
  193POPC   C3B 2628   9.422  -0.084   5.209 -0.4521 -0.0429  0.1456
  193POPC   C4B 2629   9.489  -0.090   5.607 -0.0167 -0.1356  0.1379
  194POPC   NC3 2630   0.208   8.163   3.535 -0.0576 -0.2682 -0.1069
  194POPC   PO4 2631   0.555   8.070   3.835  0.1324  0.0031  0.2422
  194POPC   GL1 2632   0.489   7.996   4.233 -0.4829 -0.1385  0.0424
  194POPC   GL2 2633   0.448   8.275   4.335  0.0873 -0.1520  0.3013
  194POPC   C1A 2634   0.395   7.743   4.572 -0.1188  0.1138  0.2109
  194POPC   D2A 2635   0.307   7.302   4.819 -0.2215  0.1028  0.1588
  194POPC   C3A 2636   0.623   7.239   5.255 -0.0702  0.1539 -0.0086
  194POPC   C4A 2637   0.793   6.818   5.387  0.1103  0.1083 -0.0999
  194POPC   C1B 2638   0.449   8.176   4.721  0.1881 -0.1011  0.1577
  194POPC   C2B 2639   0.304   8.124   5.155  0.0426 -0.0033  0.0418
  194POPC   C3B 2640  -0.002   8.037   5.510 -0.0208 -0.2157  0.0603
  194POPC   C4B 2641  -0.258   7.795   5.900  0.2254 -0.3392  0.2159
  195POPC   NC3 2642   7.069   4.127   4.055 -0.0301 -0.3928 -0.2743
  195POPC   PO4 2643   7.452   4.217   4.042  0.2836 -0.3573 -0.4039
  195POPC   GL1 2644   7.720   4.011   4.250  0.2282  0.0926  0.0267
  195POPC   GL2 2645   7.599   3.849   4.489  0.0408  0.2566  0.2177
  195POPC   C1A 2646   8.126   3.737   4.378 -0.2766 -0.2618  0.0922
  195POPC   D2A 2647   8.400   3.800   4.667  0.3218  0.2314 -0.1444
  195POPC   C3A 2648   8.318   3.871   5.104 -0.1831  0.0339 -0.1167
  195POPC   C4A 2649   8.234   3.845   5.504 -0.1368  0.0599 -0.0050
  195POPC   C1B 2650   7.873   3.797   4.851 -0.0479 -0.0251  0.1571
  195POPC   C2B 2651   7.935   3.526   5.137  0.3510  0.0991 -0.1313
  195POPC   C3B 2652   8.313   3.340   5.481 -0.0434 -0.1502  0.2306
  195POPC   C4B 2653   8.569   3.181   5.490 -0.0435  0.0065  0.0613
  196POPC   NC3 2654   7.739   9.052   3.734 -0.3344  0.0633  0.0961
  196POPC   PO4 2655   8.153   8.716   3.769 -0.0996 -0.1363 -0.1208
  196POPC   GL1 2656   8.045   8.601   4.111  0.3912  0.0995 -0.1465
  196POPC   GL2 2657   7.785   8.347   4.270 -0.1416 -0.2093  0.0876
  196POPC   C1A 2658   8.263   8.638   4.545 -0.0982  0.3001 -0.0353
  196POPC   D2A 2659   8.472   8.742   4.939  0.1840 -0.4935  0.4037
  196POPC   C3A 2660   8.293   9.080   4.781 -0.0887 -0.1502  0.2692
  196POPC   C4A 2661   8.238   9.183   4.344 -0.3174  0.0411  0.0732
  196POPC   C1B 2662   7.969   8.290   4.724  0.3869  0.2688  0.0608
  196POPC   C2B 2663   8.206   8.240   5.181 -0.0900  0.1301 -0.1122
  196POPC   C3B 2664   8.617   8.461   5.394  0.1874 -0.1098  0.2310
  196POPC   C4B 2665   8.975   8.661   5.751  0.2967 -0.1105  0.1105
  197POPC   NC3 2666   2.990  10.465   3.422 -0.1795 -0.1638 -0.0725
  197POPC   PO4 2667   3.156  10.655   3.748  0.2560 -0.0774 -0.0303
  197POPC   GL1 2668   3.005  10.708   4.203  0.0907  0.1322 -0.1999
  197POPC   GL2 2669   2.829  10.371   4.332  0.3709 -0.0442  0.0306
  197POPC   C1A 2670   2.785  11.012   4.466 -0.0768  0.4541 -0.1727
  197POPC   D2A 2671   2.747  11.109   4.936 -0.1435  0.2558  0.3768
  197POPC   C3A 2672   2.432  11.047   5.282 -0.2913  0.0309  0.0749
  197POPC   C4A 2673   2.224  11.184   5.619 -0.0893  0.2856 -0.0390
  197POPC   C1B 2674   2.589  10.134   4.657 -0.1671 -0.0670 -0.1874
  197POPC   C2B 2675   2.340  10.169   5.001 -0.0611  0.0249 -0.2019
  197POPC   C3B 2676   2.244   9.989   5.399 -0.1044 -0.2077 -0.4472
  197POPC   C4B 2677   1.846   9.905   5.618  0.0627 -0.3563  0.0600
  198POPC   NC3 2678   5.049   6.276   4.132 -0.0444  0.0712 -0.1554
  198POPC   PO4 2679   4.719   6.175   3.860  0.1522  0.0415 -0.1826
  198POPC   GL1 2680   4.590   6.167   4.241 -0.0159 -0.1075  0.0461
  198POPC   GL2 2681   4.230   6.168   4.193  0.0387  0.0031 -0.1403
  198POPC   C1A 2682   4.608   6.349   4.743  0.2132 -0.1250  0.0680
  198POPC   D2A 2683   4.577   6.747   4.953  0.0146  0.0108  0.2170
  198POPC   C3A 2684   4.570   6.767   5.449  0.3823  0.0384  0.3301
  198POPC   C4A 2685   4.264   7.015   5.682 -0.3726  0.1341  0.0327
  198POPC   C1B 2686   4.395   5.921   4.634  0.1234 -0.1065 -0.0472
  198POPC   C2B 2687   4.408   5.980   5.062 -0.1636  0.0378  0.0249
  198POPC   C3B 2688   4.365   5.897   5.432  0.0633  0.1388 -0.0825
  198POPC   C4B 2689   4.663   5.767   5.760  0.5143 -0.0238  0.1377
  199POPC   NC3 2690   6.703   7.503   3.899  0.3079  0.3436  0.2184
  199POPC   PO4 2691   6.900   7.094   4.029  0.1093  0.2790  0.1372
  199POPC   GL1 2692   6.918   6.972   4.421 -0.0379 -0.1294 -0.2815
  199POPC   GL2 2693   6.728   7.159   4.520 -0.1408 -0.2654 -0.4150
  199POPC   C1A 2694   7.075   6.966   4.860  0.0183 -0.1395 -0.0374
  199POPC   D2A 2695   7.310   7.093   5.158  0.2221  0.1709  0.1544
  199POPC   C3A 2696   6.987   7.192   5.517 -0.0829  0.0208  0.0425
  199POPC   C4A 2697   6.572   7.260   5.898  0.3933  0.0565 -0.1783
  199POPC   C1B 2698   6.597   7.007   4.835 -0.0956 -0.0785  0.0039
  199POPC   C2B 2699   6.308   6.812   5.217  0.0770 -0.1344  0.2607
  199POPC   C3B 2700   6.260   6.403   5.377  0.2478  0.1801 -0.2083
  199POPC   C4B 2701   6.015   6.010   5.410 -0.2776  0.2659  0.2577
  200POPC   NC3 2702   3.115   7.451   3.931  0.1321 -0.3116  0.1373
  200POPC   PO4 2703   3.110   7.013   3.754  0.0208 -0.1937 -0.3088
  200POPC   GL1 2704   3.273   7.004   4.235  0.0890 -0.2295 -0.0327
  200POPC   GL2 2705   3.590   6.833   4.275 -0.2833  0.4561  0.1412
  200POPC   C1A 2706   3.463   7.096   4.752 -0.3685  0.2370 -0.1644
  200POPC   D2A 2707   3.587   6.824   5.095 -0.0777  0.0628 -0.3005
  200POPC   C3A 2708   3.442   6.502   5.299 -0.2256 -0.3184 -0.1781
  200POPC   C4A 2709   3.571   6.515   5.817  0.4360  0.0916  0.1170
  200POPC   C1B 2710   3.914   6.928   4.618 -0.0172 -0.0544 -0.0762
  200POPC   C2B 2711   4.071   6.779   4.942 -0.2279  0.0573 -0.1985
  200POPC   C3B 2712   4.277   6.415   5.260  0.2566 -0.2543  0.0709
  200POPC   C4B 2713   4.107   6.309   5.665 -0.0227  0.0176  0.2905
  201POPC   NC3 2714   6.031   1.966   3.628 -0.2426 -0.0920 -0.3791
  201POPC   PO4 2715   5.868   1.529   3.871  0.1859  0.1561  0.3475
  201POPC   GL1 2716   6.071   1.506   4.395 -0.0608  0.4067  0.0510
  201POPC   GL2 2717   5.842   1.344   4.585 -0.1217 -0.2338  0.1563
  201POPC   C1A 2718   6.267   1.538   4.683  0.1425  0.2425  0.1184
  201POPC   D2A 2719   6.320   1.390   5.071  0.2558  0.2717 -0.4854
  201POPC   C3A 2720   5.945   1.472   5.257 -0.1168 -0.1066  0.0153
  201POPC   C4A 2721   5.568   1.196   5.358 -0.3824 -0.2655  0.0025
  201POPC   C1B 2722   5.528   1.151   4.843  0.2499 -0.1087 -0.3399
  201POPC   C2B 2723   5.401   0.757   5.093 -0.0519  0.0040 -0.0848
  201POPC   C3B 2724   5.676   0.551   5.221 -0.2284  0.1848  0.1644
  201POPC   C4B 2725   5.927   0.208   5.249 -0.2200  0.4077 -0.2159
  202POPC   NC3 2726   9.597   7.607   3.876 -0.1326 -0.2126  0.1517
  202POPC   PO4 2727  10.021   7.557   3.767  0.4570  0.2791  0.1456
  202POPC   GL1 2728   9.967   7.489   4.241  0.1767  0.1562  0.1572
  202POPC   GL2 2729   9.807   7.721   4.397 -0.0220 -0.0270  0.0096
  202POPC   C1A 2730  10.150   7.307   4.567 -0.1297  0.1002  0.2529
  202POPC   D2A 2731  10.303   7.383   4.988  0.1229 -0.2185  0.2694
  202POPC   C3A 2732  10.584   7.187   5.202  0.0174 -0.0406 -0.1678
  202POPC   C4A 2733  10.835   7.043   5.586  0.1210  0.0889  0.0739
  202POPC   C1B 2734   9.732   7.481   4.715 -0.0314 -0.4017 -0.0993
  202POPC   C2B 2735   9.785   7.105   4.966 -0.0958 -0.1210 -0.0883
  202POPC   C3B 2736  10.022   6.827   5.295 -0.2236 -0.2058 -0.2115
  202POPC   C4B 2737  10.227   6.890   5.709  0.0957 -0.0671  0.1145
  203POPC   NC3 2738   1.813   3.633   3.454 -0.1299  0.2609  0.1335
  203POPC   PO4 2739   1.711   3.192   3.346 -0.0723  0.2042 -0.1606
  203POPC   GL1 2740   1.285   3.350   3.569 -0.0096 -0.0175 -0.0822
  203POPC   GL2 2741   1.052   3.427   3.382  0.3886  0.1308 -0.2452
  203POPC   C1A 2742   1.163   3.721   3.859 -0.2630  0.3938 -0.0309
  203POPC   D2A 2743   0.737   3.843   4.007 -0.3372 -0.1418 -0.0907
  203POPC   C3A 2744   0.491   3.895   3.635 -0.1376 -0.1639 -0.0217
  203POPC   C4A 2745   0.158   3.850   3.443  0.2109 -0.1151  0.2413
  203POPC   C1B 2746   0.783   3.424   3.689  0.1341  0.1039 -0.3497
  203POPC   C2B 2747   0.338   3.454   3.827 -0.0880 -0.3679  0.1949
  203POPC   C3B 2748  -0.031   3.411   3.817  0.1014 -0.0928 -0.0687
  203POPC   C4B 2749  -0.392   3.591   4.011 -0.2420  0.0344 -0.0793
  204POPC   NC3 2750   9.537   5.212   2.911 -0.0678  0.1050  0.1145
  204POPC   PO4 2751   9.891   5.054   2.678 -0.2908  0.0688 -0.0312
  204POPC   GL1 2752   9.885   4.751   2.964 -0.2749  0.1227 -0.3400
  204POPC   GL2 2753   9.871   4.344   3.072  0.0619  0.1292 -0.0287
  204POPC   C1A 2754  10.164   4.799   3.274  0.3196  0.3192  0.0959
  204POPC   D2A 2755  10.176   5.099   3.675 -0.1317  0.1955  0.1765
  204POPC   C3A 2756   9.876   5.329   3.838  0.0486 -0.0027 -0.2215
  204POPC   C4A 2757   9.564   5.773   3.825  0.1193 -0.0441  0.1059
  204POPC   C1B 2758  10.040   4.315   3.486 -0.0867  0.0466  0.0599
  204POPC   C2B 2759   9.989   4.210   3.880  0.0035 -0.1515 -0.0308
  204POPC   C3B 2760  10.136   3.997   4.302  0.0890  0.1058  0.1762
  204POPC   C4B 2761  10.317   3.854   4.726  0.0616  0.1285  0.3374
  205POPC   NC3 2762  10.484   6.202   3.128 -0.1093 -0.1665  0.3197
  205POPC   PO4 2763  10.349   6.633   3.242  0.3169  0.2148 -0.2922
  205POPC   GL1 2764  10.270   6.344   3.720 -0.2741 -0.0607 -0.2814
  205POPC   GL2 2765  10.022   6.110   3.804  0.0082 -0.1821 -0.2287
  205POPC   C1A 2766  10.449   6.201   4.039 -0.0530 -0.0975 -0.0778
  205POPC   D2A 2767  10.325   6.110   4.466 -0.0441 -0.2649  0.1885
  205POPC   C3A 2768   9.861   6.223   4.555  0.1858  0.1519 -0.0041
  205POPC   C4A 2769   9.620   6.133   4.203  0.2725  0.2266 -0.4230
  205POPC   C1B 2770   9.987   6.438   4.126 -0.0324 -0.1805 -0.3277
  205POPC   C2B 2771  10.067   6.655   4.547 -0.1046  0.0179 -0.0508
  205POPC   C3B 2772  10.139   6.473   4.834 -0.0449 -0.2104  0.0561
  205POPC   C4B 2773  10.225   6.022   4.972  0.0319  0.0822  0.0806
  206POPC   NC3 2774   6.703   3.134   3.812 -0.1905 -0.2544  0.1381
  206POPC   PO4 2775   6.989   2.787   3.727  0.0798 -0.4399 -0.0450
  206POPC   GL1 2776   6.995   2.788   4.222  0.2711 -0.1500  0.1056
  206POPC   GL2 2777   7.114   3.027   4.402  0.5020  0.1947  0.0162
  206POPC   C1A 2778   6.893   2.769   4.732 -0.1319 -0.0479 -0.0188
  206POPC   D2A 2779   6.987   2.726   5.139 -0.0318  0.0231 -0.1961
  206POPC   C3A 2780   6.962   2.451   5.359  0.0465 -0.0553  0.0034
  206POPC   C4A 2781   6.591   2.309   5.387  0.0872 -0.1787 -0.2644
  206POPC   C1B 2782   7.415   2.955   4.760  0.0997  0.0902 -0.2177
  206POPC   C2B 2783   7.648   3.125   5.166  0.2652 -0.1515 -0.3636
  206POPC   C3B 2784   7.812   3.128   5.655  0.0800 -0.0331 -0.1594
  206POPC   C4B 2785   7.977   3.269   6.018 -0.0894  0.3201  0.0842
  207POPC   NC3 2786   3.481   0.775   3.904 -0.1278 -0.0512  0.0368
  207POPC   PO4 2787   3.800   0.655   3.853 -0.0584 -0.2111 -0.1029
  207POPC   GL1 2788   3.866   0.678   4.257  0.3757  0.4235  0.2434
  207POPC   GL2 2789   4.017   0.372   4.212  0.3273  0.0299 -0.0747
  207POPC   C1A 2790   3.668   0.755   4.616 -0.2122 -0.3212  0.3450
  207POPC   D2A 2791   3.540   0.829   5.102  0.1153  0.2137 -0.0732
  207POPC   C3A 2792   3.286   0.854   5.505 -0.2006 -0.0894  0.1048
  207POPC   C4A 2793   2.922   1.060   5.782  0.0305  0.0180 -0.0048
  207POPC   C1B 2794   4.021   0.359   4.617 -0.0465 -0.1028 -0.0072
  207POPC   C2B 2795   4.352   0.413   4.835  0.0998  0.3414 -0.2985
  207POPC   C3B 2796   4.307   0.593   5.226 -0.0010  0.3544 -0.1547
  207POPC   C4B 2797   4.517   0.695   5.652  0.0393  0.1256 -0.2288
  208POPC   NC3 2798   4.594  10.031   3.811 -0.1627  0.0685  0.3451
  208POPC   PO4 2799   4.770  10.416   3.914  0.1921 -0.1670  0.1941
  208POPC   GL1 2800   4.758  10.337   4.291  0.0389 -0.3275  0.2330
  208POPC   GL2 2801   5.005  10.163   4.474 -0.2354 -0.2427  0.0733
  208POPC   C1A 2802   4.642  10.377   4.737 -0.2038 -0.1836  0.2124
  208POPC   D2A 2803   4.729  10.281   5.164 -0.0467  0.2032  0.0762
  208POPC   C3A 2804   4.576  10.282   5.435 -0.0797  0.1842  0.0412
  208POPC   C4A 2805   4.360  10.372   5.845  0.0688 -0.0767 -0.0416
  208POPC   C1B 2806   4.932   9.954   4.785 -0.1095 -0.1368  0.1848
  208POPC   C2B 2807   4.780   9.786   5.224  0.2305 -0.3762 -0.2433
  208POPC   C3B 2808   4.805   9.491   5.582 -0.0793 -0.0459 -0.1083
  208POPC   C4B 2809   4.716   9.088   5.761  0.1367 -0.0042  0.0735
  209POPC   NC3 2810   7.679   1.652   4.116 -0.1135  0.1571  0.1306
  209POPC   PO4 2811   7.459   1.951   4.214  0.1456 -0.1256 -0.3970
  209POPC   GL1 2812   7.459   1.991   4.640 -0.0436  0.0313  0.7341
  209POPC   GL2 2813   7.733   2.245   4.799  0.5604  0.0735  0.1932
  209POPC   C1A 2814   7.235   2.045   5.132  0.1312 -0.0707 -0.0548
  209POPC   D2A 2815   7.388   2.220   5.501  0.2099 -0.0275  0.1806
  209POPC   C3A 2816   7.807   2.168   5.724 -0.4761  0.2446 -0.2729
  209POPC   C4A 2817   8.154   2.355   5.914  0.1559  0.1872 -0.2235
  209POPC   C1B 2818   7.754   2.004   5.177  0.1785 -0.0743  0.3785
  209POPC   C2B 2819   7.727   1.645   5.436  0.0720 -0.0402 -0.0105
  209POPC   C3B 2820   7.492   1.411   5.574 -0.4040  0.0122 -0.1695
  209POPC   C4B 2821   7.443   1.322   6.033  0.1936  0.2233  0.2774
  210POPC   NC3 2822   3.587   6.771   3.755  0.1920 -0.0137 -0.2177
  210POPC   PO4 2823   4.044   6.892   3.841 -0.2068 -0.0686  0.0355
  210POPC   GL1 2824   3.996   7.105   4.165 -0.0803  0.0911 -0.2259
  210POPC   GL2 2825   4.326   7.301   4.246 -0.1280  0.1510 -0.2615
  210POPC   C1A 2826   3.834   7.385   4.466 -0.0490  0.2631  0.2946
  210POPC   D2A 2827   3.866   7.277   4.923 -0.0970  0.1764  0.2924
  210POPC   C3A 2828   3.585   7.262   5.274 -0.1741 -0.2322 -0.1391
  210POPC   C4A 2829   3.261   7.046   5.576 -0.0761 -0.0425 -0.4025
  210POPC   C1B 2830   4.422   7.179   4.722 -0.0449  0.0248  0.3775
  210POPC   C2B 2831   4.296   7.225   5.242 -0.2236 -0.0951  0.0560
  210POPC   C3B 2832   4.068   7.476   5.328  0.3121  0.2104 -0.0421
  210POPC   C4B 2833   4.037   7.787   5.588 -0.1471  0.1234 -0.2483
  211POPC   NC3 2834   6.750   0.995   3.441  0.2643 -0.1948  0.1805
  211POPC   PO4 2835   6.702   0.878   3.881  0.0516 -0.1682 -0.0178
  211POPC   GL1 2836   6.808   1.110   4.238 -0.0327  0.1532 -0.2673
  211POPC   GL2 2837   7.022   1.208   4.140 -0.2316 -0.0897  0.1816
  211POPC   C1A 2838   6.632   1.140   4.602  0.1226 -0.0610  0.1435
  211POPC   D2A 2839   6.419   0.969   4.822 -0.0466 -0.4772 -0.1759
  211POPC   C3A 2840   6.638   0.998   5.221  0.2111 -0.1259  0.2927
  211POPC   C4A 2841   6.672   0.782   5.547  0.0481 -0.1863  0.3832
  211POPC   C1B 2842   7.139   1.093   4.572  0.0516 -0.0360  0.0053
  211POPC   C2B 2843   7.222   1.047   4.893  0.1703  0.0537  0.1919
  211POPC   C3B 2844   7.191   1.032   5.274  0.1329  0.3132 -0.0583
  211POPC   C4B 2845   7.261   0.970   5.693  0.0846 -0.0147  0.2149
  212POPC   NC3 2846   0.169   0.822   3.650 -0.0702  0.0795  0.2031
  212POPC   PO4 2847   0.027   0.607   3.312 -0.0765 -0.1230 -0.1789
  212POPC   GL1 2848   0.069   0.394   3.892 -0.1675  0.0989 -0.1165
  212POPC   GL2 2849   0.396   0.324   4.032  0.4658  0.0380  0.1190
  212POPC   C1A 2850   0.039   0.305   4.375  0.2221  0.1355  0.3605
  212POPC   D2A 2851   0.073   0.052   4.683 -0.0797  0.0288 -0.0816
  212POPC   C3A 2852  -0.292   0.046   5.045 -0.1824 -0.0602  0.0930
  212POPC   C4A 2853  -0.247  -0.338   5.423 -0.1887 -0.1258  0.1010
  212POPC   C1B 2854   0.708   0.475   4.384 -0.1316  0.3611  0.2131
  212POPC   C2B 2855   0.930   0.660   4.692 -0.0286  0.3924 -0.1432
  212POPC   C3B 2856   0.981   0.757   5.116 -0.0526 -0.3393 -0.0182
  212POPC   C4B 2857   1.272   0.707   5.600  0.1796  0.1449  0.0394
  213POPC   NC3 2858   2.698   0.821   3.794  0.4080  0.3328  0.1231
  213POPC   PO4 2859   2.906   1.122   4.006 -0.0325  0.2024 -0.0782
  213POPC   GL1 2860   2.718   1.332   4.262 -0.1951 -0.1231  0.0702
  213POPC   GL2 2861   2.780   1.679   4.266 -0.1028  0.0815 -0.0410
  213POPC   C1A 2862   2.572   1.415   4.666  0.1561  0.0073 -0.5583
  213POPC   D2A 2863   2.759   1.516   5.092  0.2483 -0.0900 -0.1164
  213POPC   C3A 2864   2.665   1.418   5.492 -0.0483 -0.0204 -0.2121
  213POPC   C4A 2865   2.502   1.654   5.777  0.0703  0.0856 -0.0087
  213POPC   C1B 2866   2.784   1.872   4.710  0.0513 -0.4098 -0.0102
  213POPC   C2B 2867   2.805   2.130   5.027 -0.4165  0.0039 -0.0061
  213POPC   C3B 2868   2.513   2.163   5.325 -0.1180 -0.0756  0.4748
  213POPC   C4B 2869   2.200   2.467   5.383 -0.3920  0.2609 -0.1047
  214POPC   NC3 2870   8.745  10.141   3.820  0.0144 -0.0900  0.0731
  214POPC   PO4 2871   8.392  10.084   3.917  0.0728 -0.0166 -0.1652
  214POPC   GL1 2872   8.432  10.362   4.206 -0.3580 -0.2203  0.0621
  214POPC   GL2 2873   8.760  10.368   4.385  0.2876  0.1292  0.3608
  214POPC   C1A 2874   8.460  10.740   4.533 -0.2458  0.1823  0.0672
  214POPC   D2A 2875   8.310  11.160   4.770 -0.1540  0.1837  0.2546
  214POPC   C3A 2876   8.072  11.127   5.178  0.0964 -0.0872 -0.0939
  214POPC   C4A 2877   8.136  11.466   5.522  0.1453  0.0266 -0.0773
  214POPC   C1B 2878   8.810  10.492   4.818 -0.0302  0.0722  0.2893
  214POPC   C2B 2879   8.903  10.550   5.309  0.1292 -0.1524  0.0034
  214POPC   C3B 2880   8.785  10.206   5.718  0.3510  0.3138  0.0135
  214POPC   C4B 2881   8.745   9.967   6.079  0.1706  0.0830  0.0072
  215POPC   NC3 2882   1.126   6.586   3.561  0.0869 -0.4172  0.1596
  215POPC   PO4 2883   1.603   6.692   3.713  0.1893 -0.1298  0.2036
  215POPC   GL1 2884   1.513   6.336   3.981 -0.2194  0.0423  0.2317
  215POPC   GL2 2885   1.227   6.407   3.997  0.4526 -0.1046  0.0659
  215POPC   C1A 2886   1.574   6.140   4.383  0.0012  0.0881 -0.0578
  215POPC   D2A 2887   1.259   5.731   4.434 -0.1411 -0.0497  0.3267
  215POPC   C3A 2888   1.182   5.446   4.648 -0.0922 -0.1200  0.0052
  215POPC   C4A 2889   1.487   5.208   4.905 -0.1508 -0.1446 -0.2515
  215POPC   C1B 2890   1.042   6.191   4.418  0.0219 -0.0229  0.1635
  215POPC   C2B 2891   1.226   6.116   4.791 -0.2861  0.1101  0.1615
  215POPC   C3B 2892   1.439   5.812   4.872 -0.2231  0.1289  0.1470
  215POPC   C4B 2893   1.766   5.719   4.759 -0.1463  0.0063  0.1282
  216POPC   NC3 2894   5.467   4.389   3.683  0.4809  0.0301 -0.1199
  216POPC   PO4 2895   5.670   4.239   4.084 -0.0527  0.1596  0.0450
  216POPC   GL1 2896   5.482   4.414   4.508 -0.3440  0.2348 -0.1686
  216POPC   GL2 2897   5.702   4.618   4.696  0.0592 -0.3636  0.1106
  216POPC   C1A 2898   5.135   4.325   4.625  0.0708  0.1956  0.0749
  216POPC   D2A 2899   4.851   4.522   4.475 -0.1188 -0.4109  0.1882
  216POPC   C3A 2900   4.551   4.406   4.192  0.2303  0.0410  0.1873
  216POPC   C4A 2901   4.303   3.996   4.173 -0.3345  0.2071 -0.1388
  216POPC   C1B 2902   5.982   4.841   5.022  0.1410 -0.1525 -0.1784
  216POPC   C2B 2903   6.074   4.864   5.424  0.4236 -0.2658 -0.2774
  216POPC   C3B 2904   6.476   4.918   5.551 -0.2260  0.1323 -0.0405
  216POPC   C4B 2905   6.880   4.838   5.537 -0.1033  0.1291  0.2863
  217POPC   NC3 2906   3.390   3.085   4.150  0.1400 -0.3136 -0.0600
  217POPC   PO4 2907   3.794   2.982   4.330  0.2396 -0.2523  0.2069
  217POPC   GL1 2908   3.885   2.544   4.608  0.2849 -0.2377  0.0191
  217POPC   GL2 2909   3.534   2.303   4.551  0.0735 -0.2411  0.1716
  217POPC   C1A 2910   3.892   2.503   5.102  0.2383  0.0755  0.1118
  217POPC   D2A 2911   3.662   2.567   5.532  0.1788 -0.2210 -0.0015
  217POPC   C3A 2912   3.696   2.231   5.825  0.0449  0.2802  0.0142
  217POPC   C4A 2913   3.834   1.775   6.091 -0.2110  0.1605  0.0764
  217POPC   C1B 2914   3.345   2.275   4.984  0.1942 -0.0646  0.1200
  217POPC   C2B 2915   3.223   2.189   5.519 -0.3105 -0.1434 -0.0432
  217POPC   C3B 2916   3.173   2.302   5.998 -0.0620  0.2137 -0.1528
  217POPC   C4B 2917   3.085   2.213   6.501  0.2812  0.5036  0.2314
  218POPC   NC3 2918   4.082   7.245   3.482  0.0846  0.1149 -0.0139
  218POPC   PO4 2919   4.285   7.437   3.781 -0.2934 -0.0222  0.1287
  218POPC   GL1 2920   4.309   7.774   4.202  0.0198  0.1955 -0.0308
  218POPC   GL2 2921   4.117   8.012   4.078 -0.1374 -0.1155  0.0718
  218POPC   C1A 2922   4.281   7.675   4.621 -0.0559  0.1650  0.1962
  218POPC   D2A 2923   4.459   7.838   4.922  0.3464 -0.1207  0.1615
  218POPC   C3A 2924   4.596   7.632   5.331  0.0959  0.2544  0.0128
  218POPC   C4A 2925   4.510   7.747   5.660  0.1108 -0.1369 -0.1015
  218POPC   C1B 2926   3.851   7.896   4.403  0.1996  0.4467 -0.1325
  218POPC   C2B 2927   3.804   7.779   4.896 -0.0656  0.0360 -0.2621
  218POPC   C3B 2928   3.627   7.797   5.309 -0.0153  0.1919 -0.2463
  218POPC   C4B 2929   3.565   7.642   5.700  0.0926  0.2931 -0.1657
  219POPC   NC3 2930   7.369  10.205   3.385 -0.0137  0.1057 -0.0638
  219POPC   PO4 2931   7.586  10.574   3.688  0.1853  0.1839 -0.0768
  219POPC   GL1 2932   7.498  10.702   4.069  0.1281  0.3539 -0.2275
  219POPC   GL2 2933   7.262  10.841   4.036  0.0735 -0.1003  0.0100
  219POPC   C1A 2934   7.600  11.101   4.279 -0.0923  0.0224  0.1172
  219POPC   D2A 2935   7.851  11.116   4.751 -0.0025 -0.0474 -0.2117
  219POPC   C3A 2936   7.887  11.559   4.986  0.0231  0.2068  0.0838
  219POPC   C4A 2937   7.852  11.850   5.287 -0.1598  0.2943 -0.0737
  219POPC   C1B 2938   7.143  10.944   4.426  0.0203  0.0905  0.0626
  219POPC   C2B 2939   7.317  11.228   4.697 -0.2550  0.0557 -0.2397
  219POPC   C3B 2940   7.510  11.241   5.120 -0.1165  0.2007  0.2661
  219POPC   C4B 2941   7.667  11.410   5.380  0.1512 -0.0114 -0.1174
  220POPC   NC3 2942   7.162  10.441   3.790 -0.0788  0.1941  0.2154
  220POPC   PO4 2943   7.057   9.997   3.791  0.0437  0.1568 -0.0970
  220POPC   GL1 2944   7.093  10.245   4.230 -0.0795 -0.2359  0.1990
  220POPC   GL2 2945   6.964  10.031   4.457 -0.0166 -0.0702  0.0831
  220POPC   C1A 2946   7.434  10.256   4.519 -0.4036 -0.1759  0.2018
  220POPC   D2A 2947   7.559  10.684   4.658  0.1149  0.2414  0.0852
  220POPC   C3A 2948   7.678  10.790   5.150  0.0571 -0.0966  0.1729
  220POPC   C4A 2949   7.557  10.802   5.611  0.0267 -0.2490 -0.0022
  220POPC   C1B 2950   7.048  10.484   4.628  0.2283  0.1538 -0.2807
  220POPC   C2B 2951   7.175  10.831   4.980  0.3322  0.1258 -0.1604
  220POPC   C3B 2952   7.121  10.645   5.433 -0.3706 -0.0476  0.0745
  220POPC   C4B 2953   7.196  10.231   5.523 -0.2548  0.0362 -0.3514
  221POPC   NC3 2954   3.313   5.812   3.740 -0.0796  0.1802 -0.2335
  221POPC   PO4 2955   3.394   6.243   3.708  0.1819  0.3243 -0.0693
  221POPC   GL1 2956   3.291   6.379   4.129 -0.1399  0.2036  0.1158
  221POPC   GL2 2957   3.197   6.576   4.069 -0.0008  0.0832  0.0364
  221POPC   C1A 2958   3.366   6.432   4.531 -0.2332  0.2559 -0.0672
  221POPC   D2A 2959   3.548   6.202   4.831  0.1242  0.0583  0.1676
  221POPC   C3A 2960   3.272   6.014   5.133 -0.0526  0.0200 -0.0527
  221POPC   C4A 2961   2.935   5.880   5.492 -0.1772  0.1741 -0.1764
  221POPC   C1B 2962   2.973   6.699   4.444  0.0383  0.1558 -0.1580
  221POPC   C2B 2963   2.912   6.546   4.800  0.1011  0.0100 -0.0764
  221POPC   C3B 2964   3.001   6.749   5.213  0.0481  0.3900  0.0226
  221POPC   C4B 2965   2.798   7.102   5.377 -0.0104 -0.1303 -0.1226
  222POPC   NC3 2966   2.559   9.579   3.916  0.2565 -0.1845 -0.1716
  222POPC   PO4 2967   2.462  10.022   4.034 -0.2758 -0.1605  0.1109
  222POPC   GL1 2968   2.181   9.918   4.265  0.0782  0.1078 -0.2989
  222POPC   GL2 2969   1.906   9.776   4.328 -0.1702  0.1357 -0.0607
  222POPC   C1A 2970   2.067  10.197   4.541  0.0587 -0.0700  0.0667
  222POPC   D2A 2971   1.872  10.011   4.894 -0.0164 -0.1767  0.2830
  222POPC   C3A 2972   1.871   9.632   5.198 -0.1236  0.1303 -0.3640
  222POPC   C4A 2973   1.905   9.334   5.544 -0.0593  0.1146 -0.1374
  222POPC   C1B 2974   1.799   9.571   4.717  0.2219 -0.0845 -0.1017
  222POPC   C2B 2975   1.878   9.254   4.839 -0.0917 -0.0270 -0.3638
  222POPC   C3B 2976   1.801   8.837   5.058 -0.4916  0.0715  0.2351
  222POPC   C4B 2977   1.761   8.889   5.488 -0.3736 -0.1159  0.1238
  223POPC   NC3 2978   3.953   2.687   4.001  0.4086  0.2039  0.1949
  223POPC   PO4 2979   4.316   2.701   3.830 -0.1555  0.0895  0.1126
  223POPC   GL1 2980   4.451   2.795   4.209 -0.2280 -0.0199  0.2030
  223POPC   GL2 2981   4.346   2.465   4.309  0.1549 -0.3628 -0.0353
  223POPC   C1A 2982   4.337   3.107   4.548 -0.1108 -0.2237 -0.0692
  223POPC   D2A 2983   4.011   3.085   4.816 -0.0153  0.0138  0.1441
  223POPC   C3A 2984   3.935   3.097   5.169  0.0730 -0.3756 -0.1297
  223POPC   C4A 2985   4.152   2.920   5.483  0.1382  0.2656  0.1420
  223POPC   C1B 2986   4.320   2.555   4.689  0.1744  0.0859  0.2206
  223POPC   C2B 2987   4.378   2.548   5.179  0.2286  0.1394 -0.0384
  223POPC   C3B 2988   4.159   2.406   5.530  0.0116 -0.2338 -0.0498
  223POPC   C4B 2989   4.175   2.142   5.867  0.4945 -0.3211  0.2201
  224POPC   NC3 2990   9.163   0.912   3.324  0.0100  0.0623  0.0634
  224POPC   PO4 2991   9.325   0.666   3.696  0.0519 -0.2397  0.1869
  224POPC   GL1 2992   9.370   0.837   4.209 -0.0935 -0.1706  0.1818
  224POPC   GL2 2993   9.471   1.040   4.299  0.0389 -0.3719 -0.2409
  224POPC   C1A 2994   9.216   0.748   4.586 -0.0132  0.0413 -0.0870
  224POPC   D2A 2995   9.282   0.641   5.090  0.0659 -0.0548  0.0045
  224POPC   C3A 2996   8.942   0.895   5.388 -0.0020 -0.1029 -0.1076
  224POPC   C4A 2997   8.645   1.088   5.716 -0.0623  0.0134  0.1621
  224POPC   C1B 2998   9.562   1.093   4.682 -0.0125 -0.0658 -0.2873
  224POPC   C2B 2999   9.684   0.922   5.028  0.0324 -0.1024  0.1895
  224POPC   C3B 3000   9.720   0.682   5.338 -0.0844  0.0488  0.3676
  224POPC   C4B 3001   9.772   0.449   5.715  0.3222  0.4710 -0.0233
  225POPC   NC3 3002   9.874   8.689   3.282  0.0362  0.1145  0.1948
  225POPC   PO4 3003  10.010   8.745   3.627 -0.1018 -0.1195  0.0391
  225POPC   GL1 3004   9.883   8.561   4.047 -0.1655  0.1380  0.1369
  225POPC   GL2 3005   9.535   8.582   4.117 -0.5127 -0.1322  0.0376
  225POPC   C1A 3006   9.827   8.365   4.492  0.0678 -0.0294 -0.2738
  225POPC   D2A 3007   9.857   8.425   4.949  0.1008  0.2469  0.1424
  225POPC   C3A 3008   9.620   8.134   5.160  0.0098  0.1115  0.0991
  225POPC   C4A 3009   9.498   8.021   5.587  0.0625 -0.1878  0.2396
  225POPC   C1B 3010   9.743   8.885   4.425 -0.0484  0.0549  0.2496
  225POPC   C2B 3011   9.897   9.010   4.829  0.0473 -0.2247 -0.0325
  225POPC   C3B 3012   9.880   8.820   5.264  0.2050  0.1097  0.2266
  225POPC   C4B 3013   9.610   8.935   5.579 -0.1587 -0.0270  0.1442
  226POPC   NC3 3014   8.619   3.073   3.230  0.1427 -0.3851 -0.1551
  226POPC   PO4 3015   8.399   3.078   3.611 -0.0528  0.1256 -0.2276
  226POPC   GL1 3016   8.413   3.122   3.985  0.1207 -0.0051 -0.3227
  226POPC   GL2 3017   8.179   3.244   4.199  0.0941  0.1602 -0.1937
  226POPC   C1A 3018   8.614   3.120   4.540  0.0235  0.0246  0.0484
  226POPC   D2A 3019   8.893   3.199   4.814  0.0797 -0.2871 -0.2247
  226POPC   C3A 3020   8.949   3.397   5.227  0.0418 -0.0413  0.2103
  226POPC   C4A 3021   8.780   3.624   5.465 -0.1343 -0.0753 -0.0624
  226POPC   C1B 3022   7.903   3.331   4.673  0.1579  0.2555  0.2950
  226POPC   C2B 3023   7.425   3.454   4.795 -0.0102  0.0134  0.0362
  226POPC   C3B 3024   7.397   3.617   5.199  0.1986  0.4135  0.2039
  226POPC   C4B 3025   7.235   3.999   5.421 -0.0055 -0.0885  0.2111
  227POPC   NC3 3026   7.255   5.569   4.048 -0.4436  0.2315  0.1991
  227POPC   PO4 3027   6.823   5.597   4.126  0.1077 -0.3369  0.3707
  227POPC   GL1 3028   7.020   5.497   4.443 -0.0839 -0.0971 -0.0409
  227POPC   GL2 3029   6.737   5.589   4.670 -0.1739 -0.2861 -0.1760
  227POPC   C1A 3030   7.241   5.584   4.856 -0.1681 -0.0292 -0.1071
  227POPC   D2A 3031   7.393   5.404   5.249  0.0132  0.2196 -0.1654
  227POPC   C3A 3032   7.643   5.222   5.363 -0.0421  0.4043  0.5186
  227POPC   C4A 3033   7.968   5.327   5.646  0.1711 -0.1715  0.3160
  227POPC   C1B 3034   6.918   5.193   4.770  0.1081 -0.2455  0.2194
  227POPC   C2B 3035   7.157   4.993   5.160  0.1820 -0.3498  0.0464
  227POPC   C3B 3036   7.018   5.317   5.581 -0.2543  0.0181  0.1660
  227POPC   C4B 3037   6.720   5.407   5.881  0.3221  0.0926  0.0069
  228POPC   NC3 3038   9.316   2.638   3.671  0.2175  0.1196  0.1759
  228POPC   PO4 3039   9.021   2.463   3.899 -0.1840  0.1125  0.3110
  228POPC   GL1 3040   8.943   2.364   4.252  0.3042 -0.1337  0.0523
  228POPC   GL2 3041   9.104   2.632   4.390 -0.2468  0.2571  0.1484
  228POPC   C1A 3042   8.800   2.298   4.719  0.1758  0.0772  0.2429
  228POPC   D2A 3043   8.683   2.317   5.172  0.1729  0.1980  0.1136
  228POPC   C3A 3044   8.883   1.943   5.386  0.1321 -0.0022  0.1100
  228POPC   C4A 3045   9.145   1.808   5.688  0.1177  0.1590 -0.3239
  228POPC   C1B 3046   9.075   2.725   4.799  0.1771  0.0300  0.4204
  228POPC   C2B 3047   9.342   3.026   5.142  0.0936 -0.2306 -0.2393
  228POPC   C3B 3048   9.309   3.202   5.555 -0.0833  0.1264 -0.1721
  228POPC   C4B 3049   9.079   3.304   5.906 -0.0131  0.0322 -0.0157
  229POPC   NC3 3050   2.604   6.310   3.414 -0.1776  0.1765 -0.0516
  229POPC   PO4 3051   2.497   6.361   3.774 -0.0470  0.2608  0.0988
  229POPC   GL1 3052   2.474   6.433   4.264  0.0336 -0.2506 -0.1341
  229POPC   GL2 3053   2.649   6.195   4.305 -0.2469 -0.0346  0.0523
  229POPC   C1A 3054   2.419   6.867   4.493 -0.4861  0.1876 -0.1778
  229POPC   D2A 3055   2.735   7.255   4.329 -0.2920  0.0723  0.0202
  229POPC   C3A 3056   2.930   7.254   4.693 -0.0289  0.0954  0.1309
  229POPC   C4A 3057   3.147   7.230   5.084  0.0550 -0.0784 -0.2430
  229POPC   C1B 3058   2.459   6.295   4.720  0.2897  0.0934 -0.0814
  229POPC   C2B 3059   2.472   6.540   5.090  0.4500 -0.0747 -0.1824
  229POPC   C3B 3060   2.388   6.926   5.149 -0.0925 -0.3047 -0.2505
  229POPC   C4B 3061   2.317   7.218   5.627  0.0168  0.2981 -0.0554
  230POPC   NC3 3062   8.200   5.846   3.999 -0.2604 -0.0095 -0.0756
  230POPC   PO4 3063   8.246   6.242   4.175  0.0547 -0.1444  0.1261
  230POPC   GL1 3064   8.532   5.902   4.363  0.1354 -0.0447 -0.0155
  230POPC   GL2 3065   8.342   6.032   4.632  0.1666  0.2519 -0.3233
  230POPC   C1A 3066   8.816   5.627   4.598  0.2981 -0.1251  0.0961
  230POPC   D2A 3067   9.191   5.281   4.639  0.0973 -0.1163  0.0840
  230POPC   C3A 3068   9.230   5.187   5.066 -0.0638  0.3610 -0.0227
  230POPC   C4A 3069   9.368   5.221   5.472 -0.0105  0.1885 -0.0192
  230POPC   C1B 3070   8.312   5.891   5.066  0.0587  0.1115 -0.0056
  230POPC   C2B 3071   8.376   5.687   5.408  0.0152 -0.2163  0.2219
  230POPC   C3B 3072   8.593   5.540   5.769 -0.1614  0.1879 -0.0981
  230POPC   C4B 3073   8.913   5.924   5.906  0.0092  0.0596 -0.1941
  231POPC   NC3 3074   3.101   5.130   4.055  0.0173  0.3557 -0.0610
  231POPC   PO4 3075   3.200   5.398   4.109  0.2771 -0.0287  0.0546
  231POPC   GL1 3076   3.006   5.408   4.508  0.0062 -0.1637 -0.3192
  231POPC   GL2 3077   2.714   5.626   4.556 -0.1300 -0.2284 -0.5214
  231POPC   C1A 3078   2.899   5.172   4.867  0.3493  0.0596 -0.0100
  231POPC   D2A 3079   3.283   5.251   5.103 -0.0547 -0.0500  0.0923
  231POPC   C3A 3080   3.522   4.804   5.325  0.1449  0.0056  0.0925
  231POPC   C4A 3081   3.381   4.389   5.310  0.3115  0.2803  0.1911
  231POPC   C1B 3082   2.978   5.619   4.994 -0.0010 -0.1633  0.0644
  231POPC   C2B 3083   2.881   5.390   5.370  0.0713 -0.0559 -0.3667
  231POPC   C3B 3084   2.905   5.066   5.690 -0.0893 -0.3053 -0.4483
  231POPC   C4B 3085   2.880   4.866   5.961  0.0869  0.0772 -0.4229
  232POPC   NC3 3086   2.824   7.169   3.374 -0.0936  0.1055  0.1025
  232POPC   PO4 3087   2.528   7.559   3.412 -0.2267 -0.0532 -0.5039
  232POPC   GL1 3088   2.370   7.682   3.842  0.1022 -0.0675 -0.2241
  232POPC   GL2 3089   2.569   7.750   4.080 -0.2813 -0.2032 -0.0245
  232POPC   C1A 3090   2.197   7.469   4.298  0.0847 -0.1804 -0.0387
  232POPC   D2A 3091   2.397   7.270   4.741  0.0860 -0.0861 -0.1781
  232POPC   C3A 3092   2.259   7.405   5.082  0.0643  0.2299 -0.0389
  232POPC   C4A 3093   2.053   7.552   5.487 -0.2743 -0.0188 -0.2472
  232POPC   C1B 3094   2.614   7.722   4.479  0.0284  0.0418  0.2617
  232POPC   C2B 3095   2.762   7.610   4.978  0.0468  0.0659 -0.0758
  232POPC   C3B 3096   2.552   7.730   5.360  0.2115 -0.1105  0.1749
  232POPC   C4B 3097   2.236   8.013   5.600 -0.3040 -0.0076 -0.0190
  233POPC   NC3 3098   3.598  10.592   3.445 -0.0631 -0.1504 -0.1717
  233POPC   PO4 3099   3.402  10.186   3.649  0.3229  0.0674  0.1425
  233POPC   GL1 3100   3.361  10.335   4.050 -0.0357  0.1147  0.2758
  233POPC   GL2 3101   3.644  10.123   4.314  0.3375 -0.1353 -0.1742
  233POPC   C1A 3102   3.319  10.446   4.510 -0.0338  0.2359 -0.1517
  233POPC   D2A 3103   3.161  10.439   4.956 -0.2333  0.3752  0.2263
  233POPC   C3A 3104   2.795  10.201   5.107 -0.2599 -0.0322  0.4118
  233POPC   C4A 3105   2.684   9.820   5.383 -0.0216  0.2181  0.1737
  233POPC   C1B 3106   3.600  10.072   4.797 -0.2588  0.0442  0.0211
  233POPC   C2B 3107   3.695  10.242   5.160  0.0165  0.0069 -0.0223
  233POPC   C3B 3108   3.502  10.605   5.268  0.2837  0.0373  0.0841
  233POPC   C4B 3109   3.545  11.045   5.379 -0.1751 -0.2400  0.0351
  234POPC   NC3 3110   0.220   9.069   3.431 -0.1106  0.0270  0.1091
  234POPC   PO4 3111   0.059   9.020   3.859  0.4408 -0.3119  0.3191
  234POPC   GL1 3112  -0.044   8.685   4.200 -0.3786 -0.2864  0.0045
  234POPC   GL2 3113  -0.311   8.430   4.166 -0.0885 -0.1455 -0.0508
  234POPC   C1A 3114  -0.057   8.367   4.609  0.2197  0.1002  0.2637
  234POPC   D2A 3115  -0.463   8.120   4.804 -0.0050  0.2138 -0.4550
  234POPC   C3A 3116  -0.607   7.862   5.227  0.0665 -0.3553 -0.0868
  234POPC   C4A 3117  -0.258   7.632   5.435  0.0863  0.3631  0.1247
  234POPC   C1B 3118  -0.406   8.702   4.562  0.1039  0.0734 -0.1626
  234POPC   C2B 3119  -0.365   8.750   4.949 -0.0827  0.0937 -0.0131
  234POPC   C3B 3120  -0.012   9.009   5.262 -0.1775  0.2417 -0.0146
  234POPC   C4B 3121  -0.138   9.435   5.550  0.3463 -0.0605  0.0774
  235POPC   NC3 3122  10.333   2.929   2.749  0.0628 -0.4035 -0.1942
  235POPC   PO4 3123  10.516   2.975   3.062 -0.0326 -0.2180  0.1590
  235POPC   GL1 3124  10.301   3.304   3.432  0.0616  0.1105  0.1951
  235POPC   GL2 3125  10.048   3.286   3.582  0.0736  0.4614 -0.1668
  235POPC   C1A 3126  10.312   3.809   3.495  0.0712 -0.1488  0.2940
  235POPC   D2A 3127  10.516   4.206   3.567  0.2714  0.3852  0.1183
  235POPC   C3A 3128  10.237   4.636   3.797  0.2183  0.2119  0.1058
  235POPC   C4A 3129  10.427   4.841   3.992  0.2854  0.2513 -0.0005
  235POPC   C1B 3130  10.245   3.119   3.960  0.0367  0.1421 -0.1024
  235POPC   C2B 3131  10.650   2.947   4.039 -0.2084 -0.3087 -0.1414
  235POPC   C3B 3132  10.919   2.621   4.263  0.0003 -0.2651  0.1533
  235POPC   C4B 3133  10.891   2.575   4.660  0.4234  0.1547 -0.1773
  236POPC   NC3 3134   7.187   7.492   4.030 -0.3387 -0.0306 -0.1244
  236POPC   PO4 3135   7.063   7.813   3.903  0.1768  0.3555 -0.0142
  236POPC   GL1 3136   7.130   7.857   4.372 -0.0916 -0.0313  0.1944
  236POPC   GL2 3137   6.833   7.693   4.406 -0.2042 -0.0215  0.1532
  236POPC   C1A 3138   7.021   7.987   4.782 -0.3033 -0.1205  0.0878
  236POPC   D2A 3139   7.118   8.151   5.170  0.4972  0.1361  0.0126
  236POPC   C3A 3140   7.528   7.993   5.268 -0.0867 -0.0797 -0.1466
  236POPC   C4A 3141   7.659   7.661   5.470  0.0220 -0.0723  0.3383
  236POPC   C1B 3142   6.928   7.477   4.837  0.3691 -0.0556  0.1096
  236POPC   C2B 3143   6.586   7.355   5.366 -0.1333 -0.1911  0.0651
  236POPC   C3B 3144   6.093   7.420   5.490  0.0935 -0.0486 -0.0411
  236POPC   C4B 3145   5.739   7.124   5.676 -0.2926 -0.0519  0.0431
  237POPC   NC3 3146   9.492   6.789   3.931 -0.0272  0.0669  0.1390
  237POPC   PO4 3147   9.718   7.126   3.994 -0.1473  0.0368  0.1594
  237POPC   GL1 3148   9.617   7.038   4.433  0.1090 -0.1075  0.2601
  237POPC   GL2 3149   9.219   7.048   4.489  0.3248  0.1363  0.1186
  237POPC   C1A 3150   9.553   6.653   4.634 -0.4657 -0.0342 -0.1172
  237POPC   D2A 3151   9.524   6.306   4.894  0.0610  0.1611 -0.0402
  237POPC   C3A 3152   9.738   5.890   4.953  0.1198  0.0186 -0.0310
  237POPC   C4A 3153   9.676   5.474   4.984  0.3592 -0.0051  0.2228
  237POPC   C1B 3154   9.304   6.946   4.995 -0.1082 -0.1250 -0.2465
  237POPC   C2B 3155   9.481   6.767   5.285 -0.0429 -0.0573  0.3819
  237POPC   C3B 3156   9.657   6.520   5.526 -0.0476 -0.0089  0.2672
  237POPC   C4B 3157   9.918   6.253   5.854 -0.2471  0.1275  0.1762
  238POPC   NC3 3158   6.529   9.647   3.718  0.1047 -0.1354 -0.2837
  238POPC   PO4 3159   6.135   9.424   3.904 -0.2785  0.0662 -0.1878
  238POPC   GL1 3160   6.313   9.487   4.396 -0.1078 -0.1166  0.4177
  238POPC   GL2 3161   6.183   9.746   4.550 -0.2095  0.0511 -0.1155
  238POPC   C1A 3162   6.687   9.593   4.599 -0.0352  0.3753 -0.0515
  238POPC   D2A 3163   6.966   9.785   4.896 -0.3715  0.2956 -0.0942
  238POPC   C3A 3164   7.274   9.447   5.141 -0.3579  0.1391 -0.1271
  238POPC   C4A 3165   7.626   9.185   5.007 -0.1008 -0.0679 -0.1542
  238POPC   C1B 3166   6.418   9.737   4.972  0.2062 -0.1245 -0.0823
  238POPC   C2B 3167   6.435   9.595   5.457 -0.0287 -0.4129  0.0009
  238POPC   C3B 3168   6.269   9.458   5.838  0.1219  0.1163  0.1776
  238POPC   C4B 3169   5.809   9.391   5.941  0.0013  0.2546  0.0293
  239POPC   NC3 3170   8.828   9.611   3.944 -0.1307 -0.2812 -0.1885
  239POPC   PO4 3171   9.179   9.886   3.799  0.3467  0.0900  0.3016
  239POPC   GL1 3172   9.038   9.919   4.272  0.1342 -0.0403 -0.1954
  239POPC   GL2 3173   9.249  10.200   4.419  0.0174 -0.2425  0.2335
  239POPC   C1A 3174   8.992   9.874   4.741 -0.3840 -0.0978  0.2138
  239POPC   D2A 3175   8.718   9.803   5.086 -0.2036  0.1745  0.4120
  239POPC   C3A 3176   8.560  10.196   5.214  0.2190  0.3232  0.0330
  239POPC   C4A 3177   8.478  10.607   5.614  0.1783 -0.2470  0.1423
  239POPC   C1B 3178   9.266  10.280   4.847 -0.0204  0.3319 -0.2402
  239POPC   C2B 3179   9.106  10.119   5.189  0.4207  0.1678  0.0137
  239POPC   C3B 3180   9.168   9.998   5.513  0.0164  0.2221 -0.0655
  239POPC   C4B 3181   9.144   9.705   5.898  0.0109 -0.0733  0.0806
  240POPC   NC3 3182   5.180   3.839   3.201  0.0712  0.0388  0.2625
  240POPC   PO4 3183   5.126   4.012   3.673  0.1640  0.0655 -0.1866
  240POPC   GL1 3184   4.859   3.975   3.956  0.0959 -0.1094 -0.0496
  240POPC   GL2 3185   4.649   3.715   3.837  0.0907  0.1705  0.0411
  240POPC   C1A 3186   4.847   4.000   4.443  0.1217  0.0559  0.2721
  240POPC   D2A 3187   4.510   4.019   4.727 -0.1625 -0.1119 -0.0725
  240POPC   C3A 3188   4.465   4.427   4.775  0.0391  0.0333 -0.2337
  240POPC   C4A 3189   4.389   4.605   5.071 -0.0240 -0.1362  0.2388
  240POPC   C1B 3190   4.481   3.620   4.380 -0.0475  0.1860 -0.0990
  240POPC   C2B 3191   4.511   3.497   4.879  0.1061 -0.2955 -0.1132
  240POPC   C3B 3192   4.721   3.761   5.318  0.0296 -0.1882 -0.0923
  240POPC   C4B 3193   4.444   3.930   5.644  0.1920  0.2957 -0.2180
  241POPC   NC3 3194   3.787   1.368   3.487  0.0678 -0.0183  0.1218
  241POPC   PO4 3195   3.826   1.137   3.888  0.2455  0.0617  0.0965
  241POPC   GL1 3196   3.576   1.107   4.277  0.0505  0.1867 -0.1897
  241POPC   GL2 3197   3.288   0.907   4.341  0.0313 -0.0648 -0.1184
  241POPC   C1A 3198   3.672   1.270   4.744 -0.2832  0.2661  0.0624
  241POPC   D2A 3199   3.617   1.338   5.168 -0.0579  0.0882 -0.0756
  241POPC   C3A 3200   3.670   1.248   5.519  0.0419  0.1466  0.2156
  241POPC   C4A 3201   3.903   1.386   5.829  0.1244  0.0723 -0.0445
  241POPC   C1B 3202   3.149   0.729   4.665 -0.2371 -0.1099 -0.2574
  241POPC   C2B 3203   2.764   0.918   4.660 -0.0398  0.1288  0.1036
  241POPC   C3B 3204   2.296   1.032   4.612 -0.2698 -0.1129 -0.2209
  241POPC   C4B 3205   1.891   0.942   4.442 -0.0853  0.1171  0.0589
  242POPC   NC3 3206   9.211   4.722   2.777  0.2598  0.3682 -0.3285
  242POPC   PO4 3207   9.259   4.530   3.130  0.2912 -0.0919  0.2312
  242POPC   GL1 3208   9.619   4.582   3.426 -0.2216  0.1205 -0.0119
  242POPC   GL2 3209   9.702   4.892   3.465 -0.0167 -0.2816 -0.2326
  242POPC   C1A 3210   9.602   4.555   3.914 -0.0430 -0.2432 -0.0986
  242POPC   D2A 3211   9.759   4.361   4.276  0.2474  0.4044 -0.1668
  242POPC   C3A 3212   9.682   4.225   4.620  0.2057  0.0363 -0.0256
  242POPC   C4A 3213   9.680   4.335   5.112 -0.3209 -0.1525 -0.2970
  242POPC   C1B 3214   9.363   5.026   3.714 -0.1009 -0.0467  0.1487
  242POPC   C2B 3215   9.133   4.741   3.994 -0.2193 -0.1308 -0.1876
  242POPC   C3B 3216   9.027   4.286   4.059  0.1217 -0.2765  0.2719
  242POPC   C4B 3217   9.248   4.053   4.445 -0.3703 -0.0841 -0.2350
  243POPC   NC3 3218   2.257   8.194   3.866  0.0813 -0.0269 -0.2965
  243POPC   PO4 3219   2.004   8.473   3.807 -0.0656 -0.1029 -0.1647
  243POPC   GL1 3220   1.960   8.390   4.184 -0.0053 -0.0722  0.0465
  243POPC   GL2 3221   1.673   8.231   4.247  0.2397 -0.1400 -0.0953
  243POPC   C1A 3222   2.186   7.997   4.445  0.1399 -0.0834  0.0359
  243POPC   D2A 3223   2.266   7.797   4.761  0.1790  0.0468 -0.1900
  243POPC   C3A 3224   1.998   8.014   5.108 -0.0628  0.1836 -0.2287
  243POPC   C4A 3225   1.774   8.075   5.509 -0.0000 -0.3481  0.1458
  243POPC   C1B 3226   1.789   7.927   4.691  0.4394 -0.1489  0.0195
  243POPC   C2B 3227   1.788   7.520   4.941 -0.0716  0.0197 -0.0791
  243POPC   C3B 3228   1.875   7.139   5.041  0.2193  0.0267 -0.1654
  243POPC   C4B 3229   1.904   7.069   5.442  0.1027  0.1074  0.0085
  244POPC   NC3 3230   2.587   5.176   3.293 -0.3783 -0.2889 -0.1139
  244POPC   PO4 3231   2.194   5.055   3.555 -0.0315  0.2114 -0.1394
  244POPC   GL1 3232   2.275   4.996   4.006 -0.0365 -0.1676 -0.0731
  244POPC   GL2 3233   2.244   5.195   4.274 -0.2103  0.0158  0.0536
  244POPC   C1A 3234   2.223   4.652   4.413 -0.0092  0.0191 -0.0573
  244POPC   D2A 3235   2.157   4.537   4.823  0.1303 -0.0998  0.0266
  244POPC   C3A 3236   1.953   4.754   5.181 -0.2422 -0.1235 -0.0443
  244POPC   C4A 3237   2.026   4.859   5.609  0.0565  0.0578 -0.0956
  244POPC   C1B 3238   2.247   5.384   4.681 -0.1406  0.1088  0.0229
  244POPC   C2B 3239   2.475   5.556   4.992  0.1433  0.2394 -0.0688
  244POPC   C3B 3240   2.421   5.759   5.420  0.0059  0.1606  0.1912
  244POPC   C4B 3241   2.095   5.628   5.755  0.2794 -0.1740 -0.2785
  245POPC   NC3 3242   0.451   6.945   3.152  0.2194 -0.1675  0.2390
  245POPC   PO4 3243   0.336   6.709   3.686  0.0131  0.1412  0.0435
  245POPC   GL1 3244   0.163   6.650   4.083  0.0709 -0.1625 -0.1832
  245POPC   GL2 3245   0.256   6.295   4.057  0.1400 -0.0621 -0.2223
  245POPC   C1A 3246  -0.135   6.644   4.363  0.0276 -0.0311  0.2438
  245POPC   D2A 3247  -0.235   6.877   4.780 -0.1558 -0.1585  0.3541
  245POPC   C3A 3248  -0.070   6.722   5.159 -0.0272 -0.0292  0.0845
  245POPC   C4A 3249  -0.330   6.434   5.445 -0.3595 -0.0505 -0.0036
  245POPC   C1B 3250   0.198   6.210   4.446 -0.0586  0.0345 -0.0030
  245POPC   C2B 3251   0.061   6.390   4.793 -0.3364  0.2964  0.1299
  245POPC   C3B 3252   0.122   6.154   5.090 -0.4216 -0.2875  0.1530
  245POPC   C4B 3253   0.076   6.014   5.438 -0.1088 -0.3898 -0.2349
  246POPC   NC3 3254   9.307   2.274   3.350  0.0429 -0.1250 -0.0957
  246POPC   PO4 3255   9.492   2.157   3.803  0.3803 -0.2126 -0.2055
  246POPC   GL1 3256   9.451   2.349   4.171  0.2740 -0.0890 -0.0690
  246POPC   GL2 3257   9.493   2.678   4.141 -0.0462  0.2472  0.1861
  246POPC   C1A 3258   9.300   2.143   4.547 -0.1758 -0.2710 -0.1178
  246POPC   D2A 3259   9.192   2.144   5.024 -0.0788  0.1059  0.2315
  246POPC   C3A 3260   9.415   1.883   5.243  0.0061 -0.1482  0.1174
  246POPC   C4A 3261   9.610   1.721   5.516  0.2308  0.1308  0.2826
  246POPC   C1B 3262   9.537   2.640   4.662 -0.3035  0.2727  0.2089
  246POPC   C2B 3263   9.577   2.542   5.083  0.1108  0.1204 -0.2029
  246POPC   C3B 3264   9.768   2.234   5.368  0.1452 -0.1530 -0.2721
  246POPC   C4B 3265  10.259   2.247   5.491  0.4366 -0.0406  0.2378
  247POPC   NC3 3266   1.767   0.870   3.499  0.3345 -0.0836 -0.1798
  247POPC   PO4 3267   2.155   0.682   3.726  0.1918  0.0797 -0.1873
  247POPC   GL1 3268   2.003   0.503   4.173  0.2633 -0.1818 -0.1092
  247POPC   GL2 3269   1.888   0.273   4.122  0.4232 -0.0850  0.4494
  247POPC   C1A 3270   1.645   0.503   4.447  0.1968 -0.1406  0.1899
  247POPC   D2A 3271   1.628   0.370   4.841 -0.1777  0.1128 -0.2546
  247POPC   C3A 3272   1.484   0.658   5.163  0.0444  0.5356 -0.1659
  247POPC   C4A 3273   1.735   0.773   5.417  0.1383 -0.0560  0.1816
  247POPC   C1B 3274   1.936   0.036   4.566 -0.1813 -0.1076 -0.1658
  247POPC   C2B 3275   2.058   0.109   4.985  0.3126  0.2057  0.0595
  247POPC   C3B 3276   1.889   0.215   5.347 -0.1523 -0.3413  0.0553
  247POPC   C4B 3277   1.759   0.388   5.697  0.4446  0.0088 -0.1587
  248POPC   NC3 3278   0.152   1.570   3.870  0.0192  0.0304  0.0415
  248POPC   PO4 3279   0.447   1.580   4.182 -0.1281 -0.1317 -0.0829
  248POPC   GL1 3280   0.212   1.773   4.426 -0.0258  0.0356 -0.0267
  248POPC   GL2 3281   0.267   1.566   4.686 -0.2652 -0.0543  0.1960
  248POPC   C1A 3282   0.087   2.047   4.809  0.2174  0.0805  0.3445
  248POPC   D2A 3283  -0.138   2.220   5.039 -0.0452 -0.3025 -0.0750
  248POPC   C3A 3284  -0.569   2.232   4.941  0.2098 -0.0484  0.1130
  248POPC   C4A 3285  -0.964   2.138   4.863  0.0523 -0.0763  0.3318
  248POPC   C1B 3286   0.394   1.647   5.093  0.0277  0.0249 -0.0862
  248POPC   C2B 3287   0.335   1.630   5.543  0.1216  0.1123  0.0672
  248POPC   C3B 3288   0.304   1.833   5.905 -0.2913  0.0264 -0.0130
  248POPC   C4B 3289   0.403   2.299   5.841  0.0753  0.0524  0.2345
  249POPC   NC3 3290   8.007   0.243   3.706  0.1631 -0.1588  0.2445
  249POPC   PO4 3291   8.065  -0.280   3.708  0.1520  0.1166  0.0122
  249POPC   GL1 3292   7.988  -0.193   4.057 -0.0260  0.0555  0.1501
  249POPC   GL2 3293   8.163   0.100   4.117 -0.1307  0.0087 -0.1574
  249POPC   C1A 3294   7.958  -0.232   4.460  0.1065 -0.1876  0.2451
  249POPC   D2A 3295   8.048   0.029   4.861 -0.2462 -0.5241 -0.0902
  249POPC   C3A 3296   8.489   0.132   5.080  0.0435  0.1920  0.1010
  249POPC   C4A 3297   8.832   0.407   4.993  0.1528 -0.0540 -0.0780
  249POPC   C1B 3298   8.278   0.538   4.249 -0.1731  0.0262  0.1616
  249POPC   C2B 3299   8.471   0.936   4.269  0.1646 -0.0088  0.2680
  249POPC   C3B 3300   8.724   1.284   4.353  0.2254 -0.0511 -0.0922
  249POPC   C4B 3301   8.414   1.556   4.620  0.0144  0.4620  0.1662
  250POPC   NC3 3302   6.759   6.582   4.149 -0.0154  0.0622  0.0024
  250POPC   PO4 3303   7.297   6.533   4.296 -0.0973 -0.3298 -0.0700
  250POPC   GL1 3304   7.557   6.789   4.586  0.0637  0.0618  0.1110
  250POPC   GL2 3305   7.912   6.770   4.610  0.1723 -0.0045 -0.1719
  250POPC   C1A 3306   7.680   6.690   5.051  0.6800 -0.2052  0.4176
  250POPC   D2A 3307   7.700   6.667   5.442 -0.1766  0.0178 -0.0872
  250POPC   C3A 3308   7.584   7.071   5.686  0.1759 -0.1025 -0.0724
  250POPC   C4A 3309   7.386   7.369   5.723  0.2214 -0.1963 -0.0178
  250POPC   C1B 3310   8.249   6.927   4.927  0.2204  0.2742  0.1835
  250POPC   C2B 3311   8.342   6.836   5.287 -0.1900  0.0066  0.1721
  250POPC   C3B 3312   8.538   6.531   5.572  0.0465  0.1593  0.3232
  250POPC   C4B 3313   8.686   6.064   5.524  0.3388 -0.2001 -0.2642
  251POPC   NC3 3314   1.843  10.655   3.115 -0.1524  0.0440  0.0284
  251POPC   PO4 3315   1.449  10.528   3.420 -0.1253 -0.0253  0.1269
  251POPC   GL1 3316   1.283  10.473   3.817 -0.3909 -0.0311  0.1205
  251POPC   GL2 3317   1.479  10.658   3.892 -0.3265 -0.0420  0.1391
  251POPC   C1A 3318   0.998  10.425   4.184  0.1483 -0.3005  0.1252
  251POPC   D2A 3319   1.077  10.522   4.711  0.0056 -0.2397  0.3615
  251POPC   C3A 3320   0.907  10.337   5.133  0.0406  0.1377 -0.1327
  251POPC   C4A 3321   0.432   9.979   5.250 -0.0192 -0.0035 -0.1248
  251POPC   C1B 3322   1.497  10.593   4.376  0.1284  0.1338  0.2638
  251POPC   C2B 3323   1.574  10.431   4.810 -0.1683  0.1809 -0.0574
  251POPC   C3B 3324   1.894  10.385   5.203  0.0201  0.0109 -0.2587
  251POPC   C4B 3325   2.252  10.571   5.422 -0.0428  0.1626 -0.0203
  252POPC   NC3 3326   6.541   7.805   3.532  0.0267  0.3074 -0.0016
  252POPC   PO4 3327   6.241   7.437   3.685  0.0317  0.1665 -0.0229
  252POPC   GL1 3328   6.262   7.488   4.158  0.0722 -0.2807 -0.4162
  252POPC   GL2 3329   6.290   7.339   4.387  0.5065  0.0883 -0.2122
  252POPC   C1A 3330   6.351   7.817   4.458 -0.1229  0.1160 -0.1094
  252POPC   D2A 3331   6.549   7.968   4.898  0.1538  0.2655  0.2318
  252POPC   C3A 3332   6.412   7.813   5.249  0.0265 -0.0568 -0.1797
  252POPC   C4A 3333   5.991   7.927   5.436  0.1877 -0.2023 -0.0462
  252POPC   C1B 3334   5.899   7.297   4.544 -0.0071  0.0240  0.0076
  252POPC   C2B 3335   5.820   7.169   4.992 -0.3036  0.0892  0.0058
  252POPC   C3B 3336   5.636   7.388   5.260 -0.0440 -0.2089 -0.1217
  252POPC   C4B 3337   5.484   7.785   5.439 -0.0533 -0.1680  0.0635
  253POPC   NC3 3338   1.189   6.889   4.022  0.1942  0.0157 -0.1551
  253POPC   PO4 3339   0.697   7.018   3.964  0.2589 -0.1075  0.1209
  253POPC   GL1 3340   0.954   7.093   4.400 -0.2792 -0.0469  0.2564
  253POPC   GL2 3341   1.273   7.057   4.509  0.2750  0.0062  0.0686
  253POPC   C1A 3342   0.791   7.383   4.717  0.0081  0.2654 -0.1190
  253POPC   D2A 3343   0.600   7.684   5.013 -0.1077 -0.0711 -0.2104
  253POPC   C3A 3344   0.798   7.852   5.404 -0.1851  0.0728  0.1007
  253POPC   C4A 3345   0.565   8.055   5.712 -0.1337 -0.2698 -0.0827
  253POPC   C1B 3346   1.103   6.629   4.625  0.2299 -0.2557 -0.1788
  253POPC   C2B 3347   1.073   6.488   5.087 -0.1245 -0.2766  0.1111
  253POPC   C3B 3348   1.007   6.304   5.439 -0.0070 -0.0412  0.1573
  253POPC   C4B 3349   1.090   5.971   5.675 -0.1803 -0.1365 -0.3399
  254POPC   NC3 3350   6.432   5.834   4.315  0.0123  0.0502  0.1604
  254POPC   PO4 3351   6.472   6.179   4.273 -0.2140 -0.2555 -0.4298
  254POPC   GL1 3352   6.391   6.069   4.710 -0.1076  0.1584  0.1604
  254POPC   GL2 3353   6.171   5.690   4.759 -0.3117  0.0321  0.1887
  254POPC   C1A 3354   6.495   5.999   5.097  0.1064 -0.2195 -0.2919
  254POPC   D2A 3355   6.551   5.832   5.522  0.2173  0.0400  0.0479
  254POPC   C3A 3356   6.210   5.887   5.832 -0.3319  0.1518  0.3026
  254POPC   C4A 3357   5.749   5.756   5.815 -0.2313  0.1983  0.1939
  254POPC   C1B 3358   6.022   5.527   5.134 -0.0233  0.0194 -0.1033
  254POPC   C2B 3359   6.102   5.409   5.509 -0.1741  0.1281  0.0497
  254POPC   C3B 3360   5.896   5.275   5.851 -0.0096  0.1134 -0.5008
  254POPC   C4B 3361   5.475   5.325   5.865 -0.2507 -0.0013  0.0448
  255POPC   NC3 3362   8.785   7.092   4.194  0.3207  0.1416  0.3439
  255POPC   PO4 3363   8.362   6.855   4.300 -0.1665 -0.0117  0.0658
  255POPC   GL1 3364   8.352   6.596   4.549  0.0631  0.3691 -0.1517
  255POPC   GL2 3365   8.618   6.396   4.491 -0.1719  0.0192 -0.0307
  255POPC   C1A 3366   8.579   6.562   4.944  0.0582  0.1830  0.0503
  255POPC   D2A 3367   8.936   6.668   5.208  0.0751 -0.0290  0.2316
  255POPC   C3A 3368   9.106   6.532   5.640 -0.2295 -0.2703 -0.2117
  255POPC   C4A 3369   9.352   6.276   5.900 -0.2311 -0.1020  0.2920
  255POPC   C1B 3370   8.840   6.106   4.760  0.2148 -0.0934 -0.0127
  255POPC   C2B 3371   8.789   5.781   5.073 -0.3562  0.0261 -0.0624
  255POPC   C3B 3372   8.959   5.626   5.421  0.0142  0.2855  0.1394
  255POPC   C4B 3373   9.149   5.454   5.878  0.2281  0.1125  0.4579
  256POPC   NC3 3374   2.054   5.488   3.861 -0.0567  0.1206 -0.0607
  256POPC   PO4 3375   2.281   5.890   3.737 -0.0150  0.1632  0.0987
  256POPC   GL1 3376   2.131   5.979   4.112 -0.1338 -0.0587 -0.0663
  256POPC   GL2 3377   1.951   6.418   4.231 -0.2652 -0.1451  0.0001
  256POPC   C1A 3378   2.280   5.900   4.542 -0.0993  0.2932  0.2967
  256POPC   D2A 3379   2.128   6.074   5.061 -0.1104  0.1059 -0.1232
  256POPC   C3A 3380   1.806   5.870   5.271 -0.0523 -0.0586 -0.0631
  256POPC   C4A 3381   1.397   6.000   5.309  0.2283  0.2570 -0.1390
  256POPC   C1B 3382   1.913   6.262   4.688  0.0120 -0.0059 -0.0805
  256POPC   C2B 3383   1.629   6.300   5.022  0.1126  0.2239 -0.0900
  256POPC   C3B 3384   1.538   6.531   5.414 -0.2814 -0.0114  0.0903
  256POPC   C4B 3385   1.824   6.625   5.809  0.0196  0.0055 -0.2569
  257POPC   NC3 3386   6.884   4.770   3.573 -0.0937  0.0296 -0.1581
  257POPC   PO4 3387   6.693   5.086   3.903  0.1970  0.0111 -0.0178
  257POPC   GL1 3388   6.708   4.846   4.419 -0.0578  0.1364 -0.1732
  257POPC   GL2 3389   6.450   4.868   4.565  0.3653 -0.0075 -0.2595
  257POPC   C1A 3390   6.862   4.696   4.861 -0.2956 -0.4980 -0.0038
  257POPC   D2A 3391   6.641   4.594   5.185 -0.1586 -0.0884  0.3248
  257POPC   C3A 3392   6.654   4.177   5.475 -0.3102  0.1367  0.1284
  257POPC   C4A 3393   6.814   4.059   5.953  0.0028  0.0403  0.4427
  257POPC   C1B 3394   6.440   4.994   4.990  0.0722 -0.0485 -0.3833
  257POPC   C2B 3395   6.480   5.400   5.117 -0.0946 -0.0743  0.0649
  257POPC   C3B 3396   6.773   5.575   5.191 -0.1931  0.2691 -0.0631
  257POPC   C4B 3397   7.184   5.829   5.326 -0.1389  0.0523  0.2164
  258POPC   NC3 3398   4.226   3.188   3.608 -0.0282  0.0284 -0.1174
  258POPC   PO4 3399   4.741   3.230   3.789 -0.0065 -0.2487 -0.0968
  258POPC   GL1 3400   4.868   3.256   4.201  0.1497 -0.3130  0.1543
  258POPC   GL2 3401   5.025   3.548   4.366 -0.1524 -0.0048  0.0675
  258POPC   C1A 3402   4.824   3.192   4.606  0.2577  0.0166 -0.0529
  258POPC   D2A 3403   4.874   3.287   5.059  0.1068 -0.2860 -0.1279
  258POPC   C3A 3404   4.806   3.049   5.334  0.2397  0.1770 -0.1819
  258POPC   C4A 3405   4.563   3.141   5.740 -0.2357  0.1736  0.0557
  258POPC   C1B 3406   4.990   3.729   4.795 -0.1617 -0.0590 -0.0685
  258POPC   C2B 3407   4.905   4.102   4.992  0.1785 -0.2606  0.0654
  258POPC   C3B 3408   4.595   4.248   5.319  0.2625 -0.5794  0.2355
  258POPC   C4B 3409   4.516   4.373   5.839  0.3388  0.0068  0.0805
  259POPC   NC3 3410   7.995   5.531   3.418  0.1184 -0.1270 -0.4818
  259POPC   PO4 3411   8.453   5.590   3.652 -0.2853  0.1249 -0.0758
  259POPC   GL1 3412   8.628   5.473   4.004  0.1506  0.0390  0.1456
  259POPC   GL2 3413   8.492   5.220   4.181  0.0955 -0.0982 -0.3082
  259POPC   C1A 3414   9.071   5.436   4.138 -0.1427 -0.1415 -0.1179
  259POPC   D2A 3415   9.615   5.406   4.300  0.2723  0.3487  0.1056
  259POPC   C3A 3416   9.881   5.205   4.553  0.0790 -0.1177 -0.2597
  259POPC   C4A 3417   9.999   5.093   4.884 -0.0177  0.0125  0.2028
  259POPC   C1B 3418   8.485   5.174   4.647  0.0091 -0.1830 -0.0945
  259POPC   C2B 3419   8.724   5.275   5.077  0.1027  0.3541  0.0368
  259POPC   C3B 3420   8.797   5.114   5.340 -0.0739  0.0127  0.1532
  259POPC   C4B 3421   8.754   5.022   5.839  0.0534  0.1561  0.1559
  260POPC   NC3 3422   6.357   4.808   3.633  0.0712 -0.0092  0.2028
  260POPC   PO4 3423   6.613   4.591   3.993 -0.0859 -0.2604  0.1979
  260POPC   GL1 3424   6.602   4.367   4.266 -0.1130 -0.1411  0.0533
  260POPC   GL2 3425   6.304   4.383   4.372 -0.4421 -0.2880 -0.0045
  260POPC   C1A 3426   6.801   4.338   4.582  0.0620  0.2194  0.2591
  260POPC   D2A 3427   7.183   4.100   4.630 -0.0816  0.2037 -0.1301
  260POPC   C3A 3428   7.100   3.833   4.884 -0.0737 -0.2862  0.1696
  260POPC   C4A 3429   6.824   3.702   5.211  0.3094 -0.3338 -0.1364
  260POPC   C1B 3430   6.286   4.476   4.880  0.1880 -0.0522  0.1836
  260POPC   C2B 3431   6.206   4.226   5.159 -0.2982  0.0627 -0.2528
  260POPC   C3B 3432   5.794   4.238   5.323 -0.1607 -0.1014 -0.0824
  260POPC   C4B 3433   5.369   4.150   5.530 -0.0837  0.2393 -0.0195
  261POPC   NC3 3434   6.325   4.121   3.584  0.2004  0.0607  0.1499
  261POPC   PO4 3435   6.510   4.001   3.975 -0.0131 -0.2803  0.0816
  261POPC   GL1 3436   6.515   3.835   4.403 -0.1723 -0.0578  0.2719
  261POPC   GL2 3437   6.348   3.974   4.672  0.1653  0.1482 -0.1665
  261POPC   C1A 3438   6.673   3.561   4.742  0.0492 -0.1024 -0.1022
  261POPC   D2A 3439   6.973   3.253   4.878 -0.0415 -0.0465  0.2439
  261POPC   C3A 3440   7.113   3.221   5.254 -0.0577 -0.3468 -0.1349
  261POPC   C4A 3441   7.319   2.986   5.539  0.4552  0.1210  0.0712
  261POPC   C1B 3442   6.661   4.105   4.969  0.3497 -0.3104  0.2527
  261POPC   C2B 3443   7.094   4.346   5.059 -0.0719 -0.1991 -0.0411
  261POPC   C3B 3444   7.347   4.507   5.364 -0.1162 -0.0969  0.2927
  261POPC   C4B 3445   7.408   4.873   5.665  0.0380 -0.0510 -0.0117
  262POPC   NC3 3446   2.739   3.395   3.544 -0.2364 -0.3261 -0.1244
  262POPC   PO4 3447   2.302   3.357   3.470 -0.0229 -0.0634  0.2134
  262POPC   GL1 3448   2.150   3.273   3.793 -0.2113 -0.0642  0.2173
  262POPC   GL2 3449   2.165   2.933   3.975 -0.3211 -0.1933  0.0907
  262POPC   C1A 3450   1.806   3.327   4.109  0.3524  0.0430 -0.2152
  262POPC   D2A 3451   1.623   2.916   4.193  0.2340 -0.1878 -0.0295
  262POPC   C3A 3452   1.211   2.843   4.268 -0.3617 -0.1118  0.1558
  262POPC   C4A 3453   0.750   2.744   4.337  0.3655  0.0162 -0.0861
  262POPC   C1B 3454   2.339   3.150   4.340  0.3327 -0.2676  0.2710
  262POPC   C2B 3455   2.696   3.228   4.612  0.0256  0.1982  0.2470
  262POPC   C3B 3456   2.891   3.451   4.816  0.1299 -0.0144 -0.3634
  262POPC   C4B 3457   3.145   3.676   4.985  0.1962  0.1416  0.1400
  263POPC   NC3 3458   6.102  10.387   3.951 -0.0757  0.2490  0.2020
  263POPC   PO4 3459   5.972  10.140   4.401 -0.1626  0.0006  0.3744
  263POPC   GL1 3460   6.071  10.159   4.834  0.1006  0.1421  0.0032
  263POPC   GL2 3461   5.888   9.906   5.014 -0.0668  0.2089  0.2748
  263POPC   C1A 3462   6.257  10.534   4.979 -0.0510 -0.0075 -0.2031
  263POPC   D2A 3463   6.331  10.584   5.466 -0.2474 -0.1915 -0.1075
  263POPC   C3A 3464   6.749  10.991   5.549  0.0832  0.3344  0.2018
  263POPC   C4A 3465   6.834  11.241   5.994 -0.2255 -0.2020  0.2284
  263POPC   C1B 3466   6.232  10.082   5.320 -0.1494  0.0777 -0.3536
  263POPC   C2B 3467   6.589  10.062   5.355  0.1074  0.0535  0.2173
  263POPC   C3B 3468   6.968   9.787   5.441 -0.1413  0.0708  0.0908
  263POPC   C4B 3469   7.323   9.768   5.670 -0.2982 -0.0739  0.2410
  264POPC   NC3 3470   4.231   6.053   3.697  0.1193  0.2440  0.0441
  264POPC   PO4 3471   3.906   6.383   3.610 -0.0612 -0.4140 -0.0172
  264POPC   GL1 3472   3.811   6.416   4.041  0.1666 -0.2503  0.1618
  264POPC   GL2 3473   3.724   6.023   3.991 -0.1724 -0.0953 -0.1649
  264POPC   C1A 3474   3.871   6.464   4.467 -0.1002 -0.2911 -0.1823
  264POPC   D2A 3475   4.072   6.177   4.860  0.3271 -0.0025  0.0712
  264POPC   C3A 3476   3.810   6.109   5.320  0.2145  0.0615 -0.2142
  264POPC   C4A 3477   3.472   6.103   5.608  0.0423  0.1882  0.2663
  264POPC   C1B 3478   3.853   5.923   4.456  0.2673  0.2274  0.0729
  264POPC   C2B 3479   4.025   5.692   4.838  0.2316 -0.0242  0.1228
  264POPC   C3B 3480   4.219   5.521   5.156 -0.3355 -0.1944  0.2003
  264POPC   C4B 3481   4.630   5.452   5.391 -0.0144 -0.0673  0.3905
  265POPC   NC3 3482   1.569   4.610   2.915 -0.0306  0.2281  0.1275
  265POPC   PO4 3483   1.881   4.634   3.219 -0.0193  0.2104 -0.1205
  265POPC   GL1 3484   1.810   4.704   3.691  0.2226 -0.2322  0.0002
  265POPC   GL2 3485   2.101   4.519   3.909  0.3060 -0.1517 -0.1610
  265POPC   C1A 3486   1.347   4.669   3.873 -0.2005  0.0906  0.0276
  265POPC   D2A 3487   1.055   4.966   3.983 -0.1512  0.2428  0.2131
  265POPC   C3A 3488   1.001   5.400   4.074  0.1850 -0.1022  0.2960
  265POPC   C4A 3489   1.054   5.896   4.000 -0.2636 -0.0258 -0.1673
  265POPC   C1B 3490   2.183   4.208   4.267 -0.0497 -0.0538  0.1943
  265POPC   C2B 3491   2.003   4.113   4.579  0.0476  0.2941  0.0719
  265POPC   C3B 3492   1.686   3.892   4.833 -0.0118 -0.0292 -0.2057
  265POPC   C4B 3493   1.760   3.912   5.303 -0.3861  0.0125 -0.0583
  266POPC   NC3 3494   1.051  10.190   3.438 -0.0619  0.0143 -0.1398
  266POPC   PO4 3495   0.613  10.140   3.648 -0.2887  0.1882  0.0459
  266POPC   GL1 3496   0.564  10.193   4.083  0.1634 -0.2025  0.0816
  266POPC   GL2 3497   0.295  10.386   4.138 -0.1347  0.1638  0.1122
  266POPC   C1A 3498   0.844  10.158   4.552 -0.1692 -0.1910  0.0685
  266POPC   D2A 3499   0.825   9.873   4.898  0.0248 -0.0220  0.0293
  266POPC   C3A 3500   0.944   9.744   5.382  0.2106  0.1708  0.1048
  266POPC   C4A 3501   0.660   9.805   5.719  0.0179  0.5019 -0.0362
  266POPC   C1B 3502   0.580  10.657   4.336  0.1373  0.0707  0.0425
  266POPC   C2B 3503   0.552  10.919   4.753 -0.0516 -0.0180 -0.4091
  266POPC   C3B 3504   0.682  10.934   5.148 -0.0136  0.2102  0.1286
  266POPC   C4B 3505   0.963  11.011   5.484 -0.0589  0.3713  0.0561
  267POPC   NC3 3506   8.985   1.937   3.919  0.0740  0.2392 -0.1679
  267POPC   PO4 3507   9.027   1.434   3.718 -0.1759  0.0637  0.0900
  267POPC   GL1 3508   9.154   1.408   4.155  0.0369  0.1737 -0.4971
  267POPC   GL2 3509   9.344   1.725   4.259 -0.1249  0.3296  0.2201
  267POPC   C1A 3510   9.147   1.394   4.646  0.1136  0.2228 -0.3386
  267POPC   D2A 3511   9.166   1.168   4.981  0.3616 -0.0885  0.0673
  267POPC   C3A 3512   9.175   1.414   5.338  0.0101 -0.2005 -0.0993
  267POPC   C4A 3513   9.066   1.284   5.735  0.0081 -0.0394  0.2112
  267POPC   C1B 3514   9.530   1.726   4.662 -0.1315  0.1696 -0.2993
  267POPC   C2B 3515   9.606   1.439   5.072  0.3168 -0.2894 -0.1932
  267POPC   C3B 3516   9.598   1.167   5.448  0.3923  0.4121 -0.1879
  267POPC   C4B 3517   9.371   0.883   5.604 -0.0474  0.2415 -0.1457
  268POPC   NC3 3518   5.788   6.729   4.292  0.3329  0.1628  0.1685
  268POPC   PO4 3519   5.561   6.328   4.080 -0.1974  0.0577  0.1703
  268POPC   GL1 3520   5.376   6.136   4.509 -0.0452  0.0327  0.0361
  268POPC   GL2 3521   5.561   6.356   4.650 -0.0314  0.1366 -0.2143
  268POPC   C1A 3522   5.399   5.947   4.920  0.0171 -0.1369  0.0337
  268POPC   D2A 3523   5.502   5.843   5.369  0.1652  0.2602 -0.0852
  268POPC   C3A 3524   5.554   5.472   5.378  0.1954  0.1737 -0.0880
  268POPC   C4A 3525   5.612   5.009   5.410  0.0190 -0.0103 -0.0185
  268POPC   C1B 3526   5.055   6.497   4.921 -0.0815 -0.0466  0.3490
  268POPC   C2B 3527   4.851   6.333   5.375 -0.0678  0.0062  0.0024
  268POPC   C3B 3528   4.985   6.028   5.506 -0.1139 -0.4111 -0.0658
  268POPC   C4B 3529   5.068   5.579   5.572 -0.1387  0.2333 -0.1576
  269POPC   NC3 3530   7.520   7.983   4.043  0.1151 -0.0150 -0.1668
  269POPC   PO4 3531   7.107   8.324   4.168 -0.1752 -0.0370 -0.1353
  269POPC   GL1 3532   7.395   8.643   4.376  0.1522 -0.3339 -0.1325
  269POPC   GL2 3533   7.370   9.007   4.323  0.0739  0.0557  0.2218
  269POPC   C1A 3534   7.717   8.767   4.660 -0.0958  0.2085  0.1195
  269POPC   D2A 3535   7.910   8.723   5.037 -0.0161  0.0809 -0.1497
  269POPC   C3A 3536   7.595   8.496   5.307 -0.4088 -0.0915  0.1204
  269POPC   C4A 3537   7.279   8.568   5.621  0.0906 -0.2089 -0.1728
  269POPC   C1B 3538   7.247   9.381   4.550 -0.2834 -0.0403 -0.1230
  269POPC   C2B 3539   7.431   9.804   4.716 -0.0295 -0.1392 -0.3978
  269POPC   C3B 3540   7.714   9.767   5.132 -0.0471  0.1971  0.0357
  269POPC   C4B 3541   7.929   9.553   5.548 -0.1607 -0.0360  0.3823
  270POPC   NC3 3542   8.892   6.500   3.141 -0.2151 -0.3102  0.0652
  270POPC   PO4 3543   9.055   6.332   3.523 -0.0234  0.1750  0.1810
  270POPC   GL1 3544   9.067   6.248   4.036 -0.2187 -0.2601  0.1033
  270POPC   GL2 3545   9.100   6.484   4.297 -0.0069 -0.0717 -0.6041
  270POPC   C1A 3546   9.068   5.960   4.349  0.3056  0.0289  0.1138
  270POPC   D2A 3547   9.331   5.787   4.698 -0.2239 -0.0187  0.0726
  270POPC   C3A 3548   9.278   5.800   5.098  0.2605 -0.1033  0.0227
  270POPC   C4A 3549   9.511   5.714   5.466 -0.1672 -0.1108  0.2477
  270POPC   C1B 3550   9.051   6.563   4.762  0.2058 -0.2728  0.4906
  270POPC   C2B 3551   9.095   6.217   5.152 -0.1734 -0.2279 -0.2755
  270POPC   C3B 3552   9.176   6.073   5.536 -0.1090  0.4641 -0.0307
  270POPC   C4B 3553   9.511   5.849   5.940  0.1895  0.0057 -0.1108
  271POPC   NC3 3554   1.013   1.989   3.545  0.2009  0.0908 -0.1722
  271POPC   PO4 3555   0.729   2.410   3.615 -0.2680  0.2549  0.2379
  271POPC   GL1 3556   0.776   2.330   4.045 -0.0510 -0.0609  0.3079
  271POPC   GL2 3557   0.714   2.021   4.101  0.0195  0.0553  0.0495
  271POPC   C1A 3558   1.091   2.400   4.339  0.1669 -0.1666 -0.0959
  271POPC   D2A 3559   1.096   2.645   4.732 -0.2191  0.0952  0.1845
  271POPC   C3A 3560   1.013   3.101   4.750 -0.4595  0.1907  0.0715
  271POPC   C4A 3561   0.925   3.438   4.569 -0.1194  0.2171  0.0506
  271POPC   C1B 3562   0.542   2.194   4.456 -0.0092 -0.1509 -0.2541
  271POPC   C2B 3563   0.610   2.384   4.820  0.0482 -0.0373  0.2307
  271POPC   C3B 3564   0.387   2.164   5.210 -0.1951 -0.1528 -0.1279
  271POPC   C4B 3565   0.085   2.441   5.435 -0.4477 -0.1739  0.0265
  272POPC   NC3 3566   7.782   7.184   3.629  0.1816 -0.1396 -0.0558
  272POPC   PO4 3567   7.770   7.444   4.055 -0.1272  0.0204 -0.2250
  272POPC   GL1 3568   7.625   7.475   4.540  0.1144  0.0180 -0.1043
  272POPC   GL2 3569   7.330   7.400   4.555  0.1776  0.2268  0.3226
  272POPC   C1A 3570   7.739   7.221   4.787  0.0861 -0.0109 -0.0868
  272POPC   D2A 3571   7.776   7.197   5.172 -0.4090 -0.0380  0.0796
  272POPC   C3A 3572   8.052   7.241   5.371 -0.2401 -0.2198 -0.3551
  272POPC   C4A 3573   7.965   7.378   5.805  0.1614  0.1592  0.0406
  272POPC   C1B 3574   7.359   7.585   4.997 -0.6179 -0.0361  0.0753
  272POPC   C2B 3575   7.090   7.695   5.315  0.0908  0.0517 -0.0538
  272POPC   C3B 3576   6.779   7.895   5.548 -0.0588  0.3301  0.2574
  272POPC   C4B 3577   6.363   7.774   5.728 -0.1546 -0.0729  0.0753
  273POPC   NC3 3578   0.784   4.973   2.806  0.1497  0.0025 -0.1071
  273POPC   PO4 3579   1.137   4.769   2.773 -0.0595 -0.0302 -0.0986
  273POPC   GL1 3580   1.101   4.766   3.214  0.2070  0.0722  0.3947
  273POPC   GL2 3581   1.381   4.784   3.364  0.0444 -0.0106  0.0487
  273POPC   C1A 3582   0.920   5.053   3.528  0.1435 -0.1545  0.0136
  273POPC   D2A 3583   0.518   5.289   3.746 -0.1624 -0.0412  0.0318
  273POPC   C3A 3584   0.329   4.917   3.718  0.1004 -0.1580 -0.0945
  273POPC   C4A 3585  -0.064   4.749   3.500 -0.3008  0.1713 -0.1370
  273POPC   C1B 3586   1.077   4.439   3.542 -0.1895  0.2432  0.0932
  273POPC   C2B 3587   0.730   4.387   3.772 -0.0748  0.1123  0.1532
  273POPC   C3B 3588   0.200   4.463   3.774 -0.2977 -0.2358  0.0165
  273POPC   C4B 3589  -0.118   4.350   4.030  0.0691 -0.1937 -0.1921
  274POPC   NC3 3590   6.619   0.102   3.634  0.3223  0.1116 -0.3110
  274POPC   PO4 3591   6.689  -0.336   3.930 -0.0124 -0.2285  0.2914
  274POPC   GL1 3592   6.567  -0.061   4.249  0.0211 -0.1268 -0.1422
  274POPC   GL2 3593   6.403  -0.306   4.477 -0.1121  0.3085  0.2680
  274POPC   C1A 3594   6.682   0.168   4.570 -0.1948 -0.4244  0.0337
  274POPC   D2A 3595   6.590   0.244   5.019 -0.1617 -0.2605 -0.1232
  274POPC   C3A 3596   6.359   0.557   5.117 -0.1669  0.2779  0.0748
  274POPC   C4A 3597   6.227   0.540   5.448  0.3130 -0.2079  0.1775
  274POPC   C1B 3598   6.629  -0.468   4.859  0.0074  0.3899  0.0480
  274POPC   C2B 3599   6.834  -0.251   5.125  0.0279 -0.1475  0.0039
  274POPC   C3B 3600   7.291  -0.331   5.028 -0.1858  0.0848 -0.0364
  274POPC   C4B 3601   7.729  -0.475   4.875 -0.3052  0.0414  0.3380
  275POPC   NC3 3602   4.529   2.231   3.909  0.0945  0.0240  0.5982
  275POPC   PO4 3603   4.469   1.853   3.772 -0.2207 -0.0231  0.0838
  275POPC   GL1 3604   4.547   1.755   4.197  0.0827 -0.1468  0.2010
  275POPC   GL2 3605   4.438   1.997   4.329 -0.0840 -0.3693 -0.0815
  275POPC   C1A 3606   4.708   1.530   4.535 -0.1563  0.0904 -0.2651
  275POPC   D2A 3607   5.013   1.411   4.891 -0.1767  0.0255 -0.2009
  275POPC   C3A 3608   5.069   1.087   5.252 -0.1941  0.2426 -0.0249
  275POPC   C4A 3609   4.864   1.074   5.499 -0.0788  0.1604  0.1281
  275POPC   C1B 3610   4.166   2.004   4.680  0.0968  0.3211  0.0388
  275POPC   C2B 3611   4.173   2.087   5.152 -0.2157 -0.3248  0.0325
  275POPC   C3B 3612   4.465   1.993   5.481  0.3569 -0.0887  0.2333
  275POPC   C4B 3613   4.746   1.953   5.757  0.1745 -0.1141 -0.1379
  276POPC   NC3 3614   5.247   1.413   4.068 -0.2267  0.1699 -0.1605
  276POPC   PO4 3615   5.018   1.665   3.715  0.2242 -0.0658 -0.1410
  276POPC   GL1 3616   5.054   1.852   4.143  0.0932 -0.2241 -0.0399
  276POPC   GL2 3617   4.893   2.173   4.243  0.0886  0.0886  0.1332
  276POPC   C1A 3618   5.207   1.768   4.580 -0.3443  0.0226 -0.3250
  276POPC   D2A 3619   5.584   1.708   5.024 -0.0052  0.1261  0.2101
  276POPC   C3A 3620   5.453   1.638   5.421 -0.0553 -0.0688  0.4841
  276POPC   C4A 3621   5.445   1.478   5.758 -0.4185 -0.1887 -0.2681
  276POPC   C1B 3622   4.767   2.081   4.656 -0.3121 -0.0343  0.3331
  276POPC   C2B 3623   4.693   2.227   5.040  0.0597  0.0956  0.1027
  276POPC   C3B 3624   4.892   2.357   5.370 -0.2623  0.0347 -0.0956
  276POPC   C4B 3625   4.644   2.567   5.659 -0.0049  0.3878 -0.1361
  277POPC   NC3 3626   5.783   0.612   3.827 -0.0510 -0.0950 -0.0624
  277POPC   PO4 3627   5.752   0.151   3.798  0.3177  0.1453  0.0273
  277POPC   GL1 3628   5.942   0.325   4.286 -0.2162  0.0104 -0.1316
  277POPC   GL2 3629   6.081   0.070   4.424 -0.0400 -0.1916  0.1997
  277POPC   C1A 3630   6.237   0.539   4.473 -0.2663  0.1046 -0.1344
  277POPC   D2A 3631   6.594   0.687   4.428  0.2807 -0.3490 -0.2590
  277POPC   C3A 3632   6.824   0.620   4.691  0.0384  0.1498 -0.0755
  277POPC   C4A 3633   6.925   0.603   5.123 -0.0035  0.0808  0.0936
  277POPC   C1B 3634   5.832   0.134   4.766 -0.1346  0.1553 -0.1895
  277POPC   C2B 3635   5.489   0.101   4.963 -0.1207 -0.0324 -0.2733
  277POPC   C3B 3636   5.184   0.231   5.205  0.4128  0.1011 -0.1324
  277POPC   C4B 3637   4.943   0.567   5.411  0.0139 -0.0228 -0.2018
  278POPC   NC3 3638   4.520   4.653   3.501 -0.3483 -0.0224 -0.0993
  278POPC   PO4 3639   4.387   5.069   3.671 -0.7190  0.1526  0.0044
  278POPC   GL1 3640   4.258   4.912   4.137  0.0841 -0.1398  0.2348
  278POPC   GL2 3641   4.028   5.083   4.344 -0.0011 -0.0550  0.2658
  278POPC   C1A 3642   4.502   4.930   4.508 -0.2277  0.4300  0.1579
  278POPC   D2A 3643   4.517   5.046   4.892 -0.1208  0.3750 -0.1150
  278POPC   C3A 3644   4.716   5.507   4.945 -0.0697  0.2521  0.2021
  278POPC   C4A 3645   4.920   5.921   5.024 -0.1082 -0.1358  0.0545
  278POPC   C1B 3646   3.991   4.883   4.683  0.3484 -0.2061  0.0226
  278POPC   C2B 3647   3.968   4.862   5.138 -0.1463 -0.4044 -0.1002
  278POPC   C3B 3648   4.215   5.031   5.455 -0.2196 -0.0727  0.1064
  278POPC   C4B 3649   4.335   4.983   5.884 -0.1761  0.6073  0.2024
  279POPC   NC3 3650   2.344   4.569   3.504  0.0187 -0.1647 -0.1279
  279POPC   PO4 3651   2.751   4.784   3.723  0.0234  0.2915 -0.0506
  279POPC   GL1 3652   2.746   4.753   4.247  0.3917 -0.0039  0.0813
  279POPC   GL2 3653   2.613   4.973   4.498  0.0580 -0.4072 -0.4212
  279POPC   C1A 3654   2.643   4.424   4.495  0.1679  0.3227  0.3056
  279POPC   D2A 3655   2.601   4.228   4.846  0.0784  0.1119  0.0160
  279POPC   C3A 3656   2.497   4.472   5.168  0.1079 -0.1698  0.1311
  279POPC   C4A 3657   2.506   4.735   5.617 -0.2467  0.3893  0.3001
  279POPC   C1B 3658   2.443   4.975   4.916  0.1306 -0.1432  0.2667
  279POPC   C2B 3659   2.544   5.066   5.228  0.0146  0.2166  0.3232
  279POPC   C3B 3660   2.406   5.227   5.593  0.1035  0.2845  0.0414
  279POPC   C4B 3661   2.362   5.083   5.916  0.0819 -0.2424 -0.1636
  280POPC   NC3 3662   3.573   4.465   3.931  0.0835 -0.0648 -0.0803
  280POPC   PO4 3663   3.262   4.063   3.926  0.0653  0.0295 -0.0256
  280POPC   GL1 3664   3.140   4.168   4.315 -0.0502 -0.3227 -0.0846
  280POPC   GL2 3665   3.511   4.253   4.407  0.1005  0.2293 -0.0297
  280POPC   C1A 3666   3.231   4.267   4.804 -0.0603  0.0707  0.0321
  280POPC   D2A 3667   2.962   4.247   5.124  0.1410  0.1039 -0.0339
  280POPC   C3A 3668   2.738   3.951   5.208 -0.0757 -0.2403 -0.2161
  280POPC   C4A 3669   2.577   3.619   5.371  0.0823  0.2203  0.0729
  280POPC   C1B 3670   3.608   3.951   4.844 -0.0026  0.0197  0.0949
  280POPC   C2B 3671   3.525   3.905   5.226  0.0974  0.0124 -0.3055
  280POPC   C3B 3672   3.865   4.044   5.421 -0.1884  0.2252  0.3032
  280POPC   C4B 3673   4.121   4.411   5.397 -0.0361 -0.2322 -0.0705
  281POPC   NC3 3674   7.846   2.287   4.087 -0.1538 -0.0846  0.2464
  281POPC   PO4 3675   8.083   1.936   3.962  0.1434  0.2801 -0.0745
  281POPC   GL1 3676   8.046   1.859   4.411 -0.3953  0.2387 -0.1337
  281POPC   GL2 3677   8.286   2.027   4.580 -0.1259  0.3013 -0.2051
  281POPC   C1A 3678   7.934   1.751   4.705  0.3228 -0.0631  0.0547
  281POPC   D2A 3679   8.062   1.481   4.957 -0.1951  0.2491 -0.1401
  281POPC   C3A 3680   8.236   1.548   5.255  0.0254 -0.1023 -0.2255
  281POPC   C4A 3681   8.186   1.355   5.613  0.1190  0.1180 -0.1421
  281POPC   C1B 3682   8.344   1.999   4.943 -0.1640  0.0363  0.1584
  281POPC   C2B 3683   8.309   2.033   5.400 -0.1944 -0.0097  0.1478
  281POPC   C3B 3684   8.286   1.902   5.716  0.0350 -0.2546 -0.0708
  281POPC   C4B 3685   8.505   1.858   6.176  0.3459  0.0819 -0.0618
  282POPC   NC3 3686   5.478   1.982   3.798  0.3192  0.0489  0.1016
  282POPC   PO4 3687   5.719   2.369   3.731 -0.0167  0.3810  0.0069
  282POPC   GL1 3688   5.852   2.345   4.127  0.1275 -0.2678  0.0508
  282POPC   GL2 3689   5.900   2.056   4.136  0.2451  0.2841 -0.1420
  282POPC   C1A 3690   5.895   2.580   4.546 -0.1704  0.1222  0.3160
  282POPC   D2A 3691   5.559   2.726   4.757  0.0777  0.3936 -0.1499
  282POPC   C3A 3692   5.647   2.851   5.200  0.3133  0.0209  0.1393
  282POPC   C4A 3693   5.402   3.165   5.422  0.2744 -0.1537  0.2019
  282POPC   C1B 3694   5.952   2.088   4.565 -0.0269 -0.0458 -0.1467
  282POPC   C2B 3695   5.803   2.230   4.908  0.2041 -0.1746 -0.0616
  282POPC   C3B 3696   5.558   2.390   5.234  0.1695 -0.2517 -0.0649
  282POPC   C4B 3697   5.389   2.147   5.527 -0.0077 -0.4778 -0.2229
  283POPC   NC3 3698   9.549   9.526   3.611  0.1413  0.0360  0.4161
  283POPC   PO4 3699   9.161   9.361   3.583 -0.0779 -0.1518  0.0053
  283POPC   GL1 3700   9.265   9.319   4.042 -0.0402 -0.0276  0.4601
  283POPC   GL2 3701   9.407   9.584   4.154 -0.1306 -0.2194  0.2152
  283POPC   C1A 3702   9.232   8.991   4.508 -0.1693  0.3411 -0.1513
  283POPC   D2A 3703   9.461   9.212   4.865  0.2469 -0.2785 -0.4163
  283POPC   C3A 3704   9.775   9.405   5.250 -0.2296 -0.2605  0.0357
  283POPC   C4A 3705  10.166   9.227   5.258  0.1981 -0.3241  0.2209
  283POPC   C1B 3706   9.261   9.514   4.574  0.1932 -0.0395 -0.2482
  283POPC   C2B 3707   8.924   9.356   4.934  0.2706  0.0630  0.0271
  283POPC   C3B 3708   8.645   9.170   5.175 -0.0614 -0.1896  0.1717
  283POPC   C4B 3709   8.252   9.068   5.302  0.2035 -0.0675  0.3761
  284POPC   NC3 3710   5.594   5.471   2.952 -0.4280 -0.1278  0.0031
  284POPC   PO4 3711   5.652   5.171   3.386 -0.0089  0.0272  0.2728
  284POPC   GL1 3712   5.633   5.222   3.815  0.1378 -0.0657 -0.0002
  284POPC   GL2 3713   5.740   5.187   4.016 -0.0960 -0.0549 -0.0295
  284POPC   C1A 3714   5.259   5.320   4.067 -0.0915  0.3274 -0.0242
  284POPC   D2A 3715   4.974   4.977   4.305 -0.2409 -0.0264 -0.1997
  284POPC   C3A 3716   5.019   5.079   4.734 -0.1232 -0.3358  0.2790
  284POPC   C4A 3717   4.936   4.686   4.937  0.0643  0.0093  0.1541
  284POPC   C1B 3718   5.503   5.138   4.471 -0.0055  0.0148  0.4731
  284POPC   C2B 3719   5.492   5.038   4.952  0.3926  0.2215 -0.2738
  284POPC   C3B 3720   5.467   4.524   5.109 -0.2357  0.0657  0.1402
  284POPC   C4B 3721   5.436   4.088   5.022  0.0795  0.1890  0.0651
  285POPC   NC3 3722   1.146   8.490   3.260 -0.0485  0.0198  0.1639
  285POPC   PO4 3723   0.870   8.875   3.498 -0.0408  0.0250  0.0429
  285POPC   GL1 3724   1.004   8.890   3.905 -0.1008 -0.2123  0.2516
  285POPC   GL2 3725   1.058   9.244   3.916 -0.1443 -0.0324  0.1099
  285POPC   C1A 3726   0.860   8.971   4.450  0.0782  0.1211  0.1088
  285POPC   D2A 3727   0.720   8.873   4.948 -0.1534  0.1349 -0.2314
  285POPC   C3A 3728   0.522   8.975   5.225 -0.4309  0.0810 -0.1038
  285POPC   C4A 3729   0.322   9.388   5.362  0.1508  0.0953 -0.0727
  285POPC   C1B 3730   1.145   9.346   4.337  0.1074  0.1064  0.0952
  285POPC   C2B 3731   1.290   9.595   4.637 -0.1754  0.0549 -0.1151
  285POPC   C3B 3732   1.379   9.515   5.027  0.1974  0.1625  0.2746
  285POPC   C4B 3733   1.533   9.275   5.163 -0.0997 -0.1415 -0.2272
  286POPC   NC3 3734  10.523   0.181   3.361  0.3359 -0.0591 -0.1163
  286POPC   PO4 3735  10.178   0.118   3.715  0.0647  0.2582 -0.0203
  286POPC   GL1 3736  10.202  -0.021   4.051 -0.0087  0.0287 -0.0134
  286POPC   GL2 3737  10.226   0.267   4.215 -0.0110  0.0929  0.0244
  286POPC   C1A 3738  10.009  -0.125   4.447  0.1515 -0.0682 -0.2291
  286POPC   D2A 3739   9.673  -0.161   4.659 -0.3058 -0.0126  0.2328
  286POPC   C3A 3740   9.749  -0.409   4.990 -0.0323  0.0912 -0.1390
  286POPC   C4A 3741   9.620  -0.662   5.306  0.2945  0.1363  0.1983
  286POPC   C1B 3742  10.211   0.342   4.686  0.1615  0.2763 -0.1177
  286POPC   C2B 3743  10.197   0.537   5.128  0.1482  0.0315 -0.1029
  286POPC   C3B 3744  10.558   0.722   5.380 -0.1223 -0.0675  0.3044
  286POPC   C4B 3745  10.717   0.884   5.780 -0.0637  0.0376  0.3296
  287POPC   NC3 3746   8.766   8.066   3.987 -0.0725 -0.0691  0.0692
  287POPC   PO4 3747   8.287   8.076   4.027 -0.1566 -0.0348  0.0987
  287POPC   GL1 3748   8.401   8.166   4.467 -0.3498  0.0202 -0.1285
  287POPC   GL2 3749   8.378   7.838   4.734 -0.0019 -0.0828 -0.2100
  287POPC   C1A 3750   8.582   8.272   4.833 -0.2638  0.1757  0.0404
  287POPC   D2A 3751   8.928   8.293   5.045 -0.3113 -0.0052  0.0114
  287POPC   C3A 3752   8.976   8.711   4.962  0.3641  0.0928 -0.0712
  287POPC   C4A 3753   9.183   9.067   5.258 -0.3291  0.0812 -0.2833
  287POPC   C1B 3754   7.894   7.755   4.911 -0.3835 -0.4210  0.1518
  287POPC   C2B 3755   7.555   8.002   4.726  0.2364 -0.0223  0.0538
  287POPC   C3B 3756   7.366   8.421   4.822  0.0135  0.1074 -0.0404
  287POPC   C4B 3757   7.245   8.895   4.769 -0.1462  0.3541 -0.0083
  288POPC   NC3 3758   6.059   2.672   3.852  0.0743  0.0704 -0.1839
  288POPC   PO4 3759   6.128   3.083   4.056  0.1115  0.0788 -0.0583
  288POPC   GL1 3760   6.259   3.260   4.446  0.0774 -0.2724 -0.0744
  288POPC   GL2 3761   6.490   3.003   4.507 -0.0433 -0.0898  0.0291
  288POPC   C1A 3762   6.187   3.477   4.811  0.0292 -0.2161 -0.0272
  288POPC   D2A 3763   6.311   3.750   5.178  0.1547 -0.0822  0.0971
  288POPC   C3A 3764   5.917   3.739   5.425  0.2807 -0.0233 -0.0405
  288POPC   C4A 3765   5.565   3.610   5.678 -0.3228  0.0160  0.3353
  288POPC   C1B 3766   6.415   3.075   4.888  0.2553 -0.2236  0.0213
  288POPC   C2B 3767   6.541   3.313   5.223  0.1113 -0.0615 -0.0805
  288POPC   C3B 3768   6.447   3.561   5.614 -0.0015 -0.1364  0.3120
  288POPC   C4B 3769   6.261   3.949   5.765 -0.3532  0.0990  0.2829
  289POPC   NC3 3770   9.911   4.046   2.678  0.0328  0.3122  0.2187
  289POPC   PO4 3771   9.741   3.726   2.821 -0.1420 -0.0271 -0.0307
  289POPC   GL1 3772   9.750   3.749   3.297 -0.1586  0.1914  0.1463
  289POPC   GL2 3773   9.506   4.009   3.482 -0.0546  0.0019  0.0252
  289POPC   C1A 3774   9.696   3.628   3.687  0.0461  0.1212 -0.0416
  289POPC   D2A 3775   9.769   3.367   4.022 -0.0505  0.2080  0.0857
  289POPC   C3A 3776   9.976   3.460   4.408 -0.2405  0.2308 -0.0513
  289POPC   C4A 3777  10.306   3.338   4.609  0.0202 -0.1755 -0.0259
  289POPC   C1B 3778   9.413   4.075   3.916 -0.0419  0.0869 -0.0837
  289POPC   C2B 3779   9.507   3.757   4.221  0.1647 -0.0572  0.0749
  289POPC   C3B 3780   9.337   3.554   4.569 -0.0196  0.0026 -0.0626
  289POPC   C4B 3781   9.463   3.498   5.073  0.6087 -0.1845  0.0381
  290POPC   NC3 3782   0.826   5.975   3.272  0.0092 -0.1618  0.0378
  290POPC   PO4 3783   0.683   6.461   3.315  0.1259  0.1472  0.1268
  290POPC   GL1 3784   0.661   6.228   3.685  0.0711 -0.0735 -0.3025
  290POPC   GL2 3785   0.714   6.497   3.961  0.0830  0.0241 -0.0623
  290POPC   C1A 3786   0.560   5.765   3.877 -0.0667 -0.0696 -0.1244
  290POPC   D2A 3787   0.471   5.437   4.223 -0.2953 -0.1876  0.0389
  290POPC   C3A 3788   0.410   5.678   4.555  0.3427 -0.0303 -0.2558
  290POPC   C4A 3789   0.307   5.752   4.869  0.0231  0.1337  0.1595
  290POPC   C1B 3790   0.612   6.512   4.418  0.2363  0.0011 -0.1403
  290POPC   C2B 3791   0.633   6.363   4.768  0.2357 -0.0912  0.4214
  290POPC   C3B 3792   0.445   6.598   5.131  0.3689  0.0779  0.3769
  290POPC   C4B 3793   0.274   6.544   5.586 -0.0561 -0.2134  0.1771
  291POPC   NC3 3794   3.310   8.200   3.582  0.1963 -0.3350  0.1253
  291POPC   PO4 3795   3.397   7.848   3.840 -0.3326  0.0403  0.0343
  291POPC   GL1 3796   3.391   7.703   4.225 -0.0009 -0.3328 -0.0887
  291POPC   GL2 3797   3.161   7.821   4.295 -0.0778 -0.1274 -0.2340
  291POPC   C1A 3798   3.380   7.534   4.601  0.2185 -0.0384 -0.0754
  291POPC   D2A 3799   3.287   7.750   4.982  0.1047 -0.1143  0.0325
  291POPC   C3A 3800   3.149   7.627   5.341  0.1207 -0.0055 -0.0300
  291POPC   C4A 3801   2.859   7.494   5.682  0.2649 -0.2744  0.1455
  291POPC   C1B 3802   2.974   8.006   4.662  0.1180 -0.1574  0.3094
  291POPC   C2B 3803   2.661   8.126   4.937 -0.1972  0.1136 -0.1308
  291POPC   C3B 3804   2.434   8.223   5.206 -0.1967  0.1970 -0.2673
  291POPC   C4B 3805   2.139   8.530   5.299  0.3803  0.0832  0.0294
  292POPC   NC3 3806   2.903   6.139   3.755 -0.1955  0.1930  0.0867
  292POPC   PO4 3807   2.793   5.780   3.995  0.4755 -0.1788  0.0544
  292POPC   GL1 3808   3.038   5.894   4.265 -0.1611  0.0741 -0.1233
  292POPC   GL2 3809   3.356   5.847   4.263  0.2319 -0.0358  0.0796
  292POPC   C1A 3810   2.944   6.020   4.725 -0.1538 -0.1228  0.1711
  292POPC   D2A 3811   2.685   6.068   5.123  0.2540 -0.0814 -0.0492
  292POPC   C3A 3812   2.770   6.405   5.451 -0.1221  0.2155 -0.0504
  292POPC   C4A 3813   2.461   6.726   5.622  0.0626 -0.0261 -0.3774
  292POPC   C1B 3814   3.383   5.685   4.681  0.1330  0.0800  0.0543
  292POPC   C2B 3815   3.585   5.655   5.110  0.1776  0.3131 -0.2880
  292POPC   C3B 3816   3.312   5.623   5.522 -0.1132  0.0282  0.1661
  292POPC   C4B 3817   3.298   5.379   5.681  0.2721  0.3687 -0.1835
  293POPC   NC3 3818   0.635   9.373   3.436 -0.0088 -0.0783 -0.1924
  293POPC   PO4 3819   0.234   9.500   3.691  0.4689  0.0739 -0.0607
  293POPC   GL1 3820   0.270   9.449   4.094  0.2181  0.0958  0.1579
  293POPC   GL2 3821   0.460   9.219   4.340 -0.2837  0.5093  0.1018
  293POPC   C1A 3822   0.008   9.510   4.486 -0.4392 -0.1289  0.0951
  293POPC   D2A 3823  -0.228   9.821   4.582  0.1674  0.0157 -0.0580
  293POPC   C3A 3824   0.167  10.135   4.592 -0.2860  0.0000  0.0942
  293POPC   C4A 3825   0.436  10.438   4.908 -0.0075 -0.0087 -0.1044
  293POPC   C1B 3826   0.365   8.834   4.564 -0.1445  0.0350  0.1941
  293POPC   C2B 3827   0.241   8.623   4.918 -0.2800 -0.2668  0.0213
  293POPC   C3B 3828  -0.036   8.412   5.107 -0.3247 -0.2850 -0.0602
  293POPC   C4B 3829  -0.410   8.276   5.383 -0.4212  0.0448  0.1743
  294POPC   NC3 3830   1.763   1.970   3.846 -0.1267 -0.1353  0.1385
  294POPC   PO4 3831   1.412   1.673   3.753  0.3080  0.0215 -0.1846
  294POPC   GL1 3832   1.287   1.963   4.120 -0.0391  0.1483 -0.2240
  294POPC   GL2 3833   1.552   1.892   4.293  0.2343 -0.0381 -0.5809
  294POPC   C1A 3834   1.080   1.890   4.447  0.1437  0.0510 -0.0442
  294POPC   D2A 3835   0.733   1.753   4.618  0.1207  0.2589 -0.0699
  294POPC   C3A 3836   0.819   1.989   5.015 -0.1202 -0.0455  0.0311
  294POPC   C4A 3837   0.998   2.382   5.162  0.0009  0.3482 -0.0812
  294POPC   C1B 3838   1.710   1.845   4.702 -0.2729 -0.2584  0.0734
  294POPC   C2B 3839   1.808   1.991   5.157 -0.0072 -0.1999  0.2532
  294POPC   C3B 3840   1.633   2.029   5.631 -0.6346 -0.1169  0.3395
  294POPC   C4B 3841   1.784   2.081   6.025  0.5555 -0.0002 -0.1161
  295POPC   NC3 3842   5.256   7.735   4.051  0.1015 -0.1356 -0.1150
  295POPC   PO4 3843   4.993   7.902   3.914 -0.1054 -0.2505  0.2390
  295POPC   GL1 3844   4.880   8.065   4.227  0.0121  0.2134 -0.0484
  295POPC   GL2 3845   4.555   8.266   4.265 -0.4823  0.0248  0.1491
  295POPC   C1A 3846   4.781   8.003   4.632 -0.0551  0.1417  0.0332
  295POPC   D2A 3847   4.776   8.154   5.042  0.0757  0.1062  0.2017
  295POPC   C3A 3848   5.030   8.035   5.460  0.2461  0.1230 -0.0805
  295POPC   C4A 3849   5.073   7.590   5.518 -0.4223  0.1054  0.1210
  295POPC   C1B 3850   4.304   8.171   4.585 -0.1178  0.1697 -0.0009
  295POPC   C2B 3851   4.085   8.196   4.975  0.0534  0.0061 -0.1344
  295POPC   C3B 3852   4.148   8.336   5.383 -0.2940 -0.2137  0.2458
  295POPC   C4B 3853   4.410   8.648   5.451  0.1328 -0.1313 -0.1381
  296POPC   NC3 3854   0.632   7.569   3.814  0.1745  0.4213 -0.1423
  296POPC   PO4 3855   0.222   7.733   3.717  0.2907  0.1014 -0.1261
  296POPC   GL1 3856   0.034   7.614   4.038 -0.1035 -0.2107 -0.2345
  296POPC   GL2 3857  -0.249   7.432   4.015 -0.1309  0.1187  0.0833
  296POPC   C1A 3858  -0.073   7.665   4.435 -0.1453 -0.3198 -0.0748
  296POPC   D2A 3859   0.033   7.757   4.911  0.0450  0.0837 -0.2168
  296POPC   C3A 3860   0.232   7.641   5.286  0.0830 -0.1629 -0.0872
  296POPC   C4A 3861   0.208   7.658   5.745 -0.2267 -0.1343  0.3182
  296POPC   C1B 3862  -0.017   7.156   4.396  0.5778  0.1899  0.2343
  296POPC   C2B 3863   0.229   6.831   4.611 -0.0684  0.1070 -0.2466
  296POPC   C3B 3864   0.618   6.914   4.812 -0.0841  0.4029 -0.1745
  296POPC   C4B 3865   1.061   7.011   5.024 -0.1618 -0.1687 -0.0819
  297POPC   NC3 3866   5.314   9.667   3.895  0.3298 -0.1284 -0.0618
  297POPC   PO4 3867   4.893   9.704   3.600  0.0376  0.2888  0.0392
  297POPC   GL1 3868   4.760   9.559   3.990 -0.3157  0.1500  0.0253
  297POPC   GL2 3869   4.782   9.169   4.086  0.0505 -0.1627 -0.0106
  297POPC   C1A 3870   4.706   9.729   4.384  0.0779  0.0399 -0.2402
  297POPC   D2A 3871   4.456   9.790   4.741 -0.0265  0.0696 -0.3378
  297POPC   C3A 3872   4.419   9.506   5.046  0.2445 -0.2272  0.0745
  297POPC   C4A 3873   4.606   9.091   5.217  0.0535 -0.2636 -0.1007
  297POPC   C1B 3874   4.885   8.863   4.381 -0.1998  0.4157 -0.1500
  297POPC   C2B 3875   4.965   8.447   4.555  0.3146 -0.1722 -0.1046
  297POPC   C3B 3876   5.274   8.200   4.590  0.1031 -0.2404  0.0395
  297POPC   C4B 3877   5.645   8.451   4.787 -0.3665 -0.1354 -0.0274
  298POPC   NC3 3878  10.477   9.784   3.712 -0.0911  0.1630 -0.1879
  298POPC   PO4 3879   9.992   9.687   3.675 -0.4179 -0.0438  0.1839
  298POPC   GL1 3880   9.897   9.465   4.111 -0.1752 -0.3890 -0.3127
  298POPC   GL2 3881  10.307   9.465   4.167  0.0805 -0.1142 -0.3202
  298POPC   C1A 3882   9.933   9.589   4.658  0.1891  0.0945  0.1155
  298POPC   D2A 3883   9.959   9.822   5.005  0.2583 -0.1029 -0.1264
  298POPC   C3A 3884  10.127   9.862   5.387  0.2729 -0.1755 -0.0558
  298POPC   C4A 3885  10.298  10.034   5.757 -0.0864  0.1305  0.3103
  298POPC   C1B 3886  10.287   9.225   4.485  0.0694 -0.0702  0.0518
  298POPC   C2B 3887  10.603   9.091   4.723  0.0033  0.3703  0.0425
  298POPC   C3B 3888  11.027   9.264   4.803 -0.0667  0.1049 -0.4288
  298POPC   C4B 3889  11.487   9.417   4.747 -0.2792 -0.2667  0.0692
  299POPC   NC3 3890  10.638   2.111   3.580 -0.1147 -0.1058  0.4463
  299POPC   PO4 3891  10.492   2.356   3.776 -0.1003  0.0036 -0.0814
  299POPC   GL1 3892  10.444   2.517   4.185 -0.1219  0.3379  0.2473
  299POPC   GL2 3893  10.470   2.301   4.427  0.2301  0.0976  0.0679
  299POPC   C1A 3894  10.497   2.831   4.459 -0.2665  0.1447 -0.2107
  299POPC   D2A 3895  10.469   2.664   4.912  0.0240 -0.1608 -0.3340
  299POPC   C3A 3896  10.113   2.630   5.267  0.1552 -0.3307  0.0144
  299POPC   C4A 3897   9.917   2.687   5.582  0.4087  0.0097 -0.0851
  299POPC   C1B 3898  10.388   1.874   4.564 -0.2034  0.0117 -0.1450
  299POPC   C2B 3899  10.480   1.642   5.051  0.1086 -0.0517  0.4749
  299POPC   C3B 3900  10.598   1.908   5.514 -0.2081  0.0491 -0.2254
  299POPC   C4B 3901  10.610   2.144   5.883 -0.1477  0.0005  0.1960
  300POPC   NC3 3902   5.933   1.066   4.106  0.0276  0.0855 -0.0673
  300POPC   PO4 3903   5.489   0.972   4.123  0.0093 -0.1604 -0.0645
  300POPC   GL1 3904   5.678   0.811   4.523  0.0794  0.0990 -0.1201
  300POPC   GL2 3905   5.501   0.468   4.613 -0.0536  0.1689  0.1586
  300POPC   C1A 3906   5.921   0.813   4.874 -0.1875  0.1669  0.2233
  300POPC   D2A 3907   6.013   0.946   5.201  0.0828 -0.2139 -0.1043
  300POPC   C3A 3908   5.813   0.862   5.568 -0.1029  0.0695 -0.0222
  300POPC   C4A 3909   5.740   0.642   6.094  0.0645 -0.3491  0.2163
  300POPC   C1B 3910   5.020   0.616   4.771 -0.0261  0.0904 -0.0934
  300POPC   C2B 3911   4.705   0.840   4.933 -0.0621 -0.2735 -0.3299
  300POPC   C3B 3912   4.510   1.254   5.147 -0.2586 -0.1646  0.0034
  300POPC   C4B 3913   4.564   1.712   5.038  0.0381 -0.3120  0.2977
  301POPC   NC3 3914   3.022   1.634   3.848  0.2898 -0.0558  0.0456
  301POPC   PO4 3915   2.495   1.553   3.884  0.0545 -0.0241 -0.5336
  301POPC   GL1 3916   2.126   1.725   4.104  0.0447 -0.0392  0.0805
  301POPC   GL2 3917   2.101   1.395   4.247  0.1203 -0.0736 -0.0897
  301POPC   C1A 3918   2.235   1.806   4.460  0.1766  0.5657 -0.3651
  301POPC   D2A 3919   2.299   1.810   5.018  0.3006 -0.2651  0.0310
  301POPC   C3A 3920   2.116   1.668   5.430 -0.1330 -0.0321  0.3771
  301POPC   C4A 3921   1.878   1.613   5.746 -0.2504 -0.0142 -0.1243
  301POPC   C1B 3922   2.034   1.435   4.689  0.0351  0.0344  0.0043
  301POPC   C2B 3923   2.260   1.245   5.067  0.2172 -0.1757 -0.0435
  301POPC   C3B 3924   2.557   0.984   5.098 -0.2527  0.0489 -0.0098
  301POPC   C4B 3925   2.817   0.797   5.318  0.0031  0.2636 -0.1251
  302POPC   NC3 3926   3.379   9.338   3.668  0.0923 -0.0349 -0.2698
  302POPC   PO4 3927   2.995   9.610   3.703  0.1431 -0.3481  0.0455
  302POPC   GL1 3928   2.947   9.855   4.171  0.2620 -0.0796  0.0620
  302POPC   GL2 3929   2.642   9.732   4.408  0.0115 -0.1929  0.2513
  302POPC   C1A 3930   3.102   9.972   4.586  0.2682 -0.3030  0.1987
  302POPC   D2A 3931   3.228   9.849   5.030  0.1115 -0.0864  0.0667
  302POPC   C3A 3932   3.236  10.081   5.401  0.4469  0.0319 -0.0574
  302POPC   C4A 3933   3.488  10.300   5.682 -0.3772  0.2791 -0.1986
  302POPC   C1B 3934   2.284   9.640   4.684  0.0335 -0.0803 -0.1329
  302POPC   C2B 3935   2.303   9.515   5.031 -0.3497 -0.0925 -0.3003
  302POPC   C3B 3936   2.372   9.449   5.484  0.0775 -0.1066 -0.2236
  302POPC   C4B 3937   2.659   9.376   5.836  0.2748 -0.0843  0.5795
  303POPC   NC3 3938   9.113   8.800   3.810  0.3586 -0.1946  0.0519
  303POPC   PO4 3939   9.133   8.414   3.995  0.1261 -0.0058  0.3022
  303POPC   GL1 3940   9.143   8.467   4.365 -0.0180 -0.0722 -0.0755
  303POPC   GL2 3941   8.903   8.409   4.477  0.2397 -0.0544  0.0373
  303POPC   C1A 3942   9.444   8.517   4.769  0.1972 -0.1106  0.0761
  303POPC   D2A 3943   9.465   8.629   5.116  0.1562  0.2556 -0.1353
  303POPC   C3A 3944   9.243   8.409   5.378 -0.3578 -0.5278  0.1673
  303POPC   C4A 3945   8.929   8.175   5.594 -0.0536  0.2748  0.0709
  303POPC   C1B 3946   8.715   8.874   4.514 -0.0095 -0.3539 -0.0202
  303POPC   C2B 3947   8.705   9.329   4.473  0.0732  0.1338  0.2989
  303POPC   C3B 3948   8.542   9.616   4.603  0.4890 -0.3778  0.0264
  303POPC   C4B 3949   8.542  10.075   4.690  0.0679  0.1259  0.3269
  304POPC   NC3 3950   7.116   9.236   3.916 -0.0369 -0.2112 -0.0461
  304POPC   PO4 3951   7.068   8.777   3.835  0.1317  0.2193  0.0649
  304POPC   GL1 3952   6.915   8.767   4.295 -0.0119 -0.0788  0.0317
  304POPC   GL2 3953   6.849   9.152   4.373 -0.1744 -0.1445 -0.0454
  304POPC   C1A 3954   6.863   8.524   4.679 -0.1170 -0.0683  0.0190
  304POPC   D2A 3955   6.986   8.600   5.156 -0.2196 -0.4036  0.3166
  304POPC   C3A 3956   7.329   8.891   5.260 -0.2067  0.3553 -0.0822
  304POPC   C4A 3957   7.651   8.944   5.524  0.1315  0.0302 -0.1055
  304POPC   C1B 3958   6.835   9.153   4.883 -0.0086  0.2486 -0.0197
  304POPC   C2B 3959   6.837   9.254   5.321 -0.2243  0.1408  0.4119
  304POPC   C3B 3960   6.798   9.342   5.686  0.2028  0.0925 -0.1870
  304POPC   C4B 3961   6.677   9.274   6.156  0.0519 -0.2892  0.2916
  305POPC   NC3 3962   3.887   5.138   3.642 -0.3218  0.2852  0.1207
  305POPC   PO4 3963   3.684   4.945   3.942  0.1523  0.1693  0.2048
  305POPC   GL1 3964   3.480   4.813   4.341  0.5209 -0.2416 -0.1500
  305POPC   GL2 3965   3.147   4.838   4.504 -0.3899  0.0111  0.0742
  305POPC   C1A 3966   3.564   4.724   4.789  0.0660  0.0291 -0.1133
  305POPC   D2A 3967   3.719   4.428   4.985  0.3202 -0.1905  0.0224
  305POPC   C3A 3968   4.037   4.214   4.922  0.0836  0.3170  0.1818
  305POPC   C4A 3969   4.260   3.905   5.124 -0.3440 -0.2081  0.2585
  305POPC   C1B 3970   2.901   4.647   4.840  0.2126 -0.0546  0.0368
  305POPC   C2B 3971   3.003   4.778   5.228 -0.0823 -0.3626  0.0511
  305POPC   C3B 3972   2.994   4.490   5.617 -0.0910 -0.0396  0.1976
  305POPC   C4B 3973   2.916   4.090   5.652  0.1425  0.1595  0.1537
  306POPC   NC3 3974   5.387   8.372   3.629  0.0322  0.0425  0.0909
  306POPC   PO4 3975   5.559   8.661   3.824  0.2581 -0.1220 -0.1470
  306POPC   GL1 3976   5.433   8.823   4.297 -0.2049 -0.2646  0.0444
  306POPC   GL2 3977   5.326   9.176   4.303 -0.0565  0.0247  0.0427
  306POPC   C1A 3978   5.317   8.780   4.743 -0.4081 -0.2974 -0.1111
  306POPC   D2A 3979   4.933   8.837   4.907 -0.0080 -0.0530  0.1068
  306POPC   C3A 3980   4.564   8.585   4.974  0.0919 -0.2934 -0.0895
  306POPC   C4A 3981   4.113   8.769   5.059 -0.3501  0.2797  0.2084
  306POPC   C1B 3982   5.532   9.384   4.719  0.1478  0.2625 -0.0789
  306POPC   C2B 3983   5.601   9.240   5.164  0.0571  0.2826 -0.1784
  306POPC   C3B 3984   5.766   9.054   5.557 -0.4613  0.0368  0.0805
  306POPC   C4B 3985   5.740   8.638   5.773  0.0429 -0.1947 -0.0129
  307POPC   NC3 3986   4.255   9.179   3.403  0.2595  0.0450 -0.0587
  307POPC   PO4 3987   4.340   9.119   3.831  0.1017 -0.0141 -0.0350
  307POPC   GL1 3988   4.196   8.776   4.142 -0.2075 -0.1292 -0.0887
  307POPC   GL2 3989   4.110   8.477   4.091 -0.0928  0.0258 -0.0480
  307POPC   C1A 3990   4.362   8.820   4.568  0.0858  0.0304  0.0827
  307POPC   D2A 3991   4.548   9.131   4.759  0.3328 -0.0621  0.0770
  307POPC   C3A 3992   4.909   9.317   4.611 -0.0004  0.2068  0.0054
  307POPC   C4A 3993   5.196   9.608   4.491  0.0485 -0.2392  0.0011
  307POPC   C1B 3994   3.926   8.481   4.511  0.2347  0.0185 -0.0547
  307POPC   C2B 3995   3.682   8.455   4.897  0.0815 -0.0628  0.4973
  307POPC   C3B 3996   3.620   8.443   5.324  0.0126  0.3565 -0.1172
  307POPC   C4B 3997   3.681   8.265   5.617 -0.4123 -0.0446  0.0642
  308POPC   NC3 3998   8.015   0.950   3.816 -0.0068 -0.1796  0.1095
  308POPC   PO4 3999   7.634   1.146   3.929 -0.1348  0.1235  0.1284
  308POPC   GL1 4000   7.625   1.009   4.253 -0.2553  0.1579 -0.1144
  308POPC   GL2 4001   7.939   0.851   4.326  0.1258 -0.2149  0.0526
  308POPC   C1A 4002   7.693   1.241   4.646 -0.0509 -0.1325 -0.0296
  308POPC   D2A 4003   7.513   1.598   4.964 -0.2654 -0.1608  0.4218
  308POPC   C3A 4004   7.152   1.548   5.186  0.1759 -0.2266 -0.0569
  308POPC   C4A 4005   6.889   1.377   5.501 -0.2874 -0.2054 -0.0202
  308POPC   C1B 4006   8.267   1.114   4.697 -0.3080  0.0116 -0.2260
  308POPC   C2B 4007   8.379   1.093   5.169  0.0968  0.2003 -0.0567
  308POPC   C3B 4008   8.513   0.692   5.258 -0.1146 -0.0053  0.3649
  308POPC   C4B 4009   8.717   0.342   5.467  0.0905  0.0085 -0.0417
  309POPC   NC3 4010   0.355   3.102   3.177  0.0252  0.0785  0.1489
  309POPC   PO4 4011   0.754   3.163   3.073 -0.0814 -0.0348 -0.0047
  309POPC   GL1 4012   0.667   2.931   3.508  0.0282  0.3479  0.1723
  309POPC   GL2 4013   0.923   2.970   3.725 -0.3278 -0.1619 -0.1543
  309POPC   C1A 4014   0.455   2.974   3.988 -0.3332 -0.1434  0.2584
  309POPC   D2A 4015   0.522   3.177   4.299 -0.1615 -0.2401  0.2095
  309POPC   C3A 4016   0.530   2.948   4.700 -0.0661  0.0603  0.1116
  309POPC   C4A 4017   0.731   2.831   5.047 -0.1731  0.1345  0.3191
  309POPC   C1B 4018   0.995   3.284   4.117  0.1314 -0.0655 -0.0580
  309POPC   C2B 4019   1.321   3.413   4.302  0.0840  0.1133 -0.2091
  309POPC   C3B 4020   1.605   3.331   4.708 -0.0664 -0.0849  0.3230
  309POPC   C4B 4021   1.630   3.433   5.212 -0.0039 -0.0827  0.2586
  310POPC   NC3 4022   5.049   0.740   4.148  0.2474 -0.3191  0.3219
  310POPC   PO4 4023   5.422   0.422   4.085 -0.0740 -0.0945  0.2587
  310POPC   GL1 4024   5.086   0.287   4.327 -0.0078  0.1211 -0.0701
  310POPC   GL2 4025   5.081  -0.015   4.423  0.2153 -0.2899 -0.2645
  310POPC   C1A 4026   4.789   0.211   4.766 -0.2310 -0.0979 -0.0033
  310POPC   D2A 4027   4.636   0.095   5.187 -0.0582  0.1891  0.2550
  310POPC   C3A 4028   4.270   0.078   5.287  0.3163 -0.1103  0.0138
  310POPC   C4A 4029   3.947  -0.122   5.480  0.0474  0.0511  0.0353
  310POPC   C1B 4030   5.154  -0.224   4.938  0.3608  0.3834  0.0596
  310POPC   C2B 4031   5.157  -0.516   5.241  0.1042 -0.1336 -0.0532
  310POPC   C3B 4032   5.016  -0.677   5.612 -0.0567  0.0384  0.1090
  310POPC   C4B 4033   4.715  -0.706   5.861  0.0981 -0.0252 -0.1634
  311POPC   NC3 4034   5.535   3.742   4.233 -0.0298  0.1493  0.1992
  311POPC   PO4 4035   5.809   4.028   4.559  0.0439  0.0045  0.1617
  311POPC   GL1 4036   5.752   3.708   4.739 -0.3362  0.0952 -0.0704
  311POPC   GL2 4037   5.821   3.418   4.458  0.3141  0.2359 -0.0089
  311POPC   C1A 4038   5.805   3.390   5.107 -0.4189  0.0861  0.0913
  311POPC   D2A 4039   6.103   3.161   5.326  0.1684  0.0742  0.5025
  311POPC   C3A 4040   6.252   3.022   5.763  0.1853 -0.1048  0.0537
  311POPC   C4A 4041   6.101   2.678   6.019  0.1014 -0.1770 -0.4020
  311POPC   C1B 4042   5.883   3.080   4.785 -0.0798  0.3125  0.0457
  311POPC   C2B 4043   6.083   2.704   4.992 -0.1907  0.0187  0.0825
  311POPC   C3B 4044   6.060   2.529   5.433  0.2308 -0.0012  0.2175
  311POPC   C4B 4045   6.173   2.212   5.732  0.0604 -0.0957  0.2994
  312POPC   NC3 4046   0.997   0.558   3.220  0.4378  0.0634 -0.0012
  312POPC   PO4 4047   1.214   0.765   3.579  0.1814  0.5944 -0.2236
  312POPC   GL1 4048   1.143   0.655   4.106 -0.0480 -0.0207  0.4649
  312POPC   GL2 4049   1.158   0.319   4.096 -0.2965  0.1395  0.0525
  312POPC   C1A 4050   1.319   0.895   4.371 -0.4163 -0.0960 -0.2973
  312POPC   D2A 4051   1.396   0.967   4.759  0.4861  0.0733 -0.1389
  312POPC   C3A 4052   1.277   1.255   5.185 -0.1811 -0.1653  0.2887
  312POPC   C4A 4053   0.887   1.577   5.300  0.0116 -0.0136 -0.1195
  312POPC   C1B 4054   1.230   0.315   4.569  0.1697 -0.1512  0.0331
  312POPC   C2B 4055   1.140   0.225   5.015  0.0939  0.2547  0.1372
  312POPC   C3B 4056   1.390   0.155   5.377 -0.1160 -0.0886  0.0082
  312POPC   C4B 4057   1.353   0.203   5.862  0.2991  0.1723 -0.3863
  313POPC   NC3 4058   6.092   8.770   3.802  0.0327  0.1250 -0.0743
  313POPC   PO4 4059   5.906   8.228   3.727  0.0890 -0.4088  0.1421
  313POPC   GL1 4060   6.058   8.330   4.166  0.2046  0.0074  0.2981
  313POPC   GL2 4061   5.867   8.553   4.237  0.0740  0.1127  0.0367
  313POPC   C1A 4062   6.077   8.219   4.633  0.2343  0.1971  0.1645
  313POPC   D2A 4063   6.071   8.227   5.012 -0.2050  0.2254  0.1015
  313POPC   C3A 4064   5.670   8.265   5.285 -0.0904 -0.2019  0.2006
  313POPC   C4A 4065   5.311   8.351   5.631  0.2305 -0.2102 -0.0589
  313POPC   C1B 4066   5.925   8.809   4.506 -0.1458  0.2288 -0.0233
  313POPC   C2B 4067   5.948   8.857   4.997  0.1389 -0.1386 -0.1758
  313POPC   C3B 4068   6.101   8.638   5.317 -0.1937  0.0436 -0.0367
  313POPC   C4B 4069   6.524   8.418   5.289  0.1840  0.2573  0.2121
  314POPC   NC3 4070   2.325   1.126   3.948  0.2202 -0.0229  0.1255
  314POPC   PO4 4071   1.956   1.317   3.751  0.3712 -0.0846  0.0082
  314POPC   GL1 4072   1.645   1.389   4.097 -0.3321  0.0665 -0.1624
  314POPC   GL2 4073   1.226   1.341   4.101  0.0051 -0.1332  0.3630
  314POPC   C1A 4074   1.492   1.442   4.541 -0.3579 -0.1420  0.0914
  314POPC   D2A 4075   1.175   1.629   4.854 -0.3547 -0.1442  0.0817
  314POPC   C3A 4076   1.333   1.815   5.177 -0.0386  0.1260  0.2229
  314POPC   C4A 4077   1.327   1.636   5.597  0.2529 -0.3332 -0.1107
  314POPC   C1B 4078   1.019   1.248   4.544  0.0638  0.1790 -0.1734
  314POPC   C2B 4079   0.743   1.283   4.952 -0.1590 -0.2228  0.1470
  314POPC   C3B 4080   0.479   1.171   5.308 -0.1209  0.2948 -0.1368
  314POPC   C4B 4081   0.810   1.181   5.616 -0.0631 -0.0188  0.1499
  315POPC   NC3 4082   5.238  10.527   4.007  0.0614 -0.0927  0.1055
  315POPC   PO4 4083   5.520  10.065   4.126 -0.0078 -0.0404 -0.0941
  315POPC   GL1 4084   5.461  10.007   4.578 -0.0920 -0.2625 -0.2028
  315POPC   GL2 4085   5.640  10.314   4.732  0.1786 -0.0448  0.0887
  315POPC   C1A 4086   5.400   9.734   4.994  0.0760  0.0655 -0.0737
  315POPC   D2A 4087   5.083   9.314   5.091 -0.0632 -0.0025  0.0989
  315POPC   C3A 4088   5.141   9.092   5.371 -0.0002  0.0900  0.0884
  315POPC   C4A 4089   5.013   8.815   5.439  0.1964  0.1459  0.2198
  315POPC   C1B 4090   5.657  10.278   5.247 -0.2850  0.2188 -0.1697
  315POPC   C2B 4091   5.656  10.683   5.592 -0.2238  0.2639  0.0342
  315POPC   C3B 4092   6.002  10.955   5.811  0.0141 -0.2117 -0.1490
  315POPC   C4B 4093   6.396  10.946   5.941 -0.1920 -0.2386  0.2143
  316POPC   NC3 4094   2.154   7.254   3.624  0.2658 -0.2037 -0.4042
  316POPC   PO4 4095   1.793   7.187   3.642  0.1704  0.0838 -0.1081
  316POPC   GL1 4096   1.710   7.236   4.105 -0.5028  0.3355  0.0592
  316POPC   GL2 4097   1.648   6.827   4.156 -0.0197 -0.2082  0.0777
  316POPC   C1A 4098   1.868   7.111   4.559  0.4008  0.1183 -0.0541
  316POPC   D2A 4099   2.062   6.762   4.798 -0.1845  0.1020 -0.4026
  316POPC   C3A 4100   2.012   6.613   5.184  0.2179 -0.0422  0.1823
  316POPC   C4A 4101   2.165   6.286   5.509 -0.0350 -0.1020  0.0372
  316POPC   C1B 4102   1.607   6.645   4.577  0.1600 -0.2374 -0.0477
  316POPC   C2B 4103   1.529   6.803   4.977 -0.1795 -0.2139 -0.4046
  316POPC   C3B 4104   1.423   7.186   5.295 -0.3872 -0.2154 -0.0493
  316POPC   C4B 4105   1.554   7.599   5.393  0.1817  0.0439  0.0179
  317POPC   NC3 4106   7.095   8.517   3.433 -0.0099  0.1396  0.2978
  317POPC   PO4 4107   6.652   8.721   3.544 -0.0405  0.1272  0.2002
  317POPC   GL1 4108   6.493   8.668   3.977 -0.2178 -0.3347  0.6058
  317POPC   GL2 4109   6.338   9.003   4.205  0.4258  0.3224 -0.1923
  317POPC   C1A 4110   6.473   8.609   4.484  0.2031 -0.1580  0.1695
  317POPC   D2A 4111   6.441   8.650   4.883 -0.3267 -0.2378 -0.1762
  317POPC   C3A 4112   6.482   8.943   5.140 -0.1847  0.0527  0.1304
  317POPC   C4A 4113   6.256   9.143   5.394 -0.0447 -0.1156 -0.0040
  317POPC   C1B 4114   6.330   9.046   4.613 -0.0498 -0.3570 -0.0218
  317POPC   C2B 4115   6.070   9.314   4.883 -0.3024 -0.0770  0.0165
  317POPC   C3B 4116   5.967   9.538   5.289 -0.2928  0.1561 -0.0416
  317POPC   C4B 4117   5.857   9.867   5.517 -0.1752  0.0930 -0.1680
  318POPC   NC3 4118   3.161   8.877   3.318  0.4170  0.0657 -0.2580
  318POPC   PO4 4119   2.911   8.530   3.580 -0.2343  0.0880 -0.1618
  318POPC   GL1 4120   2.821   8.634   3.866  0.0229  0.4170 -0.0149
  318POPC   GL2 4121   3.114   8.450   4.033 -0.0317 -0.2778  0.0826
  318POPC   C1A 4122   3.027   8.875   4.239  0.3808 -0.2047 -0.1458
  318POPC   D2A 4123   3.220   9.138   4.562  0.2445  0.1465  0.0802
  318POPC   C3A 4124   3.026   9.502   4.572 -0.0006 -0.0838  0.0408
  318POPC   C4A 4125   2.741   9.703   4.862  0.1240  0.0405 -0.3079
  318POPC   C1B 4126   3.162   8.523   4.586 -0.1245  0.3247  0.2083
  318POPC   C2B 4127   3.273   8.783   4.947 -0.0136 -0.0193 -0.4384
  318POPC   C3B 4128   3.263   8.757   5.451 -0.2079  0.0696  0.0823
  318POPC   C4B 4129   3.399   8.720   5.873 -0.0246 -0.3304  0.2770
  319POPC   NC3 4130   6.778   2.355   3.976 -0.0252  0.1686  0.3633
  319POPC   PO4 4131   6.359   2.255   3.846 -0.0075 -0.3272 -0.0468
  319POPC   GL1 4132   6.378   2.263   4.266  0.0422  0.2427 -0.0488
  319POPC   GL2 4133   6.670   2.412   4.453  0.0973  0.0988  0.1572
  319POPC   C1A 4134   6.377   2.119   4.774 -0.1641 -0.2249 -0.3527
  319POPC   D2A 4135   6.207   1.911   5.042 -0.1021  0.1261 -0.1039
  319POPC   C3A 4136   5.916   1.962   5.360 -0.1610  0.2298 -0.0854
  319POPC   C4A 4137   5.767   1.916   5.795  0.2205  0.0500  0.4464
  319POPC   C1B 4138   6.520   2.562   4.939 -0.2920  0.1180 -0.0999
  319POPC   C2B 4139   6.565   2.785   5.378  0.0772  0.0144  0.1245
  319POPC   C3B 4140   6.833   2.961   5.570  0.3351 -0.1455  0.0763
  319POPC   C4B 4141   7.036   2.654   5.877 -0.0296 -0.0921  0.2092
  320POPC   NC3 4142   2.536   2.630   3.223 -0.0397  0.1932  0.0646
  320POPC   PO4 4143   2.581   2.410   3.547 -0.0098  0.0687 -0.2380
  320POPC   GL1 4144   2.430   2.523   3.965  0.2757 -0.0132 -0.0301
  320POPC   GL2 4145   2.570   2.716   4.176 -0.1865  0.0794  0.0665
  320POPC   C1A 4146   2.379   2.296   4.267  0.0439 -0.0781 -0.1480
  320POPC   D2A 4147   2.415   2.292   4.721  0.1220  0.3828 -0.2847
  320POPC   C3A 4148   1.933   2.313   4.803 -0.0687  0.0891 -0.0002
  320POPC   C4A 4149   1.441   2.222   4.860  0.1619 -0.0420  0.2770
  320POPC   C1B 4150   2.507   2.766   4.642 -0.2458 -0.0871 -0.0559
  320POPC   C2B 4151   2.517   2.687   5.064  0.1294 -0.1018  0.1839
  320POPC   C3B 4152   2.530   2.895   5.453 -0.2119 -0.2056 -0.3383
  320POPC   C4B 4153   2.543   3.183   5.703 -0.1082  0.1190  0.1235
  321POPC   NC3 4154   4.259   1.079   4.119  0.0677 -0.0257  0.1952
  321POPC   PO4 4155   4.501   0.758   4.103 -0.2719  0.3778  0.0709
  321POPC   GL1 4156   4.430   0.906   4.560  0.1572  0.0677  0.2509
  321POPC   GL2 4157   4.193   0.833   4.645 -0.0643  0.0101 -0.2784
  321POPC   C1A 4158   4.258   1.342   4.737 -0.2527  0.0610 -0.2919
  321POPC   D2A 4159   4.013   1.550   5.029  0.0225 -0.1283  0.1452
  321POPC   C3A 4160   4.185   1.464   5.391  0.0138 -0.2737  0.0252
  321POPC   C4A 4161   4.312   1.166   5.712 -0.0099 -0.0411  0.2120
  321POPC   C1B 4162   3.983   0.931   4.974  0.0871  0.0627 -0.0164
  321POPC   C2B 4163   3.978   0.876   5.432 -0.0504 -0.1273  0.0001
  321POPC   C3B 4164   4.025   0.459   5.634 -0.2219 -0.0090 -0.1531
  321POPC   C4B 4165   4.150   0.169   5.784 -0.3945 -0.0579 -0.1417
  322POPC   NC3 4166   0.968   8.349   3.728  0.1724  0.1792  0.3712
  322POPC   PO4 4167   1.110   7.929   3.883  0.2281 -0.3199  0.1875
  322POPC   GL1 4168   1.151   8.208   4.241 -0.2344 -0.0043  0.0126
  322POPC   GL2 4169   0.877   8.473   4.242  0.1453  0.2093 -0.1200
  322POPC   C1A 4170   1.327   8.128   4.665  0.1513  0.0660  0.2236
  322POPC   D2A 4171   1.486   8.112   5.047 -0.2291 -0.0885  0.3916
  322POPC   C3A 4172   1.272   8.005   5.453  0.0822 -0.4548  0.0723
  322POPC   C4A 4173   1.011   8.131   5.778 -0.0777 -0.0943 -0.3729
  322POPC   C1B 4174   0.921   8.457   4.709  0.2140  0.1458 -0.1344
  322POPC   C2B 4175   1.196   8.581   5.041  0.0552  0.2292  0.1102
  322POPC   C3B 4176   1.056   8.785   5.366 -0.2337  0.2534  0.0665
  322POPC   C4B 4177   0.991   9.064   5.710  0.0357  0.0377 -0.0248
  323POPC   NC3 4178   2.677  10.536   3.880  0.2048 -0.0301 -0.0228
  323POPC   PO4 4179   2.262  10.382   3.824 -0.1661 -0.2791 -0.0934
  323POPC   GL1 4180   2.308  10.605   4.189  0.3228 -0.1008  0.1814
  323POPC   GL2 4181   2.402  10.936   4.092 -0.2061  0.0739  0.0063
  323POPC   C1A 4182   2.469  10.605   4.563  0.0474  0.1250  0.0056
  323POPC   D2A 4183   2.653  10.637   4.966  0.2855  0.0676  0.2903
  323POPC   C3A 4184   2.752  10.627   5.365  0.0262  0.1956 -0.0948
  323POPC   C4A 4185   2.711  10.309   5.620  0.2255  0.0616 -0.1331
  323POPC   C1B 4186   2.315  11.097   4.582 -0.1389  0.0352  0.2052
  323POPC   C2B 4187   2.013  11.311   4.858  0.0661 -0.1473  0.1230
  323POPC   C3B 4188   1.832  11.693   4.959 -0.0458 -0.0349  0.3346
  323POPC   C4B 4189   1.746  12.098   5.161 -0.1338  0.0066 -0.2181
  324POPC   NC3 4190   1.597  10.122   3.634 -0.1278 -0.0115 -0.1040
  324POPC   PO4 4191   1.595   9.687   3.557  0.0035  0.1748 -0.1939
  324POPC   GL1 4192   1.384   9.790   4.002  0.0632 -0.1054  0.1117
  324POPC   GL2 4193   1.054   9.963   3.981 -0.1731 -0.0831 -0.1262
  324POPC   C1A 4194   1.379  10.054   4.437  0.0084  0.3196  0.1844
  324POPC   D2A 4195   1.287  10.081   4.857 -0.1474  0.0954  0.1893
  324POPC   C3A 4196   1.504   9.937   5.246  0.0188  0.1083 -0.0992
  324POPC   C4A 4197   1.447   9.599   5.564  0.1072 -0.0255 -0.0866
  324POPC   C1B 4198   0.920   9.753   4.300 -0.1878 -0.0761  0.3289
  324POPC   C2B 4199   0.550   9.709   4.507 -0.4158  0.0359  0.3245
  324POPC   C3B 4200   0.228   9.712   4.899  0.3664 -0.0373  0.0942
  324POPC   C4B 4201  -0.163   9.545   5.029  0.1996  0.3109  0.0294
  325POPC   NC3 4202   9.739   1.416   4.022 -0.0021  0.1524  0.1350
  325POPC   PO4 4203  10.142   1.470   3.974 -0.0795 -0.0904  0.0001
  325POPC   GL1 4204   9.992   1.732   4.342  0.1058 -0.2015 -0.2465
  325POPC   GL2 4205   9.750   1.989   4.199 -0.0497  0.0180  0.0058
  325POPC   C1A 4206  10.008   1.690   4.816 -0.1477 -0.0902  0.2666
  325POPC   D2A 4207   9.986   1.822   5.196 -0.0260  0.1656 -0.0878
  325POPC   C3A 4208  10.164   1.564   5.542 -0.6264  0.2863  0.1766
  325POPC   C4A 4209  10.467   1.624   5.860 -0.1316  0.1931 -0.0445
  325POPC   C1B 4210   9.986   2.230   4.479 -0.1352  0.3000  0.0393
  325POPC   C2B 4211  10.028   2.624   4.678  0.0782 -0.2755  0.2640
  325POPC   C3B 4212   9.950   2.864   4.867  0.0324 -0.0625 -0.0907
  325POPC   C4B 4213   9.806   3.141   5.252 -0.0744  0.1766 -0.0976
  326POPC   NC3 4214  10.223   5.396   2.663  0.0998 -0.0287  0.2637
  326POPC   PO4 4215  10.168   5.820   2.924  0.1019 -0.1189  0.1438
  326POPC   GL1 4216  10.366   5.619   3.302 -0.1080 -0.2172 -0.0827
  326POPC   GL2 4217  10.388   5.853   3.476 -0.2767  0.0946  0.0974
  326POPC   C1A 4218  10.627   5.402   3.634  0.0316 -0.1235 -0.1688
  326POPC   D2A 4219  10.726   5.730   3.894 -0.0926 -0.1423 -0.0200
  326POPC   C3A 4220  10.597   5.758   4.269  0.2878  0.0178 -0.0799
  326POPC   C4A 4221  10.528   5.717   4.684 -0.3648 -0.1665  0.0688
  326POPC   C1B 4222  10.199   5.652   3.819 -0.3078  0.1077  0.0418
  326POPC   C2B 4223  10.054   5.780   4.247 -0.0788  0.0412 -0.0489
  326POPC   C3B 4224  10.058   5.647   4.658 -0.0916  0.0680  0.0833
  326POPC   C4B 4225  10.162   5.594   5.006  0.0376 -0.1580 -0.2628
  327POPC   NC3 4226   7.744   9.979   3.598 -0.2923 -0.1907 -0.3556
  327POPC   PO4 4227   7.522   9.548   3.795  0.1158  0.1825  0.0013
  327POPC   GL1 4228   7.912   9.741   3.991 -0.0121  0.3899  0.0928
  327POPC   GL2 4229   7.899   9.467   4.172  0.2198 -0.0656  0.3469
  327POPC   C1A 4230   7.895  10.001   4.293  0.0900  0.3062  0.2642
  327POPC   D2A 4231   8.075   9.888   4.701  0.0894  0.1998 -0.1838
  327POPC   C3A 4232   8.154  10.010   5.112  0.1429  0.1555  0.1410
  327POPC   C4A 4233   8.195  10.001   5.547  0.1479 -0.0276  0.0165
  327POPC   C1B 4234   7.920   9.426   4.603 -0.1669  0.3221 -0.1723
  327POPC   C2B 4235   8.173   9.541   5.000  0.2115 -0.0060 -0.2066
  327POPC   C3B 4236   8.431   9.573   5.403 -0.1387  0.0273 -0.2365
  327POPC   C4B 4237   8.677   9.592   5.712  0.1815 -0.0733 -0.1252
  328POPC   NC3 4238   8.685   5.283   3.280 -0.1158  0.1644  0.0544
  328POPC   PO4 4239   8.406   5.060   3.506 -0.0636  0.0567  0.0237
  328POPC   GL1 4240   8.635   4.754   3.880  0.0023  0.1080 -0.2908
  328POPC   GL2 4241   8.549   4.665   4.192 -0.2372 -0.3298 -0.1356
  328POPC   C1A 4242   8.890   4.956   4.377  0.2824 -0.1854  0.2413
  328POPC   D2A 4243   8.917   4.784   4.914 -0.2180  0.0070  0.2969
  328POPC   C3A 4244   9.154   4.458   4.913  0.0992  0.3492  0.0716
  328POPC   C4A 4245   9.251   3.959   4.960 -0.1521  0.1342  0.1214
  328POPC   C1B 4246   8.433   4.670   4.578 -0.2332 -0.3862  0.0394
  328POPC   C2B 4247   8.507   4.322   4.990  0.0664  0.2171  0.0427
  328POPC   C3B 4248   8.771   4.041   5.074  0.2747 -0.0968 -0.4065
  328POPC   C4B 4249   9.174   4.199   5.389  0.1349  0.0146 -0.3066
  329POPC   NC3 4250   0.900   1.539   3.734 -0.3392 -0.1956 -0.0734
  329POPC   PO4 4251   0.528   1.360   3.695 -0.3866 -0.0112  0.1523
  329POPC   GL1 4252   0.389   1.096   4.068 -0.1033  0.1427  0.1489
  329POPC   GL2 4253   0.149   0.813   4.175  0.0269 -0.0621  0.2332
  329POPC   C1A 4254   0.502   0.978   4.486 -0.0944 -0.1271  0.0405
  329POPC   D2A 4255   0.439   0.787   4.921  0.0974 -0.1111 -0.1656
  329POPC   C3A 4256   0.143   0.464   5.013  0.0527 -0.0360  0.0560
  329POPC   C4A 4257   0.117   0.025   5.227 -0.0916  0.1300  0.4709
  329POPC   C1B 4258   0.040   0.829   4.595 -0.2944 -0.1954 -0.1517
  329POPC   C2B 4259   0.086   1.171   4.971 -0.0445 -0.0391  0.1353
  329POPC   C3B 4260  -0.123   1.217   5.414  0.3414 -0.1989  0.2127
  329POPC   C4B 4261  -0.354   1.181   5.958 -0.1782  0.1290 -0.0193
  330POPC   NC3 4262   4.093   7.834   3.541 -0.1020 -0.1110 -0.3925
  330POPC   PO4 4263   3.833   8.180   3.702  0.3829 -0.0869  0.0301
  330POPC   GL1 4264   3.633   8.441   3.970  0.2875  0.2963  0.3868
  330POPC   GL2 4265   3.547   8.278   4.217 -0.0509 -0.0420  0.3338
  330POPC   C1A 4266   3.523   8.725   4.219  0.2390  0.1031  0.4084
  330POPC   D2A 4267   3.716   8.899   4.633  0.0304 -0.1731  0.3345
  330POPC   C3A 4268   3.649   9.066   5.067  0.1725  0.1336 -0.3021
  330POPC   C4A 4269   3.569   9.268   5.394 -0.2075  0.0009  0.2319
  330POPC   C1B 4270   3.456   8.092   4.648  0.2094  0.2463  0.0058
  330POPC   C2B 4271   3.175   8.278   4.976 -0.0981  0.1452  0.1509
  330POPC   C3B 4272   2.833   8.577   5.178 -0.0408  0.1794 -0.2025
  330POPC   C4B 4273   2.819   8.904   5.509  0.0130 -0.1292  0.0294
  331POPC   NC3 4274   8.320   4.032   3.465 -0.2518  0.0645 -0.0520
  331POPC   PO4 4275   8.018   4.130   3.743  0.0713 -0.1892  0.0430
  331POPC   GL1 4276   8.254   4.270   4.013  0.0428  0.0416 -0.3312
  331POPC   GL2 4277   8.059   4.425   4.247 -0.0694 -0.0892 -0.1882
  331POPC   C1A 4278   8.504   4.230   4.375 -0.0782  0.0131 -0.2681
  331POPC   D2A 4279   8.890   4.413   4.499  0.3462 -0.0422  0.0687
  331POPC   C3A 4280   9.324   4.570   4.406  0.2786  0.5659 -0.1314
  331POPC   C4A 4281   9.476   4.970   4.345  0.2461 -0.2394  0.3059
  331POPC   C1B 4282   8.089   4.237   4.669 -0.1481 -0.0817 -0.3451
  331POPC   C2B 4283   8.040   4.383   5.085 -0.0762  0.0065  0.1511
  331POPC   C3B 4284   7.970   4.317   5.482  0.0321 -0.1732 -0.0202
  331POPC   C4B 4285   8.093   4.146   5.873  0.0458  0.0836  0.0259
  332POPC   NC3 4286   1.901   9.021   3.567 -0.0656  0.1335 -0.2569
  332POPC   PO4 4287   2.351   9.273   3.616  0.2725 -0.0618  0.0280
  332POPC   GL1 4288   2.095   9.357   3.920 -0.0417  0.3759  0.1070
  332POPC   GL2 4289   1.817   9.443   3.949  0.2495 -0.1944 -0.0361
  332POPC   C1A 4290   2.156   9.304   4.391  0.2711 -0.1520  0.1385
  332POPC   D2A 4291   2.565   9.195   4.674 -0.1368  0.2745 -0.0035
  332POPC   C3A 4292   2.813   8.868   4.699 -0.1398  0.0889  0.1342
  332POPC   C4A 4293   2.663   8.520   4.699 -0.1310 -0.1038 -0.0950
  332POPC   C1B 4294   1.681   9.262   4.365  0.1096 -0.1294 -0.2042
  332POPC   C2B 4295   1.459   9.089   4.609  0.0150  0.0681  0.1847
  332POPC   C3B 4296   1.151   9.093   4.823  0.1696  0.1384 -0.0655
  332POPC   C4B 4297   0.989   9.256   5.203  0.1999 -0.0055  0.0907
  333POPC   NC3 4298   8.057   5.353   3.927 -0.1193  0.3502  0.2205
  333POPC   PO4 4299   7.768   5.678   3.994  0.0438  0.1884 -0.2963
  333POPC   GL1 4300   7.573   5.452   4.385 -0.0789  0.0029 -0.1002
  333POPC   GL2 4301   7.701   5.709   4.696 -0.0829  0.2518  0.0872
  333POPC   C1A 4302   7.514   5.156   4.766  0.2261  0.2561 -0.1014
  333POPC   D2A 4303   7.597   4.798   5.001  0.0530  0.3998  0.2444
  333POPC   C3A 4304   7.877   4.810   5.286 -0.0010  0.1153 -0.1568
  333POPC   C4A 4305   7.985   4.814   5.668  0.1095 -0.4143  0.1177
  333POPC   C1B 4306   7.945   5.496   4.880 -0.2908  0.2584 -0.0981
  333POPC   C2B 4307   8.152   5.254   5.125 -0.2049  0.1318 -0.0466
  333POPC   C3B 4308   8.357   5.110   5.532 -0.1761  0.0191 -0.1441
  333POPC   C4B 4309   8.308   5.100   6.057 -0.1220  0.1597  0.0081
  334POPC   NC3 4310   3.587   5.097   3.221 -0.1451  0.3324  0.2531
  334POPC   PO4 4311   3.535   5.416   3.626 -0.1791 -0.2602  0.1654
  334POPC   GL1 4312   3.713   5.556   3.986 -0.0077 -0.0110 -0.1803
  334POPC   GL2 4313   3.679   5.457   4.332 -0.2689 -0.0982 -0.0295
  334POPC   C1A 4314   4.145   5.546   4.204  0.1135 -0.1130 -0.1433
  334POPC   D2A 4315   4.407   5.418   4.463  0.2156  0.0087 -0.2046
  334POPC   C3A 4316   4.798   5.560   4.414 -0.1230  0.1251 -0.3362
  334POPC   C4A 4317   5.264   5.664   4.469 -0.0239  0.0601 -0.3710
  334POPC   C1B 4318   3.710   5.293   4.762 -0.0989 -0.2049  0.0001
  334POPC   C2B 4319   3.759   5.266   5.310  0.1864 -0.0688  0.0496
  334POPC   C3B 4320   3.787   5.590   5.569  0.0001  0.3215 -0.0334
  334POPC   C4B 4321   3.860   5.870   5.763  0.1675  0.1620 -0.0022
  335POPC   NC3 4322   7.028   1.856   3.991 -0.0992 -0.4196 -0.0503
  335POPC   PO4 4323   6.747   1.594   3.996  0.2650 -0.0231 -0.1942
  335POPC   GL1 4324   6.655   1.574   4.383 -0.0500 -0.0971  0.4914
  335POPC   GL2 4325   6.708   1.893   4.434 -0.0091 -0.2435 -0.1108
  335POPC   C1A 4326   6.848   1.555   4.827 -0.2277 -0.1658 -0.0812
  335POPC   D2A 4327   6.737   1.911   5.145  0.1478  0.0646  0.0023
  335POPC   C3A 4328   6.544   1.771   5.566  0.1686  0.1851 -0.2612
  335POPC   C4A 4329   6.172   1.692   5.705  0.1278 -0.1375  0.2471
  335POPC   C1B 4330   6.873   2.233   4.815 -0.2403 -0.0021 -0.0441
  335POPC   C2B 4331   7.291   2.460   4.869  0.0635  0.0646  0.0395
  335POPC   C3B 4332   7.555   2.517   5.148  0.0061 -0.0756  0.1485
  335POPC   C4B 4333   7.781   2.655   5.512  0.2114  0.0551 -0.1598
  336POPC   NC3 4334   1.458   7.611   3.827  0.1225  0.0666 -0.1946
  336POPC   PO4 4335   1.086   7.358   4.005 -0.0068  0.1375 -0.0668
  336POPC   GL1 4336   1.006   7.637   4.307  0.1300 -0.1421 -0.0053
  336POPC   GL2 4337   1.344   7.749   4.356 -0.0682 -0.0763  0.0647
  336POPC   C1A 4338   0.886   7.906   4.546  0.3613 -0.0744 -0.0154
  336POPC   D2A 4339   0.970   8.075   5.011  0.4963 -0.2484  0.2416
  336POPC   C3A 4340   0.775   8.366   5.173 -0.3821 -0.3190  0.1506
  336POPC   C4A 4341   0.591   8.508   5.541 -0.1857  0.0289 -0.1287
  336POPC   C1B 4342   1.267   7.636   4.802  0.1922  0.1348 -0.2412
  336POPC   C2B 4343   1.144   7.534   5.172 -0.0116 -0.3082  0.0469
  336POPC   C3B 4344   1.010   7.255   5.498 -0.2058  0.1001  0.2746
  336POPC   C4B 4345   0.757   7.078   5.832 -0.0947  0.2297  0.1966
  337POPC   NC3 4346   1.182   2.469   3.423  0.1139  0.0595 -0.2568
  337POPC   PO4 4347   1.381   2.314   3.784 -0.0199  0.1731  0.2215
  337POPC   GL1 4348   1.595   2.410   4.114  0.0330  0.0983 -0.1077
  337POPC   GL2 4349   1.892   2.340   4.284 -0.0823  0.2518  0.0013
  337POPC   C1A 4350   1.612   2.588   4.523 -0.2401 -0.2274 -0.1007
  337POPC   D2A 4351   1.491   2.759   4.947  0.0572  0.0776  0.0422
  337POPC   C3A 4352   1.718   2.522   5.365 -0.4032 -0.0476 -0.0260
  337POPC   C4A 4353   1.838   2.500   5.778 -0.0186  0.2995 -0.1146
  337POPC   C1B 4354   2.127   2.694   4.438  0.0956  0.0863 -0.0868
  337POPC   C2B 4355   2.011   2.814   4.844 -0.0166  0.1412  0.1375
  337POPC   C3B 4356   1.905   2.964   5.254 -0.0564 -0.2064  0.1551
  337POPC   C4B 4357   2.065   3.317   5.462  0.0480 -0.0518 -0.0324
  338POPC   NC3 4358   4.569   6.953   3.902  0.3295  0.0287  0.1622
  338POPC   PO4 4359   4.789   6.651   4.076  0.0285  0.0738 -0.2824
  338POPC   GL1 4360   4.772   6.873   4.406 -0.2354 -0.1607 -0.1805
  338POPC   GL2 4361   4.865   7.116   4.402 -0.0388  0.0650 -0.0367
  338POPC   C1A 4362   5.172   6.907   4.664 -0.0877  0.1038  0.1371
  338POPC   D2A 4363   5.485   6.765   4.989 -0.1476  0.0708  0.1312
  338POPC   C3A 4364   5.948   6.689   4.822  0.2243  0.2633 -0.3237
  338POPC   C4A 4365   6.287   6.510   4.832  0.0730 -0.0287 -0.2087
  338POPC   C1B 4366   4.894   7.204   4.952  0.3316  0.0927  0.0145
  338POPC   C2B 4367   4.840   7.222   5.334  0.1811 -0.0062  0.1493
  338POPC   C3B 4368   4.706   7.264   5.770 -0.0495  0.2364  0.0298
  338POPC   C4B 4369   4.658   7.020   6.216 -0.1219  0.3971 -0.2496
  339POPC   NC3 4370   9.598   7.947   3.473  0.1296 -0.3995  0.0022
  339POPC   PO4 4371   9.208   7.916   3.738  0.2371 -0.2988  0.0880
  339POPC   GL1 4372   9.306   7.853   4.251 -0.3902 -0.2840 -0.2381
  339POPC   GL2 4373   9.370   7.504   4.378 -0.2952  0.1074 -0.3509
  339POPC   C1A 4374   9.283   7.996   4.754 -0.0531 -0.3861  0.0731
  339POPC   D2A 4375   9.236   7.862   5.168  0.1675 -0.0370  0.1745
  339POPC   C3A 4376   9.620   7.555   5.225  0.1080 -0.4169 -0.0969
  339POPC   C4A 4377  10.031   7.309   5.381 -0.1532 -0.1462  0.0702
  339POPC   C1B 4378   9.206   7.440   4.821 -0.1152  0.2873  0.2112
  339POPC   C2B 4379   8.912   7.656   4.942  0.0407 -0.0697  0.0381
  339POPC   C3B 4380   8.569   7.858   5.291  0.2390 -0.1742 -0.0536
  339POPC   C4B 4381   8.204   7.729   5.422  0.4295  0.2158 -0.0484
  340POPC   NC3 4382   3.231   2.260   3.664  0.0467  0.0042  0.2465
  340POPC   PO4 4383   3.181   2.091   3.977  0.1400 -0.1814 -0.1605
  340POPC   GL1 4384   3.074   2.076   4.386 -0.0264 -0.3578 -0.1637
  340POPC   GL2 4385   2.898   2.352   4.434  0.0295 -0.1048  0.1284
  340POPC   C1A 4386   3.229   1.798   4.724  0.0332 -0.0075  0.0402
  340POPC   D2A 4387   3.256   1.725   5.058 -0.0308  0.2971 -0.1187
  340POPC   C3A 4388   2.900   1.833   5.412  0.2894  0.0715 -0.1206
  340POPC   C4A 4389   2.749   2.074   5.753  0.0276  0.2003  0.1781
  340POPC   C1B 4390   2.930   2.532   4.771 -0.0437 -0.2941  0.0670
  340POPC   C2B 4391   2.970   2.555   5.323  0.1334 -0.0365  0.3527
  340POPC   C3B 4392   2.858   2.646   5.752 -0.0932  0.1991  0.1443
  340POPC   C4B 4393   2.465   2.573   5.850  0.0746 -0.4086  0.1841
  341POPC   NC3 4394   3.431   0.586   3.117  0.0125 -0.0922  0.1970
  341POPC   PO4 4395   3.370   0.434   3.540  0.1635 -0.0972 -0.4109
  341POPC   GL1 4396   3.536   0.203   4.001  0.2003 -0.1758 -0.3399
  341POPC   GL2 4397   3.445   0.378   4.251  0.1500 -0.1650 -0.1408
  341POPC   C1A 4398   3.759  -0.060   4.341  0.0565  0.2425 -0.2962
  341POPC   D2A 4399   3.747  -0.143   4.699  0.1313 -0.2020  0.3847
  341POPC   C3A 4400   3.880   0.060   5.001 -0.3189  0.0563  0.1990
  341POPC   C4A 4401   3.881   0.456   5.066 -0.3097  0.0793 -0.1533
  341POPC   C1B 4402   3.491   0.252   4.665 -0.4522 -0.2019  0.2316
  341POPC   C2B 4403   3.251   0.293   4.967 -0.0952  0.1247  0.2977
  341POPC   C3B 4404   3.042   0.406   5.339  0.1065 -0.0759 -0.3412
  341POPC   C4B 4405   2.780   0.466   5.711  0.0466  0.0924  0.1062
  342W        W 4406   6.541   9.934   0.988  0.0333 -0.1073  0.2040
  343W        W 4407   1.874   1.395   9.134 -0.1859 -0.3942 -0.0646
  344W        W 4408   5.588  10.282  11.347  0.2054 -0.1240 -0.1108
  345W        W 4409   2.840   0.376   8.236  0.1285 -0.0247  0.1100
  346W        W 4410   9.511   0.285   2.852 -0.2131 -0.1043 -0.3665
  347W        W 4411   6.534   5.544   3.596 -0.0042  0.1638  0.1265
  348W        W 4412   6.097   0.312   8.641 -0.0595  0.0372  0.2201
  349W        W 4413   3.861   8.477   0.208  0.0476 -0.1185 -0.2145
  350W        W 4414   5.811   5.792  11.480  0.1516 -0.1875 -0.0989
  351W        W 4415   6.795   7.005  10.610 -0.0304  0.0544  0.0504
  352W        W 4416   0.784   0.419   2.502  0.3891  0.1882  0.0139
  353W        W 4417   2.398   9.180   8.768  0.0524  0.0223  0.2490
  354W        W 4418   1.698   5.694   2.130 -0.2888  0.2434 -0.0978
  355W        W 4419   7.450   6.279  10.080 -0.3423  0.2080  0.4233
  356W        W 4420   1.428   3.282   2.384 -0.1403 -0.3771 -0.1854
  357W        W 4421   4.815   6.295   1.242 -0.0879  0.2752 -0.2537
  358W        W 4422   6.579   7.384   0.213 -0.0528 -0.1164 -0.2360
  359W        W 4423   3.474   4.871   9.660  0.1269 -0.3350 -0.1704
  360W        W 4424   4.744   9.186   3.545  0.3168  0.1435 -0.2973
  361W        W 4425   8.485   8.231   1.925 -0.0295 -0.3474  0.2347
  362W        W 4426   6.346   5.357   9.359 -0.0683  0.0661  0.1216
  363W        W 4427   3.600   8.031   0.316  0.3274 -0.2658 -0.0232
  364W        W 4428   0.086   4.866   9.272  0.0574 -0.1867 -0.1760
  365W        W 4429   5.626  10.197   2.051 -0.1289 -0.0616  0.2176
  366W        W 4430   8.271   9.693   2.154 -0.0363  0.2152  0.0029
  367W        W 4431   6.943   4.435   9.996 -0.2649  0.0403  0.0343
  368W        W 4432  10.610   7.550   8.796  0.1146  0.0620  0.3781
  369W        W 4433   9.742   2.036   0.127  0.1131  0.0818 -0.1698
  370W        W 4434   5.137   1.020   2.395  0.1454  0.1389  0.2851
  371W        W 4435   7.572  10.217   3.999  0.3069 -0.0143 -0.1251
  372W        W 4436   8.969   8.860  11.450  0.0992 -0.0571 -0.3000
  373W        W 4437   4.354   9.614   1.262 -0.2839  0.0419 -0.1364
  374W        W 4438   3.984   8.471   1.682  0.2729 -0.2439  0.1625
  375W        W 4439   8.036   1.299  10.986 -0.0785  0.2042  0.0622
  376W        W 4440   9.573  10.486  11.505  0.3992 -0.0714 -0.0056
  377W        W 4441   6.500   6.565  10.941  0.0529  0.0419  0.1024
  378W        W 4442   9.236   9.664   1.647 -0.4176  0.0148 -0.1206
  379W        W 4443   3.758   8.578   1.207 -0.2578 -0.1970 -0.1854
  380W        W 4444   9.704   5.646   9.534 -0.0141  0.2566  0.0649
  381W        W 4445   2.483   9.512   9.163 -0.3617 -0.1056  0.1700
  382W        W 4446   3.573   8.986   8.004 -0.3932 -0.1219  0.0208
  383W        W 4447   2.902   0.172   0.105 -0.0701 -0.0110  0.0916
  384W        W 4448   5.535   5.848  10.129 -0.2536  0.2260 -0.3753
  385W        W 4449   1.393   2.924   0.220 -0.0740  0.2602 -0.3806
  386W        W 4450   0.283  10.423   0.354  0.0774  0.2963 -0.0663
  387W        W 4451   7.191   3.193   1.596 -0.0145  0.0830  0.1174
  388W        W 4452   6.106   3.700   0.935 -0.0428 -0.0851 -0.2608
  389W        W 4453   5.697   5.718   0.399 -0.2414 -0.0108  0.1712
  390W        W 4454   8.715   1.339  10.188  0.1686  0.1026 -0.4620
  391W        W 4455  10.320   3.690  10.956 -0.1042  0.1178 -0.0668
  392W        W 4456   9.198   8.203   8.924  0.2087  0.0340  0.0825
  393W        W 4457   1.592   2.535  11.450 -0.1448 -0.2753  0.1193
  394W        W 4458   0.426   3.665   9.021 -0.1568 -0.4655  0.0497
  395W        W 4459   5.246   8.604   8.617  0.2322 -0.0645 -0.2599
  396W        W 4460   8.358   6.702   9.916  0.0003  0.1701 -0.2708
  397W        W 4461   4.616   7.821   8.860  0.2006  0.3123 -0.2912
  398W        W 4462   5.244   5.785   3.141 -0.1685 -0.1313 -0.0506
  399W        W 4463   3.078   7.304   1.102  0.0984  0.0632  0.2102
  400W        W 4464   3.610   7.519  10.597 -0.1657 -0.0421  0.2413
  401W        W 4465  10.521   0.696   9.940  0.3841 -0.2391 -0.1334
  402W        W 4466   9.534   3.629   9.152  0.0210  0.2382 -0.0555
  403W        W 4467   5.529   2.778   0.924 -0.0110  0.1165 -0.0904
  404W        W 4468   0.355   9.648   2.411 -0.0539  0.1679  0.1962
  405W        W 4469   0.721   6.198   2.357 -0.2470  0.0633 -0.3005
  406W        W 4470   8.802   7.667   0.172 -0.1232 -0.1306 -0.0831
  407W        W 4471   7.426   7.876   2.823 -0.0689  0.1804  0.2699
  408W        W 4472   3.369   3.257   3.451 -0.0424  0.0026 -0.0916
  409W        W 4473   4.835   0.805   8.259  0.1828 -0.0893 -0.0371
  410W        W 4474   1.690   9.895   3.064  0.1515 -0.5533  0.4313
  411W        W 4475   1.120  10.326   1.032 -0.1264 -0.1208  0.1247
  412W        W 4476   8.506   3.210   0.559 -0.0107  0.0595  0.0856
  413W        W 4477   4.944   0.477   0.982 -0.3188  0.1844 -0.0068
  414W        W 4478   5.361   5.293  10.736  0.1264 -0.1160  0.2910
  415W        W 4479   4.701  10.309   2.418 -0.3605  0.0824 -0.3051
  416W        W 4480   5.059   7.053   0.885 -0.1072  0.2882  0.0554
  417W        W 4481   7.104   2.631   2.910  0.2269 -0.1012 -0.2057
  418W        W 4482   1.732   8.667   3.253  0.1031  0.0259  0.4049
  419W        W 4483   6.991   7.741   0.234 -0.1052  0.1818 -0.0203
  420W        W 4484   8.335  10.655  10.551 -0.1067  0.0192  0.3577
  421W        W 4485   9.920  10.134  11.551 -0.0209 -0.2479 -0.0653
  422W        W 4486   5.867   9.463   1.388 -0.1187 -0.1884 -0.0278
  423W        W 4487   8.862   2.990  10.131  0.0548 -0.0835 -0.0058
  424W        W 4488   8.081   6.446   1.279 -0.0125 -0.2144 -0.1643
  425W        W 4489   7.600   9.577   9.540  0.1040  0.3466  0.0051
  426W        W 4490   0.249   7.233   2.129 -0.0875  0.2635 -0.4845
  427W        W 4491   2.849   4.040   0.664 -0.0815  0.1759  0.0293
  428W        W 4492   8.965   5.581   8.698  0.2495 -0.2807  0.1099
  429W        W 4493   4.961   0.338   3.864 -0.4669  0.1890 -0.1002
  430W        W 4494   4.588   9.682  10.311 -0.0839  0.0120  0.0314
  431W        W 4495   4.073   6.203  11.112  0.0604 -0.3447  0.1267
  432W        W 4496   2.716   8.194   4.260  0.2220  0.3149  0.3802
  433W        W 4497   3.761   6.746   9.814 -0.2745 -0.0353  0.1225
  434W        W 4498   3.222   3.832  11.215  0.0128  0.1891 -0.2121
  435W        W 4499   5.750   9.092   4.055 -0.1215  0.0804  0.0812
  436W        W 4500  10.658   5.292   2.391 -0.0869 -0.1503  0.1720
  437W        W 4501   5.641   0.498   3.250 -0.0302 -0.1347 -0.2201
  438W        W 4502   7.043   3.639  10.394  0.1439 -0.1993  0.1119
  439W        W 4503  10.046   0.623   7.886  0.1850  0.2574  0.1188
  440W        W 4504   1.277   1.930   8.204  0.3101 -0.0798 -0.1141
  441W        W 4505   7.704   8.933  10.592  0.5034  0.2116 -0.1290
  442W        W 4506   2.337   7.542   9.979  0.1137 -0.2346 -0.0470
  443W        W 4507   8.358   6.966   9.063 -0.1123  0.2081  0.4346
  444W        W 4508   8.482   9.762  10.677 -0.0554 -0.0352  0.0468
  445W        W 4509   1.812   0.416   2.820 -0.1556 -0.0919 -0.4244
  446W        W 4510   2.863   8.402   9.072  0.0500 -0.0446  0.0974
  447W        W 4511   6.363   3.532   3.974 -0.0378  0.2048 -0.4379
  448W        W 4512   3.027   8.028   7.944  0.1044 -0.1892  0.2158
  449W        W 4513  10.378   2.787  10.290  0.0278 -0.0996 -0.1737
  450W        W 4514   0.890   2.979   1.101  0.0792 -0.1058  0.2503
  451W        W 4515   4.474   8.337   1.305 -0.4729 -0.0578 -0.3541
  452W        W 4516   3.932   3.954   2.306  0.3092 -0.1860  0.1436
  453W        W 4517   7.339   1.657   1.544 -0.0425 -0.0027  0.2874
  454W        W 4518   6.131   8.878   2.667  0.1276  0.0118 -0.3681
  455W        W 4519   5.677   1.682  10.202  0.0880 -0.1847 -0.2089
  456W        W 4520   0.632   0.204  10.027  0.1809 -0.0270 -0.0242
  457W        W 4521   2.050   6.110   8.852  0.0589 -0.0186 -0.0251
  458W        W 4522  10.407   1.134  11.137 -0.2589  0.2443  0.0732
  459W        W 4523   3.313   7.081   1.505 -0.2219 -0.0089  0.2758
  460W        W 4524   2.959   4.657   2.720 -0.0496  0.0849  0.1846
  461W        W 4525   9.260   8.603   9.330 -0.1329 -0.1662  0.2634
  462W        W 4526   9.727   9.311  10.425 -0.1658 -0.1736  0.1311
  463W        W 4527   9.817   7.309   1.231 -0.0313  0.1279  0.0347
  464W        W 4528   0.275   6.458  11.035 -0.5306  0.0905  0.0982
  465W        W 4529   1.780   3.663   0.531 -0.4640 -0.3367 -0.0475
  466W        W 4530   0.357   3.138   9.657  0.2275  0.1980  0.1753
  467W        W 4531   1.897   6.664   8.014  0.1047 -0.3248  0.5548
  468W        W 4532   4.229   6.844  10.125 -0.0583  0.2382 -0.0843
  469W        W 4533   5.382   2.499   2.210  0.3555 -0.0716  0.2556
  470W        W 4534   4.829   7.452   4.044 -0.1921 -0.1394 -0.1028
  471W        W 4535   5.147   9.066   0.070  0.0678  0.1919  0.1466
  472W        W 4536   6.025   4.701   9.834  0.0943  0.2017 -0.2011
  473W        W 4537   8.459   2.485   2.975 -0.1291  0.2468 -0.1332
  474W        W 4538  10.182   6.936   4.193 -0.1463 -0.1519  0.1697
  475W        W 4539   5.780   1.963  11.382 -0.1457 -0.2376 -0.1338
  476W        W 4540   4.626   9.016   8.452 -0.0570  0.1439 -0.3010
  477W        W 4541   7.432   9.257  10.027  0.1832 -0.2129 -0.1532
  478W        W 4542   0.320   0.069   9.008 -0.2626  0.1395  0.2603
  479W        W 4543   8.684   2.039  10.936  0.0561  0.0464  0.0865
  480W        W 4544   2.910   1.755   3.032 -0.0524  0.1799 -0.0252
  481W        W 4545   0.412   5.482  10.937 -0.3831 -0.1581 -0.0316
  482W        W 4546   4.590   1.377   1.736 -0.0474 -0.0281  0.0900
  483W        W 4547   5.598   1.700   1.070  0.0741 -0.0088  0.1317
  484W        W 4548   4.930   0.149   1.354  0.0887  0.1699 -0.1138
  485W        W 4549   0.218   6.329   2.714  0.1352  0.4122 -0.0375
  486W        W 4550   7.707  10.567  10.814 -0.0312 -0.2310 -0.1585
  487W        W 4551   5.808   4.135   1.671  0.4243  0.0978 -0.2261
  488W        W 4552   4.038   2.548   3.395 -0.2725 -0.0106  0.1367
  489W        W 4553   3.302   4.465   1.831  0.1896 -0.0189  0.0234
  490W        W 4554   5.281   3.115   9.585  0.0499  0.0744  0.1866
  491W        W 4555   0.202   1.775   3.312 -0.4411  0.1569  0.0479
  492W        W 4556   9.434   9.775  10.904 -0.1149 -0.0947  0.0485
  493W        W 4557   5.846   2.153   1.390 -0.3274  0.1287 -0.2660
  494W        W 4558   7.614   2.784   2.852  0.0070 -0.0096  0.1608
  495W        W 4559   5.601   1.034  10.933 -0.1995 -0.2795 -0.1271
  496W        W 4560   4.672   5.802   3.495 -0.3329  0.1655 -0.3687
  497W        W 4561   0.437   2.570  10.787  0.4385 -0.0643  0.0050
  498W        W 4562   2.559   8.192   8.638  0.1103 -0.0923  0.1104
  499W        W 4563   3.972   1.409   4.351  0.0806 -0.3045 -0.0399
  500W        W 4564   2.624   7.853  10.327 -0.0029 -0.1544  0.0321
  501W        W 4565   6.835   3.871   9.886  0.2161 -0.0505  0.1080
  502W        W 4566   6.294   0.686   1.113 -0.0238  0.2618 -0.1180
  503W        W 4567   9.717   1.419   7.875  0.0337 -0.0990 -0.0225
  504W        W 4568   9.345  10.513  10.267 -0.0128 -0.0414 -0.0316
  505W        W 4569   1.739   2.590  10.423 -0.4845 -0.2380 -0.0290
  506W        W 4570   6.457   6.722   0.811 -0.3843 -0.1501 -0.3012
  507W        W 4571   5.157   5.993   7.203  0.0757  0.2555  0.1122
  508W        W 4572   0.690   9.717   2.786 -0.2589  0.1286 -0.2854
  509W        W 4573   8.657   2.752   8.752 -0.2084  0.0650 -0.1667
  510W        W 4574   8.999   9.626  11.316 -0.0280 -0.0037  0.2524
  511W        W 4575   1.305   9.332   1.248  0.0450  0.3223  0.2181
  512W        W 4576   2.621   2.956  10.396  0.0055 -0.2145  0.2181
  513W        W 4577   0.494   8.872   1.711  0.0522  0.1442 -0.1959
  514W        W 4578   5.503   9.575   2.654 -0.3686 -0.1409 -0.1058
  515W        W 4579   3.058   7.598   3.457 -0.0011  0.0361 -0.0254
  516W        W 4580   3.124   4.688  10.854  0.2740  0.0446 -0.3825
  517W        W 4581   7.724   9.385  10.404  0.1333 -0.2074 -0.1063
  518W        W 4582   1.985   3.567  10.405  0.2098  0.2121  0.0808
  519W        W 4583   3.540   5.800  10.487 -0.1133  0.1256  0.0569
  520W        W 4584   6.544   6.635  11.429  0.1707  0.0983  0.1863
  521W        W 4585   7.420   2.668  11.336  0.1928 -0.0276 -0.2108
  522W        W 4586   4.079   1.220   0.534 -0.0959  0.3402 -0.4653
  523W        W 4587   5.589   3.829   0.174 -0.1087  0.0286 -0.0349
  524W        W 4588   9.123   1.482   2.122  0.1968 -0.0501 -0.4170
  525W        W 4589   8.405   9.762   1.052 -0.0293 -0.2141 -0.0097
  526W        W 4590   0.600   0.339   3.024 -0.0051 -0.0556  0.0267
  527W        W 4591   5.772   4.361   9.329  0.1938  0.0000  0.3279
  528W        W 4592   4.981   7.564  10.067  0.1185  0.1061  0.1573
  529W        W 4593   1.587   8.631   2.176  0.0876 -0.3141 -0.2258
  530W        W 4594   5.047   1.292   9.160  0.3836 -0.3145  0.2345
  531W        W 4595   6.931   7.277   7.858 -0.1063 -0.2078  0.1538
  532W        W 4596   9.684  10.436  10.591 -0.0375 -0.0334  0.1319
  533W        W 4597   7.189   6.894   2.065 -0.2062 -0.0159 -0.0018
  534W        W 4598   7.545   7.613   9.032  0.0140  0.0142 -0.1378
  535W        W 4599   4.763  10.406   1.926 -0.0062  0.1363  0.0736
  536W        W 4600   5.492   9.582   0.153  0.3934  0.0634 -0.1529
  537W        W 4601   7.485   1.551   1.089 -0.2870 -0.1742 -0.1537
  538W        W 4602   2.455   7.617  11.054 -0.0738 -0.1536  0.0153
  539W        W 4603   7.606   6.309  11.174 -0.3439  0.1173  0.0410
  540W        W 4604   5.804   7.819  10.107 -0.1727 -0.0475  0.1120
  541W        W 4605   9.569   8.342   1.813  0.0594 -0.3679  0.0751
  542W        W 4606   5.513   7.827   4.490 -0.1964  0.2207  0.3279
  543W        W 4607   9.269   3.582   3.491  0.2431 -0.2872 -0.3011
  544W        W 4608   7.687   7.351   2.779 -0.0927  0.1764 -0.1020
  545W        W 4609   4.059   9.287   8.693 -0.1510  0.1143  0.0092
  546W        W 4610   1.346   9.444   8.560 -0.1020 -0.0163  0.0850
  547W        W 4611   9.965   9.856   0.426 -0.0475  0.1505  0.0041
  548W        W 4612   3.038   3.840   0.223  0.0333  0.0837 -0.2878
  549W        W 4613   8.250   3.699  11.357  0.2465 -0.2916  0.0588
  550W        W 4614   2.103  10.036   0.363  0.0152 -0.0335 -0.0326
  551W        W 4615   5.031   9.773  10.026  0.2923 -0.0088 -0.2628
  552W        W 4616   7.261   4.537   4.418  0.0922  0.1106 -0.3358
  553W        W 4617   9.012   9.826   2.777  0.1836 -0.2650  0.3806
  554W        W 4618   7.103   5.613   1.863 -0.0591  0.0566  0.3728
  555W        W 4619   5.456   1.340   8.777 -0.0097  0.0365  0.0111
  556W        W 4620   1.751   5.407   9.990  0.1132 -0.2649  0.2213
  557W        W 4621   8.052   4.678   0.573 -0.0196 -0.1164  0.1464
  558W        W 4622   6.253   8.426   9.739 -0.3248 -0.0225  0.0606
  559W        W 4623   2.624   1.800   9.320  0.1603  0.0973 -0.0036
  560W        W 4624   6.362   8.179   1.806 -0.1979  0.1867 -0.2929
  561W        W 4625   5.017   7.373  11.468  0.0471  0.1631 -0.1106
  562W        W 4626  10.141   9.921   2.178  0.1398  0.2777  0.0413
  563W        W 4627   5.582   6.368   0.838 -0.2126  0.0251  0.0014
  564W        W 4628   9.149   5.666   2.714 -0.1269 -0.0308  0.2473
  565W        W 4629   2.810   9.274   8.210  0.5023  0.0070  0.1841
  566W        W 4630   8.771   1.436   2.499 -0.3275 -0.1798 -0.1754
  567W        W 4631   4.601   8.444   9.908 -0.0204  0.1895  0.3555
  568W        W 4632   8.511   6.073   8.936 -0.0918 -0.0014 -0.1613
  569W        W 4633  10.331   9.728   0.729 -0.1889 -0.2207 -0.2303
  570W        W 4634   5.527   8.215  11.418  0.0742 -0.1334 -0.1034
  571W        W 4635   2.674   7.270   3.871  0.1180 -0.0852 -0.0331
  572W        W 4636   2.403   8.000   2.022 -0.5193 -0.4205 -0.1386
  573W        W 4637   1.210  10.074   1.904 -0.0679 -0.0782 -0.0371
  574W        W 4638   0.652   9.989   1.989  0.2150  0.4365 -0.1892
  575W        W 4639   3.000   9.823   8.018  0.1598 -0.1010 -0.0925
  576W        W 4640   7.304   1.508   3.811 -0.0128  0.0541 -0.2941
  577W        W 4641   5.263   7.158   3.326 -0.2461 -0.0686 -0.4996
  578W        W 4642   0.768   9.991   1.499 -0.1127 -0.1898  0.1372
  579W        W 4643   1.863   5.557   8.986 -0.0448 -0.0362 -0.0557
  580W        W 4644   5.175   8.182   8.175 -0.0383 -0.0733 -0.0701
  581W        W 4645   8.223   8.958   8.880  0.0022 -0.1017  0.1333
  582W        W 4646   7.396   4.835   8.646  0.0529  0.0929  0.0190
  583W        W 4647   7.749   8.561   9.675 -0.3656  0.0619  0.0910
  584W        W 4648  10.279   2.358   2.631  0.1685 -0.1401 -0.0298
  585W        W 4649   8.084  10.427  10.170  0.3012 -0.2193 -0.0008
  586W        W 4650   6.534   0.977   0.501 -0.0629 -0.0452 -0.1938
  587W        W 4651   7.106   7.795   9.954  0.0384 -0.0906 -0.4067
  588W        W 4652   2.815   2.157   2.667  0.0169  0.1225  0.0602
  589W        W 4653   3.304   9.237   8.964  0.0779  0.0083 -0.2503
  590W        W 4654   8.072   4.659   2.597 -0.3411 -0.1478 -0.1280
  591W        W 4655   3.168   3.588   8.562 -0.0686  0.2458 -0.1064
  592W        W 4656   8.025   1.467   1.233  0.2257  0.0323  0.0830
  593W        W 4657   3.934   4.361  10.888  0.0855  0.0149  0.3102
  594W        W 4658   4.932   3.228   9.882 -0.1082 -0.4264  0.0586
  595W        W 4659   7.079   5.789   7.758  0.1457 -0.0469 -0.0679
  596W        W 4660   0.078   4.714  11.035  0.1534 -0.0006 -0.0884
  597W        W 4661   2.449   1.132  10.032  0.0577 -0.1324 -0.0035
  598W        W 4662  10.619   2.312  11.020  0.0614  0.4427 -0.0745
  599W        W 4663  10.554   2.514   0.909 -0.0054  0.1474 -0.0860
  600W        W 4664   5.889   7.228   9.605  0.1011  0.0648 -0.3197
  601W        W 4665   4.145   2.380   2.482 -0.0728  0.1065 -0.0553
  602W        W 4666   1.141   4.746  11.004  0.0470 -0.2951 -0.0343
  603W        W 4667   2.783   4.312   2.329 -0.0846 -0.1018  0.1482
  604W        W 4668   9.029   0.478   2.027 -0.3353  0.0051 -0.1193
  605W        W 4669   5.783   0.782   1.257  0.1347 -0.1257 -0.2746
  606W        W 4670   9.135   6.520   8.576  0.1969  0.0364  0.1140
  607W        W 4671   6.807   4.247   2.378 -0.1966  0.0272 -0.0184
  608W        W 4672   8.658   6.327   8.593  0.2499  0.0511 -0.0162
  609W        W 4673   4.450   7.928   1.696 -0.1973 -0.0716  0.1323
  610W        W 4674   1.026  10.649  11.302 -0.0498 -0.0192 -0.1856
  611W        W 4675   5.966   5.851  10.779 -0.1340 -0.2433 -0.0811
  612W        W 4676   6.401   0.064   8.997 -0.3623 -0.1155 -0.0708
  613W        W 4677   6.172   1.747   9.741 -0.0312 -0.3999 -0.1020
  614W        W 4678   0.470   9.125   0.658  0.1060 -0.2632  0.2153
  615W        W 4679   6.516   6.590   3.646  0.1018  0.0980  0.0131
  616W        W 4680  10.325   1.731  10.466  0.1557  0.0801 -0.3071
  617W        W 4681   3.534   9.777   2.360  0.1234  0.3589 -0.0068
  618W        W 4682   2.681   3.703  11.060  0.2878  0.0112 -0.3038
  619W        W 4683   7.836   1.278   0.768  0.2292 -0.1420 -0.2783
  620W        W 4684   0.554   1.312   9.955 -0.1263  0.0007  0.3175
  621W        W 4685   9.996   5.313   8.237  0.0113 -0.0873 -0.1775
  622W        W 4686   7.537   7.542   9.537  0.1988 -0.0994  0.1022
  623W        W 4687   0.392   8.090   2.945  0.0438 -0.1655  0.0020
  624W        W 4688   8.152   5.581   9.886  0.3128 -0.1363  0.1983
  625W        W 4689   9.675   1.852   8.301 -0.0061  0.1199 -0.0027
  626W        W 4690   7.782  10.126   8.742 -0.1559  0.1046 -0.0078
  627W        W 4691   3.245   5.677  10.890  0.0177 -0.2928  0.0131
  628W        W 4692   7.525   8.629   3.860 -0.2795 -0.1466 -0.0239
  629W        W 4693   1.314   5.819   0.940  0.0481 -0.0506 -0.1244
  630W        W 4694   4.746   7.442   9.648  0.1432 -0.2648 -0.3143
  631W        W 4695   9.196  10.563  11.219  0.2799  0.2349  0.0958
  632W        W 4696   1.660   2.549   0.462  0.2515 -0.1853 -0.0430
  633W        W 4697   2.429  10.083   2.003  0.0668 -0.2373 -0.2823
  634W        W 4698   2.697   7.431   0.708 -0.2069 -0.3164  0.0585
  635W        W 4699   0.527   1.435   9.051  0.2333  0.3259 -0.3683
  636W        W 4700   7.414   4.829   3.533 -0.3980  0.1095  0.0552
  637W        W 4701   6.675   0.299  11.468  0.0417 -0.1000 -0.0772
  638W        W 4702   7.822   6.329   0.237  0.1855  0.3635 -0.0052
  639W        W 4703   7.050   2.095   1.478 -0.1533  0.1415 -0.0488
  640W        W 4704   7.575   1.926   3.731  0.3467 -0.1577 -0.2192
  641W        W 4705   8.374   7.185   0.720 -0.1031 -0.1783  0.1949
  642W        W 4706   6.286   6.642   9.296 -0.0213 -0.2061  0.2250
  643W        W 4707  10.327   7.460  11.359  0.0235  0.1543 -0.1056
  644W        W 4708   9.021   5.356  11.546  0.2994  0.0343 -0.1457
  645W        W 4709   2.237   3.659  10.856 -0.0104 -0.2016 -0.1208
  646W        W 4710  10.500   7.617   0.749 -0.0341  0.0636 -0.1971
  647W        W 4711  10.317   2.538   9.163 -0.3467 -0.2593 -0.0147
  648W        W 4712   9.222   6.913   3.109  0.2671  0.0316 -0.0996
  649W        W 4713   8.612   4.662   2.547 -0.2816  0.2329 -0.0448
  650W        W 4714   1.369  10.541   9.072  0.1254 -0.2993  0.2958
  651W        W 4715   4.566   9.479   9.387  0.0686 -0.0725  0.3719
  652W        W 4716   9.799   8.756   9.297 -0.2472  0.1210 -0.1607
  653W        W 4717   7.888   4.691   8.884 -0.1454  0.0036  0.1873
  654W        W 4718   6.213   0.250   0.120 -0.0983 -0.1172 -0.1979
  655W        W 4719   7.551   0.337   3.419  0.4107  0.0283  0.0130
  656W        W 4720   8.803   1.190  11.180 -0.1320  0.3058 -0.3743
  657W        W 4721   3.324   3.620   1.276  0.1625  0.0059 -0.1818
  658W        W 4722   5.567   7.380   9.182 -0.0105  0.2163 -0.3031
  659W        W 4723   4.606   4.799   9.014 -0.2022 -0.0304  0.2940
  660W        W 4724   7.684  10.331   0.310  0.1069 -0.0344  0.0239
  661W        W 4725   4.441   1.162   2.239  0.2152 -0.2823 -0.1025
  662W        W 4726   2.028  10.057   8.879  0.1693  0.0896 -0.1537
  663W        W 4727   1.858   6.839   0.951  0.1221  0.1215 -0.2038
  664W        W 4728   3.121   4.607   4.035 -0.1885 -0.0311  0.0693
  665W        W 4729   1.234   1.513   3.221 -0.3272 -0.1670 -0.1173
  666W        W 4730   8.066  10.615   0.253 -0.1679 -0.0611 -0.1595
  667W        W 4731   7.467   4.401   7.391 -0.2044  0.3179 -0.1333
  668W        W 4732   6.641   9.187   9.606 -0.4080 -0.0858  0.0880
  669W        W 4733   9.088   6.971   0.310 -0.0055 -0.0729  0.1629
  670W        W 4734   3.927   0.980   9.191  0.1118  0.0186 -0.1577
  671W        W 4735   6.271   3.079   3.535 -0.0969  0.0190 -0.1723
  672W        W 4736   2.136   9.051   9.921 -0.3087  0.0725  0.2289
  673W        W 4737   1.228   6.979   1.268 -0.1869  0.2770 -0.0685
  674W        W 4738  10.509   2.971   1.781 -0.3063 -0.0285 -0.2249
  675W        W 4739   8.960   5.811   7.717 -0.1857  0.4416 -0.0791
  676W        W 4740   3.331   9.476   0.044  0.2674 -0.1896  0.1520
  677W        W 4741  10.059   1.934   0.583 -0.2089 -0.2009 -0.0792
  678W        W 4742   6.998   3.421   1.175 -0.1037 -0.0299  0.0632
  679W        W 4743   1.706   0.493  10.384  0.1595  0.2117 -0.0125
  680W        W 4744   9.634   1.030  10.598  0.1802 -0.4700 -0.0692
  681W        W 4745   1.184   8.986  11.150  0.2955 -0.0706 -0.1671
  682W        W 4746   0.683   6.456   2.837 -0.0690  0.2797 -0.0801
  683W        W 4747   3.623   6.191   9.156  0.0864  0.0999 -0.2198
  684W        W 4748   2.791   9.852   0.777  0.1345 -0.3210 -0.2514
  685W        W 4749   0.773   1.332   7.874 -0.1422  0.2612  0.2484
  686W        W 4750   7.189   4.594   0.440 -0.3494 -0.1439  0.0000
  687W        W 4751   3.485   7.078   2.796  0.0031  0.3134 -0.1567
  688W        W 4752   7.616   0.120   0.325 -0.0462  0.0451 -0.3295
  689W        W 4753  10.236   0.104   8.750  0.0032 -0.0512  0.0951
  690W        W 4754   5.523   1.879  10.950  0.3179  0.1144  0.1133
  691W        W 4755   7.189   3.084  11.059 -0.1622  0.2069 -0.2040
  692W        W 4756   2.325   0.499   8.292  0.2897  0.0640  0.3571
  693W        W 4757   8.418   2.331   9.382  0.2184 -0.1999 -0.1623
  694W        W 4758   1.617   5.205   9.558 -0.2190 -0.1468 -0.2663
  695W        W 4759   8.762   8.025   9.650  0.0978 -0.3183 -0.4129
  696W        W 4760   5.321   6.699   3.287 -0.1437  0.1056  0.0020
  697W        W 4761   5.761   5.011   2.921 -0.0723 -0.0962 -0.1155
  698W        W 4762   2.450   5.531   0.687 -0.0549 -0.0577  0.0983
  699W        W 4763   4.274   7.764   1.043 -0.3114  0.0403 -0.3694
  700W        W 4764   9.120   0.040   1.101  0.2305 -0.0807  0.1178
  701W        W 4765   6.366   8.408   7.365 -0.1408 -0.3504  0.0389
  702W        W 4766   9.514   8.402   3.629  0.0511  0.1108 -0.2968
  703W        W 4767   8.470   2.219   8.925 -0.2596 -0.2974  0.6317
  704W        W 4768   8.657   5.698   2.394  0.0376  0.0796  0.0945
  705W        W 4769   2.520   4.467   9.597 -0.0462  0.0196  0.0173
  706W        W 4770   3.016   9.318   4.085  0.2150 -0.2130  0.1469
  707W        W 4771   4.297   7.739   2.235 -0.1125  0.0381  0.1424
  708W        W 4772  10.663   9.613   0.287 -0.0989 -0.0203 -0.1816
  709W        W 4773   3.730   6.270   1.863 -0.0864  0.1068 -0.0816
  710W        W 4774  10.271   8.919   9.505  0.2323 -0.3633  0.2121
  711W        W 4775   6.285   7.059  10.655 -0.1229 -0.0615 -0.2224
  712W        W 4776   8.109   0.855   7.630  0.2973 -0.0055  0.1644
  713W        W 4777   1.331   3.390   3.028  0.2251 -0.3244  0.1913
  714W        W 4778   0.355   5.330   9.149  0.1064  0.0373 -0.4039
  715W        W 4779   3.412  10.382   8.929 -0.1833 -0.0649  0.0361
  716W        W 4780   2.267  10.559   2.007  0.0329 -0.1466  0.0278
  717W        W 4781   5.554   6.850   3.736 -0.0034 -0.3785  0.3240
  718W        W 4782   8.713   4.299   2.215  0.2489  0.1020 -0.3040
  719W        W 4783   4.961   8.114  10.158 -0.1532  0.3975  0.1796
  720W        W 4784   1.278   9.514   8.014 -0.0584  0.0495 -0.0523
  721W        W 4785   4.642   8.661   8.786  0.2444 -0.2206  0.3683
  722W        W 4786   0.868   4.409  11.230  0.3023 -0.3088  0.0298
  723W        W 4787  10.360   2.829   1.299  0.2336  0.1751  0.0051
  724W        W 4788   2.498   4.076   1.258  0.0844  0.0021  0.0217
  725W        W 4789   4.682  10.012  11.509 -0.0618 -0.1102  0.2129
  726W        W 4790   0.338   9.747   8.232  0.3203 -0.1807  0.0156
  727W        W 4791   5.929  10.403  10.903  0.0261 -0.0272  0.1034
  728W        W 4792   2.926   3.263   1.138 -0.1401 -0.0762  0.1669
  729W        W 4793   1.563   6.130   2.360 -0.1920 -0.1659  0.1926
  730W        W 4794   3.604   6.467  11.258 -0.2731 -0.0823  0.0253
  731W        W 4795  10.173   1.817   1.237 -0.0330  0.1133  0.3808
  732W        W 4796   4.774   7.965   9.729  0.1771  0.1373  0.1633
  733W        W 4797   1.021   8.724   1.894 -0.1491  0.1844  0.1888
  734W        W 4798   0.355   7.882   0.950 -0.1871  0.1351 -0.0034
  735W        W 4799   8.637   6.786   7.812 -0.3303  0.1486 -0.2759
  736W        W 4800   5.680   1.473  11.172 -0.3314 -0.2799 -0.0940
  737W        W 4801   3.601  10.546   0.815  0.0834  0.3279  0.1140
  738W        W 4802   6.801   3.701   1.613 -0.0822  0.3739  0.0476
  739W        W 4803   3.319   0.546   8.266  0.2916 -0.1072 -0.0962
  740W        W 4804   6.054   3.896   4.129 -0.3991 -0.0733 -0.1120
  741W        W 4805   1.678   2.103   2.476  0.0548 -0.1121 -0.1489
  742W        W 4806   9.392   1.979   2.117 -0.0821 -0.1335  0.0349
  743W        W 4807   5.696   6.940   9.247  0.1565  0.1992 -0.0640
  744W        W 4808   0.893   8.224   2.887 -0.3571  0.3225  0.0680
  745W        W 4809   2.758   4.189   3.555 -0.2661  0.0730  0.1439
  746W        W 4810  10.449   6.047   9.593 -0.1688  0.1850  0.4939
  747W        W 4811   4.414   3.829   1.964  0.0396 -0.0577  0.0474
  748W        W 4812   8.816   9.241   8.788 -0.0988  0.3300 -0.0091
  749W        W 4813   7.444   9.697   3.267 -0.1665  0.0145  0.1068
  750W        W 4814   5.906  10.412   2.878 -0.2991  0.2404  0.0238
  751W        W 4815   9.997   0.088  11.472 -0.1770 -0.0339 -0.0725
  752W        W 4816   0.505   0.127   0.969 -0.0977  0.1151 -0.2928
  753W        W 4817   5.723   5.035  10.069 -0.2020 -0.2835  0.0090
  754W        W 4818   4.496   0.828   1.882 -0.2091 -0.2517 -0.1839
  755W        W 4819   7.564   8.150   8.290  0.1560 -0.1252 -0.4732
  756W        W 4820   5.190   4.923   9.183  0.1319 -0.0362 -0.3048
  757W        W 4821   1.391   8.374   2.798  0.0970 -0.0809 -0.0337
  758W        W 4822   7.032   5.747   3.663 -0.3340  0.4016  0.1192
  759W        W 4823   7.200   8.959  10.380  0.2986  0.0147 -0.0368
  760W        W 4824   4.124   8.300   0.981  0.3974 -0.3492 -0.2372
  761W        W 4825   1.935   4.269   2.796 -0.0070  0.1071 -0.0104
  762W        W 4826   3.461   5.272  11.109 -0.4288  0.1210 -0.1808
  763W        W 4827   4.964  10.133   9.564 -0.0048 -0.2670  0.0424
  764W        W 4828   5.542  10.442   2.526  0.1285  0.0604 -0.0224
  765W        W 4829   0.619   9.726   3.900  0.0143  0.1935 -0.1045
  766W        W 4830   5.366   4.378   7.853 -0.1882  0.1678 -0.2478
  767W        W 4831   0.683   7.364   3.146 -0.2651  0.0765  0.1640
  768W        W 4832   2.837   1.937   1.192  0.2682 -0.0235 -0.0337
  769W        W 4833   7.519   3.977   0.242 -0.7382  0.1542 -0.0283
  770W        W 4834   8.081   1.983   7.969  0.0289 -0.0350  0.0628
  771W        W 4835   0.650   2.594   1.350  0.0440 -0.0724  0.3643
  772W        W 4836   7.677   3.302   1.727 -0.0827  0.0962 -0.0095
  773W        W 4837   7.929   5.421   2.206  0.1039  0.1915 -0.0106
  774W        W 4838   2.447   1.704   8.390 -0.2925 -0.0816  0.2907
  775W        W 4839   7.357   0.742   3.242  0.6075 -0.1224  0.2572
  776W        W 4840   9.744   6.855   2.576 -0.0584 -0.1157  0.3335
  777W        W 4841   1.666  10.019   1.855 -0.0286  0.0538 -0.2836
  778W        W 4842  10.312   9.850   8.799 -0.0919 -0.2106  0.3663
  779W        W 4843   3.818   8.976   3.877 -0.3481 -0.1973  0.1470
  780W        W 4844   9.823   3.048   0.306  0.0483  0.2255  0.0035
  781W        W 4845   1.172   2.982   7.977  0.0355  0.0419  0.2420
  782W        W 4846   5.961   5.196   9.668 -0.3326  0.0426 -0.0604
  783W        W 4847   9.580   0.974  11.488 -0.2183  0.2729 -0.2435
  784W        W 4848   6.995   5.975  10.130  0.0047  0.0432  0.1234
  785W        W 4849   1.436   6.841   3.112  0.0540  0.1513  0.2779
  786W        W 4850   6.599   8.170  10.652 -0.2891  0.0603 -0.7155
  787W        W 4851   9.729   8.816   1.367  0.2531 -0.0054  0.2927
  788W        W 4852   4.603   2.108   2.597 -0.2094 -0.1190  0.1725
  789W        W 4853   3.148   3.179   1.570 -0.0000  0.1246 -0.1142
  790W        W 4854   6.374   8.313   3.584  0.3119 -0.0056  0.0815
  791W        W 4855   2.014   3.456   0.083  0.0936 -0.1568  0.0418
  792W        W 4856  10.294   7.997   0.409 -0.3508  0.2056  0.1364
  793W        W 4857   9.252   5.031   3.258  0.1028 -0.0181 -0.0690
  794W        W 4858   2.965   7.196  11.035  0.2050  0.2366  0.0924
  795W        W 4859   8.049   5.490  11.411 -0.0874  0.1929 -0.1129
  796W        W 4860   0.519   5.069   9.536  0.2479  0.1966 -0.1431
  797W        W 4861   3.498   2.264   8.893 -0.3422  0.0040  0.2546
  798W        W 4862  10.213   8.982   7.664  0.0010  0.1097 -0.1564
  799W        W 4863   6.411   4.315   0.253  0.0656  0.2535  0.3280
  800W        W 4864   3.049   7.511   2.491 -0.0535  0.0740  0.0607
  801W        W 4865   6.680   9.220   1.416 -0.1115  0.0446 -0.1199
  802W        W 4866   0.147   3.074   0.490 -0.3406 -0.0290  0.0745
  803W        W 4867   3.170   6.976   2.363 -0.2900  0.0855 -0.0640
  804W        W 4868   6.377   8.114   8.326 -0.0374  0.4258  0.0017
  805W        W 4869   9.401   8.769  10.354 -0.1537 -0.0583 -0.1246
  806W        W 4870   1.720   7.838   2.827 -0.4759  0.0678 -0.1880
  807W        W 4871   8.821   7.694   3.362 -0.0683 -0.2226  0.1607
  808W        W 4872   5.554   4.774   1.951 -0.0289 -0.0148 -0.1736
  809W        W 4873   1.498   2.067   3.353 -0.1006 -0.0759 -0.0239
  810W        W 4874   5.704   1.079   3.629 -0.0193  0.1378 -0.5119
  811W        W 4875   2.979   5.012  11.209  0.2790  0.1841  0.0584
  812W        W 4876   1.067   2.351   9.538  0.0939 -0.1025 -0.1192
  813W        W 4877   1.890  10.256   2.261 -0.0113 -0.0452  0.0824
  814W        W 4878   7.098   7.604   2.537  0.0653  0.0415 -0.2577
  815W        W 4879   5.828  10.553   1.077 -0.1736  0.0753  0.0943
  816W        W 4880   5.647   2.050   3.274 -0.1450  0.0549 -0.1333
  817W        W 4881   0.502   9.429   1.549  0.1654  0.3438  0.1119
  818W        W 4882   7.908   2.445   3.106 -0.2236 -0.2096  0.2023
  819W        W 4883   6.273   7.276   1.647 -0.1302 -0.1024  0.1081
  820W        W 4884  10.156  10.202   9.597 -0.1415 -0.1880  0.3669
  821W        W 4885   7.142   9.577   2.251 -0.3048  0.3061  0.1630
  822W        W 4886   0.950   5.528   3.492 -0.2724  0.2755 -0.0392
  823W        W 4887   0.772   6.657   2.008  0.2298  0.0381  0.0466
  824W        W 4888   2.440   1.875   7.481 -0.2441  0.1169  0.3017
  825W        W 4889   8.789   0.555   9.839 -0.1480 -0.1633 -0.2395
  826W        W 4890   8.158   5.039  10.578 -0.2381 -0.1747 -0.3294
  827W        W 4891   5.084   3.040   2.404  0.0994  0.2249 -0.1514
  828W        W 4892   1.420   7.159   2.192  0.1338 -0.0297 -0.1495
  829W        W 4893   1.622   3.189   9.404  0.0882  0.1142  0.0047
  830W        W 4894   3.515   4.501   9.396 -0.0337  0.1933  0.0992
  831W        W 4895   9.046   2.463  10.910  0.1104  0.0603 -0.2027
  832W        W 4896   2.182   5.927   1.349 -0.0028 -0.3096 -0.1529
  833W        W 4897   2.392   4.447   2.638  0.0045 -0.0384 -0.0377
  834W        W 4898   8.367  10.233   8.122  0.3828  0.1841  0.0971
  835W        W 4899   7.333   6.398   0.419 -0.0824 -0.0120 -0.1627
  836W        W 4900   5.913   6.654  10.689  0.0211 -0.2418  0.0268
  837W        W 4901   1.894   2.157   0.796  0.0305  0.1770  0.0985
  838W        W 4902   7.030   5.664  10.516  0.3054 -0.2355 -0.1363
  839W        W 4903   7.236   0.589   2.031 -0.4559  0.2895 -0.0780
  840W        W 4904   2.575   5.320  11.032  0.2030  0.0171  0.3221
  841W        W 4905   8.171   7.025  11.201 -0.1968 -0.2837 -0.1179
  842W        W 4906  10.464   8.225   9.018  0.2987 -0.0256  0.1569
  843W        W 4907   6.693   0.998   1.222 -0.1692  0.0044 -0.0565
  844W        W 4908  10.184  10.201   0.741  0.0551 -0.0625  0.2359
  845W        W 4909   5.238   5.211   2.066 -0.2485  0.0574 -0.3724
  846W        W 4910   9.438   9.455  11.305  0.1665 -0.4050 -0.0961
  847W        W 4911  10.306   6.355   1.274  0.2724 -0.3003  0.2196
  848W        W 4912   0.293   7.953   8.841 -0.0336 -0.1524  0.0908
  849W        W 4913   2.119   3.781   0.962 -0.0594 -0.0864 -0.2764
  850W        W 4914   9.779   7.919   0.423  0.1840  0.1790  0.2206
  851W        W 4915   0.381   9.956   7.692 -0.0388 -0.1191 -0.1349
  852W        W 4916  10.372   9.448   9.935  0.0962 -0.3489 -0.1792
  853W        W 4917  10.131   7.766   3.327  0.1546  0.1565  0.0639
  854W        W 4918   8.077   5.152   0.772 -0.0706  0.1570  0.0437
  855W        W 4919   3.061   7.440   9.820  0.0542 -0.0393  0.3235
  856W        W 4920  10.199   5.310  10.767  0.1166 -0.3061  0.1813
  857W        W 4921   6.626   4.456   2.747  0.1784 -0.2027 -0.1229
  858W        W 4922   1.245   2.349   0.241 -0.1635  0.0816  0.1091
  859W        W 4923   0.665   8.388   8.074 -0.0694 -0.2606  0.2567
  860W        W 4924   7.042   6.704   7.583  0.0226 -0.0805  0.2284
  861W        W 4925   8.589   0.221  10.877  0.2674 -0.0045  0.1673
  862W        W 4926   7.360   0.046   0.805  0.2696 -0.1333 -0.1920
  863W        W 4927   1.395   7.995  11.078  0.0292 -0.3184 -0.1413
  864W        W 4928   7.860   9.769   9.164 -0.3091 -0.1416 -0.4156
  865W        W 4929   1.135   5.272   2.615  0.0718 -0.2418  0.1538
  866W        W 4930   1.230   8.317   9.187 -0.2409 -0.0607 -0.0595
  867W        W 4931   5.580   0.505   8.244  0.2169  0.2130  0.0043
  868W        W 4932   9.438   1.582   9.746 -0.0805  0.0358 -0.0050
  869W        W 4933   1.115   1.475   2.055  0.2242  0.1593  0.0509
  870W        W 4934   7.715   7.613   1.763  0.1165 -0.2479  0.0903
  871W        W 4935   0.915   8.492   1.419 -0.2897 -0.2969 -0.0000
  872W        W 4936   7.877   3.108   9.951  0.0269  0.1985  0.0077
  873W        W 4937   5.081   7.539   3.608 -0.2223  0.0042 -0.0341
  874W        W 4938   7.332   5.534  10.951 -0.0626  0.0226  0.2627
  875W        W 4939   3.026   1.988   0.219  0.0463  0.1631  0.1867
  876W        W 4940   9.217   0.717  10.665  0.1540 -0.0046 -0.1690
  877W        W 4941   3.410   1.372   1.580 -0.1575  0.1718  0.1665
  878W        W 4942   5.893   2.140   2.715  0.0004  0.0458  0.2538
  879W        W 4943  10.020   4.183   0.255  0.1967 -0.1193 -0.0617
  880W        W 4944   8.207   8.253   8.561 -0.3123  0.0129 -0.0448
  881W        W 4945   1.523   8.210   9.673 -0.0559 -0.0916  0.2487
  882W        W 4946   0.748   0.446   8.954  0.0764  0.0193 -0.0167
  883W        W 4947   2.453   6.744   8.886  0.1724 -0.0516  0.1593
  884W        W 4948   9.278   5.911  11.526  0.1079  0.0050  0.1223
  885W        W 4949   8.624   9.045   2.945  0.1738  0.3283  0.3066
  886W        W 4950   9.805   1.913   9.650  0.1868  0.1289  0.0849
  887W        W 4951   5.062   1.787   1.114  0.2707 -0.2726  0.0116
  888W        W 4952   5.231   5.555   2.594 -0.1673 -0.2882  0.1671
  889W        W 4953   3.786   9.261   9.156  0.1345  0.2617  0.2587
  890W        W 4954   3.606   7.578   2.555  0.2748 -0.0488 -0.1960
  891W        W 4955   2.995   2.747   1.043 -0.3893 -0.1130 -0.0140
  892W        W 4956   6.302   8.348   1.272 -0.5000  0.0183 -0.1242
  893W        W 4957   0.016   5.557   8.766  0.0834  0.1503 -0.1970
  894W        W 4958   5.480   0.556   2.203  0.4082  0.2291  0.2672
  895W        W 4959   4.896   3.871   0.344  0.1253 -0.1244 -0.2598
  896W        W 4960   2.910   2.412   7.890 -0.2789  0.1128  0.1478
  897W        W 4961   2.222   3.237   9.116  0.1591  0.0357  0.1141
  898W        W 4962   4.949   6.949   2.163  0.1451  0.0286 -0.1752
  899W        W 4963   2.699   2.910   1.436 -0.2062 -0.1222 -0.0362
  900W        W 4964   5.854   1.643   2.922  0.1825  0.0528  0.0891
  901W        W 4965   3.577   1.272   8.995 -0.5441  0.0577  0.0381
  902W        W 4966   5.124  10.554   0.186 -0.0438 -0.1800  0.2505
  903W        W 4967   6.862   8.747   9.556 -0.1864  0.3791  0.1591
  904W        W 4968   8.404   6.643   0.909  0.4186 -0.2876 -0.2067
  905W        W 4969   6.180   4.878  10.334 -0.0716 -0.1622  0.3776
  906W        W 4970   3.884  10.083   1.301  0.1758  0.0693 -0.3772
  907W        W 4971   6.333   6.161   2.554 -0.2471 -0.1551 -0.1028
  908W        W 4972   0.082   8.363   1.034 -0.2446  0.0111  0.2202
  909W        W 4973   3.578   1.064   1.916 -0.3404 -0.0367  0.1065
  910W        W 4974   2.840   8.428  10.967  0.3311  0.1485 -0.0464
  911W        W 4975   7.766   9.400   2.326 -0.0751  0.2018  0.2919
  912W        W 4976   0.939   9.770   9.184  0.1335 -0.2067  0.2528
  913W        W 4977   5.081   8.728   3.585 -0.1218  0.3703  0.0835
  914W        W 4978   6.134   1.643   0.151  0.0988  0.2096 -0.1034
  915W        W 4979   1.077   2.025   1.116 -0.0804  0.0960 -0.2586
  916W        W 4980   9.102   8.860   2.753  0.1572 -0.0760 -0.4365
  917W        W 4981   7.039   9.778   0.701 -0.4481 -0.0832 -0.2431
  918W        W 4982   7.337   7.135  10.645 -0.2492  0.0844 -0.2550
  919W        W 4983   5.666   4.849   9.500 -0.0757 -0.1123  0.1853
  920W        W 4984   3.860   1.146   9.822 -0.0205 -0.3312 -0.4477
  921W        W 4985   4.629   8.788   1.634  0.0130  0.2299 -0.0108
  922W        W 4986   8.363   1.637   7.866 -0.2333  0.2098  0.5588
  923W        W 4987   0.501   8.198   9.822 -0.2323 -0.0682  0.0294
  924W        W 4988  10.499   9.318  11.149 -0.0481 -0.0611 -0.0575
  925W        W 4989   6.282   9.001   1.786 -0.1497 -0.1912  0.0565
  926W        W 4990   9.915   7.638   2.074  0.0110  0.1667 -0.0941
  927W        W 4991  10.580   7.203  10.334 -0.1415  0.0758 -0.1971
  928W        W 4992   7.532   8.938   1.607 -0.2659 -0.0953  0.0468
  929W        W 4993  10.637   7.194   2.606  0.0745 -0.0388  0.2079
  930W        W 4994   1.622   8.466   8.546 -0.0760 -0.0586  0.0121
  931W        W 4995   7.758   2.366   3.563 -0.1368  0.1725  0.2125
  932W        W 4996   6.426   5.775  10.552 -0.2647 -0.0796  0.0149
  933W        W 4997   0.548   7.112   1.465 -0.3929  0.4930  0.1111
  934W        W 4998   8.469   0.552   8.489  0.0574 -0.1064 -0.3338
  935W        W 4999   2.093   3.178  10.717  0.1882  0.2430 -0.1349
  936W        W 5000   6.768   3.234  10.702 -0.3552 -0.0111 -0.0999
  937W        W 5001   1.727   8.172   2.378  0.0698  0.0925 -0.3994
  938W        W 5002   4.218   7.208   2.002  0.0678 -0.1042 -0.2529
  939W        W 5003   7.156   6.368   9.494  0.0912  0.0514  0.1933
  940W        W 5004   4.655   6.300   7.300  0.0714  0.3894 -0.1309
  941W        W 5005   2.108   5.041   2.218 -0.2443 -0.1133 -0.1139
  942W        W 5006   8.392   0.614   3.750 -0.1682  0.0562  0.0409
  943W        W 5007   9.537   9.983  10.371  0.0165  0.2708  0.1111
  944W        W 5008   5.380   0.866   0.841  0.0050 -0.4084 -0.1080
  945W        W 5009   8.502   6.093   2.959 -0.0879  0.0103  0.1226
  946W        W 5010   7.357   9.824  10.719  0.0375  0.1686 -0.2208
  947W        W 5011   7.889   3.018   2.072 -0.0840 -0.0444  0.0459
  948W        W 5012   4.475   1.282   3.082  0.1146  0.0791  0.0610
  949W        W 5013   6.827   8.881   8.627  0.2218 -0.4477 -0.3599
  950W        W 5014   1.625   1.681   0.595  0.1132  0.0716  0.0741
  951W        W 5015   8.619   3.458   2.796 -0.2445 -0.2463  0.0444
  952W        W 5016   4.252   5.887   3.223 -0.1167 -0.0868 -0.0549
  953W        W 5017   3.969   3.070   1.936 -0.0911  0.1231 -0.2040
  954W        W 5018   8.179   9.318   0.895  0.1848 -0.0207  0.0806
  955W        W 5019   4.801   0.950   9.475 -0.2852  0.0251  0.2432
  956W        W 5020   8.060   0.264   8.427  0.1615 -0.3791 -0.1856
  957W        W 5021   9.527   7.633   9.724 -0.0392  0.2026  0.0552
  958W        W 5022   5.144   6.998  10.962 -0.1499 -0.0007 -0.2576
  959W        W 5023  10.368   7.920   3.704 -0.3742 -0.0936  0.0666
  960W        W 5024   6.180   5.657   8.968 -0.0458  0.2698  0.0846
  961W        W 5025   6.136   9.681   3.414 -0.3010  0.1247  0.0624
  962W        W 5026   0.891   9.326   2.460 -0.0095 -0.0751 -0.4279
  963W        W 5027   4.666   9.103   2.152  0.0417 -0.1709  0.3233
  964W        W 5028   9.970   6.551   9.042 -0.0138 -0.0830 -0.0577
  965W        W 5029   3.426   1.371  10.434 -0.1639  0.1501  0.0033
  966W        W 5030   7.322   7.016  11.275 -0.2227  0.0145  0.0552
  967W        W 5031   8.743   9.279  10.575  0.2885  0.1631  0.0543
  968W        W 5032   7.563   6.708   3.811  0.3232  0.1636  0.0963
  969W        W 5033   4.059   9.743   1.707 -0.1111 -0.0314 -0.0929
  970W        W 5034   1.811   9.273   8.630 -0.0756 -0.3286  0.2709
  971W        W 5035   9.061  10.199  11.555  0.1713 -0.1301  0.0521
  972W        W 5036   6.458   7.527   2.629 -0.1672 -0.1321 -0.1181
  973W        W 5037   4.946   2.203   9.832  0.1567 -0.0655  0.1277
  974W        W 5038   8.027   1.581   3.128 -0.0119  0.1858  0.0366
  975W        W 5039   9.980   9.979  10.815 -0.0394  0.0735  0.0183
  976W        W 5040   6.247   9.041   8.602  0.2075 -0.3419 -0.0689
  977W        W 5041   4.617   0.461  11.126  0.0040  0.1051 -0.5245
  978W        W 5042   6.255   7.379   1.084 -0.2173 -0.2086 -0.0011
  979W        W 5043   1.383   0.152   1.181 -0.1866 -0.0255  0.2046
  980W        W 5044   1.719   9.655   1.123  0.1419 -0.1177 -0.1010
  981W        W 5045   8.791  10.202   9.902 -0.1890 -0.5891 -0.0286
  982W        W 5046   9.580  10.088   4.065 -0.2802  0.0221  0.0606
  983W        W 5047   4.316   9.026   2.482  0.1922  0.0502  0.1276
  984W        W 5048   7.737   4.680   1.388 -0.0883 -0.2840 -0.0746
  985W        W 5049   1.116   3.140   9.406 -0.0857  0.0951 -0.1803
  986W        W 5050   9.652   9.825   1.901 -0.1493  0.2345  0.0895
  987W        W 5051   9.598   0.241   9.369  0.2347  0.2175  0.0788
  988W        W 5052   1.130  10.469   1.511  0.2439 -0.0662  0.0947
  989W        W 5053   4.882   5.544   2.927 -0.0459  0.0740  0.0726
  990W        W 5054   0.791   6.691  10.209 -0.3331  0.2303  0.1033
  991W        W 5055   0.010   3.014  11.554 -0.0650  0.0727 -0.1409
  992W        W 5056   2.951   0.645   2.918  0.0406 -0.0993 -0.0573
  993W        W 5057   8.004   8.069   1.839 -0.0042 -0.0122  0.1937
  994W        W 5058   5.811   0.225   2.434  0.0631  0.1430 -0.0264
  995W        W 5059   6.969   3.398   3.435 -0.2573 -0.1594  0.1170
  996W        W 5060   5.487   7.075   8.803  0.5742 -0.2458  0.1093
  997W        W 5061   8.857   7.608  10.030  0.1308  0.0373  0.2402
  998W        W 5062   6.442   4.878   8.416 -0.1570 -0.0063 -0.0273
  999W        W 5063   8.286   0.548   9.828 -0.1868 -0.2944 -0.2368
 1000W        W 5064   7.061   9.981   1.892 -0.1520  0.1161 -0.1625
 1001W        W 5065   0.439   8.655   9.990  0.0425  0.1238 -0.1486
 1002W        W 5066   4.134   0.131   0.269  0.2172  0.2452 -0.0222
 1003W        W 5067   3.267   6.031   1.657 -0.1521 -0.0966  0.1096
 1004W        W 5068   0.014   1.493   1.964  0.0539  0.0593 -0.2264
 1005W        W 5069   5.102   7.978   0.680 -0.2447 -0.1118 -0.0928
 1006W        W 5070  10.476   4.860   8.448 -0.2121 -0.0694 -0.6607
 1007W        W 5071   9.300   9.737   3.213  0.0623 -0.2131  0.1613
 1008W        W 5072   2.824   1.523  11.473  0.1119 -0.0941 -0.4376
 1009W        W 5073   9.968   6.815   3.685  0.1728 -0.1874  0.2227
 1010W        W 5074   3.671   5.281   2.310 -0.1567  0.3619 -0.2177
 1011W        W 5075   0.658   5.160   2.347  0.2852 -0.2540 -0.1058
 1012W        W 5076   0.549   8.161   7.569  0.2909  0.0104 -0.3926
 1013W        W 5077   6.006   3.410   2.899  0.3018 -0.1112  0.1984
 1014W        W 5078   4.925   3.107   1.475  0.2993 -0.0067 -0.2251
 1015W        W 5079  10.505   6.073   2.559 -0.0231 -0.2159  0.0097
 1016W        W 5080   4.386   4.463  11.537  0.0736  0.0507 -0.0181
 1017W        W 5081   4.245   0.587   3.612  0.2101  0.0940 -0.2335
 1018W        W 5082   0.123   0.874   8.529  0.0546 -0.1269 -0.0216
 1019W        W 5083   7.012   8.673   2.210  0.0262 -0.0694 -0.2359
 1020W        W 5084   3.615   8.800   0.541  0.0193  0.1833  0.1302
 1021W        W 5085   6.227   1.874   1.909  0.0185 -0.2586  0.0336
 1022W        W 5086   1.176   3.778  11.356  0.1127  0.0101 -0.0857
 1023W        W 5087   4.743   5.306   1.985 -0.0842  0.0627  0.2683
 1024W        W 5088   5.749   8.612   2.679  0.0584  0.2340 -0.1296
 1025W        W 5089   7.799   5.829   9.577  0.0214  0.0380  0.0012
 1026W        W 5090  10.270   0.614   3.871 -0.1593  0.1700 -0.0902
 1027W        W 5091   7.125   3.185   0.172 -0.1882  0.1321  0.3054
 1028W        W 5092   6.679   9.628   0.369  0.0939 -0.3508 -0.0072
 1029W        W 5093   8.486   8.056   0.298  0.2486  0.0394  0.1788
 1030W        W 5094   5.946   7.291  11.199 -0.0672 -0.2145  0.1228
 1031W        W 5095   3.668   4.637   3.434 -0.1478  0.1907  0.1230
 1032W        W 5096   0.668   1.167   2.001 -0.2017 -0.4036  0.0639
 1033W        W 5097   9.699   5.160   9.683  0.0962 -0.0077  0.2861
 1034W        W 5098   1.269   4.248   2.581 -0.0943 -0.2339  0.0406
 1035W        W 5099   1.237   4.922   0.959 -0.1210  0.2111  0.0036
 1036W        W 5100  10.612   9.302   9.534  0.0743  0.1157 -0.2259
 1037W        W 5101   4.206   9.953  10.121  0.2004  0.0547  0.2047
 1038W        W 5102   1.176   7.621   1.929  0.0885 -0.0580 -0.0432
 1039W        W 5103   8.716   9.775   3.413 -0.1607 -0.1344 -0.3221
 1040W        W 5104   6.482   7.629   0.690  0.0281 -0.1903  0.1232
 1041W        W 5105   2.712   7.503  10.674 -0.1723  0.0314 -0.1334
 1042W        W 5106   8.630   7.525  11.296 -0.1258 -0.1478  0.2401
 1043W        W 5107   9.667   1.950   3.342  0.1469 -0.1256 -0.1062
 1044W        W 5108   4.288   6.654   4.324  0.1312  0.2936 -0.1348
 1045W        W 5109   9.398   2.842   2.596 -0.1710  0.1550 -0.3079
 1046W        W 5110   1.050   8.503   8.748  0.1417 -0.3066 -0.0634
 1047W        W 5111   2.644   1.463   0.908 -0.2823  0.0108  0.2746
 1048W        W 5112   7.214   8.603  10.740 -0.0757  0.1424  0.1818
 1049W        W 5113   2.989   1.024   1.006  0.2861 -0.4544 -0.0073
 1050W        W 5114   4.251   1.072   3.629 -0.0695 -0.0779  0.3082
 1051W        W 5115   8.878   9.718   0.673  0.0246 -0.2550 -0.1828
 1052W        W 5116   3.569  10.165   0.038  0.0027  0.1514 -0.0246
 1053W        W 5117   5.296   5.463   3.552  0.0275 -0.0800  0.1237
 1054W        W 5118   7.705   4.832   0.912 -0.0447 -0.0155  0.1717
 1055W        W 5119   4.837   2.926  11.464  0.0994  0.0943 -0.2557
 1056W        W 5120   5.943   7.222   8.788  0.0259 -0.3106 -0.1221
 1057W        W 5121   5.489   0.779  10.207  0.0222 -0.0137 -0.0398
 1058W        W 5122   0.744  10.242  11.375  0.1190 -0.0258  0.1472
 1059W        W 5123   1.628   1.593   2.279  0.3124 -0.0376 -0.0025
 1060W        W 5124   6.429   0.686   0.051 -0.0205  0.0426  0.2797
 1061W        W 5125   3.534   7.570   1.620 -0.1004 -0.3693  0.0449
 1062W        W 5126   7.845   1.965   1.275 -0.1039 -0.1595  0.1844
 1063W        W 5127   1.536   0.762   7.829  0.0517 -0.0722 -0.2930
 1064W        W 5128   6.881   6.168   8.464  0.4036  0.0909 -0.3401
 1065W        W 5129   5.046   9.650  11.497 -0.2339 -0.0631 -0.0167
 1066W        W 5130  10.595   1.795   0.391  0.0163 -0.1984 -0.0381
 1067W        W 5131   7.175   2.617   0.818 -0.0448 -0.0897 -0.0294
 1068W        W 5132   1.760   8.552  10.427  0.2871  0.1754 -0.1082
 1069W        W 5133   6.351   5.425   1.162 -0.1847 -0.0163 -0.0906
 1070W        W 5134   8.949   6.140  10.254  0.2646  0.3974 -0.0768
 1071W        W 5135   4.114   4.747   8.321  0.5460 -0.0159 -0.2790
 1072W        W 5136   5.939   2.290   8.607  0.0074 -0.1264  0.1489
 1073W        W 5137   2.397   5.711  10.348 -0.0443 -0.2609  0.0836
 1074W        W 5138   1.943   0.899   1.131  0.1589 -0.0479 -0.0263
 1075W        W 5139   5.758   8.705  10.515 -0.0689 -0.0330  0.1873
 1076W        W 5140   3.669   8.356   0.721  0.1163 -0.0926 -0.0463
 1077W        W 5141   9.050   1.297  10.646 -0.0823 -0.2163 -0.1160
 1078W        W 5142   7.635   0.485  10.070 -0.3618 -0.1187  0.0473
 1079W        W 5143   4.803   6.106   9.394  0.0524  0.1042  0.0309
 1080W        W 5144   2.379   7.536   9.367  0.1014 -0.0443 -0.0158
 1081W        W 5145   4.975   5.018   0.747  0.0766 -0.0994 -0.1215
 1082W        W 5146   2.266   3.799   0.477  0.1426  0.2780  0.0280
 1083W        W 5147  10.483   9.642   8.361 -0.0634 -0.0352 -0.2572
 1084W        W 5148   3.497   8.196   1.333  0.2222  0.0784  0.1089
 1085W        W 5149   3.125  10.585   2.711  0.2412  0.0226  0.0603
 1086W        W 5150   8.066  10.101   1.121  0.0236  0.1136 -0.1299
 1087W        W 5151   7.994   3.655   1.364 -0.0032  0.1521  0.0575
 1088W        W 5152   8.888   3.307   9.439 -0.0455  0.0062 -0.0622
 1089W        W 5153   3.118   0.151   0.618  0.0841 -0.0181  0.0447
 1090W        W 5154   0.088   5.395   0.273 -0.2947  0.0570 -0.1230
 1091W        W 5155   8.622   4.785   2.061 -0.1074 -0.2183 -0.1053
 1092W        W 5156   6.570   4.747   9.958 -0.1733 -0.0567  0.2118
 1093W        W 5157   6.560   9.154   9.044 -0.1751  0.0273 -0.0908
 1094W        W 5158   8.186   4.155   1.471 -0.1265 -0.0629  0.1022
 1095W        W 5159   8.625   2.168   3.575 -0.1371  0.0466  0.1784
 1096W        W 5160   2.705   3.018   9.893 -0.0458  0.1316  0.1859
 1097W        W 5161   3.204  10.317   1.696  0.1965  0.2213  0.1821
 1098W        W 5162   8.429   7.876   1.375  0.3372  0.0615  0.0012
 1099W        W 5163   8.008   0.783   8.593  0.0591 -0.1696 -0.1455
 1100W        W 5164   2.392   3.130   0.137 -0.0264 -0.3312  0.2406
 1101W        W 5165   0.079   2.156   7.892  0.1716  0.0312 -0.2071
 1102W        W 5166   6.802   5.798  11.123  0.0298  0.1285 -0.0115
 1103W        W 5167   2.446   2.107  10.145 -0.1884 -0.1105  0.2786
 1104W        W 5168  10.650  10.013   2.427  0.0764 -0.0393 -0.1674
 1105W        W 5169   6.161  10.206   8.207  0.2120  0.0266 -0.1236
 1106W        W 5170   2.314  10.512   3.005 -0.0835  0.0953  0.1571
 1107W        W 5171   8.590  10.437   2.454 -0.2320  0.2800  0.3363
 1108W        W 5172   3.314   5.668   9.961 -0.3569 -0.1237 -0.2884
 1109W        W 5173   3.352   9.279   9.507 -0.1096  0.2403 -0.1557
 1110W        W 5174   2.495   9.069   9.409  0.5135 -0.0216 -0.1067
 1111W        W 5175   2.496   7.166   2.570 -0.0899 -0.0319  0.0279
 1112W        W 5176   4.073   2.284   1.591  0.1871 -0.0400  0.0892
 1113W        W 5177   4.249   7.482   9.776 -0.0783  0.2731 -0.0108
 1114W        W 5178   3.354   2.713   2.600 -0.0868  0.0599  0.3479
 1115W        W 5179   7.032   5.706   7.245  0.1153 -0.2584  0.0827
 1116W        W 5180   2.950   6.851   0.830 -0.0493  0.1207 -0.0393
 1117W        W 5181   2.023   9.008   2.390  0.2180  0.0479 -0.2077
 1118W        W 5182   1.113   0.277  10.917 -0.0263 -0.1149  0.1429
 1119W        W 5183   3.767   2.422   0.927 -0.1061 -0.2134  0.1856
 1120W        W 5184   2.515   2.657   0.343  0.3324  0.1099 -0.2460
 1121W        W 5185   2.077   1.508   7.703  0.2866  0.6129 -0.0903
 1122W        W 5186   7.538   9.798   2.040  0.1176 -0.0490  0.0749
 1123W        W 5187   8.977   0.945  10.143  0.1160 -0.2140  0.0289
 1124W        W 5188   4.963   3.350   1.014  0.0598  0.0531 -0.1241
 1125W        W 5189   2.461   0.972   1.102 -0.0599 -0.0072  0.0825
 1126W        W 5190   1.794  10.157  10.308 -0.0282  0.1030 -0.0083
 1127W        W 5191   3.088   5.153   3.062 -0.1025  0.0597  0.1000
 1128W        W 5192  10.407   1.943   4.093 -0.3201  0.2961  0.0585
 1129W        W 5193   8.470   1.548  10.977 -0.0657 -0.1175  0.2853
 1130W        W 5194   2.779   1.944   3.541 -0.0572  0.1708  0.3763
 1131W        W 5195   8.408   9.651   4.185  0.0588  0.2073  0.0502
 1132W        W 5196   7.146   9.741   0.184  0.1892 -0.1124  0.0391
 1133W        W 5197   3.914   4.126   0.691  0.0722 -0.0537  0.3122
 1134W        W 5198   8.075   3.159   1.198  0.2635 -0.1899  0.0866
 1135W        W 5199   0.900   1.106   3.344 -0.1008 -0.1246 -0.1035
 1136W        W 5200   3.306   3.136   8.801 -0.1159 -0.1707  0.1246
 1137W        W 5201   5.188   1.168   4.495  0.0319  0.0539 -0.0626
 1138W        W 5202  10.163   0.862   0.676 -0.1445 -0.0413 -0.0374
 1139W        W 5203   9.994   6.836   8.521  0.0012  0.1151 -0.1787
 1140W        W 5204   5.478   2.744   9.332  0.2870  0.2177 -0.1141
 1141W        W 5205   2.829   3.081  11.263  0.0426  0.1454  0.0557
 1142W        W 5206   5.719   8.921  10.925  0.0306 -0.0125 -0.0922
 1143W        W 5207   4.687   7.747  11.398 -0.0085 -0.1020  0.0361
 1144W        W 5208   5.059   4.355   8.297  0.0007  0.1197  0.2304
 1145W        W 5209   9.913   3.874   9.359  0.0861  0.2660  0.0295
 1146W        W 5210   1.233   7.752   2.914  0.4972 -0.2703  0.3398
 1147W        W 5211   8.118   1.843   9.614 -0.2718  0.2135  0.1560
 1148W        W 5212   6.397  10.602  10.018  0.3952 -0.0097  0.1957
 1149W        W 5213   4.639  10.125  10.544 -0.2588 -0.0040  0.1019
 1150W        W 5214   4.016   6.997   0.623 -0.0889  0.0745  0.3679
 1151W        W 5215   1.783   2.685   0.950 -0.3183 -0.4375 -0.0196
 1152W        W 5216   2.557   5.293   0.050 -0.0459  0.0817  0.0697
 1153W        W 5217  10.588   7.074   9.694 -0.0638  0.0179  0.1043
 1154W        W 5218   4.463   0.695   0.939 -0.1607 -0.1695  0.3796
 1155W        W 5219  10.459   7.821   7.649  0.0539  0.1221  0.1313
 1156W        W 5220   8.770   4.402  10.131  0.2797 -0.0092  0.0635
 1157W        W 5221  10.295   4.150   2.348  0.2786  0.2019  0.2612
 1158W        W 5222   8.637   7.902   8.277 -0.0906  0.1735  0.2126
 1159W        W 5223   4.014   0.162   1.586 -0.0262  0.0654  0.0552
 1160W        W 5224   0.195   8.101  10.660  0.1651 -0.2236  0.0950
 1161W        W 5225   8.654   5.161   9.825 -0.0205 -0.0529 -0.2457
 1162W        W 5226   6.783   8.298   1.396  0.0255 -0.1694 -0.1797
 1163W        W 5227   0.334   6.630  10.515  0.1015 -0.0913 -0.0231
 1164W        W 5228   1.907   0.579   9.602  0.1181  0.0034 -0.3493
 1165W        W 5229   5.627   1.854   8.709 -0.1269 -0.2559 -0.0803
 1166W        W 5230   0.443   3.444   2.751 -0.1995 -0.0717  0.0734
 1167W        W 5231   2.673   5.274  10.228  0.0016  0.0546 -0.0588
 1168W        W 5232   0.729   7.911   2.233 -0.4608  0.0154 -0.1760
 1169W        W 5233   9.871   7.937  10.825 -0.1095  0.2195 -0.0237
 1170W        W 5234   5.370   9.555   1.087  0.0429  0.1995  0.0329
 1171W        W 5235   6.783   7.748   8.042 -0.3727 -0.1546  0.2247
 1172W        W 5236   7.463   0.332   9.608 -0.2617 -0.1110 -0.1212
 1173W        W 5237   0.316   9.048   2.556  0.3981  0.0823  0.1039
 1174W        W 5238   5.128   7.454   1.252  0.1737  0.0365  0.4641
 1175W        W 5239   4.089  10.330   2.481 -0.0646  0.0065 -0.4126
 1176W        W 5240  10.232   8.324  11.141  0.1132  0.2600  0.2648
 1177W        W 5241   9.084   4.192   8.500  0.2308  0.0239 -0.0540
 1178W        W 5242   2.846   8.033   2.563  0.0855 -0.3072  0.4281
 1179W        W 5243   8.544   0.265   7.621  0.0715 -0.3020 -0.0251
 1180W        W 5244   0.350   5.432   2.745 -0.0835 -0.2834 -0.1489
 1181W        W 5245   1.902   5.607   8.486 -0.1329 -0.0465 -0.0114
 1182W        W 5246   9.369   9.607   1.153  0.3941  0.0443  0.2357
 1183W        W 5247   4.740   4.883   1.211 -0.1453  0.1037  0.2180
 1184W        W 5248   3.185   6.860   0.283  0.2178  0.2067  0.0035
 1185W        W 5249   4.015   3.203   1.111 -0.2115  0.0921 -0.0732
 1186W        W 5250   5.298  10.057   0.155 -0.0755 -0.0143 -0.3264
 1187W        W 5251   9.056   6.132   8.323 -0.0793 -0.1402  0.0263
 1188W        W 5252   6.433   1.970   9.378 -0.0051  0.2695 -0.1257
 1189W        W 5253   2.775   1.638   2.476  0.1076 -0.0722  0.0643
 1190W        W 5254   4.488   3.176  10.123 -0.0835  0.0262 -0.0505
 1191W        W 5255   5.611   3.456   9.276  0.1442 -0.0163 -0.0918
 1192W        W 5256   7.705   4.920  11.270  0.1396 -0.1656 -0.0006
 1193W        W 5257   7.053   1.955   9.064  0.0270  0.0322  0.2094
 1194W        W 5258   0.288   4.327   3.262  0.1715  0.1723  0.0633
 1195W        W 5259   6.160   7.130   2.770  0.0341 -0.1609 -0.3376
 1196W        W 5260   9.497   3.901   9.741 -0.2385  0.0801  0.1099
 1197W        W 5261   9.568   4.262  11.060 -0.2883  0.0123  0.2679
 1198W        W 5262   4.294  10.326  11.509  0.2051  0.3093 -0.1076
 1199W        W 5263   5.279   7.971   1.337 -0.2254 -0.0845 -0.0326
 1200W        W 5264   2.188   8.705   1.485 -0.2878  0.3318 -0.1114
 1201W        W 5265   6.590   9.710   9.064 -0.0942  0.1680  0.2417
 1202W        W 5266   3.118  10.371  11.480 -0.0921  0.0983 -0.2557
 1203W        W 5267   1.910   8.838   1.857 -0.0533  0.1514  0.2263
 1204W        W 5268   4.088   9.844   8.487  0.3048 -0.0741 -0.0490
 1205W        W 5269   1.275   3.697   1.803  0.3070 -0.0540  0.1417
 1206W        W 5270   5.110   6.817  11.551  0.0455 -0.0524  0.0530
 1207W        W 5271   1.547   9.292   0.432  0.1269 -0.1583 -0.0565
 1208W        W 5272   5.267   0.090   9.874 -0.0300 -0.1878 -0.2944
 1209W        W 5273   5.819   5.833   3.216 -0.1326 -0.0853  0.1442
 1210W        W 5274   5.254   2.654   0.134  0.2938 -0.0018  0.2401
 1211W        W 5275   1.973  10.534   0.300  0.3606 -0.5099  0.1300
 1212W        W 5276   5.070   7.172   1.679  0.2403  0.1052  0.2790
 1213W        W 5277   9.111   5.881  10.995 -0.0847 -0.3873  0.1608
 1214W        W 5278   2.983   3.627   9.680  0.1832  0.0167 -0.0186
 1215W        W 5279   6.095   4.560  10.783  0.0196  0.0183 -0.2761
 1216W        W 5280   2.421   6.433   9.296  0.2298 -0.4979 -0.0423
 1217W        W 5281   3.181   1.028   0.366 -0.0979  0.1212  0.0773
 1218W        W 5282   0.045   0.320   8.657  0.1502  0.0145  0.3431
 1219W        W 5283   4.930   7.743   1.859  0.0126  0.1077 -0.1082
 1220W        W 5284   9.026  10.128   3.337  0.2533 -0.3767  0.1489
 1221W        W 5285  10.003   4.459   9.228 -0.2047  0.4164 -0.4719
 1222W        W 5286   5.934   8.450  11.045  0.2111  0.0126  0.1160
 1223W        W 5287   7.293  10.348  10.799 -0.0227  0.1944  0.2025
 1224W        W 5288   1.501   7.155  10.436  0.0575 -0.1209 -0.1251
 1225W        W 5289   2.237   9.972   2.503 -0.0481  0.4175 -0.0344
 1226W        W 5290   0.246   1.513   0.776  0.1277  0.3526  0.0187
 1227W        W 5291   3.982   5.637   9.343  0.0926  0.0776 -0.1818
 1228W        W 5292   4.810  10.220   0.385  0.0777 -0.2320 -0.1617
 1229W        W 5293   5.855   1.009   8.149 -0.0450 -0.2275 -0.1696
 1230W        W 5294   3.192   5.404   1.032 -0.0093  0.0792 -0.2442
 1231W        W 5295   5.377   5.481   1.678  0.3423  0.1897  0.1236
 1232W        W 5296   6.031  10.436   2.216  0.0564 -0.2054 -0.1838
 1233W        W 5297   7.583   4.412   0.626 -0.3770  0.2092 -0.2352
 1234W        W 5298   8.831   0.652  11.126  0.2737 -0.0595  0.0746
 1235W        W 5299   8.797   6.104   0.160 -0.0916 -0.0456 -0.1405
 1236W        W 5300   6.949  10.115   9.294  0.2220 -0.0781 -0.1004
 1237W        W 5301   0.215   7.948   1.501 -0.0759  0.2996  0.3927
 1238W        W 5302   7.411   4.446   1.083  0.0587  0.2779  0.2259
 1239W        W 5303   1.770   0.670  11.556 -0.1920  0.2458 -0.6140
 1240W        W 5304   5.382   6.204   2.296 -0.1341 -0.0936  0.1949
 1241W        W 5305   1.296   0.418   0.771  0.1095 -0.0337  0.0856
 1242W        W 5306   5.700   6.194   0.306 -0.0638  0.0905 -0.1106
 1243W        W 5307   3.349   7.741   0.663 -0.1458  0.0023 -0.1034
 1244W        W 5308   2.767   4.680   0.709  0.0787  0.0003 -0.0641
 1245W        W 5309   6.482   7.750   9.027  0.2690  0.0248  0.0342
 1246W        W 5310   6.180   0.603   0.580  0.0376 -0.1345  0.0966
 1247W        W 5311   8.368   0.159   8.039  0.0152  0.0870  0.2231
 1248W        W 5312   8.221   7.377  10.832 -0.3365  0.0943  0.2542
 1249W        W 5313   5.757   5.304   1.912 -0.3764 -0.1125 -0.2099
 1250W        W 5314   9.723   6.132   9.782  0.1629  0.2291 -0.1756
 1251W        W 5315   7.846   1.476   9.786  0.0465  0.0127  0.2152
 1252W        W 5316   3.709   4.050   9.403  0.0666  0.2151  0.0501
 1253W        W 5317   1.363   3.055   0.981 -0.0130  0.2946 -0.0617
 1254W        W 5318   5.903   0.955   0.806  0.0616  0.2610 -0.0281
 1255W        W 5319   1.143   2.239  11.300  0.0965  0.0104 -0.2569
 1256W        W 5320   5.944   6.586   0.537  0.1623 -0.0366  0.1537
 1257W        W 5321   6.029   4.891   1.794  0.0214  0.0333 -0.1825
 1258W        W 5322   4.603   9.069  11.493  0.0399  0.2360  0.0356
 1259W        W 5323   7.666  10.544   6.952  0.0285  0.4056 -0.2581
 1260W        W 5324   2.663   3.620   8.403  0.1037  0.2059  0.1237
 1261W        W 5325  10.638   5.248  10.235  0.0521  0.0886 -0.0651
 1262W        W 5326   3.380   8.638   9.683 -0.0246  0.1930 -0.1487
 1263W        W 5327   4.463   7.772   9.403 -0.0038 -0.0633  0.1412
 1264W        W 5328   7.982   0.340   7.812 -0.0538  0.2069  0.0139
 1265W        W 5329   8.143   1.079   9.541  0.2504  0.0958 -0.2541
 1266W        W 5330   7.144   5.734   8.823 -0.0029 -0.0095 -0.0675
 1267W        W 5331   9.659  10.435   7.809 -0.0678 -0.0725  0.0593
 1268W        W 5332   1.034   9.538   1.698  0.3542  0.2734 -0.0590
 1269W        W 5333   2.030   6.792   3.369 -0.2145  0.0298  0.1039
 1270W        W 5334   3.354   0.049   1.999  0.3243  0.1343 -0.1156
 1271W        W 5335   8.378   1.493   2.846  0.1658 -0.1061  0.1288
 1272W        W 5336   4.025   0.029  10.495 -0.1380  0.0302  0.0930
 1273W        W 5337  10.108   0.451   7.413  0.2721  0.0881 -0.0419
 1274W        W 5338   0.775   8.758   0.510 -0.1078 -0.0404 -0.0765
 1275W        W 5339   6.210   4.987   1.359  0.1774 -0.0597  0.1507
 1276W        W 5340   9.988   4.801   9.909 -0.1511  0.2475 -0.0382
 1277W        W 5341   2.147   5.731   0.348 -0.0123 -0.1173 -0.0797
 1278W        W 5342   8.289  10.404   6.880 -0.3154  0.1120 -0.0691
 1279W        W 5343   4.485   4.460   8.677 -0.0661 -0.0549  0.0197
 1280W        W 5344   4.998   6.525   2.526 -0.2846  0.0950 -0.1350
 1281W        W 5345   7.334   2.001   0.892 -0.5576  0.1280  0.3547
 1282W        W 5346   8.317  10.069   9.879 -0.1920 -0.0102  0.0138
 1283W        W 5347   0.753   7.283   2.195  0.3581  0.1385 -0.1837
 1284W        W 5348   2.113   2.784   8.777  0.1154 -0.0864 -0.0616
 1285W        W 5349   1.022   5.992   2.782 -0.1498 -0.0852 -0.0508
 1286W        W 5350   4.587   8.153   0.252  0.1402  0.1931 -0.1895
 1287W        W 5351   8.737   0.246   2.918 -0.0817 -0.1572 -0.2550
 1288W        W 5352   9.523   4.835   8.529  0.2265 -0.0496  0.0743
 1289W        W 5353   6.680   7.073   3.597  0.1536 -0.0188  0.1179
 1290W        W 5354   9.419  10.465   1.426  0.2942 -0.0792 -0.2258
 1291W        W 5355  10.051   9.724  10.368  0.2763  0.0326  0.0584
 1292W        W 5356   1.713   2.045   0.285  0.1497 -0.2393  0.2227
 1293W        W 5357   4.338  10.430   9.718 -0.2127 -0.0001  0.0956
 1294W        W 5358   2.215   9.289   1.802 -0.1288 -0.0422  0.1047
 1295W        W 5359   1.729   2.595   8.452  0.1015 -0.0831 -0.1205
 1296W        W 5360   7.047   9.568   9.338 -0.1691  0.0490  0.4735
 1297W        W 5361   3.157  10.106   2.649 -0.0406  0.2600  0.0824
 1298W        W 5362   7.227   5.456   1.081  0.2570 -0.2233  0.2145
 1299W        W 5363   5.091   7.966   3.394 -0.0814  0.0611 -0.0772
 1300W        W 5364   2.855   6.903   9.946 -0.3434  0.0920 -0.0910
 1301W        W 5365   2.682   4.636  10.994  0.1597 -0.0169  0.1470
 1302W        W 5366   9.845   0.622   2.946  0.3679 -0.0983 -0.3331
 1303W        W 5367   8.162   1.796   0.868  0.1992 -0.2161 -0.1868
 1304W        W 5368   1.553   0.436   3.790  0.1742 -0.0868  0.0217
 1305W        W 5369   9.559   3.903   1.371  0.0011 -0.0068 -0.1379
 1306W        W 5370   5.212  10.508   1.663 -0.0122 -0.0676  0.2909
 1307W        W 5371   2.977   0.212   1.629  0.1404  0.0089 -0.1962
 1308W        W 5372   4.548   3.176  10.624 -0.3645  0.1307  0.3543
 1309W        W 5373   4.415   3.622   9.289 -0.0691  0.2188  0.0315
 1310W        W 5374   8.379   2.062   8.347 -0.0199  0.0874  0.3152
 1311W        W 5375   0.144   7.354  11.237  0.1046  0.1302  0.0013
 1312W        W 5376  10.381  10.407  11.465  0.1435  0.1171  0.2536
 1313W        W 5377   8.898   4.042   9.806 -0.2274  0.5608  0.0059
 1314W        W 5378   4.774   7.418  11.002 -0.4486  0.0517 -0.0134
 1315W        W 5379   8.336   4.026  10.556  0.2723 -0.0560 -0.3820
 1316W        W 5380   4.673   7.299   1.158 -0.2659  0.1005  0.0309
 1317W        W 5381   1.563   1.677  10.857 -0.1518 -0.1807  0.0283
 1318W        W 5382   4.607   8.642   7.867  0.2954  0.1118  0.3891
 1319W        W 5383   3.333   9.021   2.008  0.0879 -0.3436 -0.2610
 1320W        W 5384   5.993   5.214   0.378 -0.3192 -0.1346 -0.0850
 1321W        W 5385   4.081   2.337  10.013  0.0224 -0.1985 -0.2257
 1322W        W 5386   0.948   2.860   2.327  0.2959  0.2565  0.2634
 1323W        W 5387   2.567   6.161  10.555  0.1748  0.0633  0.1407
 1324W        W 5388   8.866   3.506   0.407 -0.2242  0.3203 -0.0071
 1325W        W 5389   6.494   3.288   3.086  0.1566  0.1318 -0.0144
 1326W        W 5390   6.456   5.247   1.785  0.1485  0.1515 -0.3898
 1327W        W 5391   4.068   6.009   8.522 -0.0379 -0.0481  0.1755
 1328W        W 5392   1.926   8.277   0.774  0.0824  0.1592 -0.1014
 1329W        W 5393   8.023   6.138   2.821 -0.1982 -0.1451 -0.0483
 1330W        W 5394   2.806   5.046   1.438  0.0575  0.1913 -0.2626
 1331W        W 5395   1.529   9.088  10.784 -0.0504  0.1768 -0.2975
 1332W        W 5396  10.210   4.422   2.761  0.1570 -0.2947 -0.1546
 1333W        W 5397   0.348   2.066   9.782  0.0271  0.1170  0.1970
 1334W        W 5398   5.511   4.189   3.118  0.1410 -0.2229 -0.0358
 1335W        W 5399   7.597   1.450   2.817 -0.1568 -0.0156  0.0229
 1336W        W 5400   9.020   5.195   2.844 -0.0093  0.1240  0.0573
 1337W        W 5401   7.206   4.860  11.560  0.2698  0.0325 -0.2627
 1338W        W 5402   9.557   8.092   8.630 -0.3684  0.1990 -0.1678
 1339W        W 5403   2.557  10.236   3.394 -0.0078  0.1519 -0.0658
 1340W        W 5404   7.521   7.766   0.356  0.1055  0.0539  0.2920
 1341W        W 5405   3.143   6.506   2.914 -0.2816 -0.3721  0.3445
 1342W        W 5406   8.054   1.424   0.381 -0.2061 -0.3383  0.1842
 1343W        W 5407   3.919   0.129   2.075 -0.2038 -0.0477  0.2536
 1344W        W 5408   5.175   6.583   8.019 -0.1021 -0.1303 -0.0254
 1345W        W 5409   1.188   6.233   9.342  0.0527 -0.1044 -0.1932
 1346W        W 5410   5.553   4.675   3.243  0.2758 -0.0847  0.2589
 1347W        W 5411   6.965   3.077   0.670 -0.2487 -0.0011 -0.2311
 1348W        W 5412   7.932   6.715  11.455 -0.0737  0.1031  0.1939
 1349W        W 5413   6.975   1.241   9.891  0.0161  0.0073 -0.0213
 1350W        W 5414   9.744   8.109   2.287 -0.1449 -0.3353 -0.4720
 1351W        W 5415   8.129   4.943   2.182  0.1347 -0.2702  0.2984
 1352W        W 5416   6.633   7.650   7.161  0.3069 -0.1269 -0.1234
 1353W        W 5417   1.692   5.052  11.426 -0.2361  0.1809  0.2687
 1354W        W 5418   1.388   3.435  10.271 -0.2603  0.2935  0.1280
 1355W        W 5419   9.723   9.577   0.141 -0.2376  0.3349 -0.0894
 1356W        W 5420   6.523   2.939   8.282 -0.1236  0.1808  0.4019
 1357W        W 5421   4.976   3.927  10.623 -0.0647  0.0884 -0.1258
 1358W        W 5422   7.047   3.867   3.390 -0.2109 -0.2712 -0.0017
 1359W        W 5423   5.902   9.981  10.602 -0.0074  0.0068 -0.2710
 1360W        W 5424   1.015   3.669   0.267 -0.0434 -0.0464 -0.1981
 1361W        W 5425   2.575   0.934  10.512  0.1547  0.1736  0.4463
 1362W        W 5426   7.554   8.483   0.551 -0.0773  0.2490  0.0472
 1363W        W 5427   6.322   9.943   2.520 -0.0433  0.0843 -0.1796
 1364W        W 5428   7.117  10.125  10.299  0.0669 -0.1352  0.0595
 1365W        W 5429  10.105   1.886   2.621  0.0610 -0.0401 -0.0481
 1366W        W 5430   9.586   9.360   0.565 -0.1142 -0.2250 -0.0320
 1367W        W 5431   4.678   1.466   8.753 -0.2807 -0.1330  0.1045
 1368W        W 5432   8.629   2.932   1.850  0.0816 -0.1332  0.0146
 1369W        W 5433   3.537   9.991   7.791  0.0339  0.0312 -0.1744
 1370W        W 5434   1.125   6.141   2.124 -0.2278  0.0712  0.1275
 1371W        W 5435   5.893   1.500   8.988 -0.0316  0.0486  0.0650
 1372W        W 5436   1.123   9.100   0.741 -0.2591 -0.0302 -0.0044
 1373W        W 5437   7.021   7.686   7.636  0.1880 -0.0430  0.1548
 1374W        W 5438   4.837   2.103   7.800  0.1027  0.0201  0.2000
 1375W        W 5439   9.968   0.626   1.589 -0.1015  0.1187 -0.0210
 1376W        W 5440   8.356  10.113   7.280  0.1712 -0.0929  0.4239
 1377W        W 5441   1.558   7.260   1.076  0.3323  0.2121 -0.0232
 1378W        W 5442   0.152   7.302   9.226  0.1034  0.1661 -0.3929
 1379W        W 5443   8.182   9.363   1.700  0.1184  0.1583  0.1216
 1380W        W 5444   5.200   4.380  10.322 -0.1581 -0.1121 -0.2405
 1381W        W 5445   3.807   9.042   2.275 -0.2366 -0.0393  0.0948
 1382W        W 5446   7.726   4.854   2.867 -0.3953 -0.2032  0.1802
 1383W        W 5447   6.692   1.715   1.768  0.2227  0.1933 -0.1065
 1384W        W 5448   0.586   1.866   0.367 -0.1262  0.0517 -0.1087
 1385W        W 5449   8.176   2.970   3.104 -0.0718 -0.3133 -0.1262
 1386W        W 5450   6.543   0.477   2.790  0.0328  0.1079  0.1215
 1387W        W 5451   8.354   3.881   2.010  0.0022  0.1458  0.0667
 1388W        W 5452   9.791   0.992   0.962 -0.0279 -0.1399 -0.5106
 1389W        W 5453   6.145   1.350  10.098  0.3932 -0.4151  0.1440
 1390W        W 5454   7.975   1.738   1.688  0.1609  0.1643  0.0474
 1391W        W 5455   4.170   9.683   8.994 -0.1764 -0.1968 -0.0842
 1392W        W 5456   5.659   2.795  10.329  0.0529  0.0796 -0.1886
 1393W        W 5457   1.157   0.997   1.857 -0.2024 -0.2262  0.1552
 1394W        W 5458   9.260   3.510   1.803  0.0219  0.0348  0.0831
 1395W        W 5459   4.245   3.405   2.850 -0.2076 -0.0443 -0.3135
 1396W        W 5460   2.607   8.419   2.368  0.1325 -0.0561 -0.0382
 1397W        W 5461   7.562   6.798   0.216  0.1803  0.0705  0.2275
 1398W        W 5462   9.982   4.478  11.318  0.0075 -0.0513 -0.2448
 1399W        W 5463   8.913   7.786   2.281 -0.0620  0.4348 -0.0305
 1400W        W 5464   2.379   4.591   2.063 -0.1200 -0.0890 -0.0308
 1401W        W 5465  10.433   9.535   1.638 -0.1964 -0.2214 -0.0330
 1402W        W 5466   3.934   5.458   3.184  0.1529  0.0106 -0.3739
 1403W        W 5467   7.838  10.190   2.149  0.1159 -0.3764 -0.0476
 1404W        W 5468   3.461   9.663   9.226 -0.2181  0.1237  0.0433
 1405W        W 5469   6.807   4.898   7.821 -0.3462 -0.2282 -0.0177
 1406W        W 5470   1.511   8.871   8.897 -0.0942 -0.1889  0.1393
 1407W        W 5471   8.500   7.770   3.729 -0.0811  0.0472 -0.1622
 1408W        W 5472   7.602   6.097   0.775  0.1416  0.3309  0.0915
 1409W        W 5473   4.961   3.292   2.926  0.1493  0.1586  0.2456
 1410W        W 5474   4.464   6.079  10.560  0.0412 -0.1231  0.4064
 1411W        W 5475   3.789   9.204   9.681  0.0951 -0.0685  0.6857
 1412W        W 5476   0.274   0.863   9.725  0.0767  0.1041 -0.1534
 1413W        W 5477   5.516   7.413   0.938 -0.1424  0.0765  0.0175
 1414W        W 5478  10.365   6.568   1.801 -0.4948 -0.0348  0.1167
 1415W        W 5479   5.422   8.867   2.029  0.0310  0.1293  0.2274
 1416W        W 5480   6.919  10.611  10.684 -0.2952  0.0840 -0.1402
 1417W        W 5481  10.130  10.577   9.218  0.2546 -0.2791 -0.2238
 1418W        W 5482   1.954   6.688   9.627 -0.1072  0.0835  0.1382
 1419W        W 5483   7.032   8.991   1.688 -0.1375  0.0777 -0.1871
 1420W        W 5484   5.671   2.876   3.633 -0.1038  0.1353 -0.0015
 1421W        W 5485   3.749   0.601  10.016 -0.0258  0.0806  0.0940
 1422W        W 5486   0.081   9.253   1.948  0.1809 -0.1943 -0.3895
 1423W        W 5487   1.086   7.642   9.123 -0.1000 -0.0426  0.2941
 1424W        W 5488   1.674   0.386   0.391  0.0378  0.4659  0.1101
 1425W        W 5489   7.803   4.296  10.637 -0.0656 -0.0434  0.0421
 1426W        W 5490   5.898   7.354  10.434  0.2532  0.0134  0.0412
 1427W        W 5491   0.911  10.309   2.346  0.2704 -0.0301 -0.0315
 1428W        W 5492   5.399   3.020   1.341  0.1374  0.0673  0.3746
 1429W        W 5493   6.483   2.801   9.328  0.1046  0.1642  0.2141
 1430W        W 5494   3.604   6.535   2.811 -0.2516 -0.1701  0.4556
 1431W        W 5495   0.682   1.385   8.376 -0.3383  0.2804  0.0450
 1432W        W 5496   7.604   5.130   9.030 -0.1086  0.1056 -0.1968
 1433W        W 5497   6.251   4.316   9.248  0.1552  0.1450  0.2917
 1434W        W 5498   0.485   3.908   2.919  0.2499  0.1036  0.1816
 1435W        W 5499   8.863   3.377   3.652 -0.1301  0.0607  0.1278
 1436W        W 5500   5.781   8.344   9.073  0.2541  0.1687 -0.3358
 1437W        W 5501   8.177   8.724   8.381 -0.0621  0.1170  0.3647
 1438W        W 5502  10.066   1.709   9.306  0.0327 -0.0458 -0.1933
 1439W        W 5503   4.644   3.662  10.973  0.1614 -0.2963 -0.2300
 1440W        W 5504  10.459   7.082   1.745  0.0387  0.1114  0.0988
 1441W        W 5505   1.692   9.306   9.517 -0.1221  0.4269  0.0402
 1442W        W 5506   2.758   6.004   9.062 -0.0652  0.0430  0.3946
 1443W        W 5507   4.655   6.575  11.526  0.1370  0.0940 -0.1898
 1444W        W 5508   4.927   3.513   3.426  0.1543  0.0451  0.1348
 1445W        W 5509   3.913   8.191   8.331 -0.1325 -0.1356 -0.3851
 1446W        W 5510   4.579   3.899  11.493 -0.0660 -0.4967 -0.0137
 1447W        W 5511   4.580   3.970   1.502  0.1755  0.0530  0.0710
 1448W        W 5512  10.526   0.233   9.143  0.1149  0.0548  0.2301
 1449W        W 5513   3.219   7.529   8.766  0.1944 -0.0725  0.0588
 1450W        W 5514   5.152   4.651   0.499  0.0452 -0.0774 -0.0108
 1451W        W 5515   7.736   4.075   9.063  0.1511  0.0926  0.0716
 1452W        W 5516   3.831   3.984  11.179  0.1952  0.1566  0.2788
 1453W        W 5517   1.450   0.808   1.157 -0.2409  0.0589 -0.0508
 1454W        W 5518   9.967   7.820  11.314  0.1814  0.0314 -0.1295
 1455W        W 5519   8.715   8.449   9.382  0.0694 -0.3266 -0.1638
 1456W        W 5520   5.347   7.513  10.975  0.1015 -0.1211  0.0871
 1457W        W 5521   4.562   7.441   8.554 -0.0318 -0.0604 -0.0424
 1458W        W 5522   7.137   8.457   0.953 -0.3135  0.1664 -0.2770
 1459W        W 5523   3.128   8.965   8.384 -0.1823  0.4954  0.3242
 1460W        W 5524   9.355   0.264   1.545  0.0741  0.0087  0.1900
 1461W        W 5525   4.109   8.084   9.175  0.2501 -0.1817 -0.3037
 1462W        W 5526   8.790   5.821   9.338  0.5431 -0.2036 -0.0978
 1463W        W 5527   7.101   5.336   7.973  0.1037  0.2255 -0.1719
 1464W        W 5528   7.918   1.679   8.404 -0.6209  0.0624 -0.2870
 1465W        W 5529   2.360   9.396   2.395 -0.1439 -0.0881 -0.2774
 1466W        W 5530   0.046   4.018  10.842  0.2548 -0.2462 -0.0461
 1467W        W 5531   2.941   0.945   8.948  0.0204 -0.2622 -0.0744
 1468W        W 5532  10.280   4.006   3.036 -0.1715 -0.1007 -0.3106
 1469W        W 5533  10.223   2.200   2.098  0.1360  0.1761  0.0888
 1470W        W 5534   2.196   9.875  10.456  0.0778 -0.0859 -0.2245
 1471W        W 5535   1.570   4.782   2.456  0.0060  0.0160 -0.0571
 1472W        W 5536   1.560   2.135  10.495  0.5100  0.0080 -0.0282
 1473W        W 5537   2.653   9.014   3.244 -0.2837  0.1178  0.1731
 1474W        W 5538   3.522   8.232   3.120 -0.0234  0.0674  0.1161
 1475W        W 5539   2.706   0.115   1.150  0.2042  0.0857  0.1622
 1476W        W 5540   3.361   6.520   1.622  0.0602  0.0954  0.0747
 1477W        W 5541   8.905   2.078  11.380  0.1194  0.1353  0.1407
 1478W        W 5542   9.118   2.912  11.038 -0.1337  0.1860 -0.2056
 1479W        W 5543   5.317   7.760   0.008 -0.2327  0.0937 -0.0563
 1480W        W 5544   1.747   9.339   8.082  0.1621  0.0684  0.0269
 1481W        W 5545   1.407   9.729   9.371 -0.1088 -0.0034 -0.1083
 1482W        W 5546   3.969   0.439   9.053 -0.0971 -0.1126  0.0267
 1483W        W 5547   1.312   2.303   8.622 -0.2393 -0.1663 -0.1237
 1484W        W 5548   1.561   4.620   1.957 -0.0498  0.1087 -0.1658
 1485W        W 5549   2.202   6.069   3.275 -0.1215 -0.2151 -0.0463
 1486W        W 5550   3.018   6.557   3.534  0.0570 -0.2044  0.1298
 1487W        W 5551   7.313   0.353   7.812  0.1153  0.0186  0.0032
 1488W        W 5552   0.908   1.938   1.956  0.1451 -0.0089  0.1400
 1489W        W 5553   3.899   5.006   7.952 -0.0969 -0.3173 -0.0789
 1490W        W 5554   4.658   8.878   9.363  0.0466  0.2055 -0.1241
 1491W        W 5555   2.086   3.231   2.496  0.0359  0.5635 -0.1652
 1492W        W 5556   1.234   0.670   0.327 -0.3185 -0.1819 -0.1787
 1493W        W 5557   0.457  10.488   3.363  0.2336  0.0120 -0.0104
 1494W        W 5558   9.707   1.052   0.437 -0.3707  0.1834 -0.0363
 1495W        W 5559  10.527   2.146   1.407 -0.1245 -0.0142 -0.1119
 1496W        W 5560   2.545   3.721   9.325  0.2044  0.3952 -0.0213
 1497W        W 5561   0.060   5.807   9.293 -0.2745 -0.0961 -0.0651
 1498W        W 5562   0.223   3.323  10.137  0.2893  0.0671 -0.0594
 1499W        W 5563   3.439   2.725   9.125 -0.1025 -0.1667  0.0879
 1500W        W 5564   9.244   9.470   8.619 -0.0757  0.0726 -0.1300
 1501W        W 5565   5.162   0.553   3.157  0.1265  0.1037 -0.0150
 1502W        W 5566   0.638   6.080   7.976 -0.3711  0.2015  0.2432
 1503W        W 5567   7.298   2.633   0.324  0.4100  0.0083  0.1165
 1504W        W 5568   4.125   4.223   1.765 -0.1949 -0.0343  0.4361
 1505W        W 5569   9.409   6.946  11.467  0.0204  0.3568  0.1949
 1506W        W 5570   2.977   8.304   9.587  0.1461 -0.0684  0.2024
 1507W        W 5571   3.244   5.988  11.345  0.0368  0.1570 -0.1628
 1508W        W 5572   3.363  10.177   1.087  0.1038 -0.0472 -0.1252
 1509W        W 5573   7.134   1.454   3.042 -0.0655 -0.1849 -0.1360
 1510W        W 5574   7.078   5.928   0.701 -0.2506  0.1869  0.0446
 1511W        W 5575  10.127   2.315   1.073 -0.0551  0.0983  0.0162
 1512W        W 5576  10.420  10.621   2.863 -0.1072 -0.1003  0.0624
 1513W        W 5577   9.086   2.165   0.289  0.0026  0.1715 -0.1038
 1514W        W 5578   9.300   1.471   3.290  0.1309  0.2672  0.0475
 1515W        W 5579   0.942   0.321   0.189  0.2777  0.2635 -0.0072
 1516W        W 5580   9.633   8.105   3.994 -0.1591  0.0206  0.1352
 1517W        W 5581   0.633   2.229   9.374 -0.0819  0.2470  0.3850
 1518W        W 5582   5.155  10.155   3.662  0.0698  0.1380 -0.0427
 1519W        W 5583   6.866   3.628   2.984  0.2783  0.2239  0.2270
 1520W        W 5584   8.870   5.467   1.965  0.0704 -0.0409 -0.0619
 1521W        W 5585   5.110   0.598  11.107  0.3827  0.1414  0.2387
 1522W        W 5586   4.547   6.734   8.029 -0.5433 -0.1208  0.1486
 1523W        W 5587   7.346   2.173   8.568  0.0748 -0.1863 -0.3003
 1524W        W 5588   4.150   9.173   1.641 -0.2603 -0.2242  0.1892
 1525W        W 5589   1.104   5.083   9.427  0.0849 -0.1778 -0.0430
 1526W        W 5590   9.478   4.089  11.514  0.1324 -0.3764  0.0272
 1527W        W 5591   4.611   4.349   1.823  0.2283 -0.0424  0.2126
 1528W        W 5592   7.463   9.658   8.647  0.1657  0.1678  0.1276
 1529W        W 5593   1.110   8.198   1.975 -0.0423 -0.2461  0.1930
 1530W        W 5594   0.753   5.714   9.324  0.2294  0.2491 -0.1398
 1531W        W 5595   6.000   8.513   1.686  0.0642 -0.1114 -0.0297
 1532W        W 5596   9.618   0.354  10.560 -0.1831  0.0826 -0.1483
 1533W        W 5597  10.267   4.925   9.390 -0.2624  0.2657 -0.1037
 1534W        W 5598   0.307   2.605   3.234 -0.1118 -0.0145 -0.0208
 1535W        W 5599   6.382   0.001   8.327 -0.2171  0.0634  0.3439
 1536W        W 5600   0.558   6.338  11.491 -0.1029  0.0306 -0.1874
 1537W        W 5601   4.045   2.562   2.011  0.1071  0.1431 -0.0746
 1538W        W 5602   6.192   8.055   0.426 -0.1513 -0.0853 -0.1767
 1539W        W 5603   1.385   8.329  10.182  0.1224  0.1425  0.2122
 1540W        W 5604   2.964   3.744  10.591  0.1010 -0.2954 -0.0247
 1541W        W 5605   4.302   7.658   3.151  0.0498 -0.4546  0.0692
 1542W        W 5606   4.260   6.165   0.014 -0.0676  0.1571  0.1343
 1543W        W 5607   4.742   3.055   3.313 -0.1451  0.1523 -0.0712
 1544W        W 5608  10.413   7.377   2.165  0.0424 -0.0653 -0.0305
 1545W        W 5609   0.031   4.084   8.538 -0.1226  0.0375  0.1166
 1546W        W 5610   5.612   2.280   0.241 -0.1440 -0.0811  0.1345
 1547W        W 5611   3.337   2.740   1.489 -0.0318  0.1504 -0.0010
 1548W        W 5612   3.685  10.388   9.383 -0.1008  0.0358 -0.1403
 1549W        W 5613   7.198   1.897   3.445  0.1799  0.1158  0.0196
 1550W        W 5614   5.625   7.818   7.464 -0.2241  0.0421 -0.2504
 1551W        W 5615   1.006   6.720   9.277  0.1476  0.1122  0.1529
 1552W        W 5616   1.329   0.195  10.453 -0.1480  0.1237  0.0261
 1553W        W 5617   1.875   7.171   2.374 -0.1721  0.1206 -0.2288
 1554W        W 5618   4.093   5.400  10.255 -0.0920  0.2347 -0.0592
 1555W        W 5619   0.024   8.503   9.740  0.1664  0.1513 -0.0920
 1556W        W 5620   4.967   6.358  10.367 -0.3859 -0.0444  0.0952
 1557W        W 5621   5.526   1.471   8.248  0.1553  0.0033 -0.1712
 1558W        W 5622   6.890   9.452   7.312  0.2501 -0.0131 -0.0991
 1559W        W 5623   5.474   3.485   3.524  0.0143 -0.1191  0.2414
 1560W        W 5624   5.227   3.521   0.338  0.0455 -0.0944  0.1841
 1561W        W 5625   7.740   2.988   4.385 -0.1971  0.0809  0.0186
 1562W        W 5626   3.805   6.182   2.352 -0.1047  0.0840  0.3325
 1563W        W 5627   0.822   5.477   3.005  0.2075  0.2247  0.0130
 1564W        W 5628   7.768   7.306  10.544 -0.0895  0.2357 -0.0177
 1565W        W 5629   8.351   7.904   9.953 -0.2992 -0.0417  0.2296
 1566W        W 5630   0.411   2.571   0.900 -0.1314 -0.0693 -0.0696
 1567W        W 5631   4.598   6.111   8.692  0.1851 -0.0969  0.3105
 1568W        W 5632   6.642   9.774   9.599  0.0336  0.0446 -0.0464
 1569W        W 5633   5.644   8.219   3.231 -0.0412  0.3540 -0.1472
 1570W        W 5634   4.007   8.052   1.928  0.3061  0.3999 -0.3003
 1571W        W 5635   9.976   0.563  10.223  0.1107  0.1302  0.0491
 1572W        W 5636   6.142  10.014   1.251 -0.0382  0.0491 -0.0885
 1573W        W 5637   5.169   3.576   9.475 -0.0190 -0.4759  0.1887
 1574W        W 5638   9.743   3.194   2.568  0.1259 -0.0555  0.2730
 1575W        W 5639   7.090   2.772  10.331 -0.0311 -0.0281  0.1836
 1576W        W 5640   5.415   9.704  10.708  0.0772 -0.1391  0.1126
 1577W        W 5641   2.952   2.817   8.887  0.1239  0.0968  0.0495
 1578W        W 5642   1.230   0.604  10.173 -0.0796 -0.0396 -0.1529
 1579W        W 5643   0.484   3.120   1.460 -0.0944  0.0017  0.0014
 1580W        W 5644   3.615   5.848   8.757  0.2511  0.1606  0.0505
 1581W        W 5645   3.853   6.932  11.145 -0.1100  0.0724 -0.1934
 1582W        W 5646   1.512   1.610   8.508 -0.0563 -0.1942  0.1099
 1583W        W 5647   1.509   4.929   0.352  0.1871 -0.0968 -0.2334
 1584W        W 5648   1.865   1.329   0.232 -0.1018  0.0690 -0.0688
 1585W        W 5649   2.814   3.851   3.936 -0.2381  0.1343  0.0943
 1586W        W 5650   7.152  10.056  11.148 -0.3494 -0.0823 -0.0956
 1587W        W 5651   2.565   9.988   1.254 -0.0737  0.0325  0.1798
 1588W        W 5652   5.374   1.453  10.646 -0.1164  0.0027 -0.2034
 1589W        W 5653  10.516   6.838  10.725 -0.0278 -0.2748 -0.2256
 1590W        W 5654   8.134   0.457   7.310 -0.0077 -0.0084 -0.1072
 1591W        W 5655   1.989   4.803   2.708 -0.2207 -0.3746 -0.0721
 1592W        W 5656   6.949   9.218   8.176  0.2337 -0.0957 -0.0047
 1593W        W 5657   4.685   6.824   1.253  0.3406 -0.0622 -0.0274
 1594W        W 5658   8.124   5.725   2.632  0.0014  0.2112 -0.3413
 1595W        W 5659   9.536   5.574  10.025  0.1109 -0.0111 -0.2936
 1596W        W 5660   6.334   2.417   9.649  0.0615 -0.0358 -0.3145
 1597W        W 5661   9.120   9.095   9.377  0.3033 -0.2715  0.1373
 1598W        W 5662  10.448   4.002  11.337  0.0239  0.0345 -0.0440
 1599W        W 5663   4.447   0.666   9.182 -0.4999 -0.1054 -0.0450
 1600W        W 5664   5.019   7.187   0.376 -0.3190 -0.1871 -0.0633
 1601W        W 5665   3.171   9.190   1.573 -0.2910 -0.0287  0.4083
 1602W        W 5666   7.576   4.822  10.765  0.1242 -0.3796 -0.0277
 1603W        W 5667   0.617   3.862   0.802 -0.2136  0.1753  0.2839
 1604W        W 5668   1.329   9.577   2.707  0.0996 -0.0303 -0.0550
 1605W        W 5669   6.737   8.699  10.956  0.2002 -0.1334  0.1230
 1606W        W 5670   5.812   5.549   8.245  0.2221  0.0603 -0.0636
 1607W        W 5671   5.888   8.675   3.387  0.0087 -0.0993 -0.0900
 1608W        W 5672   8.699   4.596   9.123  0.1092 -0.1298 -0.3357
 1609W        W 5673   3.838   2.701   2.811  0.0275 -0.1572 -0.0066
 1610W        W 5674  10.612   4.619   3.050  0.2324  0.2675 -0.3385
 1611W        W 5675   7.116   1.019   7.822  0.0978  0.3465  0.0099
 1612W        W 5676   5.527   3.631   8.635 -0.1731  0.0784  0.0630
 1613W        W 5677   9.861   0.517   8.325 -0.0455  0.2132 -0.1642
 1614W        W 5678   9.944   4.289   8.092 -0.2817 -0.0951 -0.2141
 1615W        W 5679   7.063   7.681   9.484  0.2377 -0.2475  0.0639
 1616W        W 5680   6.894   6.544   3.238  0.0607 -0.0620 -0.2765
 1617W        W 5681   5.815   4.701   4.201 -0.0389  0.0402 -0.1747
 1618W        W 5682   9.558   4.731   9.446 -0.0693  0.0115 -0.0295
 1619W        W 5683   4.368   7.195   2.993  0.2115  0.0274  0.1739
 1620W        W 5684   3.694   7.261   8.114  0.1633  0.1308 -0.0582
 1621W        W 5685   3.550   5.639   1.302 -0.2217  0.0127 -0.1830
 1622W        W 5686   7.614   3.548   9.917 -0.1409 -0.0412 -0.1875
 1623W        W 5687   5.597   7.178   0.410 -0.0363  0.1699 -0.0542
 1624W        W 5688   2.678   2.016   2.066 -0.1200 -0.0443 -0.1695
 1625W        W 5689   9.475   6.630   3.449  0.0927  0.1259  0.3539
 1626W        W 5690   3.273   4.392   3.529 -0.1461 -0.0106  0.1033
 1627W        W 5691   1.249   6.200   0.630 -0.0360 -0.1409  0.0668
 1628W        W 5692   3.360   8.001   9.645 -0.0855 -0.0313  0.1802
 1629W        W 5693   8.139   2.757   9.540 -0.1320  0.1876  0.2175
 1630W        W 5694   6.549   6.899   0.313  0.5721 -0.0822 -0.2165
 1631W        W 5695   5.371   7.724   8.213 -0.0993  0.5457  0.0540
 1632W        W 5696   7.723   1.973   2.657  0.2959  0.0222  0.3613
 1633W        W 5697   3.760   2.956   2.386 -0.1266 -0.0621 -0.2833
 1634W        W 5698   1.988   8.770   9.509 -0.1906  0.0222 -0.2145
 1635W        W 5699   7.354   4.597  11.212  0.4318  0.0162  0.2484
 1636W        W 5700   5.703   7.712  11.217 -0.1244  0.1968  0.0580
 1637W        W 5701   9.280   9.589   7.790 -0.1709  0.2425  0.1990
 1638W        W 5702   8.229   2.636   9.072 -0.2592 -0.0279 -0.0155
 1639W        W 5703   3.463   5.011   2.697  0.0675  0.1318  0.1008
 1640W        W 5704   3.209   7.861   1.117 -0.0377  0.5523  0.2593
 1641W        W 5705   0.223   7.946  10.161  0.3939 -0.2541 -0.0672
 1642W        W 5706   2.945   1.775   8.566 -0.1609  0.0077 -0.3219
 1643W        W 5707   4.203   6.873   8.638 -0.0407  0.0006  0.2436
 1644W        W 5708   4.039   5.669   1.176  0.2545  0.0504 -0.1207
 1645W        W 5709   6.470   1.512   1.310 -0.1886  0.0302  0.0453
 1646W        W 5710   9.840   7.143   8.956 -0.2741 -0.0181  0.0901
 1647W        W 5711   1.438   3.982   0.464  0.2192 -0.1371 -0.1073
 1648W        W 5712   5.995   0.311   1.335  0.2912  0.1386  0.0941
 1649W        W 5713   9.510   7.700   0.814  0.2487  0.1792  0.0667
 1650W        W 5714   5.682   2.316   9.095 -0.2212 -0.0020  0.0743
 1651W        W 5715   4.890   1.061   7.808  0.0427  0.2245  0.1090
 1652W        W 5716   1.657   3.540   7.919 -0.2780  0.2086 -0.2064
 1653W        W 5717   9.446   4.960   1.531  0.2535 -0.2015  0.1210
 1654W        W 5718   8.372   7.395   0.148 -0.0401 -0.1403  0.1779
 1655W        W 5719   4.712   8.735   0.965 -0.1739 -0.0076  0.0718
 1656W        W 5720   7.339   6.706   9.827 -0.2144  0.1589 -0.1245
 1657W        W 5721   0.748   0.894   0.164 -0.2515  0.1855 -0.1688
 1658W        W 5722   1.231  10.031   2.615  0.6201  0.2049 -0.0629
 1659W        W 5723   8.428   1.478   9.797 -0.2233 -0.1780  0.0825
 1660W        W 5724   9.949   7.002   0.837 -0.0533 -0.0721  0.0510
 1661W        W 5725   4.337   1.653  10.059  0.0239 -0.0618  0.0101
 1662W        W 5726   9.196   7.792  11.427 -0.2088  0.0605 -0.0750
 1663W        W 5727   6.753   8.345   8.115 -0.0648 -0.1684 -0.2063
 1664W        W 5728   1.296   6.160   3.569 -0.1764  0.0499 -0.3131
 1665W        W 5729   2.087   0.898   9.289 -0.0978 -0.1480  0.4304
 1666W        W 5730   3.415   7.050  10.776  0.0618 -0.0017  0.4345
 1667W        W 5731   0.218   2.903  11.023  0.0888  0.0502 -0.1580
 1668W        W 5732   3.213   0.839   2.252 -0.4310 -0.0418 -0.0885
 1669W        W 5733   2.451   7.145  10.809  0.0606  0.0994  0.2006
 1670W        W 5734  10.454   2.027   8.240 -0.0234  0.3448  0.2865
 1671W        W 5735   6.325   9.944   4.066 -0.0167  0.0951 -0.3359
 1672W        W 5736   4.356   3.020   0.197  0.0050  0.1549  0.1911
 1673W        W 5737   5.822   1.164   2.741  0.1974 -0.2751 -0.1034
 1674W        W 5738   5.046   6.041   2.659  0.0472 -0.2260  0.1090
 1675W        W 5739   3.045   8.263  11.456 -0.1505 -0.3528 -0.1242
 1676W        W 5740   0.454   5.642   1.059  0.0665  0.1959  0.1666
 1677W        W 5741   1.410   9.335  11.480  0.0774 -0.1270  0.0935
 1678W        W 5742   1.602   4.289   7.986 -0.0730  0.1228 -0.0622
 1679W        W 5743   0.013   9.465   1.132 -0.1395  0.2306 -0.0353
 1680W        W 5744   1.392   8.991   1.666  0.4536  0.0251  0.3505
 1681W        W 5745   7.912   9.509   3.417  0.2160 -0.1464 -0.0678
 1682W        W 5746   9.871   4.888   1.298 -0.0644 -0.1270  0.3915
 1683W        W 5747   8.992   8.891   3.273 -0.3340 -0.0418 -0.0807
 1684W        W 5748   2.297   7.758   1.210  0.0019 -0.0103  0.1033
 1685W        W 5749  10.070   4.438   8.622  0.0269  0.0369  0.2684
 1686W        W 5750   2.855   3.084   0.322 -0.1749  0.1488 -0.1506
 1687W        W 5751   7.828   0.064   0.780 -0.0192  0.2726  0.0226
 1688W        W 5752   9.422   9.937  11.349  0.0967  0.0161 -0.2422
 1689W        W 5753   6.637   9.921   8.448  0.0935  0.0276 -0.2080
 1690W        W 5754   7.625   7.195   0.519 -0.0905 -0.2344 -0.1490
 1691W        W 5755   6.096  10.419  10.379  0.2449 -0.3384 -0.2294
 1692W        W 5756   8.515   8.598   1.163  0.0959  0.3260 -0.0091
 1693W        W 5757   1.958  10.217   9.821 -0.0082  0.0506 -0.2164
 1694W        W 5758   0.927   3.211  11.493  0.0213 -0.0759 -0.0283
 1695W        W 5759  10.515   4.857   0.495  0.1861  0.1113 -0.1002
 1696W        W 5760   5.258   1.348   0.945  0.1931  0.3173 -0.0663
 1697W        W 5761   3.596   6.081   8.296 -0.0161  0.2834 -0.2182
 1698W        W 5762   8.163   8.998   3.175 -0.0211  0.1082 -0.2680
 1699W        W 5763   1.449   1.714   1.047  0.0525 -0.1275  0.1991
 1700W        W 5764   3.611   4.386   9.832  0.1179 -0.0096 -0.1763
 1701W        W 5765  10.137   7.858   9.199  0.3151 -0.5123  0.3193
 1702W        W 5766   3.897   1.637   1.465  0.1437 -0.0633 -0.0931
 1703W        W 5767   6.546   7.176   8.308  0.1950  0.4937  0.2407
 1704W        W 5768   5.631   1.766   9.335  0.1095  0.3321  0.0343
 1705W        W 5769   9.754   6.343  10.300  0.0158 -0.1871  0.1067
 1706W        W 5770   5.563   6.305   8.829 -0.1011  0.0150 -0.3655
 1707W        W 5771   8.805   3.231   2.358  0.1247  0.0549  0.0421
 1708W        W 5772   6.308   1.993  11.297 -0.1819  0.0809  0.0768
 1709W        W 5773   3.297   8.500   1.014  0.0492 -0.0374 -0.2304
 1710W        W 5774  10.585   1.445   1.263  0.2276  0.0582 -0.0438
 1711W        W 5775   6.610   5.293  10.380 -0.3473  0.1506 -0.1967
 1712W        W 5776   2.606   1.175   1.667 -0.2561 -0.0091 -0.0193
 1713W        W 5777   1.414   5.279   9.099 -0.1650  0.5256  0.0283
 1714W        W 5778   0.535   1.068   0.862 -0.0605 -0.0691 -0.1484
 1715W        W 5779   5.784   1.455   9.763  0.1162  0.0323 -0.0863
 1716W        W 5780   1.500   9.487   1.756 -0.0670 -0.1483  0.0314
 1717W        W 5781   1.470   7.634   3.336 -0.0082 -0.2786  0.0179
 1718W        W 5782   1.277   5.462   8.140 -0.1537  0.1409  0.3173
 1719W        W 5783   2.453   2.129  10.863  0.0145  0.4685  0.3331
 1720W        W 5784   6.650   6.927   1.806 -0.0016 -0.0814 -0.3938
 1721W        W 5785   0.100   0.590  11.327  0.1755 -0.3950 -0.0237
 1722W        W 5786   6.856   6.282  11.173 -0.1897  0.1614  0.1967
 1723W        W 5787   3.475   4.000   0.429  0.0889  0.2171  0.0816
 1724W        W 5788   4.832   8.271   3.678  0.1146  0.2707  0.0405
 1725W        W 5789   2.863   7.348   8.432 -0.1293  0.0101  0.1039
 1726W        W 5790   1.162   1.669   2.498 -0.0498  0.1145  0.0062
 1727W        W 5791   6.550   9.320   7.657  0.3354  0.0426 -0.0834
 1728W        W 5792   5.108   1.768   8.632 -0.0627  0.2369 -0.3804
 1729W        W 5793   6.074   7.317   0.137 -0.3947  0.1877  0.1041
 1730W        W 5794   9.107   1.482   8.970  0.0564  0.0455  0.0627
 1731W        W 5795   8.911   4.308   2.766 -0.1338  0.3347  0.0190
 1732W        W 5796   1.990   7.329   9.700 -0.1657  0.2957  0.0081
 1733W        W 5797   0.242   4.417   0.227  0.1885  0.0956 -0.2120
 1734W        W 5798  10.627   8.562  10.946  0.0617  0.3770 -0.1149
 1735W        W 5799   0.883   0.195   1.244 -0.2372  0.2569 -0.0336
 1736W        W 5800   4.967   9.142  10.296 -0.0358  0.0742  0.2010
 1737W        W 5801   3.967   5.679   9.816  0.2023  0.0967  0.1379
 1738W        W 5802   4.766   4.544   2.590  0.3234 -0.1849  0.0417
 1739W        W 5803   0.965   9.640  10.238  0.2724 -0.2209  0.0800
 1740W        W 5804   9.349   6.829   2.201 -0.1291  0.3739  0.3990
 1741W        W 5805   0.994   7.061   1.845 -0.4153 -0.0170 -0.1891
 1742W        W 5806   2.141   8.351   7.887  0.2671 -0.1162 -0.0998
 1743W        W 5807  10.473   9.845   9.499 -0.1977  0.0161 -0.2381
 1744W        W 5808  10.387   0.616   8.255  0.1242  0.1947 -0.0398
 1745W        W 5809   8.144   2.684  11.119  0.1354  0.4121 -0.0269
 1746W        W 5810   2.226   6.545   0.461  0.0104 -0.4082  0.2549
 1747W        W 5811   4.868   8.184   1.615 -0.4126 -0.4844  0.0168
 1748W        W 5812   7.839   4.509  11.113  0.0750  0.1001 -0.3532
 1749W        W 5813  10.203   5.635   9.480 -0.1262 -0.1514  0.3273
 1750W        W 5814   2.065   6.110  10.613  0.1754 -0.1408 -0.0665
 1751W        W 5815  10.152   6.931  11.120 -0.1994 -0.1143  0.0419
 1752W        W 5816   7.625   7.957   3.232 -0.2731 -0.0958 -0.0534
 1753W        W 5817   2.866   3.414   8.927 -0.2126 -0.2856 -0.0346
 1754W        W 5818   7.272   8.229   0.198  0.0471  0.2003  0.1110
 1755W        W 5819   2.778   5.586  10.629 -0.1410  0.1016 -0.2375
 1756W        W 5820   9.062   5.842   3.658  0.0654  0.0626  0.0679
 1757W        W 5821   7.726   1.039   3.256  0.1105  0.1135 -0.1653
 1758W        W 5822   7.714   1.122   1.480  0.1189 -0.0072 -0.0097
 1759W        W 5823   6.430   9.188   8.104 -0.0022  0.1000 -0.3374
 1760W        W 5824   4.947   7.961   9.275 -0.0189 -0.1564  0.0494
 1761W        W 5825   6.647  10.204   1.479 -0.0236  0.0779  0.1232
 1762W        W 5826   9.247   7.989   9.974  0.0756 -0.2054  0.0694
 1763W        W 5827   6.513   3.525   2.476 -0.1017  0.4157 -0.1268
 1764W        W 5828   4.176   5.690   2.786  0.2141  0.0690 -0.3928
 1765W        W 5829   5.964   3.468   3.604 -0.1495  0.1364  0.0229
 1766W        W 5830   2.991   1.453   8.057 -0.0105  0.2123  0.2787
 1767W        W 5831   5.972   2.128  10.856  0.1775 -0.4327 -0.0134
 1768W        W 5832   1.575   6.300   9.881 -0.0519  0.3939  0.1635
 1769W        W 5833   4.911   1.729   9.974 -0.1377 -0.1754 -0.1458
 1770W        W 5834   4.865   5.129   2.566 -0.0645  0.1866 -0.0931
 1771W        W 5835   5.481   2.209   7.614  0.0982 -0.2404 -0.2549
 1772W        W 5836   9.404   8.561  10.797 -0.2232  0.0180 -0.3400
 1773W        W 5837  10.019   3.573   0.375 -0.3400 -0.1696 -0.3812
 1774W        W 5838   0.141   2.593   1.531  0.1668 -0.2937 -0.0443
 1775W        W 5839   5.474   3.285   2.886  0.1228  0.0890  0.2402
 1776W        W 5840   0.767   8.105   9.351 -0.2087  0.3014 -0.4763
 1777W        W 5841   4.115   4.910   3.167 -0.2098 -0.0095 -0.0474
 1778W        W 5842   1.438   1.216   3.633  0.2217  0.2628 -0.1825
 1779W        W 5843   6.603   6.107   3.804  0.2116  0.0321 -0.1454
 1780W        W 5844   3.148   4.032   1.563 -0.1660 -0.2824 -0.1870
 1781W        W 5845   4.876   0.211   1.880 -0.0104 -0.2124 -0.2462
 1782W        W 5846   3.845  10.057   9.740 -0.0087 -0.1215 -0.1656
 1783W        W 5847   9.696   9.059   3.881  0.2042 -0.2547 -0.1100
 1784W        W 5848   3.855   1.005   2.347  0.1133  0.2661 -0.0668
 1785W        W 5849   4.575   2.387   2.194 -0.0066  0.0854 -0.1911
 1786W        W 5850   2.397   7.124   3.133  0.0904  0.1134  0.0546
 1787W        W 5851   7.495   2.019  10.740 -0.1482 -0.2129 -0.1698
 1788W        W 5852   0.462  10.381  10.146 -0.2015 -0.1856 -0.2217
 1789W        W 5853   3.026   5.258   9.272 -0.1089 -0.0729  0.1112
 1790W        W 5854   6.440   2.217  10.504  0.1115 -0.2227 -0.1219
 1791W        W 5855   8.334   8.186   2.833  0.2687  0.2253  0.0045
 1792W        W 5856   1.716   6.633   2.304 -0.0986 -0.0086 -0.0817
 1793W        W 5857   1.285   4.831  10.509  0.3195 -0.0512 -0.2181
 1794W        W 5858   4.562   7.289   9.219 -0.2734 -0.0229  0.1111
 1795W        W 5859   3.766   7.171   1.204 -0.0243  0.0195 -0.5910
 1796W        W 5860   6.482   0.152  10.486 -0.3541  0.0199 -0.1791
 1797W        W 5861  10.430   6.559   2.636  0.2712  0.1065  0.3366
 1798W        W 5862   9.852   7.706   2.857 -0.0502 -0.1842  0.1812
 1799W        W 5863   8.394   6.414   0.385  0.0818  0.3590  0.0574
 1800W        W 5864   2.067   5.030  10.955 -0.0843  0.1481 -0.0236
 1801W        W 5865   6.478   6.585   9.769  0.0656 -0.0751 -0.1966
 1802W        W 5866   6.646   1.636  11.185  0.1777 -0.1200  0.2600
 1803W        W 5867   0.424   7.642  10.923 -0.0312  0.0440 -0.0800
 1804W        W 5868   7.965  10.517   1.786 -0.2107 -0.0712 -0.0918
 1805W        W 5869   5.340   8.786  10.211  0.1150 -0.3177 -0.0196
 1806W        W 5870  10.069   8.647   7.276  0.0968 -0.1836 -0.2334
 1807W        W 5871   1.223   6.660  10.867 -0.0581 -0.2472  0.1594
 1808W        W 5872   9.271   3.200   8.405  0.0975 -0.0942 -0.1345
 1809W        W 5873   6.309   4.812   7.945 -0.2215  0.1457 -0.1273
 1810W        W 5874   9.988   4.847   8.355  0.0939 -0.2296 -0.1150
 1811W        W 5875  10.350   1.250   2.249 -0.0382 -0.3346  0.2708
 1812W        W 5876   8.464   7.732   1.955 -0.0296 -0.1362 -0.1901
 1813W        W 5877   2.492   9.637   7.914 -0.2671 -0.0521 -0.1179
 1814W        W 5878   5.914   9.779   9.337 -0.1755  0.0437  0.0031
 1815W        W 5879   3.743   5.932   0.726 -0.2583  0.0705 -0.1113
 1816W        W 5880   7.473   3.599   1.281 -0.2198 -0.0548  0.1486
 1817W        W 5881   1.228   6.416   2.579 -0.2911 -0.1747 -0.2285
 1818W        W 5882   8.885   4.802   3.512 -0.1252 -0.1329  0.1637
 1819W        W 5883   9.080   1.869   2.513 -0.2555  0.0202  0.0959
 1820W        W 5884   2.663   9.901   2.824 -0.2944 -0.1851  0.2234
 1821W        W 5885   9.451   9.395   7.337 -0.1698 -0.2327 -0.0262
 1822W        W 5886   8.345   3.652   0.536 -0.2179 -0.1594  0.1104
 1823W        W 5887   5.602   3.890  11.247 -0.0939 -0.1059 -0.1230
 1824W        W 5888   1.237   8.016   1.464  0.1102  0.0135  0.0172
 1825W        W 5889   3.638   9.488  10.767 -0.0641  0.1613 -0.0523
 1826W        W 5890   3.660   5.282  10.004  0.1567 -0.1391  0.0954
 1827W        W 5891  10.323   0.506   2.873 -0.0342  0.2742  0.1805
 1828W        W 5892   9.015   5.677   1.480 -0.0562  0.3426  0.0380
 1829W        W 5893   8.163   0.903   0.218 -0.0839 -0.1053 -0.0874
 1830W        W 5894   4.805  10.533   7.873 -0.4908  0.1110  0.1456
 1831W        W 5895   0.107   6.844   0.203  0.1817 -0.0749  0.1283
 1832W        W 5896   5.810   7.870   8.217 -0.0827  0.2853 -0.1595
 1833W        W 5897  10.105   5.845   9.903 -0.0446 -0.3771  0.2505
 1834W        W 5898   6.083   2.297   3.192 -0.0250 -0.1626  0.0465
 1835W        W 5899   2.156   2.291   8.457 -0.1424 -0.2297 -0.0842
 1836W        W 5900   7.512   6.696   7.821 -0.0884  0.0260 -0.1200
 1837W        W 5901   8.391  10.386   9.521  0.0500  0.1975  0.2338
 1838W        W 5902   3.091   1.710   9.442 -0.3683  0.0059 -0.2375
 1839W        W 5903   8.291   7.855   3.276 -0.0661  0.2220 -0.1222
 1840W        W 5904   7.920   8.939   7.946  0.0182  0.0303 -0.0349
 1841W        W 5905  10.194   1.609  11.031  0.1739 -0.5292 -0.0954
 1842W        W 5906   1.148   0.057   2.048 -0.3040 -0.0313 -0.1608
 1843W        W 5907   6.072   3.105   8.118 -0.1891  0.1852 -0.0738
 1844W        W 5908   4.504   4.411   9.843  0.1352  0.0156 -0.0963
 1845W        W 5909  10.498   3.694   9.287 -0.0110  0.1119  0.2125
 1846W        W 5910   9.235  10.573   8.142  0.3628  0.0458  0.0044
 1847W        W 5911   6.087   8.353   3.050 -0.0287  0.2689 -0.2382
 1848W        W 5912   0.383   9.365   2.990  0.1256 -0.0886 -0.2504
 1849W        W 5913   2.446   1.122   9.009 -0.1650 -0.0582  0.1021
 1850W        W 5914   5.987   3.770   7.301  0.0175  0.2399  0.0996
 1851W        W 5915   4.551   4.403   3.067 -0.0647  0.2422  0.0284
 1852W        W 5916  10.196   2.769   8.523 -0.3202 -0.1177  0.0101
 1853W        W 5917   0.335   5.771   1.621 -0.0295 -0.1165 -0.1051
 1854W        W 5918   6.404   7.052   4.033 -0.1988  0.0885  0.1708
 1855W        W 5919   0.076  10.558   2.475  0.1434  0.0989  0.1579
 1856W        W 5920   6.975   5.360   0.664 -0.0206 -0.1286  0.5672
 1857W        W 5921   7.160   3.052   9.494 -0.2711  0.2129 -0.2128
 1858W        W 5922   7.394   3.525   2.262  0.1706  0.2381 -0.2997
 1859W        W 5923   3.237   2.363   0.081 -0.3585 -0.2761  0.1780
 1860W        W 5924   5.441   3.366   8.092 -0.1362  0.0951 -0.1342
 1861W        W 5925   0.691   5.194   8.731 -0.0434  0.0242 -0.0414
 1862W        W 5926   9.103   0.024   0.193 -0.2616 -0.0159 -0.1827
 1863W        W 5927   0.778   7.355  10.763 -0.3922  0.1113 -0.3172
 1864W        W 5928   6.544   5.619   7.186 -0.1238 -0.3591  0.2629
 1865W        W 5929   0.169   8.968   8.703  0.1657 -0.1805  0.1222
 1866W        W 5930   4.816   3.622   2.182  0.1314 -0.2517  0.1135
 1867W        W 5931   4.217   6.564  10.544  0.1908  0.0082 -0.1314
 1868W        W 5932  10.574   0.121  10.695  0.0721 -0.6770 -0.1347
 1869W        W 5933   6.885  10.615   0.536 -0.0853 -0.2933 -0.0896
 1870W        W 5934   4.687  10.471   9.294  0.1224  0.0425 -0.0464
 1871W        W 5935   2.336   0.141   9.733  0.0096 -0.0406 -0.2137
 1872W        W 5936   4.347   9.637   3.622 -0.0069  0.0738 -0.1721
 1873W        W 5937   6.633   9.258   0.673 -0.0635 -0.0127  0.4119
 1874W        W 5938   4.571   0.638   9.902 -0.3036  0.4611  0.3229
 1875W        W 5939   3.369   7.764  11.371  0.0134  0.0807 -0.3007
 1876W        W 5940   7.939   0.458   0.301  0.2376 -0.0459 -0.0722
 1877W        W 5941   3.529   8.541   8.424 -0.0440 -0.0554 -0.0038
 1878W        W 5942  10.500   9.550   2.220 -0.1585 -0.0419 -0.0437
 1879W        W 5943   7.199   9.441  10.466  0.0407 -0.0749 -0.0401
 1880W        W 5944   5.953   7.697   2.944 -0.0666 -0.0237 -0.2258
 1881W        W 5945   0.046   9.479   8.756  0.0671  0.2906 -0.2883
 1882W        W 5946   4.711   7.819   1.284  0.3111 -0.3253  0.0182
 1883W        W 5947   8.918  10.428   1.508 -0.0435 -0.2807 -0.1528
 1884W        W 5948   0.327   2.933   1.939 -0.0703 -0.3425 -0.1036
 1885W        W 5949   9.556   6.564   7.634 -0.0548  0.1253  0.0356
 1886W        W 5950   3.396   7.774   2.181 -0.0614  0.2468 -0.1201
 1887W        W 5951   6.950   7.039   0.118  0.0457  0.0614  0.1643
 1888W        W 5952   2.036   9.545   2.778  0.0428  0.1501  0.1462
 1889W        W 5953   8.164   9.161   2.690 -0.1083 -0.3135 -0.1808
 1890W        W 5954   6.230   5.060   8.898 -0.3295 -0.1932  0.1146
 1891W        W 5955   1.385   2.145   0.745  0.0416 -0.2759 -0.2463
 1892W        W 5956   6.104   1.209   2.281  0.0586  0.0539 -0.1059
 1893W        W 5957   8.917   2.717   2.316 -0.0051 -0.2424 -0.2617
 1894W        W 5958   5.490   7.243  11.397  0.0633  0.2376 -0.0426
 1895W        W 5959   3.619   7.355  11.166 -0.0583  0.0858 -0.0530
 1896W        W 5960   8.159   1.786  10.601 -0.0307 -0.2572 -0.0033
 1897W        W 5961   3.235   1.603   3.403  0.0326  0.0373  0.1531
 1898W        W 5962   9.467   8.940   3.435  0.1968 -0.1924 -0.0203
 1899W        W 5963   0.195   6.105   8.878  0.0273 -0.3087  0.1031
 1900W        W 5964   0.695   5.688   9.960  0.5340  0.0679  0.0787
 1901W        W 5965   1.871   7.801   4.097  0.1798  0.0751 -0.1861
 1902W        W 5966   6.210   3.427   9.428  0.0338 -0.0796 -0.1423
 1903W        W 5967   9.784   5.742  10.842 -0.0047  0.3176  0.1215
 1904W        W 5968   8.855  10.613   3.371 -0.2461 -0.0649 -0.0918
 1905W        W 5969   9.240   1.578   1.162 -0.1240  0.0307  0.2224
 1906W        W 5970   8.253   0.327   0.779  0.2593  0.1311 -0.0172
 1907W        W 5971   2.911   3.335   2.840  0.2858  0.3439 -0.0569
 1908W        W 5972   3.182   1.436   0.806 -0.4068  0.1560  0.0240
 1909W        W 5973   2.723   8.631   1.396  0.1727  0.4067  0.1660
 1910W        W 5974   2.583   5.518   1.714 -0.1224 -0.0395  0.1051
 1911W        W 5975   0.724  10.546  10.949  0.1167  0.0531 -0.0277
 1912W        W 5976   5.584   5.640   2.182  0.0005 -0.0835  0.0446
 1913W        W 5977   6.498   6.470   8.244  0.4153 -0.1308  0.2052
 1914W        W 5978   9.489  10.175   3.494 -0.1614 -0.3168 -0.2955
 1915W        W 5979   7.027   6.669   3.685 -0.3687 -0.0470 -0.1273
 1916W        W 5980   7.977   6.250   9.299  0.0249  0.1491 -0.1265
 1917W        W 5981   6.630   2.576   1.422  0.0099  0.0661  0.4818
 1918W        W 5982   2.099   2.860   3.471 -0.0050  0.1419 -0.0190
 1919W        W 5983   5.084   1.277   8.414  0.4379 -0.3191 -0.1726
 1920W        W 5984   0.210   9.207  10.057  0.1908 -0.3130 -0.1584
 1921W        W 5985   1.476  10.094   9.784 -0.1852 -0.1979  0.0015
 1922W        W 5986   6.295   9.240   2.341 -0.1325 -0.1267  0.2316
 1923W        W 5987   0.895   1.044   3.875  0.0752  0.0872 -0.0819
 1924W        W 5988   1.562   1.738   2.821 -0.4160 -0.1753 -0.5196
 1925W        W 5989   1.209   9.257   9.535 -0.0172  0.1003 -0.1159
 1926W        W 5990   5.985   5.090   4.570  0.2647  0.1095 -0.1042
 1927W        W 5991   3.053   1.225   1.947 -0.0575  0.0416  0.0627
 1928W        W 5992   4.750   1.723  10.551 -0.0615 -0.0657  0.1832
 1929W        W 5993   5.146   7.496   2.397 -0.0622 -0.2862  0.1400
 1930W        W 5994  10.329   7.021   0.081  0.1132  0.1134 -0.1353
 1931W        W 5995   2.596   8.853  10.138  0.3102 -0.0818  0.1834
 1932W        W 5996   1.853   5.663   7.978  0.1000 -0.1167  0.0729
 1933W        W 5997   4.364   5.079   8.670 -0.2635 -0.2075  0.0519
 1934W        W 5998  10.355   4.890   2.611 -0.1575 -0.1043 -0.2521
 1935W        W 5999   7.131   0.301  11.287 -0.3745  0.1327 -0.0843
 1936W        W 6000   7.485   2.148   7.212  0.0190 -0.0438  0.0422
 1937W        W 6001   3.464   8.725   2.482  0.2256  0.3190 -0.4464
 1938W        W 6002   3.334   1.610   0.307  0.3378 -0.1771 -0.1178
 1939W        W 6003   6.156   5.668   2.175 -0.1263 -0.0893 -0.0365
 1940W        W 6004   1.605   3.825  10.618  0.0510  0.2179  0.1342
 1941W        W 6005   4.786   5.761   8.343  0.0506 -0.1037  0.0605
 1942W        W 6006   3.746   9.432   1.963 -0.0345 -0.0448  0.0392
 1943W        W 6007   2.052   6.196   9.772 -0.1489 -0.2769  0.0813
 1944W        W 6008  10.111   7.608   9.750 -0.1852  0.0632  0.2206
 1945W        W 6009   6.378   3.800   8.605  0.1467  0.1282  0.0626
 1946W        W 6010   7.147   1.593   4.441 -0.1819 -0.3761 -0.1025
 1947W        W 6011   4.600   9.167   1.290  0.4229  0.1879  0.1043
 1948W        W 6012   4.456   3.542   3.391  0.1523 -0.0763 -0.1489
 1949W        W 6013   6.810   8.029   2.661 -0.1202 -0.1196 -0.0859
 1950W        W 6014   5.526   5.715   4.089 -0.1028 -0.0776 -0.1495
 1951W        W 6015   8.078   9.095  11.517 -0.4155 -0.0901 -0.2218
 1952W        W 6016   3.031   1.913   0.705 -0.3178  0.4225 -0.2109
 1953W        W 6017   7.012   7.308  10.269 -0.1495 -0.0307  0.2086
 1954W        W 6018   1.317   8.788  10.409 -0.3903  0.2674 -0.2071
 1955W        W 6019   0.277   5.947   9.752  0.2011  0.1877  0.0447
 1956W        W 6020   3.286   8.827   9.255  0.2471  0.0172 -0.0614
 1957W        W 6021   1.106   4.037   0.830  0.0111 -0.1502  0.0482
 1958W        W 6022   6.856   5.594   0.240 -0.0126 -0.0396  0.1770
 1959W        W 6023   3.100   3.562   0.750  0.1625 -0.0771 -0.1580
 1960W        W 6024   8.906   8.908   1.230 -0.1315  0.1217  0.2147
 1961W        W 6025   6.238   6.259  10.547  0.2146  0.1599 -0.1479
 1962W        W 6026   0.788   0.520  10.467 -0.2855 -0.0674  0.2048
 1963W        W 6027   6.045   2.641  10.049 -0.3353 -0.3781 -0.1048
 1964W        W 6028  10.036   0.866   9.133  0.1750 -0.0781  0.0103
 1965W        W 6029   9.779   9.388   2.842  0.0321 -0.1750  0.1282
 1966W        W 6030   7.318   1.507   9.095  0.1650 -0.3975 -0.5865
 1967W        W 6031   6.503   3.534   3.542 -0.2853  0.0636 -0.1790
 1968W        W 6032   2.411   1.605   3.391 -0.3448 -0.0184  0.3536
 1969W        W 6033   3.281   6.063   2.801  0.1162 -0.1363 -0.3621
 1970W        W 6034   2.689   7.218   9.605 -0.1090 -0.2977 -0.0627
 1971W        W 6035   6.171   7.139   0.604  0.2970  0.4252  0.0020
 1972W        W 6036   3.912   5.678   0.281  0.0187 -0.1476  0.0660
 1973W        W 6037  10.316   1.700   3.064  0.3311 -0.1413  0.1100
 1974W        W 6038   1.252   1.976   9.955  0.1818  0.1263 -0.3339
 1975W        W 6039   1.451   4.977   9.980  0.1271 -0.0146  0.2945
 1976W        W 6040   7.570   3.836   3.715  0.1042 -0.1245 -0.3447
 1977W        W 6041   8.194   9.368   3.777 -0.2891  0.2452  0.1529
 1978W        W 6042   7.317   5.229   1.625 -0.2242 -0.1417  0.2140
 1979W        W 6043   1.021   8.654  10.067 -0.2361  0.0185 -0.3571
 1980W        W 6044   4.764   0.678   3.648  0.3076  0.0660  0.3429
 1981W        W 6045   1.491   0.452   1.862  0.2083  0.0354 -0.0516
 1982W        W 6046   8.789   9.385   1.662 -0.5013 -0.2304  0.0841
 1983W        W 6047   6.371   0.787   3.145  0.0746 -0.2553 -0.1502
 1984W        W 6048   6.344   4.077   8.143 -0.1091 -0.3385 -0.2288
 1985W        W 6049   5.946   8.891   2.160 -0.0205  0.1242 -0.2423
 1986W        W 6050   4.815   4.966   3.875  0.0124  0.2252  0.1221
 1987W        W 6051   5.237   2.920   1.912 -0.0922  0.0366  0.2004
 1988W        W 6052   4.480  10.597   1.533  0.1245  0.0201  0.3105
 1989W        W 6053   5.127   2.188   0.333  0.1755  0.0576 -0.0169
 1990W        W 6054   4.534   4.847   2.224 -0.0598 -0.1020  0.4087
 1991W        W 6055   3.488   9.865   8.227  0.1094  0.0702 -0.1732
 1992W        W 6056   0.883   1.339  10.981 -0.4335 -0.0642  0.1058
 1993W        W 6057   7.025   4.880  10.201 -0.0437  0.2034 -0.0873
 1994W        W 6058   4.973   7.477   9.073 -0.1718  0.0538 -0.1794
 1995W        W 6059   2.683   3.201   9.407 -0.1824 -0.0608  0.1153
 1996W        W 6060   3.450   4.328  11.056  0.4031 -0.3345 -0.1616
 1997W        W 6061   9.149   4.221   1.413 -0.2440 -0.0817 -0.2120
 1998W        W 6062   6.647   9.173   3.783 -0.1267  0.1213 -0.4637
 1999W        W 6063   1.422   4.212   8.745 -0.1128 -0.0471 -0.0580
 2000W        W 6064   7.512   8.441   2.021  0.1312  0.0872  0.0007
 2001W        W 6065   7.313   8.304   9.814  0.0343 -0.0787 -0.2516
 2002W        W 6066   5.009   5.698   8.809  0.4217 -0.2963  0.0498
 2003W        W 6067   0.544   0.277   9.444 -0.0827  0.3184  0.1004
 2004W        W 6068   9.442   6.623   8.967  0.4510 -0.0993  0.1155
 2005W        W 6069   4.530   2.760   8.752 -0.1396  0.0211  0.1636
 2006W        W 6070   6.394   4.022   1.647 -0.1348  0.0804 -0.0235
 2007W        W 6071   6.978   0.265   9.706 -0.1945 -0.0530  0.2446
 2008W        W 6072   4.165   6.452   8.246  0.1700 -0.0946 -0.0914
 2009W        W 6073   4.768   4.337   0.820 -0.0704 -0.0474  0.7186
 2010W        W 6074   8.511   5.189   2.565  0.2750 -0.1352  0.0603
 2011W        W 6075   2.792   9.558   1.323  0.1556 -0.1503 -0.2650
 2012W        W 6076   2.874   4.623   3.254  0.1551  0.0995  0.3627
 2013W        W 6077   1.150   0.236   3.592 -0.2914  0.0404 -0.2726
 2014W        W 6078   8.616   0.620   8.009 -0.2304 -0.0004 -0.1598
 2015W        W 6079   5.781   6.807   2.765  0.0441  0.0149 -0.0488
 2016W        W 6080  10.030   9.459   9.478  0.0177  0.2729 -0.2756
 2017W        W 6081   7.433   4.038   3.101 -0.3358 -0.1910 -0.3256
 2018W        W 6082   4.104   3.661  10.966  0.1853 -0.1217 -0.1287
 2019W        W 6083   9.195   1.008   2.169 -0.2009 -0.1070 -0.2281
 2020W        W 6084   4.285   3.233   1.598  0.2321  0.0692 -0.1936
 2021W        W 6085   6.963   2.170   7.704 -0.2361 -0.2768 -0.0914
 2022W        W 6086   0.246   8.471   8.909 -0.0552 -0.1479 -0.0105
 2023W        W 6087   2.866   7.853  11.265  0.1530 -0.1645  0.0835
 2024W        W 6088   1.270   5.750   2.389  0.0663  0.1747 -0.0817
 2025W        W 6089   5.687   9.090   0.215 -0.0723  0.1936 -0.0035
 2026W        W 6090   7.705   5.879   8.233 -0.0276 -0.0620  0.1014
 2027W        W 6091   9.788   0.511   9.762 -0.0237 -0.0470  0.0590
 2028W        W 6092   1.966   7.834  10.898 -0.0452  0.0933 -0.3733
 2029W        W 6093   1.750   8.708   2.722  0.2466 -0.1127 -0.1740
 2030W        W 6094   4.395   2.730   1.643 -0.2416  0.2534  0.5042
 2031W        W 6095   1.175   9.838   3.122 -0.0326 -0.2125  0.4323
 2032W        W 6096   2.720   4.762  10.163 -0.3593 -0.0685 -0.0310
 2033W        W 6097  10.018   9.825   8.386 -0.1348 -0.0943  0.1002
 2034W        W 6098   1.841   9.584  10.096  0.0483 -0.2308 -0.2879
 2035W        W 6099   4.888   2.332  10.383 -0.0631  0.1832 -0.1033
 2036W        W 6100   2.157  10.480   7.859 -0.3110  0.1316  0.1354
 2037W        W 6101   7.908   0.658   1.607  0.0148  0.1881  0.1619
 2038W        W 6102   5.562   4.104   7.476  0.0751 -0.2382 -0.1613
 2039W        W 6103   1.665   8.071  10.571 -0.1825 -0.1270 -0.1321
 2040W        W 6104   1.328   8.991   7.856 -0.1222 -0.0393 -0.0600
 2041W        W 6105   7.103   2.238   4.376  0.0989  0.1313 -0.0399
 2042W        W 6106   1.373   6.183   1.627  0.2673 -0.0608  0.2844
 2043W        W 6107   8.826   0.301   1.553  0.2100 -0.5230  0.0583
 2044W        W 6108   1.173   5.509   9.706 -0.0114  0.0654  0.1234
 2045W        W 6109   1.441   8.310   1.103  0.2473  0.0404 -0.0450
 2046W        W 6110   0.760   4.232   1.613  0.0809  0.1387  0.1433
 2047W        W 6111   8.834   7.844   2.807  0.1376 -0.2791 -0.0215
 2048W        W 6112   6.993   4.995   8.348  0.1522 -0.0803 -0.0936
 2049W        W 6113   1.658   0.914   4.012 -0.0837  0.1726  0.4680
 2050W        W 6114   6.041   0.725   2.698  0.0240 -0.0025  0.0473
 2051W        W 6115   3.066   8.938   1.138  0.2238 -0.4330  0.1935
 2052W        W 6116   9.898   9.260   9.068  0.2100  0.0666  0.0881
 2053W        W 6117   6.157   7.819  10.401 -0.1404 -0.2685 -0.0734
 2054W        W 6118   5.375   9.649   8.173  0.0848 -0.0172  0.1911
 2055W        W 6119   7.204   9.354   0.535 -0.1804 -0.2760 -0.3138
 2056W        W 6120   2.596   1.029   0.589 -0.1264  0.1438 -0.2103
 2057W        W 6121  10.133   5.447  10.220 -0.2361 -0.4262 -0.3548
 2058W        W 6122   6.293   2.916   1.313  0.2396  0.1786 -0.1132
 2059W        W 6123   4.494  10.587  10.720 -0.2345 -0.0169  0.0802
 2060W        W 6124   8.594   1.295   0.303  0.1177 -0.1981 -0.2147
 2061W        W 6125  10.570   8.820  11.436  0.0445 -0.0149  0.0182
 2062W        W 6126   3.174   6.083   9.304  0.1102  0.0567 -0.0040
 2063W        W 6127   9.404   2.948   1.586 -0.4786 -0.0321 -0.1855
 2064W        W 6128   0.876   2.251   0.551  0.1266  0.2217 -0.1228
 2065W        W 6129   0.932   6.449  11.169  0.2994 -0.0477 -0.0752
 2066W        W 6130   9.159   3.322   7.838  0.0137 -0.2404  0.1242
 2067W        W 6131   8.794   1.766   1.642 -0.1476 -0.2109 -0.2744
 2068W        W 6132   1.101   3.054  10.405  0.3692  0.0710  0.1832
 2069W        W 6133   9.032   6.781   3.737  0.3146  0.2222  0.0351
 2070W        W 6134   4.377   9.939   9.656  0.0006  0.0553  0.0090
 2071W        W 6135   6.628   2.715  10.135 -0.0651 -0.1314 -0.3659
 2072W        W 6136   8.267  10.436   0.804  0.1830 -0.0171  0.4862
 2073W        W 6137   8.566   8.963   0.828  0.1216 -0.1215 -0.0282
 2074W        W 6138   6.138   6.961   8.151 -0.0806  0.1642  0.2410
 2075W        W 6139   9.411   5.614   0.791 -0.2015 -0.3491 -0.0608
 2076W        W 6140   8.772   2.354   8.209 -0.0758 -0.0282 -0.0898
 2077W        W 6141   8.936   0.517   0.284  0.1487  0.1119 -0.3155
 2078W        W 6142   2.020   7.382   1.460  0.2770 -0.1143 -0.0422
 2079W        W 6143   7.576   4.388   7.946  0.2629 -0.1723 -0.4439
 2080W        W 6144   0.661   8.409   2.040 -0.0740 -0.2274 -0.5468
 2081W        W 6145   6.959   4.831   2.373  0.2715  0.0060 -0.1397
 2082W        W 6146   3.360   8.532   0.257 -0.0935  0.0401  0.1418
 2083W        W 6147   8.030   8.956  11.034  0.2541  0.0167  0.0411
 2084W        W 6148   3.351   0.183  11.348 -0.0652  0.1915  0.0003
 2085W        W 6149   3.036   4.781   2.270  0.3616 -0.1436  0.5586
 2086W        W 6150   5.902   9.919   3.838  0.0398  0.1811  0.1578
 2087W        W 6151   4.197   8.077   7.917  0.2554  0.1562 -0.1571
 2088W        W 6152   7.954   0.175   3.169 -0.0884 -0.2339  0.3341
 2089W        W 6153   8.600   1.647   3.963  0.1702  0.2128 -0.0148
 2090W        W 6154   4.780   3.691   8.930  0.2247 -0.3247 -0.0785
 2091W        W 6155   8.139   4.626  11.528  0.3329 -0.3002  0.1438
 2092W        W 6156   9.922   1.865   3.737 -0.1371  0.1064 -0.1966
 2093W        W 6157   8.911   6.500   0.612 -0.1641  0.3109  0.0700
 2094W        W 6158   3.162   3.480   3.857  0.2093  0.4293 -0.0772
 2095W        W 6159   0.165   0.427   8.176  0.0403  0.1283  0.0003
 2096W        W 6160   6.661   7.481   9.772 -0.0976 -0.2654 -0.1377
 2097W        W 6161   5.884   4.168   0.404 -0.0944  0.3181 -0.1705
 2098W        W 6162   9.604   9.199   9.552 -0.0694  0.1649  0.0698
 2099W        W 6163   8.562   5.550   1.585  0.0078 -0.2197 -0.2212
 2100W        W 6164   2.333   6.017   0.772 -0.3215  0.0095 -0.0789
 2101W        W 6165   7.442   4.379   1.668  0.0459 -0.1811 -0.0234
 2102W        W 6166   5.022   6.336   2.011 -0.0089 -0.0792  0.4289
 2103W        W 6167   5.960   8.335   8.219 -0.2584 -0.2951  0.1542
 2104W        W 6168   2.925   4.063   8.734  0.0264 -0.0876 -0.0028
 2105W        W 6169   1.085   4.164   8.248  0.2275 -0.0646 -0.0245
 2106W        W 6170   5.401   3.983   9.586 -0.2547  0.1026  0.1261
 2107W        W 6171  10.522   0.326  10.289  0.0696  0.1860 -0.2137
 2108W        W 6172   6.469   5.252   2.329  0.0930 -0.2423  0.2275
 2109W        W 6173   2.719   4.958  10.616  0.0871  0.2070  0.2797
 2110W        W 6174   7.040   9.407   3.038 -0.3850  0.0525  0.2529
 2111W        W 6175   7.908   3.184   2.545 -0.0084  0.0663 -0.3335
 2112W        W 6176  10.148   5.998   0.345 -0.2614  0.2832 -0.4979
 2113W        W 6177   1.112   4.170   0.127 -0.1637  0.0508  0.4262
 2114W        W 6178   0.860   2.229   8.387 -0.0331 -0.5919 -0.0320
 2115W        W 6179   7.773   0.233  11.421 -0.1915  0.1246  0.1517
 2116W        W 6180   3.716   9.346  10.198  0.1886 -0.0758  0.3260
 2117W        W 6181   5.985   3.126  10.026  0.4783 -0.3025  0.1703
 2118W        W 6182   6.993   9.785   1.302  0.1990  0.2085  0.2559
 2119W        W 6183   1.903   2.820   7.670 -0.1495 -0.2598 -0.0814
 2120W        W 6184   5.220  10.463   9.167 -0.2713 -0.2898  0.2755
 2121W        W 6185   0.803   6.344   0.477 -0.3673  0.2011 -0.0585
 2122W        W 6186   6.009   9.871   2.948  0.2186  0.1995 -0.1474
 2123W        W 6187  10.664   2.524   2.020 -0.1442  0.2517 -0.2190
 2124W        W 6188   8.435   8.305   3.597  0.0306  0.2372 -0.0454
 2125W        W 6189   5.167   1.144   3.682 -0.1500  0.1687  0.2467
 2126W        W 6190   7.467   7.613   3.585 -0.0126 -0.2712 -0.0062
 2127W        W 6191   6.206   5.289  10.874  0.0466  0.1809  0.0493
 2128W        W 6192   6.759   3.802   8.273  0.3320 -0.0458  0.2170
 2129W        W 6193   1.819   8.627   9.924  0.2452  0.0143  0.0836
 2130W        W 6194   0.561   2.885   2.682 -0.0691 -0.2095 -0.2235
 2131W        W 6195   8.014   5.474   1.650  0.2843  0.1739  0.0305
 2132W        W 6196   4.267   0.222   9.987  0.2390  0.3048 -0.0831
 2133W        W 6197   2.204   0.658   0.675  0.0713 -0.0093  0.0055
 2134W        W 6198   8.319   4.595   8.559  0.0962 -0.3382  0.1055
 2135W        W 6199   8.621   6.584   3.960 -0.1453 -0.2753  0.0975
 2136W        W 6200   1.327   1.276  11.151  0.0169  0.0508 -0.0166
 2137W        W 6201   9.136   4.359  10.544  0.0241  0.1177 -0.2383
 2138W        W 6202   3.650  10.259   8.471  0.0577 -0.2546  0.0348
 2139W        W 6203   3.582   0.167  10.269  0.1262 -0.1229 -0.0718
 2140W        W 6204   9.868   2.590   8.845  0.0801 -0.0156  0.2818
 2141W        W 6205   1.838   3.744   1.551  0.1120  0.0035 -0.0003
 2142W        W 6206   4.369   6.503   1.431 -0.3962  0.1624 -0.0439
 2143W        W 6207   0.843   6.976   3.450  0.2841  0.2215  0.2294
 2144W        W 6208   0.389   0.303   3.530  0.3866 -0.0035 -0.0694
 2145W        W 6209   5.284   5.254   9.596  0.2244 -0.2423  0.2018
 2146W        W 6210   9.703   0.859   2.147  0.0479 -0.2163  0.1498
 2147W        W 6211   6.610   1.531  10.164  0.0205  0.1734 -0.2375
 2148W        W 6212   8.482   6.688  11.465 -0.0614  0.1995  0.0423
 2149W        W 6213   7.240   5.598   3.178 -0.1651  0.0146 -0.0123
 2150W        W 6214   0.367   6.932  10.039  0.2296  0.0814  0.0276
 2151W        W 6215   1.622   0.422  10.860  0.1458 -0.1235 -0.0407
 2152W        W 6216   4.180   9.579   0.746  0.1078 -0.3502  0.0567
 2153W        W 6217   2.008   1.297   1.392 -0.1892 -0.6424 -0.0077
 2154W        W 6218   4.951   6.392   9.846 -0.0078 -0.0497  0.1805
 2155W        W 6219   5.194   3.650   2.597  0.0082  0.1180  0.0329
 2156W        W 6220   2.717   0.993   0.065  0.1870 -0.0602  0.0013
 2157W        W 6221   0.052   1.066  11.513  0.3335 -0.0971 -0.0524
 2158W        W 6222   2.504   2.663   1.020 -0.2088 -0.0112  0.0835
 2159W        W 6223   7.828   7.487  10.038 -0.0002  0.0962  0.3219
 2160W        W 6224   0.690   6.843   9.662  0.0903 -0.1111 -0.2650
 2161W        W 6225   9.565   9.571   9.975 -0.0960 -0.0873 -0.0848
 2162W        W 6226   8.000   6.426   0.681  0.1022 -0.1376  0.0115
 2163W        W 6227  10.291   4.297  10.945 -0.0527  0.3351  0.0989
 2164W        W 6228   2.925   6.228   2.476  0.0977 -0.0054  0.3597
 2165W        W 6229   1.750   1.338  10.089 -0.0803 -0.2930 -0.0267
 2166W        W 6230   5.625   9.963  10.196  0.1040  0.0476 -0.2643
 2167W        W 6231   0.154   1.463  11.201  0.1873  0.3069  0.0403
 2168W        W 6232   4.232   9.911   2.284 -0.0230 -0.1854  0.2955
 2169W        W 6233   1.355   7.224   9.072  0.1383 -0.2360 -0.0075
 2170W        W 6234   0.815   5.781   1.931 -0.1169  0.0330  0.2196
 2171W        W 6235   8.955   1.640   0.423 -0.0745 -0.2662 -0.0820
 2172W        W 6236   8.666   0.877   1.082  0.1234  0.1150 -0.0524
 2173W        W 6237  10.009   8.068  10.382 -0.0783  0.0982 -0.2248
 2174W        W 6238   1.450   4.463   1.058  0.0502 -0.0070  0.0008
 2175W        W 6239   8.470   8.163   0.955 -0.0960  0.2081 -0.1152
 2176W        W 6240   7.192  10.244   1.389  0.1833  0.3332 -0.2429
 2177W        W 6241   8.885   2.213  10.475 -0.0239  0.2485 -0.0364
 2178W        W 6242   6.218   7.729  11.285  0.2044 -0.0609 -0.3333
 2179W        W 6243   5.905   9.541  10.189  0.0892 -0.0748 -0.0262
 2180W        W 6244   9.569  10.188   2.262  0.0662 -0.2414 -0.2909
 2181W        W 6245   6.013   3.883   9.434 -0.0276  0.0454  0.2141
 2182W        W 6246   7.685   5.982   3.615 -0.0300  0.1235 -0.0299
 2183W        W 6247   3.191   2.664  10.335  0.2634  0.3082 -0.1176
 2184W        W 6248  10.546   0.745   0.319 -0.0855 -0.0298 -0.2255
 2185W        W 6249   5.985   8.649  10.065  0.0201 -0.1885 -0.1653
 2186W        W 6250   4.370   4.247   8.213  0.0916 -0.0394 -0.1453
 2187W        W 6251   8.074   2.555   2.048 -0.0131 -0.2102 -0.1230
 2188W        W 6252   9.188   2.169   7.855 -0.2324  0.4644 -0.0797
 2189W        W 6253   4.213   0.679  10.243  0.1520  0.2981 -0.0600
 2190W        W 6254   1.206   8.396   0.221  0.2624 -0.1493  0.0692
 2191W        W 6255   2.624   8.817   0.923  0.0833 -0.3301 -0.1432
 2192W        W 6256   3.997   3.438  10.076 -0.1573 -0.0497 -0.0039
 2193W        W 6257   1.073   4.775   2.277 -0.2116  0.2973  0.0552
 2194W        W 6258   8.430   0.319   0.247  0.1081  0.0091 -0.1757
 2195W        W 6259   7.919   0.926  10.469  0.0543 -0.0262 -0.0894
 2196W        W 6260   8.869   8.225   1.346 -0.3366  0.2824  0.2187
 2197W        W 6261   8.727   8.411   9.979  0.0385  0.1320 -0.1126
 2198W        W 6262   7.123   3.220   8.151  0.3618  0.1482  0.0291
 2199W        W 6263  10.303   1.341  10.159 -0.1719  0.2344 -0.2026
 2200W        W 6264   4.974   5.512  10.567 -0.0058 -0.2995  0.0284
 2201W        W 6265   7.758   6.500   8.385 -0.2226 -0.0085 -0.0574
 2202W        W 6266   6.077   9.162   3.481 -0.4252  0.1735 -0.0692
 2203W        W 6267   3.192   0.485   1.132 -0.2494  0.0930 -0.2814
 2204W        W 6268   2.922   9.299   2.288 -0.0044  0.1427  0.0126
 2205W        W 6269   8.787   9.993   1.783  0.0105 -0.0467  0.0895
 2206W        W 6270   5.671   0.611   6.594 -0.2077  0.4206 -0.0963
 2207W        W 6271   8.210   2.111   2.208  0.1642  0.0536 -0.0958
 2208W        W 6272   9.209   9.981  10.009  0.2032 -0.2299  0.1581
 2209W        W 6273   1.295   3.026   1.494  0.1129 -0.0105  0.0787
 2210W        W 6274   9.797   0.086  10.173  0.1659  0.2364  0.1308
 2211W        W 6275   1.484   1.104   2.188 -0.1577 -0.0762 -0.0276
 2212W        W 6276   2.453   8.611   9.668 -0.4034 -0.1060  0.3693
 2213W        W 6277   9.195   6.886  10.080  0.1939 -0.0550 -0.1392
 2214W        W 6278   3.835   1.343  10.759 -0.1197  0.1686 -0.1340
 2215W        W 6279   9.110   5.504   9.151 -0.1596  0.1179  0.0493
 2216W        W 6280   0.952   3.943   8.719  0.1321  0.1420  0.0011
 2217W        W 6281   3.110   2.277  10.803  0.0561  0.0825  0.0571
 2218W        W 6282   0.509   1.685  10.906 -0.1259  0.2964 -0.2953
 2219W        W 6283   9.245   8.859   0.897  0.1586 -0.2193  0.3636
 2220W        W 6284   3.904   5.038   9.529  0.1570 -0.0994 -0.1161
 2221W        W 6285   4.746   1.884   8.280 -0.0653 -0.1505  0.0377
 2222W        W 6286   7.906   0.742   2.544 -0.1057  0.5241  0.1586
 2223W        W 6287   9.487   1.554  10.800 -0.0268 -0.2603  0.0834
 2224W        W 6288   4.395   7.950   8.333 -0.3250 -0.3213 -0.0924
 2225W        W 6289   6.379   5.483   0.167  0.2061 -0.3957  0.0254
 2226W        W 6290   3.986   7.539   9.330  0.0020 -0.1021 -0.3484
 2227W        W 6291   7.252   2.238   3.127  0.1023  0.2614  0.0502
 2228W        W 6292   9.997   0.532   1.098 -0.0235  0.1895  0.1423
 2229W        W 6293   2.524   6.299   8.698 -0.0027 -0.0363 -0.0440
 2230W        W 6294   0.399   4.437  11.338 -0.0766  0.0199 -0.0886
 2231W        W 6295   3.793   2.351   8.381  0.0072  0.0957  0.1113
 2232W        W 6296   9.841   2.547  11.464 -0.0914 -0.0822 -0.0798
 2233W        W 6297   4.144   1.875   2.544 -0.1716  0.3257  0.0400
 2234W        W 6298   8.099   8.663  10.510 -0.0070 -0.0292  0.5660
 2235W        W 6299   0.715   4.922   1.890 -0.1425  0.2624  0.1906
 2236W        W 6300  10.114   1.101   8.081  0.3419 -0.3154 -0.0988
 2237W        W 6301   4.748   1.369  10.194 -0.0781  0.2524 -0.1131
 2238W        W 6302  10.364   2.710   0.254 -0.2049  0.1723 -0.0451
 2239W        W 6303   7.822   5.323  10.899  0.1233 -0.2438 -0.0392
 2240W        W 6304   0.787   7.215  10.134 -0.0713  0.0501  0.1502
 2241W        W 6305   7.607   1.250   8.375 -0.0268  0.0296 -0.0476
 2242W        W 6306   6.809   9.672   4.128  0.0489 -0.0425 -0.0940
 2243W        W 6307   3.983   4.893   0.071  0.0663  0.2386 -0.0735
 2244W        W 6308   8.494   0.066   8.535  0.1088  0.5069 -0.3384
 2245W        W 6309   9.173   4.865   9.820  0.1333 -0.2447  0.1372
 2246W        W 6310   3.089   7.694  10.413 -0.0321  0.1264  0.2125
 2247W        W 6311   7.406   3.172   3.587  0.0160 -0.0771 -0.3251
 2248W        W 6312   0.004   7.793   3.264  0.0370  0.1088  0.1324
 2249W        W 6313   2.069   0.376   2.427  0.1871 -0.2573 -0.0000
 2250W        W 6314   2.670   7.734   2.908 -0.1067 -0.1600 -0.0302
 2251W        W 6315   8.086   9.985   2.976 -0.0971 -0.2921 -0.0464
 2252W        W 6316   1.688   8.718   1.351  0.0117 -0.0644  0.2094
 2253W        W 6317   9.651  10.274   0.954  0.1091 -0.4826 -0.0175
 2254W        W 6318   8.133   4.659   1.772 -0.2647  0.0374  0.2869
 2255W        W 6319   9.308   2.044  10.940 -0.0121 -0.0875 -0.0865
 2256W        W 6320   5.560   4.982   0.686 -0.1403 -0.1245 -0.2827
 2257W        W 6321   6.344   2.987   9.778  0.2829 -0.1280  0.0880
 2258W        W 6322   3.318   4.918   3.631 -0.1451  0.2125  0.0273
 2259W        W 6323   6.287   4.250   0.765 -0.5587  0.0147  0.0383
 2260W        W 6324   2.541   3.362   2.394 -0.1510 -0.2543 -0.0149
 2261W        W 6325   1.543   4.910   8.707 -0.0127 -0.0290 -0.1839
 2262W        W 6326   6.798  10.116  10.828 -0.1659 -0.2168  0.2949
 2263W        W 6327   4.119   2.811  10.089 -0.0014 -0.2327 -0.0766
 2264W        W 6328   8.032   7.800   0.157 -0.1310 -0.1693  0.1561
 2265W        W 6329   2.639   9.393   0.894  0.2321  0.0359 -0.1443
 2266W        W 6330   2.879   6.200   7.799 -0.3724  0.0639 -0.0120
 2267W        W 6331   9.189   5.951   1.882  0.0203  0.1472 -0.1117
 2268W        W 6332   4.828   3.167   8.871 -0.2407 -0.1756  0.4366
 2269W        W 6333   8.639   4.268   3.773 -0.2016 -0.0913  0.0121
 2270W        W 6334   5.084   0.530   9.799  0.1434 -0.0822 -0.1512
 2271W        W 6335   2.921   1.445   1.325  0.1326 -0.2881  0.1999
 2272W        W 6336   6.715   9.161  11.171  0.1061  0.3272 -0.0837
 2273W        W 6337   7.944   0.248   2.636  0.2383 -0.2122  0.0171
 2274W        W 6338   7.429   9.957   1.025  0.2328 -0.1279 -0.1546
 2275W        W 6339   1.667   8.395   8.048 -0.0797  0.0085  0.0729
 2276W        W 6340   3.479   4.964   9.152 -0.0235  0.3108 -0.2895
 2277W        W 6341   0.684   9.258  10.892  0.1788  0.3587  0.1790
 2278W        W 6342   5.737   5.502  10.450  0.0882  0.1802 -0.0111
 2279W        W 6343   1.821  10.488   8.917 -0.3763  0.3624 -0.0607
 2280W        W 6344   6.057   1.063   0.344  0.2054  0.0201  0.3025
 2281W        W 6345  10.234   6.388  10.491 -0.2484 -0.2761 -0.0991
 2282W        W 6346   7.930   2.169   8.441  0.3572 -0.1519  0.1444
 2283W        W 6347   3.942   9.513   3.144  0.0656 -0.1017  0.0165
 2284W        W 6348   6.442   2.371  10.941  0.1613 -0.1082 -0.4429
 2285W        W 6349   3.113   7.787   9.272 -0.0153  0.3174 -0.3358
 2286W        W 6350   9.005   1.848   3.382  0.0034 -0.2366 -0.2161
 2287W        W 6351   8.012   1.995   0.338 -0.2453 -0.0342 -0.2249
 2288W        W 6352   4.769   1.991  11.145  0.1036  0.3359 -0.1193
 2289W        W 6353   8.761   0.783   2.407  0.3891  0.4434  0.1697
 2290W        W 6354   7.104   5.382  10.088  0.0547 -0.1669 -0.0011
 2291W        W 6355   7.304   8.105   9.367  0.0738 -0.0516  0.2182
 2292W        W 6356   6.697   4.518   8.216 -0.1747  0.3116  0.3706
 2293W        W 6357   8.282   0.612  10.682  0.1187 -0.0279  0.0684
 2294W        W 6358   3.263   2.298   9.369 -0.0976  0.2491  0.1325
 2295W        W 6359  10.241   4.425   1.510  0.0681  0.1972  0.0465
 2296W        W 6360   9.381   7.973   7.627 -0.0860 -0.3285  0.0582
 2297W        W 6361   3.857   0.694   2.890  0.1066 -0.1216  0.0867
 2298W        W 6362   6.345   1.306  10.601 -0.2181 -0.0558  0.2993
 2299W        W 6363   2.073   3.517   9.454 -0.0223 -0.2227 -0.4150
 2300W        W 6364   2.350   4.763   3.074  0.1656  0.1364  0.0218
 2301W        W 6365   6.662   8.630   1.808 -0.3219  0.0992  0.3620
 2302W        W 6366  10.638   7.686  10.533 -0.1215  0.2465 -0.0308
 2303W        W 6367   9.100   7.824   8.618  0.0375 -0.0999 -0.0540
 2304W        W 6368   8.182   4.573  10.767  0.0063  0.0979 -0.0224
 2305W        W 6369   0.850   2.866   1.793 -0.3467 -0.1425  0.0339
 2306W        W 6370   8.199   3.662   8.026 -0.3978 -0.0182  0.1177
 2307W        W 6371   9.512   1.097   8.816 -0.0292 -0.0214  0.0105
 2308W        W 6372   2.250   9.942   3.032  0.1674  0.0581 -0.0103
 2309W        W 6373   6.638   5.212  11.349 -0.3662 -0.0319 -0.0075
 2310W        W 6374   4.491   8.375   1.906  0.2571 -0.2910 -0.0227
 2311W        W 6375   2.002   4.835   1.693  0.0060 -0.4733  0.0641
 2312W        W 6376   9.928   9.208   9.943 -0.1818  0.1246 -0.0116
 2313W        W 6377   6.392   8.425   2.684 -0.0903  0.2209  0.0829
 2314W        W 6378   1.606   1.257   0.874  0.1952 -0.2882 -0.1168
 2315W        W 6379   1.812   2.753   9.745  0.2138 -0.2174  0.0959
 2316W        W 6380   7.945   5.243   2.692  0.2048  0.2244  0.1316
 2317W        W 6381   2.218   5.295  10.554  0.0539  0.0280  0.0499
 2318W        W 6382   1.641   2.699   3.165 -0.2303  0.1894  0.0013
 2319W        W 6383   9.996   7.177   3.320 -0.1877 -0.0536  0.1038
 2320W        W 6384   3.599   8.839  10.095 -0.0750 -0.1238 -0.0288
 2321W        W 6385   4.313   3.862   8.752 -0.1003 -0.1222 -0.0035
 2322W        W 6386   3.738   2.971   0.545 -0.1677  0.2586 -0.1551
 2323W        W 6387   2.403   1.586   8.880  0.0759 -0.3788  0.0274
 2324W        W 6388   6.274   5.958   3.050  0.1869  0.0919 -0.0215
 2325W        W 6389   7.208   8.020   0.655 -0.0122 -0.1825  0.1976
 2326W        W 6390   8.233   3.908   1.009 -0.1687 -0.3817  0.2744
 2327W        W 6391   1.091   0.865  11.333  0.0996 -0.0774  0.0390
 2328W        W 6392   6.508   3.429   0.054  0.2999 -0.0302 -0.1079
 2329W        W 6393   3.168   5.675   8.960 -0.1019  0.1538  0.1636
 2330W        W 6394   8.972   8.187   0.137  0.0800  0.1600 -0.2350
 2331W        W 6395   0.453   9.921   0.312 -0.1962 -0.0232  0.0645
 2332W        W 6396  10.585   5.894   1.831 -0.1270  0.2726  0.0753
 2333W        W 6397   0.569   9.101   3.832  0.4489 -0.0440 -0.1187
 2334W        W 6398   7.957   3.978   2.327  0.0092 -0.2742 -0.0931
 2335W        W 6399   9.828   1.468   3.491  0.0308  0.1433 -0.2703
 2336W        W 6400   1.043   5.896   8.931 -0.1301  0.0600 -0.1278
 2337W        W 6401   2.068   7.037   8.251 -0.1734 -0.3266 -0.0851
 2338W        W 6402   9.876   6.643  10.738 -0.0881  0.0161  0.0954
 2339W        W 6403   2.912   9.468   8.750 -0.0848  0.2760 -0.0147
 2340W        W 6404   9.586   3.831   0.402  0.1226  0.1294 -0.0984
 2341W        W 6405   2.809  10.559   1.993 -0.1091  0.2724  0.2822
 2342W        W 6406   8.610   3.822   1.553 -0.1864 -0.1430 -0.3441
 2343W        W 6407   1.756   1.336   3.237 -0.4183  0.2013 -0.0899
 2344W        W 6408   8.162   1.230   8.592 -0.0690 -0.3121  0.4129
 2345W        W 6409   6.019   0.138   9.593 -0.2175 -0.0116  0.2419
 2346W        W 6410   9.622   7.160   9.864  0.0667 -0.1829  0.0845
 2347W        W 6411   9.427  10.006   9.068 -0.0381  0.1659  0.4830
 2348W        W 6412   8.797   5.001  11.271  0.1296  0.1074 -0.1773
 2349W        W 6413   1.583   9.107   0.896 -0.1921  0.0811  0.0844
 2350W        W 6414   8.210   1.150   3.356 -0.1618 -0.1780  0.0149
 2351W        W 6415  10.022   2.853  11.005 -0.0180  0.0378 -0.0995
 2352W        W 6416   4.971   4.360   1.357 -0.0588  0.3315  0.1946
 2353W        W 6417   8.556   2.981  11.302  0.0505  0.3842 -0.0410
 2354W        W 6418   2.505   4.543   1.148  0.0010 -0.0094 -0.0997
 2355W        W 6419   6.954  10.449   1.811  0.1122 -0.2449  0.2542
 2356W        W 6420   2.072   6.185   2.219 -0.2007 -0.0398 -0.1296
 2357W        W 6421  10.174   7.520   2.569 -0.0530  0.2037  0.0911
 2358W        W 6422   5.369  10.119   7.175  0.0438 -0.1182  0.1370
 2359W        W 6423   3.843   5.364  11.431  0.1477  0.0893 -0.0507
 2360W        W 6424   5.255   8.410   9.933 -0.1388 -0.0359  0.3406
 2361W        W 6425   8.564   1.054   2.885 -0.0242 -0.0148 -0.2416
 2362W        W 6426   9.402   1.980   0.624  0.0408  0.2512  0.1436
 2363W        W 6427   3.818   3.655   1.924 -0.2752  0.1870  0.0825
 2364W        W 6428   1.934   4.165   1.861  0.2671  0.2419 -0.0607
 2365W        W 6429   8.719   1.138   1.938 -0.0433 -0.3030  0.0016
 2366W        W 6430   6.582  10.492   0.884  0.0619  0.0269 -0.0220
 2367W        W 6431   8.722   6.201   9.816  0.0847 -0.0512 -0.0145
 2368W        W 6432  10.471   1.129   1.710  0.0616  0.1292  0.1764
 2369W        W 6433   8.079   7.607   2.194  0.0609  0.1870  0.0437
 2370W        W 6434   2.113   6.361   1.575 -0.3960 -0.1112  0.1482
 2371W        W 6435  10.392  10.002   3.075 -0.1540  0.0720 -0.0903
 2372W        W 6436  10.491   0.790   9.349 -0.0214  0.2183  0.0026
 2373W        W 6437   5.567   3.519   9.780  0.3962  0.2425 -0.1827
 2374W        W 6438   6.535   5.690  10.045  0.0768  0.5231  0.0048
 2375W        W 6439   3.261   0.561  10.218  0.1198 -0.1754 -0.0835
 2376W        W 6440   8.441   6.393   9.340  0.0419  0.1679  0.1985
 2377W        W 6441   0.840  10.539   9.172  0.1567 -0.2086 -0.3523
 2378W        W 6442   5.562   1.498   2.452 -0.3424  0.0834  0.2291
 2379W        W 6443   7.890   2.297   9.567  0.1669  0.0037  0.0907
 2380W        W 6444   4.251   6.205   1.975 -0.2303  0.0309  0.2917
 2381W        W 6445   7.632   0.138   8.174  0.0490 -0.0118  0.0992
 2382W        W 6446   1.455   1.758   9.000 -0.1579 -0.1127  0.0027
 2383W        W 6447   8.845   3.912  10.385  0.3060  0.1062 -0.2181
 2384W        W 6448  10.217   3.613   2.490 -0.0016  0.1836 -0.1309
 2385W        W 6449   9.920   3.370  11.039  0.3796 -0.0132 -0.0377
 2386W        W 6450   6.346   8.803   9.421  0.1826  0.0259 -0.1167
 2387W        W 6451   0.455   2.604   2.288 -0.0704 -0.2211 -0.0320
 2388W        W 6452   5.198   9.415   3.345  0.2054  0.1898 -0.0791
 2389W        W 6453   4.256   1.270  11.065  0.0613 -0.0404  0.1213
 2390W        W 6454   0.025   9.563   3.278 -0.0833  0.1063  0.1227
 2391W        W 6455   2.235   5.427   2.564  0.1274  0.2010  0.0676
 2392W        W 6456   4.035   4.753   1.294  0.1011  0.4358 -0.0505
 2393W        W 6457   1.167   7.274   3.143 -0.1592 -0.4584 -0.0357
 2394W        W 6458   6.020   3.470   8.975 -0.0666  0.3075  0.0438
 2395W        W 6459   0.484  10.650   2.166  0.0449 -0.1640 -0.0727
 2396W        W 6460   7.070   4.703  10.625  0.0755  0.0800  0.1615
 2397W        W 6461   6.669   8.299   2.252  0.4392  0.4736 -0.0101
 2398W        W 6462   0.299   4.858  10.309  0.1319 -0.0174 -0.1082
 2399W        W 6463   2.313   2.057   1.252 -0.0198  0.0736 -0.0214
 2400W        W 6464   0.183   4.242   1.513  0.1498 -0.1340 -0.2563
 2401W        W 6465   0.699   8.801  11.149  0.0927 -0.1317 -0.2322
 2402W        W 6466   0.285   0.527  10.177  0.2415 -0.0675  0.0710
 2403W        W 6467   1.260   4.688  11.548  0.1768 -0.1193 -0.1483
 2404W        W 6468   7.411   3.030   9.946  0.0051 -0.1108 -0.1369
 2405W        W 6469   7.441   8.877   8.566  0.0027 -0.0936  0.2999
 2406W        W 6470   4.736   8.147   2.236 -0.2627  0.3869 -0.2130
 2407W        W 6471   3.556   3.679   8.820 -0.0924  0.1911  0.0166
 2408W        W 6472   9.473   3.742  11.154 -0.2868 -0.2014 -0.2810
 2409W        W 6473   0.429   3.168   2.305  0.2224  0.2245  0.1222
 2410W        W 6474   6.978   7.031   3.195  0.1562 -0.0903 -0.2126
 2411W        W 6475   8.132   7.657  11.226 -0.1161  0.0075 -0.0730
 2412W        W 6476   1.566   2.030  11.221 -0.2892  0.2229 -0.2932
 2413W        W 6477   4.536   0.275   4.324 -0.1378  0.0362  0.4622
 2414W        W 6478   4.956   5.999  10.766 -0.3543  0.2950  0.1879
 2415W        W 6479   8.407   7.446   9.205  0.0690  0.0778 -0.0354
 2416W        W 6480   0.993   7.450   8.633 -0.0542 -0.1656 -0.0989
 2417W        W 6481   5.091   7.358   8.591  0.0122 -0.0774 -0.0658
 2418W        W 6482   6.284   7.952   3.968 -0.1150 -0.2820  0.1405
 2419W        W 6483   7.272   3.209  10.526 -0.0012 -0.0506 -0.0441
 2420W        W 6484   2.925  10.041   9.768 -0.3330 -0.0940  0.2090
 2421W        W 6485   1.116   9.499   3.511  0.0805  0.0487  0.2678
 2422W        W 6486   1.722   0.872   2.545 -0.1560  0.0612 -0.3668
 2423W        W 6487   9.998   7.630   0.781  0.0945 -0.0369  0.2000
 2424W        W 6488   5.250   4.367   2.403  0.0025  0.0240 -0.0459
 2425W        W 6489   0.537   8.401   0.812 -0.2454 -0.0735 -0.1897
 2426W        W 6490   2.705   6.651   0.280 -0.1193  0.0416 -0.1471
 2427W        W 6491   7.639   1.235  10.216  0.1266  0.0588 -0.0494
 2428W        W 6492   9.362   7.872   2.003  0.1726 -0.0681  0.0804
 2429W        W 6493   7.407   5.256   2.221  0.0744  0.0521  0.3464
 2430W        W 6494   3.244  10.085  10.178  0.3380  0.1694  0.3267
 2431W        W 6495   2.455   0.142   1.596  0.2962 -0.2038 -0.2255
 2432W        W 6496   6.493   7.415  10.379  0.1321  0.1196 -0.1449
 2433W        W 6497   4.484   4.100   2.656  0.2189 -0.0494 -0.4444
 2434W        W 6498  10.641   7.073   3.155  0.0003 -0.1054 -0.1935
 2435W        W 6499   6.497   6.773   2.306 -0.2963 -0.1858 -0.0376
 2436W        W 6500   6.357   8.442   8.715 -0.0291 -0.3154  0.1079
 2437W        W 6501   5.510   3.964  10.662 -0.1593 -0.0270 -0.0210
 2438W        W 6502   1.204   5.406   1.275 -0.1061  0.2819  0.0947
 2439W        W 6503   3.693   3.821  10.181  0.2619 -0.2980  0.0990
 2440W        W 6504   6.134   9.428   0.319 -0.1775 -0.0611 -0.3792
 2441W        W 6505   7.495   3.594   3.246  0.1543 -0.1059 -0.0443
 2442W        W 6506   1.614   0.257   8.745  0.3319 -0.2690  0.1357
 2443W        W 6507   9.877  10.278   8.832  0.2204 -0.3030 -0.2195
 2444W        W 6508   9.640   2.543  10.982 -0.2848  0.0646  0.0297
 2445W        W 6509   8.608   4.907  10.773  0.0179  0.0538  0.0191
 2446W        W 6510   1.366   1.845   9.502  0.2296  0.0941  0.3006
 2447W        W 6511   7.108   5.214  10.560 -0.0402  0.1704  0.0430
 2448W        W 6512   7.994   6.919   1.025  0.1582  0.1047 -0.1944
 2449W        W 6513   2.924   8.369   1.934 -0.1610  0.1498 -0.0504
 2450W        W 6514   6.801   1.610   9.234 -0.0693  0.1132 -0.0674
 2451W        W 6515   4.947   8.690   8.261  0.0865 -0.1251 -0.0155
 2452W        W 6516   1.927   4.550   2.248 -0.1891 -0.0261  0.0244
 2453W        W 6517   4.364   7.129   2.503 -0.4023 -0.2279 -0.1617
 2454W        W 6518   2.929   4.426   1.337 -0.3600  0.5304 -0.0220
 2455W        W 6519   6.660   0.722   8.866 -0.2370  0.0139 -0.0030
 2456W        W 6520   2.232   9.230   8.336  0.1013 -0.2571  0.1615
 2457W        W 6521  10.306   1.753   1.712  0.1693 -0.2493  0.2862
 2458W        W 6522   1.355   9.292  10.354 -0.0803 -0.1794  0.2642
 2459W        W 6523   3.172   7.267   9.344  0.1379  0.3180  0.0358
 2460W        W 6524   3.742   1.437   0.053 -0.2400  0.1615  0.0911
 2461W        W 6525   2.756   4.015  11.427 -0.0301  0.1190 -0.1665
 2462W        W 6526   5.387   2.217   1.093 -0.1291 -0.2747 -0.1529
 2463W        W 6527   4.046   8.231  10.185 -0.1668  0.0131  0.0192
 2464W        W 6528   3.561   2.097   0.577 -0.1893 -0.0401  0.1098
 2465W        W 6529   1.883   8.159   1.359  0.0369  0.2593 -0.0134
 2466W        W 6530   4.483   9.081   2.960  0.1046 -0.0602  0.0696
 2467W        W 6531   3.193   1.819  10.705  0.0358  0.1678 -0.2080
 2468W        W 6532   4.034   9.237   1.149 -0.2600  0.0444 -0.0447
 2469W        W 6533   3.131   4.214   9.622  0.2242  0.1793 -0.0138
 2470W        W 6534   9.734   8.615   8.426 -0.2131  0.2246  0.0614
 2471W        W 6535   2.208   9.699  11.004  0.2655  0.0092 -0.2828
 2472W        W 6536   1.298   3.207   8.958  0.2990 -0.0094 -0.0693
 2473W        W 6537   6.788   7.633   8.538  0.0543 -0.1128 -0.1803
 2474W        W 6538   4.403  10.000   0.902  0.1371 -0.0939 -0.1251
 2475W        W 6539   2.860   0.594  11.404 -0.2710  0.0036 -0.3007
 2476W        W 6540   4.099   1.076   1.894 -0.0500 -0.1177  0.0168
 2477W        W 6541   4.011   1.108   3.121  0.1963 -0.0522 -0.0191
 2478W        W 6542   2.375   6.047   1.813 -0.0859 -0.2607 -0.0516
 2479W        W 6543   4.507   3.534   1.268 -0.1060 -0.1131  0.1429
 2480W        W 6544   9.036   4.978   0.941  0.1558  0.5846  0.2568
 2481W        W 6545   5.065   9.939   0.937 -0.0156 -0.0557 -0.1734
 2482W        W 6546   8.825   1.899   2.098  0.2983  0.1418 -0.2701
 2483W        W 6547   9.434   9.697   2.730 -0.0576  0.1756  0.0488
 2484W        W 6548   1.556   5.418   0.733 -0.2626 -0.1021  0.1135
 2485W        W 6549   4.047   9.329   7.221  0.0232 -0.2990  0.3799
 2486W        W 6550   6.736   7.378  10.873 -0.2217 -0.2788  0.0564
 2487W        W 6551   9.566   5.613   9.029 -0.0281 -0.0246 -0.1049
 2488W        W 6552   4.078   4.568   0.438 -0.1346  0.1433  0.1830
 2489W        W 6553   8.469   5.607   8.937 -0.0177 -0.1296 -0.0350
 2490W        W 6554   1.224   5.189  11.243 -0.6894 -0.1046 -0.0219
 2491W        W 6555   9.980   6.183  10.869 -0.2983 -0.0547  0.1504
 2492W        W 6556   8.162   5.523   8.475  0.1491 -0.0397 -0.1060
 2493W        W 6557   6.657   0.329  10.967 -0.2398  0.2457  0.1590
 2494W        W 6558   4.789   4.147  10.194 -0.2080 -0.4213 -0.0804
 2495W        W 6559   1.218   5.256   3.169  0.2625 -0.2040  0.2878
 2496W        W 6560  10.418  10.187   9.128  0.0264 -0.1493  0.2127
 2497W        W 6561   4.793   8.213   8.491  0.2262 -0.1042 -0.2225
 2498W        W 6562   0.042   0.257   0.175  0.0468 -0.1214 -0.2929
 2499W        W 6563   7.686   7.729  10.802 -0.5565  0.1630  0.0777
 2500W        W 6564   2.300   7.964   0.724  0.0963 -0.1911  0.2165
 2501W        W 6565   4.751   3.138   1.935  0.0680 -0.1195 -0.0914
 2502W        W 6566   0.449   1.747   2.833 -0.2724  0.1032 -0.0334
 2503W        W 6567   1.198   2.583   1.210 -0.1154  0.1523  0.0297
 2504W        W 6568   1.166   0.280   2.799 -0.1925 -0.0814  0.1805
 2505W        W 6569   7.496   4.015  10.338  0.1999 -0.0643 -0.0924
 2506W        W 6570   5.256   1.958  11.400  0.0069 -0.4029 -0.1776
 2507W        W 6571   4.718   6.945  11.139 -0.0281 -0.0959 -0.1457
 2508W        W 6572   9.167   4.563   1.836  0.1312 -0.2365  0.1845
 2509W        W 6573   0.551   0.017   8.487  0.0872 -0.2080 -0.1856
 2510W        W 6574   3.809   0.176   7.777  0.1851 -0.2755 -0.4023
 2511W        W 6575   3.669   2.056  10.274 -0.1065  0.0350  0.1251
 2512W        W 6576   9.911   9.202   3.348  0.2807  0.0802  0.1235
 2513W        W 6577   1.384   1.670  10.353  0.1370 -0.0899  0.0078
 2514W        W 6578   6.733   5.485   1.447  0.0889 -0.0693  0.0449
 2515W        W 6579  10.416   4.360   0.546 -0.1171  0.0947  0.2019
 2516W        W 6580   5.475   7.024   9.684  0.0388 -0.0756  0.1157
 2517W        W 6581  10.531   6.317   0.272 -0.0993 -0.3140 -0.0373
 2518W        W 6582   0.224   4.037   0.568 -0.1073  0.3114 -0.2646
 2519W        W 6583   9.436   6.072   3.356  0.3169 -0.2064 -0.0031
 2520W        W 6584   6.792   4.657   1.932  0.1223 -0.0666 -0.0366
 2521W        W 6585   1.828   4.596  10.172 -0.3946 -0.2712 -0.1189
 2522W        W 6586   5.935   7.591   0.687  0.2003 -0.0611  0.2052
 2523W        W 6587   9.378   9.874   0.708  0.0687  0.0798 -0.2737
 2524W        W 6588   2.989   0.364   2.174 -0.0242 -0.0153  0.0568
 2525W        W 6589   0.555   1.471  10.425 -0.2082 -0.0277 -0.1435
 2526W        W 6590   9.824   9.701   0.917  0.3054  0.1049 -0.0593
 2527W        W 6591   2.422   0.051   3.450 -0.1894  0.0588 -0.5245
 2528W        W 6592   1.970   8.919   0.452  0.0283 -0.1009  0.1068
 2529W        W 6593   7.003   5.908   9.308 -0.1976  0.2873  0.0276
 2530W        W 6594   7.541   2.901   1.358  0.2742  0.1193  0.1184
 2531W        W 6595   3.783   7.352   9.961  0.0660  0.0182 -0.0280
 2532W        W 6596   6.684   5.580   9.029 -0.0043  0.1928 -0.3342
 2533W        W 6597   3.725   1.591   0.593 -0.0176  0.0766 -0.1900
 2534W        W 6598   4.156   3.068   7.738  0.1171 -0.2877  0.0096
 2535W        W 6599   4.952   1.130   1.970 -0.2115 -0.2004  0.1806
 2536W        W 6600   3.099   7.801   0.244  0.1242  0.1117 -0.2322
 2537W        W 6601  10.584   4.475   8.803  0.1102  0.3229 -0.2117
 2538W        W 6602   5.884   8.123   2.639  0.4661  0.1557  0.0190
 2539W        W 6603   6.846   6.726   8.545 -0.0651 -0.0679 -0.2748
 2540W        W 6604   8.086   7.683  10.430  0.0063 -0.2010  0.0193
 2541W        W 6605   6.570   1.197  11.545 -0.2403 -0.0661  0.1182
 2542W        W 6606   0.942   4.420   1.138 -0.0933 -0.1110 -0.2022
 2543W        W 6607   2.575   2.479  10.583 -0.0861  0.0107  0.4549
 2544W        W 6608   0.445   4.508   9.292 -0.2792  0.0009  0.1745
 2545W        W 6609   6.870   0.740  11.285  0.1099  0.2151  0.0174
 2546W        W 6610   7.018   9.714  10.042 -0.2251 -0.2734  0.3998
 2547W        W 6611   2.873   8.766  11.326 -0.1739 -0.2257 -0.0620
 2548W        W 6612   7.870   6.281   3.268 -0.3715  0.3832 -0.0335
 2549W        W 6613   5.266   2.755   2.921 -0.1436  0.3741 -0.0801
 2550W        W 6614   4.077   5.956   9.017  0.0706 -0.2951  0.0715
 2551W        W 6615   8.976   3.287  11.360  0.3114 -0.3262  0.1180
 2552W        W 6616   1.106   6.950   8.703 -0.2552 -0.0839  0.0960
 2553W        W 6617   2.610   0.099   0.581 -0.0041 -0.0061  0.0569
 2554W        W 6618   1.657   8.969  11.248 -0.1479  0.0382 -0.3089
 2555W        W 6619   6.803   5.433   2.970  0.2411 -0.3955 -0.2026
 2556W        W 6620   9.539   4.403   0.322  0.1634 -0.0630  0.0838
 2557W        W 6621   9.560   7.583  11.136 -0.0072 -0.1872  0.4226
 2558W        W 6622   9.316   4.639   0.642  0.1094 -0.0698 -0.2020
 2559W        W 6623   3.138   5.442  10.352  0.0422 -0.4377 -0.0633
 2560W        W 6624   2.434   8.304   2.811  0.0043 -0.2544  0.2635
 2561W        W 6625   4.159   5.821   2.245 -0.0660 -0.0247  0.1219
 2562W        W 6626   3.623   5.067   0.290  0.0954  0.2572 -0.3465
 2563W        W 6627   3.456   2.913  10.736  0.4219  0.1018  0.0857
 2564W        W 6628   5.597   7.797   2.206  0.1606  0.1100  0.2108
 2565W        W 6629   7.775  10.192   9.495 -0.3578  0.2061  0.1708
 2566W        W 6630   3.831   6.237  10.435 -0.2374  0.4146 -0.2217
 2567W        W 6631   7.161   0.981   8.423  0.1827 -0.3671  0.0247
 2568W        W 6632   8.988   6.301   1.572  0.0205  0.0157 -0.0493
 2569W        W 6633   0.739   7.114   9.121  0.3079 -0.1571 -0.0798
 2570W        W 6634   9.491   2.543   0.233  0.0027 -0.1193 -0.0271
 2571W        W 6635   8.860   4.680   1.396 -0.2335  0.0792  0.3010
 2572W        W 6636   6.214   5.447   3.229  0.0095 -0.2896 -0.0014
 2573W        W 6637   0.943   4.404  10.726  0.0006  0.0677  0.0737
 2574W        W 6638   7.259   6.217   3.662 -0.3369  0.3022 -0.1738
 2575W        W 6639   1.848   7.883   0.444 -0.0651 -0.0581 -0.1305
 2576W        W 6640   1.424   6.569   1.011 -0.2129 -0.0729  0.2421
 2577W        W 6641   3.978   9.799   7.991 -0.2007  0.1383 -0.0981
 2578W        W 6642   5.205   3.524   9.005  0.0593 -0.4495 -0.0185
 2579W        W 6643   3.376   4.578   3.018  0.3453  0.0645 -0.2178
 2580W        W 6644  10.170   9.644   2.642 -0.2855 -0.1105  0.2142
 2581W        W 6645   6.945   2.355   3.479  0.1054 -0.3722 -0.1833
 2582W        W 6646   3.629   7.767   8.597 -0.0803 -0.1731  0.1164
 2583W        W 6647   2.636  10.268   2.502  0.1536  0.0817  0.3218
 2584W        W 6648   0.761   3.484  11.073  0.3425 -0.0562  0.1085
 2585W        W 6649   8.718   1.338   1.250 -0.2496 -0.1767 -0.1113
 2586W        W 6650   7.928   6.946   8.649 -0.0490  0.1998  0.0979
 2587W        W 6651   7.293   3.592   2.755 -0.0451 -0.0624 -0.0183
 2588W        W 6652   1.566   0.059   0.004 -0.2285 -0.0789  0.0625
 2589W        W 6653   2.597   3.817   2.167 -0.1818  0.0211  0.2268
 2590W        W 6654   1.015   8.710  10.759  0.2653 -0.0513  0.4861
 2591W        W 6655   5.303   5.435   0.415 -0.3023  0.1525  0.2230
 2592W        W 6656   0.710   0.828   7.681 -0.2843  0.2159 -0.1018
 2593W        W 6657   6.497  10.067   2.025  0.1991 -0.1601  0.2103
 2594W        W 6658   6.457   6.868   3.218 -0.3324 -0.3727  0.0327
 2595W        W 6659   7.194   8.386   1.614 -0.0372 -0.1052 -0.1876
 2596W        W 6660  10.645   6.818   2.233  0.3204  0.0798 -0.2918
 2597W        W 6661   5.872   6.990   2.261  0.0222 -0.0596  0.0413
 2598W        W 6662   7.536   1.217  11.268  0.4447  0.0956  0.0927
 2599W        W 6663   9.784   9.826   3.208  0.2447  0.2957 -0.1271
 2600W        W 6664   7.621   6.246   1.284 -0.3733 -0.0287 -0.1113
 2601W        W 6665   8.856   9.317   9.924  0.0131 -0.0063 -0.0631
 2602W        W 6666   2.478   4.807   0.232  0.1505  0.1373 -0.0533
 2603W        W 6667  10.103   8.847   0.635  0.3104  0.0165 -0.0092
 2604W        W 6668   5.998   8.179   9.439 -0.1502 -0.3211  0.1421
 2605W        W 6669   4.730   3.416   0.202  0.1914 -0.4692  0.0357
 2606W        W 6670   2.663   6.418   0.700 -0.0529  0.2248 -0.0552
 2607W        W 6671   5.664  10.035   1.187  0.0313  0.1939  0.3545
 2608W        W 6672   0.481   6.254   1.936  0.0156  0.2578  0.1470
 2609W        W 6673   5.208   7.587   9.518  0.0184 -0.1173  0.1639
 2610W        W 6674   0.170   3.572  11.115 -0.0698  0.0658  0.3118
 2611W        W 6675   1.843   2.436   2.080  0.0870  0.0950 -0.2307
 2612W        W 6676   6.630   9.614   2.213  0.1329 -0.2345  0.1826
 2613W        W 6677   4.371   6.773   9.196 -0.0021 -0.0231 -0.3068
 2614W        W 6678   0.763   5.657   2.478 -0.0406  0.0760  0.4137
 2615W        W 6679   5.656  10.359   1.526  0.1359  0.2390  0.0285
 2616W        W 6680   3.790   0.602   8.094  0.1666 -0.0044 -0.0405
 2617W        W 6681   2.189   5.248  10.062  0.0964  0.1028 -0.0419
 2618W        W 6682   4.973   6.392   3.060 -0.0320  0.0512  0.2043
 2619W        W 6683   7.242   3.069   3.108 -0.1347 -0.2108 -0.0180
 2620W        W 6684   5.900   7.582   1.360 -0.1987  0.1393 -0.1965
 2621W        W 6685   6.946   6.687   2.458  0.2297 -0.1207  0.1762
 2622W        W 6686   4.819   6.693   0.397 -0.2144  0.0195  0.0299
 2623W        W 6687   7.125   7.408   8.269 -0.3137  0.1123 -0.2686
 2624W        W 6688   4.590   5.557  10.164  0.0400  0.0159  0.0859
 2625W        W 6689   3.136   4.901   1.095 -0.3943  0.1412 -0.0293
 2626W        W 6690   7.393   4.336   9.365 -0.0248  0.1074  0.0226
 2627W        W 6691   2.753   5.422   8.875 -0.0657 -0.0169  0.2152
 2628W        W 6692   5.681   4.410  11.134  0.1449 -0.1764 -0.1291
 2629W        W 6693   3.568   4.529   0.291 -0.1249 -0.2453  0.0067
 2630W        W 6694   1.045   1.785   0.662 -0.1128 -0.0888  0.2567
 2631W        W 6695   2.394   0.776  11.357 -0.0357 -0.2806 -0.1571
 2632W        W 6696   1.329   3.543   0.788 -0.0259  0.0217 -0.1978
 2633W        W 6697   6.773   5.992   3.262  0.1024  0.0361 -0.0956
 2634W        W 6698   1.870   4.266  11.284 -0.2983 -0.1451  0.3031
 2635W        W 6699   6.141   8.933   0.348 -0.0231 -0.3097 -0.1927
 2636W        W 6700   1.965   2.711   9.284 -0.0188  0.1051 -0.0352
 2637W        W 6701   0.082   0.891   2.034 -0.0078 -0.2162 -0.0348
 2638W        W 6702   3.411   4.818  11.454  0.0095 -0.0008 -0.1085
 2639W        W 6703   7.859   7.874   9.341  0.0275 -0.2291  0.0294
 2640W        W 6704   9.083   3.189   2.776  0.0528 -0.2120  0.4122
 2641W        W 6705   4.313   9.405   8.264  0.1151 -0.1421  0.1399
 2642W        W 6706   6.750   7.402   1.831 -0.0807 -0.2555 -0.2551
 2643W        W 6707   5.009   2.069   2.380 -0.0305  0.3864 -0.2049
 2644W        W 6708   0.615   1.838   0.899 -0.0632  0.2178  0.0215
 2645W        W 6709   3.599   6.061  10.029 -0.1026 -0.1798  0.1512
 2646W        W 6710   1.626   5.783   9.698 -0.0091 -0.1432 -0.1818
 2647W        W 6711   5.102   1.023  10.505 -0.0890  0.0262  0.2869
 2648W        W 6712   3.329   1.989   9.780  0.0208 -0.2723  0.2860
 2649W        W 6713   2.671   6.070   9.632  0.1417 -0.0011 -0.2551
 2650W        W 6714   9.448   1.139   3.722 -0.1116  0.1021  0.6453
 2651W        W 6715  10.061   7.449   7.763  0.1110  0.3913 -0.3109
 2652W        W 6716   5.946   6.705   9.682 -0.3789  0.1397 -0.0450
 2653W        W 6717  10.140   6.051   1.792  0.1960  0.0658 -0.2635
 2654W        W 6718   5.702   3.139   8.519  0.1536 -0.1453  0.0630
 2655W        W 6719   5.040   2.749   8.611  0.0257 -0.0121 -0.0456
 2656W        W 6720   2.452   2.860  10.945 -0.0318  0.0046  0.5268
 2657W        W 6721   4.211   2.271   0.714 -0.1881 -0.0582 -0.2077
 2658W        W 6722   4.089   0.176   2.628  0.2720  0.0040 -0.0278
 2659W        W 6723   2.762   5.893   1.496  0.2648 -0.2242  0.1193
 2660W        W 6724   8.144   9.774  10.299  0.1494 -0.2909  0.0219
 2661W        W 6725   8.239   6.275   1.812 -0.0194 -0.0690 -0.0530
 2662W        W 6726   1.723   9.431  11.057  0.1604 -0.4624  0.3320
 2663W        W 6727   9.284   7.506   3.407  0.0632 -0.0864  0.2239
 2664W        W 6728   6.158   8.030  10.869 -0.2438  0.1907 -0.0298
 2665W        W 6729   3.000   2.806   3.422  0.1846  0.2156 -0.0179
 2666W        W 6730   0.870   9.839  11.081  0.3215 -0.2376 -0.2290
 2667W        W 6731   9.947   2.676  10.487  0.1508 -0.2066 -0.3091
 2668W        W 6732   8.714   4.811   3.054 -0.0699  0.3022  0.1360
 2669W        W 6733   4.973   9.370   0.460 -0.1085 -0.0923 -0.1496
 2670W        W 6734   4.300   3.632  10.492 -0.1439 -0.0677 -0.2281
 2671W        W 6735   7.209   8.081   1.278  0.1683 -0.0644  0.3845
 2672W        W 6736   3.087   5.542   1.521  0.1931 -0.2521  0.0139
 2673W        W 6737   5.046   5.057   0.194  0.0999  0.1838 -0.1100
 2674W        W 6738   2.813   4.671   1.783  0.2431  0.2108 -0.1140
 2675W        W 6739   5.048   4.151   2.804 -0.0741 -0.1802  0.0909
 2676W        W 6740   4.049   8.008  10.672 -0.0250  0.1410 -0.3533
 2677W        W 6741   6.070   6.340  11.514  0.1054 -0.0678  0.5579
 2678W        W 6742   7.928   8.840   7.377 -0.0768 -0.0064  0.0839
 2679W        W 6743  10.470   6.783   0.993  0.2690  0.0504 -0.0810
 2680W        W 6744   3.488   3.463  10.586 -0.1766 -0.0662  0.0127
 2681W        W 6745   7.749   1.790  10.215  0.0543 -0.2078  0.0402
 2682W        W 6746   8.018   8.438   0.986 -0.0756 -0.3185 -0.0725
 2683W        W 6747   7.751  10.277   0.793 -0.2019 -0.0203 -0.0057
 2684W        W 6748   4.346   8.255   3.700  0.1440  0.4635  0.0940
 2685W        W 6749   4.359   1.836   8.692  0.2170  0.0375 -0.0843
 2686W        W 6750   3.942   4.256   8.500 -0.4207  0.0315 -0.2893
 2687W        W 6751  10.581   3.319   9.687  0.1320  0.0452  0.3102
 2688W        W 6752   6.475   1.557   2.267 -0.2550  0.0981 -0.2092
 2689W        W 6753   0.735   1.610   3.294 -0.2463 -0.1692  0.2656
 2690W        W 6754   0.346   2.548   0.258 -0.1054 -0.1020 -0.4977
 2691W        W 6755   2.730   6.725   3.115 -0.1594 -0.1271  0.0071
 2692W        W 6756   3.917   5.110   2.725 -0.0965  0.1302  0.1905
 2693W        W 6757   5.880   3.701  10.289 -0.0937  0.1611 -0.0959
 2694W        W 6758   5.901   2.426   0.860  0.2462  0.1466 -0.0735
 2695W        W 6759   6.206   7.143   9.196 -0.2539 -0.0157  0.4833
 2696W        W 6760   8.850   6.864   2.319  0.4960  0.0712 -0.0318
 2697W        W 6761   4.925   0.944   0.632 -0.1009 -0.0953  0.4462
 2698W        W 6762   9.577   0.407   3.352 -0.2990  0.4141 -0.1485
 2699W        W 6763   0.753   8.016   1.661 -0.0499 -0.0161  0.0932
 2700W        W 6764   7.466   8.011   1.754 -0.0504  0.2207 -0.0930
 2701W        W 6765   0.281   5.229   1.630 -0.0765  0.1192 -0.3152
 2702W        W 6766   2.399   6.184  10.104  0.0181 -0.1462 -0.1502
 2703W        W 6767   4.705   6.937   9.765 -0.0107  0.1368  0.0727
 2704W        W 6768   3.616   6.837  10.322  0.0905 -0.0464  0.0219
 2705W        W 6769   4.524   0.426   1.456  0.2078  0.1806 -0.2680
 2706W        W 6770   9.180   1.827  10.476 -0.0325  0.0393  0.3887
 2707W        W 6771   1.680   3.040   2.734 -0.0541  0.2922 -0.0770
 2708W        W 6772   6.952   6.616   1.562  0.0255  0.2012 -0.0586
 2709W        W 6773   6.922   2.324  10.270  0.1319  0.2255  0.3872
 2710W        W 6774   5.145   6.328   0.222  0.0734  0.1708  0.0258
 2711W        W 6775   6.221   6.940  10.173 -0.2332 -0.0230 -0.2599
 2712W        W 6776   0.209   9.696   1.961 -0.0370 -0.4505  0.1151
 2713W        W 6777   4.955   8.459   3.190 -0.1279 -0.0804  0.0538
 2714W        W 6778   3.390   8.595  11.209 -0.2758  0.2104 -0.0249
 2715W        W 6779   6.659   1.868   0.809 -0.1900 -0.1236 -0.0648
 2716W        W 6780   7.083   0.520   3.705 -0.2847  0.1121  0.0763
 2717W        W 6781   5.416   0.142   7.819 -0.0338 -0.0323 -0.1030
 2718W        W 6782   6.938   3.685   8.785 -0.1324  0.1929  0.1705
 2719W        W 6783   7.991   4.367   1.023  0.0246  0.1534  0.2751
 2720W        W 6784   8.219   0.275   1.612 -0.0839  0.0090 -0.0392
 2721W        W 6785   1.673  10.128   8.082  0.1471  0.1773  0.0229
 2722W        W 6786   7.571   5.356  11.399  0.3142 -0.1072 -0.0937
 2723W        W 6787   0.966   5.423   9.059 -0.2007  0.1384  0.1022
 2724W        W 6788   0.775  10.136   3.011 -0.0159  0.0644  0.3679
 2725W        W 6789   5.547   4.038   2.667  0.0460 -0.1283  0.0214
 2726W        W 6790   7.246   7.150   0.988  0.2769 -0.0623  0.0639
 2727W        W 6791   8.466   3.580   3.411 -0.1359 -0.0287 -0.0467
 2728W        W 6792   5.824   4.606   7.900 -0.1192 -0.1986  0.0048
 2729W        W 6793   0.750  10.030  10.601 -0.0072 -0.1430 -0.1469
 2730W        W 6794   9.205   7.944   3.154  0.0010 -0.0503 -0.0678
 2731W        W 6795   3.176  10.495   9.375  0.2581 -0.0645 -0.1213
 2732W        W 6796   6.003   4.384  10.300  0.1196 -0.0974 -0.2265
 2733W        W 6797   8.101   5.085  10.024  0.1102  0.0320  0.3173
 2734W        W 6798   0.540   8.880   3.135 -0.1216  0.1442  0.0989
 2735W        W 6799   1.889   9.669   9.145 -0.2094  0.0420 -0.0349
 2736W        W 6800   1.092   8.426  11.237 -0.2440  0.0794 -0.2024
 2737W        W 6801   7.541   9.899   0.566 -0.0421  0.2074  0.2915
 2738W        W 6802   1.898   3.393  11.102  0.1024 -0.2072 -0.1405
 2739W        W 6803   4.947   7.957   2.854 -0.0932  0.0818 -0.1230
 2740W        W 6804   8.411   5.314   2.053  0.1918  0.0085  0.1120
 2741W        W 6805   2.056   4.498   9.387 -0.0900 -0.0571 -0.1601
 2742W        W 6806   3.845   3.177   8.641  0.2992 -0.2748 -0.2408
 2743W        W 6807   9.741   8.265   1.365  0.1232 -0.2495 -0.0851
 2744W        W 6808   1.763   5.355   1.639  0.1490 -0.1682 -0.0462
 2745W        W 6809   6.996   9.323   1.012  0.2208  0.0450 -0.1888
 2746W        W 6810   3.862   0.294  11.060 -0.0728  0.1544  0.3480
 2747W        W 6811   8.986   8.799  10.785 -0.0048  0.0255 -0.0634
 2748W        W 6812   6.195   9.306   2.961  0.2071  0.2170  0.1806
 2749W        W 6813   3.749   3.103   9.172  0.2688  0.0081 -0.2092
 2750W        W 6814   8.306   6.114   1.013  0.2597 -0.0170 -0.1357
 2751W        W 6815   2.738   7.301  10.203 -0.0182 -0.1060  0.0544
 2752W        W 6816   5.351   9.873   7.619  0.0280 -0.1377 -0.1529
 2753W        W 6817   2.054   1.057   9.759 -0.1736  0.0914 -0.0553
 2754W        W 6818   8.591   1.407   8.814  0.0300  0.1338 -0.1803
 2755W        W 6819   9.194   1.371  11.469  0.0921 -0.0624 -0.2081
 2756W        W 6820   6.815   1.647   7.811 -0.1710  0.1622  0.0922
 2757W        W 6821   9.740   5.136  10.867  0.3986  0.1416 -0.1940
 2758W        W 6822   7.431  10.549  11.254 -0.0102  0.2593 -0.1527
 2759W        W 6823   3.415   1.187   3.190 -0.2022 -0.1932 -0.2266
 2760W        W 6824  10.433   2.728  10.792  0.1544 -0.3922 -0.0653
 2761W        W 6825   2.591   9.761   9.553  0.0479  0.1169 -0.2441
 2762W        W 6826   2.335   9.532  11.468 -0.4387 -0.0561 -0.1767
 2763W        W 6827   9.418   9.040   8.967  0.1216  0.0536 -0.1999
 2764W        W 6828   1.257   8.016   8.695 -0.0588  0.0618 -0.1735
 2765W        W 6829   8.773   8.953   2.388 -0.2262 -0.1231 -0.0400
 2766W        W 6830   9.721   6.787   3.090  0.2330 -0.2160  0.1350
 2767W        W 6831   8.049   1.530   3.648  0.1339  0.1918  0.0318
 2768W        W 6832   6.643   9.741  10.454 -0.2988 -0.0308  0.2982
 2769W        W 6833   9.717  10.327   9.332  0.2003 -0.3146 -0.1250
 2770W        W 6834   7.280   3.963   9.011 -0.0707  0.0808  0.2434
 2771W        W 6835   7.593   4.845   2.400  0.0972 -0.0297 -0.1505
 2772W        W 6836  10.143   1.873   9.968  0.0546  0.4948 -0.2295
 2773W        W 6837   2.512   7.560   1.729  0.1288 -0.0889  0.0185
 2774W        W 6838   8.489   1.980   3.065  0.2356 -0.2758 -0.1329
 2775W        W 6839   8.043   9.376   0.367  0.0112  0.2196  0.3088
 2776W        W 6840  10.650   1.879   0.980  0.0131 -0.3205  0.3386
 2777W        W 6841   4.800   5.492   9.719 -0.1457  0.0155  0.1966
 2778W        W 6842   9.965   5.276   3.210  0.2174  0.0651 -0.1632
 2779W        W 6843   2.810   6.827   9.254 -0.0864 -0.0874  0.0073
 2780W        W 6844   0.179   6.790   2.775  0.2601 -0.1263 -0.1770
 2781W        W 6845   4.952   2.577   2.466 -0.4585 -0.1432  0.1459
 2782W        W 6846   8.419   4.115   2.563  0.1137 -0.0616  0.0356
 2783W        W 6847  10.178   1.095   3.588  0.0770  0.0886  0.1898
 2784W        W 6848  10.150   3.022  11.438  0.1454 -0.1172 -0.0088
 2785W        W 6849   2.024   9.239  10.689  0.1236  0.0295  0.1557
 2786W        W 6850   0.736   0.765   9.966 -0.0958 -0.2394 -0.0257
 2787W        W 6851   7.123   7.338   0.528 -0.0940  0.0515 -0.0941
 2788W        W 6852   3.688   9.586   8.710 -0.1830  0.2274  0.0809
 2789W        W 6853   2.902   2.692  11.559  0.1564  0.1567 -0.1797
 2790W        W 6854   4.437   5.067  10.222  0.0204  0.1256 -0.1776
 2791W        W 6855   1.765   0.035   2.143 -0.0498  0.2068 -0.0155
 2792W        W 6856  10.474   7.868   1.780  0.1205 -0.0044 -0.1481
 2793W        W 6857   8.573  10.213  10.804  0.0494 -0.0284 -0.1197
 2794W        W 6858   7.079   3.733   4.326 -0.0667  0.0528  0.2114
 2795W        W 6859   0.006   8.871   2.907 -0.0691  0.0629 -0.1623
 2796W        W 6860   0.247   7.096  10.849 -0.2973  0.2958  0.2545
 2797W        W 6861   5.007   0.115   9.455 -0.0690 -0.0688  0.2320
 2798W        W 6862   4.330   0.730   8.357  0.2879 -0.0954 -0.3000
 2799W        W 6863   9.041   5.672   0.411 -0.1637 -0.0740  0.1014
 2800W        W 6864   1.015   0.303   8.304  0.2332  0.2948 -0.2203
 2801W        W 6865   5.006   2.156   1.453 -0.0161 -0.0354 -0.0018
 2802W        W 6866   0.741   2.695  10.429  0.0221 -0.0067  0.1133
 2803W        W 6867   1.484   2.761   8.840 -0.1966  0.0182 -0.5363
 2804W        W 6868   0.595   9.926   9.937  0.1993 -0.0872 -0.3854
 2805W        W 6869   7.152   9.089  10.935  0.2834 -0.0656 -0.1661
 2806W        W 6870   6.710   0.330   0.963 -0.1198  0.0483 -0.1297
 2807W        W 6871   3.583   9.921   1.800  0.1547  0.0554 -0.0784
 2808W        W 6872   6.990   3.937  11.294  0.0030 -0.2632 -0.1442
 2809W        W 6873   3.948   4.507  11.331 -0.0835 -0.1548 -0.1079
 2810W        W 6874   9.243   7.265   3.918  0.0799 -0.2321 -0.5169
 2811W        W 6875   6.574   3.037   0.404  0.1105  0.1440 -0.3472
 2812W        W 6876   2.738   2.170   8.274 -0.2689  0.0564 -0.0081
 2813W        W 6877   7.460  10.025  11.537 -0.0923 -0.4727 -0.0543
 2814W        W 6878   6.593   6.622  10.413  0.1011  0.0495  0.0469
 2815W        W 6879   1.211  10.127   7.934  0.0638  0.1412  0.2452
 2816W        W 6880   9.273   4.072  10.177  0.1338  0.1560  0.3906
 2817W        W 6881   4.628   1.379   9.718 -0.0746 -0.3114  0.1360
 2818W        W 6882   2.416   4.224   9.068 -0.3122  0.0763 -0.0562
 2819W        W 6883   0.916   9.571   8.758  0.2248  0.2026  0.0308
 2820W        W 6884  10.292   6.720   0.467 -0.1409  0.1718  0.1463
 2821W        W 6885   8.341  10.204   1.987  0.0684  0.1648 -0.1728
 2822W        W 6886   2.486   6.951   0.638  0.3062 -0.0178  0.1506
 2823W        W 6887   8.937   7.426   0.620  0.0173 -0.1408  0.0730
 2824W        W 6888   9.550   5.407   3.447 -0.1176  0.0131  0.1120
 2825W        W 6889   3.722   8.562  10.443  0.0746 -0.2150 -0.0694
 2826W        W 6890   4.096   6.735   1.063  0.0168  0.0660  0.2828
 2827W        W 6891   2.465   9.010   0.009 -0.0263 -0.1759  0.0915
 2828W        W 6892   3.555   3.721   0.009 -0.1176 -0.0893 -0.1673
 2829W        W 6893  10.489  10.042   1.869 -0.1121  0.0667  0.0677
 2830W        W 6894   1.206   8.225  10.680 -0.0818 -0.2067 -0.2551
 2831W        W 6895   6.139   7.883   1.013 -0.0808  0.3787  0.4194
 2832W        W 6896   5.185   4.931   1.607  0.0548  0.2685 -0.5406
 2833W        W 6897   6.154   6.783   1.831  0.2495  0.1110  0.1404
 2834W        W 6898   1.076   7.933  11.500 -0.0827 -0.3782 -0.0965
 2835W        W 6899   4.761   2.413  11.456 -0.0589 -0.1683  0.2005
 2836W        W 6900  10.134   0.429   9.382  0.0627 -0.0213 -0.0597
 2837W        W 6901   5.046   3.904   1.728 -0.0973  0.0228 -0.0354
 2838W        W 6902   9.180   9.590  10.342 -0.0991 -0.3315 -0.0980
 2839W        W 6903   6.506   3.913   9.467  0.1045 -0.1040 -0.1709
 2840W        W 6904   9.512  10.565   1.951  0.0083 -0.0821 -0.3928
 2841W        W 6905   0.814   8.122   0.459 -0.1538  0.1591 -0.0198
 2842W        W 6906   1.497   5.801   9.221 -0.1325 -0.0849 -0.2241
 2843W        W 6907   1.929   5.798   2.610  0.0590 -0.1204 -0.0724
 2844W        W 6908   3.108   1.948   7.935  0.0027  0.2145 -0.2046
 2845W        W 6909   9.448   1.275   8.335  0.2208 -0.1688 -0.1888
 2846W        W 6910   8.165  10.498  10.993 -0.2414 -0.3189  0.0771
 2847W        W 6911   5.114  10.180   2.143 -0.1106 -0.1742  0.1737
 2848W        W 6912   4.742   3.644   7.477 -0.0376 -0.0548 -0.1487
 2849W        W 6913   5.013   6.056  11.371 -0.1150 -0.5098  0.3914
 2850W        W 6914   0.057   2.661   8.884  0.2483  0.1688 -0.0410
 2851W        W 6915   7.499   9.404   9.072  0.2720  0.2975 -0.0700
 2852W        W 6916  10.087   0.169  10.573  0.0792  0.1507 -0.1294
 2853W        W 6917   9.803   9.999   2.661  0.0812 -0.1747  0.1888
 2854W        W 6918   3.093   2.342   8.644  0.1035  0.2486  0.4682
 2855W        W 6919   4.641   7.941  10.871 -0.1094 -0.0396  0.1860
 2856W        W 6920   3.985   6.357   9.992 -0.2820 -0.2967 -0.0609
 2857W        W 6921   0.790   4.973  11.349  0.1069 -0.0593 -0.0543
 2858W        W 6922   6.168   5.387  10.193 -0.0429 -0.1357  0.1408
 2859W        W 6923   9.705   4.972  11.339  0.5436  0.2796  0.2367
 2860W        W 6924   1.039   0.902   9.016  0.0028  0.0539 -0.1438
 2861W        W 6925   9.322   9.149   0.165 -0.0965 -0.2644  0.0600
 2862W        W 6926   4.231   6.170   2.596 -0.1868 -0.3838 -0.1144
 2863W        W 6927   9.013   6.101   8.972 -0.0417 -0.1146  0.0316
 2864W        W 6928   7.512   5.315   8.271 -0.0755  0.3691  0.2637
 2865W        W 6929   3.201   8.201   0.559  0.2723  0.0693 -0.3260
 2866W        W 6930   3.386   3.365   0.409 -0.0040 -0.2046  0.3544
 2867W        W 6931   3.084   4.403   8.269 -0.1275  0.0816 -0.0518
 2868W        W 6932   9.844   3.684  10.535  0.1763  0.3055  0.1922
 2869W        W 6933   7.389   3.254   0.901  0.0965 -0.2641  0.0747
 2870W        W 6934   7.201   8.859   3.036  0.0291  0.2435  0.0336
 2871W        W 6935   4.285   7.266  11.205 -0.0598  0.0822  0.2804
 2872W        W 6936   0.542   7.135   2.679  0.1042  0.0597  0.1249
 2873W        W 6937   9.054   7.848   0.983 -0.0214 -0.0252  0.0166
 2874W        W 6938   7.039   4.221  10.447  0.1934 -0.1891 -0.0791
 2875W        W 6939   1.288   2.708   1.992 -0.0036 -0.1749  0.1451
 2876W        W 6940   9.136   3.066   1.940 -0.0782  0.1794  0.0551
 2877W        W 6941   1.048   1.317   8.820 -0.2839 -0.1622 -0.1268
 2878W        W 6942   5.507   0.208   2.857  0.0499 -0.0409 -0.1815
 2879W        W 6943   2.257   3.024   1.691  0.2425 -0.1944  0.0515
 2880W        W 6944  10.457   4.486  11.558  0.1754 -0.2727 -0.0807
 2881W        W 6945   6.980   1.491   2.171 -0.0667 -0.2024 -0.2099
 2882W        W 6946   9.069   0.557   1.199 -0.0191  0.2267 -0.3214
 2883W        W 6947   6.699   8.405   3.145 -0.1334 -0.1199  0.0386
 2884W        W 6948   7.050   9.942   3.045  0.2159 -0.2562 -0.1712
 2885W        W 6949   1.634   4.323   1.538 -0.0191 -0.1760  0.0331
 2886W        W 6950   9.781   6.217   1.429 -0.0667 -0.1488  0.0933
 2887W        W 6951   2.140   0.092   0.793  0.0338 -0.0531  0.0329
 2888W        W 6952   0.036   4.170   2.773 -0.4223 -0.2606  0.1222
 2889W        W 6953   1.519   3.728   2.615  0.0191  0.0471  0.1045
 2890W        W 6954   5.090   2.198  10.848 -0.2681 -0.0018  0.0257
 2891W        W 6955   1.307   7.131   3.623 -0.3777  0.2611  0.0554
 2892W        W 6956   8.372   2.174  10.402 -0.0526 -0.1533  0.0848
 2893W        W 6957   0.318   6.064   3.367 -0.2243 -0.1530  0.1778
 2894W        W 6958   5.323   5.291   1.163  0.0902  0.0004 -0.1392
 2895W        W 6959   6.810   1.422   8.284  0.1798  0.0623 -0.4143
 2896W        W 6960   5.949   8.263  10.492  0.0803  0.2420  0.0944
 2897W        W 6961   7.953   9.974   1.715 -0.1557 -0.2350  0.0269
 2898W        W 6962   6.275   5.913   1.154  0.3410 -0.0748 -0.4672
 2899W        W 6963   4.862   8.542  10.385  0.0496  0.1226  0.3706
 2900W        W 6964   6.157   3.240   0.370  0.1170  0.0597  0.1336
 2901W        W 6965  10.104   9.103   1.586 -0.0825  0.0918 -0.0035
 2902W        W 6966   7.347   8.814   9.914  0.0012  0.3738 -0.2210
 2903W        W 6967   8.486   7.507   2.906  0.1202  0.0213 -0.1317
 2904W        W 6968   6.773   3.371   4.302 -0.0872  0.0739 -0.0294
 2905W        W 6969   1.928  10.261   2.831 -0.4043  0.2298  0.1039
 2906W        W 6970   0.328   9.719   9.464 -0.0492  0.1244 -0.0818
 2907W        W 6971   4.619   6.214   0.405  0.1268  0.0611 -0.0870
 2908W        W 6972   6.069   3.392   2.226 -0.1336  0.1783 -0.0095
 2909W        W 6973  10.014   0.760  10.694 -0.0775  0.0975 -0.1094
 2910W        W 6974   7.294  10.116   8.488 -0.3109  0.3066 -0.2233
 2911W        W 6975   5.589  10.586   4.323  0.1492 -0.3383 -0.0966
 2912W        W 6976   3.280   1.042   8.572  0.0924  0.1085  0.2871
 2913W        W 6977   4.692   2.859   2.829 -0.1430  0.2496 -0.0845
 2914W        W 6978   4.914   3.072  10.979  0.2003  0.2402 -0.0980
 2915W        W 6979   7.069   4.368   0.010  0.0358 -0.0631  0.3525
 2916W        W 6980   6.470   5.216   9.830  0.0484  0.1904  0.2130
 2917W        W 6981   8.849   2.566   3.398  0.2248  0.1956  0.1571
 2918W        W 6982   6.932   6.166   2.335 -0.0734 -0.3034  0.0274
 2919W        W 6983   0.642   4.049   0.209  0.1879  0.0327 -0.1500
 2920W        W 6984   7.397   0.793  10.613  0.2504 -0.0993  0.1624
 2921W        W 6985   0.381   4.473   1.943 -0.0718  0.0391  0.1594
 2922W        W 6986   5.272   6.725   4.131 -0.1620  0.0335 -0.2252
 2923W        W 6987   2.109   8.366   8.690 -0.1415  0.1821  0.1303
 2924W        W 6988   1.817   4.025   9.174  0.0451  0.0640 -0.0924
 2925W        W 6989   5.775   3.609  10.879  0.1372  0.0411  0.3009
 2926W        W 6990   1.468   6.932   9.595  0.0025  0.0077  0.1361
 2927W        W 6991   1.373   1.286   2.701  0.0988  0.0260  0.0255
 2928W        W 6992   4.028  10.462   3.001 -0.1582  0.2946  0.1765
 2929W        W 6993   1.765   9.751   0.553  0.1714  0.1678 -0.1746
 2930W        W 6994  10.376   9.043   8.379  0.0701  0.3150 -0.0344
 2931W        W 6995   2.318   4.432   1.598 -0.2882 -0.3164 -0.1826
 2932W        W 6996   1.027   3.621   9.258 -0.3983 -0.1546 -0.0476
 2933W        W 6997   7.669   1.877   8.806 -0.3929 -0.1103 -0.1305
 2934W        W 6998   0.033   7.149   0.604 -0.1140  0.0428 -0.3547
 2935W        W 6999   2.504   8.078   1.556  0.0330 -0.1110  0.1515
 2936W        W 7000   0.309   8.483  11.358  0.1190 -0.1671  0.1351
 2937W        W 7001   5.854   0.552   0.039  0.1559  0.1916 -0.0368
 2938W        W 7002   2.034   7.032   8.776 -0.1162 -0.0347  0.2360
 2939W        W 7003   0.713   9.940   8.482  0.0085 -0.2087 -0.0241
 2940W        W 7004   9.820   7.451   9.343 -0.4873  0.0470 -0.0990
 2941W        W 7005   4.942   5.236   8.220 -0.0505 -0.3365  0.0707
 2942W        W 7006   9.846   3.988   8.849 -0.0329  0.1252  0.2774
 2943W        W 7007   7.660   7.815  11.443  0.1358  0.0867 -0.0037
 2944W        W 7008   5.872   8.549   0.260  0.1059 -0.0568 -0.6196
 2945W        W 7009   9.243   7.830   0.413 -0.3138 -0.0203 -0.2152
 2946W        W 7010   6.863   8.531   2.658 -0.0920  0.0667 -0.0152
 2947W        W 7011   7.860   7.278   0.010 -0.1237 -0.2045  0.0147
 2948W        W 7012   0.232   0.582   0.710 -0.1814  0.0609  0.0829
 2949W        W 7013   9.001   2.611  11.504 -0.0956 -0.1845 -0.0940
 2950W        W 7014   4.271   8.093   9.712 -0.5327 -0.0556 -0.2739
 2951W        W 7015   3.640   1.389   1.056 -0.0726 -0.1369 -0.0500
 2952W        W 7016   5.592   2.547   3.234  0.1198  0.1374  0.1442
 2953W        W 7017   0.064   4.551   2.435 -0.2457 -0.4147  0.2323
 2954W        W 7018   4.726   3.992   3.380 -0.3916 -0.0329  0.0282
 2955W        W 7019   9.638   0.197   0.288  0.0907  0.1030 -0.0156
 2956W        W 7020   7.150   5.713   8.336 -0.0118  0.2482  0.0474
 2957W        W 7021  10.571   9.219   0.663 -0.3653 -0.1485  0.3164
 2958W        W 7022   3.590   9.810   2.871  0.5102 -0.1987 -0.0896
 2959W        W 7023   5.286   2.255   8.532  0.2699  0.1563  0.5228
 2960W        W 7024   0.964   0.511   9.601 -0.3509  0.2289  0.2738
 2961W        W 7025   5.552   1.300   9.353  0.0656 -0.1023 -0.3192
 2962W        W 7026  10.059   9.185  11.315  0.3050 -0.0934  0.2974
 2963W        W 7027   8.107   3.622  10.786 -0.1989  0.1058  0.0514
 2964W        W 7028   9.986   8.863   8.749 -0.0935  0.1132 -0.6061
 2965W        W 7029   9.311   2.862   8.840  0.2211 -0.3156 -0.0035
 2966W        W 7030   0.568   4.703   2.402 -0.3206  0.0649  0.2394
 2967W        W 7031   7.311   9.727   2.705  0.1888 -0.0011 -0.1468
 2968W        W 7032   3.627   0.949   0.146  0.1202  0.0901 -0.0264
 2969W        W 7033   7.849   4.189  10.042  0.2472 -0.3340  0.0159
 2970W        W 7034   2.060   7.848   1.719 -0.1363  0.0197  0.1141
 2971W        W 7035   3.533   8.127   1.840  0.2371  0.1201 -0.1778
 2972W        W 7036   9.277   7.082   2.608 -0.2330 -0.0712  0.1609
 2973W        W 7037  10.554   5.599   9.900 -0.0225 -0.2173 -0.4608
 2974W        W 7038   1.947   0.160   8.286  0.1931 -0.1040  0.0945
 2975W        W 7039   5.383   8.577   0.238 -0.0139 -0.0439  0.0322
 2976W        W 7040   3.582   0.604   1.514 -0.2146  0.2608  0.2114
 2977W        W 7041   5.838   9.978   0.096 -0.0943  0.1687  0.1423
 2978W        W 7042   4.837   4.984   7.262 -0.1924 -0.1561  0.0722
 2979W        W 7043   8.790   3.509   1.879 -0.0933 -0.0572  0.1056
 2980W        W 7044   8.875   2.193   2.840 -0.3264  0.0151  0.1878
 2981W        W 7045   1.507   6.219   8.940  0.0944 -0.3311  0.1241
 2982W        W 7046   5.474   9.287  11.297  0.1434  0.0895 -0.2145
 2983W        W 7047   0.200   6.302   9.384  0.0857  0.2078 -0.2375
 2984W        W 7048   9.547   2.478   7.684  0.0049 -0.1791  0.0796
 2985W        W 7049   5.801   6.400   9.320 -0.1191 -0.0926 -0.1639
 2986W        W 7050   2.138   0.187   8.777  0.1119  0.0822  0.1597
 2987W        W 7051   8.466   9.548   2.620  0.1674 -0.5152  0.1327
 2988W        W 7052  10.660   2.826   9.385 -0.0668 -0.2509  0.0455
 2989W        W 7053   8.638   8.561   4.081  0.0788  0.2663  0.1228
 2990W        W 7054   2.377   6.280  11.092 -0.1897 -0.4078 -0.1603
 2991W        W 7055   2.267   6.780  11.129  0.2339  0.0040 -0.0174
 2992W        W 7056   6.840   0.023   9.284 -0.0323 -0.2620  0.1481
 2993W        W 7057   2.029   9.743   8.139 -0.3034 -0.1883  0.2693
 2994W        W 7058   4.819   7.304   8.147  0.0136 -0.1335  0.0170
 2995W        W 7059   1.012   7.538   3.529 -0.1940 -0.1588 -0.1963
 2996W        W 7060   4.783   7.147  10.600 -0.3786 -0.6606 -0.1761
 2997W        W 7061   8.810  10.407   2.933  0.2804  0.0088  0.3751
 2998W        W 7062   3.783   7.060   2.356  0.2487 -0.1729 -0.2816
 2999W        W 7063   9.628   3.469   0.004 -0.1680 -0.0966 -0.1208
 3000W        W 7064   4.127   7.209   9.012  0.3555  0.1126  0.0793
 3001W        W 7065   5.294   3.036   3.317 -0.0892 -0.2062 -0.1930
 3002W        W 7066   8.803  10.633   0.702  0.0915  0.0112 -0.0339
 3003W        W 7067  10.226   9.213  10.333 -0.0020  0.0425 -0.3621
 3004W        W 7068   9.051   2.166   1.730  0.1880  0.0361 -0.3195
 3005W        W 7069   9.615   1.508  11.308 -0.3941 -0.0497 -0.0873
 3006W        W 7070   3.564   4.630   8.365  0.2106 -0.1615 -0.1267
 3007W        W 7071   2.511   7.243   1.190  0.4153 -0.1028 -0.1035
 3008W        W 7072   2.449   8.760  10.981 -0.0325 -0.0501  0.0236
 3009W        W 7073   5.201   9.233   9.283 -0.0544 -0.0926 -0.2874
 3010W        W 7074   1.467   8.567  10.912  0.0856 -0.1886 -0.1533
 3011W        W 7075   5.697   6.826   8.437  0.1438 -0.3731  0.0761
 3012W        W 7076   1.912   8.767  10.899 -0.2259 -0.0768 -0.0168
 3013W        W 7077   0.184   8.602   8.313 -0.5637  0.2312  0.0575
 3014W        W 7078   6.612   8.000   1.055 -0.1661  0.1725 -0.0431
 3015W        W 7079   8.268   7.351   3.893 -0.2650 -0.1144  0.1745
 3016W        W 7080   1.276   1.848   1.557  0.0313 -0.1977  0.2213
 3017W        W 7081   4.435   8.552   8.311  0.0909  0.0020 -0.1882
 3018W        W 7082   5.340   0.137   8.481  0.1033 -0.3009  0.0265
 3019W        W 7083   6.982   8.327  11.114 -0.0103  0.0252  0.2375
 3020W        W 7084   9.109   0.806   8.990  0.3003  0.4924  0.3417
 3021W        W 7085   7.127   2.598   1.571  0.3252 -0.0975 -0.2425
 3022W        W 7086   3.313   3.013   3.026  0.2121 -0.1142  0.0033
 3023W        W 7087   4.819   5.310   3.457 -0.2048  0.0828 -0.0375
 3024W        W 7088   5.056   0.416   0.490  0.0253 -0.1717 -0.0073
 3025W        W 7089   6.689   2.542   0.465  0.0635  0.2173  0.1368
 3026W        W 7090   7.882  10.354   3.208 -0.0400  0.3119  0.0660
 3027W        W 7091   8.453   1.797  10.118  0.3117 -0.2188 -0.1199
 3028W        W 7092   5.004   9.810   8.457 -0.0634 -0.0006 -0.2145
 3029W        W 7093   2.406   2.421   2.779 -0.1706 -0.0230 -0.0249
 3030W        W 7094   2.563   2.034   0.749  0.1587  0.3030  0.0188
 3031W        W 7095  10.191   3.597   9.648  0.0267  0.0774  0.2731
 3032W        W 7096   9.601   8.276   9.662 -0.2086  0.4773  0.2836
 3033W        W 7097   5.228   1.878  10.447  0.1025 -0.4980  0.0438
 3034W        W 7098   4.532   9.558  10.795 -0.1074  0.0741 -0.2857
 3035W        W 7099   2.968   1.708  10.129  0.2224 -0.2916  0.2103
 3036W        W 7100   0.260   6.113   0.846 -0.2114  0.0916 -0.1511
 3037W        W 7101   3.830  10.406   0.400  0.0621 -0.2726 -0.2045
 3038W        W 7102   4.248   3.875   3.070  0.0217 -0.2873  0.3819
 3039W        W 7103   5.352   5.393  10.087  0.0437  0.0679 -0.3852
 3040W        W 7104   3.114   1.511   7.573 -0.0469  0.0669 -0.2037
 3041W        W 7105   7.645   1.713   0.500  0.0263  0.0396 -0.1093
 3042W        W 7106   2.290   6.606   2.969  0.1124 -0.2658 -0.3444
 3043W        W 7107   2.935   9.468   0.479  0.1265 -0.0222  0.2586
 3044W        W 7108   0.779   2.706   8.085  0.1122 -0.3596  0.2787
 3045W        W 7109   8.246   2.223   9.917  0.1124 -0.0706 -0.2878
 3046W        W 7110   4.005   8.721   3.150 -0.0530 -0.0588 -0.2213
 3047W        W 7111   9.255   0.883   0.741  0.1989 -0.1075 -0.4194
 3048W        W 7112   6.287   9.496   1.682 -0.0881  0.1868  0.2172
 3049W        W 7113  10.264   3.175  10.643  0.3591  0.1108  0.0217
 3050W        W 7114   6.464   2.470  11.476  0.2300 -0.0043  0.0516
 3051W        W 7115   0.620   7.667  10.026 -0.1967  0.0439 -0.4644
 3052W        W 7116   6.675   7.240   1.331  0.1923  0.0055 -0.0988
 3053W        W 7117   7.474   9.047   7.598 -0.0598 -0.1188  0.1231
 3054W        W 7118   6.620   4.026   3.213 -0.2048  0.1886 -0.0423
 3055W        W 7119   5.107   8.578   4.070 -0.0506  0.0599  0.1098
 3056W        W 7120   3.570   8.604   3.448  0.0786  0.3614  0.2500
 3057W        W 7121   3.520   4.086   2.005 -0.0735 -0.0032 -0.3536
 3058W        W 7122   5.676   6.889   0.819 -0.1833 -0.1541  0.0157
 3059W        W 7123   6.498   2.631   3.559  0.2300 -0.2178 -0.0552
 3060W        W 7124   3.628   5.486   8.276 -0.3741  0.1214  0.1871
 3061W        W 7125   1.879   1.280   2.756  0.2944  0.0464 -0.1777
 3062W        W 7126   6.548   6.224  10.123  0.0800 -0.0809 -0.0902
 3063W        W 7127   6.297   7.239   2.194 -0.0665  0.0651 -0.0011
 3064W        W 7128   0.799   4.041   3.289  0.4883  0.0404  0.1253
 3065W        W 7129   9.606   8.207   2.731 -0.0277  0.1094 -0.3411
 3066W        W 7130   2.880  10.348   0.914 -0.2783  0.2176  0.2355
 3067W        W 7131   1.396   8.943   2.958 -0.6280 -0.0921 -0.0670
 3068W        W 7132   7.782   3.730   2.747  0.0926  0.0426 -0.3988
 3069W        W 7133   7.845   9.241   7.086 -0.2057 -0.0315  0.0524
 3070W        W 7134   8.794   8.487   2.420  0.2597  0.0767 -0.0470
 3071W        W 7135   7.556   9.152  11.410  0.0361 -0.0222 -0.0366
 3072W        W 7136   1.553   7.897   7.118  0.3317  0.1660  0.2349
 3073W        W 7137   5.762   0.975   8.992 -0.1079  0.0471 -0.2611
 3074W        W 7138   0.885   1.801   9.650 -0.3071 -0.1436  0.1790
 3075W        W 7139   8.177   3.523   8.884  0.1228 -0.2005  0.2297
 3076W        W 7140   9.359   9.189   8.092 -0.0268 -0.2053  0.1272
 3077W        W 7141   0.123   6.590   0.671  0.0663  0.0972  0.1090
 3078W        W 7142   7.334   3.803   1.802 -0.0053  0.1442 -0.0841
 3079W        W 7143   8.954   0.916   4.014 -0.5291 -0.2170  0.0201
 3080W        W 7144   6.953   1.659   1.149  0.1604 -0.3121 -0.2694
 3081W        W 7145   3.133   9.919   0.207 -0.0503  0.1054 -0.1312
 3082W        W 7146   3.709  10.277   2.162  0.0372  0.0697  0.0077
 3083W        W 7147   2.389   5.526   8.240 -0.0831  0.0602  0.4423
 3084W        W 7148   2.744   7.802   8.914  0.0527  0.2005 -0.1586
 3085W        W 7149   0.226   7.951   0.060 -0.0211 -0.0367  0.0100
 3086W        W 7150   3.120   8.403   2.773 -0.0831 -0.3215 -0.3109
 3087W        W 7151   5.428   5.824  10.718  0.1738 -0.0355 -0.0888
 3088W        W 7152   1.718   4.782   0.828  0.1688  0.0196  0.2339
 3089W        W 7153   3.756   4.628   2.743 -0.0318  0.6373  0.1266
 3090W        W 7154   3.553   9.486   1.454 -0.0468 -0.3328 -0.1177
 3091W        W 7155   8.753   1.954   8.598  0.2790 -0.1318  0.2434
 3092W        W 7156   6.260   6.620   2.803  0.0829 -0.1097 -0.0458
 3093W        W 7157   7.410   9.002   0.804  0.1851 -0.2002  0.1355
 3094W        W 7158   3.055   9.576   9.771 -0.2060 -0.2921 -0.1505
 3095W        W 7159   4.121   4.373   3.276  0.0033 -0.0561  0.1138
 3096W        W 7160   2.981   8.403   8.353 -0.2083 -0.0261  0.0349
 3097W        W 7161   1.767   3.094   1.395 -0.0404 -0.0089  0.0062
 3098W        W 7162   2.250   4.378  10.020  0.1713  0.0223  0.3253
 3099W        W 7163   2.853   9.005   8.991 -0.0420 -0.1093 -0.2922
 3100W        W 7164   6.315  10.026   9.238  0.0989 -0.2084  0.1214
 3101W        W 7165   2.743   3.596   1.479  0.3116  0.0541  0.0311
 3102W        W 7166   9.549   7.136   3.531  0.2532 -0.2553 -0.2150
 3103W        W 7167   7.571   7.666   8.469 -0.1463  0.4290  0.0590
 3104W        W 7168   4.993   4.084   7.592  0.1163  0.0823 -0.0800
 3105W        W 7169   9.075   0.592   2.745  0.0818 -0.1060 -0.3718
 3106W        W 7170   7.967   6.683   9.538 -0.1657  0.1257 -0.0988
 3107W        W 7171   5.249   8.703   2.502 -0.2212  0.1589 -0.0425
 3108W        W 7172   8.076   2.677   2.651 -0.0767  0.2382 -0.1200
 3109W        W 7173   1.204   0.804  10.871 -0.2242  0.1422 -0.0692
 3110W        W 7174   2.088   1.672   1.040  0.0012  0.0946 -0.4839
 3111W        W 7175   5.778   9.959   7.885 -0.0411 -0.1866 -0.2330
 3112W        W 7176   5.392   6.099   1.742  0.0524 -0.1566  0.0888
 3113W        W 7177   5.015   3.120  10.409  0.2582 -0.1156 -0.0819
 3114W        W 7178   3.878   9.057   2.770  0.4312  0.2827 -0.0594
 3115W        W 7179   2.725   4.205   1.770  0.1463 -0.1217 -0.0532
 3116W        W 7180   2.728   7.171   8.922  0.0892  0.0285 -0.0068
 3117W        W 7181   3.801   3.664   0.414  0.0341  0.0446 -0.0696
 3118W        W 7182   3.462   1.751   8.787 -0.4055 -0.0455 -0.1174
 3119W        W 7183   9.676   8.119   9.162  0.0704  0.0829 -0.1150
 3120W        W 7184   9.386   8.513   3.169  0.3247  0.4431  0.1691
 3121W        W 7185   3.742   4.495   8.901  0.0382  0.1834 -0.1868
 3122W        W 7186   3.723   1.806  10.771 -0.2361 -0.0712  0.1095
 3123W        W 7187   6.604   3.482  10.182 -0.2100  0.0319 -0.0749
 3124W        W 7188   9.398   3.356   1.263  0.2090  0.0889 -0.3058
 3125W        W 7189   7.456   4.118  11.267  0.1271  0.2699 -0.1775
 3126W        W 7190   3.053   5.964  10.577  0.4089 -0.1889  0.3251
 3127W        W 7191   1.557   8.160   3.236 -0.1616 -0.1895 -0.2820
 3128W        W 7192   8.167   4.984   9.148  0.0135  0.1469  0.0816
 3129W        W 7193   4.910   5.350   7.592  0.2117  0.1096  0.2135
 3130W        W 7194   3.875   9.961  11.125 -0.3057  0.3149  0.0486
 3131W        W 7195   2.546   4.905   2.460 -0.0569  0.1111  0.0675
 3132W        W 7196   7.332   1.561   9.650 -0.2434  0.3075  0.4532
 3133W        W 7197   0.622   5.353   0.200 -0.0259 -0.0122 -0.0510
 3134W        W 7198   7.071   2.206   0.540 -0.0015 -0.2125 -0.3686
 3135W        W 7199   4.513   7.798  10.111 -0.2153  0.1141 -0.1689
 3136W        W 7200   0.642   0.570   1.108  0.1075 -0.1602 -0.0127
 3137W        W 7201   6.777   2.110  11.278  0.0291  0.0515 -0.0698
 3138W        W 7202   3.108   0.450   8.740  0.1911  0.1291  0.2161
 3139W        W 7203   5.013   2.681   1.262 -0.2594 -0.2272  0.1183
 3140W        W 7204   9.966   6.416   2.788  0.0302 -0.1901 -0.0792
 3141W        W 7205   8.044   5.492  10.420 -0.3874 -0.0865  0.0033
 3142W        W 7206   2.182   7.931   2.502 -0.1631 -0.0485  0.2237
 3143W        W 7207   0.934   9.231   7.772 -0.1410  0.1285  0.2159
 3144W        W 7208   7.047   9.688   8.363 -0.0258  0.2241  0.2274
 3145W        W 7209   0.420   0.158  10.514 -0.1582 -0.6152 -0.0788
 3146W        W 7210   3.496   3.325   9.740 -0.3038 -0.2402  0.0869
 3147W        W 7211   2.833   5.890   1.970  0.0300  0.0777  0.0790
 3148W        W 7212  10.297   5.231   9.780  0.1233  0.0267  0.1154
 3149W        W 7213   4.740   3.661   0.746  0.2774  0.0771 -0.0523
 3150W        W 7214   0.552   6.634   9.123  0.0590 -0.0384 -0.0605
 3151W        W 7215   8.968   6.543   0.014  0.1174 -0.0166  0.1713
 3152W        W 7216   8.196   3.585   3.035  0.0394  0.0535  0.1958
 3153W        W 7217   9.568   8.809   9.874  0.1023  0.0250 -0.0497
 3154W        W 7218   3.477   3.755   2.414 -0.0756 -0.3041  0.0473
 3155W        W 7219   5.552   9.619   7.109 -0.1150  0.0687 -0.1787
 3156W        W 7220   4.556   5.638   4.001 -0.1739  0.1022 -0.4224
 3157W        W 7221   7.436  10.658  10.387  0.1757 -0.0331  0.4579
 3158W        W 7222   2.902   4.384   9.247 -0.3532 -0.1694  0.1596
 3159W        W 7223   8.992   4.671  11.004  0.2819 -0.1657  0.3410
 3160W        W 7224   7.668   0.358   8.741 -0.0922  0.1520  0.0335
 3161W        W 7225   4.556   0.129   1.038  0.1782  0.0296 -0.1987
 3162W        W 7226   6.491   3.612   9.040 -0.1275  0.1674  0.2040
 3163W        W 7227   9.323   6.359   0.367  0.2560 -0.0271  0.0961
 3164W        W 7228   5.896   3.263   1.296  0.2140  0.0819 -0.2491
 3165W        W 7229   7.373   6.415   2.255 -0.1402 -0.3318 -0.1854
 3166W        W 7230   8.071   9.628   8.699 -0.2778  0.0499  0.0650
 3167W        W 7231   5.846   1.300   8.548  0.1376  0.0902 -0.0840
 3168W        W 7232   0.547   5.721   8.862  0.1593  0.0321  0.0173
 3169W        W 7233   2.956   5.492  11.275 -0.0806 -0.2371  0.1486
 3170W        W 7234  10.009   7.581   0.168 -0.1282 -0.0385  0.0005
 3171W        W 7235   8.857   0.809   9.432 -0.0248  0.1860  0.0535
 3172W        W 7236  10.501   9.953  10.667 -0.3354 -0.0353 -0.0935
 3173W        W 7237   5.317   3.476   1.508 -0.0977 -0.2083  0.0563
 3174W        W 7238  10.162   6.332   2.248 -0.2162 -0.0636 -0.2830
 3175W        W 7239   1.883   9.119   3.046  0.1632  0.0901  0.0441
 3176W        W 7240   4.235   8.323   2.362 -0.2505  0.1339  0.1483
 3177W        W 7241   8.895   9.563   7.405 -0.2064 -0.2234 -0.0096
 3178W        W 7242   6.681   2.767  10.651  0.1184  0.2737  0.2031
 3179W        W 7243   3.541   6.319   9.620  0.0993 -0.2437 -0.1378
 3180W        W 7244   4.219   7.837  11.078 -0.1165 -0.0648  0.0342
 3181W        W 7245   8.596   3.684   9.617 -0.2195 -0.0238  0.0651
 3182W        W 7246   5.840   6.694   3.221  0.0407  0.0752 -0.0047
 3183W        W 7247   3.427   2.728   3.751  0.1819  0.0704 -0.0425
 3184W        W 7248   4.558   7.370   1.656  0.0085  0.0870 -0.1033
 3185W        W 7249   6.822   4.222   3.637 -0.1030 -0.0274 -0.3226
 3186W        W 7250   5.396   8.652   3.092 -0.4204 -0.2237  0.0121
 3187W        W 7251   3.658   6.456   8.695 -0.1091 -0.0144  0.3258
 3188W        W 7252   4.797   3.282   9.366  0.1213 -0.3732 -0.0392
 3189W        W 7253   3.418   6.717   1.062  0.1103 -0.1373 -0.2243
 3190W        W 7254  10.266   2.562   1.696  0.0270 -0.0692 -0.0265
 3191W        W 7255   4.551   5.348  11.097  0.2139  0.0117 -0.1177
 3192W        W 7256   0.391   6.902   0.974  0.4467  0.0230  0.1589
 3193W        W 7257   4.305   0.126  11.274 -0.3295  0.2766  0.0660
 3194W        W 7258   3.733   6.887   8.922  0.0519 -0.0747 -0.1288
 3195W        W 7259   4.517   2.168  10.727  0.1839  0.3544 -0.0739
 3196W        W 7260   7.165   4.031   1.419  0.2728  0.2601 -0.2552
 3197W        W 7261   2.444   2.075   3.153 -0.0681 -0.1411 -0.2081
 3198W        W 7262   8.231   6.497   8.841  0.1447  0.2099  0.0077
 3199W        W 7263   2.255   4.120   2.323 -0.0289  0.1187  0.2551
 3200W        W 7264   1.082   8.462   9.603 -0.0697 -0.0539  0.0945
 3201W        W 7265   8.601   9.965   9.211  0.0565  0.0362 -0.2336
 3202W        W 7266   1.829   9.698   0.045  0.0043  0.0157 -0.2200
 3203W        W 7267   0.156   6.564   3.231 -0.3765  0.0110  0.0579
 3204W        W 7268   2.686   2.111   3.983  0.2349  0.0468 -0.1316
 3205W        W 7269   4.629   7.101   0.663 -0.1547  0.4553 -0.0541
 3206W        W 7270   8.771   1.237   3.322 -0.1159 -0.1426 -0.3378
 3207W        W 7271   5.558   0.990   0.385  0.1359 -0.1083  0.0305
 3208W        W 7272   9.399   5.976  10.277  0.0316 -0.0336  0.1512
 3209W        W 7273   4.260   0.361  10.776  0.3175  0.0205 -0.0741
 3210W        W 7274   6.798   8.219   3.766 -0.3129  0.1219 -0.1738
 3211W        W 7275   2.744   9.798  11.284 -0.0296 -0.0987  0.0314
 3212W        W 7276   8.744   5.884   3.339 -0.1897 -0.1114 -0.0429
 3213W        W 7277  10.156   2.756   0.738  0.2542 -0.0320  0.2799
 3214W        W 7278   6.963   7.518   1.041  0.1021 -0.2637  0.0371
 3215W        W 7279   5.795   2.749   2.819  0.1212  0.0011 -0.3517
 3216W        W 7280   7.630   2.780   9.590  0.2581  0.1497  0.1471
 3217W        W 7281   3.187  10.058   2.173 -0.0809 -0.0994 -0.1700
 3218W        W 7282   0.022   3.531   0.672 -0.0697 -0.2231 -0.0056
 3219W        W 7283   3.884   7.875   2.965  0.1884  0.0700  0.0272
 3220W        W 7284   5.502   4.535   1.490 -0.2984  0.4655  0.0169
 3221W        W 7285   2.064   8.238   3.359  0.1852 -0.1544  0.1965
 3222W        W 7286   5.274   4.797   1.141  0.5131  0.0023 -0.1093
 3223W        W 7287   8.543   8.492   0.127 -0.0688  0.0853 -0.3637
 3224W        W 7288   4.191   5.651  11.290 -0.1068  0.0962  0.0604
 3225W        W 7289   2.565   8.109   3.444 -0.2781 -0.1342  0.3254
 3226W        W 7290   4.346   8.538   0.044  0.2217  0.1579 -0.4195
 3227W        W 7291   6.739   3.473   0.512  0.1846 -0.0565 -0.1203
 3228W        W 7292   3.667   3.393   1.547 -0.1010  0.1051 -0.0800
 3229W        W 7293   4.947   1.786   9.453  0.0934 -0.3080  0.1901
 3230W        W 7294  10.131   8.001   2.638  0.1721  0.1691  0.1576
 3231W        W 7295   4.527   1.407   9.230 -0.0947  0.1799 -0.2079
 3232W        W 7296   3.657   9.411  11.255 -0.1520  0.2673  0.2766
 3233W        W 7297   9.522   1.700   9.279 -0.2576  0.2868 -0.0645
 3234W        W 7298   6.257  10.426   0.512 -0.0199 -0.0358 -0.2291
 3235W        W 7299   3.552   0.194   9.252 -0.1158 -0.1450 -0.2239
 3236W        W 7300   4.497  10.572   8.597 -0.0546  0.0740  0.0442
 3237W        W 7301   6.002   1.362   3.255  0.0107  0.0028  0.2295
 3238W        W 7302   5.075   7.100   9.402  0.1750 -0.0557  0.0216
 3239W        W 7303   5.327   7.056   8.184 -0.0518  0.1408 -0.0180
 3240W        W 7304   5.192   8.016   2.407 -0.2024 -0.1047 -0.5789
 3241W        W 7305   6.115   3.018   2.604 -0.2325 -0.0407  0.0622
 3242W        W 7306   1.146   5.155   8.516 -0.0570  0.0181 -0.0399
 3243W        W 7307   2.131   3.578   2.070 -0.1426  0.2879  0.2163
 3244W        W 7308   5.848   6.047   2.339 -0.4139  0.0193  0.2436
 3245W        W 7309  10.160  10.325  10.487  0.0654 -0.2218  0.4433
 3246W        W 7310   9.449   6.427   0.943 -0.2193 -0.0375 -0.0068
 3247W        W 7311   1.762   1.921   1.964  0.1679 -0.0626  0.0016
 3248W        W 7312  10.485  10.604   9.562  0.1551  0.2853  0.0529
 3249W        W 7313   7.468   9.178   8.164 -0.1662 -0.0992 -0.0839
 3250W        W 7314   9.384   0.247   2.322 -0.2861 -0.0068  0.2233
 3251W        W 7315   3.525   7.192   0.758 -0.1058 -0.2368 -0.1152
 3252W        W 7316   3.381   0.912   2.729 -0.2301 -0.1819  0.1922
 3253W        W 7317   3.009   5.640   9.569 -0.2714  0.0291 -0.0804
 3254W        W 7318   7.713   3.878  10.909 -0.1673  0.0030 -0.0453
 3255W        W 7319   3.416  10.034  10.799 -0.2063  0.2879 -0.2989
 3256W        W 7320   0.036   2.219   3.096  0.0902 -0.2866  0.0856
 3257W        W 7321  10.342   4.796  10.693 -0.0088 -0.0396 -0.4762
 3258W        W 7322   7.211   0.093   2.121  0.0080  0.0165 -0.1375
 3259W        W 7323   0.803   3.756   9.692  0.0584  0.1149  0.0151
 3260W        W 7324   8.221   2.705   1.041  0.0711 -0.1168  0.2139
 3261W        W 7325   1.252   2.179  10.862 -0.2210  0.0426  0.1033
 3262W        W 7326   9.490   8.071  10.518  0.0486 -0.2947  0.0861
 3263W        W 7327   7.210   1.116   1.197  0.0413 -0.0559  0.0625
 3264W        W 7328   9.947   6.629   8.039  0.2962 -0.1801  0.2682
 3265W        W 7329   3.886   1.890   8.534 -0.0948  0.0761 -0.1384
 3266W        W 7330   1.766   3.080   8.599  0.1275  0.0624 -0.1993
 3267W        W 7331   9.606   5.083   1.990  0.0688 -0.3748  0.0355
 3268W        W 7332   2.577   2.928   3.649  0.0659  0.1098 -0.0110
 3269W        W 7333   7.867   6.579   2.204 -0.1172  0.1305  0.1752
 3270W        W 7334   8.623   5.929   0.606  0.0859  0.3236 -0.0282
 3271W        W 7335   2.378  10.440   8.801  0.1134  0.0368 -0.0185
 3272W        W 7336   3.889   3.431   2.409 -0.0677 -0.0302 -0.3111
 3273W        W 7337   4.259   4.688   2.680 -0.0081 -0.0598  0.0459
 3274W        W 7338   4.548   2.325   1.351 -0.3498  0.0471 -0.0540
 3275W        W 7339  10.142   2.723   2.198  0.0356 -0.3667 -0.1066
 3276W        W 7340   9.155   8.442   9.829  0.0211  0.0222 -0.2379
 3277W        W 7341   4.109   9.655  10.539 -0.2483 -0.0515 -0.0202
 3278W        W 7342   8.092   1.000   2.872 -0.1556  0.1945  0.0411
 3279W        W 7343   7.700   8.878   2.932 -0.1300 -0.0092 -0.1753
 3280W        W 7344   9.888   1.794   2.165 -0.2158  0.1622  0.0914
 3281W        W 7345   2.141   4.682   8.559  0.0101 -0.1911  0.3388
 3282W        W 7346   6.633  10.217   7.996 -0.1617  0.2640 -0.0472
 3283W        W 7347   6.087   2.587   8.083 -0.1384 -0.2532  0.0123
 3284W        W 7348   6.898   5.222   7.148 -0.1126  0.2968  0.1214
 3285W        W 7349   3.188   2.174  10.260  0.2255 -0.4133 -0.2275
 3286W        W 7350   9.122   2.281   0.970 -0.1417  0.0186 -0.1135
 3287W        W 7351   3.708   8.301  10.975 -0.0289 -0.0108  0.0082
 3288W        W 7352   3.068   3.184  10.375 -0.0975 -0.1031 -0.2175
 3289W        W 7353   2.278   2.088   9.616 -0.0620 -0.1651 -0.2016
 3290W        W 7354   4.674  10.410   3.435 -0.3009 -0.5811 -0.0234
 3291W        W 7355   7.355  10.509   7.313 -0.1788 -0.1373  0.1680
 3292W        W 7356   7.654   5.610   8.636 -0.1820 -0.1699  0.0856
 3293W        W 7357   6.177   5.943   3.592  0.3107  0.0084  0.4254
 3294W        W 7358   9.020   7.637   9.488 -0.2390 -0.0324 -0.0841
 3295W        W 7359   0.498   7.384   4.234 -0.2197 -0.2311 -0.2933
 3296W        W 7360   4.526   5.774   1.314  0.0991 -0.2213 -0.0374
 3297W        W 7361   0.506   1.126  11.362 -0.0866 -0.0974 -0.0172
 3298W        W 7362   5.184   9.159   3.787  0.2396 -0.3194 -0.2847
 3299W        W 7363   5.258   6.644   9.065  0.2275  0.0817 -0.0887
 3300W        W 7364   3.030   5.135   1.935 -0.0712  0.2177  0.0293
 3301W        W 7365   8.879   9.807   1.310  0.1973 -0.0440 -0.0395
 3302W        W 7366   6.229   5.501   8.434  0.4233  0.0036  0.1211
 3303W        W 7367   0.626   9.470   9.828 -0.1886  0.1379  0.0924
 3304W        W 7368   0.833   5.377   0.869 -0.5432  0.1073  0.1614
 3305W        W 7369   9.862   6.772   0.182 -0.1456 -0.0887 -0.0622
 3306W        W 7370   6.931   0.990   3.002  0.1923 -0.2918 -0.1386
 3307W        W 7371   4.223   4.931  11.193 -0.1706  0.0860  0.3788
 3308W        W 7372   8.096  10.132  10.658  0.2452 -0.0684 -0.0496
 3309W        W 7373   5.523  10.471  10.443  0.1371 -0.2863 -0.4518
 3310W        W 7374   7.607   6.721   0.707 -0.0104  0.1425 -0.1778
 3311W        W 7375   9.324   5.437   1.775  0.0429  0.0838  0.3627
 3312W        W 7376   7.074   6.848   8.080  0.1994 -0.0595  0.0770
 3313W        W 7377   3.201   9.407   1.017 -0.3051  0.0889 -0.0350
 3314W        W 7378   9.728   9.463   1.511  0.1692  0.0750 -0.0255
 3315W        W 7379   2.001   7.985   8.212 -0.2950  0.1232 -0.1951
 3316W        W 7380   1.517   7.604   8.813 -0.0553  0.3945 -0.2599
 3317W        W 7381   6.183   5.204   2.830  0.3332  0.0190 -0.0973
 3318W        W 7382   9.888   2.302   9.276  0.0982  0.2047  0.0749
 3319W        W 7383   1.825   1.536  11.222 -0.0876 -0.0334  0.3554
 3320W        W 7384   7.058   0.371   2.905  0.1780  0.3780 -0.0913
 3321W        W 7385   2.671   6.250   2.905 -0.4824  0.1103  0.1861
 3322W        W 7386   6.476   5.198   0.611 -0.0415  0.1299 -0.1607
 3323W        W 7387   8.387   3.336   2.028 -0.1094 -0.2435  0.1344
 3324W        W 7388   4.400   4.543  10.921 -0.0294  0.1183  0.1065
 3325W        W 7389   2.980   6.455   8.989 -0.1993 -0.1563  0.0565
 3326W        W 7390   6.962   4.519   1.470  0.1903 -0.1406 -0.0797
 3327W        W 7391   7.620   8.927   9.058 -0.1076 -0.1166 -0.2359
 3328W        W 7392   3.708   9.086   3.378  0.3964 -0.0432  0.1990
 3329W        W 7393   3.935   3.642   8.492 -0.1960  0.3069  0.1821
 3330W        W 7394  10.098   5.708   8.944 -0.1706  0.2460  0.1555
 3331W        W 7395   5.068   1.680   2.080  0.1646  0.0670  0.0283
 3332W        W 7396   0.480   7.494   8.820 -0.2044  0.0853  0.0852
 3333W        W 7397   3.379  10.480   9.849  0.0653 -0.0129 -0.2212
 3334W        W 7398   5.545   7.227   2.590  0.1082 -0.0422  0.1492
 3335W        W 7399   1.082   2.710   9.136 -0.0006  0.0230  0.0768
 3336W        W 7400   7.418   1.018   9.755 -0.2432 -0.0601  0.0832
 3337W        W 7401   8.405   1.215  10.611  0.2887 -0.0827 -0.1998
 3338W        W 7402   0.362  10.379  10.654  0.0059 -0.0681  0.0029
 3339W        W 7403   5.423   5.015   2.474 -0.2256 -0.4176  0.0452
 3340W        W 7404   1.280   9.824   1.280 -0.0398 -0.3112 -0.1455
 3341W        W 7405   9.216   8.652   1.546  0.4948  0.3740 -0.1767
 3342W        W 7406   4.244   9.391   2.181  0.0492 -0.1990  0.3157
 3343W        W 7407   2.929   2.680   9.458 -0.1244 -0.2366  0.1211
 3344W        W 7408   0.002   6.322   2.186 -0.0104  0.2426 -0.1810
 3345W        W 7409   5.428   9.475  10.235  0.0566 -0.2798 -0.0720
 3346W        W 7410   3.640   5.078   8.636  0.3029 -0.1215  0.1549
 3347W        W 7411   7.248   0.176   9.005  0.0852 -0.0340 -0.2461
 3348W        W 7412   2.218   6.753   2.507 -0.0552  0.2417 -0.1878
 3349W        W 7413   2.049   6.508  10.147  0.0306 -0.3401 -0.2040
 3350W        W 7414   7.726   1.210   2.412 -0.1486 -0.1768  0.0796
 3351W        W 7415   8.306   7.338   3.325  0.0600 -0.3164  0.0490
 3352W        W 7416   1.583   1.175   8.752 -0.0261  0.0694 -0.1682
 3353W        W 7417   7.864   2.708   7.682  0.2929  0.5045  0.0473
 3354W        W 7418   0.250   2.934  10.527 -0.1096 -0.0514 -0.1912
 3355W        W 7419   1.704   2.082   8.369  0.4587 -0.1716 -0.1028
 3356W        W 7420   9.589   6.983  10.395 -0.4905  0.1284  0.1987
 3357W        W 7421   7.050   9.232   0.085 -0.4795  0.2752 -0.2232
 3358W        W 7422   7.873   3.951   3.253 -0.2320 -0.2586 -0.0326
 3359W        W 7423   7.203  10.223   0.457 -0.3215 -0.0351 -0.0940
 3360W        W 7424   9.625   6.832   1.209  0.1885  0.0470  0.0644
 3361W        W 7425   7.701   7.174   1.430 -0.0908  0.0650  0.1839
 3362W        W 7426   8.203   3.117  10.902  0.2481 -0.3376  0.1931
 3363W        W 7427   5.419   4.015   1.400  0.1239  0.2210 -0.1052
 3364W        W 7428   2.140   7.482   2.705  0.0220  0.4028  0.0605
 3365W        W 7429   8.300   6.463   8.146  0.1163 -0.1494  0.1239
 3366W        W 7430   9.473   8.742   0.505 -0.0848 -0.3543 -0.0550
 3367W        W 7431   9.389   6.698  10.844 -0.1400 -0.2563  0.0464
 3368W        W 7432   0.635   7.596   9.322 -0.2083  0.1746  0.0290
 3369W        W 7433   7.794   2.638   0.211  0.0360 -0.2940  0.0890
 3370W        W 7434   3.954   2.169   4.216 -0.2166  0.0099  0.1161
 3371W        W 7435   0.124   0.246   2.956  0.1201 -0.0161  0.0205
 3372W        W 7436   8.807   8.490  11.129 -0.1762 -0.0670  0.0966
 3373W        W 7437   8.978   7.619  10.917 -0.0687 -0.1684 -0.3388
 3374W        W 7438   8.603   9.973   2.936 -0.2091  0.2181 -0.2419
 3375W        W 7439   5.231   9.107   8.106 -0.4315  0.1810 -0.3559
 3376W        W 7440   4.527   6.293   3.374 -0.0171  0.1338 -0.1725
 3377W        W 7441   8.516   7.429   1.577 -0.0681 -0.1511  0.0461
 3378W        W 7442   8.056   5.044   0.223 -0.0814  0.0676  0.0482
 3379W        W 7443   9.656   7.127  10.899 -0.2269 -0.1245  0.0869
 3380W        W 7444   1.895   4.558  10.684  0.2908 -0.4836  0.0202
 3381W        W 7445   1.668   3.924   0.034  0.0746  0.1366 -0.4992
 3382W        W 7446   9.821   4.331   9.752  0.2739  0.0617 -0.2463
 3383W        W 7447   6.379   8.674   8.247 -0.2806 -0.0257 -0.1561
 3384W        W 7448   6.139   0.233   3.064  0.3796 -0.2524 -0.2441
 3385W        W 7449   3.623   0.121   2.988  0.2339  0.1522 -0.1480
 3386W        W 7450   9.342   7.671   8.197  0.2774 -0.1019  0.1236
 3387W        W 7451   4.824   5.221   8.705  0.1326 -0.1928  0.0494
 3388W        W 7452   8.012   0.390   2.130 -0.2569  0.0388  0.0344
 3389W        W 7453   1.033   4.827   8.934 -0.0699 -0.3320 -0.1620
 3390W        W 7454   5.391   6.978   1.250  0.0017  0.0554 -0.3851
 3391W        W 7455   9.666   4.516   2.600 -0.0094  0.2228 -0.1489
 3392W        W 7456   1.605   4.275   3.418  0.0502 -0.0204  0.0404
 3393W        W 7457   1.922   8.282   2.843 -0.0505  0.1615 -0.0321
 3394W        W 7458   2.803   0.405   7.520 -0.0850  0.0922  0.0978
 3395W        W 7459   7.339   4.275  10.828 -0.0912 -0.1072 -0.2568
 3396W        W 7460   1.516   0.475   8.219  0.2561 -0.1841 -0.0701
 3397W        W 7461   8.493   2.497   1.565  0.1161  0.2428  0.0741
 3398W        W 7462   6.281   6.393   3.289  0.0018  0.1187  0.0649
 3399W        W 7463   8.140   3.186  11.363  0.1361 -0.2069  0.2812
 3400W        W 7464   0.600   6.158   9.167 -0.1142  0.1058  0.3255
 3401W        W 7465  10.437   4.798   2.038  0.0936  0.3526  0.3986
 3402W        W 7466   6.575   4.707   0.545 -0.0368  0.1312 -0.0659
 3403W        W 7467   8.492   0.738   1.679 -0.1454 -0.0448  0.3335
 3404W        W 7468   2.507  10.086  10.863  0.4278 -0.0207 -0.0381
 3405W        W 7469   6.177   3.003  11.454 -0.2266  0.0540  0.2681
 3406W        W 7470  10.111   3.561   8.979 -0.3010  0.2945 -0.2726
 3407W        W 7471   2.223   8.802  10.502 -0.1186 -0.0293 -0.1079
 3408W        W 7472   6.296   2.416   1.109  0.0073 -0.0834  0.0317
 3409W        W 7473   3.386   1.188  10.981  0.1678 -0.3134  0.1878
 3410W        W 7474   2.008   0.356  11.222 -0.5333  0.0298  0.0708
 3411W        W 7475   9.664   6.444   8.516  0.1736 -0.1526 -0.0824
 3412W        W 7476   6.955   7.774  10.519 -0.1012  0.1184  0.3008
 3413W        W 7477   3.600   4.780  10.124  0.3455  0.0752  0.1435
 3414W        W 7478   3.430   0.998   8.047 -0.2617 -0.1050 -0.1361
 3415W        W 7479   5.625   4.472  10.596  0.1691 -0.0125  0.2696
 3416W        W 7480   9.773   1.883  10.646  0.1443  0.1126 -0.2338
 3417W        W 7481   2.609   5.531   1.200 -0.2668 -0.0624 -0.1808
 3418W        W 7482   7.680   6.965   1.886 -0.0468  0.1653  0.0482
 3419W        W 7483   8.199   4.412   9.244  0.1043 -0.3354 -0.0600
 3420W        W 7484   1.613   1.387   1.802  0.0330 -0.0652  0.2760
 3421W        W 7485   6.877   2.261   1.027 -0.2746 -0.1436  0.2001
 3422W        W 7486   6.528   2.066   1.401 -0.3482 -0.1222  0.3883
 3423W        W 7487  10.539   6.571   9.674 -0.2650 -0.0343  0.0423
 3424W        W 7488   4.656   5.281   0.414 -0.0142 -0.1656  0.1761
 3425W        W 7489   5.486   4.452   8.932 -0.0357 -0.0289  0.4382
 3426W        W 7490   3.112   6.114   3.274 -0.2279 -0.2411 -0.6142
 3427W        W 7491   3.912   1.388   8.597 -0.0667 -0.2861 -0.1106
 3428W        W 7492   8.511   1.024   8.317  0.2749 -0.3210  0.0999
 3429W        W 7493   2.334   5.746   9.806 -0.1368 -0.0768 -0.0168
 3430W        W 7494   5.627   4.898  11.219  0.1688  0.3029  0.2915
 3431W        W 7495   5.050   8.793   9.052  0.0876  0.1855  0.3261
 3432W        W 7496   8.544   8.959   0.224 -0.1459  0.2119  0.0483
 3433W        W 7497   3.519   0.479   2.001 -0.1442  0.2219 -0.1658
 3434W        W 7498   1.742   6.392   1.880 -0.0471  0.0249  0.6375
 3435W        W 7499   3.137  10.617   8.527 -0.0712  0.4848  0.1952
 3436W        W 7500   0.828   8.929   9.674 -0.1308  0.0695 -0.0782
 3437W        W 7501   2.188   1.610   9.903  0.1828 -0.0165 -0.2352
 3438W        W 7502   9.188   7.219  11.144  0.0173  0.0561  0.3810
 3439W        W 7503   5.086   5.649  11.121  0.3458 -0.1389 -0.0110
 3440W        W 7504   4.170   2.712   1.138 -0.1733  0.3066 -0.1826
 3441W        W 7505   4.905   5.719   0.586  0.2497  0.0760 -0.1934
 3442W        W 7506   1.177   0.520   1.457 -0.1744 -0.1966  0.0609
 3443W        W 7507   0.374   2.567   9.670 -0.0926 -0.0301  0.0867
 3444W        W 7508   6.796  10.339   3.411  0.0829  0.0049 -0.2424
 3445W        W 7509   1.002   8.794   0.044 -0.2854 -0.0572  0.1350
 3446W        W 7510  10.261   7.325   9.182  0.1472 -0.2740  0.0568
 3447W        W 7511   6.626   0.066   3.118 -0.0094 -0.2209  0.0784
 3448W        W 7512   5.626   0.030   1.873  0.1885 -0.2090  0.1902
 3449W        W 7513   2.210   5.261   1.305  0.3461  0.3455 -0.0693
 3450W        W 7514   4.916   2.278   9.323  0.2168  0.5304  0.0035
 3451W        W 7515   3.939  10.444  10.070  0.2461  0.0578 -0.2619
 3452W        W 7516   6.918   0.659   0.210  0.1780  0.0472 -0.1729
 3453W        W 7517   7.165   6.308  10.493  0.1818 -0.2171 -0.0456
 3454W        W 7518   7.957   0.913   9.958 -0.0728 -0.1779 -0.1031
 3455W        W 7519  10.347   7.819  10.955 -0.0796 -0.0399 -0.1400
 3456W        W 7520   2.449   3.854  10.259  0.5123  0.0214  0.1663
 3457W        W 7521   3.829  10.373   3.870 -0.0188  0.2038 -0.0662
 3458W        W 7522   8.621   2.546  10.269 -0.0904  0.0950 -0.1324
 3459W        W 7523   5.119   7.105  10.044  0.5415  0.1969 -0.0489
 3460W        W 7524   8.368   7.423  10.097  0.2309  0.1298  0.4579
 3461W        W 7525   7.960   7.044   2.307  0.1044 -0.0906 -0.0654
 3462W        W 7526   8.194   9.160   2.190 -0.0675  0.0075 -0.1409
 3463W        W 7527   2.682   9.246  10.973  0.0868 -0.2325 -0.0352
 3464W        W 7528   1.549   2.803   3.677  0.0548  0.0851  0.0326
 3465W        W 7529   2.164   7.149   1.889  0.0486  0.3442  0.0805
 3466W        W 7530   6.164   9.689   8.054 -0.3949  0.0041  0.0828
 3467W        W 7531   2.547   8.390  11.485  0.0656 -0.1058  0.0612
 3468W        W 7532   6.180   9.826   8.726  0.2820  0.3168  0.0639
 3469W        W 7533   4.671   0.171   2.424  0.0394  0.1343  0.2549
 3470W        W 7534   7.705   7.450   1.007 -0.2197  0.2087 -0.0013
 3471W        W 7535   6.478   0.645  10.593  0.1610 -0.1037  0.2046
 3472W        W 7536   6.429   4.233  10.046 -0.1032 -0.0800  0.0853
 3473W        W 7537   9.713   3.808   2.193 -0.1224  0.3358  0.0167
 3474W        W 7538   4.572   5.563   7.909 -0.0168 -0.3183  0.1845
 3475W        W 7539   2.561   9.674   3.363  0.0569 -0.2976  0.2349
 3476W        W 7540   1.575   5.091   2.914 -0.2199  0.1328 -0.0713
 3477W        W 7541   6.746   5.080   1.065 -0.0069 -0.1181  0.0987
 3478W        W 7542   6.178   3.347   8.540  0.3580  0.2939  0.0012
 3479W        W 7543   8.642   6.916   2.888 -0.2098 -0.0682  0.2427
 3480W        W 7544   9.618  10.273  11.076  0.0711  0.0002  0.1931
 3481W        W 7545   6.982   2.411   0.014  0.0018  0.0302 -0.2894
 3482W        W 7546   8.151   7.287   4.475  0.1474 -0.0692 -0.2972
 3483W        W 7547   1.051   3.319   2.069 -0.0748  0.0395 -0.3107
 3484W        W 7548   6.823   0.785   9.688  0.2713 -0.0406 -0.2449
 3485W        W 7549   8.842   4.516   0.443 -0.2199  0.1322 -0.1712
 3486W        W 7550   7.530   5.484   0.663  0.0645 -0.1186  0.0412
 3487W        W 7551   4.727   0.922  11.289 -0.0191  0.1875  0.1361
 3488W        W 7552   4.103   9.535  11.075  0.1685 -0.0078  0.0095
 3489W        W 7553   8.471   3.972  10.038  0.1628  0.0550 -0.2694
 3490W        W 7554   7.316   2.517  10.730 -0.2037  0.1463 -0.1173
 3491W        W 7555   2.199   0.899   2.556 -0.1846  0.0305 -0.0269
 3492W        W 7556   5.500   9.253   0.625 -0.1004 -0.0371  0.0514
 3493W        W 7557   3.413   3.105  11.266 -0.1428  0.1929 -0.0190
 3494W        W 7558   1.600   0.837  11.163 -0.0677 -0.1271  0.1444
 3495W        W 7559   4.297   3.077   9.127  0.1798  0.1416 -0.2800
 3496W        W 7560   4.622   1.612   2.256  0.0627 -0.2787 -0.0060
 3497W        W 7561   8.591   4.829   0.173 -0.1028  0.0236  0.0045
 3498W        W 7562   9.083   1.313   1.615 -0.0881 -0.0470 -0.2643
 3499W        W 7563   0.081   2.275   9.367 -0.0635  0.0947  0.1682
 3500W        W 7564   8.095   7.248   1.799 -0.0065  0.2017  0.1372
 3501W        W 7565   2.718   3.778   3.151 -0.2463 -0.1520 -0.0117
 3502W        W 7566   1.121   1.452   8.221 -0.0106 -0.0346 -0.1429
 3503W        W 7567  10.404   1.674   3.611 -0.4151 -0.2948 -0.2200
 3504W        W 7568   9.753   3.298   0.764  0.0148  0.1519 -0.1653
 3505W        W 7569   6.487   8.719  11.441 -0.1588  0.0843 -0.2174
 3506W        W 7570   2.378   7.009   9.937  0.0581  0.1674  0.1041
 3507W        W 7571   3.978   6.886   2.763 -0.1050  0.0802  0.0230
 3508W        W 7572   6.139   6.871   7.604  0.2067 -0.1873 -0.1862
 3509W        W 7573   3.384   4.186  11.536  0.3488  0.2671 -0.0759
 3510W        W 7574   5.236   2.474   9.002  0.0978 -0.0701 -0.0418
 3511W        W 7575   8.120   0.710   8.146 -0.0498 -0.1220  0.2620
 3512W        W 7576   2.205  10.580  10.886 -0.2573  0.0894 -0.0874
 3513W        W 7577   3.293   1.371   2.418 -0.0614  0.4718 -0.0322
 3514W        W 7578   3.278   8.513  10.673 -0.3995 -0.0524  0.3189
 3515W        W 7579   1.411   2.697   9.480  0.1407  0.3034  0.0902
 3516W        W 7580   7.502   8.692   0.043  0.1274  0.0737 -0.3732
 3517W        W 7581   6.472   3.945   2.144 -0.2979  0.1167  0.2888
 3518W        W 7582   2.350   8.021   9.969 -0.1796 -0.1995 -0.0110
 3519W        W 7583   8.172   4.950  11.089  0.0304  0.0025 -0.1093
 3520W        W 7584   6.684   3.720  10.854  0.1759  0.0955  0.1123
 3521W        W 7585   3.287   5.597   2.143  0.1432  0.2626  0.2498
 3522W        W 7586   8.478   7.722   2.445  0.0646  0.1364  0.1392
 3523W        W 7587   1.412   2.427   9.990  0.1436  0.0478 -0.0133
 3524W        W 7588   8.259   4.413  10.216 -0.2219 -0.0953 -0.3066
 3525W        W 7589   0.206  10.304   1.993 -0.1182 -0.2078  0.1293
 3526W        W 7590   7.620   0.460   0.667  0.1386 -0.4149  0.0012
 3527W        W 7591   2.115   6.441   0.941 -0.1036  0.0264 -0.0357
 3528W        W 7592   8.964   2.331   8.849  0.4316 -0.2949  0.2977
 3529W        W 7593   8.564   7.247   8.705 -0.1329  0.4267  0.1879
 3530W        W 7594   6.407  10.435   2.573 -0.0519 -0.0723 -0.2272
 3531W        W 7595   6.991   1.842   9.991 -0.1406 -0.0725  0.1952
 3532W        W 7596   6.533   0.471   8.387  0.0434 -0.0634 -0.0987
 3533W        W 7597   0.305   7.835   2.005  0.5132 -0.0960  0.1807
 3534W        W 7598   0.271   5.772  10.227  0.2797 -0.0267 -0.0816
 3535W        W 7599   5.219   4.958   7.568  0.0734 -0.1042 -0.0220
 3536W        W 7600   0.465   6.876  11.405 -0.0652 -0.0422  0.4057
 3537W        W 7601   6.572   1.915   3.611  0.2856  0.2231 -0.4115
 3538W        W 7602   8.128   2.330  11.511  0.1576  0.0324  0.3130
 3539W        W 7603   8.653   4.416  10.670 -0.1322  0.1673 -0.1700
 3540W        W 7604   1.067   6.512   9.785  0.3019  0.1368 -0.2255
 3541W        W 7605   7.315   4.027   9.862 -0.0205 -0.0512  0.1667
 3542W        W 7606   7.102   9.285   8.673 -0.3326 -0.1005  0.2951
 3543W        W 7607   6.884   3.647   3.847 -0.1276  0.0034 -0.0267
 3544W        W 7608   3.318   7.509   2.987  0.0311 -0.1745 -0.0889
 3545W        W 7609   7.225   4.904   1.230  0.1621 -0.4686  0.0643
 3546W        W 7610   0.283  10.393  11.250 -0.0011  0.0266  0.2507
 3547W        W 7611   8.679  10.461  11.230 -0.1313  0.0051  0.2484
 3548W        W 7612   6.893   9.101   2.478  0.0193  0.0586 -0.0572
 3549W        W 7613  10.285   4.732   1.025  0.0534 -0.2343  0.1264
 3550W        W 7614   7.818   9.006   1.975  0.3077 -0.4703  0.0994
 3551W        W 7615   0.760   2.377   9.980  0.2032 -0.2427  0.3220
 3552W        W 7616   6.464   9.485  10.070 -0.1160  0.0136 -0.0014
 3553W        W 7617   9.819   8.935  10.757  0.0574  0.1561 -0.3426
 3554W        W 7618   8.407   0.010   9.935 -0.0783  0.1117  0.0576
 3555W        W 7619   1.367   5.720  10.732  0.0130  0.4402 -0.1258
 3556W        W 7620   6.295   3.728   9.862  0.0989 -0.2202  0.1257
 3557W        W 7621   8.328   6.726   2.076  0.3310 -0.1625 -0.1876
 3558W        W 7622   5.972   4.992   8.413 -0.0189 -0.1066  0.0790
 3559W        W 7623   8.621   8.826   3.632 -0.1948 -0.0071 -0.3907
 3560W        W 7624   8.658   3.679   9.084  0.1452  0.2543 -0.0040
 3561W        W 7625   8.268  10.133   8.614 -0.3255 -0.2861 -0.2035
 3562W        W 7626   0.238   7.431   2.979 -0.1539  0.1006 -0.0794
 3563W        W 7627   5.663   3.281   1.780 -0.3045  0.1840 -0.4673
 3564W        W 7628   1.927   0.111   3.613  0.0644  0.0136 -0.1067
 3565W        W 7629   9.405  10.145   2.924 -0.2457 -0.2469 -0.1883
 3566W        W 7630   5.550   8.155   8.676 -0.0586  0.1229 -0.1070
 3567W        W 7631  10.593   5.424  11.126 -0.0416  0.1046 -0.0390
 3568W        W 7632   8.170   6.695   2.574 -0.2364 -0.1017 -0.0244
 3569W        W 7633   2.187   9.188  11.150  0.0515 -0.1000  0.4092
 3570W        W 7634  10.632   8.326   2.672  0.1263 -0.1802 -0.3245
 3571W        W 7635   8.011   2.949   0.596  0.2701 -0.0637 -0.1610
 3572W        W 7636   2.188   6.222   2.716 -0.0645 -0.1392  0.1341
 3573W        W 7637  10.226   9.548   3.207 -0.4266  0.2881  0.1099
 3574W        W 7638   8.035   8.136   0.551  0.2591  0.1378  0.1479
 3575W        W 7639   4.394   9.046   0.794  0.2605 -0.3858 -0.1477
 3576W        W 7640   5.040   9.385  11.041 -0.1184  0.0060  0.0372
 3577W        W 7641   8.757   7.960   9.102 -0.1320 -0.1388 -0.1193
 3578W        W 7642   0.321   9.922   1.109  0.0176  0.1807 -0.1841
 3579W        W 7643   1.515   5.109   2.042 -0.2157 -0.1392 -0.1017
 3580W        W 7644   9.288   1.660   8.070 -0.1450  0.1738 -0.0661
 3581W        W 7645   0.577   7.839   7.927  0.2425 -0.0570 -0.0133
 3582W        W 7646   4.121   9.108  11.381 -0.2607 -0.3169  0.2058
 3583W        W 7647   6.313   0.265   2.389 -0.0788 -0.1237 -0.0471
 3584W        W 7648   7.413   4.534   9.839 -0.1531  0.3695  0.6273
 3585W        W 7649   9.589   5.823   2.943  0.1387 -0.2009 -0.0676
 3586W        W 7650   6.827   8.870   0.859  0.4243 -0.1148 -0.1056
 3587W        W 7651   2.736   7.157   0.274  0.1691 -0.0737 -0.0744
 3588W        W 7652   5.639   5.079   1.446  0.1034 -0.0510  0.1033
 3589W        W 7653   5.190   0.031   2.188  0.2853 -0.1191  0.4672
 3590W        W 7654   7.163   9.207   9.636  0.2056 -0.0293  0.4914
 3591W        W 7655   9.446   6.418   2.987  0.1516  0.2875 -0.0862
 3592W        W 7656   1.834   6.053   0.721  0.0468  0.0353  0.1148
 3593W        W 7657   0.595   6.992   8.472 -0.2058 -0.1737 -0.0290
 3594W        W 7658   3.788   9.370   8.193  0.1067  0.1441  0.2021
 3595W        W 7659   6.996   3.233   2.134  0.0222  0.1286 -0.2134
 3596W        W 7660   2.525   6.823   3.544 -0.0961 -0.0527 -0.3123
 3597W        W 7661   2.217   9.546   0.422 -0.0759 -0.1868  0.0762
 3598W        W 7662   2.600   0.636   2.471  0.2121 -0.3528  0.0342
 3599W        W 7663   2.467  10.655   8.295  0.0955 -0.0574 -0.2892
 3600W        W 7664   8.890   7.757   1.692  0.2333  0.2681  0.1075
 3601W        W 7665   8.849   6.871   0.897  0.0934 -0.1077 -0.0614
 3602W        W 7666   0.988   5.804   0.438  0.4730  0.3171  0.0963
 3603W        W 7667   9.789   2.021   8.915  0.3556  0.0466  0.0275
 3604W        W 7668   8.532   5.134   1.118 -0.0696  0.4923 -0.2560
 3605W        W 7669   2.948   2.971   2.295  0.3110 -0.0996 -0.0501
 3606W        W 7670   1.335   5.346  10.315 -0.1456 -0.0224  0.0094
 3607W        W 7671   9.981   7.013   1.805  0.2696 -0.2978 -0.2398
 3608W        W 7672   8.369   8.514   0.616  0.1291  0.0698  0.0254
 3609W        W 7673   5.126   5.129  11.118 -0.0173  0.0714 -0.2588
 3610W        W 7674   3.529   4.510  10.600  0.0175 -0.0855 -0.0580
 3611W        W 7675   6.988   6.083   0.163 -0.1046  0.1669 -0.1320
 3612W        W 7676   5.842   5.829   1.817 -0.1435 -0.2184  0.0981
 3613W        W 7677   5.150   7.380   2.907  0.2493  0.0985 -0.0220
 3614W        W 7678   7.716   8.450  10.739 -0.0794  0.0112  0.1580
 3615W        W 7679   9.252   3.698   8.241  0.1303  0.2336  0.1966
 3616W        W 7680   7.407   6.540   1.722  0.0647  0.1578  0.0753
 3617W        W 7681   5.150   2.048   3.288 -0.3965  0.1292 -0.1907
 3618W        W 7682   7.470   6.141   9.146  0.0362 -0.0439  0.1625
 3619W        W 7683   1.251  10.573   0.349 -0.1421  0.1529 -0.0418
 3620W        W 7684  10.503   8.360   7.074  0.1505 -0.0513  0.1438
 3621W        W 7685   1.975   8.350   1.814 -0.1526  0.2933  0.1265
 3622W        W 7686   0.011   6.175  10.656 -0.0608  0.0521  0.1043
 3623W        W 7687   7.357   8.103  10.790  0.0111 -0.1256  0.2135
 3624W        W 7688   0.411   8.571   2.714 -0.1096 -0.0445 -0.0831
 3625W        W 7689   2.972   2.017  11.239 -0.1176  0.2814 -0.0453
 3626W        W 7690   2.458   4.139  10.997 -0.1802 -0.0171  0.0592
 3627W        W 7691   6.726   6.173  10.639 -0.2616  0.2260 -0.0426
 3628W        W 7692   0.077  10.011   0.010  0.2696  0.0286  0.2047
 3629W        W 7693   0.831   9.825   7.995 -0.0667 -0.1166 -0.1610
 3630W        W 7694   8.015   4.667   9.822 -0.0667 -0.0231 -0.1663
 3631W        W 7695   0.521   0.955   8.804 -0.0700 -0.0246  0.1534
 3632W        W 7696   4.074   4.869   9.997  0.0889  0.1339  0.1114
 3633W        W 7697   2.743   0.100   9.212 -0.1248  0.1177 -0.2071
 3634W        W 7698   5.081   1.468   3.231  0.0221  0.1206  0.1247
 3635W        W 7699   3.729   5.715   2.569 -0.1292  0.3053  0.0369
 3636W        W 7700   9.524   2.683  10.169  0.2910  0.2872 -0.2283
 3637W        W 7701   4.770   0.718  10.736 -0.0355  0.1044 -0.1779
 3638W        W 7702   4.610   3.182   0.669 -0.0362 -0.0925  0.0694
 3639W        W 7703   7.332  10.168   2.316  0.0380  0.3371  0.2590
 3640W        W 7704   9.805   0.071   1.471 -0.0930 -0.0533 -0.1003
 3641W        W 7705   3.739   3.174   3.788  0.1809  0.2962  0.0008
 3642W        W 7706   4.861   7.067   2.610 -0.4065  0.0093  0.3345
 3643W        W 7707   3.224   6.447   0.040  0.0026  0.0092 -0.2083
 3644W        W 7708   3.865   2.023   1.999 -0.1997  0.3094 -0.2217
 3645W        W 7709   0.451   1.927   3.669  0.1186 -0.1029  0.0973
 3646W        W 7710   3.033   3.567   4.336 -0.1774 -0.6780 -0.0235
 3647W        W 7711   1.960   7.420   3.190  0.1559  0.4354 -0.2770
 3648W        W 7712   5.381   1.772   2.857 -0.0783 -0.1134  0.0996
 3649W        W 7713   6.532   3.274   0.925 -0.0668 -0.1209 -0.1014
 3650W        W 7714   9.470  10.034   0.265 -0.1633  0.2461  0.3138
 3651W        W 7715   8.981   5.748  10.478 -0.3937  0.3583  0.2006
 3652W        W 7716   7.670   7.324  11.108 -0.1063  0.1258  0.2202
 3653W        W 7717   7.340   0.776  11.114  0.1697 -0.0372 -0.0325
 3654W        W 7718   0.414   6.605   2.345  0.0071  0.2612  0.0454
 3655W        W 7719   4.051   5.617   1.647 -0.4341  0.0095  0.2779
 3656W        W 7720   8.002   9.256   9.184 -0.0709  0.2705  0.0581
 3657W        W 7721   8.810   9.368   0.118  0.0585  0.2372  0.3577
 3658W        W 7722  10.502   0.638  10.925  0.2478  0.1019  0.1923
 3659W        W 7723   1.604   9.110   2.086 -0.2116  0.0129  0.0174
 3660W        W 7724   6.461   4.654   1.032  0.3068  0.1049  0.1715
 3661W        W 7725   7.675   2.687   0.812  0.0526 -0.2605 -0.1290
 3662W        W 7726   9.730   9.608   2.337 -0.1125  0.0081 -0.1990
 3663W        W 7727   2.071   1.764   0.049  0.0698 -0.0658  0.1440
 3664W        W 7728   5.383   5.924   0.676 -0.1238  0.2316  0.2034
 3665W        W 7729   9.123   0.866  11.438 -0.1354 -0.0725 -0.1892
 3666W        W 7730   8.198   1.013   1.339  0.1157 -0.3239  0.1387
 3667W        W 7731   7.026   4.629   9.565 -0.0846  0.0977 -0.0555
 3668W        W 7732   0.698   6.174   9.655  0.0627  0.0555 -0.0078
 3669W        W 7733   1.164   0.989   0.763  0.0280 -0.0469  0.1822
 3670W        W 7734   0.658   8.388   3.247  0.1184 -0.1843  0.1680
 3671W        W 7735   6.820  10.543  11.235 -0.5043 -0.1544  0.0479
 3672W        W 7736   8.971   1.621  11.054 -0.0275 -0.0056 -0.1061
 3673W        W 7737   0.031   1.109   2.579  0.1064  0.1950 -0.1988
 3674W        W 7738   5.811   3.124   9.586  0.2483  0.0892 -0.0117
 3675W        W 7739   6.997   3.739   0.220  0.2226  0.0737  0.2904
 3676W        W 7740   4.923   2.261   0.775 -0.1359 -0.0691 -0.2442
 3677W        W 7741   0.337   1.078   0.381 -0.0291 -0.1938  0.2125
 3678W        W 7742   3.074   9.620   2.785  0.0387  0.2771 -0.1852
 3679W        W 7743   5.941   3.228   0.815 -0.2981  0.1762  0.0830
 3680W        W 7744   2.672   0.545   0.360  0.0390 -0.0522  0.3050
 3681W        W 7745   0.971   8.484   2.455 -0.0145  0.3273 -0.1577
 3682W        W 7746   4.778   3.558  10.361 -0.0108 -0.1047  0.1733
 3683W        W 7747   4.552   9.122   8.945  0.0951 -0.1637 -0.0882
 3684W        W 7748   2.697   5.282   9.753 -0.0005  0.1344  0.1181
 3685W        W 7749  10.342   6.820   9.258 -0.0072  0.0829 -0.1146
 3686W        W 7750   9.615   4.010   8.390  0.0108  0.1373 -0.2933
 3687W        W 7751   3.574   9.687   9.858 -0.0201 -0.1036 -0.1566
 3688W        W 7752   9.196  10.363   3.878 -0.0680 -0.0006  0.0639
 3689W        W 7753   1.561  10.567  10.994  0.1847  0.1694 -0.0744
 3690W        W 7754   0.832   2.433   2.596  0.2017 -0.1275 -0.0489
 3691W        W 7755  10.073   2.275  10.889 -0.4723 -0.1764  0.0660
 3692W        W 7756   1.447   7.478   8.237  0.0983  0.2267 -0.1196
 3693W        W 7757   1.268   9.843  10.651  0.1882  0.0639 -0.0326
 3694W        W 7758   8.612   0.222   9.495  0.0756 -0.2152  0.0618
 3695W        W 7759   1.447   5.933   8.084  0.0660 -0.2097  0.0893
 3696W        W 7760   2.076   7.048  10.404  0.1395 -0.2482 -0.0964
 3697W        W 7761   2.552   0.768   4.262 -0.1867 -0.0940 -0.0880
 3698W        W 7762   5.144   1.363   0.433  0.2907 -0.0238 -0.2534
 3699W        W 7763   2.680   1.519   9.772  0.1139 -0.0621  0.1517
 3700W        W 7764   7.220   8.253   7.931  0.1550  0.0309 -0.4089
 3701W        W 7765   3.835   8.010   2.432 -0.3551  0.1072  0.0335
 3702W        W 7766   1.984   4.734   1.206 -0.1027  0.0174  0.1209
 3703W        W 7767   3.195   9.129   9.997  0.1061  0.1774 -0.4708
 3704W        W 7768   4.925   4.327   0.138  0.3714 -0.1366  0.1156
 3705W        W 7769   2.345   4.722   9.019  0.1241 -0.2546  0.1582
 3706W        W 7770   8.742   6.430   2.009  0.0449 -0.3305  0.0430
 3707W        W 7771   2.900   5.408   8.383  0.1156 -0.2010 -0.2354
 3708W        W 7772   7.248   1.556   8.553  0.0788 -0.2345 -0.5340
 3709W        W 7773   4.133   7.693   8.732 -0.1431 -0.3196 -0.1221
 3710W        W 7774   2.599   6.477   1.620  0.0763 -0.1534  0.0882
 3711W        W 7775   3.997   8.660   9.906 -0.1786 -0.0340 -0.2413
 3712W        W 7776   1.499   4.560   9.118 -0.0144  0.1077  0.0889
 3713W        W 7777   2.800   4.927   9.002 -0.1191  0.1741 -0.0202
 3714W        W 7778   9.813   0.012   8.456  0.2707 -0.1835 -0.0616
 3715W        W 7779   0.292   7.607   0.544  0.1731 -0.2554  0.1576
 3716W        W 7780  10.483   1.278   0.366 -0.2069  0.0847 -0.0243
 3717W        W 7781   4.523   9.562   8.672  0.0102  0.1070 -0.1544
 3718W        W 7782   1.165   3.835   2.279 -0.1978  0.1306  0.2843
 3719W        W 7783   9.678   3.477   8.531  0.1347 -0.2724 -0.0640
 3720W        W 7784   8.250   5.877  11.156 -0.0997  0.4839  0.5345
 3721W        W 7785   8.903   3.220   1.490  0.0053  0.1695 -0.2869
 3722W        W 7786   8.917  10.472   9.448  0.2263 -0.0544 -0.0138
 3723W        W 7787   9.197   7.256   9.693 -0.0170 -0.0181  0.0346
 3724W        W 7788   0.325   6.490   9.810  0.1377  0.0726  0.0776
 3725W        W 7789   5.774   7.625   4.101 -0.0211  0.1847 -0.0159
 3726W        W 7790   6.318   9.508  11.156  0.0706  0.2491  0.1195
 3727W        W 7791  10.656   5.567  10.620 -0.0970  0.0803 -0.2333
 3728W        W 7792   0.090   8.792   0.822 -0.2977 -0.1041 -0.1266
 3729W        W 7793   0.680   2.941   0.590  0.2267  0.1556  0.0289
 3730W        W 7794   6.481   7.340   7.839 -0.1446  0.2037  0.0031
 3731W        W 7795   9.092   4.186  11.057  0.2955 -0.1844 -0.3771
 3732W        W 7796   9.815   3.139  10.385  0.1602 -0.0016  0.1033
 3733W        W 7797   0.276   4.611   8.457  0.0410  0.3889  0.1529
 3734W        W 7798   4.839   2.620   1.809  0.2644  0.1376  0.0210
 3735W        W 7799   0.318   7.317   0.118 -0.0621 -0.0705 -0.0505
 3736W        W 7800   3.413   9.726   3.378 -0.2422  0.0603 -0.0654
 3737W        W 7801  10.360   3.473  11.413 -0.2337 -0.1762  0.1142
 3738W        W 7802   8.428   4.350   0.759 -0.0112  0.1259  0.0443
 3739W        W 7803   0.484   1.416   1.243 -0.0859 -0.0725  0.0457
 3740W        W 7804   5.617   4.496  10.018  0.1825  0.0299 -0.0870
 3741W        W 7805   5.846   7.757   0.151  0.3989 -0.1976 -0.1762
 3742W        W 7806   6.876  10.370   8.465  0.2874 -0.2131  0.1546
 3743W        W 7807   8.967   8.427   3.505 -0.1639  0.0495  0.1250
 3744W        W 7808   8.321   9.384  11.020 -0.0288 -0.0526 -0.1372
 3745W        W 7809   7.909   9.677  10.813  0.2081  0.0304 -0.0014
 3746W        W 7810   7.611   5.148  10.414  0.2575 -0.3866  0.0522
 3747W        W 7811   0.354   3.595   9.502 -0.1077 -0.0242 -0.0128
 3748W        W 7812   1.416   9.952   8.932  0.4706 -0.2196  0.2668
 3749W        W 7813   0.571   4.009  11.083  0.2067 -0.3390 -0.1613
 3750W        W 7814   4.214   2.467  10.523  0.1821  0.0466 -0.2881
 3751W        W 7815   3.834   3.719   2.776  0.1591  0.2904  0.2717
 3752W        W 7816   4.795   5.484  11.504  0.0784  0.1785 -0.2228
 3753W        W 7817   9.535   0.670   1.260 -0.2469  0.0875 -0.0980
 3754W        W 7818   4.391   6.270   9.207  0.3182  0.0690  0.1061
 3755W        W 7819   4.021   7.210  10.407  0.2297 -0.0267  0.2829
 3756W        W 7820   3.186   9.806   1.404  0.0878 -0.0993 -0.0762
 3757W        W 7821   9.174   4.475   2.368  0.2484  0.0532  0.1114
 3758W        W 7822   6.597   5.912   0.543 -0.2527 -0.0187 -0.0286
 3759W        W 7823   1.440  10.057   0.754  0.1814 -0.4547  0.0421
 3760W        W 7824   2.226   1.528  10.810  0.1928 -0.1242 -0.0387
 3761W        W 7825  10.331  10.415   2.149 -0.1671 -0.1222 -0.3053
 3762W        W 7826   9.365   7.347   2.131 -0.0930 -0.3036  0.1550
 3763W        W 7827   3.797   2.355   9.579  0.1150  0.1707 -0.1098
 3764W        W 7828   4.030   2.633   9.219  0.1029  0.0825 -0.0251
 3765W        W 7829   2.978   3.906   9.261  0.2045 -0.2279  0.0017
 3766W        W 7830   4.520   5.623   8.784  0.0189  0.1230  0.5953
 3767W        W 7831   8.799   1.784   0.879 -0.1982 -0.2212 -0.0251
 3768W        W 7832   4.826   6.622   9.366  0.0388  0.1946  0.0497
 3769W        W 7833  10.265   7.924   4.194  0.1514  0.1550 -0.0700
 3770W        W 7834   2.917   2.273   3.153  0.1636  0.0240  0.1714
 3771W        W 7835   6.246   4.418   2.009 -0.0768 -0.0054  0.0811
 3772W        W 7836   0.991   5.256  10.694 -0.2883 -0.2549 -0.0995
 3773W        W 7837  10.102   6.865   1.327 -0.1953 -0.3591 -0.0560
 3774W        W 7838   9.345   5.960   1.239  0.1116 -0.0508 -0.0639
 3775W        W 7839   8.424   9.777   1.588 -0.0878 -0.0037 -0.1411
 3776W        W 7840   9.714   0.357   1.931 -0.3314 -0.0500  0.0445
 3777W        W 7841   6.942   0.863   0.787 -0.3867  0.1198  0.3163
 3778W        W 7842   3.697   9.916  10.346 -0.1997 -0.0386 -0.1130
 3779W        W 7843   9.983   9.359   8.174  0.3601  0.2274 -0.2984
 3780W        W 7844   5.532   6.345  11.425 -0.0474 -0.3626 -0.1448
 3781W        W 7845   1.095   9.180   2.059  0.0287  0.0957  0.0336
 3782W        W 7846  10.320  10.438   1.648  0.0716 -0.1117  0.0411
 3783W        W 7847   4.266   2.852  10.871  0.0009  0.1344  0.0489
 3784W        W 7848   8.287   8.070   9.209 -0.0965 -0.0241  0.3871
 3785W        W 7849   5.953   7.608   2.480  0.2347 -0.2769  0.0131
 3786W        W 7850   9.121   4.368   3.573 -0.1536 -0.1451 -0.3422
 3787W        W 7851   4.815   9.001   2.639  0.1092  0.4400  0.3007
 3788W        W 7852   8.725   1.239   9.286 -0.1557  0.1750  0.1709
 3789W        W 7853   3.831   8.421   2.799 -0.2425  0.1261 -0.0135
 3790W        W 7854   7.899   4.075  11.452 -0.0641  0.3443 -0.1591
 3791W        W 7855   5.814   7.368   8.221 -0.3039  0.0242  0.0772
 3792W        W 7856   7.485   0.581   9.188 -0.3712 -0.2383 -0.3109
 3793W        W 7857  10.440   8.061   8.103  0.1271 -0.2679 -0.1471
 3794W        W 7858   2.628   5.324   2.250  0.0035 -0.0325  0.0282
 3795W        W 7859   8.738   8.241   8.612 -0.1262  0.1067 -0.4966
 3796W        W 7860   4.658   9.154   7.850  0.2685  0.2008  0.2734
 3797W        W 7861   3.908  10.077   0.801  0.1214 -0.0277  0.2670
 3798W        W 7862   9.103   8.319   2.812 -0.1642 -0.0345 -0.4813
 3799W        W 7863  10.410   5.929  10.334 -0.1636  0.3078 -0.4493
 3800W        W 7864   8.537   8.609   3.213  0.0425  0.2065 -0.0267
 3801W        W 7865   3.652   1.538   9.460  0.1950  0.1055 -0.0819
 3802W        W 7866   8.059   4.074   0.416  0.2901  0.3392  0.3148
 3803W        W 7867   0.287   4.975   2.740  0.1830 -0.0574 -0.0046
 3804W        W 7868   7.434   0.389   2.519  0.1165 -0.1287  0.1718
 3805W        W 7869   7.348   1.251   0.720  0.2565 -0.4842 -0.2484
 3806W        W 7870   0.822   2.237   8.881 -0.3070 -0.0266 -0.0561
 3807W        W 7871   7.859   3.519   2.114 -0.1738 -0.0582  0.0620
 3808W        W 7872   2.304   6.935   9.373 -0.1276 -0.2831 -0.0722
 3809W        W 7873   4.431   5.407   3.118 -0.2850  0.2265 -0.0049
 3810W        W 7874   2.299  10.399  10.327 -0.1675 -0.1006 -0.1009
 3811W        W 7875   8.688   0.761   3.270 -0.1157 -0.1249  0.0809
 3812W        W 7876   4.296   5.032   7.512 -0.2348  0.1331 -0.1711
 3813W        W 7877   0.036   6.589   8.968  0.1436 -0.0956 -0.4087
 3814W        W 7878   9.372   3.806   7.710 -0.1570 -0.0895 -0.1171
 3815W        W 7879   0.596  10.623   2.717 -0.0140  0.0168 -0.0475
 3816W        W 7880   5.199   3.228   8.501 -0.1043 -0.4123 -0.0965
 3817W        W 7881  10.644   7.801   9.260 -0.1541 -0.2305 -0.0642
 3818W        W 7882   2.775   1.961  10.513 -0.0414 -0.2034  0.0580
 3819W        W 7883   5.049   2.776   0.789 -0.4328  0.1566  0.2203
 3820W        W 7884   3.273   2.250   1.048 -0.0549 -0.0496  0.2723
 3821W        W 7885   9.678   8.387  10.182  0.1631  0.1031  0.1352
 3822W        W 7886  10.416   7.729   1.276 -0.0014 -0.2661  0.1859
 3823W        W 7887   4.018   4.860   2.274 -0.1385 -0.0320 -0.0703
 3824W        W 7888   2.066   5.193   2.968  0.1745  0.0473  0.0152
 3825W        W 7889   1.724   4.255   9.846 -0.0410  0.1315 -0.1062
 3826W        W 7890   3.327   5.946   1.031  0.0992 -0.0811  0.0636
 3827W        W 7891   8.985  10.197   0.543  0.2421 -0.1594  0.0233
 3828W        W 7892   5.284   7.911   9.830 -0.2987  0.1324 -0.0167
 3829W        W 7893   2.522  10.008   8.965 -0.2213 -0.1850 -0.3253
 3830W        W 7894   4.343   0.958   2.669  0.0645 -0.1881  0.1971
 3831W        W 7895   6.113   6.164   8.982  0.0106 -0.0250 -0.2573
 3832W        W 7896   8.392   0.630   9.366  0.0487 -0.0574  0.0733
 3833W        W 7897   8.987   7.217   1.490  0.4295  0.2360 -0.2801
 3834W        W 7898   3.322   5.630   3.206  0.1990  0.0697 -0.6758
 3835W        W 7899   5.969   4.600   0.073  0.1797 -0.0554 -0.1900
 3836W        W 7900   2.010   0.353   1.770 -0.0978  0.2997 -0.0603
 3837W        W 7901   9.882  10.273   3.145  0.2064  0.3449  0.0871
 3838W        W 7902   8.192  10.397   7.688 -0.0868  0.1182  0.1308
 3839W        W 7903   4.490   0.330   0.560 -0.2622  0.1032 -0.0256
 3840W        W 7904   4.830   7.573   0.800 -0.1251  0.0952 -0.2513
 3841W        W 7905   6.242   9.902   0.525 -0.2192  0.0660 -0.2971
 3842W        W 7906   6.893   1.501   3.496 -0.2685  0.0629  0.0462
 3843W        W 7907   9.821   0.895   3.910  0.0887 -0.1882 -0.0376
 3844W        W 7908  10.239   6.575  11.441  0.1256  0.1524 -0.1075
 3845W        W 7909   7.244   5.076  11.075  0.0305 -0.4832 -0.0754
 3846W        W 7910   9.903   3.895  10.984 -0.0610 -0.3047 -0.1163
 3847W        W 7911   7.991   3.615   3.599 -0.0037 -0.1138  0.0636
 3848W        W 7912   9.703   2.413   0.971  0.3632 -0.2365 -0.2223
 3849W        W 7913   9.851   4.205  10.569 -0.1631  0.3067  0.3510
 3850W        W 7914   6.047   4.867   7.520 -0.0029  0.3579  0.3787
 3851W        W 7915   7.361   2.390   2.634 -0.2523  0.0519 -0.1279
 3852W        W 7916   7.437   7.617  10.369  0.1308 -0.0631  0.2918
 3853W        W 7917   6.447   7.979   2.979 -0.0803  0.2370 -0.0829
 3854W        W 7918   9.731   6.285   0.039 -0.2570  0.0335 -0.1110
 3855W        W 7919   2.049   0.440   3.261 -0.2950  0.1859  0.1007
 3856W        W 7920   8.793   6.615  10.173 -0.0588  0.2005 -0.0769
 3857W        W 7921   8.995   8.755   0.364 -0.0130 -0.0832 -0.0145
 3858W        W 7922   9.772   0.580   8.816 -0.0582  0.0169 -0.5413
 3859W        W 7923   7.386   4.399   8.850  0.0137  0.0060 -0.0334
 3860W        W 7924   1.580   7.896   9.247 -0.2034  0.0310 -0.0639
 3861W        W 7925  10.152   7.437   1.623 -0.3559 -0.1995 -0.2948
 3862W        W 7926   4.898   7.670  10.543  0.2337  0.1372  0.2265
 3863W        W 7927   8.170  10.572   2.300  0.1316  0.0971  0.2704
 3864W        W 7928   3.900   3.937  10.635 -0.2645 -0.0156 -0.0654
 3865W        W 7929   4.327   5.250   9.797 -0.2239 -0.1368  0.0129
 3866W        W 7930   9.746   1.224   9.363 -0.2886 -0.1695 -0.0639
 3867W        W 7931   8.082   6.887   0.389  0.2542 -0.1112 -0.0817
 3868W        W 7932   8.943   6.329   9.419 -0.1157  0.1780 -0.0656
 3869W        W 7933   0.628   5.846   0.117  0.0636  0.1180  0.2102
 3870W        W 7934   3.934   8.619  11.277 -0.1537  0.0146  0.2635
 3871W        W 7935   5.033   8.158  10.656 -0.0167  0.0390  0.0929
 3872W        W 7936   3.221   3.690   3.061  0.2951  0.0192 -0.1983
 3873W        W 7937   7.527   5.637   9.139 -0.0173 -0.1459  0.1352
 3874W        W 7938   9.406   7.184   8.105  0.3142 -0.0885  0.1554
 3875W        W 7939   7.883   6.515  10.068  0.0091  0.2988 -0.0191
 3876W        W 7940   1.810   5.651   3.127 -0.0099  0.1053 -0.0337
 3877W        W 7941   5.538   5.927   2.753  0.1193 -0.2635  0.1223
 3878W        W 7942   6.992   5.158   2.044 -0.1006  0.1136 -0.0194
 3879W        W 7943   9.518   1.321   1.940  0.1389 -0.1444 -0.0874
 3880W        W 7944   0.129   1.978   1.954  0.1309  0.2701  0.1355
 3881W        W 7945   1.302   3.492   9.687  0.3138  0.0785 -0.1072
 3882W        W 7946   7.070   0.420   0.605  0.5485  0.0383 -0.0712
 3883W        W 7947   5.255   9.759   1.842 -0.0314 -0.1543 -0.1183
 3884W        W 7948   4.988   0.520  10.320 -0.0148  0.0827 -0.1924
 3885W        W 7949  10.294   4.092   9.591  0.2382 -0.0213  0.0453
 3886W        W 7950   1.258   8.929   2.462 -0.1683  0.0154 -0.0349
 3887W        W 7951   9.133   0.389   3.196  0.0500 -0.1398 -0.1049
 3888W        W 7952   5.204   4.825   8.077  0.0539  0.1196 -0.1162
 3889W        W 7953   6.405  10.522   9.481  0.0450  0.1503  0.0353
 3890W        W 7954   9.472   8.745   2.399 -0.1383  0.1814 -0.1192
 3891W        W 7955   6.019   6.487  10.146  0.0207 -0.2295 -0.0623
 3892W        W 7956   4.837   0.190   3.328 -0.2990  0.0317  0.0939
 3893W        W 7957   6.394   3.624   1.338 -0.1195 -0.3201  0.0805
 3894W        W 7958   6.805   6.107   1.580 -0.1553  0.0131  0.3393
 3895W        W 7959   4.049  10.395  11.023  0.2069 -0.2261  0.1680
 3896W        W 7960   8.402   3.776   3.927  0.0509  0.1447 -0.3192
 3897W        W 7961   3.376   0.850  10.602 -0.1367  0.1927  0.0647
 3898W        W 7962   8.263   2.806   0.133  0.0184  0.0091  0.1232
 3899W        W 7963   2.839   0.377   3.554 -0.0802 -0.3765  0.0799
 3900W        W 7964  10.621   6.824  11.251  0.0421  0.0389 -0.0332
 3901W        W 7965   2.129  10.538   9.312 -0.0624 -0.0640 -0.1204
 3902W        W 7966   1.660   7.552  11.236  0.1783 -0.4043 -0.0487
 3903W        W 7967   0.549   8.830   9.041  0.1353 -0.0755 -0.0902
 3904W        W 7968   9.715   8.090   0.922 -0.0170 -0.0028 -0.2878
 3905W        W 7969   4.715   9.464   9.907  0.0191  0.1958  0.0146
 3906W        W 7970   2.650   0.100   2.477 -0.1970 -0.0444  0.1230
 3907W        W 7971   2.247   8.021   0.207 -0.2199  0.0351  0.2696
 3908W        W 7972   1.535   6.076   2.876  0.3724  0.2053 -0.1748
 3909W        W 7973   0.580   2.091   2.306 -0.0166 -0.1959  0.2294
 3910W        W 7974   5.315   0.617   1.281  0.1496 -0.0508  0.0487
 3911W        W 7975   3.496   2.153  11.177  0.1841 -0.0099  0.1592
 3912W        W 7976   0.214   6.722   1.848 -0.0984  0.0272 -0.3186
 3913W        W 7977   3.656   8.740   8.925  0.0966  0.0208 -0.1124
 3914W        W 7978   5.955  10.157   3.346 -0.0009  0.2431 -0.0485
 3915W        W 7979   3.063   6.577   9.646  0.0500 -0.1233  0.2666
 3916W        W 7980   8.724   0.804  10.617  0.1353 -0.1148  0.2216
 3917W        W 7981   4.407   4.222   0.481  0.2521  0.0012  0.1411
 3918W        W 7982   8.371   9.596   7.249 -0.0143 -0.0779  0.1623
 3919W        W 7983   1.834   4.219   0.749  0.0805  0.0595 -0.3401
 3920W        W 7984  10.200   0.381   0.282  0.2106  0.0466  0.0088
 3921W        W 7985   9.727   0.561   0.652 -0.1654 -0.1100 -0.1526
 3922W        W 7986   7.843   7.937   1.381 -0.0402 -0.1285 -0.0802
 3923W        W 7987   3.550   5.811   9.532 -0.3124 -0.0412  0.2295
 3924W        W 7988   4.311   1.343  10.502 -0.0992  0.1872 -0.0674
 3925W        W 7989   0.094   7.776   8.345 -0.1244  0.1807  0.0036
 3926W        W 7990   2.535   6.351   2.179 -0.0368 -0.0478 -0.2313
 3927W        W 7991   4.343   2.429   2.979 -0.0919 -0.4358 -0.1371
 3928W        W 7992   4.591   7.819   3.638 -0.0737 -0.0572  0.0336
 3929W        W 7993   5.161   4.347   1.916  0.1147  0.0407  0.0794
 3930W        W 7994   2.294   8.447   1.069  0.1091  0.2021  0.2063
 3931W        W 7995   6.233   3.883  11.086 -0.2609 -0.2775 -0.0251
 3932W        W 7996   5.208   9.263   9.823  0.2618 -0.1024  0.0590
 3933W        W 7997   5.269   8.658   1.008  0.0650  0.1724  0.0499
 3934W        W 7998   0.353   0.432   1.635  0.0542 -0.0748  0.1031
 3935W        W 7999   3.171   5.769   8.303 -0.0130 -0.2530  0.6764
 3936W        W 8000   3.989   3.100   9.695 -0.0202 -0.1424 -0.2932
 3937W        W 8001   5.753   8.989   1.702  0.1675  0.1279  0.0236
 3938W        W 8002   4.059   0.274   8.572 -0.1646  0.0752 -0.1504
 3939W        W 8003   3.113  10.551  10.340 -0.1535  0.1532  0.1731
 3940W        W 8004  10.421   8.938   9.979 -0.0747  0.1335 -0.1992
 3941W        W 8005  10.069   0.890   2.579 -0.0534  0.2869 -0.2695
 3942W        W 8006   8.907   3.463   3.154  0.2300  0.1052  0.0503
 3943W        W 8007   9.187   2.922   1.096  0.4443  0.2012 -0.1011
 3944W        W 8008   4.130   5.146   0.441  0.1290 -0.2081  0.2386
 3945W        W 8009   3.307   2.873   0.215 -0.3473 -0.2165 -0.0657
 3946W        W 8010   4.574   6.711   2.347 -0.0376 -0.1698  0.0297
 3947W        W 8011   2.684   2.532   2.363  0.0161  0.2213 -0.0664
 3948W        W 8012   0.187   9.712   9.939  0.4249  0.0455 -0.2159
 3949W        W 8013   7.716   8.396   1.530 -0.1072  0.4383  0.1793
 3950W        W 8014   8.662   9.850   8.683  0.3991 -0.0673 -0.2920
 3951W        W 8015   0.645   3.687   2.375 -0.0887  0.2721  0.0786
 3952W        W 8016  10.161   2.104   3.416  0.0398  0.5732  0.3010
 3953W        W 8017   2.821   6.778  11.337  0.0549 -0.0905  0.2421
 3954W        W 8018   7.367   5.003   9.467  0.0811  0.3048  0.1085
 3955W        W 8019   9.580   2.063  10.135  0.2080 -0.1699  0.2636
 3956W        W 8020   9.742   2.900   3.723 -0.0628  0.2795 -0.0315
 3957W        W 8021   9.466   4.424   8.217  0.0559 -0.2683  0.0329
 3958W        W 8022   7.859   1.540  11.484  0.0303  0.0282  0.0682
 3959W        W 8023   7.538   5.685  10.531 -0.1863  0.0854 -0.1958
 3960W        W 8024   8.336   8.702   2.695 -0.1271 -0.0162 -0.0012
 3961W        W 8025   2.732   8.373   0.813 -0.0663  0.1769 -0.1612
 3962W        W 8026   7.694   3.284   9.514  0.1645 -0.0230  0.1866
 3963W        W 8027   0.609   6.583   1.512  0.3907  0.1873  0.1178
 3964W        W 8028   0.268   5.128   0.716  0.0738 -0.1740 -0.0714
 3965W        W 8029   9.704   5.703   1.522  0.3737 -0.4770 -0.0426
 3966W        W 8030   4.075   0.053   9.409  0.0760 -0.0110 -0.1247
 3967W        W 8031   3.533   2.863   1.071 -0.2996 -0.0015 -0.0501
 3968W        W 8032   9.067   6.083   2.980 -0.1743  0.1016 -0.1266
 3969W        W 8033   6.627   1.104   9.224 -0.0108  0.1821  0.0874
 3970W        W 8034   7.691   3.098  11.457 -0.0511  0.1892  0.0911
 3971W        W 8035   0.560   2.158   3.247 -0.0532  0.0536 -0.0250
 3972W        W 8036   1.226   4.081  10.384 -0.0607 -0.0318  0.1221
 3973W        W 8037   6.723   0.990  10.294  0.0784  0.0869  0.0634
 3974W        W 8038   1.111   6.620   1.599  0.2860 -0.0909 -0.1433
 3975W        W 8039   8.080   7.865   0.975 -0.2690  0.0918  0.3578
 3976W        W 8040   7.930  10.395   8.251 -0.1615  0.3068  0.1481
 3977W        W 8041   7.526   2.194   2.178 -0.0993 -0.2635 -0.0381
 3978W        W 8042   0.184   9.872   2.851  0.1443 -0.0823  0.2764
 3979W        W 8043   6.241   4.934   4.112  0.3331  0.2308 -0.2257
 3980W        W 8044   6.310   0.900   1.536  0.1248  0.1033  0.3502
 3981W        W 8045   6.833   2.119   9.583 -0.2258 -0.0838 -0.1412
 3982W        W 8046   3.816   7.112   1.690 -0.0823 -0.0249 -0.0651
 3983W        W 8047   4.044   4.524   9.583  0.3433  0.2833 -0.0699
 3984W        W 8048   2.897   4.823   8.463  0.2683  0.0881 -0.2348
 3985W        W 8049  10.604   1.030   8.046  0.0572  0.1905 -0.0758
 3986W        W 8050   6.872   0.056   7.296  0.0506  0.0564 -0.0971
 3987W        W 8051   8.238   8.098  10.601  0.1834 -0.0806  0.1613
 3988W        W 8052   0.382   3.996   1.928 -0.1065 -0.3719  0.0980
 3989W        W 8053   8.449   0.223   3.322  0.1090  0.0232  0.1893
 3990W        W 8054   4.982   8.248   1.086 -0.1678 -0.0342  0.1716
 3991W        W 8055   5.685   3.370   3.958 -0.2080  0.3811  0.2160
 3992W        W 8056   0.944   6.921   2.417 -0.2459  0.1009  0.0607
 3993W        W 8057   0.787   9.328   9.282 -0.0603 -0.1527 -0.1401
 3994W        W 8058  10.058   4.209   1.057  0.0035 -0.0742 -0.2562
 3995W        W 8059  10.297   1.279   9.346  0.0620  0.0390 -0.0299
 3996W        W 8060   0.140   9.941   8.625 -0.0236  0.0673  0.2801
 3997W        W 8061   3.096   3.387  10.897  0.2023  0.2917 -0.0732
 3998W        W 8062   7.115   3.512   9.705  0.2259  0.0745  0.0114
 3999W        W 8063   1.674   5.731   1.300  0.3133 -0.0136 -0.4524
 4000W        W 8064   8.841   9.376   8.190 -0.0550 -0.0549  0.2056
 4001W        W 8065   9.644   3.028  11.307  0.0997 -0.3068 -0.0575
 4002W        W 8066   0.421   5.236  10.010 -0.0535  0.0127 -0.2531
 4003W        W 8067   6.688   5.747   8.089 -0.1545  0.0449  0.0333
 4004W        W 8068   8.757   6.687   9.134 -0.1432 -0.0792  0.1553
 4005W        W 8069   7.913   0.131   9.800  0.2771 -0.1255  0.1536
 4006W        W 8070   1.881   7.018   2.914  0.1809 -0.2373 -0.1455
 4007W        W 8071  10.425   3.090   8.821 -0.0183 -0.1316  0.0087
 4008W        W 8072  10.383   3.274   2.196 -0.1579 -0.1844 -0.0164
 4009W        W 8073   6.010   5.774   2.712 -0.2657 -0.0076  0.3131
 4010W        W 8074   9.254   5.192   8.716  0.0858 -0.2383  0.3309
 4011W        W 8075   2.222   9.425   9.645  0.1392 -0.1702  0.1919
 4012W        W 8076   9.247  10.540  10.740  0.0803 -0.3092  0.2068
 4013W        W 8077   8.170   4.120  11.037 -0.0840  0.1346 -0.1747
 4014W        W 8078   3.589   1.944   9.242 -0.1461 -0.2276  0.1362
 4015W        W 8079   0.454   7.246   9.644  0.1870  0.1386  0.3239
 4016W        W 8080   8.305   6.223   2.416  0.1755  0.2816  0.0923
 4017W        W 8081   8.568   8.498  10.453 -0.0150 -0.1827  0.1295
 4018W        W 8082   3.008   0.500   4.069 -0.1198  0.1581 -0.0606
 4019W        W 8083   6.427   1.105   9.749  0.2109 -0.2164  0.0187
 4020W        W 8084   9.320   6.409  11.238  0.1425  0.0259  0.2239
 4021W        W 8085   1.249   5.713  11.232  0.3950  0.0144 -0.0190
 4022W        W 8086   3.400   8.333   9.235  0.3982  0.0197 -0.0866
 4023W        W 8087   0.861   4.292  10.030  0.1697  0.2786  0.1727
 4024W        W 8088   9.621   6.027  11.196  0.3456 -0.1252  0.0111
 4025W        W 8089   0.834   9.251  11.393 -0.0699  0.1041 -0.0464
 4026W        W 8090  10.007   3.801  11.447 -0.1631  0.3856 -0.1672
 4027W        W 8091   3.355   6.513   2.423 -0.0101  0.1280 -0.1985
 4028W        W 8092   4.105   3.670   1.513  0.0896  0.2267  0.1099
 4029W        W 8093   2.408  10.364   9.826 -0.0208 -0.3338 -0.0138
 4030W        W 8094   7.827   4.735   8.275 -0.0411 -0.3105 -0.4240
 4031W        W 8095   6.168   0.723   7.506 -0.0185 -0.1527 -0.1017
 4032W        W 8096   1.902   7.541   9.279  0.2902 -0.1853 -0.2723
 4033W        W 8097   4.592   8.699   3.842  0.0128  0.1027  0.1381
 4034W        W 8098   9.418   0.654   0.280 -0.1226  0.1019  0.3571
 4035W        W 8099   4.365   6.508   3.819 -0.0367  0.0376  0.0020
 4036W        W 8100   2.564   3.807   7.959 -0.1782 -0.0127  0.1612
 4037W        W 8101   8.917   2.959   3.998  0.3983  0.1526 -0.0111
 4038W        W 8102   0.588   7.499   8.292  0.1160  0.0035 -0.3413
 4039W        W 8103   3.223   0.646   0.656  0.2762  0.0007 -0.0749
 4040W        W 8104   9.355   7.490   1.244  0.1028  0.2074  0.0186
 4041W        W 8105   4.913   1.751   0.150  0.1324  0.0264  0.1429
 4042W        W 8106   2.469   8.513   1.866  0.2354  0.2176 -0.0844
 4043W        W 8107   3.308   9.777   0.732 -0.0684 -0.0838  0.2002
 4044W        W 8108   6.459   4.630   7.263  0.0834  0.1240  0.0918
 4045W        W 8109   3.069   4.000   2.078 -0.0199 -0.1378  0.1555
 4046W        W 8110   7.054   2.754   2.411 -0.3437  0.0630 -0.2007
 4047W        W 8111   8.493   7.797  10.885 -0.0374  0.1837 -0.3779
 4048W        W 8112   3.854   6.639   1.483 -0.1336 -0.2682  0.2057
 4049W        W 8113   5.833   3.729   1.396  0.0795 -0.1183  0.0703
 4050W        W 8114   9.489   2.272   2.822 -0.0542  0.0668  0.0713
 4051W        W 8115   3.884   0.358   3.347  0.1657  0.0801 -0.3730
 4052W        W 8116   6.888   6.567   0.255 -0.4025  0.4144  0.1403
 4053W        W 8117   8.115   8.328  10.132 -0.0206 -0.0912 -0.1866
 4054W        W 8118   2.044   1.192   0.705 -0.1873 -0.0535  0.0391
 4055W        W 8119   3.539   0.186   8.711 -0.1344  0.2153  0.2353
 4056W        W 8120   5.133   9.704   2.374 -0.0492 -0.2437  0.1840
 4057W        W 8121   0.933   9.773   2.309 -0.2854  0.0216 -0.0271
 4058W        W 8122   5.057   5.810   1.091 -0.2595 -0.1433  0.2603
 4059W        W 8123   1.687  10.575   9.607  0.0734 -0.3398  0.0972
 4060W        W 8124   5.379   6.377   2.769  0.3295  0.1072 -0.2090
 4061W        W 8125   3.199   3.077   9.415  0.0726  0.1395  0.2111
 4062W        W 8126   1.315   1.476   9.807  0.0533  0.0706  0.1048
 4063W        W 8127   3.515   4.889   2.117  0.0752 -0.0949  0.0665
 4064W        W 8128   9.854   0.435   2.492  0.2639  0.0564  0.0790
 4065W        W 8129   4.002   5.312  10.965 -0.0428  0.3630  0.1318
 4066W        W 8130   8.666   5.606   2.870 -0.0261 -0.0397  0.0759
 4067W        W 8131   4.689   8.265  11.323 -0.1510 -0.0875 -0.1313
 4068W        W 8132   6.211   0.566  11.166 -0.1832  0.0819  0.0975
 4069W        W 8133   6.667   3.197   1.503 -0.1540 -0.0492  0.2606
 4070W        W 8134   3.619   8.946   0.036  0.2100  0.0739 -0.1765
 4071W        W 8135   6.805   2.683   9.662 -0.1781  0.1030 -0.0270
 4072W        W 8136   4.447   4.468   1.357 -0.1201  0.2560  0.1725
 4073W        W 8137   4.484   0.848   0.429 -0.1750  0.1325  0.0085
 4074W        W 8138   4.254   2.900   2.633 -0.3410  0.2296 -0.1625
 4075W        W 8139   4.552   8.695   3.339  0.0364 -0.0140 -0.0100
 4076W        W 8140   7.024   0.715   2.557  0.2161  0.0513  0.0110
 4077W        W 8141   6.888   1.016   2.192  0.1357  0.2141 -0.3488
 4078W        W 8142   0.570   3.549   3.298  0.1195  0.0064  0.1688
 4079W        W 8143   3.832   2.473   0.365  0.1145 -0.2157 -0.0907
 4080W        W 8144   0.370   1.932   9.113 -0.0106 -0.1782  0.0905
 4081W        W 8145   6.168   0.674   9.022  0.1362 -0.0501  0.1465
 4082W        W 8146   9.770   7.738   8.334 -0.4579  0.1360  0.0972
 4083W        W 8147   4.235  10.026   0.409  0.1243  0.0508  0.1690
 4084W        W 8148   5.580   1.240   1.331  0.0666 -0.0364 -0.1465
 4085W        W 8149   0.483   2.256   1.778  0.0627 -0.4829 -0.3144
 4086W        W 8150   4.038   5.529   8.801 -0.2663  0.0617 -0.1542
 4087W        W 8151   5.765   7.744  10.745  0.2128 -0.2006  0.1613
 4088W        W 8152   1.700  10.156   9.303 -0.1240  0.1427 -0.2831
 4089W        W 8153   3.797   6.470   0.731  0.5213 -0.2664 -0.0655
 4090W        W 8154   2.865   9.870   1.800 -0.0413 -0.4911 -0.3418
 4091W        W 8155   2.643   9.622  10.693  0.0416  0.0378  0.0044
 4092W        W 8156   0.951   3.423   1.510  0.1452  0.1106  0.0232
 4093W        W 8157   5.626   7.917   0.933 -0.0260  0.0318 -0.1859
 4094W        W 8158   5.882   4.774   2.308  0.3074  0.3409 -0.0748
 4095W        W 8159   6.883   4.121   1.830  0.1380  0.2189 -0.2256
 4096W        W 8160   4.140   1.536   2.079 -0.3146 -0.1069  0.2198
 4097W        W 8161   6.613  10.255  10.293 -0.0436 -0.0889 -0.0293
 4098W        W 8162  10.382   5.017   1.494  0.0689 -0.0303  0.0537
 4099W        W 8163   9.803   7.240  11.393  0.1679  0.2212  0.5268
 4100W        W 8164   9.671   6.686   9.838  0.0293  0.1906 -0.0806
 4101W        W 8165   5.682   9.105  10.023  0.2758 -0.0882  0.4330
 4102W        W 8166   3.113   0.935   1.535  0.0025 -0.0742 -0.1628
 4103W        W 8167   0.591  10.237   0.695 -0.2253  0.1967 -0.1108
 4104W        W 8168   3.299   8.846   3.770  0.2600  0.2451  0.0957
 4105W        W 8169   7.803   0.726  10.909  0.3212  0.3336  0.2296
 4106W        W 8170   7.441   2.757   8.413 -0.2416 -0.0982 -0.4665
 4107W        W 8171   0.998   7.817   8.320  0.1790 -0.3842  0.1352
 4108W        W 8172   8.994   9.663  10.800 -0.2566 -0.2649 -0.3384
 4109W        W 8173   7.848  10.391   2.595  0.1565  0.4013 -0.1519
 4110W        W 8174   6.622   2.520   2.282  0.0170  0.4012  0.0612
 4111W        W 8175   1.594   0.912  10.596  0.1956 -0.2185  0.3157
 4112W        W 8176   4.192   5.616   0.743 -0.2055 -0.2225 -0.0803
 4113W        W 8177   1.014   1.753  10.641  0.0809  0.2506 -0.4718
 4114W        W 8178   2.281   9.338  10.262 -0.0487 -0.0695 -0.4185
 4115W        W 8179   1.436   8.623   3.668 -0.3172 -0.0201 -0.0261
 4116W        W 8180   9.168   6.875   7.723  0.0874  0.0064 -0.0156
 4117W        W 8181   7.146   7.077   1.450 -0.0619 -0.1247  0.0295
 4118W        W 8182   1.158   0.046   9.542  0.2454 -0.1460 -0.0276
 4119W        W 8183   7.651  10.171  10.414  0.1717 -0.0932  0.0747
 4120W        W 8184   9.592   0.736   9.269 -0.0695  0.1744 -0.2112
 4121W        W 8185   5.212   3.732   0.798 -0.0896  0.0660 -0.1722
 4122W        W 8186   2.794   5.872   0.914  0.1068 -0.0339  0.5296
 4123W        W 8187   2.196  10.053   9.334  0.1348  0.2821  0.3620
 4124W        W 8188   6.017   6.513   2.313  0.1198  0.1270 -0.2390
 4125W        W 8189   6.255   3.548  10.591  0.0473  0.1163  0.2918
 4126W        W 8190   7.723   2.856  10.899  0.1916 -0.0074 -0.3942
 4127W        W 8191   6.693  10.113   0.511 -0.0848  0.0478 -0.1131
 4128W        W 8192   2.087   5.366   9.553 -0.2210  0.1741 -0.3165
 4129W        W 8193   1.689   0.895   0.541 -0.2094 -0.3380  0.0626
 4130W        W 8194   3.273   1.006   9.334  0.1376 -0.3291  0.3704
 4131W        W 8195   1.485   4.283  10.753 -0.0988 -0.1305  0.2018
 4132W        W 8196   7.313   8.133   3.623 -0.1227 -0.0145 -0.2781
 4133W        W 8197   0.232   5.458   9.594 -0.0097  0.0108 -0.1124
 4134W        W 8198   2.039   9.309   0.821  0.1852  0.0298  0.1045
 4135W        W 8199   6.466   5.603   2.664  0.1667  0.0382  0.2219
 4136W        W 8200   8.349   4.616   1.322  0.0092 -0.1581  0.0897
 4137W        W 8201   3.525   1.608   9.978  0.0227  0.2547  0.0836
 4138W        W 8202   7.535  10.552   8.601 -0.1159 -0.3579 -0.0529
 4139W        W 8203   3.450   5.359   9.554  0.2302 -0.2233  0.3523
 4140W        W 8204   9.732   0.867   3.381  0.1386 -0.2469 -0.0094
 4141W        W 8205   5.562   0.743   2.688 -0.1985  0.0004  0.0822
 4142W        W 8206   0.638   3.099  10.847 -0.1336  0.0957 -0.0330
 4143W        W 8207   5.595   9.110   8.632  0.2713 -0.1965 -0.0408
 4144W        W 8208   6.173   9.968  10.200  0.1879  0.0128 -0.4947
 4145W        W 8209   9.885  10.638   2.248  0.0148  0.1954 -0.1365
 4146W        W 8210   5.170   6.708   8.606 -0.3129  0.0347  0.1309
 4147W        W 8211   3.124   4.530   9.994 -0.0987 -0.0017  0.2690
 4148W        W 8212   6.073   6.846   3.640 -0.1391  0.0760 -0.0054
 4149W        W 8213   6.189   1.453  11.161  0.0830  0.3519 -0.3021
 4150W        W 8214   8.573   2.594  10.741  0.0329 -0.1446  0.1639
 4151W        W 8215   1.609   5.522   0.018  0.0801 -0.0145  0.1708
 4152W        W 8216   1.161   4.562   1.653 -0.1076  0.0174  0.1611
 4153W        W 8217   7.982   6.970  10.769  0.1910  0.0806  0.1278
 4154W        W 8218   9.959   9.900   9.218 -0.1720  0.0954  0.1014
 4155W        W 8219   2.478   1.859  11.318 -0.0488 -0.1139  0.2958
 4156W        W 8220   7.730   2.320  11.073  0.2168  0.2182  0.2636
 4157W        W 8221   0.096   6.238  10.148  0.0352  0.1326 -0.1122
 4158W        W 8222  10.300   3.177   0.398 -0.2022 -0.0249 -0.1068
 4159W        W 8223  10.485   1.179   8.842  0.0964 -0.1933  0.1545
 4160W        W 8224   0.130   3.904  10.342 -0.0712 -0.2297 -0.2719
 4161W        W 8225   8.329   7.005  10.427  0.0279  0.2097 -0.3510
 4162W        W 8226  10.271   0.579  11.403  0.2953 -0.1394 -0.0359
 4163W        W 8227   8.060   6.552  10.500 -0.3331 -0.1391 -0.2193
 4164W        W 8228   9.584   2.472   9.700  0.1105  0.3669 -0.2734
 4165W        W 8229   2.653   3.325   1.912  0.1317 -0.2284  0.0909
 4166W        W 8230   7.128   8.714   0.437  0.2447 -0.0831 -0.0757
 4167W        W 8231   3.339   6.904  11.315  0.0377  0.0283  0.2690
 4168W        W 8232   7.347   9.581  11.297  0.0864  0.1713  0.1475
 4169W        W 8233   1.890   7.066   0.506 -0.1574 -0.3185  0.4495
 4170W        W 8234   7.619  10.044   2.965  0.0299  0.1537 -0.0932
 4171W        W 8235   0.118   6.284   1.588 -0.0573  0.2610 -0.5642
 4172W        W 8236   4.506   9.472   2.618  0.3401 -0.2274  0.1798
 4173W        W 8237   4.615   4.746   0.299  0.0441 -0.0774  0.0545
 4174W        W 8238   4.806  10.628   9.878 -0.1974  0.1117  0.1793
 4175W        W 8239   9.890   2.836   9.268  0.2798  0.0620 -0.1048
 4176W        W 8240   7.679   2.608   1.744  0.1904 -0.0251  0.1057
 4177W        W 8241   4.265   6.698  11.045 -0.3127 -0.1908 -0.2570
 4178W        W 8242   2.357  10.096   8.421  0.1807  0.0648  0.0091
 4179W        W 8243   0.995   6.315   1.209  0.3571 -0.2275 -0.0048
 4180W        W 8244   4.828   8.594   7.382 -0.0527 -0.0477  0.0465
 4181W        W 8245   5.347   3.185   0.720 -0.1810  0.1860 -0.0274
 4182W        W 8246   3.639   6.905   0.177 -0.4485  0.2500 -0.3191
 4183W        W 8247   4.350   3.721   0.403  0.2151  0.2781 -0.0856
 4184W        W 8248   0.844   1.035  10.524 -0.0358  0.3834  0.2787
 4185W        W 8249   5.518   8.189   9.477  0.3321  0.0846  0.0284
 4186W        W 8250   8.786   1.813   8.105  0.2061  0.0177 -0.1192
 4187W        W 8251   9.910   1.058  10.169  0.2536  0.2854  0.3428
 4188W        W 8252   0.619   1.911  10.192 -0.3306 -0.3829 -0.1063
 4189W        W 8253   2.916  10.376   8.889 -0.1926 -0.1854 -0.1768
 4190W        W 8254   9.784   2.286   2.361  0.0072 -0.1224  0.0494
 4191W        W 8255   2.894   6.420  10.155 -0.0009  0.0302 -0.0685
 4192W        W 8256   0.334   1.199   1.648 -0.1594  0.1091 -0.1836
 4193W        W 8257   3.167   4.899  10.363  0.0881 -0.2140  0.2638
 4194W        W 8258   5.483  10.056   2.903 -0.1047 -0.0874  0.1655
 4195W        W 8259   9.768   6.643   2.007  0.2734  0.1421 -0.3372
 4196W        W 8260   8.299   7.197   2.618 -0.0986 -0.1392 -0.1918
 4197W        W 8261   1.499   7.963   8.159  0.1927 -0.1624  0.2129
 4198W        W 8262   8.374   4.360   9.729  0.1109 -0.1851 -0.1087
 4199W        W 8263   9.126   7.258  10.558  0.2162 -0.3619 -0.3428
 4200W        W 8264   3.746   3.252   0.067  0.0052  0.1263 -0.0035
 4201W        W 8265   3.172   6.097   9.820 -0.1634 -0.2717  0.0231
 4202W        W 8266   6.986   4.854   3.003  0.1096 -0.2211 -0.2270
 4203W        W 8267   6.905   6.859   1.087 -0.0996  0.0079 -0.0931
 4204W        W 8268   2.437   7.151   8.521 -0.0307  0.2684  0.1095
 4205W        W 8269   7.251   6.481   8.348 -0.1115 -0.0980  0.3321
 4206W        W 8270   7.404   2.171  10.266 -0.1010 -0.1902  0.1025
 4207W        W 8271   9.529   9.691   8.211 -0.1450 -0.3505 -0.1924
 4208W        W 8272   8.695   9.709  10.222 -0.1717 -0.2754  0.2285
 4209W        W 8273   7.643   3.539   8.960  0.0635  0.2770 -0.0869
 4210W        W 8274   9.026   6.889   8.267 -0.2323  0.2759  0.0768
 4211W        W 8275   0.701   1.777  11.412  0.0229 -0.3621  0.1574
 4212W        W 8276   8.856   5.427  11.012  0.0738  0.1369  0.2978
 4213W        W 8277   4.239   7.235   0.977  0.0241 -0.1480 -0.1157
 4214W        W 8278   7.418   5.807   0.329 -0.1793 -0.3386 -0.4041
 4215W        W 8279   8.766   0.453   0.862  0.0674 -0.1730  0.3780
 4216W        W 8280   0.152   7.497   9.911  0.1782 -0.1860  0.0917
 4217W        W 8281   5.817   0.982   9.883  0.0304 -0.0284  0.0616
 4218W        W 8282   5.117   0.547   8.656  0.0130 -0.5167 -0.1816
 4219W        W 8283   8.178   4.899   3.113 -0.0686 -0.1168  0.1740
 4220W        W 8284   8.809   6.340   1.075  0.1044  0.1064 -0.0232
 4221W        W 8285   2.601   8.009   9.386  0.2691  0.0301 -0.1930
 4222W        W 8286   1.230   4.027   1.438 -0.1100  0.5651  0.2759
 4223W        W 8287   8.988   6.106   2.425 -0.4340 -0.1290  0.0405
 4224W        W 8288   0.851   5.016   1.321  0.0423  0.1534 -0.1422
 4225W        W 8289   7.659   9.048   0.328 -0.2389  0.2963 -0.0446
 4226W        W 8290   5.228   1.966   9.058 -0.2499 -0.0674 -0.0867
 4227W        W 8291   5.209  10.056   1.430 -0.0237  0.2605  0.2499
 4228W        W 8292   4.457   2.013  11.485  0.3097 -0.1122 -0.0368
 4229W        W 8293   6.880   5.049   0.268 -0.0652  0.0982 -0.0794
 4230W        W 8294  10.000   0.142   7.990 -0.0954  0.2452 -0.2920
 4231W        W 8295   0.766  10.434   0.273  0.0581  0.2233  0.2547
 4232W        W 8296   5.195   2.695  10.624  0.1097 -0.3031  0.1505
 4233W        W 8297   1.342   0.675   8.652 -0.2328 -0.0965 -0.1115
 4234W        W 8298   2.704   0.585   1.435  0.4614 -0.0377 -0.1325
 4235W        W 8299   7.154   9.016   9.106 -0.1214  0.2495 -0.0374
 4236W        W 8300  10.611   5.250   2.995  0.1865 -0.4398  0.2724
 4237W        W 8301   3.253   6.863   3.244 -0.1740 -0.1150 -0.0132
 4238W        W 8302   9.002   9.202   7.761  0.1409  0.0995 -0.0274
 4239W        W 8303   9.713   6.887   9.368 -0.0335  0.1225  0.2353
 4240W        W 8304  10.213   2.708   3.574 -0.1974 -0.1558  0.6117
 4241W        W 8305   1.903   5.933  10.176  0.0487 -0.0463 -0.0672
 4242W        W 8306  10.368   3.637   1.132  0.0718 -0.1517  0.2714
 4243W        W 8307   6.139   4.663   2.799 -0.0773  0.1596  0.0733
 4244W        W 8308  10.623   1.873   2.740  0.2746  0.1560 -0.2994
 4245W        W 8309   0.929   8.829   2.829 -0.3702  0.1022 -0.1765
 4246W        W 8310   5.876   3.076   3.223  0.1371 -0.0006  0.0780
 4247W        W 8311   2.459   0.195  11.338 -0.1838 -0.0578 -0.0655
 4248W        W 8312   1.708   0.765   8.990 -0.0671 -0.1306  0.1294
 4249W        W 8313   3.625   3.681   3.663  0.0279  0.1189 -0.0542
 4250W        W 8314   4.549   8.200   7.538  0.0598  0.0496  0.2593
 4251W        W 8315   0.095  10.589   3.742 -0.1226  0.3998  0.2377
 4252W        W 8316   2.688   8.708   8.583 -0.1946  0.6006  0.1838
 4253W        W 8317   9.486   6.932   8.532 -0.1238  0.1493  0.0300
 4254W        W 8318   5.173   1.351   9.716 -0.1173  0.3885 -0.1880
 4255W        W 8319   5.497   9.824  11.250 -0.0722  0.0701  0.1885
 4256W        W 8320   1.570   2.650   1.587  0.0742  0.1190  0.0178
 4257W        W 8321   5.791   2.198   1.926 -0.2379 -0.1489 -0.3507
 4258W        W 8322  10.512   0.609   1.616 -0.3077  0.2921 -0.1564
 4259W        W 8323   3.865   2.796  10.518 -0.0951  0.0122 -0.2861
 4260W        W 8324   4.540  10.022   8.378 -0.0411 -0.2113 -0.2630
 4261W        W 8325   1.831   3.439   2.923 -0.0361  0.1564 -0.0102
 4262W        W 8326   4.944   9.575   1.389 -0.0088 -0.1064 -0.4954
 4263W        W 8327   2.938   3.920   1.149 -0.1182 -0.1532  0.1216
 4264W        W 8328   0.171   3.845   1.040 -0.2070 -0.1692 -0.0278
 4265W        W 8329   7.319   7.462   3.082  0.1527 -0.2155 -0.0429
 4266W        W 8330   0.224  10.177   9.275  0.3837  0.0113 -0.0450
 4267W        W 8331   5.440  10.213  10.869 -0.2279  0.2026 -0.4013
 4268W        W 8332   7.438   3.511   0.427  0.1702  0.1243 -0.1402
 4269W        W 8333   4.156   8.659   9.034 -0.0569 -0.0872 -0.2773
 4270W        W 8334   9.125   6.601   2.666 -0.2399  0.0137  0.3111
 4271W        W 8335   5.765   2.684   1.873 -0.0776 -0.0517  0.1566
 4272W        W 8336   4.767   4.024   8.543 -0.2257 -0.0242  0.1037
 4273W        W 8337   5.911   6.072   1.400 -0.0604 -0.1740  0.0730
 4274W        W 8338   6.569  10.517   0.118 -0.1846  0.2765  0.0486
 4275W        W 8339   9.483   4.740  10.605  0.0940  0.0469 -0.2610
 4276W        W 8340   6.922   4.608   8.674  0.0316 -0.0937 -0.0864
 4277W        W 8341   5.821   1.512   2.035 -0.2915 -0.2736  0.2564
 4278W        W 8342  10.098   8.515   2.751 -0.2522 -0.0589 -0.0330
 4279W        W 8343   3.351   4.922   1.601  0.3987 -0.2325 -0.0142
 4280W        W 8344   5.076   6.141   3.440 -0.2131 -0.2628 -0.1185
 4281W        W 8345   7.590   5.669   1.885 -0.0665 -0.2699 -0.1238
 4282W        W 8346   3.743   0.168   9.767  0.0853 -0.2237 -0.1275
 4283W        W 8347   0.367   7.438  10.427 -0.1309 -0.0853  0.0688
 4284W        W 8348   8.916   8.853  10.248  0.1058 -0.2019 -0.0485
 4285W        W 8349   9.878  10.299   1.814  0.2365  0.2362  0.2461
 4286W        W 8350   2.264   1.113   3.426 -0.0106  0.1511  0.0827
 4287W        W 8351   6.084   8.986   1.333  0.1199 -0.3613  0.1532
 4288W        W 8352   7.515   7.008   3.117  0.2335 -0.0837  0.0161
 4289W        W 8353   8.188   9.261  10.482 -0.0745 -0.2442 -0.1450
 4290W        W 8354   5.784   0.707   7.762 -0.0212 -0.1946  0.2316
 4291W        W 8355   9.405   4.553   1.130 -0.0137 -0.1797  0.0638
 4292W        W 8356   7.677   8.355   9.091  0.2384 -0.2497 -0.1402
 4293W        W 8357   7.352   9.245   2.614 -0.3281  0.0909  0.2600
 4294W        W 8358   0.271   0.635  10.644  0.0325  0.0557  0.2068
 4295W        W 8359   2.165   5.551   2.023  0.2704 -0.3505 -0.2791
 4296W        W 8360   9.237   1.113   9.377 -0.2209  0.0563  0.1868
 4297W        W 8361   8.922   3.503   9.985  0.0077  0.2295 -0.2409
 4298W        W 8362   3.634   2.194   1.417 -0.0271  0.0085  0.3674
 4299W        W 8363   6.120   2.628  10.507  0.1737  0.3466  0.0422
 4300W        W 8364   4.036   8.259   3.237 -0.0692  0.0821 -0.0450
 4301W        W 8365   9.110   3.857   9.370 -0.4057 -0.1974 -0.0423
 4302W        W 8366   3.120   8.698  10.238 -0.0645  0.0343  0.0050
 4303W        W 8367   5.760   5.476  11.034  0.2817  0.2138  0.3575
 4304W        W 8368   1.403   9.602   2.226  0.1094  0.0917  0.4019
 4305W        W 8369  10.136  10.241   8.085 -0.1113 -0.0762  0.1221
 4306W        W 8370   1.267   4.076   9.296 -0.2056 -0.3731 -0.0325
 4307W        W 8371  10.422   1.605  11.537  0.1854  0.0358  0.1664
 4308W        W 8372   6.045   9.780   2.091  0.2284  0.1377  0.4224
 4309W        W 8373   9.262   8.265   2.313 -0.2352 -0.2400 -0.1770
 4310W        W 8374   0.523   6.140   1.319  0.0021  0.0256  0.1738
 4311W        W 8375   9.176   8.406   8.465 -0.0587 -0.0402 -0.1191
 4312W        W 8376   1.705   1.911  10.012 -0.0464  0.0993  0.2006
 4313W        W 8377   3.908   1.865   0.959  0.2256  0.3760 -0.0822
 4314W        W 8378   3.399   7.228   2.010 -0.0094  0.0473 -0.0381
 4315W        W 8379   2.602   5.095   0.991 -0.3197 -0.0050 -0.0611
 4316W        W 8380   6.402   8.245   9.212  0.0196  0.1708 -0.0307
 4317W        W 8381   8.420   0.838  10.226 -0.0820  0.0754  0.0060
 4318W        W 8382   6.125   0.597   9.724 -0.0035 -0.0624 -0.1707
 4319W        W 8383   3.472   9.309   2.967  0.2401 -0.1926  0.0070
 4320W        W 8384   5.009   4.811   2.160  0.1280 -0.0040 -0.3306
 4321W        W 8385   8.924   9.357   2.611 -0.0179  0.1548  0.0229
 4322W        W 8386  10.067   4.608   2.302 -0.0035  0.1122 -0.0567
 4323W        W 8387   2.566   8.114   8.128  0.0986 -0.1609 -0.1438
 4324W        W 8388   8.254   8.190  11.421 -0.4567  0.2651  0.0983
 4325W        W 8389   9.301   5.404   2.326 -0.0252 -0.5300 -0.2167
 4326W        W 8390   8.991   5.181   1.429 -0.1165  0.1967 -0.0231
 4327W        W 8391   6.357  10.095   3.587 -0.5935  0.0992 -0.3772
 4328W        W 8392   3.741   0.868   3.434 -0.2337  0.3284  0.2168
 4329W        W 8393   4.556   2.954   9.659  0.0682  0.2011  0.2767
 4330W        W 8394   5.067   4.058   9.197 -0.0258  0.0619  0.0284
 4331W        W 8395   7.364   2.672   3.396 -0.4617  0.0671 -0.1194
 4332W        W 8396   2.977   2.899  10.776  0.1455  0.0645  0.1210
 4333W        W 8397   3.182   6.950   8.919  0.2738  0.0112  0.1926
 4334W        W 8398   3.265   9.419   8.352 -0.0931 -0.1544  0.1867
 4335W        W 8399   4.548   0.279  10.413  0.2608 -0.2964  0.1122
 4336W        W 8400   9.602   0.657  11.022  0.3093  0.1660  0.0098
 4337W        W 8401   3.583   7.414   0.232 -0.0095 -0.1539 -0.2269
 4338W        W 8402   0.049   6.268  11.387  0.0888  0.0608  0.3828
 4339W        W 8403   3.317  10.346   3.086  0.1642 -0.0516 -0.1684
 4340W        W 8404   1.485   4.643   9.597  0.2613  0.0896 -0.2740
 4341W        W 8405  10.083   8.345   9.381 -0.3191  0.0928  0.1302
 4342W        W 8406   6.842   4.426  11.010  0.0262 -0.0868  0.2403
 4343W        W 8407   9.582   1.611   8.784  0.3227  0.3818  0.2724
 4344W        W 8408   3.264   9.872   8.736 -0.1866 -0.0910  0.1631
 4345W        W 8409   4.562   2.325   3.407  0.2486 -0.1487 -0.2802
 4346W        W 8410   1.216   7.742   0.388 -0.0803 -0.1103 -0.1114
 4347W        W 8411   0.910   5.697  10.890  0.0663  0.0775 -0.3053
 4348W        W 8412   1.500   8.712   9.482  0.5692  0.0945  0.3888
 4349W        W 8413  10.646   9.771   7.900  0.2109  0.1603  0.1127
 4350W        W 8414   6.064   1.246   1.186 -0.0321 -0.3003  0.1867
 4351W        W 8415   9.584   7.278   3.034  0.0373  0.1732 -0.1622
 4352W        W 8416   4.917   5.333   1.403  0.1832  0.2128  0.1921
 4353W        W 8417   8.098   1.255   8.089 -0.1635 -0.1617  0.1760
 4354W        W 8418   5.512   8.529   1.684  0.1807 -0.1237  0.2121
 4355W        W 8419   0.911   2.759   0.179  0.1738 -0.0974  0.0491
 4356W        W 8420   7.727   9.461   1.650  0.2252 -0.1829  0.1256
 4357W        W 8421   9.484   0.800   8.416 -0.3718  0.2836 -0.4822
 4358W        W 8422   5.737  10.609  10.035  0.0574 -0.0792 -0.2285
 4359W        W 8423   2.225   2.210   2.303 -0.0829  0.1535  0.0963
 4360W        W 8424   4.722   4.931  11.399  0.1608 -0.1956  0.0618
 4361W        W 8425   3.898   7.570   0.642 -0.1247  0.1203  0.4214
 4362W        W 8426   5.147   5.707   7.954  0.2265  0.1918 -0.0408
 4363W        W 8427   5.350   0.918   1.700  0.1069  0.0029 -0.2897
 4364W        W 8428   3.907   1.895   9.845  0.2313 -0.1918 -0.1150
 4365W        W 8429   0.657   7.327  11.270  0.2249 -0.4489  0.6241
 4366W        W 8430   7.481  10.656   3.098  0.1861 -0.0681  0.1392
 4367W        W 8431   4.662   2.733  10.538  0.2944  0.1559 -0.0628
 4368W        W 8432   9.156   6.085   0.750 -0.0014 -0.1099 -0.3290
 4369W        W 8433   0.527   4.160   8.357 -0.2035  0.1721  0.1374
 4370W        W 8434   6.545   1.010   2.674  0.0549 -0.2779  0.3258
 4371W        W 8435   2.733   7.643   7.969  0.0101 -0.0455 -0.3982
 4372W        W 8436   9.229   5.095  11.150 -0.2762 -0.0585  0.0142
 4373W        W 8437   7.768   1.405   8.884  0.1100 -0.0849  0.0583
 4374W        W 8438   8.435   3.459   1.006 -0.1506 -0.0568  0.0368
 4375W        W 8439   6.090   9.681   9.789  0.0494 -0.3980  0.0523
 4376W        W 8440   6.196   3.755   3.195  0.1605  0.0245  0.0879
 4377W        W 8441   0.910   4.902   9.896 -0.0730  0.0368 -0.1708
 4378W        W 8442   2.200   3.423   8.598  0.1152  0.2082 -0.0569
 4379W        W 8443  10.281   5.303   1.040  0.0779  0.0481  0.2940
 4380W        W 8444   1.981   8.140  11.324  0.1160 -0.1035  0.0121
 4381W        W 8445   7.917  10.317  11.412  0.2449  0.1011  0.0839
 4382W        W 8446   2.418   8.633   4.130 -0.1397 -0.3094  0.1000
 4383W        W 8447   7.438   6.748   9.250 -0.0186  0.1232 -0.2592
 4384W        W 8448   0.894   5.781   1.301 -0.2935  0.1475  0.0199
 4385W        W 8449   6.431   0.909   2.019 -0.2426 -0.1768 -0.1046
 4386W        W 8450   2.735   7.899   0.847 -0.4134 -0.1100 -0.0135
 4387W        W 8451   8.218   7.386   1.170  0.1763 -0.3736  0.0766
 4388W        W 8452   5.262   4.468   9.378  0.2054  0.0822  0.1482
 4389W        W 8453   1.393   9.540   9.906  0.0387 -0.1150  0.1601
 4390W        W 8454   3.815  10.092   3.255  0.3889 -0.0790 -0.0484
 4391W        W 8455   4.465   5.704   9.310 -0.1457 -0.1224 -0.0107
 4392W        W 8456   9.941   0.095   0.731  0.2926  0.2350  0.2368
 4393W        W 8457   1.901   0.725   2.076  0.0153  0.2727 -0.0060
 4394W        W 8458   1.792   0.427   0.891 -0.2399  0.2277  0.0227
 4395W        W 8459   5.906   8.044   1.908  0.0590  0.1740  0.0167
 4396W        W 8460   0.475   9.546  10.326 -0.0399  0.1403  0.0634
 4397W        W 8461   2.248   8.470  10.139  0.0315  0.0424  0.2668
 4398W        W 8462   3.192   8.682   8.779 -0.0302  0.3612  0.0040
 4399W        W 8463   5.632  10.611   3.263  0.0113 -0.0089  0.2831
 4400W        W 8464   6.356   6.777   4.460  0.3792  0.0373  0.1417
 4401W        W 8465   6.792   8.610  10.365 -0.0378 -0.0364 -0.2516
 4402W        W 8466   5.533   7.430   9.975  0.0076  0.1057 -0.2042
 4403W        W 8467   5.542   2.421  11.304  0.1032  0.0161 -0.2614
 4404W        W 8468   5.865   7.459   1.873 -0.1455 -0.2082  0.2113
 4405W        W 8469   0.746   9.368   8.275  0.1492 -0.0434 -0.2173
 4406W        W 8470   0.853   9.087   1.452 -0.4123  0.1395  0.0940
 4407W        W 8471   5.955   6.986   1.258 -0.4569  0.0032  0.2434
 4408W        W 8472   2.251   5.537   3.380 -0.0469 -0.0531  0.0769
 4409W        W 8473   8.225   2.210  10.959  0.0495  0.1241  0.1773
 4410W        W 8474   0.963   6.525   8.394  0.1440  0.0500  0.0162
 4411W        W 8475   7.221   0.719  10.143  0.0773  0.2032  0.1716
 4412W        W 8476   9.905   7.773   1.291 -0.3024 -0.3746 -0.0229
 4413W        W 8477   4.218   8.214   8.707  0.1502 -0.1990 -0.0052
 4414W        W 8478   5.985   9.390   8.382  0.0372  0.2002 -0.0626
 4415W        W 8479   6.654   8.666   9.051 -0.0717 -0.5086  0.0394
 4416W        W 8480   0.982   8.094  10.104  0.0313  0.3113  0.1661
 4417W        W 8481   9.972   8.176   8.358  0.3166 -0.2411  0.2335
 4418W        W 8482   2.941   6.126   0.398  0.0442  0.0768 -0.0509
 4419W        W 8483   5.508   7.763   2.767 -0.1241  0.2447  0.0935
 4420W        W 8484   5.295   6.861   2.833 -0.3161 -0.1432 -0.0122
 4421W        W 8485   7.268   6.575   2.810 -0.0205  0.3250 -0.0178
 4422W        W 8486   3.382   9.804   3.922  0.1874  0.3632 -0.1736
 4423W        W 8487   3.101   8.783   0.644  0.0961  0.3395 -0.2110
 4424W        W 8488   8.095   0.335  10.275  0.0272  0.3594  0.1160
 4425W        W 8489   7.583   8.633   1.126  0.1336 -0.2759 -0.1595
 4426W        W 8490   9.895   8.353   0.501 -0.1861  0.4819  0.0809
 4427W        W 8491   8.370   2.964  10.182 -0.0258  0.2501 -0.2721
 4428W        W 8492  10.167   2.172  10.348  0.0063  0.1557  0.2020
 4429W        W 8493   5.313   2.067   1.884 -0.0160  0.1699 -0.1543
 4430W        W 8494   2.891   1.821   1.693  0.1472  0.0838  0.0986
 4431W        W 8495   4.463  10.108   1.418 -0.0746  0.1754 -0.2809
 4432W        W 8496   4.335   7.043  10.713  0.3118  0.1394 -0.3282
 4433W        W 8497   9.220   8.932   8.503 -0.2617 -0.1278 -0.0494
 4434W        W 8498   7.239   4.001   8.157  0.1606  0.1789 -0.0058
 4435W        W 8499   6.221   7.868   9.859 -0.0317 -0.0473  0.0967
 4436W        W 8500   2.276   0.359   9.306  0.0140 -0.2759  0.2000
 4437W        W 8501   3.498   2.639   1.978 -0.0205 -0.1740  0.2115
 4438W        W 8502   1.856   3.387   1.009 -0.1256  0.3253  0.0031
 4439W        W 8503   8.610   5.648   9.786 -0.3163 -0.0446 -0.3150
 4440W        W 8504   9.720  10.532   2.678  0.2530 -0.0230 -0.5268
 4441W        W 8505   5.266   0.400   1.746  0.0774 -0.0088 -0.0399
 4442W        W 8506   8.764   2.165   1.316 -0.1253 -0.2033 -0.0063
 4443W        W 8507  10.245   3.391   1.633  0.3349  0.2607 -0.2412
 4444W        W 8508   6.998   9.869   8.857  0.2247  0.0961  0.3304
 4445W        W 8509   0.739   4.315   0.638 -0.1297 -0.3887  0.3789
 4446W        W 8510   6.232   6.240   0.746  0.0447  0.0286 -0.1415
 4447W        W 8511   5.913   8.308   0.779  0.0267 -0.0428 -0.0845
 4448W        W 8512   0.959  10.568   3.176  0.1952 -0.1687  0.1194
 4449W        W 8513   0.591   8.699   8.568 -0.3711 -0.4039 -0.1294
 4450W        W 8514   5.062   3.090   0.344  0.0095 -0.0535  0.0886
 4451W        W 8515   3.251   8.102  10.928  0.0552 -0.0297 -0.1414
 4452W        W 8516   1.031   8.445   0.827 -0.0703  0.0026 -0.1019
 4453W        W 8517   4.628   8.636   2.357 -0.0134  0.3669  0.3198
 4454W        W 8518  10.490   1.769   9.662  0.0376 -0.1494  0.0935
 4455W        W 8519   8.020   7.803   2.801  0.2227  0.1340 -0.0586
 4456W        W 8520   6.488   2.751   4.103 -0.1518  0.0662  0.4291
 4457W        W 8521   3.264   8.246   2.331  0.1245 -0.1720  0.1655
 4458W        W 8522   0.483   9.745  11.399  0.1753 -0.4528 -0.1889
 4459W        W 8523   5.822   6.324   1.855 -0.0245  0.1555  0.2628
 4460W        W 8524   2.569   5.393   3.776 -0.3592 -0.3310  0.3330
 4461W        W 8525   4.073   2.054   3.474 -0.0524 -0.0211 -0.1264
 4462W        W 8526   1.493   0.396   2.413 -0.0280  0.0060  0.2598
 4463W        W 8527   7.314  10.571   9.406 -0.1246  0.3001  0.1160
 4464W        W 8528   8.484   7.718   0.642  0.2732 -0.2159 -0.2612
 4465W        W 8529   7.938   2.877   8.270 -0.0121  0.0499 -0.2853
 4466W        W 8530   0.777   6.419  10.714 -0.0073 -0.0655 -0.1406
 4467W        W 8531   9.243  10.172   1.872 -0.0374 -0.1126  0.1138
 4468W        W 8532   9.896   5.732   3.431 -0.3518  0.1855 -0.2217
 4469W        W 8533   8.170   2.014   3.438  0.2706 -0.2803 -0.1314
 4470W        W 8534   9.846   5.808  10.373  0.3704 -0.3771  0.3059
 4471W        W 8535   6.010   2.168   7.790  0.0990  0.0077 -0.3788
 4472W        W 8536   3.836   1.721   3.146 -0.2187 -0.0101 -0.1328
 4473W        W 8537   2.396   3.392   2.915  0.3930 -0.0692 -0.1219
 4474W        W 8538   8.537   2.715   0.616 -0.0370 -0.0370  0.0570
 4475W        W 8539   7.375   4.522  10.314 -0.4082 -0.0020  0.0925
 4476W        W 8540   7.826   9.219   8.720 -0.0170  0.3324 -0.0261
 4477W        W 8541   5.923   0.127   0.524  0.0293 -0.0071  0.1605
 4478W        W 8542   5.521   1.552   3.503  0.1851 -0.1688  0.0720
 4479W        W 8543   1.271   4.487   0.566 -0.1671  0.0497 -0.1059
 4480W        W 8544   0.361   8.139   2.428 -0.2046 -0.0008  0.4534
 4481W        W 8545   2.228   9.560   1.167  0.4177 -0.0077  0.1417
 4482W        W 8546   8.535   5.032   1.636  0.0393 -0.0696 -0.1104
 4483W        W 8547   5.258   6.124   8.433  0.0708  0.1577  0.1286
 4484W        W 8548  10.483   3.180  11.074 -0.1490  0.1851 -0.1473
 4485W        W 8549   1.401   8.432   1.645 -0.3430 -0.1089  0.2869
 4486W        W 8550   9.443   1.698   3.699  0.2606  0.2271 -0.1758
 4487W        W 8551   9.367   3.152  10.170 -0.0419 -0.0252 -0.3652
 4488W        W 8552   2.253   4.796  10.379 -0.3691 -0.1620  0.1742
 4489W        W 8553   1.095   6.481   8.880 -0.1056  0.0697  0.4771
 4490W        W 8554   6.669   7.160   0.720  0.2061 -0.3144 -0.0734
 4491W        W 8555   4.653   7.243   3.492 -0.0789 -0.0275 -0.1966
 4492W        W 8556   5.276   6.699   0.507 -0.3859  0.0950 -0.3540
 4493W        W 8557   3.682   2.388   2.355  0.1707 -0.2041 -0.2420
 4494W        W 8558   0.138   5.868  11.082 -0.0735  0.2412  0.2798
 4495W        W 8559   9.774   3.581   1.709  0.2620  0.0587  0.1457
 4496W        W 8560   9.293   1.849  11.507 -0.1633 -0.1764 -0.6270
 4497W        W 8561   7.914   3.602   7.646  0.1718 -0.1847 -0.1622
 4498W        W 8562   4.753   4.884   3.044 -0.0865 -0.0329  0.0142
 4499W        W 8563   2.900   6.689   8.061 -0.0988  0.0652 -0.1130
 4500W        W 8564   9.800   1.576   2.987  0.0750  0.1548 -0.0430
 4501W        W 8565   0.488   6.472   8.196  0.0619  0.0432  0.1273
 4502W        W 8566   4.498   0.139   3.696 -0.0018  0.1935  0.1062
 4503W        W 8567   4.023   8.760   0.808  0.0324  0.1869  0.1415
 4504W        W 8568   1.119   7.423   2.486 -0.0174  0.1247  0.0900
 4505W        W 8569   1.599   3.088  11.348  0.1206 -0.4865  0.3183
 4506W        W 8570   6.244   0.685   3.997 -0.1014 -0.3554  0.2836
 4507W        W 8571   9.341   9.340   1.986 -0.0967 -0.4493 -0.1592
 4508W        W 8572   4.575   7.220   0.125 -0.0084  0.2291 -0.1263
 4509W        W 8573   5.941   6.635   8.907 -0.0484 -0.2953  0.0182
 4510W        W 8574  10.244   2.217   9.542 -0.0879  0.2407  0.2282
 4511W        W 8575   7.058   8.745  11.381  0.0026 -0.3109  0.3217
 4512W        W 8576   1.134   3.206   0.497  0.1023 -0.0054  0.1789
 4513W        W 8577   9.008   1.170   7.416 -0.0698  0.3070  0.1056
 4514W        W 8578   5.366   4.055   0.498 -0.0092 -0.2253  0.1385
 4515W        W 8579   7.160   7.946  11.387  0.0377  0.2305 -0.3657
 4516W        W 8580   4.772  10.188  10.064  0.1996  0.3475  0.0104
 4517W        W 8581   2.180   7.870   3.021 -0.0022  0.2222  0.0074
 4518W        W 8582   8.432  10.006   0.530  0.4672 -0.2889  0.2614
 4519W        W 8583   9.695   9.350  10.948  0.0013 -0.1508 -0.2929
 4520W        W 8584   2.984   0.866   9.747  0.2550  0.1243 -0.5180
 4521W        W 8585   0.675   3.270  10.342  0.1133 -0.1952  0.3359
 4522W        W 8586   5.532   8.619   8.199  0.5955 -0.0500  0.0496
 4523W        W 8587   0.997   0.606   2.142 -0.2150 -0.1111  0.0160
 4524W        W 8588   1.221   6.377   3.102 -0.0112 -0.3409 -0.0505
 4525W        W 8589   5.395   7.789  10.340  0.0895  0.1518  0.2241
 4526W        W 8590   4.376   9.969  11.027  0.2112  0.0103 -0.0524
 4527W        W 8591   5.946  10.422   9.212 -0.0836 -0.2100 -0.0697
 4528W        W 8592  10.389   8.195  10.678  0.1875  0.2620  0.0180
 4529W        W 8593   9.317   7.724   9.058  0.1347  0.1635  0.1734
 4530W        W 8594   2.900   6.810   1.399  0.0200 -0.1050 -0.0157
 4531W        W 8595   6.822   0.768   1.692 -0.0929 -0.3292 -0.0626
 4532W        W 8596   6.753   9.631   7.956  0.2533 -0.0358  0.3052
 4533W        W 8597   8.907   2.899   9.172  0.2761  0.0668 -0.0830
 4534W        W 8598   7.885   6.940   4.170 -0.1424  0.1499  0.2611
 4535W        W 8599   9.465   0.756  10.205  0.0751  0.1870  0.2302
 4536W        W 8600   8.804   9.358   1.001 -0.0734 -0.3233 -0.3664
 4537W        W 8601  10.015   8.239   0.022  0.1117  0.1380  0.2911
 4538W        W 8602   3.762   8.794   9.438 -0.0524 -0.2130  0.0883
 4539W        W 8603   5.300  10.228   8.552  0.1732 -0.3079  0.2951
 4540W        W 8604   2.946   6.968  10.578 -0.2594 -0.2025  0.2413
 4541W        W 8605   4.648   5.418   0.995  0.2110 -0.2388  0.1511
 4542W        W 8606   2.213   3.071   1.093 -0.1023  0.1842 -0.0861
 4543W        W 8607   8.766   6.736   9.626  0.1175 -0.1401  0.0661
 4544W        W 8608   6.814   0.231   8.750 -0.0731 -0.1135 -0.0638
 4545W        W 8609   1.944   4.865   9.726 -0.2002  0.0184  0.1951
 4546W        W 8610   3.541   5.359   1.743 -0.0135 -0.1062 -0.0549
 4547W        W 8611   4.445   1.918   1.091  0.1690 -0.1556 -0.0634
 4548W        W 8612   4.566   9.597   3.205  0.0754 -0.1922  0.1440
 4549W        W 8613   1.659   8.942   7.185 -0.2816  0.0442 -0.1935
 4550W        W 8614   6.074   6.354   4.472  0.1841 -0.2467 -0.1915
 4551W        W 8615   6.579   0.448  10.002 -0.0148  0.1496  0.0321
 4552W        W 8616   3.823   2.832   1.514 -0.2395  0.0091  0.0321
 4553W        W 8617   0.384   4.889   3.226 -0.1383 -0.2467  0.4055
 4554W        W 8618   3.220   9.565   1.960 -0.1099  0.0015 -0.0080
 4555W        W 8619  10.428   8.618   8.702  0.2745 -0.0545  0.0067
 4556W        W 8620   6.900   4.173   0.449 -0.3124 -0.1421 -0.0816
 4557W        W 8621   3.326   7.939   2.751 -0.0531  0.0898 -0.0980
 4558W        W 8622   5.057   1.576  10.996 -0.1017  0.2312  0.0397
 4559W        W 8623   2.159   2.842   0.651  0.0899  0.0314  0.1360
 4560W        W 8624   6.461  10.151   9.839 -0.2744  0.0121  0.1678
 4561W        W 8625   4.368   2.470   9.534 -0.1141  0.0553 -0.1264
 4562W        W 8626   1.984   7.737   3.571  0.0813  0.1452  0.0760
 4563W        W 8627   6.961   7.204   8.735 -0.2223  0.1299 -0.1605
 4564W        W 8628  10.244   2.715   9.591  0.4990  0.4822  0.0485
 4565W        W 8629  10.299   8.239   1.440  0.2029 -0.1359 -0.0842
 4566W        W 8630   5.865   1.550  10.705  0.1986 -0.1378  0.0776
 4567W        W 8631   3.612   2.305  10.693 -0.0091 -0.2513 -0.0455
 4568W        W 8632   2.104  10.231   1.618 -0.1875  0.2610  0.0751
 4569W        W 8633   8.337   8.576   9.735  0.1553  0.2684  0.0557
 4570W        W 8634   1.839   5.928   1.697 -0.2037 -0.1018  0.2156
 4571W        W 8635   3.311  10.300   8.059  0.3939 -0.0229  0.4253
 4572W        W 8636   5.476   8.222   4.093  0.1309 -0.1577  0.0630
 4573W        W 8637   8.982  10.543   2.036 -0.1953 -0.1648 -0.0431
 4574W        W 8638   9.496   9.521   9.213 -0.1635 -0.0191  0.0545
 4575W        W 8639   5.549   7.586   8.701  0.0235  0.0567 -0.0773
 4576W        W 8640  10.424   9.355   7.945  0.0317 -0.0202 -0.1772
 4577W        W 8641   9.739   5.266   8.713  0.0571  0.1566  0.1352
 4578W        W 8642   7.600   9.340  10.936  0.3125 -0.0145 -0.1459
 4579W        W 8643  10.168   8.691   0.170 -0.1411  0.2928 -0.3229
 4580W        W 8644   6.105  10.516   7.329 -0.1872  0.0435  0.5631
 4581W        W 8645   5.865   9.451   8.960  0.2001  0.2811  0.1106
 4582W        W 8646   9.648   8.837   2.861  0.0724 -0.1401 -0.2161
 4583W        W 8647   0.075  10.068   0.617 -0.0520  0.2647 -0.0252
 4584W        W 8648   7.498   7.229   8.685 -0.2497  0.0103 -0.1903
 4585W        W 8649   0.534   5.913  10.625 -0.1129 -0.0121 -0.0446
 4586W        W 8650   4.020   9.030  10.339  0.0477 -0.0634  0.0845
 4587W        W 8651   7.837   4.446   3.324 -0.3067  0.0778 -0.0662
 4588W        W 8652   4.853   6.938   8.894 -0.2902 -0.0016  0.0668
 4589W        W 8653   9.791   2.536   1.840 -0.0634  0.1760 -0.0450
 4590W        W 8654   4.460   4.028   1.039 -0.0047  0.0599  0.0305
 4591W        W 8655   1.472   7.467   9.598  0.0193 -0.0388  0.1581
 4592W        W 8656   8.232  10.051   2.472  0.0514 -0.3572 -0.1169
 4593W        W 8657   5.456   9.839   0.628  0.1124 -0.2984  0.0021
 4594W        W 8658   0.534   1.772   8.700  0.1051 -0.2651  0.1599
 4595W        W 8659   4.094   8.139   0.460 -0.2086 -0.1731  0.0766
 4596W        W 8660   8.105   5.518   4.374 -0.1405 -0.0173  0.1740
 4597W        W 8661   4.794   2.203   8.640  0.0046 -0.2073 -0.3577
 4598W        W 8662   1.601   3.876  11.123 -0.0740 -0.2276  0.0680
 4599W        W 8663   9.244   5.208   0.559  0.0548  0.0214 -0.1637
 4600W        W 8664   2.759   3.477  10.174 -0.0487  0.1268  0.3978
 4601W        W 8665   4.159   5.881  10.236  0.1140 -0.1982 -0.1270
 4602W        W 8666   4.537   3.622   9.872  0.1815  0.0371 -0.0991
 4603W        W 8667   9.355   1.166  11.055 -0.2033  0.0356 -0.0429
 4604W        W 8668   2.701   3.549   0.466 -0.1980 -0.0785  0.2077
 4605W        W 8669   7.368   0.793   1.625  0.0210  0.0022  0.4048
 4606W        W 8670   9.714  10.644   3.571 -0.1840  0.2863  0.1729
 4607W        W 8671   0.906   9.756   0.076  0.4347  0.1715 -0.1019
 4608W        W 8672   9.469   4.064   1.846  0.1145  0.1382  0.2334
 4609W        W 8673   6.464   4.277   8.597 -0.0147  0.1596  0.1356
 4610W        W 8674   0.011   5.743   2.946 -0.1601 -0.0721  0.0251
 4611W        W 8675   1.276   7.736   0.954 -0.2213  0.3763 -0.1004
 4612W        W 8676   1.611   8.479  11.420 -0.1294 -0.1085 -0.0371
 4613W        W 8677   6.763   0.421   4.070 -0.0599  0.1885  0.0978
 4614W        W 8678   7.151   0.204   8.409 -0.3220  0.1844 -0.0268
 4615W        W 8679   9.822   3.631   8.044 -0.3697 -0.1181  0.2165
 4616W        W 8680   5.262   7.505   7.351 -0.2219  0.0153 -0.0532
 4617W        W 8681   8.021   8.747   9.286 -0.1005 -0.2037 -0.1817
 4618W        W 8682   5.505   3.468   1.086  0.1180 -0.1032 -0.2442
 4619W        W 8683   9.993   4.775   1.835 -0.1293 -0.0395 -0.1203
 4620W        W 8684   3.859   0.539  10.557 -0.2313  0.0221 -0.1981
 4621W        W 8685   6.407  10.394  10.761 -0.1022  0.0580  0.0054
 4622W        W 8686   0.495   3.764  10.070  0.3292  0.0649  0.1565
 4623W        W 8687  10.355   2.064   8.974  0.0621  0.1854  0.1426
 4624W        W 8688   6.498  10.216  11.264 -0.0578  0.1803 -0.3999
 4625W        W 8689  10.215   8.974   4.013 -0.0382  0.0326  0.0030
 4626W        W 8690   7.272   7.112   3.664  0.0043  0.2862 -0.0834
 4627W        W 8691   1.697  10.607   2.629 -0.1761 -0.5321  0.2302
 4628W        W 8692   1.606  10.216   0.333  0.1973 -0.2348  0.1497
 4629W        W 8693   0.897   1.449   1.627 -0.3021 -0.0760  0.2427
 4630W        W 8694   2.071   1.246   8.665  0.1260 -0.1983  0.1363
 4631W        W 8695   2.441   1.339  11.211  0.1152  0.0046  0.3361
 4632W        W 8696   2.395   1.551  10.346  0.0445 -0.1265 -0.0826
 4633W        W 8697   1.113   5.255   0.185  0.1440  0.2340 -0.0752
 4634W        W 8698   2.172   1.436   1.813  0.0569 -0.0398 -0.1043
 4635W        W 8699   6.667   6.328   9.348  0.0371 -0.0338  0.0928
 4636W        W 8700   3.280   6.677   8.460  0.2690  0.1064  0.1794
 4637W        W 8701   9.520   4.187   9.318  0.4238 -0.2980  0.2024
 4638W        W 8702   3.326   0.373   2.667  0.0608  0.1535 -0.0133
 4639W        W 8703   8.397   9.703   8.264  0.1648 -0.3235  0.0542
 4640W        W 8704   7.736   9.863   2.520  0.0221 -0.0946 -0.0698
 4641W        W 8705   9.311   9.241   3.056 -0.2670 -0.0603 -0.2889
 4642W        W 8706   7.617   8.071   0.971  0.0961  0.0736  0.1335
 4643W        W 8707   6.222   1.709   7.841  0.1555 -0.0817  0.0347
 4644W        W 8708   9.007   2.699   2.961 -0.1937  0.0573  0.1139
 4645W        W 8709   8.269   1.203   2.441 -0.1700  0.0613  0.0033
 4646W        W 8710   6.729   7.827  11.101  0.2831 -0.3221 -0.1973
 4647W        W 8711   4.136   9.943   2.809  0.0360 -0.1773 -0.1219
 4648W        W 8712   3.489   7.264   3.434 -0.3825 -0.0568 -0.2266
 4649W        W 8713   8.464   1.815   1.267  0.2882  0.1587 -0.4884
 4650W        W 8714   3.340   6.081   2.184 -0.3001 -0.0491  0.2389
 4651W        W 8715   9.392  10.434   9.728 -0.0523 -0.0851 -0.0365
 4652W        W 8716   8.375   5.894   0.100  0.3884  0.1254 -0.1073
 4653W        W 8717   2.123   7.640  11.490 -0.1697  0.1211  0.1385
 4654W        W 8718   0.383   5.428   3.301  0.1146  0.0560  0.3746
 4655W        W 8719   5.770   0.109  11.359 -0.0798 -0.0803  0.1693
 4656W        W 8720   2.342   9.550   7.373  0.1380  0.1187 -0.1773
 4657W        W 8721   7.370   5.889  11.408  0.1110 -0.1325 -0.0044
 4658W        W 8722   7.497  10.462   9.915  0.1644  0.1405  0.1063
 4659W        W 8723   7.521   2.535   4.346  0.1321 -0.1988  0.2077
 4660W        W 8724  10.539   7.829   2.317  0.0253  0.1538  0.1111
 4661W        W 8725   3.600   5.456   9.080  0.2647 -0.1014 -0.2034
 4662W        W 8726   9.817   1.686   1.607 -0.0880 -0.0923  0.0406
 4663W        W 8727   8.558   2.466   2.516  0.1208  0.0503  0.0581
 4664W        W 8728   7.237   8.226   2.387  0.0830 -0.0924 -0.1452
 4665W        W 8729   3.901   4.375  10.260  0.3717  0.2684 -0.2460
 4666W        W 8730   3.329   1.767   1.201  0.1767  0.0414  0.0508
 4667W        W 8731   4.422   7.596   0.538  0.0700  0.4583 -0.2164
 4668W        W 8732   8.599   9.878  11.223 -0.0360 -0.2467  0.4817
 4669W        W 8733   8.771   8.022  11.298  0.0131  0.1371 -0.2938
 4670W        W 8734   8.584   2.450  11.238 -0.2310  0.0006  0.0513
 4671W        W 8735   8.328   2.531   8.438  0.3262 -0.1082  0.0021
 4672W        W 8736   4.508   8.206  10.487  0.0300  0.0426 -0.0183
 4673W        W 8737   4.215   4.689   1.861 -0.3745 -0.1547  0.1690
 4674W        W 8738   8.306   4.563   3.503 -0.4262 -0.1255  0.3767
 4675W        W 8739   5.034   6.252   0.706  0.0666  0.0941  0.1385
 4676W        W 8740  10.214   9.615   0.074  0.1165  0.1886  0.1087
 4677W        W 8741   7.585   0.632   3.781  0.2274 -0.0811 -0.1283
 4678W        W 8742   6.946   7.838   1.646  0.3022  0.0338  0.2057
 4679W        W 8743   1.838   7.800   0.981  0.1844 -0.1007 -0.2972
 4680W        W 8744   5.044   9.666   9.506 -0.0275 -0.1479 -0.2336
 4681W        W 8745   2.893   8.217   1.235 -0.2310 -0.0550 -0.0793
 4682W        W 8746   0.735   7.655   0.172  0.2866 -0.0035 -0.1764
 4683W        W 8747   2.955   5.739   2.476  0.0847 -0.3566  0.1171
 4684W        W 8748   3.481   4.102   2.765 -0.3074 -0.3959 -0.2124
 4685W        W 8749   9.748   6.028   0.893 -0.0521  0.0139 -0.1487
 4686W        W 8750   8.389   8.939  10.117  0.0908  0.0819 -0.3270
 4687W        W 8751   6.133   5.624   9.734 -0.2035 -0.1026  0.0750
 4688W        W 8752   0.480   1.184   3.155  0.2349  0.0389 -0.1875
 4689W        W 8753   1.320   1.328   9.339  0.2130 -0.2615  0.0623
 4690W        W 8754   1.654   1.063   9.526 -0.2524 -0.4648  0.3004
 4691W        W 8755   3.816   3.002   3.314 -0.0944  0.2121 -0.3430
 4692W        W 8756   4.643   6.863   1.779  0.1443 -0.1124 -0.2586
 4693W        W 8757   0.358   3.617   1.545 -0.0027 -0.1455 -0.1873
 4694W        W 8758   5.218   6.519   3.727 -0.0658 -0.0358  0.0272
 4695W        W 8759  10.550   1.695   9.134 -0.1062  0.1568  0.2845
 4696W        W 8760  10.341   0.182   2.452  0.0489  0.0103  0.0644
 4697W        W 8761   2.811   8.970   1.831 -0.1022  0.0364 -0.0772
 4698W        W 8762   4.341   8.500   2.837  0.1023  0.1454 -0.0155
 4699W        W 8763   0.726  10.420   1.742 -0.0666  0.3697 -0.0056
 4700W        W 8764   4.226   1.553   3.452 -0.2692  0.0320  0.0705
 4701W        W 8765   7.947   7.842   4.447  0.2146 -0.2511  0.3287
 4702W        W 8766  10.569   8.648   1.475  0.2526  0.1999  0.0348
 4703W        W 8767  10.259   2.522   3.115  0.1648  0.1471  0.0753
 4704W        W 8768   0.634   7.218   0.642  0.2427 -0.0029  0.0487
 4705W        W 8769  10.585   2.337  10.550 -0.3055  0.0219 -0.0022
 4706W        W 8770   8.644   4.196   1.242 -0.0096  0.1891 -0.0927
 4707W        W 8771   1.008   8.843   9.211  0.1916  0.3174  0.0373
 4708W        W 8772   2.970   7.075   2.852 -0.1800  0.0617 -0.1402
 4709W        W 8773   2.378   4.381  10.577 -0.1682 -0.0560  0.3717
 4710W        W 8774   4.058   3.576  11.478 -0.0818 -0.2542 -0.2965
 4711W        W 8775  10.636   4.399  10.548 -0.2379 -0.1748 -0.1247
 4712W        W 8776   8.386   1.418   1.631 -0.2975 -0.0117 -0.1156
 4713W        W 8777   5.710   9.468   3.109 -0.1979  0.3452  0.1652
 4714W        W 8778   6.863   1.232   8.810  0.4441  0.1356 -0.0325
 4715W        W 8779   2.070   9.188   9.168 -0.0032 -0.4491 -0.0447
 4716W        W 8780   5.708   7.134  10.830 -0.2440  0.3214 -0.0640
 4717W        W 8781   5.529   0.492   0.472 -0.2973 -0.3231  0.1594
 4718W        W 8782   1.762   5.612  11.100  0.0230  0.0651 -0.0301
 4719W        W 8783   2.657   8.475  10.520  0.1480  0.2670 -0.1493
 4720W        W 8784   6.458   8.504   0.332  0.2960 -0.2450  0.4582
 4721W        W 8785   4.934   9.998   3.160 -0.0443  0.1885  0.3964
 4722W        W 8786   9.462   6.551   1.633 -0.0735  0.1342  0.0081
 4723W        W 8787   8.263   2.517   3.545 -0.1339  0.1939  0.1973
 4724W        W 8788   7.585   4.924   0.349 -0.1388 -0.1779 -0.0330
 4725W        W 8789   1.818   5.571  10.516  0.3775  0.2866 -0.1440
 4726W        W 8790   3.291   6.487   0.591 -0.0999 -0.0117 -0.1041
 4727W        W 8791   2.410   9.740   1.654 -0.0430  0.0693 -0.0190
 4728W        W 8792   5.695   6.936   7.896  0.2285  0.3194 -0.1415
 4729W        W 8793   8.758   5.191   0.497  0.1450 -0.1552 -0.2298
 4730W        W 8794   5.108   1.269   1.470  0.0407 -0.2274  0.1331
 4731W        W 8795   3.390   9.269   2.457 -0.2025 -0.1251 -0.1510
 4732W        W 8796   9.963   5.272   9.177 -0.1383  0.0965  0.0265
 4733W        W 8797   7.992   9.437   8.197  0.2204 -0.3946 -0.1280
 4734W        W 8798   5.452   1.732   0.266 -0.1259 -0.2260 -0.0005
 4735W        W 8799   2.344   4.011   8.581  0.0786 -0.1457 -0.1020
 4736W        W 8800   9.310   9.177  10.048 -0.0661 -0.2396  0.2339
 4737W        W 8801   0.593  10.385   1.269 -0.2173  0.0704  0.1202
 4738W        W 8802   8.367   4.052   7.740  0.4380  0.0680 -0.2619
 4739W        W 8803   1.996   8.848   8.844 -0.0943  0.1878  0.1156
 4740W        W 8804   0.624   4.783   0.895 -0.0400  0.1029 -0.0650
 4741W        W 8805   0.649   2.796  11.275  0.2096  0.3201 -0.0961
 4742W        W 8806   2.274   2.265   9.102 -0.1346  0.2720  0.3362
 4743W        W 8807   9.422   2.555   9.204  0.1463  0.1983  0.2333
 4744W        W 8808   3.633   5.016   1.208  0.2224 -0.0515  0.0818
 4745W        W 8809   1.323  10.346  10.462 -0.0158  0.2325 -0.0279
 4746W        W 8810   0.532   2.687   9.109  0.1171  0.2247 -0.1664
 4747W        W 8811   2.252   1.604   0.579 -0.2033 -0.1282 -0.1496
 4748W        W 8812   4.724   3.541   1.690  0.0078  0.2355 -0.0323
 4749W        W 8813   6.299   1.771   4.041  0.1112  0.1747 -0.2081
 4750W        W 8814   2.584   2.268   0.033 -0.1331 -0.1642  0.2137
 4751W        W 8815   0.580   2.854  10.013 -0.2114  0.0804  0.1757
 4752W        W 8816   0.807   4.836  10.435 -0.0849  0.0626 -0.1159
 4753W        W 8817   6.201   1.786  10.272  0.0048 -0.0559  0.1016
 4754W        W 8818   1.567  10.332   1.227  0.0687  0.1461  0.1134
 4755W        W 8819   5.237   5.954   9.715  0.1693 -0.2033 -0.1244
 4756W        W 8820   9.000   6.963   8.784  0.1526  0.1296  0.0251
 4757W        W 8821   6.553   3.418   1.939 -0.0541 -0.0648  0.3099
 4758W        W 8822   8.002   3.257  10.411  0.0022  0.2880 -0.1739
 4759W        W 8823   9.844   9.107   0.165  0.0695  0.2356  0.2212
 4760W        W 8824   7.238   5.272   8.746  0.1158 -0.1915 -0.1348
 4761W        W 8825  10.210   4.913   8.914 -0.1091  0.1797 -0.2531
 4762W        W 8826   8.939   2.397   9.386 -0.0358  0.0891 -0.0049
 4763W        W 8827   4.708   0.432   2.877  0.0188 -0.0266 -0.1013
 4764W        W 8828   6.000   7.788   3.440  0.0845 -0.1070  0.0744
 4765W        W 8829   4.643   6.194   1.682 -0.2029  0.6230 -0.1109
 4766W        W 8830   4.552   7.232  10.172 -0.2524 -0.0218 -0.1045
 4767W        W 8831   7.336   4.808   1.821  0.0570  0.0043  0.1769
 4768W        W 8832   4.069   0.597   1.848 -0.1038  0.1356  0.1190
 4769W        W 8833   8.032   7.032   3.031 -0.0868  0.2197 -0.0313
 4770W        W 8834   4.728   3.427   7.908  0.2687  0.1377  0.0208
 4771W        W 8835   1.650   3.337   1.807 -0.1201  0.2297  0.0734
 4772W        W 8836   9.126   4.892   0.180 -0.1637  0.0811  0.3818
 4773W        W 8837   1.782   3.341   9.892  0.1469  0.3963  0.1251
 4774W        W 8838   6.336   8.272  10.213  0.0018  0.0066  0.0861
 4775W        W 8839  10.154   7.263  10.114 -0.0937 -0.1497  0.4107
 4776W        W 8840   2.593   0.770   7.886  0.0027  0.1391  0.0409
 4777W        W 8841  10.411   1.403   8.403  0.1766 -0.0054  0.0794
 4778W        W 8842   8.761   0.274  11.452 -0.0380 -0.3039  0.1399
 4779W        W 8843   8.007   7.501   0.572  0.0363  0.3445  0.2227
 4780W        W 8844   7.108   5.447  11.348 -0.1314  0.1256 -0.4868
 4781W        W 8845   0.735   1.851   1.431 -0.5776 -0.2913 -0.1128
 4782W        W 8846   6.554   4.426   9.600 -0.2815  0.1696  0.0575
 4783W        W 8847   1.899   7.076   7.732 -0.1585 -0.0983 -0.1226
 4784W        W 8848   7.147   3.892   0.920  0.0738 -0.1692 -0.1638
 4785W        W 8849  10.384   1.531   0.769  0.3434  0.0079 -0.0130
 4786W        W 8850   9.483   6.158  10.703  0.3173  0.4196  0.0528
 4787W        W 8851   7.075   0.738   6.892  0.0335 -0.0932 -0.0271
 4788W        W 8852   1.550   7.342   2.792 -0.2727 -0.1316 -0.0618
 4789W        W 8853   6.517   1.101  11.058 -0.0994  0.4581 -0.2440
 4790W        W 8854  10.259  10.211   2.579  0.3847  0.2443 -0.3709
 4791W        W 8855   1.424   6.567  11.328 -0.0429 -0.2922  0.0695
 4792W        W 8856   8.863   9.994   6.643 -0.0038  0.0435  0.1281
 4793W        W 8857   9.405   7.243   9.178  0.0930 -0.3927  0.1628
 4794W        W 8858   0.520   5.899   2.863 -0.1868  0.0953 -0.0298
 4795W        W 8859   7.659   5.470  10.005 -0.2709  0.0813  0.0089
 4796W        W 8860   1.149   7.431  11.400 -0.2135 -0.3337  0.1313
 4797W        W 8861   3.011   0.704  10.951 -0.1851 -0.1739  0.4204
 4798W        W 8862   8.119   7.569   9.645 -0.0220 -0.2466 -0.1121
 4799W        W 8863   5.874   1.930   0.597 -0.1450 -0.2523  0.0639
 4800W        W 8864   7.160   0.595   8.768 -0.1825 -0.1956 -0.1299
 4801W        W 8865   2.507   6.729   1.104 -0.1431  0.1187 -0.0925
 4802W        W 8866   1.379   8.161   0.637 -0.0161  0.1321 -0.3403
 4803W        W 8867   0.002   1.248   3.470 -0.0825 -0.2883 -0.1098
 4804W        W 8868   4.146   8.917   0.293 -0.4349 -0.2566  0.0919
 4805W        W 8869   0.886   2.811   9.626  0.0941 -0.1117  0.5158
 4806W        W 8870   4.975   2.193   3.712 -0.0934  0.0041  0.0925
 4807W        W 8871   2.333   8.537   9.141  0.1851  0.1416  0.2788
 4808W        W 8872   0.692   7.536   1.758 -0.0319 -0.1509 -0.3293
 4809W        W 8873   7.869   5.952  11.483 -0.1046 -0.1251 -0.0854
 4810W        W 8874   1.682   6.243   1.268  0.0288 -0.0852  0.0986
 4811W        W 8875   4.003   8.550   7.957 -0.1925 -0.2589  0.0177
 4812W        W 8876   2.647   6.854   2.133 -0.0237  0.0792  0.1058
 4813W        W 8877   4.265   9.126  10.762 -0.0135 -0.1432  0.0243
 4814W        W 8878   3.306   7.139   8.455  0.2445  0.2164 -0.2177
 4815W        W 8879   6.200   1.899   1.078 -0.1808 -0.2469 -0.1129
 4816W        W 8880   5.218  10.076  10.458 -0.0754 -0.0240 -0.1670
 4817W        W 8881   7.590   5.580   2.644 -0.0377  0.1840  0.0022
 4818W        W 8882   3.207   9.529  10.310  0.2539  0.1032  0.1300
 4819W        W 8883   4.752   1.799   3.376 -0.2904  0.2671  0.2311
 4820W        W 8884   0.210   9.345  11.493 -0.1453  0.2162  0.2881
 4821W        W 8885   8.264   3.275   8.346 -0.1256  0.0698  0.1967
 4822W        W 8886   1.005   5.695  10.367  0.2022  0.1650 -0.0034
 4823W        W 8887   7.290   8.035   8.782 -0.2830  0.0389  0.2560
 4824W        W 8888   9.754   1.990  11.156 -0.1560  0.0818  0.0099
 4825W        W 8889   4.007   5.803  10.717 -0.0369 -0.2230  0.1983
 4826W        W 8890   5.276   4.792   9.779 -0.0461  0.2826 -0.0544
 4827W        W 8891  10.299   8.930  10.885  0.1881  0.2271 -0.0010
 4828W        W 8892   3.520   2.733   8.612  0.3260  0.3125  0.0192
 4829W        W 8893   4.304   1.609   0.155 -0.1341  0.2193 -0.2507
 4830W        W 8894   7.952   7.767   3.769  0.0652 -0.1310 -0.2388
 4831W        W 8895   2.234   0.780   1.544 -0.0620 -0.2210 -0.2402
 4832W        W 8896   7.631  10.614   7.693 -0.0723  0.2564 -0.1391
 4833W        W 8897   4.018   3.503   8.977 -0.2906 -0.1242 -0.1018
 4834W        W 8898   7.124   0.006   0.091 -0.5686 -0.0870 -0.1126
 4835W        W 8899   7.522   0.933   2.751 -0.1635  0.2194 -0.1543
 4836W        W 8900   0.709   1.786   7.580 -0.2037  0.3283 -0.0396
 4837W        W 8901   0.815   7.741   0.812 -0.3653 -0.0367  0.2476
 4838W        W 8902   4.088   7.547   2.632 -0.0934 -0.2403 -0.3750
 4839W        W 8903   1.870   6.434  11.147  0.1060  0.2018 -0.0660
 4840W        W 8904   3.224   6.461  10.527  0.1812  0.1430  0.0098
 4841W        W 8905   7.947   6.735   3.399  0.0061 -0.0241 -0.0003
 4842W        W 8906   6.254   3.762   0.449  0.0696 -0.1187  0.2939
 4843W        W 8907   6.031   1.030   9.419 -0.0751 -0.1667 -0.2230
 4844W        W 8908   4.201   9.740  11.554 -0.2243  0.2721 -0.3025
 4845W        W 8909   5.111   8.151   0.188  0.2593 -0.2395  0.3508
 4846W        W 8910   6.978   4.424   3.201  0.2602 -0.0288  0.2666
 4847W        W 8911   6.234   0.973   3.574 -0.0579  0.1077 -0.1646
 4848W        W 8912   0.823   7.172   1.080 -0.0988 -0.1984 -0.0084
 4849W        W 8913   8.421   8.695   2.180 -0.0595  0.1316  0.0644
 4850W        W 8914   8.437   4.816   9.553 -0.3640  0.0261 -0.2511
 4851W        W 8915   8.259   4.374   2.147  0.0306  0.1536 -0.1920
 4852W        W 8916   1.935   0.008   1.316  0.2360 -0.4109 -0.0822
 4853W        W 8917   5.700   6.510   1.423  0.4620 -0.1055  0.0603
 4854W        W 8918   5.105   0.011  11.201 -0.1974  0.2057  0.1375
 4855W        W 8919   8.370   9.291   8.525 -0.2666 -0.0822  0.1142
 4856W        W 8920   7.631   6.739  11.008 -0.1280 -0.1346  0.1845
 4857W        W 8921   1.055   6.116  11.510  0.1627  0.0722  0.1584
 4858W        W 8922   6.005   6.385   8.489  0.1153  0.0356  0.0666
 4859W        W 8923   1.554   6.057  11.394  0.2023  0.5157 -0.0058
 4860W        W 8924   9.849   8.934   8.033  0.2127  0.2845  0.0790
 4861W        W 8925   6.568   9.779   3.156  0.1808 -0.0956  0.1780
 4862W        W 8926   2.543   9.118   4.071 -0.2362 -0.0578  0.0460
 4863W        W 8927   4.592   9.527  11.338 -0.0579 -0.3841 -0.0096
 4864W        W 8928   1.955   2.326   9.933  0.0663 -0.2665 -0.3887
 4865W        W 8929   9.708   8.230  11.198  0.0968  0.0582  0.4788
 4866W        W 8930   6.397   6.015   8.461 -0.1016  0.0974  0.1998
 4867W        W 8931   8.170   9.667   9.578  0.1943 -0.2557 -0.1170
 4868W        W 8932   7.596   1.695   2.163 -0.1413 -0.2294 -0.4945
 4869W        W 8933   4.370  10.173   7.938  0.0052 -0.1104  0.1035
 4870W        W 8934   2.261   5.975   8.345  0.0278  0.1427  0.0513
 4871W        W 8935   5.619   8.784   0.631 -0.2415  0.3565  0.0103
 4872W        W 8936   3.466   0.738  11.322  0.0399  0.1624 -0.1205
 4873W        W 8937   5.536   6.253   3.234 -0.1790  0.0039 -0.1133
 4874W        W 8938   8.647   2.900   2.727 -0.0324  0.1520 -0.0483
 4875W        W 8939   1.366   2.201   1.926  0.0256  0.1712  0.0481
 4876W        W 8940   4.185  10.346   1.917 -0.2311  0.2515  0.1392
 4877W        W 8941   7.414   9.406   1.240 -0.3525 -0.2004 -0.0110
 4878W        W 8942   2.729   8.510   3.155  0.1130  0.2106  0.2669
 4879W        W 8943   6.171   9.104   9.780 -0.0886 -0.0881  0.1034
 4880W        W 8944   5.314   6.591   9.547 -0.1088 -0.2238 -0.0226
 4881W        W 8945   6.547   3.897   0.034  0.0346  0.0452 -0.0203
 4882W        W 8946   3.663   0.540   0.988 -0.5764  0.0198 -0.1761
 4883W        W 8947   1.972  10.077   1.156 -0.0914 -0.1367 -0.0205
 4884W        W 8948   3.625   1.529   1.997 -0.1350 -0.1657  0.0020
 4885W        W 8949   8.485   8.524   8.965  0.1511 -0.2603 -0.0830
 4886W        W 8950   1.404   7.815   9.938 -0.1474  0.0834  0.0690
 4887W        W 8951   5.471   9.647   9.196 -0.0314 -0.2983  0.0247
 4888W        W 8952  10.155   9.482  10.830 -0.1834 -0.1006 -0.0780
 4889W        W 8953   1.735   7.398   0.166  0.2365 -0.1255 -0.0603
 4890W        W 8954  10.359  10.632   0.980  0.0926 -0.1360  0.1529
 4891W        W 8955  10.084   0.933   9.723 -0.3166 -0.0751  0.0674
 4892W        W 8956   2.435  10.275   0.647 -0.2948 -0.2545  0.0789
 4893W        W 8957   5.419   5.406  11.479 -0.0558  0.1046 -0.3190
 4894W        W 8958   2.852  10.217   8.342 -0.1687 -0.2450  0.1191
 4895W        W 8959   9.225   0.352   0.703 -0.3029  0.1536  0.0708
 4896W        W 8960  10.333   8.242   3.289  0.0830  0.0309 -0.3564
 4897W        W 8961   2.010  10.568   7.290 -0.0635 -0.3152  0.2335
 4898W        W 8962   5.740   5.662   3.660 -0.1014 -0.2096 -0.0487
 4899W        W 8963   9.871   8.454  10.682  0.1257  0.0314  0.1435
 4900W        W 8964   6.385   4.975   0.176 -0.2821  0.1527  0.1452
 4901W        W 8965   8.890   9.434   3.107 -0.1187  0.0340 -0.1926
 4902W        W 8966   2.196   4.543  11.035  0.1269 -0.0591  0.0436
 4903W        W 8967   9.638   0.119  11.048 -0.0868  0.5739  0.2060
 4904W        W 8968   5.523   4.811   0.157  0.2452 -0.0120  0.3426
 4905W        W 8969   4.666   0.700   2.401 -0.0120 -0.1076  0.0058
 4906W        W 8970   0.379   3.260   0.908 -0.0708 -0.0349  0.0380
 4907W        W 8971   8.041   9.777   0.669 -0.2633 -0.0163 -0.0086
 4908W        W 8972   6.267   9.441   9.319 -0.3799  0.1594 -0.1616
 4909W        W 8973   8.773  10.019   7.657 -0.1752 -0.1575 -0.0559
 4910W        W 8974   9.421   8.931  11.165 -0.1678 -0.3333 -0.1428
 4911W        W 8975   0.614   5.991  11.153 -0.0577  0.4045 -0.0152
 4912W        W 8976   7.303   0.501   1.149 -0.3074 -0.0774 -0.1228
 4913W        W 8977   0.419   4.471  10.790  0.0257 -0.1220  0.0485
 4914W        W 8978   3.231   3.574  10.128  0.1423 -0.2586  0.1742
 4915W        W 8979   9.570   4.355   8.741 -0.0805  0.0206 -0.1082
 4916W        W 8980   4.697   1.536   7.942 -0.0401 -0.2331  0.1074
 4917W        W 8981   6.087   5.086   0.893  0.2956  0.1571 -0.1426
 4918W        W 8982   0.727   9.729   7.447 -0.1147  0.0290 -0.3434
 4919W        W 8983   2.532   2.039   8.763 -0.0183  0.0534  0.1345
 4920W        W 8984  10.564   4.300   1.999  0.0496  0.1553 -0.0303
 4921W        W 8985   0.027   2.927   2.397  0.1066 -0.0433 -0.0531
 4922W        W 8986   5.895   9.404  10.910  0.0362  0.0193 -0.3432
 4923W        W 8987   4.544   6.018  11.153  0.0373  0.0444  0.0067
 4924W        W 8988   7.769   6.574   2.897 -0.1000  0.0247 -0.2720
 4925W        W 8989   3.136   1.761   2.178  0.2611  0.1589  0.0653
 4926W        W 8990   0.781   5.503  11.306  0.1755 -0.2494 -0.0198
 4927W        W 8991   6.772   6.020   9.698 -0.2404  0.1623 -0.4096
 4928W        W 8992   3.770   6.761   8.326  0.1087  0.1546  0.0632
 4929W        W 8993   4.359   6.578   9.707 -0.2606  0.1398  0.1736
 4930W        W 8994   9.343   3.601  10.195  0.2417  0.0547 -0.1184
 4931W        W 8995   9.793   1.524  10.245 -0.0906 -0.1546 -0.0642
 4932W        W 8996   9.771  10.375   0.450 -0.0286 -0.2874  0.0330
 4933W        W 8997   8.147   0.875   0.810  0.0268 -0.0291  0.0748
 4934W        W 8998  10.028   1.379   8.914  0.3318  0.1569  0.3085
 4935W        W 8999   2.937   9.851   9.189  0.0318 -0.0270  0.2732
 4936W        W 9000   3.310   2.599  11.206  0.2234  0.1673  0.2569
 4937W        W 9001   7.643   2.704   2.350 -0.2491 -0.2729  0.2179
 4938W        W 9002   6.968   0.562   9.275 -0.1261  0.1050 -0.0942
 4939W        W 9003   5.702   4.545   2.715 -0.1356  0.0389 -0.1220
 4940W        W 9004   4.396   5.050  10.728 -0.1168 -0.1878 -0.1332
 4941W        W 9005   7.036   9.548   3.527 -0.1057 -0.2207  0.2137
 4942W        W 9006   2.072   9.405   7.732  0.1498  0.4220  0.0514
 4943W        W 9007   5.680   9.340   2.078  0.3244 -0.0030  0.1333
 4944W        W 9008   7.158   1.892   1.941  0.2153 -0.0861 -0.1050
 4945W        W 9009   6.401   9.193   0.020 -0.0222 -0.0154  0.0219
 4946W        W 9010   2.196   3.731   8.975 -0.0572  0.0205  0.2107
 4947W        W 9011  10.184   6.962   2.797 -0.3027  0.1685 -0.1960
 4948W        W 9012   8.392   5.120   8.691  0.2840 -0.1009  0.2203
 4949W        W 9013   6.637   3.948  10.376 -0.3453 -0.2124  0.2339
 4950W        W 9014   0.663   8.382  10.420 -0.0133  0.1556  0.2506
 4951W        W 9015   0.869   6.181   1.674  0.1018  0.1838  0.2542
 4952W        W 9016   0.401   6.592   8.673  0.0901 -0.2812  0.1019
 4953W        W 9017   4.131   8.991   8.115 -0.0416 -0.0809 -0.0427
 4954W        W 9018   7.651   5.231   1.167 -0.0739  0.0931  0.1900
 4955W        W 9019   5.627   5.596   9.742  0.0165  0.0782 -0.2409
 4956W        W 9020   0.497   4.741   8.867 -0.1977  0.0627 -0.0075
 4957W        W 9021   3.759   1.374   2.742  0.1331 -0.0440 -0.1249
 4958W        W 9022  10.013   8.241   8.836 -0.3248  0.1818  0.0541
 4959W        W 9023   4.586   9.958   9.190 -0.0319  0.1544  0.1195
 4960W        W 9024   1.017   7.589  10.352  0.0728 -0.0764 -0.3449
 4961W        W 9025   1.547   8.033   0.070  0.1456 -0.2593 -0.0800
 4962W        W 9026   6.433   4.719   2.351 -0.0607  0.0110  0.1176
 4963W        W 9027   8.887   8.153   0.642 -0.0378 -0.2047  0.1261
 4964W        W 9028   6.778   8.369   9.939 -0.2408  0.2735 -0.2825
 4965W        W 9029   9.558   0.352   7.982 -0.2162  0.2836  0.0357
 4966W        W 9030   5.299   4.777   3.956  0.0445 -0.1113 -0.1524
 4967W        W 9031   4.864   8.400   2.689 -0.3465  0.0872 -0.0295
 4968W        W 9032   5.415   1.049   3.160 -0.1371  0.0425 -0.0558
 4969W        W 9033   6.157   7.412  10.033 -0.0445  0.0864  0.1376
 4970W        W 9034   9.313   7.469  10.148  0.3945  0.1548 -0.3014
 4971W        W 9035   2.067   5.108   0.772  0.1558  0.0415  0.1032
 4972W        W 9036   7.875   3.611   0.231  0.0122  0.3605 -0.3018
 4973W        W 9037   7.146   7.132   2.729  0.3123 -0.2863 -0.1052
 4974W        W 9038   8.253   0.850   2.114  0.4829 -0.1303  0.1768
 4975W        W 9039   1.595   1.804   7.438 -0.2896 -0.0220  0.1529
 4976W        W 9040   7.701  10.560   9.091  0.2208  0.1703  0.1894
 4977W        W 9041  10.216   5.000  11.156  0.0602  0.0417  0.0650
 4978W        W 9042  10.235   3.548  10.203 -0.2485 -0.1705  0.5856
 4979W        W 9043   1.431  10.582   8.050 -0.1908  0.3744 -0.0937
 4980W        W 9044   1.318   4.169   1.913  0.0355  0.1066  0.4340
 4981W        W 9045   9.582   4.587   2.098 -0.0886  0.0352 -0.2110
 4982W        W 9046   3.809   2.218   2.969 -0.3359 -0.3556  0.1099
 4983W        W 9047  10.282  10.301   8.539  0.0800  0.1078  0.2476
 4984W        W 9048   4.187   6.209   0.960 -0.0174 -0.2993  0.3674
 4985W        W 9049   5.155   4.624  11.339  0.0659  0.3010  0.0852
 4986W        W 9050   9.256   9.241  10.757  0.0460 -0.2559 -0.0548
 4987W        W 9051   7.944   8.730   2.421  0.2598 -0.0895 -0.0727
 4988W        W 9052   6.644   9.487   2.700  0.1170 -0.0058 -0.1507
 4989W        W 9053   6.821   4.970   1.587 -0.1650 -0.0734  0.0730
 4990W        W 9054   3.886   4.023   8.931  0.2069  0.2442  0.1268
 4991W        W 9055  10.224   8.570   1.066  0.0328  0.1912  0.0029
 4992W        W 9056   8.574   4.833  10.185  0.2209  0.0783  0.0248
 4993W        W 9057   5.864   1.056   1.785 -0.1028 -0.0647 -0.1201
 4994W        W 9058   9.015   9.686   9.041  0.3290 -0.0516  0.0266
 4995W        W 9059   2.058   9.904   3.737 -0.2234  0.0006 -0.1486
 4996W        W 9060   7.754   5.748   3.067 -0.2189  0.1696 -0.1674
 4997W        W 9061   8.516   3.534  10.535  0.0206  0.0290  0.1427
 4998W        W 9062   7.850   5.664   1.003  0.2560 -0.0517  0.0898
 4999W        W 9063  10.520   0.001   8.284  0.0492  0.1104  0.4466
 5000W        W 9064   2.136   7.559   2.236  0.0006  0.1150  0.0360
 5001W        W 9065   5.353   7.308  10.421  0.3429  0.1432  0.2016
 5002W        W 9066   4.133   0.703  11.154 -0.3456  0.3925 -0.1136
 5003W        W 9067   4.321   0.184   3.151  0.0481  0.1106 -0.3187
 5004W        W 9068   0.046   1.861   8.665 -0.0009  0.3882 -0.1084
 5005W        W 9069   6.105   9.196   0.758 -0.1418 -0.0543 -0.0411
 5006W        W 9070   3.973   8.957   7.654  0.2767  0.2744  0.0994
 5007W        W 9071   0.484   0.842   2.413  0.1635  0.2570 -0.2481
 5008W        W 9072   3.683   8.238   8.808 -0.1477  0.0779  0.0481
 5009W        W 9073   1.101   3.967  10.845  0.2238 -0.2565 -0.1903
 5010W        W 9074  10.620   1.831  10.825 -0.1967  0.0065 -0.0212
 5011W        W 9075   5.988   4.184   2.967  0.0291  0.0589  0.0996
 5012W        W 9076   9.476   5.085  10.210 -0.1389 -0.2889  0.0110
 5013W        W 9077   0.987   7.769   9.682 -0.2622  0.1778 -0.1742
 5014W        W 9078   1.273   2.653  10.586 -0.2124  0.4996  0.0177
 5015W        W 9079   2.039   9.560   3.313 -0.0231  0.4104 -0.2646
 5016W        W 9080   2.591   3.538  11.559 -0.2937  0.1861 -0.0825
 5017W        W 9081   7.670   4.222   8.477  0.1803 -0.2115  0.3748
 5018W        W 9082   1.793  10.094  10.810 -0.0710 -0.0048 -0.0895
 5019W        W 9083   1.616   3.899   1.094 -0.1038  0.1744 -0.2166
 5020W        W 9084   0.198   9.512  10.808  0.0241 -0.0122  0.2975
 5021W        W 9085   4.622   6.020   0.867  0.0119  0.1280 -0.0074
 5022W        W 9086   4.880   4.993  10.470 -0.2173 -0.3665 -0.1432
 5023W        W 9087   8.640   3.071  10.736  0.0959  0.1466 -0.0593
 5024W        W 9088   5.882   6.351   3.655  0.3182  0.2947  0.0533
 5025W        W 9089   0.161   7.455   1.679  0.0044  0.4254  0.3809
 5026W        W 9090   0.814   0.471  11.283 -0.1510 -0.1937  0.0581
 5027W        W 9091   4.322   3.671   2.419 -0.1037  0.2934 -0.1893
 5028W        W 9092   2.132   2.610   1.341 -0.0889  0.0800 -0.0768
 5029W        W 9093   0.006   2.871   8.399  0.0850 -0.0334 -0.2419
 5030W        W 9094   4.619   1.365   3.758  0.0136  0.1814 -0.1640
 5031W        W 9095   0.332   7.611   2.512 -0.0483 -0.1223  0.3725
 5032W        W 9096   4.730   1.880   9.011 -0.2143  0.1182 -0.2264
 5033W        W 9097   5.510   0.141  10.909 -0.3807 -0.1936  0.4736
 5034W        W 9098   9.961   8.705  11.224 -0.1285  0.1258  0.0512
 5035W        W 9099   0.581   3.165   9.241 -0.1082  0.2196  0.1276
 5036W        W 9100   2.893   4.599  11.460 -0.1806  0.0360  0.0800
 5037W        W 9101   5.806   3.201  10.546 -0.5435 -0.0155 -0.1803
 5038W        W 9102   2.218   2.229   0.435 -0.5789  0.1607  0.0902
 5039W        W 9103   1.408   7.281   7.772  0.0852  0.1975  0.0314
 5040W        W 9104   7.454   2.422   1.229  0.2587 -0.2145 -0.1176
 5041W        W 9105  10.394   2.661  11.293 -0.0703  0.1587  0.2178
 5042W        W 9106   4.168  10.174  10.582 -0.0930  0.1011 -0.0378
 5043W        W 9107   2.255   0.263   7.638 -0.2873 -0.2560 -0.1102
 5044W        W 9108   7.589   3.026   0.409 -0.1101 -0.0669 -0.4311
 5045W        W 9109  10.494   5.065   0.034 -0.1210  0.0063 -0.0752
 5046W        W 9110   4.954   8.792   9.861  0.0779 -0.1578 -0.3668
 5047W        W 9111   1.391   1.003   3.169 -0.1651 -0.1460 -0.1205
 5048W        W 9112   5.784   8.555   1.230 -0.2859 -0.0770  0.0783
 5049W        W 9113   6.360   9.492   1.167 -0.0710 -0.1289  0.0317
 5050W        W 9114   1.950   9.198   0.053  0.1265  0.1857 -0.0184
 5051W        W 9115   0.071   0.440   1.193  0.1448  0.2630  0.0358
 5052W        W 9116   3.183   7.578   8.164  0.0589  0.4817 -0.0173
 5053W        W 9117   8.499   1.855   0.371  0.1369 -0.1812 -0.0216
 5054W        W 9118   3.857   9.204   0.686 -0.1186  0.0494  0.1455
 5055W        W 9119   4.821   3.530   8.485  0.1523  0.0441 -0.0304
 5056W        W 9120   0.980   7.510   7.930  0.0294  0.2279 -0.2612
 5057W        W 9121   4.560   6.504   0.863  0.0680  0.0260 -0.2093
 5058W        W 9122   4.402   5.106   7.997 -0.0352  0.0610 -0.1614
 5059W        W 9123  10.586   4.264  10.046  0.0279 -0.0172 -0.0722
 5060W        W 9124   3.042   7.463   1.656 -0.0602  0.0718 -0.0469
 5061W        W 9125   7.516   6.172   2.693  0.1034  0.1022  0.0166
 5062W        W 9126   1.447   3.480   0.190  0.0563 -0.2005  0.3534
 5063W        W 9127   0.525   0.188   0.454  0.1329 -0.0140 -0.0931
 5064W        W 9128   1.585  10.628   0.728  0.0967 -0.2240 -0.0062
 5065W        W 9129   6.217   5.617   0.679 -0.2659  0.1798 -0.1024
 5066W        W 9130   5.790   5.414   8.729  0.0762  0.3668  0.0651
 5067W        W 9131   7.149   6.815  10.295  0.0751  0.0330 -0.1330
 5068W        W 9132   0.417   8.626  10.757  0.0356  0.1234  0.1920
 5069W        W 9133   7.317   7.532   1.336 -0.0023  0.0632 -0.1037
 5070W        W 9134   0.134  10.397   1.045  0.1983 -0.0366  0.2986
 5071W        W 9135   6.324   6.317   1.531 -0.2873  0.2785  0.1291
 5072W        W 9136  10.641   8.814   0.362  0.1365  0.2189 -0.1966
 5073W        W 9137   5.737   2.697  10.836 -0.0942 -0.0180 -0.2354
 5074W        W 9138   6.616   7.846  10.174 -0.0151 -0.3617  0.0784
 5075W        W 9139   9.393   1.357   0.741  0.2026  0.3209  0.3485
 5076W        W 9140   6.330   8.810   3.165  0.1454  0.0611  0.0350
 5077W        W 9141   2.742   2.516  10.098 -0.0647 -0.0784 -0.2131
 5078W        W 9142   9.681   0.060   8.928 -0.0385  0.1216  0.0431
 5079W        W 9143   8.664   5.950  10.823 -0.0422  0.0830 -0.0999
 5080W        W 9144   6.036   2.421  11.270 -0.1045 -0.0999  0.3363
 5081W        W 9145   4.660   1.286   0.304 -0.0062 -0.0853  0.2530
 5082W        W 9146   6.662   6.990   2.783  0.0921 -0.0626  0.0485
 5083W        W 9147   5.566   2.296  10.525 -0.1883 -0.1224 -0.2874
 5084W        W 9148   4.613   9.721   0.505 -0.3439 -0.1925 -0.0478
 5085W        W 9149   8.768   7.337   3.711 -0.1357  0.1165  0.1614
 5086W        W 9150   5.889   2.178   9.564 -0.1349 -0.1697  0.0046
 5087W        W 9151   9.956   2.438   3.891 -0.0144  0.2644  0.1377
 5088W        W 9152   6.495   8.272  11.171 -0.0532  0.0545  0.1575
 5089W        W 9153   8.782   5.858   1.095 -0.0272  0.0916  0.2025
 5090W        W 9154   9.623   7.545   1.685 -0.0901  0.2169 -0.0821
 5091W        W 9155   6.053   4.771   0.549  0.1184  0.4854  0.1209
 5092W        W 9156   4.426   5.533  10.649 -0.1621 -0.1841 -0.1415
 5093W        W 9157   7.868   9.518  11.299  0.0139 -0.2106 -0.2204
 5094W        W 9158   0.789   0.619   0.629 -0.0875 -0.3269  0.1285
 5095W        W 9159   8.410   9.140   1.274 -0.1275 -0.2164  0.0930
 5096W        W 9160   3.609   6.265   1.296  0.1998 -0.1510  0.0591
 5097W        W 9161   8.034   2.114   9.126  0.0376 -0.1305 -0.0761
 5098W        W 9162   6.359   1.443   3.611  0.2406 -0.0245  0.0062
 5099W        W 9163   7.205   2.493   9.422  0.2048 -0.2092  0.0020
 5100W        W 9164   3.881   7.644  11.433 -0.1149 -0.0477 -0.3652
 5101W        W 9165   8.527   2.944   1.312  0.2103  0.0397 -0.1564
 5102W        W 9166   4.418   8.793  11.126 -0.2563 -0.0600  0.1665
 5103W        W 9167   9.294   0.373   8.928 -0.1619  0.1172 -0.0741
 5104W        W 9168   3.893   1.959   7.994 -0.3202  0.3603 -0.5044
 5105W        W 9169   3.494   2.283   7.951 -0.0201  0.0433 -0.0745
 5106W        W 9170   6.381   3.122   8.934  0.1293 -0.2146  0.0039
 5107W        W 9171   2.450   0.412   2.028 -0.1841  0.1213 -0.1690
 5108W        W 9172   0.765  10.625   3.766  0.0533 -0.1360 -0.0948
 5109W        W 9173   3.325   6.987   9.755 -0.2425 -0.0900  0.0609
 5110W        W 9174   9.745   5.621   2.034 -0.0662 -0.2752  0.0638
 5111W        W 9175   0.926   9.151  10.108 -0.2227  0.2039  0.3048
 5112W        W 9176   2.619   5.514   9.337 -0.4435 -0.0037  0.1340
 5113W        W 9177   7.154   5.115   4.236 -0.1176  0.2408  0.3009
 5114W        W 9178   4.775   9.440   8.227  0.0243  0.0036  0.1537
 5115W        W 9179   2.577   7.243  11.326 -0.0274  0.0739 -0.1749
 5116W        W 9180   4.213   6.902   0.010 -0.0925  0.0622 -0.1215
 5117W        W 9181   7.352   6.207   7.953 -0.0668  0.0930 -0.3559
 5118W        W 9182   0.616   8.975  10.500 -0.0948  0.2086  0.0604
 5119W        W 9183   3.894   1.115   1.413 -0.0710 -0.2613  0.0496
 5120W        W 9184   7.886   2.993   3.529 -0.0109  0.3496 -0.2001
 5121W        W 9185   0.283  10.613   7.957 -0.0863  0.0264  0.3175
 5122W        W 9186   9.743  10.261   9.997  0.2399  0.0121  0.0260
 5123W        W 9187   5.313   9.212  10.648  0.1074  0.1199 -0.1675
 5124W        W 9188   8.363   2.063   1.708 -0.0627  0.1280  0.0188
 5125W        W 9189   1.464   7.616  10.695 -0.0679  0.0955 -0.1003
 5126W        W 9190   3.118   3.394  11.545  0.0009  0.0859  0.2636
 5127W        W 9191   5.446   6.688   2.364  0.0470 -0.2793 -0.1422
 5128W        W 9192   4.677   7.371   2.185 -0.1600 -0.1454 -0.0756
 5129W        W 9193   8.586   6.952   3.449  0.5855  0.0910 -0.2099
 5130W        W 9194   8.247   5.935   3.330  0.0408  0.1670 -0.0259
 5131W        W 9195   3.023   1.252   2.851 -0.0270 -0.4448 -0.2129
 5132W        W 9196   6.969   5.135   9.731  0.0004  0.2465  0.0150
 5133W        W 9197   6.776   5.095   8.812  0.0774 -0.2667 -0.0180
 5134W        W 9198   6.216   2.420   9.090  0.0891 -0.1878  0.0824
 5135W        W 9199   0.349   6.224   0.359  0.1490  0.1288  0.1634
 5136W        W 9200   2.886   2.716   2.820 -0.2474  0.3516  0.3415
 5137W        W 9201   4.803   9.054  10.728 -0.0972  0.3730  0.1823
 5138W        W 9202  10.334   6.497   8.648 -0.1944  0.1207  0.3952
 5139W        W 9203   8.700   7.418   1.064  0.1382 -0.0342  0.1731
 5140W        W 9204   9.393   3.419  10.787 -0.0490 -0.2202  0.2758
 5141W        W 9205   0.205   0.961  10.974  0.0405  0.0281 -0.1049
 5142W        W 9206   1.194   6.029   8.488  0.4321 -0.2431  0.2237
 5143W        W 9207   4.328   9.387   0.308  0.0506 -0.1486  0.2417
 5144W        W 9208   3.717   4.470   2.273 -0.0060 -0.6435  0.0001
 5145W        W 9209   3.960   9.656   9.488 -0.2335  0.1690  0.1071
 5146W        W 9210   1.047   7.303   9.519  0.2648  0.2059  0.1615
 5147W        W 9211   6.642   7.911   9.515  0.0421  0.3869 -0.2480
 5148W        W 9212   5.315   0.670   3.692  0.1303 -0.1813  0.1227
 5149W        W 9213   9.985   9.783   9.842  0.1182  0.0456 -0.0492
 5150W        W 9214   8.234   9.861   7.761  0.0545 -0.0806 -0.1590
 5151W        W 9215   6.935  10.155   0.002  0.3921  0.2681  0.0484
 5152W        W 9216   7.275   0.967   0.021  0.1227 -0.2505  0.1559
 5153W        W 9217   7.417   1.405   0.198  0.0847 -0.3442  0.0626
 5154W        W 9218   4.743   6.584  10.797  0.1135 -0.1340 -0.0490
 5155W        W 9219   0.806   0.231   1.731  0.2013  0.1299 -0.1483
 5156W        W 9220   1.030   6.987  10.488 -0.3078  0.4172 -0.1710
 5157W        W 9221   0.964   7.779  10.918  0.3391 -0.0718  0.1067
 5158W        W 9222   8.643   9.399   2.167 -0.1292  0.3365  0.4594
 5159W        W 9223   4.859   0.245   8.324 -0.1952  0.0312  0.1396
 5160W        W 9224   7.139   1.197  10.394  0.3317  0.1425 -0.0438
 5161W        W 9225   4.854  10.367   1.138 -0.0142 -0.0504  0.1383
 5162W        W 9226   1.134   8.024   3.393  0.3797  0.1504 -0.2401
 5163W        W 9227   1.832  10.295   4.145  0.1501  0.4577  0.1314
 5164W        W 9228   4.525   6.273  10.110  0.2619  0.1423 -0.2541
 5165W        W 9229   9.309   5.916   9.404  0.2896 -0.5186  0.3433
 5166W        W 9230   9.374   4.586  11.426  0.3105  0.0937  0.0882
 5167W        W 9231   4.437  10.482  10.235 -0.3117 -0.0654 -0.1295
 5168W        W 9232   8.564   0.843   0.505 -0.0825  0.1618 -0.0517
 5169W        W 9233   4.648   9.938   2.775  0.0866  0.2752  0.0993
 5170W        W 9234   2.596   7.621   2.391  0.3437  0.2678  0.3188
 5171W        W 9235   8.207   6.799   3.798  0.0401  0.0211  0.0092
 5172W        W 9236   1.727   9.853   2.525  0.0523 -0.0106  0.0676
 5173W        W 9237   2.461   9.090   0.517 -0.0434  0.0491 -0.1700
 5174W        W 9238   9.043   3.712   1.391 -0.1059  0.2347  0.0427
 5175W        W 9239   2.231   2.062   3.654 -0.0231 -0.0761 -0.4585
 5176W        W 9240   5.448   7.530   1.619 -0.0954 -0.0879 -0.2227
 5177W        W 9241   3.115   3.883   3.486  0.1692  0.1318  0.0911
 5178W        W 9242   8.792   7.133   9.321 -0.2929 -0.0376 -0.0948
 5179W        W 9243   6.786   5.536   9.555  0.3055  0.1140 -0.3806
 5180W        W 9244   2.058   5.970  11.350 -0.1357  0.1740  0.0191
 5181W        W 9245   8.335   9.483   3.058 -0.3176  0.3149  0.1532
 5182W        W 9246   1.221   0.332   9.094  0.1970 -0.1363  0.0922
 5183W        W 9247   6.221   9.017  10.264  0.0585  0.2198 -0.0722
 5184W        W 9248   8.956   2.700   1.593 -0.3373  0.1093  0.3219
 5185W        W 9249   2.426   1.612   1.440 -0.3405  0.1822 -0.0000
 5186W        W 9250   5.421   1.727   1.526 -0.2692 -0.2192  0.1262
 5187W        W 9251   4.118   3.725   3.735  0.0227  0.0605  0.2778
 5188W        W 9252   4.629   3.250   2.465 -0.1840 -0.1873  0.0059
 5189W        W 9253   5.466   9.908   3.382 -0.1107 -0.0716  0.2518
 5190W        W 9254  10.060  10.437  10.974  0.1912  0.1611 -0.1245
 5191W        W 9255   7.528   1.469   3.382  0.2937 -0.3684  0.0359
 5192W        W 9256   8.159   2.996   8.722 -0.2881  0.0338 -0.0912
 5193W        W 9257   6.591   1.419   3.098 -0.0817 -0.1534  0.1105
 5194W        W 9258   8.648   7.510  10.530  0.3780 -0.2391 -0.1886
 5195W        W 9259   6.613   4.987   2.711 -0.2473  0.1329  0.2803
 5196W        W 9260   1.598  10.526   1.712 -0.0160  0.0480  0.2439
 5197W        W 9261   7.982  10.626   1.253  0.1133  0.0902  0.3523
 5198W        W 9262   5.974   4.143   9.850  0.2130  0.1354 -0.1873
 5199W        W 9263   0.306   3.129   8.712 -0.0146 -0.0591  0.1823
 5200W        W 9264   6.130   0.923  10.830 -0.0462  0.0414 -0.1885
 5201W        W 9265  10.057   9.424   1.942  0.3203  0.1128 -0.2324
 5202W        W 9266   0.734   6.163  10.181 -0.0746 -0.0198  0.1996
 5203W        W 9267   4.214   5.475   8.284  0.0088 -0.2828  0.1584
 5204W        W 9268   6.297   8.710   0.769 -0.1656 -0.0152  0.1352
 5205W        W 9269   5.648   6.280  10.411  0.0989  0.1041 -0.3946
 5206W        W 9270   3.335   0.563   0.157  0.0494  0.2426  0.1752
 5207W        W 9271   8.902   4.674   8.624  0.0700  0.1829  0.0051
 5208W        W 9272   0.679  10.126   9.405 -0.0317  0.1330 -0.0786
 5209W        W 9273   0.030   7.312   8.389  0.1751  0.0282  0.0510
 5210W        W 9274   8.283   0.060  11.401 -0.2378 -0.2299 -0.1111
 5211W        W 9275   4.608   8.021   0.795  0.0252 -0.1558 -0.0680
 5212W        W 9276   5.370   2.989   8.940  0.0698  0.1471 -0.0840
 5213W        W 9277   7.457   8.754   2.482  0.2760 -0.0486 -0.0069
 5214W        W 9278   3.370  10.197   0.509 -0.2969  0.0343 -0.1212
 5215W        W 9279   8.373   1.321   0.836  0.0907 -0.5306  0.2319
 5216W        W 9280   0.823   4.142   2.696  0.0950 -0.0212 -0.0002
 5217W        W 9281  10.063   5.461  11.216  0.2823  0.0298 -0.1694
 5218W        W 9282   4.568   0.437   8.740 -0.2565  0.1492 -0.0797
 5219W        W 9283   6.651   4.174   1.182  0.3553  0.1942 -0.1187
 5220W        W 9284  10.538   0.170  11.209  0.0001 -0.2276 -0.0642
 5221W        W 9285   0.566   9.046   7.450  0.0298  0.1927  0.0118
 5222W        W 9286   8.104  10.540   8.800  0.1518  0.1047 -0.2157
 5223W        W 9287   5.275  10.284   0.631  0.1588 -0.0312 -0.1128
 5224W        W 9288   0.409   8.421   0.302  0.3717  0.0122  0.0344
 5225W        W 9289   1.009   4.513   9.521  0.2913  0.1179 -0.0257
 5226W        W 9290   8.146   9.965  11.138  0.1806 -0.2056  0.0310
 5227W        W 9291   0.011   2.894   9.923 -0.2318  0.2039  0.0763
 5228W        W 9292   4.613   2.073   0.474  0.3212 -0.0572  0.0524
 5229W        W 9293   2.921   7.987   3.837  0.0096 -0.0796 -0.1088
 5230W        W 9294   8.018   5.472   9.087  0.1813  0.1048 -0.1015
 5231W        W 9295   9.216   8.075   9.382 -0.1814  0.0181  0.0758
 5232W        W 9296   7.267   6.100   3.124 -0.2102 -0.0729 -0.1750
 5233W        W 9297   9.118   1.096   0.344 -0.1184  0.0538  0.0491
 5234W        W 9298   0.320   5.879   8.322  0.2120  0.2843  0.0179
 5235W        W 9299   8.100   2.440   0.575  0.2739  0.1141 -0.1883
 5236W        W 9300   9.089  10.007   9.441  0.3766  0.2005  0.0128
 5237W        W 9301   4.138  10.151   9.314  0.1153 -0.0077  0.4241
 5238W        W 9302   6.744   4.748  11.399 -0.1188  0.3275  0.1820
 5239W        W 9303   4.431   5.691   0.200 -0.1535 -0.2065  0.1596
 5240W        W 9304  10.600   8.368   1.860  0.1431  0.1913  0.2351
 5241W        W 9305   0.143   5.778  11.543 -0.0820  0.0133  0.2536
 5242W        W 9306   5.693   9.150   2.536 -0.0012  0.3459  0.1881
 5243W        W 9307  10.316   8.648  10.487 -0.0260 -0.1276 -0.0473
 5244W        W 9308   8.272   7.082   9.545 -0.0791  0.0624  0.3551
 5245W        W 9309   8.700   1.687  10.539  0.1088 -0.0738 -0.0751
 5246W        W 9310   7.126   8.535   9.002 -0.2164 -0.2011  0.0394
 5247W        W 9311   0.796   9.373   1.076  0.0292  0.0586  0.0004
 5248W        W 9312   5.259   4.325   0.952  0.3269  0.1464 -0.0739
 5249W        W 9313   9.403   3.713   0.869 -0.0166  0.0725 -0.1254
 5250W        W 9314   2.630   0.258   8.721  0.0992 -0.3401 -0.2416
 5251W        W 9315   6.080   3.558   1.762  0.1097 -0.0385  0.0669
 5252W        W 9316   7.322   9.790   4.242  0.2788 -0.1415 -0.0505
 5253W        W 9317   1.186   0.370   7.839  0.0318  0.1248 -0.1575
 5254W        W 9318   5.197   6.787  10.504  0.0081 -0.0094  0.1450
 5255W        W 9319   7.964   3.777  10.277  0.3244 -0.2118 -0.2970
 5256W        W 9320   9.724   9.690   8.772 -0.2496 -0.0573 -0.2562
 5257W        W 9321   3.540   6.335   3.221 -0.2770 -0.0758 -0.2253
 5258W        W 9322   8.214   5.874   8.065 -0.1676 -0.4789 -0.0008
 5259W        W 9323   4.787   1.158   4.202 -0.0413 -0.1661 -0.2870
 5260W        W 9324   8.216   6.211   9.794 -0.2332  0.0796 -0.3414
 5261W        W 9325   7.194   4.444   2.157 -0.2750  0.0277 -0.2745
 5262W        W 9326   2.566   7.037   1.652  0.2284 -0.0820 -0.2288
 5263W        W 9327  10.082   4.421  10.199 -0.0133  0.0465 -0.0089
 5264W        W 9328   1.184  10.163   9.397 -0.4516  0.0278 -0.1877
 5265W        W 9329   3.204   2.966   9.915 -0.3726 -0.1720 -0.0168
 5266W        W 9330   8.758   0.406   8.961  0.1573 -0.1369 -0.2102
 5267W        W 9331   8.161   8.826   1.503  0.1702 -0.3167 -0.1098
 5268W        W 9332   7.719   6.489   8.896  0.0051  0.2067  0.0950
 5269W        W 9333   9.022   5.340   3.669  0.1752 -0.0528 -0.1580
 5270W        W 9334   6.546   8.793   9.925 -0.1365  0.1837  0.0630
 5271W        W 9335   6.851   8.293   9.323 -0.2381 -0.3682  0.0398
 5272W        W 9336   7.628   9.463   0.757  0.1863 -0.0241 -0.1925
 5273W        W 9337   7.585   8.525   3.329 -0.2675 -0.4388 -0.0839
 5274W        W 9338   0.389   0.579   0.174  0.0242  0.0759  0.0943
 5275W        W 9339   4.907   8.424   9.479  0.3881 -0.2522  0.0586
 5276W        W 9340   2.325   5.705   8.780  0.2321  0.2712  0.1376
 5277W        W 9341  10.254   0.216   1.921  0.1543 -0.0562 -0.1042
 5278W        W 9342   7.493   0.047   1.299  0.3502 -0.1837  0.2682
 5279W        W 9343   4.151   1.919  10.436 -0.3458 -0.2023 -0.2076
 5280W        W 9344   6.367   6.123   7.893 -0.1683 -0.0292 -0.5163
 5281W        W 9345   3.434   2.041   3.260  0.1439  0.0324  0.0865
 5282W        W 9346   9.062   1.532   8.481  0.2039 -0.0435 -0.0809
 5283W        W 9347   1.708  10.132  11.319  0.3308  0.0420  0.0173
 5284W        W 9348   6.707   6.360   1.172  0.0184 -0.1220 -0.1206
 5285W        W 9349   2.168   4.630   0.546 -0.0314 -0.3432  0.0173
 5286W        W 9350   7.724   0.841   2.060 -0.0090 -0.0247  0.0341
 5287W        W 9351   8.562   6.934   0.311  0.0825  0.2934 -0.2527
 5288W        W 9352   5.738   0.661   9.365 -0.0866  0.2755 -0.2067
 5289W        W 9353   2.244   7.532   0.462  0.0226 -0.1193 -0.1833
 5290W        W 9354   6.991   7.979   3.299  0.1447 -0.0916  0.0376
 5291W        W 9355   4.409  10.159   7.199 -0.0011  0.0985  0.0283
 5292W        W 9356   3.841   0.500   0.003 -0.3755  0.0061  0.1795
 5293W        W 9357   0.744   3.865   1.247  0.0669 -0.2417 -0.1075
 5294W        W 9358   4.368   4.908   9.470  0.2418 -0.2179  0.2378
 5295W        W 9359   7.689   7.917   2.251 -0.0650 -0.0389  0.0193
 5296W        W 9360  10.644   3.474  10.556 -0.2184 -0.4966 -0.4408
 5297W        W 9361   2.113   6.744   3.852 -0.2339 -0.0299 -0.0538
 5298W        W 9362   7.764   5.061   1.788 -0.0885  0.1322  0.0124
 5299W        W 9363   2.298   6.994   0.129  0.1440  0.0719  0.1212
 5300W        W 9364   4.047   4.067   0.143 -0.2337 -0.2816  0.3534
 5301W        W 9365   5.053   7.007   3.755 -0.0567 -0.2495 -0.1099
 5302W        W 9366   8.104   1.402  10.182 -0.0028  0.0563 -0.4326
 5303W        W 9367   5.695   9.280   7.985 -0.2027 -0.1735 -0.3756
 5304W        W 9368  10.313   4.054   8.917 -0.3054  0.1001 -0.0500
 5305W        W 9369   8.752   2.621   1.028  0.3203 -0.0200 -0.1216
 5306W        W 9370   5.972   9.648   0.865 -0.1975 -0.1094  0.0744
 5307W        W 9371   5.662   2.320   8.183 -0.0430  0.1412 -0.1021
 5308W        W 9372   2.075   6.470   8.439  0.1275  0.0929 -0.0639
 5309W        W 9373   5.510   9.666   9.737  0.1836  0.0308 -0.1978
 5310W        W 9374   1.594   8.838   0.180  0.1915 -0.3537 -0.0436
 5311W        W 9375   1.824   1.774   1.490  0.1419 -0.1563  0.0787
 5312W        W 9376   8.262   6.549   3.055 -0.3371  0.4935  0.1277
 5313W        W 9377   5.053   9.138   8.631  0.0278 -0.0064  0.0965
 5314W        W 9378   9.585   6.774   0.631 -0.2101 -0.0450 -0.1372
 5315W        W 9379   1.164   7.284   0.603  0.0437 -0.2701  0.0452
 5316W        W 9380   9.023   5.573   8.153  0.2022  0.0274 -0.2487
 5317W        W 9381   6.893   2.265  10.791 -0.3026  0.0618  0.0985
 5318W        W 9382   0.431   9.160   6.959  0.1772 -0.2086  0.2999
 5319W        W 9383   5.677   3.633   0.628  0.0096 -0.2311 -0.0247
 5320W        W 9384   5.067   8.696   1.430 -0.0390  0.1094 -0.1121
 5321W        W 9385   9.689   7.321   0.522 -0.0339 -0.1586  0.0973
 5322W        W 9386   8.989   4.273   0.017  0.1519 -0.0570 -0.0704
 5323W        W 9387   1.494   6.681   9.167  0.0083  0.2909  0.2593
 5324W        W 9388   7.231   7.153   9.208 -0.1146 -0.3354 -0.0421
 5325W        W 9389   9.378   4.110   2.755 -0.0224  0.2907  0.0053
 5326W        W 9390  10.587  10.366  10.948  0.1111  0.1140 -0.0133
 5327W        W 9391   8.503   6.776   8.524 -0.0558  0.0499  0.2816
 5328W        W 9392   0.484   9.459   0.307 -0.0491 -0.1051  0.1689
 5329W        W 9393   7.497   7.531   7.460 -0.3581  0.0700 -0.2307
 5330W        W 9394   5.527   7.923   3.655 -0.2258  0.2735 -0.1796
 5331W        W 9395   4.764   1.654   0.752 -0.0420 -0.0812 -0.2561
 5332W        W 9396   8.682   2.039   9.753 -0.0786  0.0464  0.1377
 5333W        W 9397   2.009   8.278   9.607 -0.1061  0.1634  0.1579
 5334W        W 9398   0.080   4.104   9.279 -0.1516 -0.1428 -0.0853
 5335W        W 9399   0.783   8.006   8.826  0.0712 -0.4064  0.2071
 5336W        W 9400   8.081   3.799   9.747  0.0489 -0.1789 -0.2386
 5337W        W 9401   5.645   9.078   1.076  0.3506 -0.0142 -0.3277
 5338W        W 9402   1.245   6.144  10.990 -0.0825 -0.2338  0.1667
 5339W        W 9403   9.398   0.227   9.886 -0.1999  0.0848 -0.0419
 5340W        W 9404   7.674   3.882   0.796  0.1981 -0.1109 -0.1424
 5341W        W 9405   1.963   0.902   3.057 -0.0897 -0.0591 -0.2587
 5342W        W 9406   6.845   6.950  11.167  0.1640 -0.1929 -0.0210
 5343W        W 9407   1.598   8.141   3.743 -0.0205 -0.2420 -0.0701
 5344W        W 9408   1.240   0.733   2.700 -0.5371  0.0066 -0.1680
 5345W        W 9409   1.023   6.637   0.163 -0.3317 -0.0183  0.0653
 5346W        W 9410   0.885   4.346   2.117 -0.3555  0.1390  0.0196
 5347W        W 9411   7.844   2.587   8.720  0.0743  0.1458  0.0486
 5348W        W 9412   1.140   2.796   8.471 -0.1736  0.1401  0.0036
 5349W        W 9413   7.912   7.352   8.242  0.2100 -0.2072 -0.0462
 5350W        W 9414   4.693   4.796   1.689  0.1049  0.0650  0.1054
 5351W        W 9415   8.659   5.953   1.957 -0.1526 -0.2133  0.0396
 5352W        W 9416   7.156   3.420   9.153  0.0050  0.0072  0.1258
 5353W        W 9417   3.046   6.915   1.854 -0.0689 -0.1815 -0.0402
 5354W        W 9418   3.926   3.122  11.205 -0.0301 -0.0755 -0.2467
 5355W        W 9419   5.990   6.527   7.905  0.1937  0.0174  0.1191
 5356W        W 9420   5.437   2.441   1.589 -0.4297  0.0424  0.1414
 5357W        W 9421   2.926   7.807   7.546  0.2733  0.0970 -0.2213
 5358W        W 9422   4.578   9.921   1.949 -0.1810  0.1470  0.0279
 5359W        W 9423   3.157   0.169   3.137 -0.2252  0.0471 -0.0542
 5360W        W 9424  10.037   6.491   9.518  0.3822  0.0242 -0.3131
 5361W        W 9425   0.495   8.097   8.411  0.2527  0.1867 -0.0701
 5362W        W 9426   5.717   4.954   8.979  0.3962 -0.4074 -0.0654
 5363W        W 9427   4.296   4.049  10.201 -0.0761  0.1039  0.0716
 5364W        W 9428   7.643   8.505  10.198 -0.1406 -0.1180  0.1897
 5365W        W 9429   1.424   3.473   1.336 -0.1797  0.3301  0.2275
 5366W        W 9430   6.311   7.662   8.124  0.3750 -0.1777 -0.0607
 5367W        W 9431   0.458   5.454   2.045 -0.0049 -0.1093 -0.3468
 5368W        W 9432   3.942   3.605   9.596  0.1428  0.1021 -0.2449
 5369W        W 9433   3.019   9.399   3.251 -0.0015 -0.0308 -0.0628
 5370W        W 9434   5.400   2.490   0.626  0.2894 -0.1113  0.1349
 5371W        W 9435   8.001   8.551   1.873  0.2331  0.0297  0.0492
 5372W        W 9436   4.404   4.153   3.728  0.0458  0.4067 -0.0905
 5373W        W 9437   7.244   1.003   3.624 -0.0985  0.0306 -0.2595
 5374W        W 9438   0.050   1.417   2.940 -0.0925 -0.0566  0.2027
 5375W        W 9439   7.094   3.225   8.654 -0.0922  0.0309  0.2571
 5376W        W 9440   1.023   0.812   8.030  0.0856  0.1583  0.1607
 5377W        W 9441   7.530   5.631   7.785  0.0873  0.0352 -0.2486
 5378W        W 9442   5.726   0.603   1.723  0.0547  0.4305  0.0472
 5379W        W 9443   8.354   2.244   0.989  0.2878 -0.3970 -0.0771
 5380W        W 9444   2.231   9.867   0.812 -0.2519 -0.1764  0.1261
 5381W        W 9445   4.904   0.729   1.572 -0.0439 -0.0167  0.1299
 5382W        W 9446   1.701   6.341   3.323  0.2631  0.0229 -0.1742
 5383W        W 9447   0.417   0.220   7.564 -0.0884  0.1540 -0.1024
 5384W        W 9448   5.038   5.819   3.958 -0.0022  0.1199  0.1899
 5385W        W 9449   6.518   2.077  10.011  0.0637 -0.1388 -0.2714
 5386W        W 9450   2.720  10.214  10.234 -0.0901 -0.0617  0.1172
 5387W        W 9451   5.121   9.982   9.076  0.2161  0.0283 -0.2006
 5388W        W 9452   9.575   5.936   0.426 -0.0542  0.0025  0.1812
 5389W        W 9453   8.670   7.151  10.888 -0.2792  0.1486 -0.2704
 5390W        W 9454   8.197   9.133   9.647 -0.1128 -0.0415 -0.1949
 5391W        W 9455   3.581   7.243   3.914  0.0246  0.0131 -0.0581
 5392W        W 9456   0.076   0.075   0.657  0.0765  0.2682  0.4142
 5393W        W 9457   2.094   2.382   3.316 -0.2559  0.0636 -0.3684
 5394W        W 9458   8.529   6.439   3.516 -0.0152 -0.0741  0.2039
 5395W        W 9459   0.882   3.427   0.919 -0.1432 -0.0671  0.1523
 5396W        W 9460   9.076   4.243   0.878 -0.1637 -0.0309 -0.6099
 5397W        W 9461   7.540   5.686   1.384 -0.1252  0.2524  0.0113
 5398W        W 9462   6.013   7.985   7.780 -0.0624  0.0660  0.0081
 5399W        W 9463   1.068   1.909   0.159  0.0212 -0.2057  0.0733
 5400W        W 9464   9.089   7.790  10.459 -0.2864  0.0779  0.0642
 5401W        W 9465   5.604   3.450   2.375  0.4169  0.1394 -0.1785
 5402W        W 9466   6.282   1.135   8.877 -0.0219  0.0911  0.0221
 5403W        W 9467   2.786   6.717   2.595 -0.2258 -0.1220  0.0111
 5404W        W 9468   8.467   8.943  10.752 -0.0360 -0.2762 -0.0060
 5405W        W 9469   1.289   6.658   2.071 -0.1120 -0.1350  0.1092
 5406W        W 9470   2.535   6.245   1.195  0.1295 -0.2987 -0.0277
 5407W        W 9471   2.249   7.462   8.850 -0.5095 -0.1221 -0.0834
 5408W        W 9472   5.563   8.767  11.377  0.0181 -0.1199  0.0617
 5409W        W 9473   4.147   7.571   8.216 -0.0555 -0.1393  0.0372
 5410W        W 9474   6.797   9.606  10.869 -0.1942  0.1356 -0.0491
 5411W        W 9475   1.443   8.973   9.914 -0.0204 -0.1864 -0.1761
 5412W        W 9476   9.421   0.754   1.781  0.1271  0.1625  0.0102
 5413W        W 9477   4.811   1.742   2.854  0.2580  0.1216  0.1701
 5414W        W 9478   7.211   7.742   2.091 -0.1211  0.0718 -0.0080
 5415W        W 9479   2.869  10.557   9.765 -0.0287  0.5368 -0.1519
 5416W        W 9480   5.006   5.819   1.591  0.1223  0.2049 -0.1226
 5417W        W 9481   9.186   9.770   2.191  0.1139  0.2498 -0.0086
 5418W        W 9482  10.146   7.603  10.512  0.0124  0.3684 -0.1044
 5419W        W 9483   8.387   6.278  10.280  0.0937 -0.2620  0.3863
 5420W        W 9484   0.055   9.959   4.169  0.0318  0.1357 -0.1285
 5421W        W 9485   9.841   4.595   0.743 -0.1458 -0.0413  0.2233
 5422W        W 9486   8.569   6.534   1.494 -0.1908 -0.4106 -0.1711
 5423W        W 9487   3.373   3.339   2.625 -0.0432  0.0526 -0.0557
 5424W        W 9488   1.248   5.091   1.654  0.1511  0.0854 -0.0492
 5425W        W 9489   3.383   7.657   7.704 -0.0646 -0.0579  0.1740
 5426W        W 9490   1.943   2.235   2.906 -0.2619  0.2385  0.4738
 5427W        W 9491   0.477   5.646   0.585  0.1558 -0.1315  0.1925
 5428W        W 9492   5.429   6.038   3.713 -0.1314 -0.0161 -0.1966
 5429W        W 9493   7.504   5.496   3.572 -0.1971  0.2361 -0.2138
 5430W        W 9494   7.691   1.194   9.330  0.0027  0.3822 -0.0010
 5431W        W 9495   5.210   1.429  11.462  0.2040  0.5502  0.2051
 5432W        W 9496   8.814   9.215  11.074 -0.1291  0.1719 -0.1263
 5433W        W 9497   6.515   4.193  10.771 -0.1358 -0.0985  0.0888
 5434W        W 9498   5.906   7.215   3.216 -0.0112 -0.3815  0.0434
 5435W        W 9499   8.863   0.236   2.434  0.0417 -0.0710  0.0353
 5436W        W 9500   7.804   8.211   3.638 -0.4047  0.0229 -0.2540
 5437W        W 9501   8.871   1.284   0.785  0.0517  0.2372 -0.0667
 5438W        W 9502   8.025   1.662   2.492  0.0998  0.1450  0.1249
 5439W        W 9503   7.098   7.966   8.334  0.3070 -0.0436 -0.0073
 5440W        W 9504   3.745   5.996  11.419  0.1649  0.2860 -0.1210
 5441W        W 9505   6.678   2.022   0.227 -0.3420 -0.1294  0.0195
 5442W        W 9506   0.654   4.050   9.330  0.2305 -0.1438 -0.1958
 5443W        W 9507   7.761   1.653   9.342  0.3095 -0.3419 -0.3044
 5444W        W 9508   2.802   9.389   0.030 -0.0720  0.2487 -0.2889
 5445W        W 9509   6.625   1.546   0.362  0.2081 -0.1946  0.0455
 5446W        W 9510   5.692   4.319   2.201 -0.0100  0.3046  0.0139
 5447W        W 9511  10.269   8.018   0.906  0.3104 -0.1943  0.1375
 5448W        W 9512   3.932   7.284   8.525 -0.1862  0.2623 -0.0162
 5449W        W 9513   7.136   8.444   8.516 -0.0011  0.1708  0.3893
 5450W        W 9514   4.421   5.259   1.478 -0.3749 -0.1319  0.2487
 5451W        W 9515   8.764   1.597  11.500  0.0706 -0.0779 -0.0092
 5452W        W 9516   9.091   4.236   9.062 -0.0870 -0.0023  0.0777
 5453W        W 9517   8.536  10.621   1.811  0.1205  0.0718 -0.2986
 5454W        W 9518   7.322   2.871   1.979  0.1138  0.0330 -0.1615
 5455W        W 9519   8.994   8.642   8.899 -0.1074 -0.0431 -0.1427
 5456W        W 9520   9.077   4.772  10.278 -0.0899  0.0389  0.1950
 5457W        W 9521   4.697   9.448   0.890  0.2045 -0.0759  0.0841
 5458W        W 9522   0.184   6.510   1.164  0.2701 -0.0058 -0.1300
 5459W        W 9523   5.279   6.146   7.716  0.0067 -0.0276 -0.0207
 5460W        W 9524   5.235   8.314   9.088  0.0110  0.0911  0.4789
 5461W        W 9525   2.978   4.183   3.027  0.0791  0.3906  0.0805
 5462W        W 9526   8.519   1.208   3.786 -0.0549  0.0319  0.0587
 5463W        W 9527  10.040   1.292  10.635  0.1152  0.0006  0.0976
 5464W        W 9528   1.700   3.089   0.613 -0.1276  0.1092  0.0269
 5465W        W 9529   5.236   1.899   8.161  0.2267  0.0539  0.0929
 5466W        W 9530   4.539   6.629   2.862  0.2315  0.3849 -0.0113
 5467W        W 9531   4.733   2.554   8.229 -0.3429 -0.0527 -0.1146
 5468W        W 9532   3.163   1.321   9.808 -0.1188 -0.0869  0.0165
 5469W        W 9533   9.154   0.696   8.033 -0.1397  0.1976  0.3652
 5470W        W 9534   5.733   4.109   8.559 -0.2529 -0.1200 -0.2296
 5471W        W 9535   3.331   3.644   1.839  0.0978 -0.1671  0.1559
 5472W        W 9536   7.624   3.542  10.491 -0.0352 -0.1090  0.1190
 5473W        W 9537   7.830   4.241   9.564  0.0975 -0.1656 -0.0972
 5474W        W 9538   4.855   4.660  10.096  0.0830 -0.2049  0.0731
 5475W        W 9539   2.724   8.091   0.330 -0.1857  0.1772 -0.2543
 5476W        W 9540   1.440   5.605   3.674  0.2166 -0.0727  0.2545
 5477W        W 9541  10.534   7.515   0.258  0.1623 -0.1614 -0.1342
 5478W        W 9542   2.717   8.373  10.024 -0.1566  0.2368 -0.2322
 5479W        W 9543   6.061   1.946   9.086  0.4129 -0.0324 -0.1840
 5480W        W 9544  10.374   4.414   8.257 -0.2003  0.3855  0.1736
 5481W        W 9545  10.572   1.230   9.763 -0.2761 -0.0550  0.0835
 5482W        W 9546   5.549   2.696   8.533  0.3727 -0.1162 -0.1983
 5483W        W 9547   7.356   9.152   2.101 -0.1829  0.0686  0.0396
 5484W        W 9548   9.125   0.292  10.902 -0.1882 -0.1601  0.4646
 5485W        W 9549   6.034   4.090  11.496  0.0933  0.1202  0.0068
 5486W        W 9550   9.965   6.516   0.964 -0.0662 -0.0027  0.1571
 5487W        W 9551   5.202   5.127   3.044 -0.2200  0.0251 -0.0174
 5488W        W 9552   5.734   1.364   0.104  0.1434 -0.1469  0.3147
 5489W        W 9553   5.809   4.989  10.660 -0.0527  0.0687 -0.2012
 5490W        W 9554   5.571   8.363   2.211  0.0774  0.0047  0.1806
 5491W        W 9555   0.700   6.876  10.914 -0.0401  0.0000 -0.3007
 5492W        W 9556   9.171   0.295  10.306  0.3542  0.0954 -0.1557
 5493W        W 9557   8.971   3.077   0.658 -0.1272 -0.3131 -0.3612
 5494W        W 9558   8.646   6.039   3.837  0.0791 -0.1158 -0.1417
 5495W        W 9559   2.033   2.908  11.241  0.1262  0.4345  0.1580
 5496W        W 9560   5.406   9.321   1.514 -0.1143  0.1352 -0.1925
 5497W        W 9561   0.939   6.849   2.935  0.3043 -0.0885  0.2297
 5498W        W 9562   3.555   8.007  10.489  0.3017 -0.0797 -0.1515
 5499W        W 9563   4.299   2.328   8.490 -0.0123  0.1129  0.1936
 5500W        W 9564   7.722   5.824  11.003  0.1292 -0.2590 -0.1021
 5501W        W 9565  10.413   9.493   9.137  0.3252 -0.2663 -0.3521
 5502W        W 9566   6.770   8.055   8.780  0.2284 -0.2508 -0.0776
 5503W        W 9567   6.819  10.640   1.338 -0.0287  0.2758 -0.2163
 5504W        W 9568  10.083   8.178   1.961 -0.1338 -0.0343  0.0900
 5505W        W 9569   0.213   4.525   0.740  0.0724 -0.3872 -0.2042
 5506W        W 9570   7.660   0.497   2.950 -0.3292  0.0175 -0.3174
 5507W        W 9571   9.666   4.886   0.354  0.1060  0.1244  0.0276
 5508W        W 9572   1.485   0.409   3.299 -0.5381  0.2219  0.1828
 5509W        W 9573   8.747  10.487   7.927 -0.0940  0.0043 -0.4105
 5510W        W 9574   3.383   2.558   4.177  0.2298 -0.1075 -0.2918
 5511W        W 9575   0.595   6.455   0.939 -0.0941 -0.5002  0.4914
 5512W        W 9576   5.636   2.807   4.103 -0.0641  0.2496  0.2465
 5513W        W 9577   2.529   0.487  10.931 -0.2372 -0.0460  0.0596
 5514W        W 9578   9.773   0.421   3.842 -0.2477  0.0156  0.1705
 5515W        W 9579   0.087   8.104   0.535  0.0030  0.1159 -0.0279
 5516W        W 9580   6.277   1.488   9.312 -0.3275  0.2714 -0.0520
 5517W        W 9581   4.926   5.138  10.029  0.0512 -0.3187  0.2813
 5518W        W 9582   1.419   6.918   2.627  0.1136 -0.0469  0.0806
 5519W        W 9583   3.645   2.535  10.060  0.0086  0.3736  0.1431
 5520W        W 9584   7.549   8.606   8.134  0.0625  0.0848 -0.0024
 5521W        W 9585   0.053   2.186   2.405 -0.0747 -0.0236  0.0544
 5522W        W 9586   1.997   8.302  10.829 -0.0597  0.2525  0.2281
 5523W        W 9587   4.378   1.726  10.915  0.0017 -0.1211 -0.0436
 5524W        W 9588   0.782  10.411   9.776  0.0956 -0.0338 -0.0129
 5525W        W 9589   0.223   6.852   9.384 -0.1923 -0.1971 -0.0348
 5526W        W 9590   1.785   5.905   3.563  0.0443 -0.0361 -0.2634
 5527W        W 9591   0.155   2.892   1.118  0.0943  0.0428 -0.4389
 5528W        W 9592   4.184   8.510  10.735  0.0457 -0.1535  0.1917
 5529W        W 9593   3.980   4.804  10.504 -0.0465  0.0510 -0.1493
 5530W        W 9594   0.244  10.046   1.553 -0.0728  0.2791 -0.2510
 5531W        W 9595   2.542   0.709   3.312 -0.0436 -0.0037  0.1072
 5532W        W 9596   5.431   3.134  10.095 -0.0708 -0.1328  0.0573
 5533W        W 9597   0.936   2.099   2.933 -0.0357 -0.0158  0.0604
 5534W        W 9598   5.981   9.890  11.186  0.1215 -0.0570  0.0477
 5535W        W 9599   4.919   0.521   9.133 -0.0863  0.0767 -0.3176
 5536W        W 9600   5.943   7.152   4.043  0.6305  0.0230 -0.3338
 5537W        W 9601   7.446   1.246   1.966  0.0940 -0.0266 -0.1167
 5538W        W 9602   6.180   6.505   4.018 -0.1298  0.1012  0.0732
 5539W        W 9603   3.596   1.933   0.032  0.0443  0.0851  0.2393
 5540W        W 9604   2.669   0.262   3.049  0.0371 -0.0028 -0.0575
 5541W        W 9605   6.443   2.110   8.792 -0.0354 -0.1126  0.0271
 5542W        W 9606   8.711   7.120  10.090  0.2011 -0.2561 -0.3943
 5543W        W 9607   2.431   5.752   2.861 -0.1510 -0.1248  0.1869
 5544W        W 9608   7.955   1.809  11.103  0.3189  0.1128 -0.1844
 5545W        W 9609   7.705   4.398   2.216  0.1599  0.0673  0.0371
 5546W        W 9610   0.325   1.965   8.251 -0.2903 -0.0426 -0.0856
 5547W        W 9611   3.959   5.624   7.374 -0.0270  0.0784  0.0502
 5548W        W 9612   2.871   1.129  11.064 -0.0017 -0.0444  0.1009
 5549W        W 9613   3.406   2.521   3.212  0.2005 -0.0885  0.0179
 5550W        W 9614   9.458   9.225   2.504  0.1429 -0.2146  0.1562
 5551W        W 9615  10.110   3.368   2.926  0.1192 -0.0480  0.0217
 5552W        W 9616   9.749   5.517   2.563 -0.1058  0.0175 -0.1361
 5553W        W 9617   6.766   5.729   1.051  0.1319  0.0474 -0.1385
 5554W        W 9618   1.141   5.992   9.862  0.1530 -0.0939  0.1397
 5555W        W 9619   9.856   3.762   1.015 -0.0465 -0.0360 -0.1495
 5556W        W 9620   7.229   7.604  10.963 -0.0465  0.0666  0.2069
 5557W        W 9621   5.209   9.241   2.315 -0.2168  0.0070 -0.2663
 5558W        W 9622   8.914   5.426   0.956  0.0090 -0.3172 -0.0990
 5559W        W 9623   7.110   6.847   0.656 -0.1416  0.1413  0.1671
 5560W        W 9624   8.849   9.881   8.146  0.0121  0.2839  0.2552
 5561W        W 9625   4.264   6.577   0.406 -0.0199  0.1667 -0.0388
 5562W        W 9626   6.435   6.808   1.349  0.1160  0.0753 -0.0113
 5563W        W 9627   7.702   1.480  10.627  0.0415 -0.2025  0.1377
 5564W        W 9628   0.765   4.491   8.101 -0.3466 -0.4324  0.0956
 5565W        W 9629   7.188   8.952   1.237  0.1408  0.0179  0.2183
 5566W        W 9630   9.540   2.835   0.673  0.0156 -0.0387  0.0936
 5567W        W 9631   7.258   3.345   4.071 -0.1267  0.2022  0.0361
 5568W        W 9632   2.688   0.064  10.184 -0.1133 -0.1568 -0.1082
 5569W        W 9633   6.753   3.008  11.328 -0.1993  0.1349  0.0886
 5570W        W 9634   5.726   7.005   1.693  0.1474  0.1346  0.1359
 5571W        W 9635   9.922   1.441   9.768  0.1638 -0.1532  0.1261
 5572W        W 9636   8.156   3.462   9.448 -0.1019  0.2548 -0.1607
 5573W        W 9637   8.592  10.496   9.057  0.2152 -0.0756  0.2803
 5574W        W 9638   3.645  10.254   2.731 -0.1260  0.0502 -0.1145
 5575W        W 9639   3.578  10.373  11.167 -0.0572  0.1327 -0.0596
 5576W        W 9640   9.412   2.340  10.530  0.1303  0.0439 -0.0705
 5577W        W 9641   7.735   9.611   7.788  0.0133 -0.0284 -0.4112
 5578W        W 9642   6.429   9.885   0.058  0.0512  0.3090  0.1098
 5579W        W 9643   9.411   7.449   0.122 -0.2942  0.2590 -0.3306
 5580W        W 9644   5.507   0.180   1.403  0.0565 -0.0297  0.4825
 5581W        W 9645   9.633  10.204   8.263  0.2161 -0.0462  0.1672
 5582W        W 9646   1.702   0.469   1.404  0.0260  0.2143  0.0835
 5583W        W 9647   9.969   9.138   2.374  0.0735  0.1197  0.0633
 5584W        W 9648   6.546   9.273   3.331 -0.0019  0.1267  0.1292
 5585W        W 9649   3.018   6.382   1.095  0.1433  0.0002 -0.0909
 5586W        W 9650   8.323  10.262   1.515  0.0105 -0.0023 -0.0500
 5587W        W 9651   7.098   7.488   7.077  0.0155 -0.1921  0.3105
 5588W        W 9652  10.370   0.418   0.783  0.2415 -0.3599  0.0356
 5589W        W 9653   4.084  10.554   1.148 -0.0661 -0.0030  0.0411
 5590W        W 9654   1.938   9.681   1.617  0.1683 -0.1096  0.0796
 5591W        W 9655   8.563   0.395   2.056 -0.2452  0.2084 -0.0780
 5592W        W 9656   5.620   1.462   0.615  0.1571 -0.4335 -0.2112
 5593W        W 9657   8.938   3.442   0.994 -0.0489 -0.0616 -0.0252
 5594W        W 9658   7.489   2.833   3.952 -0.0018 -0.0617 -0.0074
 5595W        W 9659   8.617   9.320   3.540 -0.0366 -0.3198 -0.2536
 5596W        W 9660   1.543   4.777   1.412 -0.2827  0.0727  0.2243
 5597W        W 9661   7.433   1.559   7.129 -0.3107 -0.5562 -0.1344
 5598W        W 9662   7.293   2.563   8.855  0.1892 -0.0853 -0.2248
 5599W        W 9663   6.515   2.685   8.733 -0.1651 -0.0499 -0.0009
 5600W        W 9664   1.823   8.096  10.115 -0.1671  0.0308  0.1081
 5601W        W 9665   3.771   7.078   9.448  0.4574  0.0199 -0.0388
 5602W        W 9666   1.396   3.427  10.991 -0.0984  0.0035  0.2127
 5603W        W 9667   0.508   9.843   3.253  0.1125  0.1265 -0.2685
 5604W        W 9668   1.788  10.630  10.485 -0.1232  0.0359 -0.0173
 5605W        W 9669   7.412   9.911   9.216 -0.1407 -0.1658  0.1503
 5606W        W 9670   5.173   4.766   8.648  0.0354 -0.0824  0.1325
 5607W        W 9671   3.187   1.209  11.460  0.0640 -0.1594  0.3427
 5608W        W 9672   3.597  10.376  10.475 -0.0384 -0.0384 -0.3097
 5609W        W 9673   5.108   4.518   7.390 -0.1236  0.0647  0.1402
 5610W        W 9674   2.481   0.845   9.567  0.2499 -0.0972  0.3044
 5611W        W 9675  10.204   0.756   2.058 -0.0210  0.3459  0.1176
 5612W        W 9676   2.975  10.170  11.058 -0.0078  0.1774 -0.0952
 5613W        W 9677   2.098   6.873   1.408  0.0418 -0.1808  0.1556
 5614W        W 9678   6.320   8.346   7.872  0.1298 -0.0379  0.0401
 5615W        W 9679  10.334   5.863  10.881  0.1569 -0.3653  0.2219
 5616W        W 9680   1.997   4.196   1.189 -0.2885 -0.1397 -0.1257
 5617W        W 9681   4.788   4.159  11.113  0.0188  0.0112 -0.3931
 5618W        W 9682   8.875   1.850   4.388  0.0866  0.1558 -0.3463
 5619W        W 9683  10.059   7.066  10.605 -0.1501 -0.2407  0.1149
 5620W        W 9684   1.438  10.336   8.602 -0.1395  0.1439  0.2235
 5621W        W 9685   8.577   4.337   1.720  0.3535  0.0893 -0.0091
 5622W        W 9686   2.348   8.547   0.571  0.3445 -0.2944 -0.1684
 5623W        W 9687   1.800   8.395   9.143 -0.1489 -0.0474 -0.2427
 5624W        W 9688   9.470   5.329   0.165 -0.1123 -0.0766 -0.0533
 5625W        W 9689   5.290   3.143  11.400 -0.1153  0.1771  0.2657
 5626W        W 9690   0.161   9.246   8.294 -0.3283  0.0842  0.0052
 5627W        W 9691   8.632   7.398   9.664  0.3072 -0.0672  0.3207
 5628W        W 9692   0.610   3.385   1.924 -0.1579 -0.0405  0.3074
 5629W        W 9693   0.216   8.619   2.184 -0.0089 -0.1307  0.3586
 5630W        W 9694   8.929  10.240   8.905  0.3325  0.1097  0.2159
 5631W        W 9695   5.772   0.419   0.906 -0.1077 -0.0522  0.1710
 5632W        W 9696   9.279  10.552   9.116  0.0597  0.1792 -0.1731
 5633W        W 9697   5.648   6.242   8.066 -0.0914 -0.2194  0.1324
 5634W        W 9698   3.909   7.379   7.682 -0.1985 -0.1072  0.1843
 5635W        W 9699   8.288   5.100   7.771  0.2911  0.3806 -0.1570
 5636W        W 9700   2.099   2.248  10.486 -0.1093  0.0777 -0.0442
 5637W        W 9701   0.743   8.111   1.171 -0.0810 -0.0859  0.1444
 5638W        W 9702   9.990   2.919   3.197  0.0097 -0.1067 -0.0744
 5639W        W 9703   4.418   5.900   9.792 -0.1398 -0.0862 -0.1041
 5640W        W 9704   9.938   8.600   2.204  0.0490  0.1496  0.1988
 5641W        W 9705   6.277   5.585   7.875  0.1575 -0.3946 -0.0371
 5642W        W 9706  10.549   6.715  10.203 -0.2222 -0.0931  0.0816
 5643W        W 9707   0.757   2.302   0.049  0.0132  0.0258 -0.4018
 5644W        W 9708   8.303   1.323  11.460 -0.2176  0.1696  0.1524
 5645W        W 9709   9.067   8.907   1.946  0.0888  0.2457 -0.0159
 5646W        W 9710   6.758   2.778   1.873 -0.0065 -0.3243  0.0892
 5647W        W 9711   3.901   1.486  10.285 -0.2276 -0.0195  0.2354
 5648W        W 9712   3.675   7.715   1.137 -0.2668  0.0685 -0.1097
 5649W        W 9713   9.819   3.415   9.948 -0.1370 -0.0948  0.0018
 5650W        W 9714   8.930   7.471   8.954 -0.0478 -0.0224  0.2463
 5651W        W 9715   2.316   9.891   9.942  0.0369  0.0908  0.2220
 5652W        W 9716  10.648   5.864   0.490 -0.0472  0.0195 -0.4442
 5653W        W 9717   4.076   2.159  10.964  0.4948  0.1868  0.2084
 5654W        W 9718   4.866   0.423  11.522  0.2261 -0.1519 -0.0270
 5655W        W 9719   9.601   5.023   8.060  0.0347 -0.2677  0.3794
 5656W        W 9720   1.632   4.416   0.238 -0.3495 -0.1841 -0.0831
 5657W        W 9721   5.191   8.571   7.780 -0.3049 -0.2173 -0.0293
 5658W        W 9722   5.178   4.705   2.833 -0.0593  0.2736 -0.0184
 5659W        W 9723   5.590   2.653   9.811  0.2438  0.0280 -0.0377
 5660W        W 9724   5.838   2.511   2.392  0.1501 -0.3318 -0.1847
 5661W        W 9725   2.684   9.736   8.440  0.0092  0.3763  0.0198
 5662W        W 9726   3.822   8.483   2.192 -0.0459 -0.0266  0.1027
 5663W        W 9727   7.159   0.725   4.171  0.2509 -0.1073 -0.0392
 5664W        W 9728   5.225   1.333   2.763 -0.1975  0.2772  0.0558
 5665W        W 9729  10.017   6.759  10.205 -0.1132  0.1695 -0.4744
 5666W        W 9730   8.916   7.290   1.964 -0.2494 -0.3014 -0.2610
 5667W        W 9731   8.815  10.285   8.438  0.3272  0.0770 -0.1583
 5668W        W 9732   8.900   7.295   3.029 -0.2011  0.1833  0.0745
 5669W        W 9733   8.322   8.491  10.904 -0.0901 -0.2703  0.4247
 5670W        W 9734   0.177  10.004  10.362 -0.2140 -0.1691  0.2322
 5671W        W 9735   9.931   3.031   1.725 -0.1979  0.1235  0.1730
 5672W        W 9736  10.418   8.901   1.953  0.2978 -0.1189  0.1211
 5673W        W 9737   6.611   1.629   9.691  0.1225 -0.0233  0.0173
 5674W        W 9738   8.203   3.606   2.513  0.1101  0.1451  0.2105
 5675W        W 9739   9.774   9.209   1.043  0.2485  0.1182  0.2130
 5676W        W 9740   6.174   2.473   1.727 -0.1657  0.2246  0.0206
 5677W        W 9741   3.856   9.359   0.177 -0.1288  0.1907 -0.1655
 5678W        W 9742   7.167   4.538   2.671 -0.1485  0.1219 -0.1536
 5679W        W 9743   5.271  10.283   9.923 -0.0115  0.2439  0.0717
 5680W        W 9744   6.124   6.859  11.081 -0.0004  0.0333 -0.1614
 5681W        W 9745   6.718   9.714   1.693  0.1993  0.1590 -0.2028
 5682W        W 9746   6.321   7.697   1.993  0.2373 -0.1172 -0.1721
 5683W        W 9747   8.865   8.598   0.793 -0.0276 -0.0085 -0.3731
 5684W        W 9748   3.564   3.408   0.864  0.0947 -0.0719 -0.1235
 5685W        W 9749  10.628   8.901   8.002  0.0857 -0.1092  0.0968
 5686W        W 9750   4.840   4.938   9.555 -0.2936 -0.2172 -0.1498
 5687W        W 9751   4.369   6.840   3.411  0.1140  0.1517 -0.1456
 5688W        W 9752   2.048   2.304  11.492 -0.3196  0.2276  0.2329
 5689W        W 9753   8.012   7.858   8.282 -0.0830  0.1771  0.1145
 5690W        W 9754   4.630  10.649   0.126 -0.2582  0.4852 -0.2493
 5691W        W 9755   6.962   1.553  11.538  0.0222  0.1467 -0.1196
 5692W        W 9756   0.267   1.518   0.133 -0.0932 -0.2187 -0.0954
 5693W        W 9757   3.223   8.669   1.517 -0.0428  0.2549  0.0618
 5694W        W 9758   2.938  10.116   3.765  0.2082  0.1073  0.2292
 5695W        W 9759   6.259   7.543   9.430 -0.0107 -0.1778 -0.2762
 5696W        W 9760   8.692   8.142   3.182 -0.0465 -0.0853 -0.2148
 5697W        W 9761   4.100   7.527   1.512  0.0018 -0.0130 -0.4914
 5698W        W 9762   3.446   6.710   9.278  0.2659 -0.0495  0.2359
 5699W        W 9763   0.890   4.959   0.488  0.1065  0.0229 -0.1456
 5700W        W 9764   4.181   0.630   2.327 -0.3323 -0.2293  0.0630
 5701W        W 9765   7.169   5.982   1.198  0.3693  0.1078 -0.1996
 5702W        W 9766   5.384   2.184   9.509 -0.0052 -0.0606  0.1268
 5703W        W 9767   0.714   8.833   2.286 -0.1580  0.2463 -0.6434
 5704W        W 9768   9.736   8.562   0.948 -0.0033  0.1152 -0.2733
 5705W        W 9769   7.872   5.148   8.647 -0.1793  0.2104  0.0719
 5706W        W 9770  10.362   8.341  10.130  0.0050  0.0606  0.0850
 5707W        W 9771   1.832   2.948   2.146  0.0216 -0.0029  0.1523
 5708W        W 9772   2.076   4.203   0.250  0.0355  0.0210  0.1309
 5709W        W 9773   8.513   1.814   9.189 -0.1816  0.3304  0.0934
 5710W        W 9774   2.852   9.054   3.673  0.1439 -0.1541 -0.0046
 5711W        W 9775   2.198   6.681   1.974 -0.0175 -0.1711 -0.2163
 5712W        W 9776   4.503   9.721   7.942  0.0354 -0.0551  0.1075
 5713W        W 9777   3.307   5.608   0.554  0.0519  0.1884 -0.2187
 5714W        W 9778   8.083   8.705   0.245  0.0911  0.1758 -0.2635
 5715W        W 9779   2.194   7.940   9.074 -0.1881 -0.2161  0.3574
 5716W        W 9780   9.357   1.271  10.238  0.1068 -0.0891  0.3173
 5717W        W 9781   7.264   1.476   8.007  0.0241 -0.1832  0.0480
 5718W        W 9782   6.965   6.457   9.975  0.2719  0.0632 -0.0944
 5719W        W 9783   7.985   6.339   3.771 -0.1361  0.0225  0.1359
 5720W        W 9784   2.254   5.256   9.107  0.1383 -0.0863  0.0890
 5721W        W 9785   9.114   3.053   3.364  0.0088 -0.1346  0.0959
 5722W        W 9786   5.903   5.538   1.436  0.3390 -0.1283  0.1594
 5723W        W 9787   4.235   5.274   2.134  0.1306 -0.0623 -0.0132
 5724W        W 9788   7.582   0.910   1.022  0.0856  0.2770  0.2175
 5725W        W 9789  10.583   3.661   8.766  0.1696 -0.2057 -0.1954
 5726W        W 9790   0.635   7.913   3.386  0.0141 -0.1941  0.0418
 5727W        W 9791   0.280   0.358   2.507  0.3087 -0.0331 -0.0498
 5728W        W 9792   6.385  10.246   3.063 -0.2560 -0.1481  0.3416
 5729W        W 9793   7.699   0.024   2.212  0.2130  0.4180 -0.2192
 5730W        W 9794   7.906   8.111  11.056 -0.2686 -0.2997  0.0889
 5731W        W 9795  10.297   3.804   1.991 -0.1717 -0.1241  0.0830
 5732W        W 9796   9.500   2.778   3.085  0.0904 -0.0897 -0.2920
 5733W        W 9797   1.635   4.652  11.104  0.0464  0.1017  0.3112
 5734W        W 9798   5.365   8.849   9.571  0.3416  0.1702 -0.0302
 5735W        W 9799   1.654   4.508   8.393  0.0320 -0.1386  0.0495
 5736W        W 9800  10.244   6.364   9.988 -0.2494  0.1280 -0.4709
 5737W        W 9801   4.915   4.504   3.836  0.1038 -0.0461 -0.1717
 5738W        W 9802   6.718   7.314   9.261 -0.1453  0.2884 -0.1042
 5739W        W 9803   4.659  10.523   2.862  0.1563  0.3376  0.2389
 5740W        W 9804   3.846   7.354   3.045  0.0241 -0.1474 -0.1197
 5741W        W 9805   2.167   3.836   3.084 -0.3144  0.0027  0.0753
 5742W        W 9806   0.290   2.136   0.656 -0.1600 -0.1317 -0.0523
 5743W        W 9807   8.667   8.654   1.670  0.1561  0.1459 -0.2762
 5744W        W 9808   4.474   2.330   9.022 -0.0725  0.1912 -0.1496
 5745W        W 9809   9.468   5.894   2.421 -0.1754 -0.0959 -0.1647
 5746W        W 9810   4.153   3.245   4.106 -0.2253 -0.3158 -0.0456
 5747W        W 9811  10.141   9.066   2.868 -0.1899 -0.0169 -0.1516
 5748W        W 9812   0.321   5.220  11.341  0.0372  0.5407 -0.1375
 5749W        W 9813   2.484   5.109   8.600 -0.1396 -0.1828  0.0462
 5750W        W 9814   1.041   9.257   0.288 -0.0665 -0.2052  0.3771
 5751W        W 9815   8.202   1.445   4.117 -0.0900  0.1337  0.0048
 5752W        W 9816   8.706   2.370   2.056  0.1479  0.1273  0.2781
 5753W        W 9817   0.560  10.236   8.091 -0.0203  0.0505  0.0274
 5754W        W 9818   5.975   1.654   1.507 -0.3742  0.2989 -0.0644
 5755W        W 9819   7.720   3.323   3.982  0.0084  0.2766  0.0312
 5756W        W 9820   8.371   2.951   2.325 -0.1006 -0.3358  0.3206
 5757W        W 9821   0.816   5.973   0.845  0.0114 -0.0506 -0.2236
 5758W        W 9822   6.296   6.852   8.649 -0.0832 -0.1386  0.1099
 5759W        W 9823   4.332   1.110  10.025  0.0444  0.1010 -0.3713
 5760W        W 9824   4.241   4.533   9.125 -0.0305  0.1542  0.0850
 5761W        W 9825   6.641   2.777   2.748  0.0222 -0.0287 -0.0470
 5762W        W 9826   0.380   2.210   2.788 -0.1090  0.0423  0.0069
 5763W        W 9827   4.255   7.042   1.458  0.0014 -0.0230  0.1307
 5764W        W 9828  10.027   7.448  10.938  0.1157  0.2605 -0.0003
 5765W        W 9829   8.615   2.560   9.785  0.2996 -0.1993  0.3731
 5766W        W 9830   2.082   3.742   9.906 -0.0702 -0.2511 -0.0721
 5767W        W 9831   7.215   2.206  11.141 -0.0464 -0.2196 -0.0936
 5768W        W 9832   7.819   8.593   8.641 -0.0742  0.1406 -0.1166
 5769W        W 9833   3.774   5.878   3.508  0.1796  0.2428  0.4231
 5770W        W 9834   9.282   1.888   2.977 -0.1215 -0.1965 -0.1315
 5771W        W 9835   4.486   8.986   9.844 -0.0945  0.3052 -0.0432
 5772W        W 9836   2.704  10.530  10.729  0.1228 -0.2778 -0.2328
 5773W        W 9837   8.643   6.148   7.988 -0.0805 -0.2396 -0.0654
 5774W        W 9838   2.101   3.838  11.299 -0.2193  0.1055  0.0273
 5775W        W 9839   2.314   0.427   1.174  0.3382  0.0769 -0.0180
 5776W        W 9840   8.471   3.347   0.075 -0.2489 -0.4109 -0.0496
 5777W        W 9841   9.564   4.205   0.792 -0.0713  0.0557  0.1695
 5778W        W 9842   1.551   2.260   1.274 -0.1049  0.0197  0.2048
 5779W        W 9843   7.678   5.269   3.140  0.2117  0.3739 -0.0174
 5780W        W 9844   3.474   3.846   9.783  0.2194  0.0722  0.3085
 5781W        W 9845   6.372   6.079  11.046  0.3141 -0.0709  0.0246
 5782W        W 9846   2.991   3.827   7.638  0.0104 -0.0597 -0.0601
 5783W        W 9847   9.500   6.401   9.410  0.1084 -0.0464  0.1994
 5784W        W 9848   6.802   5.379  10.883 -0.0339 -0.0208  0.0450
 5785W        W 9849   2.695   8.676   8.021  0.1635  0.1590 -0.1641
 5786W        W 9850  10.206   5.782   0.784  0.0304 -0.0691 -0.1760
 5787W        W 9851   4.899   8.449   0.491 -0.3758  0.3327 -0.0890
 5788W        W 9852   6.075   5.937  10.147  0.1450  0.2804 -0.0573
 5789W        W 9853   8.404   3.131   9.149 -0.2678  0.2372  0.3040
 5790W        W 9854   9.245  10.070   7.956  0.2097 -0.0779  0.3060
 5791W        W 9855   6.778   5.462   7.615 -0.1507 -0.1464  0.2233
 5792W        W 9856   2.350   0.957   2.058  0.0758 -0.2742  0.0639
 5793W        W 9857   5.864   3.733   8.282  0.1477 -0.4053  0.0518
 5794W        W 9858   4.225   0.874  10.681  0.0301 -0.0845  0.0383
 5795W        W 9859   6.442   7.235  11.312 -0.1782  0.1458  0.1090
 5796W        W 9860   6.508   6.466   8.906 -0.2427  0.0830  0.2685
 5797W        W 9861   1.614   7.502   0.635 -0.0684 -0.0046  0.0009
 5798W        W 9862   7.489   9.708   8.169  0.0733  0.0239 -0.0782
 5799W        W 9863   6.665   8.149   4.277 -0.1072 -0.0977 -0.3367
 5800W        W 9864   4.095   0.330   0.843  0.0145 -0.0491  0.2773
 5801W        W 9865   5.369   0.891   9.604 -0.1615  0.0549  0.3039
 5802W        W 9866   0.882   3.275   9.855  0.0650 -0.1563  0.0891
 5803W        W 9867   8.354   5.507   0.583 -0.1997  0.0767 -0.0515
 5804W        W 9868   6.619   5.830   2.118  0.1055 -0.0209  0.1815
 5805W        W 9869   0.255   9.307   9.177 -0.0048 -0.2440  0.0913
 5806W        W 9870  10.560   5.507   1.430  0.3377  0.3587  0.0174
 5807W        W 9871   6.292   0.849  10.136  0.3090  0.0917 -0.1889
 5808W        W 9872   2.513   6.318   7.482 -0.2342  0.2532 -0.4339
 5809W        W 9873   2.942   4.897   7.870 -0.1027  0.1068 -0.1853
 5810W        W 9874   8.713   3.754   2.303 -0.1633 -0.2672 -0.1486
 5811W        W 9875   6.741   5.468   8.520 -0.0310 -0.2959 -0.1680
 5812W        W 9876   9.531   1.157   2.989 -0.0991  0.2458 -0.1042
 5813W        W 9877   5.367   2.187  10.036  0.1776 -0.1326  0.0635
 5814W        W 9878   7.857   0.505   1.153  0.1200  0.1378  0.2921
 5815W        W 9879   5.669   9.471   3.673  0.0215  0.2252 -0.1467
 5816W        W 9880   9.965   5.953   2.439 -0.0239  0.0859  0.0476
 5817W        W 9881   1.329   1.300  10.647  0.0662 -0.0580 -0.0827
 5818W        W 9882   1.483   1.084   8.248  0.0822  0.0210  0.0009
 5819W        W 9883   6.351   3.361  11.071  0.0410  0.0173  0.2371
 5820W        W 9884   3.391   8.578   1.983 -0.1051 -0.1676 -0.1354
 5821W        W 9885   4.603   2.584  10.018 -0.0410 -0.0486  0.0672
 5822W        W 9886   2.726   6.621  10.863 -0.0117 -0.1044 -0.0190
 5823W        W 9887   2.370   1.381   0.105  0.2706  0.2668 -0.1136
 5824W        W 9888   3.967   4.226   1.168 -0.2628  0.1381  0.1245
 5825W        W 9889   6.588   3.019   2.291 -0.0248 -0.0823  0.2168
 5826W        W 9890   5.039  10.555  10.339 -0.1451 -0.0210 -0.0275
 5827W        W 9891   1.384   0.716   9.364  0.1357 -0.3828  0.3582
 5828W        W 9892   1.076   2.719   0.685 -0.1063 -0.1069  0.0184
 5829W        W 9893   7.897   3.726   8.501 -0.0542 -0.0203 -0.2289
 5830W        W 9894   2.460   2.791   9.123 -0.0880  0.0067  0.1873
 5831W        W 9895   4.126   6.418   3.144 -0.3537 -0.1111  0.2370
 5832W        W 9896   4.477   1.003   1.390 -0.1918  0.1993  0.0825
 5833W        W 9897   1.089   6.497   7.901 -0.2473 -0.0551  0.0610
 5834W        W 9898   4.918   3.862   1.212 -0.1681 -0.2003 -0.1423
 5835W        W 9899   8.119  10.165   9.147  0.3330  0.0879 -0.0790
 5836W        W 9900   7.447   3.624  11.405  0.0072 -0.1552 -0.1396
 5837W        W 9901   5.227   4.042   8.715 -0.1192  0.4061 -0.0607
 5838W        W 9902   7.455  10.444   1.774 -0.3305 -0.2351  0.0314
 5839W        W 9903   9.479   7.049   1.680 -0.2328  0.3178 -0.1177
 5840W        W 9904   2.615   3.095   0.771  0.0663 -0.1024  0.1533
 5841W        W 9905   8.994   3.668  10.968 -0.1228  0.0093  0.0035
 5842W        W 9906  10.558   9.344   2.782 -0.2611  0.0779  0.0157
 5843W        W 9907   9.142   5.881   9.847 -0.1619 -0.0820  0.0080
 5844W        W 9908   5.207   3.393   1.979 -0.0816  0.0238  0.0204
 5845W        W 9909   9.190  10.642   2.715  0.1616 -0.0003 -0.1030
 5846W        W 9910   6.267   1.479   2.721  0.1050  0.2822 -0.1735
 5847W        W 9911   2.979   9.887   3.251 -0.1612 -0.2019  0.1552
 5848W        W 9912   4.771   6.429   8.339  0.1324 -0.1001  0.4805
 5849W        W 9913   3.845   6.868   3.307  0.5822 -0.1261 -0.1378
 5850W        W 9914   7.424   3.013   9.015  0.1931 -0.0341 -0.0069
 5851W        W 9915   2.429   8.760   3.619  0.2288  0.0255  0.3275
 5852W        W 9916   7.568   3.359  10.968 -0.4116 -0.1516 -0.1737
 5853W        W 9917   6.779   2.885   3.250  0.1222  0.0811 -0.0488
 5854W        W 9918   4.955   3.489  11.336  0.1690  0.2670  0.2314
 5855W        W 9919   1.311   4.486  10.091 -0.3680 -0.0094  0.1798
 5856W        W 9920   6.716   1.329   0.793  0.0134  0.2249 -0.0246
 5857W        W 9921   9.654   6.123   1.932  0.0733 -0.0502  0.0315
 5858W        W 9922   7.789   4.697   9.377 -0.3209  0.0951  0.0227
 5859W        W 9923   4.849   0.976   8.762  0.1893  0.2112  0.1267
 5860W        W 9924   1.518   2.674   2.437 -0.2303  0.0734 -0.3949
 5861W        W 9925   9.949   2.182   1.526 -0.0289 -0.0960  0.0860
 5862W        W 9926   0.594   3.625  11.507 -0.1918  0.0621 -0.0905
 5863W        W 9927   0.813   7.094   0.214 -0.0802  0.0937 -0.0765
 5864W        W 9928   8.653   9.767   9.735 -0.2302  0.1451 -0.3219
 5865W        W 9929   1.124   1.760  11.122 -0.2555  0.0553  0.2322
 5866W        W 9930   3.936   3.515   3.282  0.2516  0.2017 -0.1631
 5867W        W 9931   7.262   2.499   9.893  0.3557  0.1215 -0.0368
 5868W        W 9932   4.602   2.902   7.867 -0.2675  0.0394  0.4696
 5869W        W 9933   3.920   4.519   4.286 -0.2509 -0.3072 -0.0118
 5870W        W 9934   5.745   9.561   4.262  0.1092  0.2525 -0.2028
 5871W        W 9935   0.327   9.989  10.959  0.1110  0.0901  0.1464
 5872W        W 9936   7.869   5.290   9.502 -0.1470  0.0043  0.1912
 5873W        W 9937   5.571  10.627   9.468 -0.1923 -0.2328 -0.3709
 5874W        W 9938   6.056   4.017   8.900  0.1569  0.1188  0.1347
 5875W        W 9939   2.225   8.672   3.121  0.0793  0.0189  0.1473
 5876W        W 9940   6.974   5.492   2.439  0.0787 -0.0640 -0.2040
 5877W        W 9941   9.270   8.354   1.052 -0.2805  0.2937  0.1546
 5878W        W 9942   1.209   4.283   3.093 -0.1083  0.0649  0.0066
 5879W        W 9943  10.356   9.312   3.597  0.3586 -0.1709  0.1924
 5880W        W 9944   6.148   2.670   0.284 -0.0697 -0.0845 -0.0758
 5881W        W 9945   1.660   5.774   4.103 -0.1710 -0.1081 -0.0166
 5882W        W 9946   4.196   7.787   7.490 -0.0153 -0.0913 -0.1836
 5883W        W 9947   4.599   9.408   1.757 -0.0827 -0.1358 -0.2014
 5884W        W 9948   7.886   3.088   9.120 -0.1946  0.1602 -0.1957
 5885W        W 9949   5.474   5.749   1.299 -0.3403 -0.3313 -0.2638
 5886W        W 9950   6.137   4.802   9.343 -0.1129  0.0181 -0.1308
 5887W        W 9951   6.885  10.334   2.292  0.0116  0.1152  0.0608
 5888W        W 9952   7.660  10.138  11.049  0.0510 -0.1460  0.0565
 5889W        W 9953  10.603   4.483   9.569 -0.0545 -0.0490 -0.1150
 5890W        W 9954   3.378   1.723   2.844 -0.1878  0.1079 -0.3524
 5891W        W 9955   5.789   7.708   9.593  0.1341  0.0548 -0.0845
 5892W        W 9956   9.644   1.133   1.508 -0.2201 -0.0388  0.0869
 5893W        W 9957   8.080   5.050   1.352  0.4791 -0.1697  0.0721
 5894W        W 9958   5.814  10.037   2.500 -0.1062  0.0960 -0.0336
 5895W        W 9959   2.933   0.094  11.064 -0.0650  0.1580  0.0186
 5896W        W 9960   2.466   5.012   1.786 -0.0250 -0.0392  0.1125
 5897W        W 9961   5.254   5.663   9.319  0.0922 -0.1822  0.2444
 5898W        W 9962   1.728   7.068  10.006 -0.2351  0.1044 -0.2692
 5899W        W 9963   1.736   5.233   3.397 -0.1716 -0.2273  0.0923
 5900W        W 9964  10.067   8.638   1.668 -0.1404  0.0893 -0.0345
 5901W        W 9965   2.059   7.196  11.286  0.0828 -0.0390  0.2064
 5902W        W 9966   2.516   9.155   1.323  0.3542 -0.2265  0.1684
 5903W        W 9967   0.542   6.748   0.402 -0.1492  0.1870  0.1275
 5904W        W 9968   6.235   7.546  10.823 -0.1226  0.1333  0.2456
 5905W        W 9969   8.028   8.389   8.069 -0.3259  0.0772 -0.3750
 5906W        W 9970   2.451   7.678   8.407 -0.0315  0.2900 -0.0979
 5907W        W 9971   6.632   4.583  10.386  0.1645  0.1863 -0.1634
 5908W        W 9972   0.887   3.429   8.799  0.1337 -0.1488 -0.0847
 5909W        W 9973   5.905   6.270  11.034 -0.0866  0.0470  0.2274
 5910W        W 9974   5.561   4.615   8.337 -0.2593  0.1238 -0.1234
 5911W        W 9975  10.525   0.340   7.716 -0.0193 -0.3115 -0.0618
 5912W        W 9976   2.924   7.905   8.433 -0.0153 -0.1052  0.0362
 5913W        W 9977   1.358   9.734   0.238 -0.0802 -0.3130  0.1700
 5914W        W 9978   6.417   1.965   2.638 -0.0022 -0.2394  0.0788
 5915W        W 9979   3.086   4.367   0.343 -0.1074  0.1212  0.2198
 5916W        W 9980   6.640   3.754   0.925 -0.0829 -0.2110  0.1387
 5917W        W 9981   3.997   7.722  10.258 -0.0967  0.0020  0.0060
 5918W        W 9982   5.753   6.189   9.758 -0.0538 -0.2230  0.1085
 5919W        W 9983   6.367   1.337   1.748  0.1278 -0.1261 -0.0702
 5920W        W 9984   3.540   0.690   8.968 -0.0562 -0.0527  0.5617
 5921W        W 9985   0.446   9.742   8.959  0.0072 -0.2031 -0.2371
 5922W        W 9986   2.166   6.604  10.684  0.0863  0.2598 -0.0295
 5923W        W 9987   6.353   7.096   9.698 -0.0679 -0.2218 -0.2118
 5924W        W 9988   6.558   4.649   8.990 -0.1022 -0.1747 -0.3611
 5925W        W 9989   4.260   7.060   9.533 -0.1890  0.0343  0.0521
 5926W        W 9990   8.768   2.980   0.220 -0.2623 -0.2383  0.0038
 5927W        W 9991   2.225   2.702  10.291 -0.0875  0.0543  0.1505
 5928W        W 9992   5.041   5.888  10.228  0.1729  0.2359 -0.0325
 5929W        W 9993   9.978   1.515   0.178  0.0056  0.0605  0.5550
 5930W        W 9994   7.664   2.610   9.176 -0.1882  0.0063 -0.1878
 5931W        W 9995   3.015   8.018   3.181  0.1094  0.1111 -0.3339
 5932W        W 9996   6.380   5.798   1.631 -0.1424  0.2735  0.1475
 5933W        W 9997   4.395   0.276   1.969 -0.4099  0.2226  0.0577
 5934W        W 9998   9.885   8.861  10.264 -0.0976  0.0788 -0.4618
 5935W        W 9999   9.158   4.044   0.446  0.3233 -0.4903 -0.0079
 5936W        W10000   6.093   5.279   3.673 -0.1505  0.1864 -0.0556
 5937W        W10001   9.015   1.328   9.733  0.3460  0.2939 -0.3045
 5938W        W10002   2.875   2.481   0.593 -0.2384 -0.1930 -0.1142
 5939W        W10003   6.828   3.127   9.869  0.1510  0.1410 -0.0956
 5940W        W10004   0.175  10.344   2.924  0.3162  0.0712 -0.1712
 5941W        W10005   6.547   8.789   2.282  0.0602 -0.1084  0.2023
 5942W        W10006   0.031   0.381   2.044  0.4202 -0.0893  0.1169
 5943W        W10007   4.990   6.275   8.916 -0.0358  0.0876  0.5116
 5944W        W10008   4.124   3.311   0.586  0.3187  0.0367 -0.2099
 5945W        W10009   5.949   4.369   3.412  0.2854  0.0205  0.3877
 5946W        W10010   0.052   2.937   3.534 -0.0131 -0.2058  0.0471
 5947W        W10011   3.267   5.096   8.260 -0.1435  0.0297 -0.1785
 5948W        W10012   1.902   2.504   3.727 -0.0639 -0.0077 -0.2316
 5949W        W10013   6.418   2.062   8.183 -0.1778  0.2479 -0.1191
 5950W        W10014   4.885  10.359   8.318 -0.0394 -0.1139 -0.0131
 5951W        W10015   7.918   8.836   0.763  0.0047  0.1264 -0.0681
 5952W        W10016   5.887   5.918   0.890  0.0767  0.1731 -0.1110
 5953W        W10017   7.898   2.194  10.503  0.0267 -0.2785 -0.1952
 5954W        W10018  10.106   3.031   9.972 -0.0886  0.1821  0.0806
 5955W        W10019   7.032   0.276   1.648  0.1123 -0.3058 -0.0005
 5956W        W10020   1.147   9.446  10.886 -0.2762 -0.0655 -0.1613
 5957W        W10021   0.177   0.641   8.956  0.2057 -0.2388 -0.0155
 5958W        W10022   7.333   2.325   3.830  0.1849  0.2971  0.0711
 5959W        W10023   3.094   5.212  10.783 -0.0381  0.2066  0.1503
 5960W        W10024  10.317   7.268   1.057 -0.2074  0.1491 -0.1895
 5961W        W10025   7.464   1.242   7.549 -0.0202  0.0671  0.2904
 5962W        W10026   3.587   7.746   3.346 -0.0491 -0.1542  0.0841
 5963W        W10027   2.997   3.522   2.296  0.1533  0.2192 -0.2541
 5964W        W10028   4.791   4.147   2.284 -0.0851  0.0236  0.0279
 5965W        W10029   0.619   7.576   1.282  0.2799 -0.1799 -0.0313
 5966W        W10030   4.488   0.255   9.561  0.1701 -0.1110  0.0308
 5967W        W10031   8.961  10.082  10.434 -0.1763  0.2349  0.0866
 5968W        W10032   8.297   5.616   1.180 -0.2560  0.1430  0.1176
 5969W        W10033   6.688   8.946   0.293 -0.3108 -0.2512 -0.1133
 5970W        W10034   1.397   5.634   8.691 -0.0237 -0.1480 -0.0142
 5971W        W10035   2.924  10.351   0.427 -0.0775 -0.2673 -0.5316
 5972W        W10036   6.528   7.764   7.626  0.2602  0.1504  0.2829
 5973W        W10037   8.198   1.444   9.214 -0.3858  0.1915 -0.0728
 5974W        W10038  10.109   4.716   0.228  0.1897 -0.0929  0.1808
 5975W        W10039  10.287   7.611   8.181  0.0900 -0.0596 -0.2868
 5976W        W10040   8.716   6.290  11.222  0.1647  0.0142  0.3898
 5977W        W10041   5.904   2.186  10.113  0.2685 -0.0379  0.1459
 5978W        W10042   2.202   8.067  10.475 -0.0839 -0.0490  0.5095
 5979W        W10043   5.370   0.080   0.691  0.1407 -0.1239  0.1654
 5980W        W10044  10.511   2.334   8.590 -0.0645 -0.2277 -0.2330
 5981W        W10045   8.675   6.450   2.673  0.1477  0.0942 -0.1541
 5982W        W10046   1.481   6.396   0.213  0.1745  0.2713  0.0074
 5983W        W10047   2.686  10.425   1.508  0.2455  0.0434 -0.3792
 5984W        W10048   8.460   7.216   2.152 -0.2685 -0.1489 -0.0154
 5985W        W10049   1.932   2.268   1.584 -0.2178  0.2596 -0.1219
 5986W        W10050   2.971   8.897   2.853  0.2345 -0.0426  0.0951
 5987W        W10051   3.629   7.340   9.045 -0.0575  0.1597  0.0856
 5988W        W10052   0.012   3.275   1.361 -0.1804  0.0292 -0.2161
 5989W        W10053   3.180   3.037   0.702 -0.3352 -0.0408 -0.2084
 5990W        W10054   1.036  10.234   8.839  0.1407 -0.0502  0.2181
 5991W        W10055   8.519   1.901   2.558 -0.2117 -0.3983 -0.1894
 5992W        W10056   3.417   3.891  10.759 -0.1327 -0.4406  0.0510
 5993W        W10057   9.370  10.448   8.598 -0.2517 -0.0078 -0.2400
 5994W        W10058   1.648   9.226   2.610 -0.1565 -0.0102  0.0528
 5995W        W10059   8.152   0.141   9.332 -0.2036 -0.0637 -0.0474
 5996W        W10060   0.549   4.982  10.941  0.0255  0.0582 -0.0333
 5997W        W10061   8.500   4.849   0.693  0.2038 -0.0708 -0.0246
 5998W        W10062   4.308   4.122  11.144 -0.2407 -0.3907  0.1026
 5999W        W10063   4.704   1.461  11.307 -0.2068  0.3937  0.0670
 6000W        W10064  10.281  10.545   0.423  0.2634 -0.3362 -0.1815
 6001W        W10065   3.867   1.014  10.368 -0.1831 -0.1826  0.2702
 6002W        W10066  10.137   3.903   1.456 -0.0900 -0.2147 -0.0968
 6003W        W10067   9.332   7.632   2.614 -0.2561  0.5575  0.2834
 6004W        W10068   3.600   1.090   0.678 -0.2590 -0.2960 -0.0714
 6005W        W10069   1.956   1.857   3.241 -0.2100  0.0003 -0.2663
 6006W        W10070   2.657   0.597   9.164 -0.1493 -0.0730 -0.4339
 6007W        W10071   6.265   0.184   3.959  0.0896 -0.0410 -0.2842
 6008W        W10072   1.631   6.711   1.419  0.1357 -0.0734 -0.1309
 6009W        W10073   1.205   2.218   2.398 -0.1977 -0.0798 -0.0828
 6010W        W10074  10.393   6.231   9.088  0.1495 -0.1045  0.0305
 6011W        W10075   2.493  10.549   0.185  0.1576  0.1577  0.3101
 6012W        W10076   6.994  10.278   0.922 -0.2458 -0.2261 -0.0531
 6013W        W10077   9.623   7.551  10.607  0.2634 -0.0143 -0.0207
 6014W        W10078   5.594  10.588   8.855  0.4658 -0.1014  0.1476
 6015W        W10079   0.965   0.070   0.734  0.2486  0.1141 -0.1767
 6016W        W10080   1.560   7.969   1.849 -0.0991 -0.1207  0.0891
 6017W        W10081   3.451   0.978  10.029  0.2921  0.2356  0.1154
 6018W        W10082   8.909   0.074   9.894 -0.1968 -0.1766  0.1458
 6019W        W10083   3.719   4.826  11.016 -0.1476  0.0298 -0.0538
 6020W        W10084   6.844   7.232   2.342 -0.1340  0.1728 -0.1061
 6021W        W10085   2.320   3.897   1.703  0.3404  0.2445 -0.0333
 6022W        W10086   7.003   1.178   0.347 -0.0656  0.1470 -0.0247
 6023W        W10087   0.865  10.558  10.502  0.1864 -0.0719 -0.2497
 6024W        W10088   8.991   1.070   8.567 -0.3360 -0.2663  0.0712
 6025W        W10089   3.631   3.489  11.066  0.1931  0.0968 -0.0553
 6026W        W10090   2.825   5.829  10.116 -0.1144 -0.1146  0.0022
 6027W        W10091   6.273   7.608   8.639 -0.0087 -0.0276  0.3137
 6028W        W10092   5.775   1.069  10.476 -0.1423  0.0483 -0.3527
 6029W        W10093   6.884   2.966   9.058  0.0626  0.4794 -0.0841
 6030W        W10094   4.235   2.974   8.252 -0.0733 -0.0761  0.1959
 6031W        W10095   0.129   8.084  11.163 -0.4728 -0.1087  0.2334
 6032W        W10096   8.730   8.817   8.496  0.2866  0.2086  0.2623
 6033W        W10097   6.583   9.450   8.609  0.1202  0.0951 -0.1555
 6034W        W10098   1.867   9.213   1.323  0.2111 -0.2600 -0.2246
 6035W        W10099   4.711   3.050   8.348 -0.1092 -0.2957  0.1745
 6036W        W10100   6.633   2.454   3.104 -0.2082  0.0288 -0.2786
 6037W        W10101   2.226   5.848   9.297  0.0558 -0.0572  0.1997
 6038W        W10102   1.889   4.134  10.327 -0.0611 -0.0417 -0.1704
 6039W        W10103   3.596   2.830   9.607 -0.0443  0.1150  0.1619
 6040W        W10104   5.277   1.911   0.692  0.0192 -0.1165 -0.3349
 6041W        W10105   6.522   1.506   7.445 -0.0028  0.0823  0.0226
 6042W        W10106  10.157   0.581   3.349 -0.2019 -0.2045 -0.0904
 6043W        W10107   8.491   7.001   1.235 -0.3465  0.2753 -0.3449
 6044W        W10108   2.928   5.261   0.629  0.0046  0.3106  0.2591
 6045W        W10109  10.032   0.944   8.569 -0.0814 -0.0579 -0.0069
 6046W        W10110   9.156   1.072   1.217 -0.0703 -0.1500  0.1405
 6047W        W10111   5.005   4.394   3.253  0.0396 -0.2756  0.0358
 6048W        W10112   3.498   9.277   4.139 -0.0382  0.1157  0.0070
 6049W        W10113   9.398   5.477  10.762  0.1715  0.0581  0.0850
 6050W        W10114   7.955   3.482   0.785 -0.3022 -0.0878  0.1996
 6051W        W10115   5.589   1.055   2.222 -0.0370  0.0756 -0.4117
 6052W        W10116   8.489   5.337   0.127  0.4256  0.2334  0.0235
 6053W        W10117  10.459  10.002   1.229  0.0653 -0.1138 -0.3089
 6054W        W10118   3.758   5.947   3.020  0.1323  0.1698 -0.2325
 6055W        W10119   3.845   7.555   2.076 -0.2602  0.0651  0.0034
 6056W        W10120   8.105   2.628  10.613  0.1852 -0.1789 -0.0730
 6057W        W10121   0.237   1.021  10.281 -0.0082  0.1501 -0.3163
 6058W        W10122   1.851   6.675   0.087 -0.1206 -0.0192  0.1170
 6059W        W10123   2.262   5.716  10.916  0.3761  0.0329 -0.1649
 6060W        W10124   2.431   2.738  11.446 -0.1975  0.1821  0.1245
 6061W        W10125   7.612   2.250   0.502  0.0106  0.0886 -0.0078
 6062W        W10126   4.856  10.301   8.809 -0.1425  0.1058 -0.3747
 6063W        W10127   2.801   0.766   1.868 -0.0392  0.5047  0.1196
 6064W        W10128   9.999   8.045   9.847  0.1021  0.0484 -0.1687
 6065W        W10129   6.666   9.193   1.990 -0.0248 -0.1561 -0.0021
 6066W        W10130   9.961   0.083   3.109  0.0470  0.0431 -0.2751
 6067W        W10131  10.334   5.588   0.065 -0.3355  0.0232 -0.0791
 6068W        W10132   7.283   5.121   2.707  0.0542  0.0382  0.2942
 6069W        W10133   9.941   1.389   0.723 -0.2361 -0.2492  0.0751
 6070W        W10134   1.416  10.317   2.990 -0.0362  0.0227 -0.3082
 6071W        W10135   0.866   2.428   2.070  0.2120  0.1566 -0.0758
 6072W        W10136   5.974   0.214   8.154 -0.0437 -0.0037 -0.0894
 6073W        W10137   2.194  10.538   2.517  0.0255  0.0651  0.0326
 6074W        W10138   1.810   3.422   8.969 -0.0764  0.2087 -0.1326
 6075W        W10139   6.338   5.637  11.288 -0.0337 -0.0700  0.1936
 6076W        W10140   6.628  10.282   8.885 -0.2564  0.0531  0.1197
 6077W        W10141   8.420   7.095   8.149 -0.2017 -0.0216  0.5414
 6078W        W10142   8.431   1.938  11.391  0.1649 -0.1043  0.1945
 6079W        W10143   2.461   4.698   8.139 -0.2369 -0.2263 -0.1374
 6080W        W10144   8.529   4.566  11.227 -0.0873 -0.1093  0.1846
 6081W        W10145   4.443   4.107  10.668  0.0974 -0.1931 -0.1926
 6082W        W10146   0.474   1.262   2.639  0.0113  0.1193  0.2906
 6083W        W10147  10.328   7.426   3.030 -0.1709  0.0811 -0.0322
 6084W        W10148   0.316   2.012  10.563 -0.1036  0.0453  0.1175
 6085W        W10149   9.026   3.739   2.696 -0.1369  0.1478  0.1939
 6086W        W10150   1.167  10.234  10.945  0.0844  0.0762 -0.0631
 6087W        W10151   8.574   3.430  11.087 -0.2575  0.1240  0.0854
 6088W        W10152   0.221   7.177   3.904 -0.0918  0.2544  0.1170
 6089W        W10153   1.988  10.230   3.370  0.1527  0.2592  0.0349
 6090W        W10154   5.301   5.816   0.120  0.0421  0.0859 -0.1794
 6091W        W10155   8.393   9.426  10.040  0.0647 -0.0182  0.2041
 6092W        W10156   6.603   6.839   7.936  0.0572  0.2909 -0.0751
 6093W        W10157   8.612   3.943  10.947  0.2255 -0.1066  0.3831
 6094W        W10158   5.086   9.587   2.929  0.0453  0.2406  0.2043
 6095W        W10159   4.319   2.001   2.114  0.0702 -0.0416 -0.3005
 6096W        W10160   3.528   8.336  10.051  0.1212  0.2276  0.2096
 6097W        W10161  10.659   5.565   0.920  0.1269  0.3639  0.0461
 6098W        W10162   6.081   8.994   9.073 -0.0219  0.0777 -0.2269
 6099W        W10163   8.302   5.041   8.239  0.0809 -0.2556  0.0155
 6100W        W10164   7.740   8.376   2.746  0.2144  0.5292 -0.0442
 6101W        W10165   2.041   1.093  11.367  0.1413 -0.0131 -0.2656
 6102W        W10166   4.897   2.601   7.644 -0.0649  0.0057  0.1610
 6103W        W10167  10.137   1.005   0.092 -0.1808 -0.1400 -0.2711
 6104W        W10168   1.609   7.140   8.566 -0.0995 -0.0906 -0.3409
 6105W        W10169   4.255   1.408   2.637 -0.2221 -0.1386  0.4116
 6106W        W10170  10.412   0.819   1.166  0.2033 -0.0982  0.1518
 6107W        W10171   7.205   6.149   1.858 -0.2975  0.0752  0.0874
 6108W        W10172   1.561   7.073  11.262 -0.0130 -0.0505  0.0238
 6109W        W10173   6.414   7.360   3.190 -0.0200  0.1630 -0.1319
 6110W        W10174   3.410   1.978   8.339 -0.2057  0.3666 -0.0229
 6111W        W10175   3.539   6.077  10.936  0.1816  0.1598 -0.0727
 6112W        W10176   6.895   0.033  10.219  0.4063 -0.1290  0.2172
 6113W        W10177   1.933  10.343   8.452  0.2300  0.1916 -0.0788
 6114W        W10178   5.989   7.505   7.758  0.1969  0.0439  0.0089
 6115W        W10179   1.685   5.177   3.914  0.1034  0.2571 -0.3054
 6116W        W10180   1.143   9.019   7.373 -0.0531 -0.1077  0.0918
 6117W        W10181   1.761   6.277   9.364  0.0309  0.1233 -0.1229
 6118W        W10182   9.241   8.042  10.982 -0.1259  0.0141 -0.2278
 6119W        W10183   4.923   9.501   8.997  0.2382 -0.0397  0.1359
 6120W        W10184   6.825   9.937   2.601  0.1957  0.1308  0.2307
 6121W        W10185   7.232   6.413   0.963  0.1353 -0.1412 -0.2053
 6122W        W10186   6.032   4.054  10.637 -0.0137 -0.3273  0.0470
 6123W        W10187   2.744   6.779   4.017  0.2485 -0.3035  0.0565
 6124W        W10188   8.175   5.800   1.976  0.1773 -0.0946  0.0047
 6125W        W10189   8.966   0.842   1.651  0.0844  0.1004 -0.4064
 6126W        W10190   4.403   0.113   9.066  0.2315  0.1424 -0.2509
 6127W        W10191   2.339   1.393   2.597 -0.4350 -0.0089  0.0318
 6128W        W10192  10.396   7.835  10.124  0.0057 -0.3138  0.0123
 6129W        W10193   2.032   4.686   7.968  0.2870 -0.1377  0.1241
 6130W        W10194   0.092  10.100   3.445 -0.1409  0.0568 -0.1577
 6131W        W10195   1.470   9.333   9.047  0.0934 -0.1262  0.1070
 6132W        W10196   7.653   4.037   1.334 -0.0381  0.0038 -0.3645
 6133W        W10197   8.210   6.304  11.464 -0.1886  0.0717  0.0456
 6134W        W10198   6.238   9.486  10.546  0.0048  0.1211  0.1360
 6135W        W10199   2.579   3.911   9.773 -0.3458  0.0296  0.0876
 6136W        W10200   2.797  10.362   2.969 -0.2330 -0.1006 -0.0519
 6137W        W10201   4.928   1.696   1.598 -0.0877 -0.0549  0.1343
 6138W        W10202   3.147   9.533  10.833  0.1280 -0.0608  0.0370
 6139W        W10203   2.037  10.533  11.346  0.2101 -0.1434 -0.4580
 6140W        W10204   9.218   6.803   9.409 -0.0605 -0.1020 -0.0820
 6141W        W10205   7.003   7.468   3.521 -0.2987  0.1367  0.2023
 6142W        W10206   9.766   6.655  11.256  0.2884 -0.0418 -0.1286
 6143W        W10207   3.804   2.758   0.011  0.0818 -0.0935  0.1147
 6144W        W10208   3.418   0.962   1.166 -0.1837 -0.0457  0.0013
 6145W        W10209   9.536   6.099   8.925  0.0366 -0.3229 -0.1022
 6146W        W10210   0.776   5.413   1.587 -0.0327  0.0237  0.0333
 6147W        W10211   3.406   0.362  10.720  0.0018 -0.1105  0.0516
 6148W        W10212   6.309   0.036  11.211  0.3201 -0.4554 -0.2251
 6149W        W10213   3.308   9.053  10.548 -0.0165  0.0186  0.2774
 6150W        W10214   1.947   1.758   8.727  0.0488 -0.0959 -0.1705
 6151W        W10215   6.504   3.969   2.710  0.1487 -0.1586  0.4436
 6152W        W10216   3.368   9.857  11.263  0.2596  0.2790 -0.1321
 6153W        W10217   2.668   1.513   2.029  0.2303 -0.0040  0.4152
 6154W        W10218   6.612   4.978   9.390 -0.0363  0.2197 -0.4147
 6155W        W10219   5.982   0.646  10.468 -0.1284  0.1631 -0.2373
 6156W        W10220   5.507  10.108   9.399 -0.1861 -0.2259 -0.1743
 6157W        W10221  10.211   7.269   0.500  0.0618 -0.3110  0.0653
 6158W        W10222   0.510   8.987   0.096 -0.2727  0.2593  0.0110
 6159W        W10223   4.682   1.494   1.221 -0.0290  0.0179 -0.2917
 6160W        W10224  10.566   9.566  10.379  0.3543 -0.0226  0.0813
 6161W        W10225   2.656   9.428   1.894 -0.3874  0.0351  0.3146
 6162W        W10226   8.018   0.309  11.000 -0.2345  0.0465 -0.0655
 6163W        W10227   0.335   7.327   3.470  0.3955  0.2103  0.1350
 6164W        W10228   7.727   2.446   8.085  0.2156 -0.0475 -0.0341
 6165W        W10229   2.222  10.081  11.415  0.0194 -0.0160 -0.3262
 6166W        W10230   3.729   0.505   2.444  0.2148 -0.0346  0.1284
 6167W        W10231   6.618   0.375   0.428  0.0619 -0.1150  0.2798
 6168W        W10232   9.981   1.252   1.861  0.2652  0.0354 -0.0274
 6169W        W10233  10.412   3.175   0.902 -0.5110 -0.0174  0.0705
 6170W        W10234   7.867   0.591   9.550 -0.0631 -0.1348 -0.1550
 6171W        W10235   5.920   5.245  11.446 -0.3341  0.3824  0.0686
 6172W        W10236   9.381   3.902  10.671 -0.0625  0.4141  0.1789
 6173W        W10237   0.917   2.514  10.938  0.0060 -0.5754 -0.1252
 6174W        W10238   6.519   0.374   1.463 -0.2238 -0.2058  0.1413
 6175W        W10239   9.607   1.841   2.560  0.3783  0.1853  0.1170
 6176W        W10240   3.691   7.808  10.998 -0.1053 -0.3578  0.0431
 6177W        W10241   2.947   4.183  10.903 -0.1160 -0.1608  0.0059
 6178W        W10242   6.280   2.848   3.068 -0.0660 -0.3293  0.0351
 6179W        W10243   4.383   5.246   2.639 -0.1035 -0.1294 -0.1737
 6180W        W10244  10.361   5.379   0.562 -0.3958  0.0675  0.1518
 6181W        W10245   5.695   3.721   3.119  0.1227  0.1082  0.1738
 6182W        W10246   8.371   1.647   2.106 -0.4378 -0.0980  0.2195
 6183W        W10247   7.904   8.905  10.028 -0.1863  0.0164 -0.0716
 6184W        W10248   9.361   3.390   0.488  0.0359  0.3260 -0.1079
 6185W        W10249  10.190   8.585   8.111  0.3443  0.2184  0.0049
 6186W        W10250   7.429   9.830   1.541 -0.0048 -0.2158  0.2947
 6187W        W10251   4.831   6.655   3.505 -0.3664 -0.0117 -0.2479
 6188W        W10252   9.773   0.532  11.478 -0.1177  0.0859  0.2355
 6189W        W10253   5.619  10.524   0.256  0.0080 -0.0051 -0.2414
 6190W        W10254   7.347   4.006   2.360  0.0252 -0.1580  0.0012
 6191W        W10255   8.680   8.028  10.314  0.3715  0.0026  0.1119
 6192W        W10256   6.220   2.230   2.256  0.1547 -0.0225  0.0627
 6193W        W10257   6.084   2.995   1.728  0.0710 -0.2668  0.0605
 6194W        W10258   5.302   9.138   2.842  0.1497  0.0813 -0.1099
 6195W        W10259   7.255   6.568  11.426  0.3631 -0.0535  0.0770
 6196W        W10260   5.967   8.884   8.168  0.4589  0.2202  0.1931
 6197W        W10261   9.871  10.637   9.688  0.0554  0.1945  0.0718
 6198W        W10262   4.342   2.468   0.200  0.2262 -0.0278  0.0993
 6199W        W10263   1.587   3.923   3.042 -0.3955 -0.0146 -0.3652
 6200W        W10264   4.848   2.785   9.173 -0.3289  0.2292  0.2708
 6201W        W10265   6.600   4.880  10.834  0.0297  0.0865  0.0996
 6202W        W10266   6.840   9.593  11.382 -0.1619 -0.0872  0.0157
 6203W        W10267   9.377  10.487   0.641 -0.1858  0.0519 -0.1778
 6204W        W10268   8.460   7.768   8.769  0.0190  0.0645  0.1653
 6205W        W10269   9.311   9.159   1.461  0.2559  0.2084  0.0917
 6206W        W10270   7.593   4.468   0.075 -0.2896 -0.0302  0.1520
 6207W        W10271   9.465   2.380   8.161 -0.1334  0.0668  0.2654
 6208W        W10272   2.937   7.840   2.070 -0.1072 -0.1157 -0.1140
 6209W        W10273   1.871   8.855   8.252  0.0180  0.3077 -0.4661
 6210W        W10274   9.832   1.327   2.446  0.2126  0.0974 -0.1100
 6211W        W10275   3.385   9.292   0.555  0.2241  0.1342  0.1768
 6212W        W10276   7.085   1.652   0.548 -0.1478 -0.1823 -0.6527
 6213W        W10277   0.328   2.238   1.217  0.2855  0.1899 -0.1558
 6214W        W10278   5.819  10.203   0.698 -0.0461  0.0709  0.3146
 6215W        W10279   0.471   3.657  10.669  0.2378  0.1257 -0.2126
 6216W        W10280   2.153   3.328   0.574 -0.1127  0.2233 -0.2446
 6217W        W10281   5.486   7.892   9.103  0.0874 -0.2582  0.0578
 6218W        W10282   7.148   1.910   2.767 -0.0947  0.1009 -0.2519
 6219W        W10283   4.207   6.692   1.855  0.1030  0.0889 -0.1754
 6220W        W10284   1.869   3.040  10.255 -0.0324  0.0837  0.0158
 6221W        W10285  10.524   0.681   2.456 -0.0245  0.0065  0.0771
 6222W        W10286  10.321   0.633   8.810  0.3507  0.0153 -0.2602
 6223W        W10287   6.834   0.458   7.567  0.0241  0.1688 -0.2072
 6224W        W10288   6.938   7.470  11.355 -0.0200  0.3797 -0.1499
 6225W        W10289   8.005   5.495   7.976 -0.0522  0.2526  0.0711
 6226W        W10290   2.702   9.677  10.138 -0.1256  0.3171  0.0799
 6227W        W10291   1.029   9.819   9.734 -0.2868  0.2140 -0.0271
 6228W        W10292  10.288   4.030  10.477 -0.0795 -0.0489  0.0745
 6229W        W10293   2.597   9.950   0.242  0.1006  0.4527 -0.0436
 6230W        W10294   9.133   6.735   1.271  0.3673 -0.1603  0.1073
 6231W        W10295   8.709   4.317   3.246 -0.1985  0.1282 -0.4250
 6232W        W10296   7.386   7.351   0.083 -0.0003 -0.1956 -0.3251
 6233W        W10297   0.070   8.172   4.001 -0.0920 -0.0488 -0.0150
 6234W        W10298   6.925   3.468  11.255 -0.0261 -0.0353 -0.0986
 6235W        W10299   7.006   9.071   3.432 -0.3719 -0.0442 -0.0125
 6236W        W10300   0.924   4.368   9.041  0.0336 -0.1694  0.0113
 6237W        W10301   7.514   2.158   9.137  0.0165 -0.1200 -0.0768
 6238W        W10302   7.868   6.010   2.300  0.0589 -0.5110  0.0986
 6239W        W10303   4.630   0.919  10.364  0.0634 -0.2371 -0.0181
 6240W        W10304   9.253   8.425  11.269 -0.1410  0.2137 -0.0066
 6241W        W10305   7.673  10.255   1.348  0.3790 -0.1197  0.1517
 6242W        W10306   2.338   2.296   7.959 -0.0002  0.1078  0.0620
 6243W        W10307   3.744   2.267   3.745  0.0156  0.1056 -0.2623
 6244W        W10308   1.565   2.607  10.961 -0.2008  0.0288 -0.0962
 6245W        W10309   1.675   5.190   1.151  0.1567  0.1341 -0.1248
 6246W        W10310   5.553   8.871   9.105 -0.2633 -0.1799  0.2554
 6247W        W10311   6.105  10.388   0.020  0.0469 -0.0416  0.1544
 6248W        W10312   5.642   6.822  11.233 -0.0047  0.1009  0.3182
 6249W        W10313   9.045   8.271   1.869  0.1733 -0.1174  0.2019
 6250W        W10314   9.075   5.077  10.669 -0.0565  0.3264 -0.2753
 6251W        W10315   9.489   8.111   8.111 -0.1120 -0.0368 -0.1023
 6252W        W10316   0.450  10.166   2.500  0.3369  0.2137 -0.0989
 6253W        W10317   3.631   0.163   1.288  0.1211  0.0791 -0.0278
 6254W        W10318   1.946   7.815   9.756  0.2173  0.2287  0.0662
 6255W        W10319   3.141   2.396   2.241  0.0011 -0.1270 -0.3159
 6256W        W10320   9.503   4.945   2.418  0.0993 -0.1961 -0.0429
 6257W        W10321   5.575   2.019   2.308  0.2901  0.0871 -0.1755
 6258W        W10322   9.427   0.295   8.475  0.4041 -0.2253 -0.1359
 6259W        W10323  10.429   6.931   3.752 -0.1423 -0.0753  0.2011
 6260W        W10324   2.289   0.346  10.526 -0.0598 -0.0322 -0.0408
 6261W        W10325   9.499   8.209   0.063  0.0808  0.0612 -0.1127
 6262W        W10326   0.345   8.441   1.630  0.2082  0.2206 -0.2274
 6263W        W10327   1.043   6.755   0.753  0.1871 -0.1364  0.0980
 6264W        W10328   2.933   9.358   9.345 -0.0359  0.0705  0.0668
 6265W        W10329   4.416   2.867   2.208  0.2133  0.2439 -0.2526
 6266W        W10330   4.166   1.413   1.048  0.2369  0.0520 -0.3556
 6267W        W10331   3.004   4.831   9.575  0.1373  0.0958 -0.1090
 6268W        W10332  10.518   8.500   3.644 -0.1788 -0.0545 -0.0051
 6269W        W10333   3.882   7.833   9.746  0.3053 -0.0761  0.2042
 6270W        W10334   5.915   4.617   1.022  0.1300  0.2781  0.0816
 6271W        W10335   8.538   6.063   1.426 -0.0635  0.1100  0.1768
 6272W        W10336   4.627   6.152   2.298  0.0499 -0.5399 -0.1854
 6273W        W10337   3.691   4.021   1.521  0.1479 -0.1092  0.1970
 6274W        W10338   0.362   4.173   9.733  0.0958 -0.1061  0.1574
 6275W        W10339   7.297  10.469   8.129  0.4096 -0.0034  0.0761
 6276W        W10340   7.389   3.123   2.592  0.0470 -0.2173  0.0271
 6277W        W10341   9.414   2.324  11.343  0.1528  0.1060 -0.1812
 6278W        W10342   6.981   1.907   8.182 -0.2408 -0.4536 -0.1543
 6279W        W10343   2.022   2.656   2.526  0.0497 -0.3720 -0.0238
 6280W        W10344   2.589   4.308   0.369  0.0873  0.2157 -0.0712
 6281W        W10345   4.349   8.005   2.732 -0.1667  0.1516 -0.0744
 6282W        W10346   0.215   1.656   2.392 -0.3708  0.1979  0.1228
 6283W        W10347   9.370   0.113   7.205 -0.0262 -0.4699 -0.3234
 6284W        W10348   2.267   1.933   1.816 -0.0805 -0.2505 -0.3422
 6285W        W10349   6.792   1.413  10.763 -0.1734 -0.0194 -0.2333
 6286W        W10350   2.055   5.113   0.271 -0.0164 -0.2168  0.1272
 6287W        W10351   8.376  10.162   0.032  0.1849 -0.1725  0.0153
 6288W        W10352   4.190   5.554   3.623 -0.0470 -0.1318  0.2053
 6289W        W10353   6.755   6.265   2.838 -0.2512 -0.1494 -0.0107
 6290W        W10354   6.143   8.441   2.199  0.0168 -0.0600  0.2873
 6291W        W10355   8.727   5.806  11.317  0.1882  0.1146  0.1144
 6292W        W10356   3.441   6.033   0.280 -0.0540 -0.0546  0.2075
 6293W        W10357   9.086   8.361  10.363  0.2085 -0.0392  0.2837
 6294W        W10358   1.407   8.973   8.373 -0.0292 -0.0058 -0.0216
 6295W        W10359   9.272   0.377  11.407  0.0144 -0.0011 -0.0372
 6296W        W10360   4.216   9.500   9.923 -0.2387  0.0216 -0.0189
 6297W        W10361   8.951   1.712   9.433  0.2568  0.1235  0.0226
 6298W        W10362   1.636   6.347  10.639  0.0288 -0.2681 -0.2342
 6299W        W10363   4.300   2.670  11.332  0.0875 -0.0245 -0.1931
 6300W        W10364   0.098   6.130   7.937  0.3913  0.2917 -0.0224
 6301W        W10365   5.447   6.372  10.895  0.0139 -0.1366  0.0733
 6302W        W10366   9.824   7.713   8.836 -0.2248 -0.0333 -0.1203
 6303W        W10367   9.087  10.198   2.417 -0.0248 -0.2121  0.0870
 6304W        W10368   1.492   3.923   8.248 -0.0082  0.2463 -0.0889
 6305W        W10369   0.108   8.492   3.204  0.0693 -0.2025 -0.1341
 6306W        W10370   3.647   6.741   2.009  0.4745 -0.0069 -0.1788
 6307W        W10371   0.742   4.555   0.174  0.0865 -0.0297 -0.1377
 6308W        W10372   2.200   3.033   9.563  0.4566 -0.0116  0.0251
 6309W        W10373   2.870   9.601   7.567 -0.0845 -0.2718 -0.0514
 6310W        W10374   5.377   1.366   1.887  0.0623 -0.1717  0.1589
 6311W        W10375   2.468   9.428   2.945  0.4441 -0.1260  0.4120
 6312W        W10376   7.898   6.028  10.166  0.0793  0.1724 -0.0466
 6313W        W10377   5.943   7.611   9.048 -0.1703 -0.2647 -0.1916
 6314W        W10378   6.793   1.950   3.105 -0.3313  0.1942  0.0062
 6315W        W10379   5.728   9.940   8.417 -0.2608  0.1192  0.0748
 6316W        W10380   5.453   5.163   8.450 -0.0433  0.2965  0.0926
 6317W        W10381   4.028   7.441  10.820  0.0638 -0.1620 -0.0907
 6318W        W10382   6.471  10.565   1.929 -0.2404 -0.0206 -0.0806
 6319W        W10383   8.829  10.553  10.423  0.3126 -0.2287 -0.1603
 6320W        W10384   2.464   3.446   9.746  0.2476 -0.0217  0.0548
 6321W        W10385   5.770   9.248   9.495 -0.0289  0.2144  0.0428
 6322W        W10386   9.343   0.336   4.134 -0.1382 -0.0609  0.0048
 6323W        W10387   0.762   1.317   0.449  0.0580 -0.1602  0.1646
 6324W        W10388   6.214   6.172   9.718  0.1409 -0.2816  0.0130
 6325W        W10389   9.173  10.164   1.071  0.3365 -0.1076 -0.1829
 6326W        W10390   5.073   6.528  11.184  0.0314 -0.1044 -0.0121
 6327W        W10391  10.484   8.983   2.433  0.2500  0.5408  0.1170
 6328W        W10392   7.602   0.742   8.324 -0.1136 -0.2959  0.0111
 6329W        W10393   6.068   6.535   1.091 -0.2601  0.1826 -0.4418
 6330W        W10394   0.459   2.111  11.110  0.0326 -0.0596 -0.1489
 6331W        W10395   0.860   3.851   1.903 -0.0044  0.5338  0.1467
 6332W        W10396  10.361   3.919   0.779  0.4610  0.1313  0.4231
 6333W        W10397   7.970   9.878   0.133  0.0851  0.1968  0.0727
 6334W        W10398   4.836  10.652   0.655 -0.0654 -0.2001  0.3321
 6335W        W10399   6.789   0.195   8.017 -0.0831  0.0736 -0.0783
 6336W        W10400   2.785   9.198  10.415  0.1611 -0.0650  0.1249
 6337W        W10401   4.844   5.318   9.206 -0.0121  0.1606 -0.1398
 6338W        W10402   6.757   2.314   8.490 -0.1388  0.2254  0.1077
 6339W        W10403   0.823   5.555   8.470  0.0795 -0.2499 -0.1291
 6340W        W10404   4.025   8.027   1.393 -0.0377 -0.0552 -0.1395
 6341W        W10405   6.091   0.817   8.548  0.2623 -0.1931 -0.1073
 6342W        W10406   1.684   3.845   9.621  0.1559  0.0306  0.0362
 6343W        W10407   2.798   5.980  11.032  0.0704 -0.1487 -0.0305
 6344W        W10408   5.823   8.999   3.033  0.3189  0.0818 -0.1805
 6345W        W10409   9.998   8.238   3.647  0.1166  0.2997 -0.0068
 6346W        W10410   3.092   7.348  11.510 -0.2030 -0.4610  0.3740
 6347W        W10411  10.381   8.848   3.317  0.3017 -0.1983 -0.0613
 6348W        W10412  10.406   4.789  10.197 -0.0619 -0.1039 -0.2558
 6349W        W10413   6.352   2.224   0.588  0.3404 -0.0023 -0.2630
 6350W        W10414   3.513   3.214   2.079  0.0516 -0.1191  0.3068
 6351W        W10415   0.966   2.322   1.582 -0.0915 -0.0912 -0.2897
 6352W        W10416   6.963   2.768   8.474  0.4293  0.1662 -0.5569
 6353W        W10417   8.664   4.005   0.333  0.0390 -0.0696  0.0778
 6354W        W10418   8.626   0.881   0.013 -0.0365  0.0487  0.0772
 6355W        W10419  10.415   7.933  11.477  0.1931  0.0334  0.0135
 6356W        W10420   4.460   1.853   1.597 -0.0314  0.3232  0.0632
 6357W        W10421   4.465   4.925   0.786  0.2800 -0.2248  0.3382
 6358W        W10422   6.363   3.079  10.372  0.2816 -0.0863  0.1056
 6359W        W10423   9.305   1.757   1.697  0.0775 -0.2761  0.4339
 6360W        W10424   0.062   5.130  10.764 -0.0233 -0.2643 -0.2090
 6361W        W10425   9.615   3.264   3.123 -0.0802  0.0775  0.0127
 6362W        W10426   0.599   9.303   2.042 -0.0813 -0.2605 -0.0429
 6363W        W10427   8.258   9.817   3.557 -0.0027 -0.1030  0.2800
 6364W        W10428   1.772   1.536   9.636  0.0136 -0.1087  0.0579
 6365W        W10429   7.023   5.878   2.775 -0.4400  0.0617 -0.0820
 6366W        W10430   7.528   6.858   2.540 -0.1161  0.0374  0.2993
 6367W        W10431   2.609   3.371   4.028 -0.0490 -0.3290 -0.1666
 6368W        W10432   7.624   5.138   4.021  0.0191  0.0112 -0.0780
 6369W        W10433   2.102   2.745   8.179 -0.0305 -0.0643 -0.0273
 6370W        W10434   0.068   8.727   9.287 -0.0656 -0.0927  0.0490
 6371W        W10435   5.456   7.216   2.065  0.0673  0.1597  0.2129
 6372W        W10436   7.045   6.320   8.916 -0.4369 -0.1772  0.1317
 6373W        W10437   6.116   4.435   3.923  0.0386 -0.1280 -0.0843
 6374W        W10438   3.784   4.535   1.763  0.0956 -0.0505  0.0974
 6375W        W10439   0.250   8.979  11.098  0.1225  0.0766 -0.1003
 6376W        W10440   5.177  10.426   3.179 -0.1641  0.0453  0.1764
 6377W        W10441   0.470   4.284   1.093  0.0849 -0.0247  0.3388
 6378W        W10442   1.448   5.809  10.209 -0.3161  0.1920 -0.1860
 6379W        W10443   7.199  10.345   8.942  0.0619  0.4016 -0.2422
 6380W        W10444   7.717   8.039  10.447  0.0186  0.3774  0.1466
 6381W        W10445   9.901   5.766   8.454  0.0700  0.3169 -0.1514
 6382W        W10446   6.087   4.571   8.845 -0.2067 -0.1395  0.1844
 6383W        W10447   0.749   0.510   3.758 -0.1767 -0.0212 -0.0936
 6384W        W10448   7.728   3.239   3.024 -0.0028 -0.3246 -0.0843
 6385W        W10449   9.189   2.336   2.412  0.0197 -0.0791  0.3874
 6386W        W10450   6.611   4.058   9.020  0.1740 -0.0185  0.2733
 6387W        W10451  10.375  10.069   0.291 -0.0467  0.1617 -0.0676
 6388W        W10452   2.429   2.583   9.711  0.1849  0.2235 -0.1443
 6389W        W10453   4.670   3.705   2.956  0.1496 -0.0618  0.0440
 6390W        W10454  10.141   7.368   8.613 -0.3038 -0.2599  0.2920
 6391W        W10455   1.711   3.528   8.435 -0.1915 -0.0182 -0.1080
 6392W        W10456   5.694   3.940   3.618  0.0600  0.1801  0.1354
 6393W        W10457   5.021   8.897  11.204 -0.0762 -0.0857 -0.2874
 6394W        W10458   5.079   7.931  11.133 -0.4083  0.3326  0.0312
 6395W        W10459   5.868   8.070   1.419 -0.0457 -0.1228 -0.1947
 6396W        W10460   8.072   6.365  10.975 -0.0387  0.0196 -0.2478
 6397W        W10461   9.729   4.793   8.960 -0.4287  0.0463 -0.0636
 6398W        W10462  10.440   9.970  10.016  0.4040  0.1529 -0.0068
 6399W        W10463   2.820   1.138   2.373  0.2874  0.0694 -0.1442
 6400W        W10464   3.114   8.186  10.296 -0.1262 -0.0629 -0.0520
 6401W        W10465   9.399   7.432   8.674  0.1664 -0.0588  0.2416
 6402W        W10466   6.551   7.886   0.125  0.6781 -0.0772  0.0624
 6403W        W10467   5.824   8.661   8.620 -0.0247  0.0869 -0.1846
 6404W        W10468   0.077   2.618   2.771 -0.0489  0.0146  0.0523
 6405W        W10469  10.498   7.328  10.816 -0.0908  0.1307  0.2842
 6406W        W10470   8.862   6.756  11.093 -0.1291 -0.0106  0.0902
 6407W        W10471   4.148   6.416   8.798 -0.2530 -0.1853 -0.1784
 6408W        W10472   6.095   0.206  10.776  0.2054 -0.1428 -0.0512
 6409W        W10473   9.416   3.082   9.283 -0.3177  0.1005  0.0743
 6410W        W10474   1.697   0.948   1.575  0.0509 -0.0398  0.0190
 6411W        W10475   5.116   1.100  11.044 -0.0175 -0.1540  0.3817
 6412W        W10476   4.140   5.197   1.041  0.2718  0.2389  0.1684
 6413W        W10477   7.185   6.640  10.884  0.1583  0.1526  0.0438
 6414W        W10478   1.492   5.860   0.375 -0.4328 -0.2043  0.0551
 6415W        W10479   7.869   5.054   3.550  0.0198  0.1373 -0.4460
 6416W        W10480   0.643   8.238  11.029 -0.1389  0.0559  0.0560
 6417W        W10481   6.049   8.207  11.502  0.1532  0.0710  0.2241
 6418W        W10482  10.640   8.210   8.526  0.4109 -0.1036  0.3254
 6419W        W10483   5.240   8.728  10.748 -0.3644 -0.2132  0.0408
 6420W        W10484   2.793   7.991  10.744 -0.3014  0.1698 -0.0629
 6421W        W10485   9.677   2.898   2.149  0.0264  0.0368 -0.0936
 6422W        W10486   0.100   3.267   9.163 -0.1413 -0.1521  0.2412
 6423W        W10487   3.740   8.876  10.894 -0.0045 -0.2011 -0.0956
 6424W        W10488   5.101   7.885   8.774  0.1675  0.2720  0.0655
 6425W        W10489   7.004   3.908   9.403  0.0572  0.0475  0.0715
 6426W        W10490   8.466  10.258   3.378  0.2539 -0.0719 -0.2774
 6427W        W10491   1.762   6.896   1.864  0.0805  0.2348 -0.1507
 6428W        W10492   6.951   0.456  10.513  0.2159  0.1297  0.1383
 6429W        W10493  10.154   1.777   8.621  0.3702 -0.1690 -0.2280
 6430W        W10494   4.195   9.062   9.355  0.0994 -0.2615 -0.0205
 6431W        W10495   4.907   2.279   2.920  0.0044 -0.0322  0.2023
 6432W        W10496   2.950   0.964   8.179 -0.0856  0.0926  0.3988
 6433W        W10497   0.266   0.892   1.285 -0.0823  0.0567 -0.2136
 6434W        W10498  10.174   9.520   1.200  0.0158  0.0367 -0.0883
 6435W        W10499   1.879   9.586   2.129 -0.0681 -0.2482  0.0198
 6436W        W10500   1.323   6.749  10.165  0.2079  0.2620  0.1730
 6437W        W10501   2.079   2.991   2.989 -0.0612  0.1125 -0.2093
 6438W        W10502   0.870   0.971   1.268 -0.2503  0.0882  0.0854
 6439W        W10503   0.047   0.535   7.298 -0.6083 -0.1222 -0.0579
 6440W        W10504   7.326   6.049  10.873  0.1205  0.0882  0.0556
 6441W        W10505   5.325   0.147   3.536 -0.1460 -0.2026 -0.1967
 6442W        W10506   9.650   8.639   0.072 -0.2987 -0.2058  0.1498
 6443W        W10507   4.286   1.723   0.660 -0.4507 -0.0748 -0.1013
 6444W        W10508   9.923   5.025  10.410 -0.4179  0.2578 -0.2212
 6445W        W10509   2.403   3.830   3.583  0.0209  0.2619 -0.2176
 6446W        W10510   1.500   8.637   0.692  0.2217  0.0019 -0.0695
 6447W        W10511   1.297   5.645   1.786  0.0722  0.0239  0.2737
 6448W        W10512   0.530   0.533   8.543  0.2102 -0.1228  0.1531
 6449W        W10513   8.723   3.788  11.381  0.0750 -0.0021 -0.0890
 6450W        W10514   5.311   5.326   8.920 -0.2577 -0.1222  0.1851
 6451W        W10515   0.552   5.405  10.439 -0.0053 -0.1267  0.0967
 6452W        W10516   2.972   3.128   8.396 -0.2325  0.1228  0.1126
 6453W        W10517   0.531   3.521   0.429 -0.0845 -0.1928 -0.0347
 6454W        W10518   7.868   7.987   8.837 -0.0553 -0.4385 -0.1634
 6455W        W10519   3.836   7.628   3.952 -0.2114  0.2294 -0.0455
 6456W        W10520   8.821   7.863   4.537  0.0994  0.0823 -0.1229
 6457W        W10521   0.322  10.562   9.580  0.2190  0.4106  0.2490
 6458W        W10522   1.056   2.262  10.332 -0.4522  0.1150 -0.3552
 6459W        W10523   1.227   7.167  10.915 -0.2287  0.1818  0.1997
 6460W        W10524   9.894   3.320   2.093  0.1943  0.2290 -0.0068
 6461W        W10525   9.201   5.383   9.637 -0.0980  0.0664 -0.2739
 6462W        W10526   0.622   2.228   7.833  0.1339 -0.1053  0.0164
 6463W        W10527   9.683   7.795  10.144  0.0701  0.4174 -0.3005
 6464W        W10528   8.716   2.237   0.626 -0.0972  0.0701  0.2227
 6465W        W10529  10.502   0.847  10.487 -0.1167 -0.0920 -0.0595
 6466W        W10530   4.413   3.162  11.247  0.2400 -0.3647 -0.1915
 6467W        W10531   2.445   8.151  11.081  0.2963  0.0244  0.2441
 6468W        W10532   7.487   7.134  10.172 -0.0093 -0.4005 -0.0594
 6469W        W10533   9.201   9.609   0.276  0.2537  0.0427  0.2016
 6470W        W10534   5.376   0.612  10.704  0.5090 -0.1347  0.2458
 6471W        W10535   1.759   9.803   8.548 -0.2003  0.0686  0.1640
 6472W        W10536   7.286   0.296  10.822  0.1003  0.2592  0.0684
 6473W        W10537   3.354   6.541  10.038  0.2247  0.0360 -0.2215
 6474W        W10538   2.376   2.454   1.863 -0.0698  0.1564  0.2705
 6475W        W10539   6.860   6.332   7.942  0.0227 -0.2730 -0.2371
 6476W        W10540   5.686   5.368   9.276 -0.4461  0.1280 -0.0556
 6477W        W10541   0.966   3.785  10.122 -0.2129 -0.3735 -0.4800
 6478W        W10542   7.152   4.712   3.938  0.0631 -0.1565 -0.0584
 6479W        W10543  10.028   5.040   0.652 -0.4103 -0.2859 -0.0384
 6480W        W10544   0.620   0.329   7.996  0.0361  0.0158 -0.0679
 6481W        W10545   8.045   7.492   8.891  0.1374  0.2032  0.0683
 6482W        W10546   6.017   3.610  11.507  0.1383  0.0063 -0.0634
 6483W        W10547   6.865   7.596   3.029  0.2492  0.1345 -0.3804
 6484W        W10548   3.145   8.052   8.838  0.0949  0.1034  0.0795
 6485W        W10549   5.676   0.471   8.707 -0.1465 -0.2648 -0.5207
 6486W        W10550   2.316   1.387   9.419  0.2135 -0.0770  0.0834
 6487W        W10551   8.220   0.394   8.903  0.2007 -0.2387  0.0369
 6488W        W10552   1.029   6.950  11.319 -0.3422 -0.0021 -0.1273
 6489W        W10553   7.501   8.328  11.250 -0.1818  0.0995 -0.0215
 6490W        W10554   6.964   2.787   7.933  0.4024  0.2825  0.0764
 6491W        W10555   7.415   1.050   8.812 -0.0176 -0.1566 -0.0933
 6492W        W10556   5.447   5.295   7.960 -0.0880 -0.0801 -0.3102
 6493W        W10557   2.317   0.534   2.840  0.1285  0.3714 -0.1633
 6494W        W10558   8.494   1.529   8.351 -0.0686  0.2627  0.0405
 6495W        W10559   9.090   2.469  10.055  0.0680  0.0648  0.1247
 6496W        W10560   3.860   0.756   8.635 -0.2715 -0.1082  0.2621
 6497W        W10561   5.671   4.067   0.895  0.0003  0.0850  0.0960
 6498W        W10562   9.528   0.900   2.582  0.1150  0.1775 -0.1062
 6499W        W10563   7.982   8.560  11.311  0.0492 -0.0863  0.1529
 6500W        W10564   1.799   8.399   0.341 -0.0965 -0.1619 -0.1383
 6501W        W10565   8.507   9.449   0.528 -0.0445 -0.2057 -0.0319
 6502W        W10566   3.583   5.160  10.524 -0.2337  0.0705  0.1328
 6503W        W10567   8.574   0.886   8.903 -0.2450 -0.1678 -0.0318
 6504W        W10568   8.074   5.889   0.601 -0.0728  0.1641  0.1896
 6505W        W10569   6.919  10.396   9.740  0.0284 -0.0980 -0.0232
 6506W        W10570   5.104  10.130   2.634  0.0705 -0.2633  0.2466
 6507W        W10571   7.697   1.033   0.369  0.2760  0.1952 -0.1823
 6508W        W10572   3.539   9.003   1.047 -0.0682 -0.4503  0.6998
 6509W        W10573   3.814   0.022  11.475  0.2321 -0.2723  0.0227
 6510W        W10574   9.795   2.484   3.385 -0.2079  0.1352 -0.0182
 6511W        W10575   3.939   9.524   2.643 -0.2540  0.0661 -0.0052
 6512W        W10576   2.063   8.867   0.989  0.1172  0.1561  0.0654
 6513W        W10577   6.324   8.558  10.687  0.0577 -0.2445  0.3910
 6514W        W10578   7.124   1.783  10.923  0.1292 -0.0950  0.0718
 6515W        W10579   7.484   4.984   9.948 -0.1380 -0.2293  0.0588
 6516W        W10580   2.680   5.274   2.809  0.1091 -0.1399 -0.1365
 6517W        W10581   0.068  10.400   8.783 -0.1067 -0.0029 -0.0016
 6518W        W10582   2.292   8.609   8.264 -0.1698  0.1523 -0.4580
 6519W        W10583   9.245   2.032   9.672 -0.1845 -0.1066 -0.1151
 6520W        W10584   5.361  10.289   8.075  0.0872 -0.2029  0.0059
 6521W        W10585   3.172   6.429  11.039  0.0520  0.2895  0.0178
 6522W        W10586  10.002   2.501  10.036 -0.2180 -0.2628 -0.2065
 6523W        W10587   5.477   0.470   7.368  0.1320 -0.0542 -0.3391
 6524W        W10588   4.350   5.257   9.143  0.0068 -0.0959  0.1062
 6525W        W10589   3.845   6.394   0.180  0.0781  0.3614 -0.4662
 6526W        W10590   1.044  10.137  10.131  0.2112  0.4530 -0.0481
 6527W        W10591   6.653   3.312   9.478 -0.3426 -0.2484  0.1202
 6528W        W10592   7.575   0.298   1.770  0.2720 -0.0366 -0.2198
 6529W        W10593   7.431   6.124   8.635 -0.2270 -0.0084  0.1069
 6530W        W10594  10.220   3.137   8.099  0.0789  0.1412 -0.0758
 6531W        W10595   5.143   4.821   3.499 -0.0246 -0.1320  0.3575
 6532W        W10596   5.323   6.187   1.255  0.1451  0.2489  0.2912
 6533W        W10597   8.310   4.395   2.944  0.0247 -0.1109 -0.0156
 6534W        W10598   5.029   5.857   2.147  0.1224 -0.1323  0.1182
 6535W        W10599   2.130   5.360  11.356  0.0654  0.0307  0.0405
 6536W        W10600   3.569   1.856   2.388  0.1088  0.0922 -0.2401
 6537W        W10601   1.087   0.042  10.023 -0.1407 -0.3140 -0.3856
 6538W        W10602   7.778   6.199   1.833  0.1303 -0.3744 -0.1259
 6539W        W10603   9.171   9.940   8.513  0.3776  0.0700  0.1738
 6540W        W10604   2.585   3.384  10.681  0.4718  0.1168 -0.0259
 6541W        W10605   5.154  10.365   7.602  0.0924  0.1747 -0.1674
 6542W        W10606   2.372   4.352  11.443 -0.3579  0.2681  0.1387
 6543W        W10607   2.434   4.929  11.287 -0.1365  0.1426 -0.1068
 6544W        W10608   7.154   9.518   1.725 -0.1925  0.1243  0.0514
 6545W        W10609   3.398  10.637   0.245  0.0843  0.1833 -0.1535
 6546W        W10610   8.302  10.554   2.869 -0.0586  0.1263 -0.1684
 6547W        W10611   0.346   9.023   9.617  0.3294  0.4162 -0.2385
 6548W        W10612   0.973  10.051   0.485 -0.2146  0.0646  0.0553
 6549W        W10613   1.920  10.274   0.735 -0.2781 -0.1052 -0.0736
 6550W        W10614   1.379   9.777  11.219 -0.2796  0.0371  0.3925
 6551W        W10615  10.470   2.274   0.499  0.1013 -0.1528  0.1042
 6552W        W10616   7.300   1.342  10.847  0.1783 -0.1205 -0.1713
 6553W        W10617   9.288   1.995   9.004  0.0804  0.1165 -0.0291
 6554W        W10618   7.372   5.837   2.277 -0.0998 -0.1738  0.0509
 6555W        W10619   4.653  10.426  11.195  0.0299  0.0143  0.0169
 6556W        W10620   8.120   4.106   8.272  0.0071  0.1670 -0.2282
 6557W        W10621   3.147   5.208   9.935 -0.0412 -0.1071  0.2450
 6558W        W10622   3.955   5.089   1.648 -0.0057 -0.1568  0.1412
 6559W        W10623   1.854   1.201  10.867 -0.0786  0.2507 -0.0048
 6560W        W10624   2.494   4.949   9.431 -0.1370  0.0758 -0.2389
 6561W        W10625   5.527   8.175   0.495 -0.0952 -0.0313 -0.0631
 6562W        W10626   8.600   7.372   7.609  0.1305 -0.2739  0.1072
 6563W        W10627   9.329   2.598   1.985 -0.1451 -0.0462  0.1423
 6564W        W10628   1.787   7.468   1.912  0.1591 -0.1364 -0.4055
 6565W        W10629   1.631   7.676   1.424  0.1670  0.3116  0.0562
 6566W        W10630   2.701   1.673  10.946 -0.3147 -0.1342 -0.0723
 6567W        W10631  10.016   8.637   9.803 -0.0531 -0.0104 -0.0775
 6568W        W10632   9.372   2.486   1.397 -0.0945  0.4178  0.1138
 6569W        W10633   9.978   4.180   1.922 -0.0089  0.1439 -0.0882
 6570W        W10634  10.420   6.983   8.764 -0.0084 -0.1969  0.2302
 6571W        W10635   5.985   5.181   7.932 -0.1608  0.4335 -0.0439
 6572W        W10636   5.627  10.329   3.699  0.0879 -0.1104  0.0627
 6573W        W10637   6.248   0.219   0.893 -0.0859  0.1246 -0.0894
 6574W        W10638   0.441   8.639   3.697 -0.0967 -0.0778 -0.1259
 6575W        W10639   3.325   5.524   2.766  0.2137  0.3010  0.0983
 6576W        W10640   6.815   6.355   0.707  0.2162  0.1881  0.0708
 6577W        W10641  10.165   6.194   8.233  0.2582  0.0949 -0.0830
 6578W        W10642   9.684   9.884   7.774 -0.0704 -0.0779  0.0880
 6579W        W10643   5.417   1.737   9.773  0.2404 -0.0742 -0.2353
 6580W        W10644   4.354  10.059   3.293  0.1634  0.1686  0.2744
 6581W        W10645   4.279   2.966   3.107 -0.0925 -0.0908 -0.3222
 6582W        W10646   9.077  10.117  11.010 -0.0328  0.0622 -0.1741
 6583W        W10647   8.025   5.966   1.464 -0.2029 -0.2156 -0.1647
 6584W        W10648   7.878   9.926   8.309 -0.4718  0.1298 -0.1697
 6585W        W10649   3.960   6.143   9.536  0.0291 -0.2584 -0.1219
 6586W        W10650   3.136   0.514   9.250 -0.1874 -0.0611  0.0505
 6587W        W10651   5.558   5.818   8.941  0.0318 -0.2354  0.1937
 6588W        W10652   3.367   4.190  10.262 -0.1857  0.0526 -0.0748
 6589W        W10653   8.954   4.079   1.851  0.0531 -0.1456 -0.2327
 6590W        W10654   0.806   9.574   0.626  0.0783 -0.3547 -0.0548
 6591W        W10655   5.407   6.684   1.865 -0.2464  0.1313  0.0829
 6592W        W10656   3.995   1.729  11.316 -0.0342  0.1457 -0.0937
 6593W        W10657   2.265   1.708   2.223  0.1645 -0.1199 -0.0025
 6594W        W10658   5.726   8.265   9.932  0.5783  0.0872 -0.0500
 6595W        W10659   2.904   8.864   9.677 -0.2475 -0.2169  0.3560
 6596W        W10660   5.176   6.599   0.998 -0.6183 -0.4155  0.2453
 6597W        W10661   0.260   1.586   9.470 -0.4286 -0.0555 -0.1926
 6598W        W10662   6.517   0.391   9.514  0.5041  0.1346 -0.0798
 6599W        W10663   1.153   0.988   9.723 -0.0857  0.2118  0.2646
 6600W        W10664   5.198   2.376   8.058  0.3335 -0.3641  0.3267
 6601W        W10665   1.169   6.171  10.421  0.0276 -0.0405  0.3665
 6602W        W10666   2.334  10.427   1.126  0.2150 -0.1815  0.1181
 6603W        W10667   8.287   0.581  11.347  0.0733 -0.1883  0.0218
 6604W        W10668   6.462   5.896   9.369  0.0060  0.2757 -0.4440
 6605W        W10669   5.556   1.730   4.242 -0.1365 -0.3028  0.0791
 6606W        W10670   3.239   4.329   2.398  0.1007 -0.1948 -0.0239
 6607W        W10671   9.167   9.578   9.673 -0.2629  0.1046  0.0593
 6608W        W10672   7.701   3.887   8.023  0.0930  0.1161 -0.0794
 6609W        W10673   2.781   7.681   1.332  0.0102 -0.2599 -0.1398
 6610W        W10674  10.239   5.344   8.644 -0.2234  0.0935 -0.1212
 6611W        W10675   1.922   1.212   8.107 -0.1168  0.1144  0.0508
 6612W        W10676   4.585   2.098  10.109  0.3760  0.0566 -0.1181
 6613W        W10677   7.290   6.780   8.766 -0.2236  0.0408  0.2102
 6614W        W10678   5.820  10.479   7.888  0.0155 -0.2181 -0.0774
 6615W        W10679   9.553   2.006   1.168  0.2369 -0.1571  0.1122
 6616W        W10680   3.668   6.796   7.509 -0.0783  0.0821 -0.2081
 6617W        W10681   8.996   5.024   9.414 -0.5434  0.1569 -0.2147
 6618W        W10682   0.938   9.325   2.975  0.1757 -0.0869  0.0710
 6619W        W10683   5.553   3.992   9.067 -0.2351  0.2519  0.0979
 6620W        W10684   4.294   1.038   9.505  0.1191 -0.3847  0.1673
 6621W        W10685   3.353  10.037   9.531  0.1280 -0.2320 -0.0385
 6622W        W10686   5.922   9.456  11.435  0.0333  0.2303 -0.3439
 6623W        W10687   5.029   6.673   1.569  0.3114 -0.0599  0.4061
 6624W        W10688   8.984   9.226   0.579 -0.3533  0.1425  0.1694
 6625W        W10689   2.274   6.461  11.519 -0.2912 -0.1642  0.3249
 6626W        W10690   6.369   1.274   4.089 -0.3067 -0.1720 -0.0487
 6627W        W10691   6.248   2.830   0.737  0.0543  0.0797  0.0752
 6628W        W10692   2.242   7.532  10.498  0.0018  0.1524  0.2095
 6629W        W10693   4.615   7.541   2.644  0.1980 -0.1976  0.0323
 6630W        W10694   8.152   8.174   2.302  0.1073  0.0169 -0.3996
 6631W        W10695   0.010   3.810   9.834 -0.5141  0.3491  0.0161
 6632W        W10696   4.756   1.274   2.646  0.2623 -0.1538 -0.1644
 6633W        W10697   1.732   4.132   2.385  0.1979 -0.0229 -0.0929
 6634W        W10698   6.235   4.896  11.262  0.1021  0.2144 -0.1201
 6635W        W10699   6.773   0.506   3.333 -0.0562 -0.3578 -0.1235
 6636W        W10700   8.035   8.458   3.123 -0.0449  0.0497  0.1066
 6637W        W10701   8.358   0.469   2.491 -0.1658 -0.0441 -0.1581
 6638W        W10702   9.329   2.990   0.204 -0.0210 -0.0133 -0.2064
 6639W        W10703   5.837   4.793   3.681  0.3482  0.0150  0.0225
 6640W        W10704   2.537   3.915   2.642  0.1699  0.0840 -0.0778
 6641W        W10705   1.343   4.288  11.249  0.1928  0.1194  0.0410
 6642W        W10706   3.178   4.545   8.756  0.0483 -0.1211  0.3882
 6643W        W10707   7.694   9.043   9.577  0.0414 -0.2961 -0.2565
 6644W        W10708   1.574  10.522  10.062 -0.0350 -0.2160  0.0705
 6645W        W10709   6.113   0.287   1.875  0.0750 -0.0277  0.0817
 6646W        W10710   4.543   1.978   9.629  0.2977 -0.2014  0.1129
 6647W        W10711   0.261   9.631   0.691 -0.1543  0.3137  0.1853
 6648W        W10712   6.347   6.427   0.323 -0.3733  0.1502  0.3700
 6649W        W10713   1.509   5.600   2.776  0.0179  0.2831 -0.0875
 6650W        W10714   1.011   0.053   8.728  0.2655 -0.1041 -0.0588
 6651W        W10715   4.397   4.558  10.302 -0.2263  0.0533  0.2724
 6652W        W10716   6.701   0.384   1.983  0.0780 -0.2636 -0.1132
 6653W        W10717   5.502   0.304  10.324  0.1933  0.2084 -0.1882
 6654W        W10718   4.556   3.069   1.172  0.1754 -0.1165  0.2659
 6655W        W10719   5.358   8.298   2.766 -0.2998 -0.0848 -0.1193
 6656W        W10720   2.721   0.576   0.885 -0.5108  0.3708  0.1313
 6657W        W10721   7.864   9.650   1.179 -0.0195 -0.1060 -0.3643
 6658W        W10722   5.468   9.377   7.561  0.2869 -0.3012  0.5043
 6659W        W10723   4.596   8.284   9.128 -0.1884 -0.1801  0.1160
 6660W        W10724   3.239   9.135  11.243  0.1352  0.0990 -0.0232
 6661W        W10725   4.933   0.840   2.788 -0.2430 -0.2196  0.1504
 6662W        W10726   4.343   8.522   9.463 -0.3447 -0.2599  0.0998
 6663W        W10727   0.991   1.327  11.531 -0.3219  0.1385 -0.2213
 6664W        W10728   2.593   1.828   0.259 -0.0593  0.0249 -0.0393
 6665W        W10729   0.970   1.074   2.416 -0.0463 -0.1377 -0.0577
 6666W        W10730   6.293   3.581   8.165 -0.0340 -0.4158  0.2163
 6667W        W10731   5.757  10.425   8.423  0.0650 -0.2858 -0.0383
 6668W        W10732   8.396   4.200  11.506  0.1033  0.1016 -0.2638
 6669W        W10733   9.730   1.533   1.157  0.0312 -0.0226  0.2026
 6670W        W10734   2.503   5.796  11.449  0.0241 -0.0898  0.2941
 6671W        W10735   7.610   2.171   0.052  0.3127  0.0186  0.2452
 6672W        W10736   0.861   9.922   0.991  0.1943 -0.2116  0.1262
 6673W        W10737   4.640   4.781   8.308  0.2389  0.0684  0.0715
 6674W        W10738   4.583   8.146   3.175 -0.1726  0.0013  0.0069
 6675W        W10739   0.159   9.085   1.352  0.0085  0.5943  0.0422
 6676W        W10740   7.885   5.967   8.901  0.0237  0.2132  0.0539
 6677W        W10741   5.112  10.174  11.287 -0.1821  0.0284  0.0449
 6678W        W10742   6.416   0.214   7.411 -0.0534 -0.1828  0.2344
 6679W        W10743   4.861   6.934   3.117  0.3432  0.1986  0.0182
 6680W        W10744   4.145  10.640   7.240 -0.4089  0.2977  0.3336
 6681W        W10745   4.110   4.601   3.751 -0.0930 -0.0297 -0.2134
 6682W        W10746   3.350   1.247   3.783  0.0213 -0.2779 -0.0710
 6683W        W10747   6.720   9.062  10.500 -0.0783  0.0560 -0.1155
 6684W        W10748   3.196  10.637   1.186 -0.0263  0.1105 -0.1008
 6685W        W10749   6.949   1.257   1.607 -0.3672  0.2658  0.3115
 6686W        W10750   3.385   2.583   0.631  0.1098 -0.1901 -0.1849
 6687W        W10751   6.833   8.315   0.023  0.0630  0.0876 -0.0510
 6688W        W10752   5.427   2.714   7.516  0.0127 -0.1222  0.2529
 6689W        W10753   0.508   4.644   1.481  0.4093  0.1833  0.1742
 6690W        W10754   2.367   2.910   2.197  0.0687  0.1516 -0.0772
 6691W        W10755   1.167   2.788  11.351 -0.2027 -0.0066 -0.0077
 6692W        W10756   8.153   6.113   8.486  0.1981  0.2105 -0.2583
 6693W        W10757   6.114   6.841   0.048  0.2571  0.1337  0.1511
 6694W        W10758   1.982   4.120  10.780  0.2563 -0.2213 -0.1920
 6695W        W10759   6.265   2.918  10.915 -0.1965 -0.0361 -0.1026
 6696W        W10760   1.271   4.069   9.805  0.1543 -0.1797 -0.4443
 6697W        W10761   5.005   0.649   2.094  0.1821 -0.1207  0.1830
 6698W        W10762   0.478   3.088   0.103  0.1485 -0.0779 -0.1315
 6699W        W10763   2.612   4.344   3.986  0.0617 -0.2702 -0.0426
 6700W        W10764   7.605   7.940   9.961 -0.2263  0.1185  0.0834
 6701W        W10765   4.739   2.558  11.017  0.2183 -0.0469  0.1523
 6702W        W10766   9.084   1.069   2.850  0.1272 -0.2957  0.3801
 6703W        W10767   5.094   9.125   1.108  0.0351 -0.4220  0.2818
 6704W        W10768   7.011   1.202  11.226 -0.1112 -0.2285 -0.0133
 6705W        W10769   2.007   6.628   9.079  0.1524 -0.0280  0.0952
 6706W        W10770   3.709   9.787   0.358 -0.0567 -0.1440  0.1292
 6707W        W10771  10.281   5.638   2.151  0.2500 -0.1083  0.0167
 6708W        W10772   0.015   3.443   3.059 -0.0234 -0.0647 -0.0436
 6709W        W10773   2.043   7.373   0.869 -0.1681 -0.0880 -0.2005
 6710W        W10774   5.134   0.444   2.611 -0.1332  0.1750 -0.1230
 6711W        W10775   2.242   0.610  10.015  0.2019  0.0120 -0.1538
 6712W        W10776   8.366   3.484  10.038 -0.1985 -0.0586  0.0036
 6713W        W10777  10.239   8.322   7.645  0.1527 -0.0850 -0.0785
 6714W        W10778   4.031   2.727   8.696 -0.0403 -0.2447 -0.0308
 6715W        W10779  10.048   0.365  11.010  0.3450 -0.0747  0.2345
 6716W        W10780   9.773   4.314   1.493  0.1571  0.0944 -0.4321
 6717W        W10781   5.991   8.967  11.393  0.1617  0.3179  0.0266
 6718W        W10782   2.221   3.479   1.370  0.2474  0.0946 -0.1854
 6719W        W10783   6.248   1.817   3.221 -0.0330 -0.0682  0.0017
 6720W        W10784   6.664   3.370   8.471  0.4042 -0.2253  0.0298
 6721W        W10785   1.306   5.762   3.182  0.0338  0.1793 -0.0890
 6722W        W10786   5.017   0.262  10.750  0.3595  0.1370  0.2024
 6723W        W10787   6.645   2.272   1.844 -0.0205 -0.3192  0.0486
 6724W        W10788   7.810   9.948   9.922 -0.1052 -0.2882 -0.0200
 6725W        W10789   4.352   1.900   3.059  0.1609 -0.3436  0.3358
 6726W        W10790   0.353   0.183  11.014  0.0219  0.4739  0.0979
 6727W        W10791   9.390   8.271   0.542  0.3481 -0.0155 -0.3405
 6728W        W10792   5.967   2.655   9.506  0.1768 -0.0510 -0.1176
 6729W        W10793   7.490   9.181   3.240  0.1132 -0.3401  0.1305
 6730W        W10794   7.832   9.447   2.953  0.6983  0.0671  0.1162
 6731W        W10795  10.020   2.225   8.443 -0.0340  0.0940 -0.2373
 6732W        W10796   3.184   2.636   8.258 -0.1425  0.1484 -0.1038
 6733W        W10797   5.828   2.666   1.358  0.0137 -0.1917  0.1469
 6734W        W10798   3.996   2.234   8.931 -0.2125 -0.1755 -0.2967
 6735W        W10799   8.986   3.329  10.511 -0.2131 -0.3364  0.1884
 6736W        W10800   8.967   6.805  10.613  0.1724 -0.0137 -0.3087
 6737W        W10801   9.869   6.051   9.298 -0.2273 -0.0583 -0.1214
 6738W        W10802   7.322   5.501   9.596  0.3709 -0.0550  0.0631
 6739W        W10803   4.996   0.972   0.128 -0.0981 -0.0568  0.1233
 6740W        W10804   2.115   1.096  10.451  0.3461 -0.2308  0.0906
 6741W        W10805   3.136   9.023   0.144  0.3128 -0.2470  0.2049
 6742W        W10806   9.558   4.536  10.175 -0.1506  0.0935  0.3262
 6743W        W10807   6.285  10.560   1.415  0.0872 -0.3013 -0.0708
 6744W        W10808   9.879   2.679   1.354 -0.1763 -0.0818  0.1015
 6745W        W10809   2.130   2.481  10.914  0.0897 -0.2352 -0.1618
 6746W        W10810   4.699   8.924   0.359  0.2024 -0.1732 -0.1753
 6747W        W10811   1.020   3.754   2.912  0.2318  0.3620 -0.0706
 6748W        W10812   5.966  10.193   9.731 -0.0537 -0.0408  0.0742
 6749W        W10813   5.840   8.684   9.537 -0.1481 -0.1589 -0.3722
 6750W        W10814   3.357   8.087   8.356 -0.1511 -0.1337 -0.1793
 6751W        W10815   2.474   8.939   2.692 -0.0187  0.1611 -0.0621
 6752W        W10816   4.898   3.880   8.067  0.0150  0.3940  0.0723
 6753W        W10817   3.033   3.928   2.599  0.2153 -0.1122 -0.2543
 6754W        W10818   7.117   4.835   9.081 -0.1956  0.2597 -0.0805
 6755W        W10819   9.310   1.457   2.648 -0.1184  0.2939  0.1972
 6756W        W10820  10.655   1.337  10.670  0.2094 -0.1520 -0.2450
 6757W        W10821   0.895   1.417   2.846 -0.2290 -0.0890  0.0608
 6758W        W10822   3.025   5.044   0.170 -0.0306 -0.1128 -0.0353
 6759W        W10823   6.794   1.739   8.730  0.1369  0.0292 -0.1595
 6760W        W10824   7.514   3.802   9.478  0.0604  0.2252  0.0539
 6761W        W10825   2.025   5.624   0.972 -0.1622 -0.3703 -0.0865
 6762W        W10826   3.781   3.179   2.830  0.3023  0.0151 -0.2884
 6763W        W10827   8.889   8.805   9.686  0.2945  0.1125  0.1112
 6764W        W10828   0.143   0.058  10.000  0.1992  0.2918 -0.1206
 6765W        W10829   1.718   5.280   2.462  0.4125  0.1846  0.0925
 6766W        W10830   1.023   9.018   8.738 -0.3818  0.1768 -0.0007
 6767W        W10831   0.527   0.725   3.340  0.0794  0.1194 -0.0871
 6768W        W10832   6.229   8.989  10.946 -0.0961 -0.0858 -0.0652
 6769W        W10833   1.561   3.836  10.087 -0.0980 -0.1259  0.2305
 6770W        W10834  10.563   8.388   0.116  0.1627  0.0417  0.1089
 6771W        W10835   7.074   5.360   9.192 -0.1198  0.0751 -0.2684
 6772W        W10836   3.461   7.780  10.070  0.2263 -0.0776 -0.2833
 6773W        W10837   2.991   9.980  10.566 -0.0837  0.3330 -0.0911
 6774W        W10838   5.004   0.982  10.002 -0.1084 -0.0746  0.1098
 6775W        W10839   6.931   4.535   0.940 -0.0475 -0.2443 -0.0658
 6776W        W10840   2.640   7.617   0.127  0.1917  0.0473  0.0768
 6777W        W10841   6.058   8.038   8.791 -0.0384 -0.3113  0.1608
 6778W        W10842   0.751   1.822   8.068 -0.1516  0.3823 -0.2426
 6779W        W10843   2.692   2.399   1.439  0.0626  0.1062  0.1105
 6780W        W10844   6.039   2.804   8.533 -0.1571 -0.2781 -0.2450
 6781W        W10845   4.782   2.627   0.427 -0.2579  0.0570 -0.1433
 6782W        W10846   5.641   6.725   0.157  0.1411  0.0982 -0.1308
 6783W        W10847   7.864   9.394   9.942 -0.0215  0.0191  0.0884
 6784W        W10848   5.388   9.612   8.697 -0.1026  0.0290  0.1439
 6785W        W10849   1.248   9.907   8.388 -0.1991  0.0296 -0.1684
 6786W        W10850   4.803   2.672   3.800 -0.2227 -0.0631 -0.3578
 6787W        W10851   9.532   8.593   8.919  0.2022  0.4903  0.1894
 6788W        W10852   1.787   6.539   2.794  0.1824  0.0169  0.0823
 6789W        W10853  10.525   2.411   9.836  0.1895  0.1027 -0.1736
 6790W        W10854   1.796   0.261   9.214  0.4226  0.2734 -0.0209
 6791W        W10855   1.119   7.545   1.412 -0.0287  0.0099 -0.2253
 6792W        W10856  10.381   9.181   0.163 -0.2726  0.1610 -0.1736
 6793W        W10857   3.009   1.040  10.288 -0.0529  0.1374  0.2287
 6794W        W10858   9.246   2.018   8.454 -0.1292  0.1175  0.0632
 6795W        W10859   3.982   4.976   8.994 -0.0511 -0.0197 -0.0938
 6796W        W10860   2.765   5.880   8.563  0.0309 -0.1760  0.0710
 6797W        W10861   0.896   1.434   0.942 -0.0035  0.1181  0.0452
 6798W        W10862   5.863   6.326   2.796 -0.1661  0.1243 -0.0170
 6799W        W10863   9.056   2.607   0.543 -0.2863 -0.1158  0.1426
 6800W        W10864   8.676   5.311  10.468  0.0732 -0.0749 -0.0028
 6801W        W10865   6.767   7.789   2.186  0.1403 -0.3304  0.2455
 6802W        W10866   4.010   0.715   0.443 -0.2246  0.0454  0.1630
 6803W        W10867   0.970   1.540  10.156  0.3303  0.4028 -0.0517
 6804W        W10868   5.111   3.671  10.012  0.1554 -0.1264  0.3114
 6805W        W10869   0.497   0.119  11.529  0.2924  0.3424  0.4665
 6806W        W10870   4.404   5.988   8.137 -0.1200  0.2959  0.1361
 6807W        W10871   7.827   4.726  10.307  0.1488  0.2755 -0.1017
 6808W        W10872   9.306   4.417   9.793  0.2485  0.0737  0.1230
 6809W        W10873   8.651  10.531   0.214  0.1197  0.0432  0.0023
 6810W        W10874   4.795   4.846  10.938  0.4242  0.1183  0.2680
 6811W        W10875   7.806   8.253   0.140 -0.1561  0.0282 -0.1381
 6812W        W10876   4.075   1.543   9.053 -0.1240  0.1276 -0.0646
 6813W        W10877   6.829   2.286   2.659  0.1273 -0.2758 -0.0058
 6814W        W10878   4.053   0.600   1.356  0.2647 -0.0830 -0.0574
 6815W        W10879   7.563   2.123   1.680  0.1817  0.1082  0.2666
 6816W        W10880   4.087   1.958   9.346 -0.3903  0.0359  0.3996
 6817W        W10881   5.261   3.601  10.967  0.1647 -0.4953 -0.1083
 6818W        W10882   2.774   2.361   9.098 -0.1837  0.0566 -0.0296
 6819W        W10883   1.285   7.255  10.011  0.1192 -0.1580  0.1265
 6820W        W10884   7.957   0.836   9.091 -0.1515  0.0104 -0.0613
 6821W        W10885   6.874   3.193   2.702 -0.1007 -0.0993 -0.1965
 6822W        W10886   2.474   6.553   9.771 -0.3977  0.1419  0.0067
 6823W        W10887   9.852   9.737  11.221  0.1121 -0.3918 -0.1488
 6824W        W10888   1.732   9.620  10.594 -0.1029 -0.0734 -0.3182
 6825W        W10889   3.238   0.372   9.731 -0.0673  0.0385 -0.1602
 6826W        W10890   9.095   0.303   9.429  0.2114  0.0454  0.2412
 6827W        W10891   9.105   5.567   3.166 -0.2826 -0.1974 -0.1362
 6828W        W10892   8.340   0.594   2.956  0.0323  0.2350  0.1500
 6829W        W10893   4.912   7.128   7.318 -0.0349 -0.0102  0.0432
 6830W        W10894   7.157   1.055   9.271 -0.3244  0.0907  0.1525
 6831W        W10895   6.130  10.352   8.789 -0.4843 -0.0820  0.0690
 6832W        W10896   4.878   7.772   8.275 -0.1644  0.2274 -0.1924
 6833W        W10897   6.195   1.368   8.235 -0.4375  0.3488 -0.0833
 6834W        W10898   4.163   1.510   9.608  0.1434  0.1192 -0.0640
 6835W        W10899   3.063   5.277   2.455  0.0765 -0.3102  0.1637
 6836W        W10900   1.979   1.771   8.113 -0.2081 -0.0468 -0.1385
 6837W        W10901   1.892   0.246   9.974 -0.1183  0.1319 -0.1203
 6838W        W10902   4.790   7.633   3.189 -0.1404 -0.1683  0.3082
 6839W        W10903  10.021   5.183   2.226  0.0174 -0.0404  0.1429
 6840W        W10904   0.437   4.237   8.856 -0.3394  0.2894 -0.1679
 6841W        W10905   6.331   1.792  10.748  0.1282  0.3305  0.0472
 6842W        W10906   0.087   6.994   1.357  0.0482  0.0811 -0.0333
 6843W        W10907   3.271   7.261  10.240  0.2707  0.0481  0.1055
 6844W        W10908   0.790   2.590   3.061  0.4791 -0.1998 -0.0416
 6845W        W10909   1.885   0.785   8.377 -0.0141  0.2176  0.3217
 6846W        W10910   5.899   0.914   3.163  0.0932 -0.2378 -0.3107
 6847W        W10911   5.137   2.871   8.143  0.2954 -0.4091  0.0299
 6848W        W10912   6.558   8.755   1.290  0.0315  0.1792  0.0735
 6849W        W10913   8.563  10.655   1.165 -0.1743 -0.1615  0.0925
 6850W        W10914   9.983   0.935  11.166  0.2244  0.0389  0.1341
 6851W        W10915   8.509  10.145  10.311  0.0196 -0.0167 -0.0150
 6852W        W10916   9.261   0.659   9.676 -0.3472 -0.1365  0.0925
 6853W        W10917   9.978   6.254   3.254 -0.2876 -0.0485  0.0879
 6854W        W10918   8.018   1.225   1.875  0.1115 -0.0761 -0.5310
 6855W        W10919   9.575   5.019   0.946 -0.1450  0.3264  0.1897
 6856W        W10920   0.090   0.427   9.571 -0.3459 -0.3904 -0.1130
 6857W        W10921   7.334   9.988   9.709 -0.0298  0.0142 -0.1256
 6858W        W10922   2.809   1.431   0.441  0.3047  0.1031  0.0510
 6859W        W10923   2.225   0.914   0.263 -0.1416 -0.2854 -0.1562
 6860W        W10924   4.393   3.734   8.256  0.3755  0.0150  0.0641
 6861W        W10925   0.729   0.757   1.661 -0.0688  0.1737 -0.4349
 6862W        W10926   9.880   2.410   0.451  0.0352  0.1553 -0.3180
 6863W        W10927   1.865   9.788   9.638 -0.2526 -0.2096 -0.0342
 6864W        W10928   5.716   2.865   0.472  0.0158  0.2804  0.0724
 6865W        W10929   1.564   3.048  10.627  0.1275 -0.1100  0.0908
 6866W        W10930   8.521   1.641   3.445 -0.0247  0.5981 -0.1377
 6867W        W10931   1.271   3.869   3.456 -0.4241  0.0062 -0.0296
 6868W        W10932   6.061   4.906   3.269 -0.0477 -0.0951  0.0147
 6869W        W10933   6.007   3.903   2.139 -0.0320  0.1649  0.1075
 6870W        W10934   8.568   2.352   0.192  0.0700  0.0248  0.2145
 6871W        W10935   4.204   2.789   0.663 -0.1755  0.0250  0.0048
 6872W        W10936   4.139  10.346   8.349 -0.2108  0.1973 -0.1321
 6873W        W10937   9.374   3.422   9.688  0.0889  0.0114  0.0283
 6874W        W10938   1.321   9.574   0.766  0.0129 -0.3737 -0.1841
 6875W        W10939   8.135   5.926  10.656 -0.1347 -0.1648 -0.4302
 6876W        W10940   8.460   8.889  11.244 -0.2088  0.0495 -0.0112
 6877W        W10941   9.554   9.983   1.453  0.2757  0.0337 -0.1524
 6878W        W10942   4.669   5.685   2.498 -0.0361  0.0878 -0.2304
 6879W        W10943   8.591   9.522   7.796 -0.1432  0.1890 -0.1389
 6880W        W10944   4.787   3.909   9.577 -0.0321 -0.0416  0.0696
 6881W        W10945   3.649   4.511   0.822  0.2578 -0.3131  0.1886
 6882W        W10946   1.721   6.089   8.519  0.0019 -0.1616  0.2799
 6883W        W10947   8.501   6.515  10.726 -0.0220 -0.1595  0.1487
 6884W        W10948   0.353   4.951   0.282 -0.0073  0.3059  0.0509
 6885W        W10949  10.276   2.106  11.341  0.3105  0.0782  0.0700
 6886W        W10950   9.343   3.155   3.862  0.1260 -0.1825 -0.0852
 6887W        W10951   7.060  10.481   7.686  0.0622  0.1710  0.1206
 6888W        W10952   1.991   4.669  11.554 -0.2977  0.0311 -0.2200
 6889W        W10953   6.685   5.999   8.857  0.1430 -0.1068 -0.0367
 6890W        W10954   0.932   8.672   7.757  0.1493  0.2619 -0.0018
 6891W        W10955   2.294   3.249  10.228 -0.2896 -0.3754 -0.0949
 6892W        W10956   8.850   7.349   2.511 -0.0943 -0.0624  0.0274
 6893W        W10957   2.824   2.566  11.102  0.2976 -0.0978 -0.1560
 6894W        W10958   6.028   3.771   2.615 -0.0388 -0.0294  0.4325
 6895W        W10959   7.819   9.111   1.199 -0.0745  0.0750  0.0560
 6896W        W10960   0.062   3.458   1.908  0.1518 -0.2540 -0.0799
 6897W        W10961   4.791   2.077   1.886  0.3747 -0.1248  0.3324
 6898W        W10962   2.486   2.936   2.667 -0.3498 -0.2220  0.1196
 6899W        W10963   6.589   5.078   3.304 -0.2695 -0.0223  0.3601
 6900W        W10964   4.150   8.804   2.003  0.4065  0.1367  0.1970
 6901W        W10965   1.862   4.910   9.181 -0.1531 -0.0083  0.1043
 6902W        W10966   8.153   2.174   2.745  0.0714 -0.2077 -0.0535
 6903W        W10967   6.804   8.190   7.604 -0.2178  0.1354 -0.0578
 6904W        W10968   4.236   7.791   0.137  0.1305 -0.1276  0.0749
 6905W        W10969  10.066   9.848   1.593 -0.2070  0.1350  0.1681
 6906W        W10970   7.747   3.144   8.615  0.0896 -0.3212 -0.1136
 6907W        W10971   0.624   7.858  10.521 -0.1705  0.0213  0.1016
 6908W        W10972   1.584   0.824   9.935 -0.0022  0.5986 -0.3230
 6909W        W10973   4.615   6.065   2.935  0.0914 -0.3302  0.3763
 6910W        W10974   3.862   2.598  11.077  0.1902 -0.3097  0.1376
 6911W        W10975   3.975   4.230   2.802 -0.1319  0.0309 -0.0260
 6912W        W10976   8.252   5.390   3.004 -0.1729  0.2640 -0.0111
 6913W        W10977  10.034   1.131   3.066  0.0927 -0.4807  0.3968
 6914W        W10978   2.660   3.101   3.181  0.2597  0.0623 -0.3200
 6915W        W10979   7.269   8.346   2.906  0.0612  0.2407  0.2290
 6916W        W10980   7.139   1.977   0.145 -0.2617  0.0713 -0.1974
 6917W        W10981   5.786   9.173  10.510  0.2979 -0.0924 -0.1447
 6918W        W10982   6.772   1.568   2.673 -0.2902 -0.0568  0.3174
 6919W        W10983   2.461   5.847   2.348 -0.0501  0.0635 -0.3275
 6920W        W10984   2.437   6.124   0.306 -0.2053  0.0000  0.1652
 6921W        W10985   1.285   1.355   0.455 -0.0207  0.0742  0.3001
 6922W        W10986   7.105   2.927   1.177  0.1257 -0.1684  0.1458
 6923W        W10987   5.682   6.997  10.179 -0.2878 -0.1877 -0.2569
 6924W        W10988   8.669  10.196   0.977  0.0213  0.1336  0.0261
 6925W        W10989   8.565   1.013   9.806 -0.1189  0.1429 -0.1255
 6926W        W10990   5.405   1.258  10.167 -0.2451 -0.1638  0.2115
 6927W        W10991   6.885   6.830   9.060  0.3213  0.1933  0.5231
 6928W        W10992   0.687   4.057  10.486  0.0794  0.1639  0.0421
 6929W        W10993   4.374   5.269  11.558 -0.2138  0.0915 -0.3609
 6930W        W10994   4.784   4.462   9.389 -0.1091  0.2308 -0.1577
 6931W        W10995   2.058   1.797   2.706 -0.1511  0.1704  0.0120
 6932W        W10996   1.791   5.051  10.362 -0.0452 -0.2134 -0.1358
 6933W        W10997   1.845   7.076   9.244  0.3796 -0.0950 -0.0106
 6934W        W10998   2.907   5.731   2.957 -0.3151  0.0384  0.1915
 6935W        W10999   5.329   6.182   9.253  0.1367  0.2134 -0.1011
 6936W        W11000   6.944   4.350   9.141 -0.2944  0.1404  0.4268
 6937W        W11001   8.364   5.402  10.965 -0.0460  0.0523  0.1335
 6938W        W11002  10.474   0.937   3.051  0.2099 -0.1526 -0.1412
 6939W        W11003   5.396   3.142  10.816  0.1133  0.1731 -0.1239
 6940W        W11004   2.971   6.419   1.995 -0.1167 -0.3096 -0.1470
 6941W        W11005   0.478   0.926   8.137 -0.0313  0.2589 -0.1138
 6942W        W11006   7.668   7.080   9.648  0.1260  0.0604  0.3140
 6943W        W11007   9.215   3.908   2.271 -0.0490 -0.0717  0.2398
 6944W        W11008   0.044   3.812   2.276 -0.0735 -0.1421 -0.2929
 6945W        W11009   0.666   1.644   2.362 -0.1741  0.2150  0.0450
 6946W        W11010   3.011   5.411   3.617 -0.1615  0.1102  0.0134
 6947W        W11011   2.250   9.625   8.719 -0.0019 -0.2873  0.3955
 6948W        W11012   4.704   1.284  10.815 -0.0604 -0.0837  0.0901
 6949W        W11013  10.004   5.206   0.088  0.1377 -0.1121  0.0473
 6950W        W11014   7.305   5.962   9.743  0.2167 -0.0992  0.2267
 6951W        W11015   7.567   8.798  11.055 -0.0588  0.1591  0.1361
 6952W        W11016   1.256   1.088  10.190 -0.0603  0.1780 -0.4058
 6953W        W11017   0.515   0.504   2.074  0.0180 -0.2280  0.0015
 6954W        W11018   2.402   3.313  11.163 -0.1703 -0.1833 -0.0421
 6955W        W11019   3.629   8.929   1.625 -0.3225  0.2656 -0.1953
 6956W        W11020   9.023   6.318  10.803  0.0455 -0.0603  0.2599
 6957W        W11021   6.746   2.394   9.036 -0.1352  0.1535 -0.1250
 6958W        W11022   3.675  10.429   1.630 -0.1227 -0.0995 -0.2635
 6959W        W11023   5.582   2.959   2.319  0.0817  0.2528 -0.0429
 6960W        W11024   6.853   0.664   8.068  0.1158 -0.2522  0.1277
 6961W        W11025   5.640   0.442   9.843  0.2709  0.2911 -0.0856
 6962W        W11026   6.370   4.537   1.488 -0.2599 -0.1853 -0.2943
 6963W        W11027  10.335   9.911  11.212  0.2613  0.2544  0.0056
 6964W        W11028   9.270   6.493  10.363  0.0969  0.0342 -0.1396
 6965W        W11029   3.802  10.381   8.013  0.0094  0.2211  0.2839
 6966W        W11030   0.207   1.839   1.484 -0.0330  0.2004  0.2298
 6967W        W11031   8.666   4.173   9.363 -0.1343 -0.1285 -0.0050
 6968W        W11032   0.945   0.926   8.510  0.1907  0.2954  0.1142
 6969W        W11033   3.749   6.528  10.790 -0.1898 -0.1428 -0.2449
 6970W        W11034   9.261   6.364   9.820 -0.1771 -0.1360 -0.1819
 6971W        W11035   4.402   8.547   0.572 -0.1357 -0.0319 -0.0096
 6972W        W11036   7.119   5.213   3.701 -0.1124  0.0183 -0.0891
 6973W        W11037   7.319   4.280   3.592  0.3468 -0.0677  0.1231
 6974W        W11038   1.894   7.349  10.797  0.3529 -0.0071 -0.0443
 6975W        W11039   4.474   1.251   8.343 -0.0808  0.2262  0.2169
 6976W        W11040   5.309   4.859  10.314  0.4829  0.0763  0.2298
 6977W        W11041   0.126  10.191   9.824  0.0721 -0.0675  0.1092
 6978W        W11042   6.318   7.984   2.427 -0.1163 -0.0633 -0.2190
 6979W        W11043   4.553   5.760   1.873  0.1775 -0.1211  0.0638
 6980W        W11044   0.274   3.980  11.486  0.1405 -0.0147  0.2844
 6981W        W11045   3.079  10.069   7.634 -0.2155 -0.0930  0.5227
 6982W        W11046   1.409   3.697   8.786 -0.1847  0.0353 -0.2279
 6983W        W11047   1.612   2.250   9.563  0.1538  0.1621  0.0948
 6984W        W11048   7.289   1.674  10.392  0.1764  0.3301 -0.2910
 6985W        W11049   7.939   5.849   7.595 -0.2168 -0.0687 -0.0030
 6986W        W11050   8.875   0.243   8.183  0.1339  0.0589  0.1593
 6987W        W11051   6.424   7.715   1.409  0.0689 -0.0760  0.0457
 6988W        W11052   2.126   8.497   2.426 -0.2232  0.0495 -0.1445
 6989W        W11053   7.848   4.068   1.861 -0.1797 -0.1500 -0.0105
 6990W        W11054  10.282   3.193   9.308  0.0278 -0.1208 -0.1926
 6991W        W11055   5.568   3.737   1.865  0.0354 -0.0363  0.1134
 6992W        W11056   2.187   0.755   8.785  0.0166  0.1343 -0.0517
 6993W        W11057   2.809   1.191   9.385 -0.0018 -0.1743  0.2337
 6994W        W11058   3.314  10.547  10.808  0.0321 -0.1480 -0.0715
 6995W        W11059   3.628   3.106  10.241  0.2156 -0.2069 -0.1119
 6996W        W11060   7.286  10.586   2.604 -0.0162 -0.0869 -0.0522
 6997W        W11061   4.589   2.586   0.898 -0.1568  0.2542 -0.0303
 6998W        W11062  10.575   4.243   1.133  0.2151  0.0346  0.0671
 6999W        W11063   3.373   5.411   0.053  0.1504  0.1777  0.0838
 7000W        W11064   5.349  10.461   1.122  0.0886 -0.0335  0.0968
 7001W        W11065   7.593   9.568   0.212 -0.0845  0.3336  0.0183
 7002W        W11066   8.372   0.515   1.212 -0.2093  0.2718  0.2227
 7003W        W11067   0.119   2.108  11.559  0.1525 -0.1106 -0.2009
 7004W        W11068   0.550   9.241   8.734  0.0955 -0.2708 -0.0782
 7005W        W11069   5.247   0.880   9.143 -0.0171  0.2068 -0.2272
 7006W        W11070   5.752   5.772   7.842  0.0853  0.1136 -0.3438
 7007W        W11071   9.162   3.337   8.898  0.0852 -0.2296 -0.2956
 7008W        W11072   5.655  10.032   8.892 -0.0786 -0.2550  0.0319
 7009W        W11073   9.266   4.675   9.028 -0.0849 -0.0266 -0.0671
 7010W        W11074   8.712   9.920   2.295  0.1550  0.0103 -0.1005
 7011W        W11075   2.728   6.246   8.241  0.2064 -0.4827  0.1408
 7012W        W11076   4.690   6.766  10.312  0.0076  0.2130  0.0606
 7013W        W11077   4.789   7.666   0.308 -0.2271 -0.1237 -0.0786
 7014W        W11078   6.873   6.813   9.586 -0.2529  0.4055 -0.4167
 7015W        W11079   0.531   8.564   9.486 -0.0837 -0.0275 -0.2336
 7016W        W11080   1.915   7.562   8.482  0.0629  0.5153 -0.0119
 7017W        W11081   1.320   0.460  11.357 -0.2575  0.0453 -0.0512
 7018W        W11082   1.663   3.707   2.136 -0.2519 -0.1212 -0.1934
 7019W        W11083   7.429   4.570   3.105 -0.0985  0.1728 -0.1571
 7020W        W11084   0.687   0.783  10.902 -0.0191 -0.1251  0.0996
 7021W        W11085   8.140   4.152   8.790 -0.0320 -0.1433  0.0493
 7022W        W11086   5.450   8.316  10.393  0.0178 -0.0879  0.0196
 7023W        W11087   2.745   1.219   3.397 -0.1504  0.0021  0.0076
 7024W        W11088   0.263   7.060   8.830  0.0230 -0.2385  0.1132
 7025W        W11089   8.392   3.712   8.483  0.0086 -0.0915 -0.2956
 7026W        W11090   8.373   0.978  11.050  0.0425  0.3951 -0.1405
 7027W        W11091   5.392   5.653   8.482 -0.0916 -0.0834 -0.3587
 7028W        W11092   1.861   1.918   9.327 -0.1340  0.1462  0.0737
 7029W        W11093   0.407   4.171   2.406  0.0342 -0.1868  0.0413
 7030W        W11094   3.518   7.484   9.605  0.0116 -0.3564 -0.1934
 7031W        W11095   5.031   2.717   9.683  0.5954  0.0491  0.1298
 7032W        W11096  10.249   1.410   2.708 -0.2036 -0.2382 -0.0678
 7033W        W11097   5.586   4.518   0.630 -0.1176  0.0115  0.0074
 7034W        W11098   0.872   1.813   9.150  0.2985 -0.3949  0.0287
 7035W        W11099   7.158   7.203   9.764  0.1130  0.3109  0.1154
 7036W        W11100   6.340   9.887  10.839 -0.2458  0.0184  0.1276
 7037W        W11101   7.964   6.980  10.097  0.2927 -0.0724  0.1475
 7038W        W11102   5.855   5.882   9.358  0.1130  0.2491 -0.3196
 7039W        W11103   6.887   9.228  10.062  0.0654  0.1634 -0.2023
 7040W        W11104   1.512   5.201  10.767 -0.2288 -0.0686 -0.2274
 7041W        W11105   5.010   9.516   7.801  0.2200 -0.4620 -0.0214
 7042W        W11106   5.736   2.814  11.548 -0.0206 -0.0570  0.1916
 7043W        W11107   2.673   0.718   8.563 -0.0188 -0.1098 -0.0866
 7044W        W11108   2.713   5.748   3.437 -0.2237 -0.1021  0.0964
 7045W        W11109   5.459   2.334   2.724 -0.0838 -0.1649  0.1460
 7046W        W11110   9.015   1.768   9.998  0.0878 -0.2692  0.2069
 7047W        W11111   3.043   0.835   3.360 -0.1749  0.2601  0.1158
 7048W        W11112   5.783   3.115  11.168 -0.2211 -0.0768 -0.1786
 7049W        W11113   3.720   5.781   1.965 -0.2534 -0.2490 -0.2345
 7050W        W11114   9.186   3.724   0.069  0.1190 -0.1149  0.0057
 7051W        W11115   5.447   7.377   7.835 -0.0812  0.0218  0.1116
 7052W        W11116   7.214   3.703  10.881 -0.1320 -0.1081 -0.1786
 7053W        W11117   0.098   4.739   1.680  0.1209 -0.2180  0.1030
 7054W        W11118  10.095   7.040   9.635  0.1587 -0.0732 -0.0238
 7055W        W11119   9.348   3.287   2.321 -0.0477  0.2628  0.2593
 7056W        W11120   0.216   7.360   1.079  0.0504  0.0368 -0.2226
 7057W        W11121   4.865   0.978   1.122 -0.1862 -0.0187  0.2707
 7058W        W11122   4.041   8.631   3.633  0.1168  0.0129 -0.0648
 7059W        W11123   4.713   3.142   7.470  0.2318 -0.0137 -0.1057
 7060W        W11124   7.734   4.211   2.758 -0.2739 -0.0889  0.0284
 7061W        W11125   7.410   2.068   9.785 -0.1610 -0.0038 -0.0572
 7062W        W11126   4.085   7.316   0.230  0.5144 -0.1698  0.1265
 7063W        W11127   1.950   1.217   2.279 -0.3073  0.0779  0.0897
 7064W        W11128   8.470   5.332   9.365 -0.3055 -0.1499  0.2911
 7065W        W11129   2.079   8.670  11.395 -0.0789  0.0823 -0.1825
 7066W        W11130   4.576   6.565   8.797  0.0220 -0.0098  0.1971
 7067W        W11131   1.188   7.986   2.470  0.0564  0.2108 -0.2455
 7068W        W11132   3.467   9.106   7.567 -0.1879 -0.1571  0.3081
 7069W        W11133   0.483   4.680   9.847 -0.0995  0.0336  0.3332
 7070W        W11134   1.464   1.622   0.082  0.1606  0.0228  0.0635
 7071W        W11135   1.858   1.646  10.458 -0.1581  0.0917  0.0954
 7072W        W11136   7.416   7.036   4.173  0.1579  0.2141 -0.0593
 7073W        W11137   5.912   5.299   2.458 -0.1200  0.1166  0.0232
 7074W        W11138   3.541   8.231  11.435 -0.3469  0.0410 -0.0105
 7075W        W11139   3.969   3.932   8.089 -0.1723  0.3748  0.0846
 7076W        W11140   3.195   7.586  10.925 -0.0559 -0.0643  0.0732
 7077W        W11141   1.401   6.916   0.323  0.2284 -0.1766  0.2407
 7078W        W11142  10.384   8.428   2.280 -0.0538  0.1717 -0.0096
 7079W        W11143   9.817   3.336   9.431 -0.0224  0.2759  0.0840
 7080W        W11144  10.511   5.278   1.897  0.3172  0.0290 -0.1135
 7081W        W11145   4.107   0.583   9.572  0.0896 -0.5403 -0.0428
 7082W        W11146   5.410   0.309   0.042  0.0371 -0.1843 -0.0712
 7083W        W11147   2.923   8.846  10.774 -0.2045  0.2248 -0.0363
 7084W        W11148   9.171   2.857   9.645  0.1151 -0.0161  0.0776
 7085W        W11149   0.048   4.969   9.781  0.0764 -0.0020  0.4789
 7086W        W11150   9.452   5.151   9.193  0.1115 -0.0708  0.3014
 7087W        W11151   9.324   7.940   1.518 -0.0245  0.0372  0.1985
 7088W        W11152   9.585   9.895   9.573  0.3760 -0.1662  0.1645
 7089W        W11153   8.425   9.495   9.012 -0.1839 -0.0645 -0.1543
 7090W        W11154   9.373  10.593   3.210 -0.1503  0.0057  0.0953
 7091W        W11155   9.035   2.742  10.480 -0.1020  0.0569 -0.1230
 7092W        W11156   3.522   3.572   9.294 -0.1007 -0.0857 -0.1615
 7093W        W11157   1.224   8.798   1.152  0.0209 -0.0073 -0.1046
 7094W        W11158   5.161   3.525   3.907 -0.2223 -0.1187  0.2981
 7095W        W11159   2.908   0.331  10.557 -0.0923  0.2172  0.0848
 7096W        W11160  10.157   6.848   2.263  0.0013  0.2490  0.1569
 7097W        W11161   5.484   4.004  10.087  0.1827 -0.2628 -0.1648
 7098W        W11162   3.990   4.076   9.837  0.0100 -0.0821 -0.1931
 7099W        W11163   0.147  10.566   1.503 -0.0002  0.1896  0.2894
 7100W        W11164   1.305   2.429   2.875 -0.0085 -0.3135  0.0518
 7101W        W11165   7.273   7.338   1.847  0.2051 -0.1391  0.2346
 7102W        W11166   3.947   1.056   8.250  0.0185 -0.1894  0.2295
 7103W        W11167   5.562   7.608   3.238  0.0439  0.1554  0.2241
 7104W        W11168   5.567   8.182   7.830  0.1977  0.0475 -0.0888
 7105W        W11169  10.028  10.274   1.260 -0.3581 -0.5532 -0.7243
 7106W        W11170   4.027   6.588   2.293 -0.0226  0.1756 -0.1785
 7107W        W11171   8.284   5.889   9.437  0.2405  0.0138 -0.0350
 7108W        W11172   4.681   6.943   8.438 -0.1513  0.1126  0.0087
 7109W        W11173   7.155   8.212  10.338 -0.0896  0.2000 -0.2359
 7110W        W11174  10.529   8.033   9.699  0.2901 -0.0630 -0.1860
 7111W        W11175   4.313  10.189   8.831  0.0370 -0.2150  0.1381
 7112W        W11176   1.695   6.518   0.590  0.0237  0.3251  0.1198
 7113W        W11177   5.131   4.295   9.810  0.0851  0.1450  0.1929
 7114W        W11178   5.191   2.678  11.120 -0.0500  0.1143 -0.1224
 7115W        W11179   5.426   0.949  11.450  0.3094 -0.2548  0.2311
 7116W        W11180   1.773   8.034   8.799 -0.2819 -0.4073 -0.1400
 7117W        W11181   1.595   2.983   8.172 -0.1131 -0.1866  0.0938
 7118W        W11182   5.656   6.064   7.411  0.1870 -0.0904  0.0350
 7119W        W11183   0.021   1.053   0.803 -0.1195  0.1234  0.2024
 7120W        W11184  10.373   8.446   0.630 -0.2082 -0.0168 -0.1862
 7121W        W11185   6.204   2.739   2.162  0.1358 -0.0345 -0.0802
 7122W        W11186   2.970   8.775   2.295 -0.0640  0.1794 -0.0405
 7123W        W11187   0.294   2.532   3.770  0.2560 -0.0718 -0.3013
 7124W        W11188   7.692   0.368  10.543  0.0245  0.1302 -0.1094
 7125W        W11189  10.588   2.019  10.127 -0.4771 -0.1478  0.0777
 7126W        W11190   5.523   4.300   0.033  0.1073  0.0870 -0.2107
 7127W        W11191   0.149   4.803   1.168 -0.1585 -0.0861  0.2299
 7128W        W11192   6.961   4.136   8.628  0.2127  0.0171 -0.0324
 7129W        W11193   8.804   8.196  10.757  0.1198 -0.2141  0.1109
 7130W        W11194   0.091   9.024  10.614 -0.0370  0.0014  0.1071
 7131W        W11195   8.756   9.398   9.416 -0.0516  0.2605 -0.3333
 7132W        W11196   4.735   8.541  10.853 -0.3051  0.3504  0.0990
 7133W        W11197   0.691   4.928   8.328  0.1047  0.0982  0.2600
 7134W        W11198   7.469   9.750  10.200  0.1128  0.1020  0.2424
 7135W        W11199  10.618   7.809   2.789 -0.0605  0.0294  0.0303
 7136W        W11200  10.588   3.830   1.557 -0.0699  0.0783 -0.2766
 7137W        W11201   1.450   0.392   9.759  0.0972 -0.2464  0.1013
 7138W        W11202   1.930   6.171   0.245 -0.1139  0.0722  0.1727
 7139W        W11203   6.555   5.259   8.134 -0.0155  0.1971  0.3651
 7140W        W11204   9.900   3.926  10.069 -0.4236 -0.0115 -0.2159
 7141W        W11205   9.902   4.652  10.799 -0.2414  0.2240  0.3039
 7142W        W11206   3.951   2.227  11.459  0.1820 -0.3692 -0.0813
 7143W        W11207   7.318   5.336   0.240 -0.0115 -0.0384 -0.2079
 7144W        W11208   6.767   1.984   2.227  0.0752  0.1568  0.4605
 7145W        W11209   0.835   1.286   9.438 -0.0195 -0.2457  0.0129
 7146W        W11210   3.825   8.295   9.578  0.0526  0.0422 -0.0901
 7147W        W11211   8.903   3.707   8.577 -0.0916  0.1601 -0.0347
 7148W        W11212   3.265   4.845   0.550  0.2064 -0.1906 -0.3119
 7149W        W11213   4.805   4.425  10.653  0.0703  0.0852  0.2996
 7150W        W11214   4.504   1.215   0.772  0.0847  0.0218 -0.1599
 7151W        W11215   2.511   6.699  10.270 -0.1322  0.0901 -0.1633
 7152W        W11216   7.995   2.425   1.389  0.0106  0.0557  0.0617
 7153W        W11217   4.398   0.752   3.212  0.4413 -0.3293 -0.0486
 7154W        W11218   6.717   7.033  10.020  0.0581  0.0863  0.1258
 7155W        W11219   8.595   9.144   4.056  0.0163  0.4135  0.3741
 7156W        W11220   0.288   8.184   9.351 -0.1379 -0.2076  0.0327
 7157W        W11221   0.471   9.431   7.847 -0.0044 -0.0699 -0.0299
 7158W        W11222   1.989   5.162   8.705 -0.1003 -0.0979 -0.0876
 7159W        W11223   0.381   4.369  10.212 -0.0641 -0.1937 -0.0859
 7160W        W11224   8.205   8.315   1.430  0.1623 -0.1382  0.3330
 7161W        W11225   6.737   8.988   2.953 -0.1653 -0.1027 -0.1516
 7162W        W11226   5.156   8.412  11.151 -0.1759  0.1775  0.3631
 7163W        W11227   7.520   6.749   1.243 -0.2193 -0.0809 -0.1667
 7164W        W11228   6.928   0.865  10.781  0.3411 -0.0235 -0.0213
 7165W        W11229   9.509   1.455   0.242  0.0590  0.0547 -0.1623
 7166W        W11230   9.628  10.583   4.124  0.2037 -0.0195 -0.1971
 7167W        W11231   7.633   6.298   9.632 -0.5429  0.0389 -0.1797
 7168W        W11232   5.597   0.561  11.124 -0.0053  0.0110 -0.2927
 7169W        W11233   3.452   1.616  11.231  0.0831  0.1972  0.5708
 7170W        W11234   1.362   0.830   7.288 -0.0224 -0.1500  0.0141
 7171W        W11235   6.208  10.573   3.452 -0.0776 -0.3986  0.0618
 7172W        W11236  10.325   9.050   1.101 -0.2300  0.1539 -0.1989
 7173W        W11237   8.892   1.586   2.969 -0.2470  0.0543  0.1718
 7174W        W11238   7.457   1.764  11.359  0.1119 -0.0447 -0.0771
 7175W        W11239   4.037   6.161   1.511 -0.0197  0.0887 -0.1595
 7176W        W11240   2.768   6.253  11.431 -0.1281 -0.0516  0.0878
 7177W        W11241   7.750   7.166   9.131 -0.3168  0.1932 -0.5962
 7178W        W11242   1.250  10.273  11.457 -0.1139  0.2581 -0.0146
 7179W        W11243   2.805   8.673   0.261  0.3863  0.1890 -0.2102
 7180W        W11244  10.111   1.236   1.303  0.0662 -0.3669 -0.0993
 7181W        W11245   5.622   5.488   0.838 -0.1398 -0.2684 -0.1475
 7182W        W11246   7.640   1.910   3.177 -0.3458  0.0101  0.0460
 7183W        W11247   9.478   2.396   8.727  0.0184  0.0612  0.1774
 7184W        W11248   3.624   0.667   9.484 -0.2244  0.1329  0.1545
 7185W        W11249   4.290   8.782   1.223  0.0282  0.0061  0.0694
 7186W        W11250   5.617   3.249   0.181 -0.1791 -0.0946 -0.1585
 7187W        W11251   1.431   1.318   1.339 -0.1248  0.0453  0.1205
 7188W        W11252   4.063   8.143  11.448  0.2168 -0.0222 -0.2134
 7189W        W11253   0.646   0.829   9.350 -0.2031 -0.1917  0.0867
 7190W        W11254   0.646   6.134   8.644  0.1465  0.1560  0.0264
 7191W        W11255   3.511   4.541   1.348 -0.1153  0.1022 -0.4614
 7192W        W11256   8.745   3.875   0.861 -0.1742  0.1311 -0.1118
 7193W        W11257   3.935   3.246  10.697  0.1140 -0.1321  0.0790
 7194W        W11258   6.108   2.176   0.126 -0.0404 -0.0691 -0.1859
 7195W        W11259   3.331   4.225   9.038 -0.2002 -0.2890  0.0841
 7196W        W11260   8.844   4.561   9.573 -0.0203 -0.0466  0.1849
 7197W        W11261   8.527   3.089   9.769 -0.0905 -0.0209 -0.1391
 7198W        W11262   6.225   0.456   3.528 -0.2302  0.1376  0.1271
 7199W        W11263   7.725   2.565  10.060  0.3147  0.1716  0.0497
 7200W        W11264   0.718   8.255  11.519 -0.0464  0.0783  0.1683
 7201W        W11265   3.058   7.944   1.607  0.1221  0.1360  0.2964
 7202W        W11266   4.052   2.014   0.339  0.3616  0.0795 -0.0398
 7203W        W11267   9.935   2.173   2.968 -0.2875 -0.0636  0.0806
 7204W        W11268   3.200   2.456   9.863  0.1105 -0.1555  0.0230
 7205W        W11269   5.368   8.087   1.812 -0.0331  0.1043 -0.2313
 7206W        W11270   6.241   2.500   2.726 -0.1498  0.1364  0.0756
 7207W        W11271   5.463   7.644   0.452  0.1854 -0.0223  0.0817
 7208W        W11272   0.281   2.500  10.244  0.0964  0.1892 -0.1032
 7209W        W11273   0.547   1.653   1.878  0.3424 -0.2069 -0.1974
 7210W        W11274   3.750   9.665   1.001  0.0584 -0.1722 -0.1484
 7211W        W11275   4.272   4.504   0.874  0.0006 -0.0638  0.0767
 7212W        W11276   6.104   4.479   8.302  0.1276 -0.0561 -0.1776
 7213W        W11277   1.158   2.980  10.912  0.4133 -0.0799  0.3467
 7214W        W11278   7.003   3.186   7.629 -0.0013  0.1795  0.2648
 7215W        W11279   7.084   2.399   2.051  0.0540 -0.0428 -0.0885
 7216W        W11280   7.492   6.557   3.346  0.1381 -0.0262 -0.0182
 7217W        W11281   5.097  10.598   2.639 -0.2407 -0.0380  0.0266
 7218W        W11282   9.589   6.372   2.469 -0.0046  0.1000 -0.0302
 7219W        W11283   3.948   6.559   9.275  0.2488 -0.3850 -0.3798
 7220W        W11284   5.496   8.157  10.898 -0.0956 -0.0380 -0.0122
 7221W        W11285   6.835   1.840  10.543  0.1880 -0.2526  0.0017
 7222W        W11286   6.332   6.715   7.130 -0.3411 -0.2022 -0.1077
 7223W        W11287   6.050   0.303  10.145 -0.1236 -0.0222 -0.0070
 7224W        W11288   6.044   1.027  11.327 -0.4251  0.0925 -0.2844
 7225W        W11289   5.461   5.911  11.187  0.1080 -0.2822  0.0893
 7226W        W11290   7.347   8.684   9.444 -0.2172 -0.0786 -0.1465
 7227W        W11291  10.004   3.213   1.186 -0.0351 -0.1492 -0.2607
 7228W        W11292   6.732   6.449   1.939 -0.3518 -0.1451 -0.1592
 7229W        W11293   7.582   7.397   2.229  0.2667  0.1763  0.1032
 7230W        W11294   7.581   6.713  10.484  0.0753 -0.1291 -0.3707
 7231W        W11295   1.465   1.060   0.036 -0.1132 -0.0497 -0.0296
 7232W        W11296   2.166   4.073   9.567  0.1292  0.3661 -0.0604
 7233W        W11297   3.310   2.230   2.731 -0.4844  0.2378  0.0116
 7234W        W11298   0.636   4.510   2.967  0.0023  0.1766  0.3345
 7235W        W11299   7.877   7.508   3.286  0.3083 -0.2193  0.2116
 7236W        W11300   2.593  10.410  11.238  0.2274 -0.1357  0.0199
 7237W        W11301   9.549   0.224   1.037 -0.0792 -0.2047  0.4005
 7238W        W11302   5.964   0.709   2.211  0.2064  0.2412  0.2144
 7239W        W11303   0.209   1.107   9.271 -0.0441 -0.1494 -0.1754
 7240W        W11304   6.942   3.774   2.453  0.0510  0.0191  0.2214
 7241W        W11305   4.314   1.062   8.817  0.1077  0.0165 -0.0787
 7242W        W11306   0.721   3.145   8.350  0.1355 -0.2473  0.0171
 7243W        W11307   0.233   2.498  11.349 -0.1064 -0.0575  0.0316
 7244W        W11308   9.746   7.337   2.454 -0.1399  0.0762 -0.0953
 7245W        W11309   5.007  10.363  10.788  0.1765 -0.0016  0.2056
 7246W        W11310   5.211   4.274  10.859  0.0299  0.0070 -0.1039
 7247W        W11311   3.182   5.209   8.803  0.2003 -0.2054 -0.0348
 7248W        W11312   2.914   1.436  10.586 -0.2715  0.1116 -0.5434
 7249W        W11313   2.922   5.629   0.252  0.1796 -0.1054 -0.3315
 7250W        W11314   5.294   4.775  10.807 -0.1952 -0.1001 -0.1468
 7251W        W11315  10.435   9.034   9.001  0.1646  0.3748 -0.1694
 7252W        W11316   5.943   5.915   8.623  0.0747 -0.1609 -0.1441
 7253W        W11317   6.935   2.641  11.121  0.1607  0.3363  0.0287
 7254W        W11318   7.249   4.960   0.744  0.0293  0.3706  0.1111
 7255W        W11319   7.878   5.477   0.287  0.0794 -0.1290 -0.2266
 7256W        W11320   4.435   7.234   7.745 -0.0611  0.2004  0.0509
 7257W        W11321   1.791   2.290   8.863  0.1444 -0.1041  0.0769
 7258W        W11322   1.463   7.224   1.621  0.2531  0.1322  0.3090
 7259W        W11323   8.231   1.771   8.792 -0.0479  0.0558  0.2443
 7260W        W11324   4.316  10.491   0.708 -0.0153 -0.1371  0.1391
 7261W        W11325   0.204   2.128   4.069  0.0681 -0.1150  0.3096
 7262W        W11326   9.028   5.425  10.122  0.2062 -0.0955  0.1000
 7263W        W11327  10.227   6.067  11.349  0.0480 -0.1691  0.1068
 7264W        W11328   2.798   2.108   9.692 -0.1237 -0.0501  0.1263
 7265W        W11329   1.016   5.316   2.057  0.2725  0.3085  0.1158
 7266W        W11330  10.422   6.409  10.962 -0.1094  0.0093 -0.2442
 7267W        W11331   9.483   2.908  10.651  0.1554 -0.0745 -0.1020
 7268W        W11332  10.097   9.347   0.569  0.1471  0.0191  0.0296
 7269W        W11333   4.348   3.333   8.590 -0.1287 -0.1784 -0.1774
 7270W        W11334   1.538   7.679   2.281  0.2237 -0.0047  0.0567
 7271W        W11335   6.672   2.745   0.970  0.2310  0.2219 -0.2814
 7272W        W11336   6.364   4.370  11.219  0.0300 -0.0279 -0.1836
 7273W        W11337   7.040   4.061   2.832 -0.0083 -0.2895 -0.4188
 7274W        W11338   9.370   7.136   0.856 -0.0328  0.3554 -0.2031
 7275W        W11339   5.839   3.005   9.116 -0.0996 -0.0578 -0.2636
 7276W        W11340   4.912   8.607   0.037 -0.0658 -0.0358  0.0124
 7277W        W11341   6.318  10.582   7.816 -0.0781  0.2615 -0.0078
 7278W        W11342   7.576   2.829  10.445  0.3108  0.2399  0.2593
 7279W        W11343   6.127   1.452   0.748 -0.0847  0.2201 -0.0744
 7280W        W11344   1.355   2.994   9.926 -0.1090  0.1623  0.5321
 7281W        W11345   2.873   7.914   9.921  0.1137 -0.0339 -0.2435
 7282W        W11346   8.636   8.972   9.205 -0.1090 -0.0531  0.2445
 7283W        W11347  10.284   0.225   1.397  0.0322 -0.0966  0.0180
 7284W        W11348   8.639  10.469   7.431  0.0598 -0.3368  0.0116
 7285W        W11349   9.601   8.953   1.848 -0.2572 -0.1750 -0.1488
 7286W        W11350   2.626   9.291   9.834  0.0835  0.1224  0.1113
 7287W        W11351   4.394   7.574  10.570  0.2687  0.2513 -0.2517
 7288W        W11352   4.325   3.342   2.077  0.1317 -0.3231  0.1631
 7289W        W11353   8.022   2.730   3.936  0.1816 -0.1593 -0.0350
 7290W        W11354   8.389   3.410   1.528 -0.0029  0.1129 -0.1091
 7291W        W11355   0.503   8.723   1.183  0.2529 -0.0825 -0.0149
 7292W        W11356   4.855   1.005   3.264  0.2613 -0.1437 -0.2042
 7293W        W11357   0.343   2.268   8.738  0.5450  0.0035  0.0446
 7294W        W11358   6.784   8.236   0.595  0.6296 -0.1305  0.0438
 7295W        W11359   7.148  10.026   7.997  0.2377 -0.3786  0.3277
 7296W        W11360   9.541   1.089   9.814  0.1234 -0.0521 -0.1442
 7297W        W11361   4.271   4.287   2.271 -0.2344 -0.0232 -0.1879
 7298W        W11362   8.783   5.159   8.967  0.2251 -0.0734 -0.1244
 7299W        W11363   2.757   0.615  10.092 -0.1618 -0.1480  0.1090
 7300W        W11364  10.053   5.369   1.745  0.0147 -0.2564 -0.0501
 7301W        W11365   8.132   2.840   1.617  0.0015 -0.0119 -0.1494
 7302W        W11366   7.594   2.148   7.729  0.1099  0.1838  0.0230
 7303W        W11367   6.094   4.182   1.202  0.0655  0.3245  0.3275
 7304W        W11368   0.235   1.399   8.576  0.3597  0.1083 -0.1552
 7305W        W11369   3.082   1.966   8.999 -0.1026 -0.2372 -0.2761
 7306W        W11370   7.016   7.656   8.998  0.0179  0.1771  0.2499
 7307W        W11371   2.765   9.795   2.358 -0.2048  0.1957 -0.0178
 7308W        W11372   9.384   5.415   1.238  0.1842  0.2455 -0.1766
 7309W        W11373   8.474   5.779  10.323  0.1631  0.0733 -0.2558
 7310W        W11374   7.206   2.409   8.120 -0.1372  0.3589 -0.0412
 7311W        W11375  10.397   1.744   2.259  0.0132  0.1623 -0.0699
 7312W        W11376   5.991   9.579   2.529  0.0015 -0.0154 -0.1259
 7313ION    NA+11377   5.808   3.685   7.774 -0.2436  0.0568 -0.2070
 7314ION    NA+11378   2.629   1.816   7.935  0.1414 -0.1227  0.0045
 7315ION    NA+11379  10.167   5.868   1.281  0.5485 -0.1386 -0.0471
 7316ION    NA+11380   2.540   3.215   8.188  0.0338 -0.0366  0.4398
 7317ION    NA+11381   5.103   8.895   0.625  0.1337  0.1876 -0.0217
 7318ION    NA+11382   6.086  10.170   1.754  0.3163 -0.3913 -0.2139
 7319ION    NA+11383   3.036   1.467   8.985 -0.0254 -0.2435  0.1230
 7320ION    NA+11384   8.553   0.017   3.821  0.4031 -0.4875  0.1534
 7321ION    NA+11385   5.942   8.647   7.727 -0.1426  0.2102 -0.0469
 7322ION    NA+11386   9.251   6.380   2.114 -0.0962  0.1536  0.1235
 7323ION    NA+11387   2.951   2.702   1.875 -0.3687 -0.1345  0.1580
 7324ION    NA+11388   8.830   7.077  11.461  0.0788 -0.1009 -0.2128
 7325ION    NA+11389  10.264   7.871   8.585  0.2489  0.0054  0.1949
 7326ION    NA+11390   0.252   0.734   2.863  0.1335  0.1165 -0.0299
 7327ION    NA+11391   0.388   7.077   8.049 -0.1277  0.0526 -0.1056
 7328ION    NA+11392  10.224   0.251   9.872  0.1336  0.0271 -0.2338
 7329ION    NA+11393   3.982   0.930   0.996  0.2902  0.0300 -0.1792
 7330ION    NA+11394   3.170   4.354   0.849 -0.0161  0.0403 -0.1463
 7331ION    NA+11395   8.850   7.791   7.713  0.0558 -0.4297  0.1727
 7332ION    NA+11396   9.561   5.486  11.250 -0.1381  0.0153 -0.2017
 7333ION    NA+11397   7.522   1.960   8.167  0.4005 -0.2238 -0.0639
 7334ION    NA+11398   6.854   0.162   2.494 -0.0307 -0.1865  0.0036
 7335ION    NA+11399   6.435   5.337   4.341  0.3216 -0.0922 -0.0018
 7336ION    NA+11400   9.361   3.827   8.767 -0.1265 -0.0692  0.1337
 7337ION    NA+11401   0.280   5.890   2.337 -0.0173  0.2056  0.2146
 7338ION    NA+11402   6.175   4.305   2.460 -0.1058  0.2748  0.2049
 7339ION    NA+11403   2.567   3.545   1.001 -0.1003 -0.5166 -0.0145
 7340ION    NA+11404   2.041   0.728  10.847 -0.4441  0.4732  0.1819
 7341ION    NA+11405   2.025   6.311   3.697  0.2003  0.3127 -0.1058
 7342ION    NA+11406   3.808   1.141  11.285 -0.0749 -0.0296 -0.0106
 7343ION    NA+11407   6.013   1.750   2.407 -0.0022  0.2375  0.0815
 7344ION    NA+11408   9.110   9.011   7.284 -0.0572 -0.0823 -0.3315
 7345ION    NA+11409   8.615   6.988   1.760  0.0644 -0.1634  0.3266
 7346ION    NA+11410  10.172   9.395   8.666  0.5482  0.1831 -0.0556
 7347ION    NA+11411   5.888   0.259   9.113 -0.0860 -0.0952  0.2312
 7348ION    NA+11412   2.941   3.984  10.080 -0.0747 -0.0004 -0.0089
 7349ION    NA+11413   4.392   8.674  10.305  0.0564 -0.2237 -0.2072
 7350ION    NA+11414   1.608   9.251   7.586 -0.0047 -0.2121 -0.1051
 7351ION    NA+11415   3.749   5.402   0.751  0.1172 -0.0218 -0.5009
 7352ION    NA+11416   3.990   8.697   8.496  0.2023  0.1647  0.0343
 7353ION    NA+11417   1.329   2.249   9.130 -0.1388  0.1732 -0.0260
 7354ION    NA+11418   3.288   5.898   7.820  0.1153  0.0318  0.1278
 7355ION    NA+11419  10.479   7.411   3.513 -0.0581  0.4181  0.1937
 7356ION    NA+11420   0.225   4.958   2.114 -0.0209  0.3893 -0.1387
 7357ION    NA+11421  10.641  10.442  10.379 -0.0779 -0.2884  0.3365
 7358ION    NA+11422   1.745   6.853  10.809 -0.0300 -0.2085 -0.2319
 7359ION    NA+11423   8.357   9.460  11.541 -0.0288  0.0165 -0.1582
 7360ION    NA+11424   6.529   6.068  11.514 -0.0803  0.1547  0.0549
 7361ION    NA+11425   0.136   3.539   0.098  0.4172 -0.0694 -0.0164
 7362ION    NA+11426   4.929   4.423   8.902 -0.1879  0.1106  0.0167
 7363ION    NA+11427   2.662  10.298   9.355 -0.0631 -0.2175  0.0307
 7364ION    NA+11428   4.995   9.578  10.550  0.1635 -0.2049  0.0797
 7365ION    NA+11429   4.366   0.515   0.043 -0.0493  0.2679 -0.0448
 7366ION    NA+11430   4.906   0.097   8.791 -0.0361 -0.1142  0.0606
 7367ION    NA+11431   8.775   8.619   7.505  0.0395  0.0093 -0.0170
 7368ION    NA+11432   5.079   9.012   7.600 -0.0740  0.1064  0.1719
 7369ION    NA+11433   9.654   2.965   9.762 -0.3752  0.0886  0.1673
 7370ION    NA+11434   9.815   5.488   0.524  0.0907  0.2048  0.0211
 7371ION    NA+11435   8.654   0.362  10.321 -0.1654 -0.1279 -0.1767
 7372ION    NA+11436   0.959   3.335   2.578  0.0909 -0.0526 -0.1528
 7373ION    NA+11437   5.498   9.024   3.466 -0.2761  0.1438  0.0599
 7374ION    NA+11438   7.690   6.255  10.562  0.3200  0.4297 -0.3188
 7375ION    NA+11439   4.256   4.080   9.404  0.1685 -0.2205  0.0606
 7376ION    NA+11440   5.015   9.140   1.802 -0.0874  0.0371  0.1792
 7377ION    NA+11441   5.129   2.701  10.148 -0.0789  0.1306  0.1586
 7378ION    NA+11442   3.977   3.693   0.988 -0.1182  0.0132  0.1483
 7379ION    NA+11443  10.347   6.254   0.760 -0.3020 -0.0510  0.2628
 7380ION    NA+11444   9.682   2.819   8.469  0.1490  0.3480 -0.1672
 7381ION    NA+11445   8.983   0.074   8.671  0.2699 -0.1164  0.0945
 7382ION    NA+11446   5.163   3.935  11.496  0.0727 -0.0699  0.3499
 7383ION    NA+11447   1.199   2.935   3.301  0.0021  0.1242 -0.1432
 7384ION    NA+11448   7.755   0.779  11.457 -0.2836  0.2247  0.1126
 7385ION    NA+11449   9.095   5.032   1.933  0.3455  0.5397  0.1221
 7386ION    NA+11450   5.624   4.635   7.442  0.2529 -0.2143 -0.1445
 7387ION    NA+11451   0.207   1.633  10.018 -0.2364  0.0987  0.3485
 7388ION    NA+11452   3.182   8.576   7.946  0.0593 -0.1289  0.1319
 7389ION    NA+11453   3.824  10.029   8.966 -0.0239 -0.1426  0.0483
 7390ION    CL-11454   0.749   7.762   2.733 -0.3396 -0.1698  0.1573
 7391ION    CL-11455   9.685   9.253   8.513 -0.0330  0.0827 -0.0367
 7392ION    CL-11456  10.137   9.743   7.916  0.2058 -0.1281  0.3107
 7393ION    CL-11457   3.139   7.309   0.453 -0.1411 -0.0567 -0.0676
 7394ION    CL-11458   4.480   9.203  10.325 -0.0670  0.0086  0.1460
 7395ION    CL-11459   9.802   3.185   8.893  0.0078  0.0519  0.0185
 7396ION    CL-11460   2.579   1.038   2.887  0.2699  0.0398  0.2283
 7397ION    CL-11461   4.950   8.965   3.170 -0.0660 -0.2817 -0.1806
 7398ION    CL-11462   1.966   1.998  10.884  0.0055 -0.0525  0.1735
 7399ION    CL-11463   1.815   7.643  10.287 -0.1374  0.1336  0.1308
 7400ION    CL-11464   4.969   8.614   1.960  0.2486  0.3088  0.0627
 7401ION    CL-11465   9.041   6.797   1.833 -0.0270 -0.0235 -0.2312
 7402ION    CL-11466   3.750   0.859  10.906 -0.1905  0.0299 -0.0300
 7403ION    CL-11467   4.238   1.035  11.558  0.3023 -0.0050 -0.0226
 7404ION    CL-11468   2.356   4.199   0.810 -0.1336 -0.1481  0.4015
 7405ION    CL-11469   5.848   4.140   8.022  0.1928  0.0928  0.0896
 7406ION    CL-11470   2.823   7.322   2.085 -0.0568 -0.1483 -0.0744
 7407ION    CL-11471   6.157   5.928   0.267  0.0799 -0.1586  0.0194
 7408ION    CL-11472   3.477   4.015   1.012 -0.1902  0.4563 -0.0840
 7409ION    CL-11473   0.137   8.467  10.344  0.0655  0.1099 -0.2806
 7410ION    CL-11474   1.003   3.534  10.591  0.4989 -0.2493 -0.1146
 7411ION    CL-11475   8.990   0.560   8.536 -0.2614  0.1290 -0.0631
 7412ION    CL-11476   9.901   6.379   0.513  0.1375 -0.1727  0.3556
 7413ION    CL-11477   1.032   1.801   8.661 -0.0045 -0.1961 -0.2331
 7414ION    CL-11478   1.945   2.912   0.197  0.2781 -0.3810 -0.0992
 7415ION    CL-11479   8.969   5.017   2.394 -0.1542 -0.0422 -0.4598
 7416ION    CL-11480   6.221   1.688   8.683 -0.0393 -0.0258  0.4364
 7417ION    CL-11481   7.170   1.229   2.552  0.0666 -0.0072  0.0971
 7418ION    CL-11482   5.256   3.937   2.204  0.2578 -0.1039 -0.0140
 7419ION    CL-11483   7.433   0.558   0.210 -0.2067 -0.2200 -0.0022
 7420ION    CL-11484   2.563   3.082   8.640  0.1093 -0.2301  0.1143
 7421ION    CL-11485   3.605   7.885   9.171  0.2981 -0.0342 -0.0962
 7422ION    CL-11486   1.937   4.375   8.882  0.1203 -0.1342  0.0417
 7423ION    CL-11487   9.886   2.722   2.659  0.2432  0.3786 -0.3018
 7424ION    CL-11488  10.309  10.427   9.993 -0.0181 -0.3283 -0.3981
 7425ION    CL-11489   5.362   3.538  10.463  0.2930  0.0981 -0.0625
 7426ION    CL-11490   3.937  10.521   8.878  0.0234 -0.2761  0.0776
 7427ION    CL-11491   2.032   3.737   2.529  0.0680 -0.2828 -0.2453
 7428ION    CL-11492   3.190   6.176   8.615 -0.0815  0.0917 -0.1964
 7429ION    CL-11493   0.773   0.842   2.869  0.1963  0.0429 -0.1982
 7430ION    CL-11494   0.522  10.246   8.867  0.5863 -0.1006 -0.0057
 7431ION    CL-11495   9.849   5.731   0.070  0.0785 -0.1808  0.1181
 7432ION    CL-11496   2.164   0.416   0.197  0.0511 -0.0010 -0.0525
 7433ION    CL-11497   3.604   9.035   8.534 -0.1265 -0.0398  0.1431
 7434ION    CL-11498   1.789   9.071  10.305  0.1474 -0.1291  0.1299
 7435ION    CL-11499   1.152   2.890   2.807 -0.0666 -0.0874 -0.2601
 7436ION    CL-11500   8.856   8.733   7.961 -0.0692  0.0955  0.0449
 7437ION    CL-11501   3.563   0.034   2.455 -0.1232 -0.0083  0.1572
 7438ION    CL-11502   6.841  10.406   2.824  0.1804 -0.1437  0.4134
 7439ION    CL-11503   5.730   9.880   1.677  0.1513 -0.1337  0.0904
 7440ION    CL-11504  10.513   3.873   0.293 -0.1901  0.2353  0.2911
 7441ION    CL-11505   2.688   1.264   8.608  0.0830  0.0011 -0.2147
 7442ION    CL-11506   5.452   6.479  10.030  0.1250  0.1613  0.3173
 7443ION    CL-11507   2.941   4.412  10.487 -0.3603  0.0802  0.2060
 7444ION    CL-11508   3.172   2.278   1.681 -0.0488  0.1610  0.2460
 7445ION    CL-11509   8.110   6.838   1.562  0.0395 -0.0388 -0.1861
 7446ION    CL-11510   8.640   3.912   2.967 -0.1148 -0.0264 -0.3552
 7447ION    CL-11511   6.460   4.511   3.232  0.0003  0.2355 -0.0835
 7448ION    CL-11512   3.695   0.294   0.501  0.1207 -0.1668  0.1482
 7449ION    CL-11513   3.496   8.779   3.002  0.0037  0.0876 -0.2111
 7450ION    CL-11514   4.950   9.903  10.936 -0.2882  0.2177 -0.0201
 7451ION    CL-11515   4.558   4.139   9.039  0.3803  0.0031  0.2763
 7452ION    CL-11516   2.746   0.406   9.662 -0.0659 -0.1444 -0.0121
 7453ION    CL-11517   7.390   3.702   8.538 -0.1202 -0.1474  0.1440
 7454ION    CL-11518   8.644   4.184   8.810 -0.0161 -0.0634  0.2737
 7455ION    CL-11519   8.025   0.630   3.368 -0.1281  0.2095  0.0058
 7456ION    CL-11520   2.423   8.984   2.137 -0.0236  0.1664 -0.0666
 7457ION    CL-11521  10.636   5.961   1.241 -0.3086 -0.2282  0.0907
 7458ION    CL-11522   7.112   0.051   3.415  0.3342  0.0095 -0.0643
 7459ION    CL-11523   9.874   8.211   3.132 -0.2007  0.0466 -0.0982
 7460ION    CL-11524   3.806   4.921   0.753 -0.3492 -0.2120  0.6156
 7461ION    CL-11525   8.763   9.861   0.207 -0.2599 -0.0502 -0.1122
 7462ION    CL-11526   0.935   8.832   8.222  0.1639  0.3039  0.2815
 7463ION    CL-11527   8.207   3.942   9.308  0.3543  0.2798  0.0245
 7464ION    CL-11528   5.379   0.347   9.150  0.4707  0.3263 -0.3012
 7465ION    CL-11529   6.286   6.199   2.035  0.2316  0.0746 -0.0070
 7466ION    CL-11530   9.813   5.528   1.021 -0.2024  0.1733 -0.1719
  10.66364  10.66364  11.56032
