Protein in INSANE! Membrane UpperLeaflet>POPC=1.0 LowerLeaflet>POPC=1.0
11125
    1AU     AUC    1   5.236   5.305   6.010
    1AU     AUC    2   5.525   5.305   5.838
    1AU     AUC    3   5.514   5.306   6.177
    1AU     AUC    4   4.950   5.298   5.851
    1AU     AUC    5   4.977   5.329   6.212
    1AU     AUC    6   5.053   5.574   6.019
    1AU     AUC    7   5.419   5.578   5.993
    1AU     AUC    8   5.047   5.025   6.018
    1AU     AUC    9   5.401   5.022   6.014
    1AU     AUC   10   5.247   5.134   6.293
    1AU     AUC   11   5.235   5.477   6.284
    1AU     AUC   12   5.223   5.140   5.740
    1AU     AUC   13   5.242   5.471   5.714
    1AU     AUC   14   5.842   5.298   5.677
    1AU     AUC   15   5.851   5.282   6.018
    1AU     AUC   16   5.799   5.301   6.351
    1AU     AUC   17   4.653   5.290   5.694
    1AU     AUC   18   4.628   5.320   6.058
    1AU     AUC   19   4.684   5.339   6.420
    1AU     AUC   20   4.872   5.874   6.014
    1AU     AUC   21   5.229   5.898   5.959
    1AU     AUC   22   5.603   5.869   5.975
    1AU     AUC   23   4.844   4.743   6.019
    1AU     AUC   24   5.187   4.698   5.999
    1AU     AUC   25   5.566   4.711   6.000
    1AU     AUC   26   5.245   4.959   6.585
    1AU     AUC   27   5.284   5.335   6.623
    1AU     AUC   28   5.263   5.670   6.564
    1AU     AUC   29   5.249   4.959   5.456
    1AU     AUC   30   5.253   5.300   5.406
    1AU     AUC   31   5.241   5.637   5.417
    1AU     AUC   32   5.537   5.120   6.499
    1AU     AUC   33   5.563   5.499   6.486
    1AU     AUC   34   5.558   5.135   5.523
    1AU     AUC   35   5.563   5.490   5.525
    1AU     AUC   36   4.949   5.156   6.539
    1AU     AUC   37   4.968   5.515   6.521
    1AU     AUC   38   4.931   5.116   5.555
    1AU     AUC   39   4.915   5.475   5.526
    1AU     AUC   40   5.773   5.578   5.833
    1AU     AUC   41   5.737   5.611   6.173
    1AU     AUC   42   4.757   5.599   5.847
    1AU     AUC   43   4.749   5.633   6.228
    1AU     AUC   44   5.727   4.989   5.842
    1AU     AUC   45   5.698   4.971   6.181
    1AU     AUC   46   4.712   4.989   5.868
    1AU     AUC   47   4.780   5.040   6.228
    1AU     AUC   48   5.047   5.827   6.289
    1AU     AUC   49   5.412   5.790   6.247
    1AU     AUC   50   5.035   4.834   6.313
    1AU     AUC   51   5.375   4.795   6.289
    1AU     AUC   52   5.037   5.737   5.677
    1AU     AUC   53   5.451   5.756   5.672
    1AU     AUC   54   5.030   4.820   5.719
    1AU     AUC   55   5.414   4.843   5.723
    1AU    AUSL   56   5.844   5.282   6.679
    1AU    AUSL   57   5.533   4.786   6.683
    1AU     AUL   58   5.884   4.856   6.833
    1AU       S   59   5.852   4.436   6.648
    1AU     LIG   60   5.758   4.291   7.005
    1AU     LIG   61   5.997   3.981   7.227
    1AU     LIG   62   6.251   3.657   7.436
    1AU     LIG   63   6.424   3.517   7.844
    1AU       S   64   6.084   5.255   6.748
    1AU     LIG   65   6.057   5.173   7.211
    1AU     LIG   66   6.210   5.084   7.661
    1AU     LIG   67   6.528   5.092   8.030
    1AU     LIG   68   6.892   5.188   8.335
    1AU    AUSL   69   5.462   5.165   6.867
    1AU    AUSL   70   5.155   5.484   6.921
    1AU     AUL   71   5.378   5.466   7.236
    1AU       S   72   5.586   5.124   7.031
    1AU     LIG   73   5.452   4.950   7.403
    1AU     LIG   74   5.592   4.805   7.828
    1AU     LIG   75   5.730   4.622   8.252
    1AU     LIG   76   5.918   4.645   8.685
    1AU       S   77   5.019   5.193   7.187
    1AU     LIG   78   5.031   5.111   7.665
    1AU     LIG   79   4.710   5.175   7.988
    1AU     LIG   80   4.526   5.222   8.416
    1AU     LIG   81   4.533   5.473   8.822
    1AU    AUSL   82   5.547   5.594   6.829
    1AU    AUSL   83   5.888   5.697   6.564
    1AU     AUL   84   5.837   5.565   6.969
    1AU       S   85   5.416   5.880   6.974
    1AU     LIG   86   5.650   5.871   7.369
    1AU     LIG   87   5.718   5.913   7.853
    1AU     LIG   88   5.773   5.946   8.340
    1AU     LIG   89   5.807   5.891   8.818
    1AU       S   90   5.945   5.942   6.723
    1AU     LIG   91   6.327   5.730   6.823
    1AU     LIG   92   6.637   5.896   7.143
    1AU     LIG   93   6.907   6.134   7.454
    1AU     LIG   94   7.220   6.383   7.694
    1AU    AUSL   95   5.718   5.352   5.393
    1AU    AUSL   96   5.652   5.776   5.341
    1AU     AUL   97   5.834   5.675   5.100
    1AU       S   98   5.735   5.354   4.795
    1AU     LIG   99   6.161   5.319   4.684
    1AU     LIG  100   6.242   5.054   4.313
    1AU     LIG  101   6.293   4.962   3.855
    1AU     LIG  102   6.501   5.054   3.444
    1AU       S  103   6.038   6.009   5.368
    1AU     LIG  104   6.086   6.171   4.959
    1AU     LIG  105   6.259   6.363   4.554
    1AU     LIG  106   6.494   6.661   4.276
    1AU     LIG  107   6.727   6.971   4.019
    1AU    AUSL  108   5.551   5.073   5.118
    1AU    AUSL  109   5.928   4.986   5.410
    1AU     AUL  110   5.966   5.230   5.195
    1AU       S  111   5.983   4.754   5.161
    1AU     LIG  112   6.199   4.473   4.814
    1AU     LIG  113   6.452   4.074   4.706
    1AU     LIG  114   6.753   3.774   4.481
    1AU     LIG  115   7.153   3.752   4.208
    1AU       S  116   5.724   5.125   4.810
    1AU     LIG  117   5.850   4.807   4.562
    1AU     LIG  118   5.901   4.695   4.117
    1AU     LIG  119   5.853   4.767   3.658
    1AU     LIG  120   6.076   4.829   3.256
    1AU    AUSL  121   5.398   5.485   5.136
    1AU    AUSL  122   5.138   5.094   5.238
    1AU     AUL  123   5.289   5.100   4.943
    1AU       S  124   4.879   5.260   4.848
    1AU     LIG  125   5.000   4.979   4.505
    1AU     LIG  126   4.755   4.725   4.172
    1AU     LIG  127   4.556   4.719   3.736
    1AU     LIG  128   4.571   4.774   3.271
    1AU       S  129   5.499   5.492   4.809
    1AU     LIG  130   5.522   5.245   4.362
    1AU     LIG  131   5.834   5.192   3.993
    1AU     LIG  132   5.986   5.259   3.541
    1AU     LIG  133   5.926   5.488   3.130
    1AU    AUSL  134   4.754   5.402   6.807
    1AU    AUSL  135   5.014   5.764   6.640
    1AU     AUL  136   4.912   5.709   6.999
    1AU       S  137   4.849   5.325   7.264
    1AU     LIG  138   4.538   5.077   7.454
    1AU     LIG  139   4.262   4.974   7.832
    1AU     LIG  140   4.096   4.968   8.274
    1AU     LIG  141   3.756   5.077   8.581
    1AU       S  142   4.582   5.979   6.788
    1AU     LIG  143   4.697   6.197   7.144
    1AU     LIG  144   4.527   6.469   7.481
    1AU     LIG  145   4.201   6.716   7.718
    1AU     LIG  146   4.035   6.895   8.132
    1AU    AUSL  147   5.067   5.118   6.710
    1AU    AUSL  148   4.599   5.038   6.641
    1AU     AUL  149   4.639   5.122   6.910
    1AU       S  150   4.437   4.699   6.866
    1AU     LIG  151   4.017   4.624   6.680
    1AU     LIG  152   3.791   4.240   6.800
    1AU     LIG  153   3.626   3.926   7.096
    1AU     LIG  154   3.315   3.752   7.393
    1AU       S  155   5.067   5.035   7.087
    1AU     LIG  156   4.910   4.722   7.360
    1AU     LIG  157   4.704   4.692   7.768
    1AU     LIG  158   4.551   4.726   8.202
    1AU     LIG  159   4.446   4.557   8.615
    1AU    AUSL  160   4.710   5.187   5.284
    1AU    AUSL  161   4.904   4.821   5.461
    1AU     AUL  162   4.925   4.839   5.112
    1AU       S  163   4.690   5.161   4.875
    1AU     LIG  164   4.487   5.045   4.496
    1AU     LIG  165   4.275   4.953   4.098
    1AU     LIG  166   4.029   4.920   3.703
    1AU     LIG  167   3.581   5.050   3.584
    1AU       S  168   4.522   4.716   5.288
    1AU     LIG  169   4.566   4.388   5.034
    1AU     LIG  170   4.230   4.097   4.892
    1AU     LIG  171   3.888   3.911   4.625
    1AU     LIG  172   3.690   3.683   4.264
    1AU    AUSL  173   5.001   5.500   5.264
    1AU    AUSL  174   4.593   5.561   5.478
    1AU     AUL  175   4.589   5.498   5.166
    1AU       S  176   4.282   5.823   5.269
    1AU     LIG  177   4.276   5.946   4.814
    1AU     LIG  178   4.023   6.229   4.532
    1AU     LIG  179   3.673   6.425   4.283
    1AU     LIG  180   3.206   6.495   4.201
    1AU       S  181   4.975   5.485   4.906
    1AU     LIG  182   4.803   5.466   4.419
    1AU     LIG  183   4.717   5.215   4.023
    1AU     LIG  184   4.640   5.212   3.551
    1AU     LIG  185   4.737   5.422   3.125
    1AU    AUSL  186   6.027   5.790   5.990
    1AU    AUSL  187   5.989   5.606   5.590
    1AU     AUL  188   6.324   5.901   5.800
    1AU       S  189   6.106   5.696   5.467
    1AU     LIG  190   6.336   5.698   5.081
    1AU     LIG  191   6.544   5.980   4.773
    1AU     LIG  192   6.785   6.298   4.523
    1AU     LIG  193   7.031   6.606   4.255
    1AU       S  194   6.451   5.652   6.182
    1AU     LIG  195   6.847   5.845   6.084
    1AU     LIG  196   7.286   6.043   6.089
    1AU     LIG  197   7.476   6.496   6.069
    1AU     LIG  198   7.738   6.772   6.345
    1AU    AUSL  199   6.208   5.389   5.885
    1AU    AUSL  200   6.144   5.076   6.199
    1AU     AUL  201   6.519   5.161   6.224
    1AU       S  202   6.350   5.454   5.924
    1AU     LIG  203   6.786   5.386   5.852
    1AU     LIG  204   7.226   5.570   5.838
    1AU     LIG  205   7.651   5.747   5.804
    1AU     LIG  206   8.047   5.553   5.601
    1AU       S  207   6.397   4.770   6.015
    1AU     LIG  208   6.836   4.674   6.120
    1AU     LIG  209   7.258   4.476   6.217
    1AU     LIG  210   7.677   4.354   6.322
    1AU     LIG  211   8.094   4.484   6.464
    1AU    AUSL  212   5.953   5.450   6.237
    1AU    AUSL  213   5.780   6.010   6.260
    1AU     AUL  214   6.077   5.900   6.281
    1AU       S  215   5.991   6.224   6.609
    1AU     LIG  216   6.384   6.250   6.855
    1AU     LIG  217   6.694   6.492   7.132
    1AU     LIG  218   6.865   6.933   7.250
    1AU     LIG  219   6.926   7.431   7.228
    1AU       S  220   6.272   5.506   6.365
    1AU     LIG  221   6.753   5.509   6.529
    1AU     LIG  222   7.198   5.565   6.351
    1AU     LIG  223   7.629   5.730   6.412
    1AU     LIG  224   8.032   5.917   6.586
    1AU    AUSL  225   4.518   5.845   6.095
    1AU    AUSL  226   4.637   5.624   6.469
    1AU     AUL  227   4.294   5.921   6.367
    1AU       S  228   4.486   5.766   6.753
    1AU     LIG  229   4.347   5.812   7.191
    1AU     LIG  230   4.119   6.168   7.396
    1AU     LIG  231   3.810   6.382   7.686
    1AU     LIG  232   3.466   6.441   8.013
    1AU       S  233   4.473   6.214   6.036
    1AU     LIG  234   4.024   6.087   5.948
    1AU     LIG  235   3.586   6.277   5.873
    1AU     LIG  236   3.181   6.534   5.875
    1AU     LIG  237   2.778   6.678   6.070
    1AU    AUSL  238   4.518   5.476   5.874
    1AU    AUSL  239   4.661   5.931   5.713
    1AU     AUL  240   4.354   5.782   5.734
    1AU       S  241   4.183   5.349   5.512
    1AU     LIG  242   3.852   5.684   5.620
    1AU     LIG  243   3.397   5.841   5.681
    1AU     LIG  244   3.090   6.159   5.508
    1AU     LIG  245   2.614   6.198   5.472
    1AU       S  246   4.447   6.203   5.525
    1AU     LIG  247   4.271   6.366   5.115
    1AU     LIG  248   4.220   6.653   4.765
    1AU     LIG  249   3.973   6.993   4.569
    1AU     LIG  250   3.643   7.302   4.724
    1AU    AUSL  251   4.300   5.482   6.265
    1AU    AUSL  252   4.275   5.143   5.924
    1AU     AUL  253   4.127   5.472   5.979
    1AU       S  254   4.048   5.044   6.168
    1AU     LIG  255   3.764   5.139   5.832
    1AU     LIG  256   3.374   4.912   5.703
    1AU     LIG  257   2.964   4.683   5.727
    1AU     LIG  258   2.561   4.819   5.632
    1AU       S  259   4.191   5.440   6.503
    1AU     LIG  260   3.751   5.492   6.313
    1AU     LIG  261   3.326   5.711   6.401
    1AU     LIG  262   2.892   5.928   6.404
    1AU     LIG  263   2.486   6.211   6.357
    1AU    AUSL  264   5.929   4.726   6.046
    1AU    AUSL  265   5.775   4.989   6.388
    1AU     AUL  266   6.118   4.885   6.415
    1AU       S  267   6.205   4.596   6.047
    1AU     LIG  268   6.529   4.283   5.942
    1AU     LIG  269   6.969   4.119   5.983
    1AU     LIG  270   7.420   3.962   6.071
    1AU     LIG  271   7.755   3.849   6.380
    1AU       S  272   5.992   4.462   6.509
    1AU     LIG  273   6.270   4.255   6.861
    1AU     LIG  274   6.527   4.023   7.187
    1AU     LIG  275   6.748   3.812   7.545
    1AU     LIG  276   7.073   3.874   7.889
    1AU    AUSL  277   5.927   5.089   5.814
    1AU    AUSL  278   5.817   4.632   5.643
    1AU     AUL  279   6.072   4.773   5.641
    1AU       S  280   6.430   4.956   5.821
    1AU     LIG  281   6.703   4.656   5.621
    1AU     LIG  282   7.140   4.520   5.709
    1AU     LIG  283   7.571   4.372   5.793
    1AU     LIG  284   7.970   4.320   5.571
    1AU       S  285   6.004   4.482   5.279
    1AU     LIG  286   6.156   4.066   5.151
    1AU     LIG  287   6.317   3.654   4.976
    1AU     LIG  288   6.598   3.325   4.778
    1AU     LIG  289   6.798   2.888   4.864
    1AU    AUSL  290   4.468   4.779   6.075
    1AU    AUSL  291   4.587   5.042   5.660
    1AU     AUL  292   4.233   4.878   5.767
    1AU       S  293   4.398   4.845   5.341
    1AU     LIG  294   4.064   4.505   5.189
    1AU     LIG  295   3.718   4.223   5.006
    1AU     LIG  296   3.370   4.026   4.744
    1AU     LIG  297   3.025   4.096   4.426
    1AU       S  298   4.044   4.765   6.183
    1AU     LIG  299   3.712   4.629   5.963
    1AU     LIG  300   3.277   4.547   6.106
    1AU     LIG  301   2.911   4.384   6.364
    1AU     LIG  302   2.569   4.023   6.331
    1AU    AUSL  303   4.567   5.168   6.245
    1AU    AUSL  304   4.788   4.793   6.349
    1AU     AUL  305   4.426   4.862   6.424
    1AU       S  306   4.495   4.502   6.692
    1AU     LIG  307   4.278   4.105   6.644
    1AU     LIG  308   3.965   3.740   6.729
    1AU     LIG  309   3.685   3.424   6.956
    1AU     LIG  310   3.254   3.311   7.133
    1AU       S  311   4.019   5.040   6.311
    1AU     LIG  312   3.550   5.002   6.280
    1AU     LIG  313   3.125   5.034   6.131
    1AU     LIG  314   2.737   4.867   6.160
    1AU     LIG  315   2.431   4.653   6.434
    1AU    AUSL  316   5.206   6.112   6.476
    1AU    AUSL  317   4.788   6.015   6.375
    1AU     AUL  318   5.031   6.103   6.745
    1AU       S  319   4.649   6.211   6.501
    1AU     LIG  320   4.333   6.405   6.830
    1AU     LIG  321   4.132   6.654   7.194
    1AU     LIG  322   3.934   7.054   7.386
    1AU     LIG  323   3.681   7.480   7.358
    1AU       S  324   5.192   6.438   6.438
    1AU     LIG  325   5.375   6.487   6.832
    1AU     LIG  326   5.479   6.904   7.002
    1AU     LIG  327   5.589   7.336   7.150
    1AU     LIG  328   5.640   7.675   7.475
    1AU    AUSL  329   4.991   6.219   6.071
    1AU    AUSL  330   5.413   6.201   5.701
    1AU     AUL  331   5.112   6.458   5.810
    1AU       S  332   5.038   6.510   6.271
    1AU     LIG  333   5.263   6.917   6.510
    1AU     LIG  334   5.329   7.357   6.691
    1AU     LIG  335   5.141   7.809   6.707
    1AU     LIG  336   4.854   8.159   6.875
    1AU       S  337   5.374   6.486   5.428
    1AU     LIG  338   5.692   6.798   5.343
    1AU     LIG  339   5.808   7.253   5.233
    1AU     LIG  340   6.007   7.702   5.281
    1AU     LIG  341   6.187   8.148   5.257
    1AU    AUSL  342   5.399   6.048   6.096
    1AU    AUSL  343   5.475   5.795   6.478
    1AU     AUL  344   5.545   6.142   6.492
    1AU       S  345   5.824   6.072   6.851
    1AU     LIG  346   6.112   5.998   7.206
    1AU     LIG  347   6.400   6.237   7.472
    1AU     LIG  348   6.682   6.529   7.717
    1AU     LIG  349   6.694   6.782   8.122
    1AU       S  350   5.425   6.428   6.155
    1AU     LIG  351   5.696   6.640   6.463
    1AU     LIG  352   5.778   7.085   6.628
    1AU     LIG  353   5.832   7.541   6.744
    1AU     LIG  354   5.840   7.998   6.754
    1AU    AUSL  355   5.199   4.653   6.445
    1AU    AUSL  356   5.605   4.607   6.288
    1AU     AUL  357   5.396   4.491   6.670
    1AU       S  358   5.226   4.096   6.508
    1AU     LIG  359   4.961   3.981   6.845
    1AU     LIG  360   4.868   3.527   6.929
    1AU     LIG  361   4.889   3.054   6.939
    1AU     LIG  362   4.721   2.669   7.170
    1AU       S  363   5.759   4.385   6.359
    1AU     LIG  364   5.927   3.952   6.612
    1AU     LIG  365   6.267   3.697   6.887
    1AU     LIG  366   6.635   3.473   7.138
    1AU     LIG  367   6.880   3.033   7.130
    1AU    AUSL  368   4.873   4.428   6.181
    1AU    AUSL  369   4.927   4.732   6.757
    1AU     AUL  370   4.916   4.452   6.528
    1AU       S  371   5.001   4.032   6.344
    1AU     LIG  372   4.711   3.710   6.471
    1AU     LIG  373   4.610   3.250   6.543
    1AU     LIG  374   4.506   2.800   6.685
    1AU     LIG  375   4.588   2.343   6.760
    1AU       S  376   4.713   4.632   6.917
    1AU     LIG  377   4.556   4.220   7.088
    1AU     LIG  378   4.153   3.985   7.139
    1AU     LIG  379   3.951   3.634   7.381
    1AU     LIG  380   4.018   3.444   7.814
    1AU    AUSL  381   5.296   4.368   6.133
    1AU    AUSL  382   5.042   4.532   5.801
    1AU     AUL  383   4.919   4.233   5.933
    1AU       S  384   5.286   4.176   5.673
    1AU     LIG  385   4.916   3.835   5.626
    1AU     LIG  386   4.730   3.369   5.590
    1AU     LIG  387   4.730   2.883   5.475
    1AU     LIG  388   4.612   2.486   5.233
    1AU       S  389   5.309   4.164   6.244
    1AU     LIG  390   5.320   3.665   6.269
    1AU     LIG  391   5.149   3.304   6.530
    1AU     LIG  392   5.352   2.893   6.679
    1AU     LIG  393   5.780   2.661   6.683
    1AU    AUSL  394   5.261   5.910   5.395
    1AU    AUSL  395   5.691   5.890   5.753
    1AU     AUL  396   5.580   6.083   5.382
    1AU       S  397   5.194   6.183   5.147
    1AU     LIG  398   5.552   6.458   4.957
    1AU     LIG  399   5.618   6.921   4.844
    1AU     LIG  400   5.495   7.322   4.641
    1AU     LIG  401   5.584   7.641   4.296
    1AU       S  402   5.949   6.110   5.642
    1AU     LIG  403   6.365   6.352   5.411
    1AU     LIG  404   6.556   6.470   4.976
    1AU     LIG  405   6.804   6.787   4.698
    1AU     LIG  406   7.117   7.164   4.666
    1AU    AUSL  407   5.072   5.943   5.772
    1AU    AUSL  408   4.851   5.880   5.333
    1AU     AUL  409   4.910   6.143   5.542
    1AU       S  410   5.198   6.401   5.316
    1AU     LIG  411   5.207   6.865   5.152
    1AU     LIG  412   5.292   7.336   5.168
    1AU     LIG  413   5.074   7.768   5.274
    1AU     LIG  414   4.765   8.058   5.074
    1AU       S  415   4.572   5.989   5.237
    1AU     LIG  416   4.726   6.197   4.890
    1AU     LIG  417   4.522   6.342   4.488
    1AU     LIG  418   4.216   6.640   4.247
    1AU     LIG  419   4.189   7.087   4.066
    1AU    AUSL  420   5.244   4.572   5.417
    1AU    AUSL  421   4.641   4.608   5.731
    1AU     AUL  422   4.899   4.439   5.467
    1AU       S  423   4.453   4.562   5.512
    1AU     LIG  424   4.351   4.139   5.432
    1AU     LIG  425   3.979   3.880   5.287
    1AU     LIG  426   3.649   3.662   5.016
    1AU     LIG  427   3.448   3.237   4.875
    1AU       S  428   5.291   4.157   5.455
    1AU     LIG  429   5.236   3.709   5.255
    1AU     LIG  430   4.984   3.288   5.148
    1AU     LIG  431   4.799   2.888   4.948
    1AU     LIG  432   4.748   2.610   4.552
    1AU    AUSL  433   5.453   4.604   5.828
    1AU    AUSL  434   5.501   4.895   5.487
    1AU     AUL  435   5.569   4.531   5.439
    1AU       S  436   5.522   4.201   5.760
    1AU     LIG  437   5.409   3.713   5.760
    1AU     LIG  438   5.241   3.302   5.595
    1AU     LIG  439   5.235   2.865   5.383
    1AU     LIG  440   5.389   2.405   5.434
    1AU       S  441   5.781   4.674   5.064
    1AU     LIG  442   5.730   4.262   4.907
    1AU     LIG  443   5.955   3.914   4.691
    1AU     LIG  444   6.251   3.640   4.455
    1AU     LIG  445   6.463   3.568   4.043
    2POPC   NC3  446  10.035   5.967   8.068
    2POPC   PO4  447  10.421   5.421   8.034
    2POPC   GL1  448  10.296   5.480   7.665
    2POPC   GL2  449  10.249   5.781   7.663
    2POPC   C1A  450  10.172   5.340   7.282
    2POPC   D2A  451  10.365   5.389   6.901
    2POPC   C3A  452  10.155   5.440   6.484
    2POPC   C4A  453  10.136   5.412   5.990
    2POPC   C1B  454  10.270   5.868   7.287
    2POPC   C2B  455  10.220   6.004   6.923
    2POPC   C3B  456  10.021   5.924   6.596
    2POPC   C4B  457  10.225   5.862   6.230
    3POPC   NC3  458   0.468   9.283   8.321
    3POPC   PO4  459   0.697   9.635   7.858
    3POPC   GL1  460   0.520   9.502   7.497
    3POPC   GL2  461   0.397   9.220   7.579
    3POPC   C1A  462   0.227   9.581   7.202
    3POPC   D2A  463   0.367   9.673   6.816
    3POPC   C3A  464   0.079   9.668   6.515
    3POPC   C4A  465   0.255   9.711   6.159
    3POPC   C1B  466   0.280   9.052   7.202
    3POPC   C2B  467   0.524   9.128   6.818
    3POPC   C3B  468   0.433   9.313   6.420
    3POPC   C4B  469   0.506   9.315   5.930
    4POPC   NC3  470   9.451   7.339   8.191
    4POPC   PO4  471   9.068   6.799   8.128
    4POPC   GL1  472   9.182   7.107   7.814
    4POPC   GL2  473   9.524   7.121   7.724
    4POPC   C1A  474   9.161   7.087   7.366
    4POPC   D2A  475   9.139   6.886   6.960
    4POPC   C3A  476   9.195   7.166   6.587
    4POPC   C4A  477   9.200   7.111   6.156
    4POPC   C1B  478   9.729   7.193   7.334
    4POPC   C2B  479   9.817   6.991   6.961
    4POPC   C3B  480   9.848   7.194   6.596
    4POPC   C4B  481   9.618   7.398   6.290
    5POPC   NC3  482   5.907   8.553   8.064
    5POPC   PO4  483   5.709   9.229   8.144
    5POPC   GL1  484   5.884   8.978   7.802
    5POPC   GL2  485   5.598   8.936   7.530
    5POPC   C1A  486   6.073   8.969   7.411
    5POPC   D2A  487   5.829   9.196   7.052
    5POPC   C3A  488   5.780   9.030   6.624
    5POPC   C4A  489   5.637   8.770   6.294
    5POPC   C1B  490   5.743   8.684   7.158
    5POPC   C2B  491   5.588   8.526   6.761
    5POPC   C3B  492   5.574   8.257   6.396
    5POPC   C4B  493   5.685   8.235   5.964
    6POPC   NC3  494   6.427   1.975   8.084
    6POPC   PO4  495   6.034   2.436   7.985
    6POPC   GL1  496   6.351   2.156   7.616
    6POPC   GL2  497   6.505   1.794   7.602
    6POPC   C1A  498   6.484   2.026   7.145
    6POPC   D2A  499   6.279   2.271   6.780
    6POPC   C3A  500   6.525   2.336   6.389
    6POPC   C4A  501   6.381   2.252   5.947
    6POPC   C1B  502   6.680   1.468   7.288
    6POPC   C2B  503   6.749   1.602   6.861
    6POPC   C3B  504   6.556   1.877   6.637
    6POPC   C4B  505   6.390   1.860   6.259
    7POPC   NC3  506   9.036   5.917   8.057
    7POPC   PO4  507   8.857   5.310   8.164
    7POPC   GL1  508   8.831   5.351   7.718
    7POPC   GL2  509   8.539   5.495   7.644
    7POPC   C1A  510   8.891   5.503   7.273
    7POPC   D2A  511   9.049   5.637   6.865
    7POPC   C3A  512   8.917   5.486   6.452
    7POPC   C4A  513   8.896   5.651   6.043
    7POPC   C1B  514   8.395   5.656   7.233
    7POPC   C2B  515   8.530   5.576   6.795
    7POPC   C3B  516   8.442   5.647   6.339
    7POPC   C4B  517   8.067   5.666   6.096
    8POPC   NC3  518   3.727   9.687   8.044
    8POPC   PO4  519   3.068   9.715   8.148
    8POPC   GL1  520   3.283   9.688   7.752
    8POPC   GL2  521   3.401   9.338   7.784
    8POPC   C1A  522   3.361   9.776   7.307
    8POPC   D2A  523   3.173   9.720   6.878
    8POPC   C3A  524   3.478   9.585   6.572
    8POPC   C4A  525   3.457   9.436   6.144
    8POPC   C1B  526   3.445   9.183   7.376
    8POPC   C2B  527   3.442   9.259   6.960
    8POPC   C3B  528   3.558   9.059   6.550
    8POPC   C4B  529   3.763   8.944   6.174
    9POPC   NC3  530   2.593   7.852   8.417
    9POPC   PO4  531   3.039   8.210   8.081
    9POPC   GL1  532   2.676   7.973   7.864
    9POPC   GL2  533   2.448   8.172   7.681
    9POPC   C1A  534   2.591   7.762   7.415
    9POPC   D2A  535   2.842   7.624   7.040
    9POPC   C3A  536   2.677   7.702   6.622
    9POPC   C4A  537   2.512   7.533   6.244
    9POPC   C1B  538   2.879   8.191   7.430
    9POPC   C2B  539   2.992   8.115   7.006
    9POPC   C3B  540   3.008   8.086   6.544
    9POPC   C4B  541   2.795   7.968   6.160
   10POPC   NC3  542   8.631   6.783   8.329
   10POPC   PO4  543   8.521   7.489   8.321
   10POPC   GL1  544   8.725   7.386   7.867
   10POPC   GL2  545   8.698   7.049   7.685
   10POPC   C1A  546   8.754   7.482   7.359
   10POPC   D2A  547   8.514   7.608   6.947
   10POPC   C3A  548   8.417   7.469   6.496
   10POPC   C4A  549   8.423   7.517   6.034
   10POPC   C1B  550   8.681   7.007   7.217
   10POPC   C2B  551   8.727   7.153   6.791
   10POPC   C3B  552   8.722   7.029   6.350
   10POPC   C4B  553   8.764   7.162   5.898
   11POPC   NC3  554   6.122   9.080   8.260
   11POPC   PO4  555   6.314   8.396   8.184
   11POPC   GL1  556   6.324   8.602   7.750
   11POPC   GL2  557   6.661   8.720   7.711
   11POPC   C1A  558   6.354   8.590   7.268
   11POPC   D2A  559   6.665   8.443   6.963
   11POPC   C3A  560   6.551   8.508   6.526
   11POPC   C4A  561   6.428   8.527   6.086
   11POPC   C1B  562   6.709   8.925   7.330
   11POPC   C2B  563   6.566   8.969   6.913
   11POPC   C3B  564   6.619   9.001   6.483
   11POPC   C4B  565   6.190   8.948   6.261
   12POPC   NC3  566   5.040   1.165   8.064
   12POPC   PO4  567   5.258   1.811   8.063
   12POPC   GL1  568   4.900   1.581   7.767
   12POPC   GL2  569   4.939   1.263   7.592
   12POPC   C1A  570   4.711   1.565   7.289
   12POPC   D2A  571   4.989   1.493   6.897
   12POPC   C3A  572   4.791   1.507   6.498
   12POPC   C4A  573   4.842   1.427   6.037
   12POPC   C1B  574   4.940   1.065   7.204
   12POPC   C2B  575   4.813   1.051   6.781
   12POPC   C3B  576   5.010   1.060   6.370
   12POPC   C4B  577   4.614   0.982   6.165
   13POPC   NC3  578   0.215   9.543   7.898
   13POPC   PO4  579   9.996   9.439   8.048
   13POPC   GL1  580  10.217   9.578   7.716
   13POPC   GL2  581  10.350   9.238   7.656
   13POPC   C1A  582  10.153   9.839   7.347
   13POPC   D2A  583  10.309   9.771   6.935
   13POPC   C3A  584  10.100   9.877   6.548
   13POPC   C4A  585  10.221   9.679   6.140
   13POPC   C1B  586  10.284   9.325   7.245
   13POPC   C2B  587  10.460   9.267   6.841
   13POPC   C3B  588  10.140   9.359   6.560
   13POPC   C4B  589   9.984   9.237   6.182
   14POPC   NC3  590   1.393   5.569   8.101
   14POPC   PO4  591   0.866   5.586   8.083
   14POPC   GL1  592   1.093   5.704   7.719
   14POPC   GL2  593   1.321   5.404   7.594
   14POPC   C1A  594   1.121   5.840   7.322
   14POPC   D2A  595   1.256   5.666   6.913
   14POPC   C3A  596   1.097   5.861   6.517
   14POPC   C4A  597   1.144   5.663   6.118
   14POPC   C1B  598   0.926   5.385   7.304
   14POPC   C2B  599   0.807   5.353   6.842
   14POPC   C3B  600   0.845   5.365   6.378
   14POPC   C4B  601   0.839   5.296   5.886
   15POPC   NC3  602   8.549   3.373   8.041
   15POPC   PO4  603   8.605   4.002   7.821
   15POPC   GL1  604   8.714   3.639   7.524
   15POPC   GL2  605   8.687   3.253   7.550
   15POPC   C1A  606   8.842   3.518   7.084
   15POPC   D2A  607   8.604   3.458   6.695
   15POPC   C3A  608   8.832   3.365   6.346
   15POPC   C4A  609   8.785   3.580   5.957
   15POPC   C1B  610   8.359   3.402   7.240
   15POPC   C2B  611   8.196   3.678   6.918
   15POPC   C3B  612   8.102   3.505   6.518
   15POPC   C4B  613   8.364   3.571   6.209
   16POPC   NC3  614   0.513   2.742   8.054
   16POPC   PO4  615   0.316   2.083   8.154
   16POPC   GL1  616   0.370   2.377   7.724
   16POPC   GL2  617   0.138   2.666   7.698
   16POPC   C1A  618   0.121   2.383   7.299
   16POPC   D2A  619   0.150   2.628   6.911
   16POPC   C3A  620   0.472   2.543   6.578
   16POPC   C4A  621   0.144   2.478   6.272
   16POPC   C1B  622   0.418   2.795   7.333
   16POPC   C2B  623   0.456   3.045   6.950
   16POPC   C3B  624   0.316   3.032   6.518
   16POPC   C4B  625   0.482   2.862   6.145
   17POPC   NC3  626   8.914   7.739   8.265
   17POPC   PO4  627   8.604   8.165   7.912
   17POPC   GL1  628   8.658   7.965   7.563
   17POPC   GL2  629   8.975   7.787   7.682
   17POPC   C1A  630   8.614   8.244   7.211
   17POPC   D2A  631   8.341   8.241   6.877
   17POPC   C3A  632   8.495   8.003   6.594
   17POPC   C4A  633   8.596   8.178   6.188
   17POPC   C1B  634   9.068   7.929   7.245
   17POPC   C2B  635   8.956   8.130   6.830
   17POPC   C3B  636   8.963   7.929   6.424
   17POPC   C4B  637   8.902   7.504   6.286
   18POPC   NC3  638   2.837  10.043   8.392
   18POPC   PO4  639   3.304  10.292   7.956
   18POPC   GL1  640   3.547  10.146   7.634
   18POPC   GL2  641   3.896  10.090   7.744
   18POPC   C1A  642   3.566  10.261   7.205
   18POPC   D2A  643   3.427  10.186   6.777
   18POPC   C3A  644   3.600  10.420   6.393
   18POPC   C4A  645   3.398  10.342   5.959
   18POPC   C1B  646   3.885   9.861   7.360
   18POPC   C2B  647   3.744   9.813   6.963
   18POPC   C3B  648   3.821   9.960   6.570
   18POPC   C4B  649   3.550   9.946   6.229
   19POPC   NC3  650   9.675   8.237   8.046
   19POPC   PO4  651   9.350   7.722   8.411
   19POPC   GL1  652   9.477   7.723   7.881
   19POPC   GL2  653   9.462   7.999   7.649
   19POPC   C1A  654   9.366   7.547   7.448
   19POPC   D2A  655   9.161   7.469   7.013
   19POPC   C3A  656   9.339   7.656   6.614
   19POPC   C4A  657   9.330   7.757   6.123
   19POPC   C1B  658   9.565   8.192   7.301
   19POPC   C2B  659   9.458   8.061   6.903
   19POPC   C3B  660   9.442   8.140   6.461
   19POPC   C4B  661   9.705   8.098   6.096
   20POPC   NC3  662   8.381   9.195   8.155
   20POPC   PO4  663   8.962   8.964   8.039
   20POPC   GL1  664   8.687   9.083   7.678
   20POPC   GL2  665   8.477   9.396   7.674
   20POPC   C1A  666   8.582   9.168   7.219
   20POPC   D2A  667   8.746   9.127   6.820
   20POPC   C3A  668   8.563   9.132   6.443
   20POPC   C4A  669   8.807   9.131   6.097
   20POPC   C1B  670   8.868   9.526   7.431
   20POPC   C2B  671   8.903   9.593   6.986
   20POPC   C3B  672   8.584   9.605   6.660
   20POPC   C4B  673   8.658   9.598   6.230
   21POPC   NC3  674   9.353   4.668   8.475
   21POPC   PO4  675   9.361   4.495   7.875
   21POPC   GL1  676   9.493   4.752   7.618
   21POPC   GL2  677   9.520   5.034   7.802
   21POPC   C1A  678   9.486   4.756   7.181
   21POPC   D2A  679   9.199   4.747   6.889
   21POPC   C3A  680   9.314   4.692   6.477
   21POPC   C4A  681   8.982   4.638   6.204
   21POPC   C1B  682   9.654   5.198   7.402
   21POPC   C2B  683   9.400   5.304   7.065
   21POPC   C3B  684   9.272   5.202   6.672
   21POPC   C4B  685   9.458   5.152   6.301
   22POPC   NC3  686   0.853   0.902   8.118
   22POPC   PO4  687   1.417   0.786   8.011
   22POPC   GL1  688   1.162   0.896   7.676
   22POPC   GL2  689   1.033   1.224   7.759
   22POPC   C1A  690   1.178   1.090   7.265
   22POPC   D2A  691   1.403   1.108   6.897
   22POPC   C3A  692   1.223   0.896   6.582
   22POPC   C4A  693   1.195   1.034   6.193
   22POPC   C1B  694   1.259   1.528   7.519
   22POPC   C2B  695   1.250   1.579   7.080
   22POPC   C3B  696   1.067   1.456   6.680
   22POPC   C4B  697   1.364   1.490   6.357
   23POPC   NC3  698   6.886   8.730   8.164
   23POPC   PO4  699   7.300   9.228   8.206
   23POPC   GL1  700   7.060   9.070   7.825
   23POPC   GL2  701   7.229   8.728   7.764
   23POPC   C1A  702   7.196   9.037   7.373
   23POPC   D2A  703   7.106   8.805   6.983
   23POPC   C3A  704   7.254   8.893   6.554
   23POPC   C4A  705   7.043   8.811   6.166
   23POPC   C1B  706   7.037   8.494   7.415
   23POPC   C2B  707   7.145   8.268   7.040
   23POPC   C3B  708   7.076   8.420   6.624
   23POPC   C4B  709   6.918   8.333   6.218
   24POPC   NC3  710   0.148   6.375   8.304
   24POPC   PO4  711   9.978   6.399   8.236
   24POPC   GL1  712   9.888   6.457   7.771
   24POPC   GL2  713  10.153   6.286   7.659
   24POPC   C1A  714   9.843   6.306   7.267
   24POPC   D2A  715  10.005   6.481   6.844
   24POPC   C3A  716   9.783   6.372   6.491
   24POPC   C4A  717   9.771   6.077   6.190
   24POPC   C1B  718  10.330   6.389   7.251
   24POPC   C2B  719  10.494   6.419   6.821
   24POPC   C3B  720  10.312   6.355   6.407
   24POPC   C4B  721  10.413   6.584   6.025
   25POPC   NC3  722   5.349   0.380   8.193
   25POPC   PO4  723   4.642   0.206   8.200
   25POPC   GL1  724   4.802   0.407   7.800
   25POPC   GL2  725   4.949   0.750   7.738
   25POPC   C1A  726   4.967   0.269   7.366
   25POPC   D2A  727   5.109   0.406   6.955
   25POPC   C3A  728   4.977   0.123   6.617
   25POPC   C4A  729   5.143   0.114   6.199
   25POPC   C1B  730   4.672   0.680   7.398
   25POPC   C2B  731   4.625   0.613   6.966
   25POPC   C3B  732   4.812   0.607   6.550
   25POPC   C4B  733   4.968   0.599   6.143
   26POPC   NC3  734   5.921   1.249   7.994
   26POPC   PO4  735   5.403   0.824   8.001
   26POPC   GL1  736   5.382   1.006   7.566
   26POPC   GL2  737   5.459   1.360   7.648
   26POPC   C1A  738   5.433   1.134   7.090
   26POPC   D2A  739   5.774   1.225   6.745
   26POPC   C3A  740   5.590   1.026   6.365
   26POPC   C4A  741   5.403   0.839   6.020
   26POPC   C1B  742   5.689   1.516   7.259
   26POPC   C2B  743   5.495   1.654   6.867
   26POPC   C3B  744   5.397   1.507   6.465
   26POPC   C4B  745   5.794   1.464   6.240
   27POPC   NC3  746   9.388   5.191   8.271
   27POPC   PO4  747   9.547   5.884   8.181
   27POPC   GL1  748   9.419   5.837   7.740
   27POPC   GL2  749   9.683   6.018   7.667
   27POPC   C1A  750   9.325   5.774   7.284
   27POPC   D2A  751   9.492   5.976   6.892
   27POPC   C3A  752   9.329   5.822   6.485
   27POPC   C4A  753   9.301   5.976   6.099
   27POPC   C1B  754   9.810   5.694   7.413
   27POPC   C2B  755   9.869   5.612   6.992
   27POPC   C3B  756   9.682   5.495   6.645
   27POPC   C4B  757   9.716   5.577   6.220
   28POPC   NC3  758   5.305   9.112   7.917
   28POPC   PO4  759   5.677   9.705   7.954
   28POPC   GL1  760   5.548   9.464   7.667
   28POPC   GL2  761   5.840   9.396   7.545
   28POPC   C1A  762   5.365   9.318   7.285
   28POPC   D2A  763   5.182   9.448   6.904
   28POPC   C3A  764   5.366   9.323   6.523
   28POPC   C4A  765   5.425   9.529   6.138
   28POPC   C1B  766   5.780   9.690   7.280
   28POPC   C2B  767   5.602   9.785   6.906
   28POPC   C3B  768   5.752   9.646   6.513
   28POPC   C4B  769   5.949   9.425   6.190
   29POPC   NC3  770   9.573   2.617   8.213
   29POPC   PO4  771   9.720   3.221   8.119
   29POPC   GL1  772   9.641   2.928   7.773
   29POPC   GL2  773   9.289   2.804   7.735
   29POPC   C1A  774   9.630   2.707   7.371
   29POPC   D2A  775   9.287   2.801   7.048
   29POPC   C3A  776   9.408   2.873   6.645
   29POPC   C4A  777   9.640   2.623   6.354
   29POPC   C1B  778   9.191   2.460   7.407
   29POPC   C2B  779   9.144   2.297   7.012
   29POPC   C3B  780   9.237   2.387   6.624
   29POPC   C4B  781   9.253   2.332   6.220
   30POPC   NC3  782   2.686   3.458   8.520
   30POPC   PO4  783   2.306   3.304   8.147
   30POPC   GL1  784   2.346   3.464   7.751
   30POPC   GL2  785   2.366   3.153   7.591
   30POPC   C1A  786   2.589   3.548   7.350
   30POPC   D2A  787   2.732   3.363   6.961
   30POPC   C3A  788   2.568   3.495   6.542
   30POPC   C4A  789   2.444   3.458   6.107
   30POPC   C1B  790   2.826   3.087   7.448
   30POPC   C2B  791   2.955   2.907   7.042
   30POPC   C3B  792   2.975   3.056   6.618
   30POPC   C4B  793   3.161   3.241   6.253
   31POPC   NC3  794   4.670  10.168   8.370
   31POPC   PO4  795   4.176   9.826   8.106
   31POPC   GL1  796   4.452   9.947   7.797
   31POPC   GL2  797   4.386  10.268   7.680
   31POPC   C1A  798   4.423   9.864   7.350
   31POPC   D2A  799   4.228   9.983   6.955
   31POPC   C3A  800   4.305   9.816   6.566
   31POPC   C4A  801   4.420   9.976   6.173
   31POPC   C1B  802   4.112  10.320   7.317
   31POPC   C2B  803   3.931  10.385   6.890
   31POPC   C3B  804   4.173  10.318   6.534
   31POPC   C4B  805   4.175   0.022   6.179
   32POPC   NC3  806   2.830   5.318   8.580
   32POPC   PO4  807   2.388   5.215   8.132
   32POPC   GL1  808   2.396   5.380   7.664
   32POPC   GL2  809   2.451   5.738   7.631
   32POPC   C1A  810   2.590   5.448   7.218
   32POPC   D2A  811   2.706   5.622   6.802
   32POPC   C3A  812   2.874   5.408   6.401
   32POPC   C4A  813   3.108   5.516   5.990
   32POPC   C1B  814   2.457   5.959   7.198
   32POPC   C2B  815   2.299   5.939   6.760
   32POPC   C3B  816   2.437   5.705   6.378
   32POPC   C4B  817   2.396   5.875   5.935
   33POPC   NC3  818   5.639  10.156   8.111
   33POPC   PO4  819   6.265  10.069   7.973
   33POPC   GL1  820   5.958  10.059   7.630
   33POPC   GL2  821   5.590  10.115   7.629
   33POPC   C1A  822   5.836  10.179   7.214
   33POPC   D2A  823   5.973  10.366   6.889
   33POPC   C3A  824   5.864  10.131   6.567
   33POPC   C4A  825   6.011  10.155   6.158
   33POPC   C1B  826   5.303  10.316   7.339
   33POPC   C2B  827   5.440  10.283   6.918
   33POPC   C3B  828   5.395  10.329   6.515
   33POPC   C4B  829   5.513  10.160   6.130
   34POPC   NC3  830   6.157   9.634   7.868
   34POPC   PO4  831   6.562   9.129   8.149
   34POPC   GL1  832   6.431   9.213   7.701
   34POPC   GL2  833   6.723   9.375   7.552
   34POPC   C1A  834   6.266   9.396   7.270
   34POPC   D2A  835   6.111   9.618   6.910
   34POPC   C3A  836   6.204   9.319   6.606
   34POPC   C4A  837   6.464   9.393   6.220
   34POPC   C1B  838   6.653   9.676   7.202
   34POPC   C2B  839   6.599   9.559   6.784
   34POPC   C3B  840   6.756   9.738   6.451
   34POPC   C4B  841   6.963   9.822   6.115
   35POPC   NC3  842   0.615   1.844   7.882
   35POPC   PO4  843  10.432   1.720   8.002
   35POPC   GL1  844   0.176   1.652   7.721
   35POPC   GL2  845   0.203   1.931   7.590
   35POPC   C1A  846   0.241   1.530   7.303
   35POPC   D2A  847   0.425   1.653   6.933
   35POPC   C3A  848   0.505   1.475   6.578
   35POPC   C4A  849   0.425   1.683   6.227
   35POPC   C1B  850   0.479   2.023   7.290
   35POPC   C2B  851   0.400   2.166   6.918
   35POPC   C3B  852   0.273   2.056   6.543
   35POPC   C4B  853   0.570   2.164   6.198
   36POPC   NC3  854   3.446   0.986   8.187
   36POPC   PO4  855   3.259   1.521   7.851
   36POPC   GL1  856   3.459   1.224   7.632
   36POPC   GL2  857   3.474   0.862   7.663
   36POPC   C1A  858   3.243   1.088   7.276
   36POPC   D2A  859   2.987   1.060   6.948
   36POPC   C3A  860   3.255   1.210   6.606
   36POPC   C4A  861   3.144   1.346   6.202
   36POPC   C1B  862   3.750   0.953   7.295
   36POPC   C2B  863   3.827   1.241   7.000
   36POPC   C3B  864   3.831   1.110   6.619
   36POPC   C4B  865   3.639   1.213   6.243
   37POPC   NC3  866   9.777   4.323   8.033
   37POPC   PO4  867  10.485   4.423   8.002
   37POPC   GL1  868  10.313   4.428   7.658
   37POPC   GL2  869  10.038   4.199   7.626
   37POPC   C1A  870  10.381   4.434   7.273
   37POPC   D2A  871  10.109   4.464   6.968
   37POPC   C3A  872  10.354   4.482   6.640
   37POPC   C4A  873  10.243   4.620   6.242
   37POPC   C1B  874  10.218   3.945   7.308
   37POPC   C2B  875  10.123   3.947   6.907
   37POPC   C3B  876   9.977   4.174   6.579
   37POPC   C4B  877  10.140   4.121   6.175
   38POPC   NC3  878   7.564   0.124   7.853
   38POPC   PO4  879   7.640   0.756   8.032
   38POPC   GL1  880   7.888   0.511   7.720
   38POPC   GL2  881   7.934   0.163   7.537
   38POPC   C1A  882   7.884   0.599   7.282
   38POPC   D2A  883   7.832   0.850   6.946
   38POPC   C3A  884   7.777   0.659   6.578
   38POPC   C4A  885   7.976   0.770   6.251
   38POPC   C1B  886   7.978   0.113   7.148
   38POPC   C2B  887   7.689   0.240   6.856
   38POPC   C3B  888   7.911   0.163   6.496
   38POPC   C4B  889   7.918   0.290   6.074
   39POPC   NC3  890   7.980   1.962   8.042
   39POPC   PO4  891   7.423   1.603   8.188
   39POPC   GL1  892   7.577   1.658   7.721
   39POPC   GL2  893   7.926   1.727   7.609
   39POPC   C1A  894   7.613   1.672   7.229
   39POPC   D2A  895   7.902   1.729   6.895
   39POPC   C3A  896   7.614   1.816   6.595
   39POPC   C4A  897   7.533   1.775   6.193
   39POPC   C1B  898   7.990   2.025   7.332
   39POPC   C2B  899   8.192   2.146   6.927
   39POPC   C3B  900   8.048   2.059   6.494
   39POPC   C4B  901   7.810   2.212   6.199
   40POPC   NC3  902  10.328   7.839   7.966
   40POPC   PO4  903   9.875   7.364   7.993
   40POPC   GL1  904   9.898   7.591   7.604
   40POPC   GL2  905   9.961   7.941   7.618
   40POPC   C1A  906   9.777   7.715   7.175
   40POPC   D2A  907   9.965   7.957   6.836
   40POPC   C3A  908  10.016   7.822   6.403
   40POPC   C4A  909  10.393   7.787   6.108
   40POPC   C1B  910  10.285   7.819   7.298
   40POPC   C2B  911  10.483   7.899   6.888
   40POPC   C3B  912  10.393   8.161   6.530
   40POPC   C4B  913  10.211   8.269   6.132
   41POPC   NC3  914   2.188   4.772   8.042
   41POPC   PO4  915   1.684   5.245   8.011
   41POPC   GL1  916   1.886   5.288   7.610
   41POPC   GL2  917   1.847   4.948   7.556
   41POPC   C1A  918   2.216   5.107   7.264
   41POPC   D2A  919   2.192   4.960   6.808
   41POPC   C3A  920   2.393   5.159   6.422
   41POPC   C4A  921   2.266   4.972   6.007
   41POPC   C1B  922   1.753   5.224   7.126
   41POPC   C2B  923   1.689   5.120   6.693
   41POPC   C3B  924   1.914   4.894   6.361
   41POPC   C4B  925   1.782   4.658   5.972
   42POPC   NC3  926   7.704   8.423   8.122
   42POPC   PO4  927   8.305   8.346   8.371
   42POPC   GL1  928   8.142   8.384   7.844
   42POPC   GL2  929   7.837   8.597   7.676
   42POPC   C1A  930   8.113   8.356   7.346
   42POPC   D2A  931   7.901   8.495   6.938
   42POPC   C3A  932   7.932   8.297   6.516
   42POPC   C4A  933   8.148   8.386   6.129
   42POPC   C1B  934   7.648   8.806   7.311
   42POPC   C2B  935   7.729   8.957   6.879
   42POPC   C3B  936   7.753   8.834   6.448
   42POPC   C4B  937   7.531   8.966   6.053
   43POPC   NC3  938   1.064   5.992   8.189
   43POPC   PO4  939   1.206   6.619   8.032
   43POPC   GL1  940   1.297   6.252   7.765
   43POPC   GL2  941   0.972   6.207   7.663
   43POPC   C1A  942   1.454   6.193   7.342
   43POPC   D2A  943   1.224   6.193   6.959
   43POPC   C3A  944   1.422   6.292   6.587
   43POPC   C4A  945   1.523   6.115   6.209
   43POPC   C1B  946   1.132   6.583   7.384
   43POPC   C2B  947   1.172   6.834   7.015
   43POPC   C3B  948   1.259   6.930   6.568
   43POPC   C4B  949   1.156   6.607   6.271
   44POPC   NC3  950   1.450   3.198   8.371
   44POPC   PO4  951   0.889   3.019   8.013
   44POPC   GL1  952   1.159   3.192   7.681
   44POPC   GL2  953   1.259   3.550   7.744
   44POPC   C1A  954   1.233   3.312   7.256
   44POPC   D2A  955   1.171   3.584   6.920
   44POPC   C3A  956   1.254   3.311   6.618
   44POPC   C4A  957   1.068   3.270   6.252
   44POPC   C1B  958   1.458   3.762   7.374
   44POPC   C2B  959   1.678   3.574   7.028
   44POPC   C3B  960   1.608   3.688   6.619
   44POPC   C4B  961   1.426   3.607   6.233
   45POPC   NC3  962   1.200   9.538   7.969
   45POPC   PO4  963   0.763   8.968   8.155
   45POPC   GL1  964   0.885   9.143   7.729
   45POPC   GL2  965   1.021   9.444   7.522
   45POPC   C1A  966   0.805   9.095   7.269
   45POPC   D2A  967   1.059   9.359   6.982
   45POPC   C3A  968   0.894   9.460   6.603
   45POPC   C4A  969   0.889   9.185   6.261
   45POPC   C1B  970   1.352   9.591   7.338
   45POPC   C2B  971   1.462   9.720   6.939
   45POPC   C3B  972   1.414   9.520   6.579
   45POPC   C4B  973   1.239   9.516   6.208
   46POPC   NC3  974   8.786   2.402   8.025
   46POPC   PO4  975   8.483   2.940   8.242
   46POPC   GL1  976   8.463   2.790   7.784
   46POPC   GL2  977   8.780   2.727   7.621
   46POPC   C1A  978   8.354   2.879   7.333
   46POPC   D2A  979   8.543   3.015   6.940
   46POPC   C3A  980   8.364   3.020   6.527
   46POPC   C4A  981   8.549   3.012   6.123
   46POPC   C1B  982   8.768   2.617   7.179
   46POPC   C2B  983   8.592   2.454   6.805
   46POPC   C3B  984   8.593   2.578   6.394
   46POPC   C4B  985   9.006   2.800   6.297
   47POPC   NC3  986   0.476   8.593   8.068
   47POPC   PO4  987   0.080   9.137   8.098
   47POPC   GL1  988   0.162   8.808   7.728
   47POPC   GL2  989   0.543   8.738   7.570
   47POPC   C1A  990   0.111   8.537   7.367
   47POPC   D2A  991   0.141   8.422   6.945
   47POPC   C3A  992   0.311   8.690   6.626
   47POPC   C4A  993   0.142   8.546   6.212
   47POPC   C1B  994   0.603   8.660   7.096
   47POPC   C2B  995   0.807   8.431   6.752
   47POPC   C3B  996   0.870   8.702   6.418
   47POPC   C4B  997   0.510   8.871   6.181
   48POPC   NC3  998   2.795   0.535   8.277
   48POPC   PO4  999   2.646  10.399   8.149
   48POPC   GL1 1000   2.597   0.256   7.803
   48POPC   GL2 1001   2.673   0.636   7.704
   48POPC   C1A 1002   2.585   0.275   7.343
   48POPC   D2A 1003   2.561   0.501   6.956
   48POPC   C3A 1004   2.725   0.329   6.568
   48POPC   C4A 1005   2.526   0.379   6.182
   48POPC   C1B 1006   2.929   0.664   7.300
   48POPC   C2B 1007   3.059   0.571   6.871
   48POPC   C3B 1008   3.032   0.765   6.534
   48POPC   C4B 1009   2.910   0.690   6.186
   49POPC   NC3 1010   9.713   0.317   8.341
   49POPC   PO4 1011   9.629   0.767   7.880
   49POPC   GL1 1012   9.581   0.471   7.587
   49POPC   GL2 1013   9.237   0.471   7.621
   49POPC   C1A 1014   9.484   0.319   7.167
   49POPC   D2A 1015   9.124   0.165   6.900
   49POPC   C3A 1016   9.285   0.251   6.482
   49POPC   C4A 1017   9.651   0.191   6.224
   49POPC   C1B 1018   9.289   0.768   7.279
   49POPC   C2B 1019   9.247   0.660   6.852
   49POPC   C3B 1020   9.334   0.773   6.442
   49POPC   C4B 1021   9.473   0.621   6.044
   50POPC   NC3 1022   3.917   1.094   7.871
   50POPC   PO4 1023   4.559   1.202   8.167
   50POPC   GL1 1024   4.505   1.038   7.768
   50POPC   GL2 1025   4.303   0.758   7.752
   50POPC   C1A 1026   4.439   1.119   7.328
   50POPC   D2A 1027   4.394   1.356   6.947
   50POPC   C3A 1028   4.365   1.230   6.551
   50POPC   C4A 1029   4.357   1.496   6.180
   50POPC   C1B 1030   4.165   0.668   7.341
   50POPC   C2B 1031   4.181   0.870   6.958
   50POPC   C3B 1032   4.233   0.726   6.573
   50POPC   C4B 1033   4.097   0.948   6.227
   51POPC   NC3 1034   3.181   2.745   8.024
   51POPC   PO4 1035   3.756   2.797   8.102
   51POPC   GL1 1036   3.660   2.760   7.654
   51POPC   GL2 1037   3.426   2.471   7.636
   51POPC   C1A 1038   3.657   2.960   7.208
   51POPC   D2A 1039   3.442   2.981   6.789
   51POPC   C3A 1040   3.641   3.024   6.367
   51POPC   C4A 1041   3.553   3.157   5.917
   51POPC   C1B 1042   3.311   2.569   7.200
   51POPC   C2B 1043   3.159   2.531   6.774
   51POPC   C3B 1044   3.301   2.650   6.382
   51POPC   C4B 1045   3.216   2.351   6.035
   52POPC   NC3 1046   2.533   1.153   8.007
   52POPC   PO4 1047   2.883   1.631   8.362
   52POPC   GL1 1048   2.754   1.579   7.820
   52POPC   GL2 1049   2.893   1.231   7.644
   52POPC   C1A 1050   2.667   1.562   7.302
   52POPC   D2A 1051   2.880   1.533   6.849
   52POPC   C3A 1052   2.739   1.220   6.501
   52POPC   C4A 1053   2.566   1.359   6.084
   52POPC   C1B 1054   2.606   1.042   7.323
   52POPC   C2B 1055   2.409   1.003   6.897
   52POPC   C3B 1056   2.483   0.782   6.517
   52POPC   C4B 1057   2.438   0.874   6.091
   53POPC   NC3 1058   3.452   7.944   8.090
   53POPC   PO4 1059   3.909   8.460   8.005
   53POPC   GL1 1060   3.661   8.316   7.624
   53POPC   GL2 1061   3.339   8.119   7.644
   53POPC   C1A 1062   3.531   8.196   7.183
   53POPC   D2A 1063   3.410   8.294   6.779
   53POPC   C3A 1064   3.490   8.007   6.423
   53POPC   C4A 1065   3.303   8.080   6.021
   53POPC   C1B 1066   3.244   7.801   7.345
   53POPC   C2B 1067   3.362   7.767   6.902
   53POPC   C3B 1068   3.173   7.597   6.524
   53POPC   C4B 1069   3.160   7.607   6.082
   54POPC   NC3 1070   3.619   8.819   7.903
   54POPC   PO4 1071   3.048   8.996   7.964
   54POPC   GL1 1072   3.059   8.902   7.560
   54POPC   GL2 1073   3.231   8.612   7.591
   54POPC   C1A 1074   2.982   8.671   7.160
   54POPC   D2A 1075   3.251   8.785   6.860
   54POPC   C3A 1076   3.215   8.674   6.476
   54POPC   C4A 1077   3.224   8.951   6.137
   54POPC   C1B 1078   3.569   8.696   7.248
   54POPC   C2B 1079   3.781   8.650   6.808
   54POPC   C3B 1080   3.682   8.477   6.375
   54POPC   C4B 1081   3.517   8.560   5.930
   55POPC   NC3 1082   1.398   4.162   8.109
   55POPC   PO4 1083   0.966   4.591   8.106
   55POPC   GL1 1084   0.945   4.349   7.720
   55POPC   GL2 1085   1.086   4.036   7.716
   55POPC   C1A 1086   1.179   4.409   7.317
   55POPC   D2A 1087   1.266   4.595   6.896
   55POPC   C3A 1088   1.018   4.508   6.548
   55POPC   C4A 1089   1.088   4.418   6.130
   55POPC   C1B 1090   0.997   3.933   7.282
   55POPC   C2B 1091   1.333   4.073   6.941
   55POPC   C3B 1092   1.267   4.053   6.489
   55POPC   C4B 1093   0.945   3.746   6.384
   56POPC   NC3 1094   9.087   8.517   8.061
   56POPC   PO4 1095   9.644   8.791   8.030
   56POPC   GL1 1096   9.472   8.577   7.676
   56POPC   GL2 1097   9.224   8.806   7.635
   56POPC   C1A 1098   9.509   8.706   7.221
   56POPC   D2A 1099   9.288   8.540   6.828
   56POPC   C3A 1100   9.483   8.644   6.500
   56POPC   C4A 1101   9.480   8.556   6.082
   56POPC   C1B 1102   9.139   9.088   7.308
   56POPC   C2B 1103   9.237   9.035   6.882
   56POPC   C3B 1104   9.088   8.948   6.469
   56POPC   C4B 1105   9.302   9.029   6.065
   57POPC   NC3 1106   1.089   7.857   8.120
   57POPC   PO4 1107   1.412   8.323   7.807
   57POPC   GL1 1108   1.261   7.960   7.632
   57POPC   GL2 1109   0.882   7.928   7.661
   57POPC   C1A 1110   1.401   7.998   7.223
   57POPC   D2A 1111   1.507   7.749   6.915
   57POPC   C3A 1112   1.351   7.891   6.557
   57POPC   C4A 1113   1.545   7.819   6.216
   57POPC   C1B 1114   0.854   7.774   7.267
   57POPC   C2B 1115   0.980   7.941   6.909
   57POPC   C3B 1116   0.806   7.903   6.525
   57POPC   C4B 1117   0.987   7.964   6.177
   58POPC   NC3 1118   2.086   7.314   7.988
   58POPC   PO4 1119   1.455   7.587   7.990
   58POPC   GL1 1120   1.612   7.291   7.650
   58POPC   GL2 1121   1.928   7.256   7.521
   58POPC   C1A 1122   1.549   7.090   7.251
   58POPC   D2A 1123   1.771   7.293   6.907
   58POPC   C3A 1124   1.635   7.283   6.468
   58POPC   C4A 1125   1.681   6.900   6.190
   58POPC   C1B 1126   2.330   7.310   7.348
   58POPC   C2B 1127   2.393   7.392   6.922
   58POPC   C3B 1128   2.136   7.475   6.592
   58POPC   C4B 1129   2.091   7.224   6.212
   59POPC   NC3 1130   6.909   9.462   8.185
   59POPC   PO4 1131   7.532   9.855   8.131
   59POPC   GL1 1132   7.251   9.606   7.820
   59POPC   GL2 1133   7.449   9.350   7.677
   59POPC   C1A 1134   7.134   9.587   7.347
   59POPC   D2A 1135   6.926   9.295   7.048
   59POPC   C3A 1136   7.018   9.332   6.618
   59POPC   C4A 1137   7.004   9.308   6.193
   59POPC   C1B 1138   7.611   9.335   7.291
   59POPC   C2B 1139   7.407   9.328   6.948
   59POPC   C3B 1140   7.544   9.320   6.571
   59POPC   C4B 1141   7.509   9.441   6.221
   60POPC   NC3 1142   0.535   7.555   7.854
   60POPC   PO4 1143   0.643   8.167   8.055
   60POPC   GL1 1144   0.439   8.235   7.679
   60POPC   GL2 1145   0.208   7.963   7.620
   60POPC   C1A 1146   0.562   8.200   7.271
   60POPC   D2A 1147   0.476   8.052   6.887
   60POPC   C3A 1148   0.396   8.211   6.511
   60POPC   C4A 1149   0.621   8.338   6.192
   60POPC   C1B 1150   0.324   7.718   7.250
   60POPC   C2B 1151   0.488   7.567   6.844
   60POPC   C3B 1152   0.269   7.722   6.471
   60POPC   C4B 1153   0.461   7.882   6.081
   61POPC   NC3 1154   2.669   1.977   8.164
   61POPC   PO4 1155   2.056   2.185   8.264
   61POPC   GL1 1156   2.336   2.184   7.788
   61POPC   GL2 1157   2.683   2.108   7.681
   61POPC   C1A 1158   2.411   2.060   7.272
   61POPC   D2A 1159   2.583   1.929   6.825
   61POPC   C3A 1160   2.459   2.159   6.405
   61POPC   C4A 1161   2.340   2.200   5.914
   61POPC   C1B 1162   2.983   1.960   7.383
   61POPC   C2B 1163   3.099   2.054   6.960
   61POPC   C3B 1164   2.999   2.056   6.540
   61POPC   C4B 1165   2.769   1.713   6.370
   62POPC   NC3 1166   4.170   2.607   8.078
   62POPC   PO4 1167   4.591   3.097   7.912
   62POPC   GL1 1168   4.352   2.804   7.582
   62POPC   GL2 1169   4.156   2.471   7.579
   62POPC   C1A 1170   4.208   2.753   7.122
   62POPC   D2A 1171   3.980   2.979   6.789
   62POPC   C3A 1172   4.163   3.024   6.380
   62POPC   C4A 1173   4.009   2.944   5.987
   62POPC   C1B 1174   3.806   2.477   7.259
   62POPC   C2B 1175   3.693   2.549   6.816
   62POPC   C3B 1176   3.906   2.569   6.405
   62POPC   C4B 1177   4.351   2.487   6.291
   63POPC   NC3 1178   2.819   8.606   7.971
   63POPC   PO4 1179   2.310   9.070   8.096
   63POPC   GL1 1180   2.563   8.979   7.723
   63POPC   GL2 1181   2.621   8.631   7.529
   63POPC   C1A 1182   2.648   9.065   7.307
   63POPC   D2A 1183   2.548   8.861   6.962
   63POPC   C3A 1184   2.754   8.881   6.589
   63POPC   C4A 1185   2.588   8.887   6.206
   63POPC   C1B 1186   2.490   8.390   7.189
   63POPC   C2B 1187   2.637   8.394   6.774
   63POPC   C3B 1188   2.691   8.423   6.362
   63POPC   C4B 1189   3.013   8.487   6.065
   64POPC   NC3 1190   5.791   0.520   7.921
   64POPC   PO4 1191   5.275  10.448   8.017
   64POPC   GL1 1192   5.534   0.129   7.709
   64POPC   GL2 1193   5.381   0.458   7.613
   64POPC   C1A 1194   5.682   0.155   7.270
   64POPC   D2A 1195   5.588   0.243   6.836
   64POPC   C3A 1196   5.802   0.129   6.464
   64POPC   C4A 1197   5.668   0.136   6.015
   64POPC   C1B 1198   5.631   0.662   7.249
   64POPC   C2B 1199   5.580   0.739   6.802
   64POPC   C3B 1200   5.430   0.521   6.428
   64POPC   C4B 1201   5.814   0.581   6.212
   65POPC   NC3 1202   8.921   4.347   7.872
   65POPC   PO4 1203   9.461   4.111   8.294
   65POPC   GL1 1204   9.436   4.015   7.796
   65POPC   GL2 1205   9.655   3.813   7.652
   65POPC   C1A 1206   9.448   4.210   7.331
   65POPC   D2A 1207   9.513   4.317   6.877
   65POPC   C3A 1208   9.127   4.243   6.622
   65POPC   C4A 1209   9.212   4.169   6.209
   65POPC   C1B 1210   9.717   3.802   7.195
   65POPC   C2B 1211   9.639   3.816   6.760
   65POPC   C3B 1212   9.637   3.912   6.335
   65POPC   C4B 1213   9.672   4.380   6.230
   66POPC   NC3 1214   1.447  10.236   8.235
   66POPC   PO4 1215   0.893   0.058   8.134
   66POPC   GL1 1216   1.177  10.393   7.781
   66POPC   GL2 1217   1.224  10.036   7.760
   66POPC   C1A 1218   1.362  10.453   7.370
   66POPC   D2A 1219   1.352  10.212   6.967
   66POPC   C3A 1220   1.431  10.389   6.604
   66POPC   C4A 1221   1.353  10.365   6.198
   66POPC   C1B 1222   1.081  10.012   7.347
   66POPC   C2B 1223   0.963   9.881   6.907
   66POPC   C3B 1224   1.111   9.960   6.466
   66POPC   C4B 1225   1.136   9.959   5.991
   67POPC   NC3 1226  10.329   1.308   8.189
   67POPC   PO4 1227   0.515   1.208   8.111
   67POPC   GL1 1228   0.250   1.159   7.712
   67POPC   GL2 1229   0.550   1.269   7.604
   67POPC   C1A 1230   0.255   1.026   7.266
   67POPC   D2A 1231   0.095   1.231   6.928
   67POPC   C3A 1232   0.204   1.040   6.592
   67POPC   C4A 1233   0.346   1.067   6.210
   67POPC   C1B 1234   0.775   1.456   7.289
   67POPC   C2B 1235   0.729   1.179   6.962
   67POPC   C3B 1236   0.739   1.035   6.554
   67POPC   C4B 1237   0.789   1.310   6.178
   68POPC   NC3 1238   8.767   6.571   7.857
   68POPC   PO4 1239   8.745   5.953   7.705
   68POPC   GL1 1240   8.867   6.200   7.429
   68POPC   GL2 1241   8.987   6.595   7.417
   68POPC   C1A 1242   8.736   6.002   7.043
   68POPC   D2A 1243   8.516   6.102   6.680
   68POPC   C3A 1244   8.809   6.036   6.374
   68POPC   C4A 1245   8.881   6.181   5.974
   68POPC   C1B 1246   8.649   6.521   7.131
   68POPC   C2B 1247   8.720   6.604   6.713
   68POPC   C3B 1248   8.574   6.529   6.313
   68POPC   C4B 1249   8.401   6.837   5.988
   69POPC   NC3 1250   7.710   9.422   8.086
   69POPC   PO4 1251   8.115   8.843   8.043
   69POPC   GL1 1252   7.978   9.102   7.682
   69POPC   GL2 1253   7.958   9.457   7.650
   69POPC   C1A 1254   8.066   9.098   7.241
   69POPC   D2A 1255   8.234   9.205   6.831
   69POPC   C3A 1256   8.040   9.270   6.437
   69POPC   C4A 1257   8.265   9.337   6.056
   69POPC   C1B 1258   8.075   9.613   7.283
   69POPC   C2B 1259   7.882   9.554   6.897
   69POPC   C3B 1260   7.807   9.802   6.551
   69POPC   C4B 1261   7.940   9.711   6.159
   70POPC   NC3 1262   1.281   4.932   8.122
   70POPC   PO4 1263   1.762   4.436   8.138
   70POPC   GL1 1264   1.456   4.607   7.733
   70POPC   GL2 1265   1.139   4.816   7.668
   70POPC   C1A 1266   1.442   4.859   7.292
   70POPC   D2A 1267   1.257   5.147   7.008
   70POPC   C3A 1268   1.187   5.028   6.601
   70POPC   C4A 1269   1.415   4.774   6.310
   70POPC   C1B 1270   0.915   4.862   7.305
   70POPC   C2B 1271   0.784   4.780   6.937
   70POPC   C3B 1272   0.693   4.904   6.553
   70POPC   C4B 1273   0.924   4.893   6.178
   71POPC   NC3 1274  10.434   2.209   7.909
   71POPC   PO4 1275   9.842   2.247   8.309
   71POPC   GL1 1276   9.902   2.197   7.844
   71POPC   GL2 1277  10.036   1.902   7.744
   71POPC   C1A 1278  10.020   2.236   7.361
   71POPC   D2A 1279  10.277   2.228   6.961
   71POPC   C3A 1280  10.208   2.006   6.563
   71POPC   C4A 1281  10.443   1.932   6.179
   71POPC   C1B 1282  10.281   1.795   7.355
   71POPC   C2B 1283  10.399   1.723   6.952
   71POPC   C3B 1284   0.014   1.595   6.570
   71POPC   C4B 1285  10.490   1.420   6.199
   72POPC   NC3 1286   7.277   1.349   8.544
   72POPC   PO4 1287   7.138   0.898   8.116
   72POPC   GL1 1288   7.132   0.994   7.663
   72POPC   GL2 1289   6.935   1.286   7.740
   72POPC   C1A 1290   6.943   0.984   7.257
   72POPC   D2A 1291   6.718   1.079   6.883
   72POPC   C3A 1292   6.941   1.091   6.517
   72POPC   C4A 1293   7.012   0.938   6.113
   72POPC   C1B 1294   7.186   1.447   7.420
   72POPC   C2B 1295   7.173   1.384   7.005
   72POPC   C3B 1296   7.236   1.480   6.592
   72POPC   C4B 1297   7.253   1.368   6.171
   73POPC   NC3 1298  10.464   3.976   7.905
   73POPC   PO4 1299   0.619   3.950   8.001
   73POPC   GL1 1300   0.552   4.026   7.612
   73POPC   GL2 1301   0.332   4.308   7.602
   73POPC   C1A 1302   0.392   3.921   7.214
   73POPC   D2A 1303   0.096   4.110   6.953
   73POPC   C3A 1304   0.006   4.009   6.540
   73POPC   C4A 1305   0.122   4.286   6.232
   73POPC   C1B 1306   0.676   4.366   7.269
   73POPC   C2B 1307   0.796   4.175   6.881
   73POPC   C3B 1308   0.602   4.149   6.490
   73POPC   C4B 1309   0.594   4.487   6.223
   74POPC   NC3 1310   1.628   6.433   8.109
   74POPC   PO4 1311   1.837   6.936   7.986
   74POPC   GL1 1312   1.621   6.693   7.659
   74POPC   GL2 1313   1.811   6.338   7.652
   74POPC   C1A 1314   1.701   6.610   7.220
   74POPC   D2A 1315   1.647   6.720   6.801
   74POPC   C3A 1316   1.995   6.886   6.596
   74POPC   C4A 1317   2.304   6.722   6.305
   74POPC   C1B 1318   1.968   6.156   7.256
   74POPC   C2B 1319   2.049   6.386   6.884
   74POPC   C3B 1320   1.956   6.325   6.479
   74POPC   C4B 1321   1.998   5.939   6.269
   75POPC   NC3 1322   9.976   0.284   7.870
   75POPC   PO4 1323  10.191   0.842   8.266
   75POPC   GL1 1324  10.123   0.851   7.787
   75POPC   GL2 1325  10.404   0.697   7.674
   75POPC   C1A 1326  10.006   0.635   7.336
   75POPC   D2A 1327   9.987   0.316   6.995
   75POPC   C3A 1328   9.751   0.471   6.639
   75POPC   C4A 1329   9.929   0.607   6.237
   75POPC   C1B 1330   0.013   0.564   7.257
   75POPC   C2B 1331   0.020   0.528   6.834
   75POPC   C3B 1332  10.394   0.638   6.439
   75POPC   C4B 1333  10.347   0.266   6.197
   76POPC   NC3 1334   6.475   7.967   8.228
   76POPC   PO4 1335   6.840   7.562   8.014
   76POPC   GL1 1336   6.535   7.823   7.739
   76POPC   GL2 1337   6.200   8.041   7.803
   76POPC   C1A 1338   6.499   8.142   7.416
   76POPC   D2A 1339   6.221   8.150   7.063
   76POPC   C3A 1340   6.366   8.063   6.674
   76POPC   C4A 1341   6.491   8.047   6.254
   76POPC   C1B 1342   6.150   7.762   7.400
   76POPC   C2B 1343   6.311   7.630   6.972
   76POPC   C3B 1344   6.283   7.603   6.498
   76POPC   C4B 1345   6.009   7.881   6.234
   77POPC   NC3 1346   1.879   8.918   8.106
   77POPC   PO4 1347   1.583   8.412   8.292
   77POPC   GL1 1348   1.861   8.509   7.807
   77POPC   GL2 1349   2.226   8.601   7.868
   77POPC   C1A 1350   1.690   8.593   7.305
   77POPC   D2A 1351   1.634   8.829   6.889
   77POPC   C3A 1352   1.722   8.655   6.469
   77POPC   C4A 1353   1.793   8.727   6.016
   77POPC   C1B 1354   2.159   8.758   7.416
   77POPC   C2B 1355   2.095   8.611   6.975
   77POPC   C3B 1356   2.248   8.671   6.576
   77POPC   C4B 1357   2.223   8.529   6.202
   78POPC   NC3 1358   1.982   9.945   8.250
   78POPC   PO4 1359   1.674   0.092   8.038
   78POPC   GL1 1360   1.730  10.217   7.761
   78POPC   GL2 1361   1.996  10.303   7.523
   78POPC   C1A 1362   1.645  10.016   7.336
   78POPC   D2A 1363   1.870  10.111   6.925
   78POPC   C3A 1364   1.674   9.963   6.541
   78POPC   C4A 1365   1.626   9.807   6.133
   78POPC   C1B 1366   2.170   0.034   7.183
   78POPC   C2B 1367   2.303   0.067   6.762
   78POPC   C3B 1368   2.129  10.322   6.445
   78POPC   C4B 1369   2.108   9.926   6.296
   79POPC   NC3 1370   0.510   7.164   8.363
   79POPC   PO4 1371   0.076   7.443   7.902
   79POPC   GL1 1372   0.278   7.127   7.677
   79POPC   GL2 1373   0.628   7.025   7.732
   79POPC   C1A 1374   0.358   7.210   7.251
   79POPC   D2A 1375   0.124   7.225   6.907
   79POPC   C3A 1376   0.329   7.195   6.515
   79POPC   C4A 1377   0.656   7.449   6.309
   79POPC   C1B 1378   0.642   6.786   7.306
   79POPC   C2B 1379   0.381   6.748   6.901
   79POPC   C3B 1380   0.298   6.658   6.470
   79POPC   C4B 1381   0.450   6.870   6.136
   80POPC   NC3 1382   1.868   0.837   8.058
   80POPC   PO4 1383   2.160   1.452   7.946
   80POPC   GL1 1384   2.085   1.091   7.657
   80POPC   GL2 1385   1.704   0.997   7.592
   80POPC   C1A 1386   2.163   1.270   7.265
   80POPC   D2A 1387   2.207   1.634   7.028
   80POPC   C3A 1388   2.341   1.512   6.636
   80POPC   C4A 1389   2.177   1.196   6.367
   80POPC   C1B 1390   1.810   0.930   7.157
   80POPC   C2B 1391   1.904   1.220   6.811
   80POPC   C3B 1392   1.685   1.113   6.426
   80POPC   C4B 1393   1.584   0.719   6.263
   81POPC   NC3 1394   2.900  10.091   7.889
   81POPC   PO4 1395   2.240  10.043   7.878
   81POPC   GL1 1396   2.516  10.272   7.572
   81POPC   GL2 1397   2.877  10.406   7.525
   81POPC   C1A 1398   2.553  10.219   7.114
   81POPC   D2A 1399   2.382   9.970   6.770
   81POPC   C3A 1400   2.608  10.017   6.400
   81POPC   C4A 1401   2.634  10.412   6.283
   81POPC   C1B 1402   3.052  10.183   7.161
   81POPC   C2B 1403   2.954  10.388   6.745
   81POPC   C3B 1404   3.105  10.213   6.373
   81POPC   C4B 1405   3.059   9.760   6.332
   82POPC   NC3 1406   7.885  10.151   8.217
   82POPC   PO4 1407   8.198   9.605   8.069
   82POPC   GL1 1408   8.104   9.954   7.760
   82POPC   GL2 1409   7.810  10.182   7.718
   82POPC   C1A 1410   8.154  10.140   7.328
   82POPC   D2A 1411   8.219   9.955   6.918
   82POPC   C3A 1412   8.215  10.230   6.576
   82POPC   C4A 1413   7.934  10.232   6.227
   82POPC   C1B 1414   7.645  10.282   7.295
   82POPC   C2B 1415   7.763  10.230   6.854
   82POPC   C3B 1416   7.513  10.328   6.490
   82POPC   C4B 1417   7.529  10.421   5.998
   83POPC   NC3 1418   1.391   7.070   8.026
   83POPC   PO4 1419   0.836   7.462   8.195
   83POPC   GL1 1420   1.042   7.424   7.744
   83POPC   GL2 1421   1.137   7.076   7.590
   83POPC   C1A 1422   1.284   7.520   7.342
   83POPC   D2A 1423   1.238   7.322   6.926
   83POPC   C3A 1424   1.092   7.453   6.563
   83POPC   C4A 1425   1.234   7.436   6.153
   83POPC   C1B 1426   0.864   7.247   7.284
   83POPC   C2B 1427   0.734   7.122   6.889
   83POPC   C3B 1428   0.756   6.885   6.544
   83POPC   C4B 1429   0.924   7.051   6.200
   84POPC   NC3 1430   6.894   9.991   8.191
   84POPC   PO4 1431   7.123   0.083   7.975
   84POPC   GL1 1432   7.200  10.393   7.604
   84POPC   GL2 1433   7.308  10.106   7.743
   84POPC   C1A 1434   7.162  10.147   7.232
   84POPC   D2A 1435   6.949   9.941   6.910
   84POPC   C3A 1436   6.864  10.219   6.588
   84POPC   C4A 1437   7.083  10.313   6.224
   84POPC   C1B 1438   7.568   9.819   7.451
   84POPC   C2B 1439   7.469   9.824   6.990
   84POPC   C3B 1440   7.287   9.790   6.557
   84POPC   C4B 1441   7.460   9.935   6.170
   85POPC   NC3 1442   4.376   0.610   8.232
   85POPC   PO4 1443   3.775   0.671   8.019
   85POPC   GL1 1444   3.937   0.370   7.720
   85POPC   GL2 1445   4.273   0.252   7.837
   85POPC   C1A 1446   3.857   0.253   7.296
   85POPC   D2A 1447   3.838   0.494   6.942
   85POPC   C3A 1448   3.927   0.293   6.569
   85POPC   C4A 1449   3.957   0.472   6.172
   85POPC   C1B 1450   4.421   0.227   7.412
   85POPC   C2B 1451   4.279   0.251   6.986
   85POPC   C3B 1452   4.451   0.245   6.573
   85POPC   C4B 1453   4.472   0.474   6.189
   86POPC   NC3 1454   1.621   2.353   8.367
   86POPC   PO4 1455   1.525   2.982   7.977
   86POPC   GL1 1456   1.644   2.822   7.577
   86POPC   GL2 1457   2.004   2.792   7.625
   86POPC   C1A 1458   1.650   2.549   7.210
   86POPC   D2A 1459   1.680   2.370   6.791
   86POPC   C3A 1460   1.502   2.513   6.472
   86POPC   C4A 1461   1.780   2.659   6.190
   86POPC   C1B 1462   2.152   2.498   7.354
   86POPC   C2B 1463   2.112   2.561   6.957
   86POPC   C3B 1464   2.136   2.560   6.550
   86POPC   C4B 1465   2.326   2.621   6.174
   87POPC   NC3 1466   8.443   5.113   8.021
   87POPC   PO4 1467   8.868   4.700   8.372
   87POPC   GL1 1468   9.015   4.879   7.911
   87POPC   GL2 1469   8.731   4.826   7.717
   87POPC   C1A 1470   9.086   5.013   7.403
   87POPC   D2A 1471   8.846   5.123   6.967
   87POPC   C3A 1472   8.838   4.955   6.564
   87POPC   C4A 1473   8.610   5.111   6.223
   87POPC   C1B 1474   8.616   4.819   7.298
   87POPC   C2B 1475   8.739   4.537   6.951
   87POPC   C3B 1476   8.635   4.440   6.525
   87POPC   C4B 1477   8.456   4.618   6.139
   88POPC   NC3 1478  10.169   9.865   8.166
   88POPC   PO4 1479   9.781  10.411   8.148
   88POPC   GL1 1480   9.957  10.283   7.725
   88POPC   GL2 1481  10.316  10.149   7.756
   88POPC   C1A 1482   9.796  10.417   7.294
   88POPC   D2A 1483   9.566  10.391   6.891
   88POPC   C3A 1484   9.831  10.332   6.551
   88POPC   C4A 1485  10.033  10.372   6.165
   88POPC   C1B 1486  10.301  10.348   7.342
   88POPC   C2B 1487  10.189  10.278   6.931
   88POPC   C3B 1488   0.017  10.176   6.642
   88POPC   C4B 1489  10.456  10.112   6.226
   89POPC   NC3 1490   0.712   1.937   8.376
   89POPC   PO4 1491   1.370   1.970   8.274
   89POPC   GL1 1492   1.411   2.103   7.865
   89POPC   GL2 1493   1.109   1.968   7.777
   89POPC   C1A 1494   1.482   1.976   7.437
   89POPC   D2A 1495   1.382   2.082   7.054
   89POPC   C3A 1496   1.292   1.931   6.651
   89POPC   C4A 1497   1.425   1.991   6.242
   89POPC   C1B 1498   0.985   1.997   7.360
   89POPC   C2B 1499   0.873   1.899   6.981
   89POPC   C3B 1500   0.763   1.930   6.612
   89POPC   C4B 1501   0.941   1.784   6.288
   90POPC   NC3 1502   8.629   5.112   8.520
   90POPC   PO4 1503   8.193   5.487   8.022
   90POPC   GL1 1504   8.127   5.229   7.597
   90POPC   GL2 1505   8.189   4.886   7.631
   90POPC   C1A 1506   8.289   5.165   7.142
   90POPC   D2A 1507   8.381   4.870   6.773
   90POPC   C3A 1508   8.145   4.989   6.376
   90POPC   C4A 1509   8.078   5.140   5.933
   90POPC   C1B 1510   8.127   4.678   7.203
   90POPC   C2B 1511   7.874   4.786   6.804
   90POPC   C3B 1512   7.646   4.863   6.381
   90POPC   C4B 1513   7.463   4.863   5.947
   91POPC   NC3 1514   5.573   2.174   7.959
   91POPC   PO4 1515   6.088   1.677   7.961
   91POPC   GL1 1516   5.726   1.822   7.652
   91POPC   GL2 1517   5.852   2.183   7.552
   91POPC   C1A 1518   5.539   2.011   7.220
   91POPC   D2A 1519   5.752   2.181   6.861
   91POPC   C3A 1520   5.538   2.217   6.456
   91POPC   C4A 1521   5.512   1.901   6.139
   91POPC   C1B 1522   6.036   1.885   7.272
   91POPC   C2B 1523   6.062   1.778   6.853
   91POPC   C3B 1524   5.935   1.899   6.459
   91POPC   C4B 1525   5.978   1.978   6.003
   92POPC   NC3 1526   1.689   8.024   8.026
   92POPC   PO4 1527   2.270   7.701   8.144
   92POPC   GL1 1528   2.124   7.724   7.664
   92POPC   GL2 1529   1.766   7.776   7.586
   92POPC   C1A 1530   2.086   7.728   7.168
   92POPC   D2A 1531   2.337   7.995   6.879
   92POPC   C3A 1532   2.329   8.018   6.404
   92POPC   C4A 1533   2.047   7.730   6.170
   92POPC   C1B 1534   1.961   8.160   7.405
   92POPC   C2B 1535   1.835   8.175   6.983
   92POPC   C3B 1536   1.867   7.957   6.609
   92POPC   C4B 1537   1.856   8.203   6.233
   93POPC   NC3 1538   9.557   3.663   8.182
   93POPC   PO4 1539   8.855   3.710   8.233
   93POPC   GL1 1540   9.105   3.633   7.850
   93POPC   GL2 1541   9.359   3.378   7.779
   93POPC   C1A 1542   9.217   3.723   7.403
   93POPC   D2A 1543   9.198   3.908   7.001
   93POPC   C3A 1544   9.139   3.695   6.624
   93POPC   C4A 1545   9.226   3.652   6.191
   93POPC   C1B 1546   9.222   3.210   7.373
   93POPC   C2B 1547   9.372   3.401   6.976
   93POPC   C3B 1548   9.544   3.377   6.542
   93POPC   C4B 1549   9.485   3.108   6.201
   94POPC   NC3 1550   0.513   4.423   8.081
   94POPC   PO4 1551   0.276   5.038   8.280
   94POPC   GL1 1552   0.268   4.819   7.805
   94POPC   GL2 1553   0.619   4.758   7.709
   94POPC   C1A 1554   0.317   4.709   7.298
   94POPC   D2A 1555   0.349   4.537   6.845
   94POPC   C3A 1556   0.229   4.757   6.456
   94POPC   C4A 1557   0.200   4.742   5.996
   94POPC   C1B 1558   0.496   5.148   7.463
   94POPC   C2B 1559   0.376   5.132   7.010
   94POPC   C3B 1560   0.330   5.272   6.581
   94POPC   C4B 1561   0.451   5.147   6.150
   95POPC   NC3 1562   1.222   8.651   8.089
   95POPC   PO4 1563   1.619   9.267   7.982
   95POPC   GL1 1564   1.429   8.913   7.692
   95POPC   GL2 1565   1.084   8.687   7.600
   95POPC   C1A 1566   1.310   8.978   7.262
   95POPC   D2A 1567   1.080   8.846   6.900
   95POPC   C3A 1568   1.273   9.022   6.554
   95POPC   C4A 1569   1.310   8.829   6.174
   95POPC   C1B 1570   1.083   8.419   7.211
   95POPC   C2B 1571   1.338   8.360   6.820
   95POPC   C3B 1572   1.284   8.356   6.358
   95POPC   C4B 1573   1.053   8.430   5.956
   96POPC   NC3 1574   6.770   0.727   7.912
   96POPC   PO4 1575   6.123   0.805   8.076
   96POPC   GL1 1576   6.349   0.971   7.734
   96POPC   GL2 1577   6.413   1.314   7.770
   96POPC   C1A 1578   6.421   0.945   7.298
   96POPC   D2A 1579   6.117   0.863   6.982
   96POPC   C3A 1580   6.299   0.920   6.592
   96POPC   C4A 1581   6.099   1.030   6.228
   96POPC   C1B 1582   6.182   1.393   7.372
   96POPC   C2B 1583   6.281   1.342   6.945
   96POPC   C3B 1584   6.273   1.434   6.514
   96POPC   C4B 1585   6.551   1.243   6.224
   97POPC   NC3 1586   3.289   1.772   8.221
   97POPC   PO4 1587   3.840   1.362   8.234
   97POPC   GL1 1588   3.812   1.602   7.792
   97POPC   GL2 1589   3.592   1.919   7.739
   97POPC   C1A 1590   3.671   1.599   7.334
   97POPC   D2A 1591   3.386   1.565   6.972
   97POPC   C3A 1592   3.468   1.676   6.521
   97POPC   C4A 1593   3.266   1.857   6.155
   97POPC   C1B 1594   3.486   2.074   7.309
   97POPC   C2B 1595   3.614   2.045   6.884
   97POPC   C3B 1596   3.517   2.195   6.477
   97POPC   C4B 1597   3.725   2.170   6.099
   98POPC   NC3 1598   6.328   0.489   8.366
   98POPC   PO4 1599   5.764   0.166   8.216
   98POPC   GL1 1600   6.070   0.081   7.813
   98POPC   GL2 1601   6.288   0.404   7.728
   98POPC   C1A 1602   6.182   0.058   7.335
   98POPC   D2A 1603   6.078   0.360   6.960
   98POPC   C3A 1604   6.251   0.405   6.518
   98POPC   C4A 1605   6.165   0.192   6.118
   98POPC   C1B 1606   6.523   0.432   7.316
   98POPC   C2B 1607   6.572   0.579   6.911
   98POPC   C3B 1608   6.742   0.624   6.520
   98POPC   C4B 1609   6.562   0.731   6.169
   99POPC   NC3 1610   1.281   2.606   7.899
   99POPC   PO4 1611   0.774   2.259   8.029
   99POPC   GL1 1612   0.868   2.430   7.615
   99POPC   GL2 1613   0.842   2.777   7.583
   99POPC   C1A 1614   0.781   2.446   7.155
   99POPC   D2A 1615   1.070   2.380   6.801
   99POPC   C3A 1616   1.024   2.323   6.364
   99POPC   C4A 1617   0.887   2.574   6.001
   99POPC   C1B 1618   1.186   2.787   7.289
   99POPC   C2B 1619   1.322   2.837   6.878
   99POPC   C3B 1620   1.074   2.823   6.510
   99POPC   C4B 1621   1.283   2.849   6.146
  100POPC   NC3 1622   1.965   4.010   8.101
  100POPC   PO4 1623   2.313   4.362   7.872
  100POPC   GL1 1624   1.918   4.401   7.652
  100POPC   GL2 1625   1.661   4.130   7.686
  100POPC   C1A 1626   1.689   4.420   7.253
  100POPC   D2A 1627   1.770   4.652   6.883
  100POPC   C3A 1628   1.753   4.416   6.506
  100POPC   C4A 1629   2.101   4.354   6.210
  100POPC   C1B 1630   1.922   3.980   7.349
  100POPC   C2B 1631   1.893   4.036   6.912
  100POPC   C3B 1632   2.059   3.937   6.517
  100POPC   C4B 1633   1.739   3.993   6.227
  101POPC   NC3 1634   8.123   2.648   8.150
  101POPC   PO4 1635   8.144   3.203   7.852
  101POPC   GL1 1636   7.946   2.820   7.670
  101POPC   GL2 1637   8.045   2.431   7.698
  101POPC   C1A 1638   7.835   2.982   7.261
  101POPC   D2A 1639   8.021   3.161   6.898
  101POPC   C3A 1640   7.861   3.038   6.485
  101POPC   C4A 1641   8.068   3.180   6.107
  101POPC   C1B 1642   8.000   2.511   7.263
  101POPC   C2B 1643   8.145   2.669   6.907
  101POPC   C3B 1644   8.023   2.556   6.544
  101POPC   C4B 1645   8.090   2.679   6.168
  102POPC   NC3 1646   1.243   0.345   8.000
  102POPC   PO4 1647   0.605   0.525   8.012
  102POPC   GL1 1648   0.781   0.243   7.675
  102POPC   GL2 1649   1.062   0.402   7.516
  102POPC   C1A 1650   0.847  10.481   7.300
  102POPC   D2A 1651   1.087   0.143   6.934
  102POPC   C3A 1652   0.924  10.473   6.532
  102POPC   C4A 1653   0.730   0.186   6.198
  102POPC   C1B 1654   1.412   0.615   7.301
  102POPC   C2B 1655   1.524   0.582   6.860
  102POPC   C3B 1656   1.335   0.365   6.506
  102POPC   C4B 1657   1.207   0.349   6.076
  103POPC   NC3 1658  10.354   4.974   8.130
  103POPC   PO4 1659   9.743   4.857   8.271
  103POPC   GL1 1660   9.963   4.757   7.855
  103POPC   GL2 1661  10.037   5.059   7.726
  103POPC   C1A 1662   9.944   4.691   7.394
  103POPC   D2A 1663   9.925   4.962   7.010
  103POPC   C3A 1664   9.832   4.755   6.607
  103POPC   C4A 1665   9.935   5.010   6.248
  103POPC   C1B 1666  10.392   4.930   7.461
  103POPC   C2B 1667  10.435   4.871   7.006
  103POPC   C3B 1668  10.300   4.979   6.616
  103POPC   C4B 1669  10.463   5.131   6.239
  104POPC   NC3 1670  10.242   7.090   7.938
  104POPC   PO4 1671   0.320   6.800   8.137
  104POPC   GL1 1672   0.033   6.665   7.754
  104POPC   GL2 1673  10.181   6.811   7.532
  104POPC   C1A 1674   0.127   6.773   7.333
  104POPC   D2A 1675  10.307   6.854   7.031
  104POPC   C3A 1676  10.373   6.894   6.622
  104POPC   C4A 1677  10.093   6.813   6.369
  104POPC   C1B 1678  10.249   7.265   7.318
  104POPC   C2B 1679  10.173   7.468   6.924
  104POPC   C3B 1680  10.343   7.425   6.521
  104POPC   C4B 1681  10.104   7.364   6.189
  105POPC   NC3 1682   8.366   5.896   7.951
  105POPC   PO4 1683   8.347   6.545   8.039
  105POPC   GL1 1684   8.375   6.307   7.617
  105POPC   GL2 1685   8.047   6.157   7.616
  105POPC   C1A 1686   8.279   6.171   7.164
  105POPC   D2A 1687   8.220   6.502   6.853
  105POPC   C3A 1688   8.102   6.414   6.458
  105POPC   C4A 1689   8.295   6.128   6.196
  105POPC   C1B 1690   7.915   6.498   7.300
  105POPC   C2B 1691   7.713   6.540   6.865
  105POPC   C3B 1692   7.612   6.264   6.514
  105POPC   C4B 1693   7.795   6.112   6.144
  106POPC   NC3 1694   1.796   1.824   8.093
  106POPC   PO4 1695   1.743   2.502   7.949
  106POPC   GL1 1696   1.859   2.218   7.626
  106POPC   GL2 1697   1.975   1.847   7.613
  106POPC   C1A 1698   1.904   2.085   7.162
  106POPC   D2A 1699   2.098   2.056   6.757
  106POPC   C3A 1700   1.897   2.145   6.370
  106POPC   C4A 1701   1.844   2.209   5.945
  106POPC   C1B 1702   1.754   1.582   7.282
  106POPC   C2B 1703   1.700   1.696   6.851
  106POPC   C3B 1704   1.866   1.625   6.455
  106POPC   C4B 1705   2.220   1.757   6.200
  107POPC   NC3 1706   9.530   6.348   8.294
  107POPC   PO4 1707   8.853   6.307   8.229
  107POPC   GL1 1708   9.216   6.323   7.836
  107POPC   GL2 1709   9.390   6.614   7.771
  107POPC   C1A 1710   9.349   6.263   7.367
  107POPC   D2A 1711   9.095   6.333   6.964
  107POPC   C3A 1712   9.245   6.327   6.528
  107POPC   C4A 1713   9.380   6.487   6.117
  107POPC   C1B 1714   9.538   6.725   7.359
  107POPC   C2B 1715   9.529   6.562   6.940
  107POPC   C3B 1716   9.508   6.781   6.560
  107POPC   C4B 1717   9.649   6.909   6.178
  108POPC   NC3 1718   2.194   2.596   8.080
  108POPC   PO4 1719   2.855   2.410   8.067
  108POPC   GL1 1720   2.882   2.580   7.647
  108POPC   GL2 1721   2.537   2.656   7.633
  108POPC   C1A 1722   2.824   2.432   7.245
  108POPC   D2A 1723   2.584   2.412   6.917
  108POPC   C3A 1724   2.623   2.694   6.650
  108POPC   C4A 1725   2.828   2.502   6.346
  108POPC   C1B 1726   2.475   2.840   7.196
  108POPC   C2B 1727   2.307   3.066   6.864
  108POPC   C3B 1728   2.321   3.057   6.417
  108POPC   C4B 1729   2.709   2.977   6.198
  109POPC   NC3 1730   6.595  10.388   7.928
  109POPC   PO4 1731   6.638   9.710   7.911
  109POPC   GL1 1732   6.516   9.950   7.577
  109POPC   GL2 1733   6.805  10.075   7.567
  109POPC   C1A 1734   6.322  10.062   7.202
  109POPC   D2A 1735   6.433  10.025   6.791
  109POPC   C3A 1736   6.243   9.801   6.431
  109POPC   C4A 1737   6.265   9.760   5.935
  109POPC   C1B 1738   6.704  10.419   7.267
  109POPC   C2B 1739   6.491   0.054   6.876
  109POPC   C3B 1740   6.304  10.391   6.496
  109POPC   C4B 1741   6.549  10.136   6.194
  110POPC   NC3 1742   2.062   5.531   8.033
  110POPC   PO4 1743   1.573   5.982   8.153
  110POPC   GL1 1744   1.610   5.831   7.717
  110POPC   GL2 1745   1.944   5.824   7.638
  110POPC   C1A 1746   1.613   5.708   7.275
  110POPC   D2A 1747   1.795   5.848   6.871
  110POPC   C3A 1748   1.576   5.711   6.512
  110POPC   C4A 1749   1.629   5.579   6.093
  110POPC   C1B 1750   2.101   5.612   7.270
  110POPC   C2B 1751   2.176   5.462   6.868
  110POPC   C3B 1752   1.997   5.452   6.478
  110POPC   C4B 1753   2.125   5.469   6.079
  111POPC   NC3 1754   0.771   3.464   7.959
  111POPC   PO4 1755   0.179   3.063   8.004
  111POPC   GL1 1756   0.450   3.161   7.683
  111POPC   GL2 1757   0.383   3.534   7.644
  111POPC   C1A 1758   0.720   3.272   7.334
  111POPC   D2A 1759   0.657   3.551   6.975
  111POPC   C3A 1760   0.724   3.334   6.605
  111POPC   C4A 1761   0.583   3.378   6.161
  111POPC   C1B 1762   0.218   3.418   7.254
  111POPC   C2B 1763   0.049   3.599   6.882
  111POPC   C3B 1764   0.287   3.588   6.520
  111POPC   C4B 1765   0.355   3.845   6.147
  112POPC   NC3 1766   6.425   2.675   8.032
  112POPC   PO4 1767   6.902   3.051   7.943
  112POPC   GL1 1768   6.658   2.887   7.594
  112POPC   GL2 1769   6.685   2.539   7.623
  112POPC   C1A 1770   6.384   3.019   7.225
  112POPC   D2A 1771   6.418   3.178   6.782
  112POPC   C3A 1772   6.730   3.023   6.462
  112POPC   C4A 1773   6.722   3.030   5.999
  112POPC   C1B 1774   6.522   2.525   7.219
  112POPC   C2B 1775   6.587   2.689   6.821
  112POPC   C3B 1776   6.270   2.748   6.506
  112POPC   C4B 1777   6.019   2.397   6.305
  113POPC   NC3 1778  10.076   8.969   8.047
  113POPC   PO4 1779  10.149   8.267   8.011
  113POPC   GL1 1780   9.981   8.453   7.635
  113POPC   GL2 1781   9.922   8.815   7.584
  113POPC   C1A 1782  10.066   8.314   7.216
  113POPC   D2A 1783   9.798   8.443   6.897
  113POPC   C3A 1784   9.906   8.364   6.517
  113POPC   C4A 1785   9.943   8.736   6.318
  113POPC   C1B 1786  10.163   8.819   7.204
  113POPC   C2B 1787  10.239   8.708   6.770
  113POPC   C3B 1788  10.401   8.933   6.426
  113POPC   C4B 1789  10.500   9.250   6.174
  114POPC   NC3 1790  10.173   3.069   8.034
  114POPC   PO4 1791  10.035   3.813   8.000
  114POPC   GL1 1792  10.010   3.464   7.735
  114POPC   GL2 1793  10.380   3.390   7.674
  114POPC   C1A 1794   9.722   3.331   7.386
  114POPC   D2A 1795   9.741   3.047   7.018
  114POPC   C3A 1796   9.905   3.014   6.595
  114POPC   C4A 1797   9.951   3.276   6.207
  114POPC   C1B 1798  10.199   3.433   7.247
  114POPC   C2B 1799   9.999   3.456   6.853
  114POPC   C3B 1800  10.079   3.679   6.477
  114POPC   C4B 1801  10.400   3.639   6.187
  115POPC   NC3 1802   7.300   0.461   8.193
  115POPC   PO4 1803   6.651   0.318   8.087
  115POPC   GL1 1804   6.893   0.337   7.635
  115POPC   GL2 1805   7.253   0.499   7.683
  115POPC   C1A 1806   7.111   0.248   7.257
  115POPC   D2A 1807   7.092   0.456   6.893
  115POPC   C3A 1808   7.023   0.204   6.553
  115POPC   C4A 1809   6.672   0.143   6.290
  115POPC   C1B 1810   7.378   0.705   7.286
  115POPC   C2B 1811   7.311   0.909   6.862
  115POPC   C3B 1812   7.270   0.684   6.469
  115POPC   C4B 1813   7.461   0.314   6.313
  116POPC   NC3 1814   9.224  10.206   8.188
  116POPC   PO4 1815   9.297   0.406   8.164
  116POPC   GL1 1816   9.408   0.035   7.810
  116POPC   GL2 1817   9.461  10.154   7.761
  116POPC   C1A 1818   9.269  10.399   7.366
  116POPC   D2A 1819   9.187  10.055   7.061
  116POPC   C3A 1820   9.139  10.222   6.627
  116POPC   C4A 1821   9.366  10.286   6.281
  116POPC   C1B 1822   9.637   9.952   7.411
  116POPC   C2B 1823   9.752   9.912   6.975
  116POPC   C3B 1824   9.557   9.897   6.564
  116POPC   C4B 1825   9.759   9.945   6.174
  117POPC   NC3 1826   7.480   1.185   7.964
  117POPC   PO4 1827   8.145   1.456   7.972
  117POPC   GL1 1828   8.036   1.233   7.565
  117POPC   GL2 1829   7.756   0.992   7.583
  117POPC   C1A 1830   8.264   0.974   7.266
  117POPC   D2A 1831   8.370   0.933   6.833
  117POPC   C3A 1832   8.079   1.151   6.577
  117POPC   C4A 1833   7.956   1.517   6.354
  117POPC   C1B 1834   7.581   1.173   7.248
  117POPC   C2B 1835   7.647   1.306   6.826
  117POPC   C3B 1836   7.579   1.107   6.444
  117POPC   C4B 1837   7.717   1.157   6.035
  118POPC   NC3 1838   9.378   9.191   8.008
  118POPC   PO4 1839   9.059   9.787   8.036
  118POPC   GL1 1840   9.310   9.640   7.678
  118POPC   GL2 1841   9.661   9.480   7.653
  118POPC   C1A 1842   9.354   9.564   7.234
  118POPC   D2A 1843   9.464   9.475   6.826
  118POPC   C3A 1844   9.114   9.473   6.512
  118POPC   C4A 1845   9.112   9.847   6.244
  118POPC   C1B 1846   9.724   9.184   7.284
  118POPC   C2B 1847   9.770   8.983   6.856
  118POPC   C3B 1848   9.590   9.133   6.473
  118POPC   C4B 1849   9.524   9.490   6.193
  119POPC   NC3 1850   0.399   5.466   8.128
  119POPC   PO4 1851   0.600   6.112   8.279
  119POPC   GL1 1852   0.555   5.924   7.830
  119POPC   GL2 1853   0.261   5.713   7.723
  119POPC   C1A 1854   0.612   5.814   7.370
  119POPC   D2A 1855   0.793   5.863   6.941
  119POPC   C3A 1856   0.591   5.764   6.556
  119POPC   C4A 1857   0.632   5.861   6.149
  119POPC   C1B 1858   0.172   5.534   7.330
  119POPC   C2B 1859   0.315   5.633   6.953
  119POPC   C3B 1860   0.067   5.749   6.618
  119POPC   C4B 1861   0.169   5.611   6.228
  120POPC   NC3 1862   4.261   1.552   8.303
  120POPC   PO4 1863   4.402   2.182   8.125
  120POPC   GL1 1864   4.286   1.929   7.734
  120POPC   GL2 1865   4.376   1.557   7.781
  120POPC   C1A 1866   4.004   2.027   7.358
  120POPC   D2A 1867   4.104   2.242   6.921
  120POPC   C3A 1868   4.065   2.079   6.493
  120POPC   C4A 1869   4.223   2.026   6.048
  120POPC   C1B 1870   4.178   1.554   7.369
  120POPC   C2B 1871   4.012   1.717   6.961
  120POPC   C3B 1872   3.988   1.582   6.555
  120POPC   C4B 1873   3.867   1.684   6.148
  121POPC   NC3 1874   2.122   9.499   8.017
  121POPC   PO4 1875   1.567   9.823   8.058
  121POPC   GL1 1876   1.769   9.661   7.667
  121POPC   GL2 1877   2.114   9.724   7.533
  121POPC   C1A 1878   1.818   9.494   7.210
  121POPC   D2A 1879   2.032   9.611   6.829
  121POPC   C3A 1880   1.903   9.479   6.433
  121POPC   C4A 1881   1.639   9.215   6.180
  121POPC   C1B 1882   2.220   9.290   7.423
  121POPC   C2B 1883   2.121   9.119   7.018
  121POPC   C3B 1884   2.301   9.172   6.611
  121POPC   C4B 1885   2.133   9.091   6.193
  122POPC   NC3 1886   8.659   1.557   8.033
  122POPC   PO4 1887   8.367   2.218   8.077
  122POPC   GL1 1888   8.527   1.976   7.764
  122POPC   GL2 1889   8.916   1.949   7.789
  122POPC   C1A 1890   8.418   1.773   7.362
  122POPC   D2A 1891   8.344   1.477   7.010
  122POPC   C3A 1892   8.388   1.743   6.660
  122POPC   C4A 1893   8.393   1.781   6.222
  122POPC   C1B 1894   8.803   2.123   7.366
  122POPC   C2B 1895   8.749   1.979   6.930
  122POPC   C3B 1896   8.790   2.090   6.459
  122POPC   C4B 1897   8.790   2.295   6.026
  123POPC   NC3 1898   8.611   9.831   7.955
  123POPC   PO4 1899   8.787  10.369   8.252
  123POPC   GL1 1900   8.903  10.387   7.794
  123POPC   GL2 1901   8.962  10.060   7.613
  123POPC   C1A 1902   8.738  10.477   7.364
  123POPC   D2A 1903   8.455   0.004   7.001
  123POPC   C3A 1904   8.676   0.047   6.623
  123POPC   C4A 1905   8.881   0.046   6.234
  123POPC   C1B 1906   8.668   9.979   7.259
  123POPC   C2B 1907   8.704  10.075   6.826
  123POPC   C3B 1908   8.675  10.095   6.368
  123POPC   C4B 1909   8.351   9.999   6.085
  124POPC   NC3 1910   1.920   3.202   7.931
  124POPC   PO4 1911   1.578   3.737   8.134
  124POPC   GL1 1912   1.804   3.631   7.713
  124POPC   GL2 1913   1.664   3.322   7.519
  124POPC   C1A 1914   2.081   3.503   7.333
  124POPC   D2A 1915   2.238   3.610   6.943
  124POPC   C3A 1916   2.031   3.420   6.616
  124POPC   C4A 1917   1.950   3.537   6.201
  124POPC   C1B 1918   1.876   3.050   7.178
  124POPC   C2B 1919   1.811   2.928   6.737
  124POPC   C3B 1920   1.666   3.131   6.358
  124POPC   C4B 1921   1.889   3.102   5.962
  125POPC   NC3 1922   4.851   2.046   8.020
  125POPC   PO4 1923   5.278   2.403   7.696
  125POPC   GL1 1924   5.186   1.990   7.606
  125POPC   GL2 1925   4.814   2.020   7.515
  125POPC   C1A 1926   5.192   1.673   7.331
  125POPC   D2A 1927   4.989   1.967   7.031
  125POPC   C3A 1928   5.118   1.935   6.616
  125POPC   C4A 1929   5.039   1.843   6.212
  125POPC   C1B 1930   4.485   2.005   7.189
  125POPC   C2B 1931   4.469   1.831   6.772
  125POPC   C3B 1932   4.585   1.976   6.388
  125POPC   C4B 1933   4.843   2.323   6.257
  126POPC   NC3 1934   2.793   9.318   8.165
  126POPC   PO4 1935   2.440   9.786   8.305
  126POPC   GL1 1936   2.598   9.676   7.838
  126POPC   GL2 1937   2.844   9.418   7.686
  126POPC   C1A 1938   2.603   9.744   7.370
  126POPC   D2A 1939   2.510   9.471   7.023
  126POPC   C3A 1940   2.673   9.549   6.630
  126POPC   C4A 1941   2.413   9.537   6.278
  126POPC   C1B 1942   3.004   9.419   7.292
  126POPC   C2B 1943   2.950   9.208   6.927
  126POPC   C3B 1944   3.093   9.258   6.537
  126POPC   C4B 1945   2.862   9.308   6.190
  127POPC   NC3 1946   7.336   2.054   8.123
  127POPC   PO4 1947   6.772   2.356   8.098
  127POPC   GL1 1948   7.055   2.200   7.729
  127POPC   GL2 1949   7.060   1.827   7.742
  127POPC   C1A 1950   7.424   2.106   7.410
  127POPC   D2A 1951   7.667   2.181   6.982
  127POPC   C3A 1952   7.487   2.308   6.602
  127POPC   C4A 1953   7.314   2.233   6.196
  127POPC   C1B 1954   6.967   1.893   7.297
  127POPC   C2B 1955   7.223   1.903   6.932
  127POPC   C3B 1956   7.068   1.939   6.516
  127POPC   C4B 1957   6.843   1.644   6.281
  128POPC   NC3 1958   3.491   0.210   7.995
  128POPC   PO4 1959   3.105   0.732   7.984
  128POPC   GL1 1960   3.115   0.351   7.647
  128POPC   GL2 1961   3.412   0.145   7.510
  128POPC   C1A 1962   3.075   0.185   7.167
  128POPC   D2A 1963   3.418   0.198   6.839
  128POPC   C3A 1964   3.235   0.289   6.426
  128POPC   C4A 1965   3.016   0.190   6.047
  128POPC   C1B 1966   3.427   0.553   7.262
  128POPC   C2B 1967   3.474   0.838   6.896
  128POPC   C3B 1968   3.579   0.675   6.532
  128POPC   C4B 1969   3.418   0.744   6.191
  129POPC   NC3 1970   8.044   0.985   8.015
  129POPC   PO4 1971   8.656   0.769   8.043
  129POPC   GL1 1972   8.634   1.092   7.713
  129POPC   GL2 1973   8.890   0.916   7.548
  129POPC   C1A 1974   8.735   1.392   7.354
  129POPC   D2A 1975   8.856   1.465   6.888
  129POPC   C3A 1976   8.566   1.307   6.534
  129POPC   C4A 1977   8.491   0.903   6.326
  129POPC   C1B 1978   8.796   0.946   7.125
  129POPC   C2B 1979   8.897   0.980   6.706
  129POPC   C3B 1980   8.963   1.098   6.290
  129POPC   C4B 1981   9.198   1.023   5.968
  130POPC   NC3 1982   8.321   7.915   8.186
  130POPC   PO4 1983   7.667   7.950   8.078
  130POPC   GL1 1984   7.793   8.064   7.673
  130POPC   GL2 1985   8.141   7.905   7.688
  130POPC   C1A 1986   7.602   8.294   7.303
  130POPC   D2A 1987   7.614   8.070   6.875
  130POPC   C3A 1988   7.436   8.095   6.447
  130POPC   C4A 1989   7.433   8.484   6.246
  130POPC   C1B 1990   8.187   7.876   7.235
  130POPC   C2B 1991   7.985   7.715   6.854
  130POPC   C3B 1992   7.854   7.663   6.435
  130POPC   C4B 1993   8.153   7.880   6.262
  131POPC   NC3 1994   7.260   7.750   8.029
  131POPC   PO4 1995   7.226   8.400   8.161
  131POPC   GL1 1996   7.290   8.180   7.747
  131POPC   GL2 1997   6.914   8.165   7.807
  131POPC   C1A 1998   7.427   7.839   7.370
  131POPC   D2A 1999   7.219   7.757   6.940
  131POPC   C3A 2000   7.340   7.596   6.510
  131POPC   C4A 2001   7.451   7.679   6.069
  131POPC   C1B 2002   6.945   7.937   7.413
  131POPC   C2B 2003   6.741   7.924   7.014
  131POPC   C3B 2004   6.877   7.957   6.596
  131POPC   C4B 2005   6.981   7.820   6.198
  132POPC   NC3 2006   0.249   0.807   8.050
  132POPC   PO4 2007  10.432   0.178   7.890
  132POPC   GL1 2008   0.285   0.328   7.622
  132POPC   GL2 2009   0.409   0.677   7.585
  132POPC   C1A 2010   0.515   0.375   7.204
  132POPC   D2A 2011   0.487   0.723   6.910
  132POPC   C3A 2012   0.402   0.584   6.496
  132POPC   C4A 2013   0.307   0.586   6.102
  132POPC   C1B 2014   0.751   0.827   7.365
  132POPC   C2B 2015   0.993   0.675   7.007
  132POPC   C3B 2016   0.875   0.506   6.616
  132POPC   C4B 2017   0.821   0.685   6.207
  133POPC   NC3 2018   4.188   8.066   8.079
  133POPC   PO4 2019   3.788   7.638   8.081
  133POPC   GL1 2020   3.887   7.860   7.680
  133POPC   GL2 2021   4.250   7.850   7.632
  133POPC   C1A 2022   3.943   7.905   7.204
  133POPC   D2A 2023   3.893   8.120   6.774
  133POPC   C3A 2024   3.983   7.885   6.357
  133POPC   C4A 2025   3.678   7.652   6.057
  133POPC   C1B 2026   4.417   8.104   7.304
  133POPC   C2B 2027   4.371   7.955   6.902
  133POPC   C3B 2028   4.535   7.957   6.518
  133POPC   C4B 2029   4.477   8.024   6.125
  134POPC   NC3 2030   8.541   8.593   8.063
  134POPC   PO4 2031   9.168   8.080   8.047
  134POPC   GL1 2032   9.042   8.284   7.635
  134POPC   GL2 2033   8.784   8.550   7.630
  134POPC   C1A 2034   9.099   8.430   7.272
  134POPC   D2A 2035   8.854   8.713   7.091
  134POPC   C3A 2036   8.753   8.595   6.682
  134POPC   C4A 2037   9.022   8.436   6.361
  134POPC   C1B 2038   8.439   8.723   7.418
  134POPC   C2B 2039   8.346   8.740   6.992
  134POPC   C3B 2040   8.256   8.721   6.552
  134POPC   C4B 2041   8.552   8.686   6.206
  135POPC   NC3 2042   0.425   0.004   8.020
  135POPC   PO4 2043   0.135   9.891   8.184
  135POPC   GL1 2044   0.336  10.042   7.746
  135POPC   GL2 2045   0.700  10.155   7.706
  135POPC   C1A 2046   0.328  10.376   7.382
  135POPC   D2A 2047   0.149   0.054   6.997
  135POPC   C3A 2048   0.377   0.072   6.587
  135POPC   C4A 2049   0.273  10.495   6.145
  135POPC   C1B 2050   0.588   9.963   7.280
  135POPC   C2B 2051   0.521  10.174   6.896
  135POPC   C3B 2052   0.502  10.058   6.467
  135POPC   C4B 2053   0.682  10.177   6.094
  136POPC   NC3 2054   9.792   1.073   8.167
  136POPC   PO4 2055   9.960   1.621   8.281
  136POPC   GL1 2056   9.920   1.428   7.832
  136POPC   GL2 2057  10.242   1.370   7.669
  136POPC   C1A 2058   9.828   1.568   7.382
  136POPC   D2A 2059  10.001   1.388   6.997
  136POPC   C3A 2060   9.825   1.538   6.612
  136POPC   C4A 2061  10.016   1.627   6.259
  136POPC   C1B 2062  10.252   1.078   7.338
  136POPC   C2B 2063  10.202   0.910   6.924
  136POPC   C3B 2064  10.220   1.171   6.570
  136POPC   C4B 2065  10.173   1.036   6.187
  137POPC   NC3 2066   0.610   6.448   7.969
  137POPC   PO4 2067   0.006   6.086   7.983
  137POPC   GL1 2068   0.143   6.177   7.581
  137POPC   GL2 2069   0.432   6.335   7.519
  137POPC   C1A 2070   0.211   6.072   7.156
  137POPC   D2A 2071   0.433   6.186   6.827
  137POPC   C3A 2072   0.283   6.156   6.448
  137POPC   C4A 2073   0.149   6.130   6.061
  137POPC   C1B 2074   0.746   6.290   7.222
  137POPC   C2B 2075   0.833   6.495   6.864
  137POPC   C3B 2076   0.809   6.291   6.496
  137POPC   C4B 2077   0.603   6.375   6.133
  138POPC   NC3 2078   9.137   0.817   7.980
  138POPC   PO4 2079   9.127   1.569   8.117
  138POPC   GL1 2080   9.107   1.363   7.722
  138POPC   GL2 2081   9.441   1.212   7.713
  138POPC   C1A 2082   9.210   1.264   7.267
  138POPC   D2A 2083   9.493   1.339   6.958
  138POPC   C3A 2084   9.340   1.319   6.552
  138POPC   C4A 2085   9.438   1.506   6.157
  138POPC   C1B 2086   9.715   1.080   7.350
  138POPC   C2B 2087   9.701   0.860   6.982
  138POPC   C3B 2088   9.758   1.000   6.586
  138POPC   C4B 2089   9.678   1.071   6.161
  139POPC   NC3 2090   2.176  10.487   7.996
  139POPC   PO4 2091   2.334   0.730   8.084
  139POPC   GL1 2092   2.137   0.541   7.725
  139POPC   GL2 2093   1.746   0.494   7.718
  139POPC   C1A 2094   2.221   0.661   7.325
  139POPC   D2A 2095   2.039   0.495   6.975
  139POPC   C3A 2096   1.977   0.740   6.641
  139POPC   C4A 2097   2.073   0.562   6.271
  139POPC   C1B 2098   1.777   0.266   7.380
  139POPC   C2B 2099   1.693   0.106   6.984
  139POPC   C3B 2100   1.827   0.225   6.577
  139POPC   C4B 2101   1.707   0.234   6.152
  140POPC   NC3 2102   5.297   9.560   8.166
  140POPC   PO4 2103   4.826   9.070   8.033
  140POPC   GL1 2104   4.865   9.220   7.653
  140POPC   GL2 2105   5.024   9.493   7.679
  140POPC   C1A 2106   4.910   9.058   7.264
  140POPC   D2A 2107   4.713   9.170   6.929
  140POPC   C3A 2108   4.876   9.204   6.545
  140POPC   C4A 2109   4.745   8.924   6.271
  140POPC   C1B 2110   4.840   9.578   7.258
  140POPC   C2B 2111   4.735   9.679   6.805
  140POPC   C3B 2112   4.778   9.674   6.388
  140POPC   C4B 2113   4.942   9.498   6.013
  141POPC   NC3 2114   9.573   1.872   8.204
  141POPC   PO4 2115   9.234   2.354   8.013
  141POPC   GL1 2116   9.419   2.094   7.698
  141POPC   GL2 2117   9.482   1.740   7.724
  141POPC   C1A 2118   9.550   2.086   7.270
  141POPC   D2A 2119   9.834   1.936   6.956
  141POPC   C3A 2120   9.705   2.124   6.564
  141POPC   C4A 2121   9.636   2.003   6.159
  141POPC   C1B 2122   9.172   1.759   7.375
  141POPC   C2B 2123   9.258   1.801   6.930
  141POPC   C3B 2124   9.257   1.860   6.491
  141POPC   C4B 2125   9.114   1.890   6.051
  142POPC   NC3 2126  10.225   1.992   8.312
  142POPC   PO4 2127  10.204   2.598   7.990
  142POPC   GL1 2128  10.114   2.676   7.591
  142POPC   GL2 2129  10.075   2.998   7.532
  142POPC   C1A 2130  10.092   2.687   7.134
  142POPC   D2A 2131   9.779   2.542   6.875
  142POPC   C3A 2132  10.080   2.506   6.569
  142POPC   C4A 2133  10.048   2.339   6.181
  142POPC   C1B 2134  10.452   2.985   7.331
  142POPC   C2B 2135  10.444   3.105   6.917
  142POPC   C3B 2136  10.361   3.244   6.522
  142POPC   C4B 2137  10.284   2.880   6.281
  143POPC   NC3 2138   4.500   9.502   8.053
  143POPC   PO4 2139   3.906   9.177   7.985
  143POPC   GL1 2140   4.232   9.206   7.712
  143POPC   GL2 2141   4.133   9.550   7.665
  143POPC   C1A 2142   4.439   9.281   7.353
  143POPC   D2A 2143   4.326   9.494   7.002
  143POPC   C3A 2144   4.388   9.325   6.576
  143POPC   C4A 2145   4.422   9.432   6.144
  143POPC   C1B 2146   3.922   9.351   7.277
  143POPC   C2B 2147   3.899   9.356   6.800
  143POPC   C3B 2148   3.926   9.375   6.387
  143POPC   C4B 2149   3.989   9.686   6.186
  144POPC   NC3 2150   4.913   8.593   8.108
  144POPC   PO4 2151   5.488   8.700   7.971
  144POPC   GL1 2152   5.129   8.724   7.641
  144POPC   GL2 2153   4.746   8.725   7.653
  144POPC   C1A 2154   5.240   8.687   7.213
  144POPC   D2A 2155   5.347   8.965   6.913
  144POPC   C3A 2156   5.192   8.814   6.558
  144POPC   C4A 2157   5.159   8.522   6.253
  144POPC   C1B 2158   4.782   8.489   7.277
  144POPC   C2B 2159   4.776   8.668   6.855
  144POPC   C3B 2160   4.686   8.456   6.464
  144POPC   C4B 2161   4.530   8.522   6.047
  145POPC   NC3 2162   8.684   4.144   8.263
  145POPC   PO4 2163   8.394   4.664   8.066
  145POPC   GL1 2164   8.383   4.422   7.667
  145POPC   GL2 2165   8.672   4.362   7.449
  145POPC   C1A 2166   8.237   4.170   7.291
  145POPC   D2A 2167   8.307   4.264   6.873
  145POPC   C3A 2168   8.264   4.006   6.484
  145POPC   C4A 2169   8.071   4.127   6.070
  145POPC   C1B 2170   8.735   4.038   7.174
  145POPC   C2B 2171   8.705   3.947   6.774
  145POPC   C3B 2172   8.758   3.899   6.363
  145POPC   C4B 2173   8.742   4.192   6.084
  146POPC   NC3 2174   7.126   2.690   8.083
  146POPC   PO4 2175   7.697   2.342   8.091
  146POPC   GL1 2176   7.492   2.524   7.695
  146POPC   GL2 2177   7.165   2.711   7.585
  146POPC   C1A 2178   7.493   2.589   7.234
  146POPC   D2A 2179   7.643   2.736   6.858
  146POPC   C3A 2180   7.371   2.828   6.537
  146POPC   C4A 2181   7.578   2.664   6.230
  146POPC   C1B 2182   7.017   2.404   7.265
  146POPC   C2B 2183   6.851   2.248   6.888
  146POPC   C3B 2184   6.993   2.441   6.562
  146POPC   C4B 2185   6.995   2.646   6.229
  147POPC   NC3 2186   4.832  10.407   7.888
  147POPC   PO4 2187   4.881   9.789   8.175
  147POPC   GL1 2188   5.154   9.952   7.828
  147POPC   GL2 2189   4.900  10.012   7.569
  147POPC   C1A 2190   5.295   9.809   7.368
  147POPC   D2A 2191   5.080   9.963   7.008
  147POPC   C3A 2192   5.216   9.856   6.571
  147POPC   C4A 2193   5.031  10.061   6.206
  147POPC   C1B 2194   4.710  10.294   7.273
  147POPC   C2B 2195   4.574  10.350   6.903
  147POPC   C3B 2196   4.688  10.175   6.564
  147POPC   C4B 2197   4.669  10.424   6.208
  148POPC   NC3 2198   8.640   0.306   8.177
  148POPC   PO4 2199   7.980   0.068   8.038
  148POPC   GL1 2200   8.371   0.271   7.740
  148POPC   GL2 2201   8.733   0.398   7.686
  148POPC   C1A 2202   8.375   0.443   7.295
  148POPC   D2A 2203   8.171   0.473   6.866
  148POPC   C3A 2204   8.345   0.427   6.474
  148POPC   C4A 2205   8.359   0.065   6.203
  148POPC   C1B 2206   8.886   0.455   7.263
  148POPC   C2B 2207   8.696   0.501   6.881
  148POPC   C3B 2208   8.848   0.518   6.502
  148POPC   C4B 2209   8.971   0.594   6.137
  149POPC   NC3 2210   4.211   8.812   8.037
  149POPC   PO4 2211   4.589   8.274   8.077
  149POPC   GL1 2212   4.311   8.456   7.667
  149POPC   GL2 2213   3.999   8.712   7.579
  149POPC   C1A 2214   4.386   8.779   7.285
  149POPC   D2A 2215   4.204   8.976   6.936
  149POPC   C3A 2216   4.277   8.837   6.503
  149POPC   C4A 2217   4.265   8.963   6.073
  149POPC   C1B 2218   4.019   8.424   7.222
  149POPC   C2B 2219   4.290   8.449   6.849
  149POPC   C3B 2220   4.186   8.351   6.404
  149POPC   C4B 2221   4.031   8.535   6.010
  150POPC   NC3 2222   9.817  10.326   3.976
  150POPC   PO4 2223   9.183  10.214   3.682
  150POPC   GL1 2224   9.347   9.943   4.176
  150POPC   GL2 2225   9.602  10.097   4.358
  150POPC   C1A 2226   9.175  10.109   4.662
  150POPC   D2A 2227   9.072  10.319   5.073
  150POPC   C3A 2228   9.280  10.214   5.458
  150POPC   C4A 2229   9.104  10.249   5.852
  150POPC   C1B 2230   9.676  10.177   4.775
  150POPC   C2B 2231   9.836  10.074   5.165
  150POPC   C3B 2232   9.850  10.362   5.510
  150POPC   C4B 2233   9.626  10.331   5.858
  151POPC   NC3 2234   6.384   9.884   3.884
  151POPC   PO4 2235   6.882  10.245   3.769
  151POPC   GL1 2236   6.668  10.138   4.197
  151POPC   GL2 2237   6.359  10.308   4.204
  151POPC   C1A 2238   6.458   9.936   4.561
  151POPC   D2A 2239   6.287  10.005   4.973
  151POPC   C3A 2240   6.576   9.920   5.292
  151POPC   C4A 2241   6.675   9.959   5.714
  151POPC   C1B 2242   6.260  10.422   4.627
  151POPC   C2B 2243   6.245   0.056   5.048
  151POPC   C3B 2244   6.358  10.364   5.392
  151POPC   C4B 2245   6.318  10.318   5.796
  152POPC   NC3 2246   0.791   9.596   4.071
  152POPC   PO4 2247   1.235   9.121   3.924
  152POPC   GL1 2248   1.233   9.362   4.288
  152POPC   GL2 2249   1.530   9.600   4.242
  152POPC   C1A 2250   1.009   9.230   4.680
  152POPC   D2A 2251   1.040   9.013   5.082
  152POPC   C3A 2252   0.810   9.158   5.452
  152POPC   C4A 2253   0.998   9.391   5.791
  152POPC   C1B 2254   1.468   9.714   4.650
  152POPC   C2B 2255   1.388   9.420   4.967
  152POPC   C3B 2256   1.297   9.353   5.376
  152POPC   C4B 2257   1.504   9.492   5.756
  153POPC   NC3 2258   1.372  10.271   3.972
  153POPC   PO4 2259   0.800   9.950   3.720
  153POPC   GL1 2260   0.886  10.078   4.189
  153POPC   GL2 2261   1.146   9.905   4.277
  153POPC   C1A 2262   1.083  10.255   4.616
  153POPC   D2A 2263   0.837  10.343   4.968
  153POPC   C3A 2264   0.923  10.271   5.415
  153POPC   C4A 2265   1.025  10.437   5.824
  153POPC   C1B 2266   0.958   9.769   4.680
  153POPC   C2B 2267   1.096   9.886   5.071
  153POPC   C3B 2268   1.166   9.825   5.497
  153POPC   C4B 2269   1.509  10.040   5.666
  154POPC   NC3 2270   1.095   1.351   4.084
  154POPC   PO4 2271   1.559   0.872   3.862
  154POPC   GL1 2272   1.453   1.045   4.297
  154POPC   GL2 2273   1.130   1.004   4.487
  154POPC   C1A 2274   1.481   1.313   4.715
  154POPC   D2A 2275   1.323   1.419   5.133
  154POPC   C3A 2276   1.565   1.475   5.519
  154POPC   C4A 2277   1.560   1.246   5.917
  154POPC   C1B 2278   0.941   1.378   4.695
  154POPC   C2B 2279   0.819   1.499   5.061
  154POPC   C3B 2280   0.826   1.214   5.381
  154POPC   C4B 2281   1.067   1.242   5.725
  155POPC   NC3 2282   8.803   7.841   3.884
  155POPC   PO4 2283   8.259   8.309   3.809
  155POPC   GL1 2284   8.289   8.117   4.234
  155POPC   GL2 2285   8.619   7.976   4.327
  155POPC   C1A 2286   8.279   8.056   4.690
  155POPC   D2A 2287   8.562   8.138   5.009
  155POPC   C3A 2288   8.532   8.024   5.439
  155POPC   C4A 2289   8.277   7.993   5.797
  155POPC   C1B 2290   8.837   7.841   4.680
  155POPC   C2B 2291   8.821   7.708   5.109
  155POPC   C3B 2292   9.025   7.858   5.494
  155POPC   C4B 2293   8.827   7.843   5.909
  156POPC   NC3 2294   2.697   1.204   3.848
  156POPC   PO4 2295   3.149   1.567   3.630
  156POPC   GL1 2296   3.068   1.304   4.150
  156POPC   GL2 2297   2.700   1.335   4.320
  156POPC   C1A 2298   3.077   1.355   4.654
  156POPC   D2A 2299   3.035   1.062   5.021
  156POPC   C3A 2300   3.064   1.199   5.445
  156POPC   C4A 2301   2.875   1.054   5.846
  156POPC   C1B 2302   2.539   1.250   4.714
  156POPC   C2B 2303   2.623   1.434   5.119
  156POPC   C3B 2304   2.573   1.304   5.528
  156POPC   C4B 2305   2.314   0.978   5.615
  157POPC   NC3 2306   0.625   3.301   4.016
  157POPC   PO4 2307  10.484   3.429   3.849
  157POPC   GL1 2308   0.153   3.505   4.272
  157POPC   GL2 2309   0.338   3.209   4.406
  157POPC   C1A 2310   0.082   3.576   4.721
  157POPC   D2A 2311   0.298   3.463   5.086
  157POPC   C3A 2312   0.141   3.457   5.480
  157POPC   C4A 2313   0.350   3.162   5.742
  157POPC   C1B 2314   0.628   3.429   4.667
  157POPC   C2B 2315   0.833   3.458   5.040
  157POPC   C3B 2316   0.747   3.351   5.447
  157POPC   C4B 2317   0.553   3.646   5.726
  158POPC   NC3 2318   8.780   5.390   3.848
  158POPC   PO4 2319   8.844   6.053   3.956
  158POPC   GL1 2320   8.828   5.754   4.328
  158POPC   GL2 2321   8.495   5.776   4.301
  158POPC   C1A 2322   8.943   5.528   4.750
  158POPC   D2A 2323   8.732   5.511   5.138
  158POPC   C3A 2324   8.840   5.540   5.544
  158POPC   C4A 2325   8.518   5.370   5.808
  158POPC   C1B 2326   8.458   5.675   4.720
  158POPC   C2B 2327   8.239   5.668   5.094
  158POPC   C3B 2328   8.416   5.848   5.426
  158POPC   C4B 2329   8.498   5.868   5.833
  159POPC   NC3 2330   7.871   4.974   3.804
  159POPC   PO4 2331   8.389   4.875   3.925
  159POPC   GL1 2332   8.229   4.770   4.315
  159POPC   GL2 2333   7.861   4.805   4.325
  159POPC   C1A 2334   8.206   4.866   4.767
  159POPC   D2A 2335   8.080   4.686   5.188
  159POPC   C3A 2336   7.820   4.802   5.572
  159POPC   C4A 2337   7.938   4.654   6.006
  159POPC   C1B 2338   7.745   5.054   4.743
  159POPC   C2B 2339   7.847   5.187   5.212
  159POPC   C3B 2340   7.626   5.262   5.643
  159POPC   C4B 2341   7.630   5.324   6.105
  160POPC   NC3 2342   2.098  10.298   3.910
  160POPC   PO4 2343   1.562   0.198   3.888
  160POPC   GL1 2344   1.786  10.495   4.265
  160POPC   GL2 2345   1.606  10.189   4.403
  160POPC   C1A 2346   2.118   0.044   4.661
  160POPC   D2A 2347   2.212  10.411   5.125
  160POPC   C3A 2348   2.015   0.063   5.550
  160POPC   C4A 2349   2.169   0.083   6.006
  160POPC   C1B 2350   1.761  10.189   4.809
  160POPC   C2B 2351   1.856  10.026   5.214
  160POPC   C3B 2352   2.010  10.057   5.635
  160POPC   C4B 2353   1.818  10.246   6.016
  161POPC   NC3 2354   1.894   4.497   4.057
  161POPC   PO4 2355   1.853   3.876   3.824
  161POPC   GL1 2356   2.033   4.030   4.234
  161POPC   GL2 2357   1.783   4.082   4.460
  161POPC   C1A 2358   2.204   4.001   4.709
  161POPC   D2A 2359   1.949   4.098   5.085
  161POPC   C3A 2360   2.169   4.004   5.496
  161POPC   C4A 2361   2.213   3.933   5.960
  161POPC   C1B 2362   1.782   4.469   4.704
  161POPC   C2B 2363   1.788   4.668   5.098
  161POPC   C3B 2364   1.776   4.428   5.442
  161POPC   C4B 2365   1.785   4.182   5.782
  162POPC   NC3 2366   7.042   0.482   4.012
  162POPC   PO4 2367   7.674   0.336   3.918
  162POPC   GL1 2368   7.520   0.582   4.261
  162POPC   GL2 2369   7.363   0.268   4.345
  162POPC   C1A 2370   7.508   0.559   4.720
  162POPC   D2A 2371   7.453   0.436   5.156
  162POPC   C3A 2372   7.416   0.719   5.507
  162POPC   C4A 2373   7.454   0.708   5.981
  162POPC   C1B 2374   7.131   0.219   4.735
  162POPC   C2B 2375   6.994   0.225   5.140
  162POPC   C3B 2376   7.106   0.294   5.602
  162POPC   C4B 2377   7.024   0.416   6.052
  163POPC   NC3 2378   8.013   0.029   3.942
  163POPC   PO4 2379   8.648   0.122   3.819
  163POPC   GL1 2380   8.352   0.292   4.222
  163POPC   GL2 2381   8.060   0.562   4.186
  163POPC   C1A 2382   7.966   0.198   4.549
  163POPC   D2A 2383   7.684   0.020   4.878
  163POPC   C3A 2384   7.834   0.090   5.317
  163POPC   C4A 2385   7.631   0.289   5.662
  163POPC   C1B 2386   7.979   0.721   4.590
  163POPC   C2B 2387   7.952   0.488   4.972
  163POPC   C3B 2388   7.888   0.644   5.350
  163POPC   C4B 2389   7.902   0.721   5.758
  164POPC   NC3 2390   8.824  10.218   4.015
  164POPC   PO4 2391   8.748   9.611   3.832
  164POPC   GL1 2392   8.887   9.748   4.236
  164POPC   GL2 2393   8.677   9.982   4.439
  164POPC   C1A 2394   8.990   9.655   4.659
  164POPC   D2A 2395   8.841   9.866   5.025
  164POPC   C3A 2396   9.012   9.789   5.455
  164POPC   C4A 2397   8.788   9.878   5.837
  164POPC   C1B 2398   8.692  10.318   4.718
  164POPC   C2B 2399   8.575  10.455   5.107
  164POPC   C3B 2400   8.675  10.195   5.436
  164POPC   C4B 2401   8.605  10.345   5.829
  165POPC   NC3 2402   2.146   2.626   3.970
  165POPC   PO4 2403   1.470   2.567   3.971
  165POPC   GL1 2404   1.584   2.794   4.338
  165POPC   GL2 2405   1.928   2.730   4.394
  165POPC   C1A 2406   1.607   2.796   4.790
  165POPC   D2A 2407   1.832   2.747   5.181
  165POPC   C3A 2408   1.551   2.871   5.395
  165POPC   C4A 2409   1.551   2.789   5.735
  165POPC   C1B 2410   2.105   2.661   4.780
  165POPC   C2B 2411   2.340   2.457   5.068
  165POPC   C3B 2412   2.167   2.354   5.447
  165POPC   C4B 2413   2.026   2.629   5.752
  166POPC   NC3 2414   6.680   8.359   3.761
  166POPC   PO4 2415   6.168   8.845   3.849
  166POPC   GL1 2416   6.168   8.769   4.364
  166POPC   GL2 2417   6.523   8.801   4.535
  166POPC   C1A 2418   6.267   8.447   4.745
  166POPC   D2A 2419   6.506   8.585   5.121
  166POPC   C3A 2420   6.323   8.550   5.548
  166POPC   C4A 2421   6.184   8.184   5.802
  166POPC   C1B 2422   6.228   8.957   4.850
  166POPC   C2B 2423   6.216   9.035   5.277
  166POPC   C3B 2424   6.567   8.992   5.524
  166POPC   C4B 2425   6.614   8.989   5.965
  167POPC   NC3 2426  10.204   7.221   3.968
  167POPC   PO4 2427   9.777   6.803   3.808
  167POPC   GL1 2428   9.833   7.019   4.279
  167POPC   GL2 2429  10.173   7.154   4.450
  167POPC   C1A 2430   9.833   7.016   4.770
  167POPC   D2A 2431   9.968   6.868   5.141
  167POPC   C3A 2432   9.999   7.097   5.494
  167POPC   C4A 2433  10.055   6.984   5.884
  167POPC   C1B 2434  10.219   7.418   4.836
  167POPC   C2B 2435  10.403   7.202   5.214
  167POPC   C3B 2436   0.008   6.955   5.643
  167POPC   C4B 2437  10.492   7.061   6.132
  168POPC   NC3 2438   8.205   1.580   4.209
  168POPC   PO4 2439   8.143   0.973   3.878
  168POPC   GL1 2440   8.201   1.073   4.275
  168POPC   GL2 2441   7.818   1.098   4.263
  168POPC   C1A 2442   8.383   1.141   4.696
  168POPC   D2A 2443   8.183   0.931   5.046
  168POPC   C3A 2444   8.314   0.917   5.489
  168POPC   C4A 2445   8.216   1.096   5.911
  168POPC   C1B 2446   7.888   1.231   4.693
  168POPC   C2B 2447   7.893   1.324   5.143
  168POPC   C3B 2448   7.819   1.181   5.537
  168POPC   C4B 2449   7.592   1.543   5.727
  169POPC   NC3 2450   4.899   8.440   4.040
  169POPC   PO4 2451   4.853   9.143   3.977
  169POPC   GL1 2452   4.898   8.982   4.361
  169POPC   GL2 2453   4.615   8.762   4.340
  169POPC   C1A 2454   4.771   9.010   4.782
  169POPC   D2A 2455   4.603   8.947   5.172
  169POPC   C3A 2456   4.803   8.804   5.476
  169POPC   C4A 2457   4.942   8.697   5.839
  169POPC   C1B 2458   4.796   8.494   4.672
  169POPC   C2B 2459   4.927   8.536   5.086
  169POPC   C3B 2460   4.913   8.309   5.493
  169POPC   C4B 2461   4.924   8.190   5.936
  170POPC   NC3 2462   7.772   6.508   3.942
  170POPC   PO4 2463   7.571   7.046   4.088
  170POPC   GL1 2464   7.819   6.732   4.413
  170POPC   GL2 2465   8.039   6.446   4.366
  170POPC   C1A 2466   7.935   6.533   4.854
  170POPC   D2A 2467   7.685   6.406   5.212
  170POPC   C3A 2468   7.749   6.587   5.620
  170POPC   C4A 2469   8.002   6.541   5.968
  170POPC   C1B 2470   8.208   6.132   4.631
  170POPC   C2B 2471   8.337   6.194   5.036
  170POPC   C3B 2472   8.172   6.364   5.388
  170POPC   C4B 2473   8.042   6.084   5.714
  171POPC   NC3 2474   5.709   2.237   3.962
  171POPC   PO4 2475   5.338   1.670   3.841
  171POPC   GL1 2476   5.524   1.717   4.251
  171POPC   GL2 2477   5.853   1.851   4.267
  171POPC   C1A 2478   5.689   1.625   4.687
  171POPC   D2A 2479   5.857   1.718   5.083
  171POPC   C3A 2480   5.594   1.833   5.410
  171POPC   C4A 2481   5.715   1.628   5.766
  171POPC   C1B 2482   5.652   2.119   4.632
  171POPC   C2B 2483   5.753   2.226   5.084
  171POPC   C3B 2484   5.876   2.253   5.546
  171POPC   C4B 2485   5.638   2.361   5.937
  172POPC   NC3 2486   1.502   3.778   4.117
  172POPC   PO4 2487   0.981   3.414   3.759
  172POPC   GL1 2488   1.031   3.578   4.189
  172POPC   GL2 2489   1.052   3.274   4.373
  172POPC   C1A 2490   1.089   3.718   4.649
  172POPC   D2A 2491   1.291   3.722   5.080
  172POPC   C3A 2492   0.993   3.786   5.443
  172POPC   C4A 2493   1.034   3.588   5.860
  172POPC   C1B 2494   1.355   3.256   4.702
  172POPC   C2B 2495   1.244   3.173   5.108
  172POPC   C3B 2496   1.352   3.377   5.474
  172POPC   C4B 2497   1.413   3.249   5.872
  173POPC   NC3 2498   0.757   2.292   4.044
  173POPC   PO4 2499   0.742   2.902   4.200
  173POPC   GL1 2500   0.605   2.601   4.418
  173POPC   GL2 2501   0.294   2.689   4.449
  173POPC   C1A 2502   0.691   2.414   4.771
  173POPC   D2A 2503   0.490   2.482   5.145
  173POPC   C3A 2504   0.655   2.642   5.546
  173POPC   C4A 2505   0.416   2.464   5.836
  173POPC   C1B 2506   0.477   2.926   4.816
  173POPC   C2B 2507   0.446   2.992   5.242
  173POPC   C3B 2508   0.164   2.728   5.469
  173POPC   C4B 2509   0.031   2.798   5.868
  174POPC   NC3 2510   1.936   7.133   3.932
  174POPC   PO4 2511   2.539   6.991   3.965
  174POPC   GL1 2512   2.219   7.056   4.346
  174POPC   GL2 2513   1.877   7.253   4.416
  174POPC   C1A 2514   2.155   7.092   4.801
  174POPC   D2A 2515   2.132   7.300   5.185
  174POPC   C3A 2516   2.149   6.967   5.462
  174POPC   C4A 2517   2.089   6.862   5.866
  174POPC   C1B 2518   1.658   7.206   4.796
  174POPC   C2B 2519   1.703   7.008   5.192
  174POPC   C3B 2520   1.694   7.149   5.605
  174POPC   C4B 2521   1.696   7.419   5.937
  175POPC   NC3 2522   7.254   7.378   4.025
  175POPC   PO4 2523   6.770   7.916   3.897
  175POPC   GL1 2524   7.002   7.939   4.345
  175POPC   GL2 2525   7.358   7.900   4.366
  175POPC   C1A 2526   7.066   7.754   4.781
  175POPC   D2A 2527   7.265   7.777   5.211
  175POPC   C3A 2528   7.099   7.709   5.653
  175POPC   C4A 2529   7.060   7.366   5.966
  175POPC   C1B 2530   7.323   8.199   4.731
  175POPC   C2B 2531   7.386   8.363   5.144
  175POPC   C3B 2532   7.203   8.199   5.506
  175POPC   C4B 2533   7.268   8.132   5.918
  176POPC   NC3 2534   1.493   2.150   3.783
  176POPC   PO4 2535   1.543   1.521   4.104
  176POPC   GL1 2536   1.500   1.842   4.367
  176POPC   GL2 2537   1.150   1.757   4.420
  176POPC   C1A 2538   1.428   1.832   4.813
  176POPC   D2A 2539   1.380   1.983   5.184
  176POPC   C3A 2540   1.101   1.753   5.462
  176POPC   C4A 2541   1.248   1.653   5.903
  176POPC   C1B 2542   0.895   1.915   4.780
  176POPC   C2B 2543   0.926   2.197   5.162
  176POPC   C3B 2544   0.751   2.152   5.563
  176POPC   C4B 2545   0.998   2.098   5.899
  177POPC   NC3 2546   5.016   0.590   3.812
  177POPC   PO4 2547   4.385   0.574   4.005
  177POPC   GL1 2548   4.602   0.586   4.408
  177POPC   GL2 2549   4.858   0.367   4.255
  177POPC   C1A 2550   4.655   0.629   4.892
  177POPC   D2A 2551   4.656   0.400   5.258
  177POPC   C3A 2552   4.733   0.588   5.626
  177POPC   C4A 2553   4.769   0.243   5.838
  177POPC   C1B 2554   4.975   0.304   4.670
  177POPC   C2B 2555   5.115   0.491   5.054
  177POPC   C3B 2556   5.138   0.335   5.438
  177POPC   C4B 2557   5.282   0.390   5.808
  178POPC   NC3 2558   3.471   1.836   3.899
  178POPC   PO4 2559   2.863   1.736   4.045
  178POPC   GL1 2560   3.198   1.758   4.350
  178POPC   GL2 2561   3.429   2.005   4.388
  178POPC   C1A 2562   3.153   1.849   4.805
  178POPC   D2A 2563   3.395   1.930   5.167
  178POPC   C3A 2564   3.217   1.674   5.445
  178POPC   C4A 2565   2.959   1.590   5.803
  178POPC   C1B 2566   3.396   2.287   4.755
  178POPC   C2B 2567   3.599   2.415   5.122
  178POPC   C3B 2568   3.726   2.292   5.517
  178POPC   C4B 2569   3.456   2.030   5.707
  179POPC   NC3 2570   6.613   2.237   3.972
  179POPC   PO4 2571   6.841   1.645   4.078
  179POPC   GL1 2572   6.706   1.885   4.377
  179POPC   GL2 2573   6.363   1.817   4.327
  179POPC   C1A 2574   6.620   1.979   4.796
  179POPC   D2A 2575   6.776   1.882   5.183
  179POPC   C3A 2576   6.585   2.077   5.516
  179POPC   C4A 2577   6.599   1.785   5.815
  179POPC   C1B 2578   6.129   1.953   4.716
  179POPC   C2B 2579   6.229   2.061   5.163
  179POPC   C3B 2580   6.139   1.815   5.547
  179POPC   C4B 2581   6.190   1.498   5.928
  180POPC   NC3 2582   8.979   0.370   3.994
  180POPC   PO4 2583   9.266  10.409   4.141
  180POPC   GL1 2584   8.914   0.150   4.423
  180POPC   GL2 2585   8.777   0.552   4.396
  180POPC   C1A 2586   8.880   0.325   4.841
  180POPC   D2A 2587   9.148   0.353   5.173
  180POPC   C3A 2588   8.948   0.134   5.487
  180POPC   C4A 2589   8.735   0.323   5.798
  180POPC   C1B 2590   8.469   0.620   4.724
  180POPC   C2B 2591   8.443   0.481   5.164
  180POPC   C3B 2592   8.268   0.376   5.572
  180POPC   C4B 2593   8.341   0.564   5.975
  181POPC   NC3 2594  10.327   0.497   3.825
  181POPC   PO4 2595   9.616   0.513   3.922
  181POPC   GL1 2596   9.868   0.288   4.167
  181POPC   GL2 2597  10.140   0.423   4.280
  181POPC   C1A 2598   9.818   0.128   4.583
  181POPC   D2A 2599   9.690   0.428   4.942
  181POPC   C3A 2600   9.856   0.412   5.389
  181POPC   C4A 2601   9.956   0.268   5.817
  181POPC   C1B 2602  10.139   0.480   4.714
  181POPC   C2B 2603  10.156   0.667   5.081
  181POPC   C3B 2604  10.364   0.685   5.448
  181POPC   C4B 2605  10.314   0.641   5.881
  182POPC   NC3 2606   8.410   2.539   4.015
  182POPC   PO4 2607   8.955   3.014   3.878
  182POPC   GL1 2608   8.891   2.888   4.317
  182POPC   GL2 2609   8.547   2.976   4.370
  182POPC   C1A 2610   9.063   2.739   4.717
  182POPC   D2A 2611   8.948   2.914   5.100
  182POPC   C3A 2612   9.023   2.655   5.437
  182POPC   C4A 2613   8.877   2.742   5.810
  182POPC   C1B 2614   8.548   2.595   4.661
  182POPC   C2B 2615   8.646   2.485   5.071
  182POPC   C3B 2616   8.529   2.771   5.388
  182POPC   C4B 2617   8.389   2.670   5.779
  183POPC   NC3 2618   4.639  10.167   3.844
  183POPC   PO4 2619   5.221   0.051   3.841
  183POPC   GL1 2620   5.230  10.457   4.258
  183POPC   GL2 2621   5.047  10.147   4.175
  183POPC   C1A 2622   5.341  10.447   4.680
  183POPC   D2A 2623   5.072  10.468   5.048
  183POPC   C3A 2624   5.245  10.345   5.423
  183POPC   C4A 2625   5.049  10.337   5.786
  183POPC   C1B 2626   4.826  10.274   4.572
  183POPC   C2B 2627   4.802  10.048   4.983
  183POPC   C3B 2628   4.965   9.896   5.369
  183POPC   C4B 2629   4.755   9.908   5.782
  184POPC   NC3 2630   9.282   1.184   3.859
  184POPC   PO4 2631   9.784   1.314   4.219
  184POPC   GL1 2632   9.600   1.120   4.514
  184POPC   GL2 2633   9.296   1.140   4.383
  184POPC   C1A 2634   9.784   0.915   4.812
  184POPC   D2A 2635   9.704   0.861   5.195
  184POPC   C3A 2636   9.819   1.154   5.396
  184POPC   C4A 2637   9.546   1.259   5.701
  184POPC   C1B 2638   9.241   1.286   4.814
  184POPC   C2B 2639   9.375   1.319   5.208
  184POPC   C3B 2640   9.090   1.178   5.498
  184POPC   C4B 2641   9.056   1.472   5.795
  185POPC   NC3 2642   2.438   8.809   3.984
  185POPC   PO4 2643   2.898   8.372   3.779
  185POPC   GL1 2644   2.753   8.486   4.245
  185POPC   GL2 2645   2.377   8.529   4.392
  185POPC   C1A 2646   2.763   8.639   4.702
  185POPC   D2A 2647   2.965   8.737   5.094
  185POPC   C3A 2648   2.769   9.071   5.365
  185POPC   C4A 2649   2.847   8.916   5.788
  185POPC   C1B 2650   2.212   8.377   4.764
  185POPC   C2B 2651   2.420   8.528   5.090
  185POPC   C3B 2652   2.625   8.597   5.463
  185POPC   C4B 2653   2.574   8.414   5.862
  186POPC   NC3 2654   7.332  10.204   3.877
  186POPC   PO4 2655   6.827   0.115   4.171
  186POPC   GL1 2656   7.116  10.320   4.351
  186POPC   GL2 2657   7.138   9.962   4.268
  186POPC   C1A 2658   6.900  10.153   4.684
  186POPC   D2A 2659   6.694  10.329   4.999
  186POPC   C3A 2660   6.880  10.323   5.412
  186POPC   C4A 2661   6.817  10.432   5.827
  186POPC   C1B 2662   7.291   9.835   4.665
  186POPC   C2B 2663   7.225  10.039   5.057
  186POPC   C3B 2664   7.089   9.851   5.424
  186POPC   C4B 2665   7.203  10.092   5.763
  187POPC   NC3 2666   7.126   9.229   3.793
  187POPC   PO4 2667   7.519   9.783   4.010
  187POPC   GL1 2668   7.363   9.436   4.300
  187POPC   GL2 2669   7.060   9.224   4.285
  187POPC   C1A 2670   7.214   9.334   4.749
  187POPC   D2A 2671   7.335   9.547   5.100
  187POPC   C3A 2672   7.364   9.334   5.458
  187POPC   C4A 2673   7.267   9.554   5.806
  187POPC   C1B 2674   6.866   9.609   4.487
  187POPC   C2B 2675   6.856   9.682   4.943
  187POPC   C3B 2676   6.885   9.351   5.297
  187POPC   C4B 2677   7.037   9.057   5.691
  188POPC   NC3 2678   9.171   8.782   3.886
  188POPC   PO4 2679   9.754   8.513   3.825
  188POPC   GL1 2680   9.660   8.764   4.183
  188POPC   GL2 2681   9.395   8.597   4.327
  188POPC   C1A 2682   9.743   8.810   4.644
  188POPC   D2A 2683   9.609   8.860   5.086
  188POPC   C3A 2684   9.878   8.838   5.450
  188POPC   C4A 2685   9.774   8.912   5.875
  188POPC   C1B 2686   9.212   8.766   4.731
  188POPC   C2B 2687   9.114   8.721   5.158
  188POPC   C3B 2688   9.269   8.756   5.591
  188POPC   C4B 2689   8.968   8.676   5.915
  189POPC   NC3 2690   3.750  10.134   3.788
  189POPC   PO4 2691   3.105   9.772   3.905
  189POPC   GL1 2692   3.214   9.914   4.300
  189POPC   GL2 2693   3.473  10.086   4.228
  189POPC   C1A 2694   2.987   9.880   4.721
  189POPC   D2A 2695   3.085  10.073   5.103
  189POPC   C3A 2696   3.024   9.889   5.493
  189POPC   C4A 2697   3.231   9.834   5.864
  189POPC   C1B 2698   3.426  10.153   4.684
  189POPC   C2B 2699   3.619  10.116   5.083
  189POPC   C3B 2700   3.528  10.183   5.501
  189POPC   C4B 2701   3.834   0.012   5.716
  190POPC   NC3 2702   8.338   9.357   3.860
  190POPC   PO4 2703   8.373  10.011   3.965
  190POPC   GL1 2704   8.371   9.621   4.274
  190POPC   GL2 2705   8.640   9.307   4.274
  190POPC   C1A 2706   8.505   9.541   4.695
  190POPC   D2A 2707   8.573   9.247   5.032
  190POPC   C3A 2708   8.605   9.531   5.331
  190POPC   C4A 2709   8.631   9.429   5.728
  190POPC   C1B 2710   8.891   9.171   4.646
  190POPC   C2B 2711   9.077   9.347   5.057
  190POPC   C3B 2712   9.041   9.264   5.486
  190POPC   C4B 2713   9.105   9.475   5.893
  191POPC   NC3 2714   2.592   0.546   3.830
  191POPC   PO4 2715   3.075   0.885   3.751
  191POPC   GL1 2716   2.734   0.839   4.198
  191POPC   GL2 2717   2.804   0.474   4.281
  191POPC   C1A 2718   2.734   0.772   4.702
  191POPC   D2A 2719   2.543   0.894   5.090
  191POPC   C3A 2720   2.747   0.811   5.411
  191POPC   C4A 2721   2.653   0.592   5.751
  191POPC   C1B 2722   2.581   0.284   4.608
  191POPC   C2B 2723   2.466   0.385   5.019
  191POPC   C3B 2724   2.464   0.261   5.421
  191POPC   C4B 2725   2.608   0.084   5.767
  192POPC   NC3 2726   8.757   6.532   3.890
  192POPC   PO4 2727   8.154   6.776   3.992
  192POPC   GL1 2728   8.485   6.670   4.305
  192POPC   GL2 2729   8.535   6.307   4.288
  192POPC   C1A 2730   8.455   6.609   4.753
  192POPC   D2A 2731   8.751   6.536   5.105
  192POPC   C3A 2732   8.738   6.735   5.544
  192POPC   C4A 2733   8.910   6.680   5.986
  192POPC   C1B 2734   8.732   6.134   4.665
  192POPC   C2B 2735   8.800   6.004   5.082
  192POPC   C3B 2736   8.767   6.196   5.486
  192POPC   C4B 2737   8.467   6.382   5.791
  193POPC   NC3 2738   9.731   8.047   3.884
  193POPC   PO4 2739   9.035   8.250   3.978
  193POPC   GL1 2740   9.195   8.135   4.363
  193POPC   GL2 2741   9.535   8.067   4.356
  193POPC   C1A 2742   9.454   8.327   4.767
  193POPC   D2A 2743   9.581   8.088   5.132
  193POPC   C3A 2744   9.434   8.236   5.543
  193POPC   C4A 2745   9.178   8.196   5.922
  193POPC   C1B 2746   9.344   7.838   4.732
  193POPC   C2B 2747   9.326   7.640   5.124
  193POPC   C3B 2748   9.544   7.706   5.531
  193POPC   C4B 2749   9.858   7.668   5.873
  194POPC   NC3 2750   1.196   2.938   4.010
  194POPC   PO4 2751   1.047   2.290   3.701
  194POPC   GL1 2752   1.207   2.237   4.226
  194POPC   GL2 2753   1.112   2.567   4.342
  194POPC   C1A 2754   1.220   2.289   4.727
  194POPC   D2A 2755   1.355   2.495   5.103
  194POPC   C3A 2756   1.183   2.447   5.543
  194POPC   C4A 2757   1.377   2.403   5.976
  194POPC   C1B 2758   1.083   2.797   4.737
  194POPC   C2B 2759   0.929   2.771   5.143
  194POPC   C3B 2760   1.071   2.942   5.541
  194POPC   C4B 2761   0.856   3.068   5.858
  195POPC   NC3 2762   6.601   1.000   3.496
  195POPC   PO4 2763   7.224   0.975   3.850
  195POPC   GL1 2764   7.081   0.950   4.231
  195POPC   GL2 2765   7.026   1.267   4.433
  195POPC   C1A 2766   6.982   0.744   4.615
  195POPC   D2A 2767   7.070   0.923   4.994
  195POPC   C3A 2768   6.950   0.692   5.313
  195POPC   C4A 2769   6.810   0.742   5.699
  195POPC   C1B 2770   7.419   1.047   4.592
  195POPC   C2B 2771   7.587   0.952   5.016
  195POPC   C3B 2772   7.377   1.206   5.309
  195POPC   C4B 2773   7.292   1.140   5.731
  196POPC   NC3 2774   1.878   1.239   3.932
  196POPC   PO4 2775   2.388   1.593   3.855
  196POPC   GL1 2776   2.197   1.491   4.280
  196POPC   GL2 2777   2.197   1.113   4.337
  196POPC   C1A 2778   2.027   1.391   4.720
  196POPC   D2A 2779   2.107   1.131   5.064
  196POPC   C3A 2780   2.092   1.393   5.409
  196POPC   C4A 2781   2.110   1.388   5.851
  196POPC   C1B 2782   1.828   0.950   4.615
  196POPC   C2B 2783   1.638   0.947   5.064
  196POPC   C3B 2784   1.786   0.986   5.513
  196POPC   C4B 2785   1.939   0.934   5.965
  197POPC   NC3 2786   3.352   9.289   4.065
  197POPC   PO4 2787   4.094   9.163   4.054
  197POPC   GL1 2788   3.757   9.192   4.370
  197POPC   GL2 2789   3.641   9.573   4.370
  197POPC   C1A 2790   3.720   9.231   4.833
  197POPC   D2A 2791   3.694   9.211   5.275
  197POPC   C3A 2792   3.873   9.579   5.417
  197POPC   C4A 2793   3.714   9.754   5.765
  197POPC   C1B 2794   3.346   9.540   4.687
  197POPC   C2B 2795   3.398   9.662   5.103
  197POPC   C3B 2796   3.353   9.513   5.488
  197POPC   C4B 2797   3.019   9.387   5.722
  198POPC   NC3 2798   8.547  10.201   3.424
  198POPC   PO4 2799   7.877  10.162   3.716
  198POPC   GL1 2800   7.912  10.129   4.204
  198POPC   GL2 2801   7.635  10.322   4.296
  198POPC   C1A 2802   8.204  10.208   4.580
  198POPC   D2A 2803   8.336   9.987   4.984
  198POPC   C3A 2804   8.140  10.124   5.393
  198POPC   C4A 2805   8.087  10.416   5.761
  198POPC   C1B 2806   7.739  10.036   4.651
  198POPC   C2B 2807   7.745   9.903   5.047
  198POPC   C3B 2808   7.601  10.082   5.416
  198POPC   C4B 2809   7.779  10.001   5.785
  199POPC   NC3 2810   4.905   1.882   3.776
  199POPC   PO4 2811   4.489   2.274   3.958
  199POPC   GL1 2812   4.738   1.952   4.257
  199POPC   GL2 2813   4.999   1.675   4.264
  199POPC   C1A 2814   4.661   1.718   4.659
  199POPC   D2A 2815   4.867   1.724   5.062
  199POPC   C3A 2816   4.672   1.673   5.454
  199POPC   C4A 2817   4.678   1.888   5.862
  199POPC   C1B 2818   5.200   1.803   4.653
  199POPC   C2B 2819   5.254   2.050   5.048
  199POPC   C3B 2820   4.958   2.116   5.424
  199POPC   C4B 2821   5.128   2.187   5.845
  200POPC   NC3 2822   2.504   1.997   4.117
  200POPC   PO4 2823   2.046   2.267   3.694
  200POPC   GL1 2824   1.849   2.246   4.140
  200POPC   GL2 2825   2.014   1.985   4.279
  200POPC   C1A 2826   1.703   2.320   4.584
  200POPC   D2A 2827   1.841   2.252   5.035
  200POPC   C3A 2828   1.671   2.329   5.460
  200POPC   C4A 2829   1.469   2.023   5.673
  200POPC   C1B 2830   1.913   1.873   4.689
  200POPC   C2B 2831   1.821   1.712   5.117
  200POPC   C3B 2832   1.947   1.860   5.554
  200POPC   C4B 2833   1.756   1.717   5.966
  201POPC   NC3 2834   3.063   3.524   4.027
  201POPC   PO4 2835   2.453   3.167   3.887
  201POPC   GL1 2836   2.392   3.294   4.297
  201POPC   GL2 2837   2.746   3.344   4.431
  201POPC   C1A 2838   2.328   3.481   4.703
  201POPC   D2A 2839   2.627   3.380   5.034
  201POPC   C3A 2840   2.531   3.329   5.443
  201POPC   C4A 2841   2.822   3.264   5.794
  201POPC   C1B 2842   2.748   3.760   4.729
  201POPC   C2B 2843   2.565   3.870   5.192
  201POPC   C3B 2844   2.630   3.775   5.692
  201POPC   C4B 2845   2.895   3.678   6.099
  202POPC   NC3 2846   5.250   9.365   3.898
  202POPC   PO4 2847   4.685   9.717   3.966
  202POPC   GL1 2848   4.839   9.707   4.376
  202POPC   GL2 2849   5.108   9.477   4.367
  202POPC   C1A 2850   4.907   9.579   4.816
  202POPC   D2A 2851   4.644   9.440   5.105
  202POPC   C3A 2852   4.758   9.428   5.520
  202POPC   C4A 2853   4.661   9.128   5.818
  202POPC   C1B 2854   5.253   9.214   4.716
  202POPC   C2B 2855   5.104   9.088   5.169
  202POPC   C3B 2856   5.162   9.113   5.650
  202POPC   C4B 2857   5.202   9.056   6.106
  203POPC   NC3 2858   9.218   2.654   4.011
  203POPC   PO4 2859   9.406   2.124   3.771
  203POPC   GL1 2860   9.511   2.304   4.230
  203POPC   GL2 2861   9.485   2.658   4.424
  203POPC   C1A 2862   9.297   2.260   4.629
  203POPC   D2A 2863   9.253   2.306   5.113
  203POPC   C3A 2864   9.714   2.361   5.302
  203POPC   C4A 2865   9.752   2.331   5.766
  203POPC   C1B 2866   9.603   2.597   4.836
  203POPC   C2B 2867   9.428   2.787   5.156
  203POPC   C3B 2868   9.518   2.729   5.568
  203POPC   C4B 2869   9.366   2.715   5.926
  204POPC   NC3 2870   2.257   5.094   4.137
  204POPC   PO4 2871   1.609   4.911   3.975
  204POPC   GL1 2872   1.719   5.144   4.322
  204POPC   GL2 2873   1.924   4.864   4.423
  204POPC   C1A 2874   1.713   5.419   4.735
  204POPC   D2A 2875   1.887   5.399   5.172
  204POPC   C3A 2876   1.638   5.425   5.558
  204POPC   C4A 2877   1.797   5.148   5.899
  204POPC   C1B 2878   2.065   5.041   4.805
  204POPC   C2B 2879   2.209   4.952   5.210
  204POPC   C3B 2880   2.056   4.843   5.559
  204POPC   C4B 2881   2.185   4.479   5.720
  205POPC   NC3 2882   2.167   5.621   3.673
  205POPC   PO4 2883   1.594   5.726   3.913
  205POPC   GL1 2884   1.966   5.558   4.155
  205POPC   GL2 2885   2.160   5.852   4.169
  205POPC   C1A 2886   2.185   5.550   4.591
  205POPC   D2A 2887   2.104   5.784   4.950
  205POPC   C3A 2888   2.261   5.755   5.398
  205POPC   C4A 2889   2.167   5.352   5.600
  205POPC   C1B 2890   1.804   5.897   4.514
  205POPC   C2B 2891   1.682   6.040   4.929
  205POPC   C3B 2892   1.775   5.943   5.352
  205POPC   C4B 2893   1.913   5.835   5.769
  206POPC   NC3 2894   5.800   0.670   3.996
  206POPC   PO4 2895   5.985   0.066   3.979
  206POPC   GL1 2896   5.807  10.497   4.367
  206POPC   GL2 2897   5.677   0.310   4.349
  206POPC   C1A 2898   5.804   0.105   4.801
  206POPC   D2A 2899   5.521   0.193   5.103
  206POPC   C3A 2900   5.654   0.170   5.480
  206POPC   C4A 2901   6.067   0.222   5.618
  206POPC   C1B 2902   5.496   0.516   4.688
  206POPC   C2B 2903   5.550   0.755   5.052
  206POPC   C3B 2904   5.408   0.784   5.467
  206POPC   C4B 2905   5.724   0.618   5.697
  207POPC   NC3 2906   6.524   1.315   4.004
  207POPC   PO4 2907   6.639   0.704   3.881
  207POPC   GL1 2908   6.590   0.972   4.336
  207POPC   GL2 2909   6.261   1.116   4.412
  207POPC   C1A 2910   6.615   1.122   4.772
  207POPC   D2A 2911   6.554   1.002   5.196
  207POPC   C3A 2912   6.875   1.185   5.436
  207POPC   C4A 2913   6.850   1.350   5.836
  207POPC   C1B 2914   6.149   1.412   4.716
  207POPC   C2B 2915   6.355   1.569   5.076
  207POPC   C3B 2916   6.435   1.420   5.481
  207POPC   C4B 2917   6.425   1.073   5.753
  208POPC   NC3 2918   7.024   3.054   3.566
  208POPC   PO4 2919   6.828   2.645   4.020
  208POPC   GL1 2920   7.115   2.667   4.356
  208POPC   GL2 2921   7.233   2.306   4.344
  208POPC   C1A 2922   7.283   2.958   4.694
  208POPC   D2A 2923   7.189   3.138   5.110
  208POPC   C3A 2924   7.286   2.996   5.536
  208POPC   C4A 2925   7.238   3.043   6.019
  208POPC   C1B 2926   7.392   2.464   4.729
  208POPC   C2B 2927   7.252   2.618   5.091
  208POPC   C3B 2928   7.435   2.516   5.458
  208POPC   C4B 2929   7.298   2.572   5.828
  209POPC   NC3 2930   9.855   3.770   3.622
  209POPC   PO4 2931  10.363   4.086   3.875
  209POPC   GL1 2932  10.183   4.165   4.259
  209POPC   GL2 2933  10.275   4.436   4.375
  209POPC   C1A 2934   9.931   4.118   4.629
  209POPC   D2A 2935   9.730   4.291   4.994
  209POPC   C3A 2936   9.931   4.086   5.320
  209POPC   C4A 2937  10.001   4.139   5.695
  209POPC   C1B 2938  10.441   4.114   4.696
  209POPC   C2B 2939  10.390   3.949   5.100
  209POPC   C3B 2940  10.415   4.265   5.412
  209POPC   C4B 2941  10.382   4.436   5.789
  210POPC   NC3 2942   7.796   3.318   4.143
  210POPC   PO4 2943   8.238   3.698   4.014
  210POPC   GL1 2944   8.111   3.582   4.443
  210POPC   GL2 2945   8.099   3.198   4.536
  210POPC   C1A 2946   8.171   3.547   4.896
  210POPC   D2A 2947   8.118   3.173   5.179
  210POPC   C3A 2948   8.048   3.317   5.617
  210POPC   C4A 2949   7.923   3.650   5.937
  210POPC   C1B 2950   7.723   3.314   4.836
  210POPC   C2B 2951   7.627   3.349   5.298
  210POPC   C3B 2952   7.518   3.410   5.746
  210POPC   C4B 2953   7.590   3.371   6.208
  211POPC   NC3 2954   0.312   8.896   4.033
  211POPC   PO4 2955   0.576   8.336   3.977
  211POPC   GL1 2956   0.548   8.522   4.358
  211POPC   GL2 2957   0.210   8.634   4.448
  211POPC   C1A 2958   0.486   8.343   4.750
  211POPC   D2A 2959   0.462   8.073   5.071
  211POPC   C3A 2960   0.427   8.322   5.420
  211POPC   C4A 2961   0.517   8.572   5.766
  211POPC   C1B 2962   0.490   8.945   4.657
  211POPC   C2B 2963   0.484   9.100   5.048
  211POPC   C3B 2964   0.352   8.884   5.401
  211POPC   C4B 2965   0.173   8.974   5.783
  212POPC   NC3 2966   2.351   6.594   3.853
  212POPC   PO4 2967   1.713   6.719   3.914
  212POPC   GL1 2968   1.740   6.766   4.330
  212POPC   GL2 2969   2.047   6.563   4.337
  212POPC   C1A 2970   1.795   6.703   4.777
  212POPC   D2A 2971   1.767   6.479   5.156
  212POPC   C3A 2972   1.753   6.634   5.570
  212POPC   C4A 2973   1.858   6.429   5.990
  212POPC   C1B 2974   2.100   6.271   4.707
  212POPC   C2B 2975   2.203   6.225   5.149
  212POPC   C3B 2976   2.116   6.263   5.573
  212POPC   C4B 2977   2.369   6.406   5.901
  213POPC   NC3 2978  10.118   4.482   3.861
  213POPC   PO4 2979   9.963   5.138   3.701
  213POPC   GL1 2980   9.972   4.886   4.143
  213POPC   GL2 2981  10.298   4.949   4.249
  213POPC   C1A 2982   9.989   4.733   4.633
  213POPC   D2A 2983  10.201   4.488   4.992
  213POPC   C3A 2984  10.011   4.580   5.400
  213POPC   C4A 2985   9.878   4.614   5.842
  213POPC   C1B 2986  10.289   5.147   4.663
  213POPC   C2B 2987  10.170   4.998   5.062
  213POPC   C3B 2988  10.061   5.070   5.481
  213POPC   C4B 2989  10.239   4.940   5.838
  214POPC   NC3 2990   3.339   2.603   3.748
  214POPC   PO4 2991   3.207   3.118   4.142
  214POPC   GL1 2992   3.521   2.767   4.255
  214POPC   GL2 2993   3.307   2.497   4.293
  214POPC   C1A 2994   3.754   2.691   4.681
  214POPC   D2A 2995   3.803   2.894   5.102
  214POPC   C3A 2996   3.715   2.800   5.548
  214POPC   C4A 2997   3.608   2.646   5.965
  214POPC   C1B 2998   3.263   2.776   4.696
  214POPC   C2B 2999   3.254   2.778   5.144
  214POPC   C3B 3000   3.234   2.585   5.564
  214POPC   C4B 3001   3.135   2.847   5.929
  215POPC   NC3 3002   1.510   8.768   3.824
  215POPC   PO4 3003   2.089   9.177   3.815
  215POPC   GL1 3004   1.955   8.933   4.181
  215POPC   GL2 3005   1.774   8.618   4.249
  215POPC   C1A 3006   2.050   8.855   4.633
  215POPC   D2A 3007   1.899   8.697   5.036
  215POPC   C3A 3008   2.108   8.748   5.417
  215POPC   C4A 3009   2.294   8.823   5.789
  215POPC   C1B 3010   1.688   8.416   4.652
  215POPC   C2B 3011   1.678   8.170   5.026
  215POPC   C3B 3012   1.939   8.238   5.353
  215POPC   C4B 3013   2.056   8.362   5.756
  216POPC   NC3 3014   0.409   9.408   3.736
  216POPC   PO4 3015  10.381   8.988   3.821
  216POPC   GL1 3016  10.456   9.132   4.291
  216POPC   GL2 3017   0.293   9.327   4.317
  216POPC   C1A 3018   0.036   9.231   4.759
  216POPC   D2A 3019   0.217   9.555   5.053
  216POPC   C3A 3020   0.325   9.391   5.449
  216POPC   C4A 3021   0.055   9.516   5.756
  216POPC   C1B 3022   0.549   9.467   4.691
  216POPC   C2B 3023   0.732   9.549   5.155
  216POPC   C3B 3024   0.673   9.745   5.648
  216POPC   C4B 3025   0.753   9.684   6.154
  217POPC   NC3 3026   4.170   7.908   3.899
  217POPC   PO4 3027   3.674   8.279   3.909
  217POPC   GL1 3028   3.821   8.034   4.287
  217POPC   GL2 3029   4.182   7.941   4.402
  217POPC   C1A 3030   3.808   7.814   4.712
  217POPC   D2A 3031   3.799   8.037   5.112
  217POPC   C3A 3032   3.876   7.805   5.509
  217POPC   C4A 3033   4.167   7.735   5.853
  217POPC   C1B 3034   4.302   8.070   4.844
  217POPC   C2B 3035   4.308   7.963   5.282
  217POPC   C3B 3036   4.643   7.874   5.599
  217POPC   C4B 3037   4.829   7.677   5.979
  218POPC   NC3 3038   0.600   7.032   4.039
  218POPC   PO4 3039   0.044   7.092   3.678
  218POPC   GL1 3040   0.141   7.144   4.209
  218POPC   GL2 3041   0.404   7.413   4.337
  218POPC   C1A 3042   0.145   7.170   4.700
  218POPC   D2A 3043   0.399   7.308   5.076
  218POPC   C3A 3044   0.288   7.359   5.510
  218POPC   C4A 3045   0.272   7.437   5.972
  218POPC   C1B 3046   0.658   7.120   4.672
  218POPC   C2B 3047   0.847   7.027   5.065
  218POPC   C3B 3048   0.809   7.270   5.412
  218POPC   C4B 3049   0.653   7.153   5.787
  219POPC   NC3 3050   0.899   0.463   4.214
  219POPC   PO4 3051   0.292   0.300   3.864
  219POPC   GL1 3052   0.397   0.466   4.248
  219POPC   GL2 3053   0.109   0.635   4.297
  219POPC   C1A 3054   0.464   0.523   4.714
  219POPC   D2A 3055   0.732   0.372   5.042
  219POPC   C3A 3056   0.780   0.651   5.386
  219POPC   C4A 3057   0.697   0.449   5.769
  219POPC   C1B 3058   0.063   0.265   4.558
  219POPC   C2B 3059   0.050   0.358   5.003
  219POPC   C3B 3060   0.317   0.359   5.348
  219POPC   C4B 3061   0.177   0.314   5.728
  220POPC   NC3 3062   6.474   2.802   4.272
  220POPC   PO4 3063   6.144   2.293   4.069
  220POPC   GL1 3064   6.370   2.315   4.441
  220POPC   GL2 3065   6.701   2.382   4.442
  220POPC   C1A 3066   6.382   2.441   4.852
  220POPC   D2A 3067   6.422   2.729   5.175
  220POPC   C3A 3068   6.313   2.554   5.550
  220POPC   C4A 3069   6.279   2.741   5.988
  220POPC   C1B 3070   6.900   2.401   4.769
  220POPC   C2B 3071   6.804   2.387   5.158
  220POPC   C3B 3072   6.885   2.664   5.450
  220POPC   C4B 3073   6.751   2.563   5.811
  221POPC   NC3 3074   1.732   8.104   4.054
  221POPC   PO4 3075   1.616   7.453   3.966
  221POPC   GL1 3076   1.999   7.696   4.218
  221POPC   GL2 3077   2.014   8.032   4.450
  221POPC   C1A 3078   2.250   7.614   4.636
  221POPC   D2A 3079   2.256   7.908   5.008
  221POPC   C3A 3080   2.131   7.747   5.417
  221POPC   C4A 3081   2.183   7.445   5.742
  221POPC   C1B 3082   1.751   7.782   4.680
  221POPC   C2B 3083   1.752   7.619   5.071
  221POPC   C3B 3084   1.622   7.677   5.465
  221POPC   C4B 3085   1.810   7.917   5.776
  222POPC   NC3 3086   1.093   7.738   3.886
  222POPC   PO4 3087   1.365   8.384   4.026
  222POPC   GL1 3088   1.340   8.159   4.373
  222POPC   GL2 3089   1.417   7.799   4.279
  222POPC   C1A 3090   1.195   8.246   4.783
  222POPC   D2A 3091   0.965   8.214   5.168
  222POPC   C3A 3092   1.281   8.266   5.490
  222POPC   C4A 3093   1.528   8.322   5.877
  222POPC   C1B 3094   1.243   7.749   4.640
  222POPC   C2B 3095   1.283   7.814   5.048
  222POPC   C3B 3096   1.105   7.794   5.417
  222POPC   C4B 3097   1.287   7.868   5.800
  223POPC   NC3 3098   0.221   7.908   3.909
  223POPC   PO4 3099   0.753   7.786   3.587
  223POPC   GL1 3100   0.672   7.864   4.154
  223POPC   GL2 3101   0.360   8.002   4.378
  223POPC   C1A 3102   0.766   7.907   4.648
  223POPC   D2A 3103   0.794   7.628   5.023
  223POPC   C3A 3104   0.605   7.760   5.433
  223POPC   C4A 3105   0.772   8.090   5.712
  223POPC   C1B 3106   0.263   7.715   4.748
  223POPC   C2B 3107   0.079   7.714   5.178
  223POPC   C3B 3108   0.139   7.824   5.631
  223POPC   C4B 3109   0.143   8.209   5.846
  224POPC   NC3 3110  10.175   3.706   4.060
  224POPC   PO4 3111   9.790   3.301   3.639
  224POPC   GL1 3112   9.860   3.233   4.147
  224POPC   GL2 3113  10.213   3.212   4.247
  224POPC   C1A 3114   9.938   3.393   4.638
  224POPC   D2A 3115  10.201   3.430   5.056
  224POPC   C3A 3116  10.092   3.596   5.486
  224POPC   C4A 3117   9.974   3.701   5.928
  224POPC   C1B 3118  10.419   3.090   4.622
  224POPC   C2B 3119  10.476   2.998   5.052
  224POPC   C3B 3120  10.314   3.079   5.455
  224POPC   C4B 3121  10.315   3.264   5.856
  225POPC   NC3 3122   1.864   0.544   3.964
  225POPC   PO4 3123   2.309   0.922   3.868
  225POPC   GL1 3124   2.273   0.608   4.262
  225POPC   GL2 3125   1.909   0.467   4.444
  225POPC   C1A 3126   2.250   0.712   4.694
  225POPC   D2A 3127   1.952   0.547   4.955
  225POPC   C3A 3128   2.107   0.614   5.338
  225POPC   C4A 3129   2.145   0.518   5.767
  225POPC   C1B 3130   1.643   0.186   4.705
  225POPC   C2B 3131   1.712   0.108   5.125
  225POPC   C3B 3132   1.624   0.464   5.363
  225POPC   C4B 3133   1.600   0.585   5.778
  226POPC   NC3 3134   7.238   1.435   4.000
  226POPC   PO4 3135   7.833   1.660   3.959
  226POPC   GL1 3136   7.610   1.574   4.353
  226POPC   GL2 3137   7.301   1.785   4.374
  226POPC   C1A 3138   7.491   1.534   4.794
  226POPC   D2A 3139   7.538   1.692   5.205
  226POPC   C3A 3140   7.161   1.667   5.468
  226POPC   C4A 3141   7.130   1.767   5.885
  226POPC   C1B 3142   7.141   1.952   4.768
  226POPC   C2B 3143   7.248   2.116   5.186
  226POPC   C3B 3144   7.056   2.187   5.608
  226POPC   C4B 3145   6.854   2.140   6.063
  227POPC   NC3 3146   7.920   7.989   3.902
  227POPC   PO4 3147   8.411   7.583   4.009
  227POPC   GL1 3148   8.160   7.654   4.350
  227POPC   GL2 3149   7.872   7.909   4.410
  227POPC   C1A 3150   8.079   7.570   4.766
  227POPC   D2A 3151   8.196   7.792   5.137
  227POPC   C3A 3152   8.116   7.591   5.534
  227POPC   C4A 3153   7.922   7.572   5.919
  227POPC   C1B 3154   7.641   7.815   4.787
  227POPC   C2B 3155   7.723   7.966   5.184
  227POPC   C3B 3156   7.631   7.894   5.616
  227POPC   C4B 3157   7.761   8.068   6.022
  228POPC   NC3 3158   4.324   2.685   3.903
  228POPC   PO4 3159   3.749   2.281   3.898
  228POPC   GL1 3160   3.835   2.319   4.318
  228POPC   GL2 3161   4.140   2.509   4.352
  228POPC   C1A 3162   3.954   2.237   4.746
  228POPC   D2A 3163   4.106   2.432   5.133
  228POPC   C3A 3164   4.185   2.600   5.512
  228POPC   C4A 3165   4.072   2.464   5.872
  228POPC   C1B 3166   4.285   2.697   4.751
  228POPC   C2B 3167   4.316   2.938   5.148
  228POPC   C3B 3168   4.286   3.087   5.590
  228POPC   C4B 3169   4.512   2.894   5.973
  229POPC   NC3 3170   9.652   5.361   3.966
  229POPC   PO4 3171   9.115   5.102   3.657
  229POPC   GL1 3172   9.229   4.937   4.170
  229POPC   GL2 3173   9.516   5.038   4.311
  229POPC   C1A 3174   9.170   5.055   4.666
  229POPC   D2A 3175   9.334   5.289   5.075
  229POPC   C3A 3176   9.188   5.144   5.537
  229POPC   C4A 3177   9.062   5.168   6.002
  229POPC   C1B 3178   9.685   5.138   4.714
  229POPC   C2B 3179   9.677   4.882   5.100
  229POPC   C3B 3180   9.524   4.754   5.505
  229POPC   C4B 3181   9.403   4.766   5.956
  230POPC   NC3 3182   7.963   7.187   3.903
  230POPC   PO4 3183   7.527   7.709   3.867
  230POPC   GL1 3184   7.661   7.474   4.322
  230POPC   GL2 3185   7.936   7.219   4.404
  230POPC   C1A 3186   7.619   7.307   4.779
  230POPC   D2A 3187   7.771   7.445   5.197
  230POPC   C3A 3188   7.542   7.384   5.617
  230POPC   C4A 3189   7.564   7.182   6.048
  230POPC   C1B 3190   8.080   7.015   4.787
  230POPC   C2B 3191   8.006   6.900   5.266
  230POPC   C3B 3192   7.966   7.060   5.733
  230POPC   C4B 3193   8.068   7.167   6.196
  231POPC   NC3 3194  10.465   6.281   3.985
  231POPC   PO4 3195   9.935   6.041   4.101
  231POPC   GL1 3196  10.151   6.296   4.381
  231POPC   GL2 3197  10.210   6.649   4.292
  231POPC   C1A 3198  10.314   6.273   4.790
  231POPC   D2A 3199  10.060   6.335   5.131
  231POPC   C3A 3200  10.195   6.081   5.469
  231POPC   C4A 3201  10.192   6.164   5.847
  231POPC   C1B 3202  10.318   6.774   4.743
  231POPC   C2B 3203  10.434   6.681   5.182
  231POPC   C3B 3204  10.135   6.593   5.570
  231POPC   C4B 3205   9.910   6.519   6.010
  232POPC   NC3 3206   5.606  10.305   3.926
  232POPC   PO4 3207   5.945   9.743   3.918
  232POPC   GL1 3208   5.892   9.998   4.276
  232POPC   GL2 3209   5.525  10.034   4.333
  232POPC   C1A 3210   5.826  10.090   4.732
  232POPC   D2A 3211   5.858  10.232   5.156
  232POPC   C3A 3212   6.053   9.974   5.475
  232POPC   C4A 3213   5.809  10.251   5.713
  232POPC   C1B 3214   5.209   9.964   4.630
  232POPC   C2B 3215   5.367  10.030   5.024
  232POPC   C3B 3216   5.528   9.933   5.416
  232POPC   C4B 3217   5.267   9.879   5.790
  233POPC   NC3 3218   0.576  10.359   3.810
  233POPC   PO4 3219   0.343   9.762   4.026
  233POPC   GL1 3220   0.378  10.074   4.325
  233POPC   GL2 3221   0.259  10.414   4.211
  233POPC   C1A 3222   0.478   9.997   4.755
  233POPC   D2A 3223   0.533  10.002   5.191
  233POPC   C3A 3224   0.222   9.882   5.460
  233POPC   C4A 3225   0.243  10.068   5.820
  233POPC   C1B 3226   0.524   0.005   4.573
  233POPC   C2B 3227   0.344  10.459   4.977
  233POPC   C3B 3228   0.245  10.379   5.398
  233POPC   C4B 3229   0.538  10.468   5.703
  234POPC   NC3 3230  10.453  10.024   4.023
  234POPC   PO4 3231  10.210   0.057   3.847
  234POPC   GL1 3232  10.242  10.420   4.293
  234POPC   GL2 3233  10.109  10.117   4.397
  234POPC   C1A 3234  10.269  10.412   4.759
  234POPC   D2A 3235  10.053   0.068   5.071
  234POPC   C3A 3236  10.299   0.162   5.424
  234POPC   C4A 3237  10.384  10.432   5.804
  234POPC   C1B 3238  10.450   9.922   4.653
  234POPC   C2B 3239   0.024  10.051   5.036
  234POPC   C3B 3240  10.291  10.147   5.388
  234POPC   C4B 3241  10.100  10.026   5.793
  235POPC   NC3 3242   3.498   0.638   4.046
  235POPC   PO4 3243   3.471  10.486   3.854
  235POPC   GL1 3244   3.568   0.117   4.248
  235POPC   GL2 3245   3.225   0.162   4.305
  235POPC   C1A 3246   3.602   0.132   4.713
  235POPC   D2A 3247   3.306   0.037   5.093
  235POPC   C3A 3248   3.410   0.186   5.529
  235POPC   C4A 3249   3.529   0.320   5.965
  235POPC   C1B 3250   3.109   0.334   4.703
  235POPC   C2B 3251   3.015   0.520   5.062
  235POPC   C3B 3252   2.968   0.372   5.434
  235POPC   C4B 3253   3.157   0.591   5.762
  236POPC   NC3 3254   9.724   6.349   3.830
  236POPC   PO4 3255   9.163   6.612   4.084
  236POPC   GL1 3256   9.613   6.513   4.290
  236POPC   GL2 3257   9.595   6.164   4.464
  236POPC   C1A 3258   9.843   6.534   4.682
  236POPC   D2A 3259   9.538   6.651   4.964
  236POPC   C3A 3260   9.641   6.530   5.345
  236POPC   C4A 3261   9.637   6.752   5.677
  236POPC   C1B 3262   9.607   6.155   4.946
  236POPC   C2B 3263   9.213   6.298   5.195
  236POPC   C3B 3264   9.212   6.413   5.625
  236POPC   C4B 3265   9.603   6.216   5.739
  237POPC   NC3 3266   1.213   4.576   3.944
  237POPC   PO4 3267   0.863   5.182   3.916
  237POPC   GL1 3268   1.156   4.958   4.305
  237POPC   GL2 3269   1.441   4.684   4.389
  237POPC   C1A 3270   1.077   4.780   4.762
  237POPC   D2A 3271   0.972   5.050   5.131
  237POPC   C3A 3272   1.059   4.938   5.569
  237POPC   C4A 3273   1.306   5.129   5.926
  237POPC   C1B 3274   1.540   4.947   4.743
  237POPC   C2B 3275   1.476   5.109   5.146
  237POPC   C3B 3276   1.555   4.893   5.523
  237POPC   C4B 3277   1.357   4.533   5.721
  238POPC   NC3 3278   8.621   8.420   4.063
  238POPC   PO4 3279   8.334   8.957   4.068
  238POPC   GL1 3280   8.536   8.797   4.409
  238POPC   GL2 3281   8.891   8.728   4.353
  238POPC   C1A 3282   8.641   8.773   4.830
  238POPC   D2A 3283   8.592   8.596   5.198
  238POPC   C3A 3284   8.724   8.866   5.476
  238POPC   C4A 3285   8.479   8.961   5.779
  238POPC   C1B 3286   8.900   8.364   4.685
  238POPC   C2B 3287   9.062   8.195   5.092
  238POPC   C3B 3288   8.919   8.358   5.506
  238POPC   C4B 3289   8.515   8.453   5.734
  239POPC   NC3 3290   7.230   8.085   3.911
  239POPC   PO4 3291   6.999   8.757   3.839
  239POPC   GL1 3292   7.024   8.710   4.275
  239POPC   GL2 3293   7.192   8.435   4.312
  239POPC   C1A 3294   7.008   8.874   4.692
  239POPC   D2A 3295   7.196   8.946   5.104
  239POPC   C3A 3296   6.974   8.649   5.352
  239POPC   C4A 3297   6.801   8.567   5.752
  239POPC   C1B 3298   7.484   8.673   4.626
  239POPC   C2B 3299   7.705   8.739   5.039
  239POPC   C3B 3300   7.559   8.842   5.467
  239POPC   C4B 3301   7.291   8.626   5.757
  240POPC   NC3 3302   4.290   0.995   3.806
  240POPC   PO4 3303   3.823   1.529   3.908
  240POPC   GL1 3304   3.988   1.214   4.198
  240POPC   GL2 3305   4.287   1.099   4.294
  240POPC   C1A 3306   3.957   1.251   4.663
  240POPC   D2A 3307   4.198   1.302   5.065
  240POPC   C3A 3308   4.089   1.133   5.464
  240POPC   C4A 3309   3.970   1.265   5.865
  240POPC   C1B 3310   4.327   0.927   4.678
  240POPC   C2B 3311   4.183   0.770   5.038
  240POPC   C3B 3312   4.255   0.646   5.413
  240POPC   C4B 3313   4.302   0.788   5.808
  241POPC   NC3 3314   9.925   9.181   3.943
  241POPC   PO4 3315  10.007   9.906   3.957
  241POPC   GL1 3316   9.879   9.662   4.276
  241POPC   GL2 3317  10.225   9.584   4.328
  241POPC   C1A 3318   9.963   9.761   4.730
  241POPC   D2A 3319  10.212   9.572   5.024
  241POPC   C3A 3320  10.172   9.656   5.453
  241POPC   C4A 3321   9.860   9.583   5.802
  241POPC   C1B 3322  10.015   9.260   4.603
  241POPC   C2B 3323  10.087   9.059   4.999
  241POPC   C3B 3324  10.362   9.169   5.330
  241POPC   C4B 3325  10.185   9.188   5.723
  242POPC   NC3 3326   6.336   7.773   3.989
  242POPC   PO4 3327   6.323   8.400   4.058
  242POPC   GL1 3328   6.659   8.336   4.288
  242POPC   GL2 3329   6.511   8.051   4.401
  242POPC   C1A 3330   6.824   8.387   4.692
  242POPC   D2A 3331   6.923   8.169   5.069
  242POPC   C3A 3332   6.679   8.195   5.421
  242POPC   C4A 3333   6.746   8.066   5.819
  242POPC   C1B 3334   6.501   8.002   4.842
  242POPC   C2B 3335   6.546   7.757   5.204
  242POPC   C3B 3336   6.403   7.749   5.627
  242POPC   C4B 3337   6.550   7.593   6.032
  243POPC   NC3 3338   8.581   0.838   3.927
  243POPC   PO4 3339   8.598   1.512   3.952
  243POPC   GL1 3340   8.785   1.228   4.236
  243POPC   GL2 3341   8.980   1.513   4.317
  243POPC   C1A 3342   8.868   0.988   4.645
  243POPC   D2A 3343   8.691   0.951   5.081
  243POPC   C3A 3344   8.820   0.719   5.452
  243POPC   C4A 3345   8.710   0.903   5.842
  243POPC   C1B 3346   8.778   1.549   4.734
  243POPC   C2B 3347   8.798   1.449   5.175
  243POPC   C3B 3348   8.608   1.339   5.568
  243POPC   C4B 3349   8.619   1.374   6.028
  244POPC   NC3 3350   2.403   9.515   3.843
  244POPC   PO4 3351   2.719   9.113   4.174
  244POPC   GL1 3352   2.558   9.462   4.334
  244POPC   GL2 3353   2.901   9.543   4.352
  244POPC   C1A 3354   2.311   9.353   4.687
  244POPC   D2A 3355   2.350   9.047   5.033
  244POPC   C3A 3356   2.291   9.221   5.440
  244POPC   C4A 3357   2.481   9.283   5.844
  244POPC   C1B 3358   2.835   9.383   4.767
  244POPC   C2B 3359   2.839   9.559   5.155
  244POPC   C3B 3360   2.581   9.647   5.503
  244POPC   C4B 3361   2.716   9.739   5.930
  245POPC   NC3 3362   5.806   8.621   4.017
  245POPC   PO4 3363   5.325   8.266   4.079
  245POPC   GL1 3364   5.304   8.671   4.295
  245POPC   GL2 3365   5.599   8.830   4.429
  245POPC   C1A 3366   5.251   8.718   4.749
  245POPC   D2A 3367   5.445   8.503   5.083
  245POPC   C3A 3368   5.311   8.671   5.437
  245POPC   C4A 3369   5.442   8.674   5.839
  245POPC   C1B 3370   5.806   8.662   4.738
  245POPC   C2B 3371   5.957   8.610   5.144
  245POPC   C3B 3372   5.815   8.478   5.523
  245POPC   C4B 3373   5.959   8.679   5.895
  246POPC   NC3 3374   9.440   3.071   3.822
  246POPC   PO4 3375   9.702   3.708   4.052
  246POPC   GL1 3376   9.415   3.515   4.325
  246POPC   GL2 3377   9.367   3.145   4.310
  246POPC   C1A 3378   9.452   3.604   4.740
  246POPC   D2A 3379   9.753   3.736   5.019
  246POPC   C3A 3380   9.574   3.700   5.446
  246POPC   C4A 3381   9.539   3.479   5.846
  246POPC   C1B 3382   9.521   3.095   4.733
  246POPC   C2B 3383   9.622   3.260   5.154
  246POPC   C3B 3384   9.321   3.175   5.508
  246POPC   C4B 3385   9.087   3.189   5.906
  247POPC   NC3 3386   0.236   1.788   3.819
  247POPC   PO4 3387   0.792   1.836   4.083
  247POPC   GL1 3388   0.527   1.628   4.388
  247POPC   GL2 3389   0.165   1.721   4.324
  247POPC   C1A 3390   0.385   1.767   4.789
  247POPC   D2A 3391   0.502   1.935   5.147
  247POPC   C3A 3392   0.579   1.684   5.459
  247POPC   C4A 3393   0.758   1.675   5.829
  247POPC   C1B 3394   0.177   2.156   4.538
  247POPC   C2B 3395   0.074   2.158   4.997
  247POPC   C3B 3396   0.187   2.209   5.441
  247POPC   C4B 3397   0.317   1.960   5.803
  248POPC   NC3 3398   9.382   0.154   3.759
  248POPC   PO4 3399   9.038   0.801   3.889
  248POPC   GL1 3400   9.280   0.663   4.272
  248POPC   GL2 3401   9.389   0.347   4.351
  248POPC   C1A 3402   9.294   0.678   4.725
  248POPC   D2A 3403   9.191   0.855   5.116
  248POPC   C3A 3404   9.377   0.734   5.549
  248POPC   C4A 3405   9.835   0.791   5.740
  248POPC   C1B 3406   9.339   0.109   4.746
  248POPC   C2B 3407   9.534   0.012   5.148
  248POPC   C3B 3408   9.449   0.201   5.564
  248POPC   C4B 3409   9.235   0.212   5.927
  249POPC   NC3 3410   8.525   3.361   3.870
  249POPC   PO4 3411   8.807   3.998   3.779
  249POPC   GL1 3412   8.747   3.711   4.171
  249POPC   GL2 3413   8.921   3.400   4.221
  249POPC   C1A 3414   8.581   3.486   4.580
  249POPC   D2A 3415   8.615   3.292   5.004
  249POPC   C3A 3416   8.434   3.555   5.326
  249POPC   C4A 3417   8.371   3.720   5.717
  249POPC   C1B 3418   9.032   3.268   4.665
  249POPC   C2B 3419   9.141   3.393   5.083
  249POPC   C3B 3420   8.916   3.474   5.475
  249POPC   C4B 3421   8.580   3.207   5.665
  250POPC   NC3 3422  10.197   5.699   3.867
  250POPC   PO4 3423   0.293   5.571   3.996
  250POPC   GL1 3424   0.122   5.598   4.397
  250POPC   GL2 3425  10.382   5.841   4.329
  250POPC   C1A 3426   0.008   5.570   4.835
  250POPC   D2A 3427   0.021   5.342   5.213
  250POPC   C3A 3428  10.249   5.542   5.485
  250POPC   C4A 3429  10.454   5.748   5.788
  250POPC   C1B 3430  10.104   5.819   4.657
  250POPC   C2B 3431  10.089   5.834   5.055
  250POPC   C3B 3432   9.748   5.873   5.357
  250POPC   C4B 3433   9.853   5.773   5.774
  251POPC   NC3 3434   9.180   9.747   3.757
  251POPC   PO4 3435   9.465   9.145   3.863
  251POPC   GL1 3436   9.387   9.419   4.214
  251POPC   GL2 3437   9.268   9.102   4.335
  251POPC   C1A 3438   9.483   9.686   4.604
  251POPC   D2A 3439   9.358   9.829   5.033
  251POPC   C3A 3440   9.528   9.731   5.417
  251POPC   C4A 3441   9.419   9.856   5.819
  251POPC   C1B 3442   9.442   9.210   4.722
  251POPC   C2B 3443   9.698   9.416   4.995
  251POPC   C3B 3444   9.818   9.318   5.361
  251POPC   C4B 3445   9.507   9.260   5.657
  252POPC   NC3 3446   3.095   5.489   4.022
  252POPC   PO4 3447   2.468   5.461   3.965
  252POPC   GL1 3448   2.643   5.566   4.318
  252POPC   GL2 3449   2.607   5.913   4.411
  252POPC   C1A 3450   2.668   5.464   4.745
  252POPC   D2A 3451   2.415   5.388   5.092
  252POPC   C3A 3452   2.653   5.314   5.497
  252POPC   C4A 3453   2.610   5.362   5.959
  252POPC   C1B 3454   2.567   5.953   4.869
  252POPC   C2B 3455   2.754   5.755   5.232
  252POPC   C3B 3456   2.812   5.773   5.677
  252POPC   C4B 3457   2.832   6.151   5.954
  253POPC   NC3 3458   2.093   3.485   3.806
  253POPC   PO4 3459   1.480   3.320   4.060
  253POPC   GL1 3460   1.867   3.225   4.222
  253POPC   GL2 3461   1.934   3.546   4.314
  253POPC   C1A 3462   1.948   3.152   4.660
  253POPC   D2A 3463   1.734   3.242   5.065
  253POPC   C3A 3464   1.919   3.213   5.467
  253POPC   C4A 3465   2.139   3.502   5.706
  253POPC   C1B 3466   1.838   3.645   4.747
  253POPC   C2B 3467   2.091   3.603   5.138
  253POPC   C3B 3468   1.761   3.702   5.394
  253POPC   C4B 3469   1.667   3.683   5.797
  254POPC   NC3 3470   0.286   4.221   3.818
  254POPC   PO4 3471   0.926   4.184   3.879
  254POPC   GL1 3472   0.570   4.294   4.223
  254POPC   GL2 3473   0.211   4.166   4.293
  254POPC   C1A 3474   0.467   4.399   4.660
  254POPC   D2A 3475   0.240   4.353   5.035
  254POPC   C3A 3476   0.401   4.442   5.428
  254POPC   C4A 3477   0.383   4.256   5.807
  254POPC   C1B 3478   0.450   3.900   4.556
  254POPC   C2B 3479   0.530   3.905   4.997
  254POPC   C3B 3480   0.314   3.938   5.396
  254POPC   C4B 3481  10.482   3.896   5.752
  255POPC   NC3 3482   5.042   1.301   3.927
  255POPC   PO4 3483   4.703   0.876   3.615
  255POPC   GL1 3484   4.723   0.958   4.081
  255POPC   GL2 3485   4.997   0.873   4.255
  255POPC   C1A 3486   4.733   1.207   4.507
  255POPC   D2A 3487   4.693   1.262   4.942
  255POPC   C3A 3488   4.585   1.005   5.296
  255POPC   C4A 3489   4.522   1.224   5.709
  255POPC   C1B 3490   5.074   0.834   4.679
  255POPC   C2B 3491   5.122   1.035   5.094
  255POPC   C3B 3492   4.987   1.254   5.464
  255POPC   C4B 3493   4.979   0.994   5.809
  256POPC   NC3 3494   7.991   8.731   3.850
  256POPC   PO4 3495   7.611   8.261   4.085
  256POPC   GL1 3496   7.875   8.422   4.359
  256POPC   GL2 3497   7.915   8.781   4.350
  256POPC   C1A 3498   7.839   8.297   4.787
  256POPC   D2A 3499   8.093   8.350   5.153
  256POPC   C3A 3500   7.796   8.367   5.487
  256POPC   C4A 3501   7.757   8.541   5.865
  256POPC   C1B 3502   8.140   8.703   4.732
  256POPC   C2B 3503   8.186   8.908   5.127
  256POPC   C3B 3504   8.070   8.799   5.556
  256POPC   C4B 3505   8.062   8.887   6.048
  257POPC   NC3 3506   2.802   4.414   3.648
  257POPC   PO4 3507   2.360   4.655   4.069
  257POPC   GL1 3508   2.251   4.452   4.446
  257POPC   GL2 3509   2.507   4.205   4.350
  257POPC   C1A 3510   2.241   4.502   4.910
  257POPC   D2A 3511   2.573   4.521   5.211
  257POPC   C3A 3512   2.622   4.275   5.567
  257POPC   C4A 3513   2.579   4.409   5.994
  257POPC   C1B 3514   2.663   4.259   4.768
  257POPC   C2B 3515   2.974   4.170   5.077
  257POPC   C3B 3516   3.133   4.242   5.496
  257POPC   C4B 3517   3.000   4.144   5.914
  258POPC   NC3 3518   5.719   1.336   3.826
  258POPC   PO4 3519   5.377   0.858   3.946
  258POPC   GL1 3520   5.425   1.195   4.246
  258POPC   GL2 3521   5.772   1.269   4.325
  258POPC   C1A 3522   5.335   1.273   4.677
  258POPC   D2A 3523   5.628   1.258   5.049
  258POPC   C3A 3524   5.483   1.291   5.481
  258POPC   C4A 3525   5.343   1.346   5.958
  258POPC   C1B 3526   5.814   0.957   4.639
  258POPC   C2B 3527   6.066   0.960   5.015
  258POPC   C3B 3528   5.990   1.126   5.436
  258POPC   C4B 3529   5.801   1.113   5.843
  259POPC   NC3 3530   9.244   5.892   4.100
  259POPC   PO4 3531   9.766   5.744   3.723
  259POPC   GL1 3532   9.677   5.684   4.327
  259POPC   GL2 3533   9.369   5.563   4.488
  259POPC   C1A 3534   9.666   5.654   4.846
  259POPC   D2A 3535   9.858   5.395   5.130
  259POPC   C3A 3536   9.652   5.379   5.480
  259POPC   C4A 3537   9.694   5.162   5.838
  259POPC   C1B 3538   9.221   5.923   4.750
  259POPC   C2B 3539   9.250   5.790   5.175
  259POPC   C3B 3540   9.217   5.886   5.595
  259POPC   C4B 3541   9.358   5.548   5.856
  260POPC   NC3 3542   6.134   9.308   3.892
  260POPC   PO4 3543   5.547   9.026   3.980
  260POPC   GL1 3544   5.762   9.275   4.258
  260POPC   GL2 3545   5.604   9.547   4.245
  260POPC   C1A 3546   5.803   9.195   4.720
  260POPC   D2A 3547   5.596   9.001   5.073
  260POPC   C3A 3548   5.733   8.988   5.498
  260POPC   C4A 3549   5.668   9.122   5.914
  260POPC   C1B 3550   5.553   9.626   4.696
  260POPC   C2B 3551   5.392   9.511   5.131
  260POPC   C3B 3552   5.483   9.475   5.593
  260POPC   C4B 3553   5.764   9.763   5.857
  261POPC   NC3 3554   9.320   6.984   3.856
  261POPC   PO4 3555   9.667   7.556   3.803
  261POPC   GL1 3556   9.530   7.565   4.229
  261POPC   GL2 3557   9.363   7.257   4.294
  261POPC   C1A 3558   9.647   7.447   4.652
  261POPC   D2A 3559   9.775   7.416   5.083
  261POPC   C3A 3560   9.526   7.204   5.380
  261POPC   C4A 3561   9.598   7.242   5.807
  261POPC   C1B 3562   9.139   7.373   4.676
  261POPC   C2B 3563   9.266   7.097   4.959
  261POPC   C3B 3564   9.186   6.815   5.289
  261POPC   C4B 3565   9.186   6.948   5.684
  262POPC   NC3 3566   2.691   1.857   3.637
  262POPC   PO4 3567   2.923   2.433   3.946
  262POPC   GL1 3568   2.882   2.169   4.412
  262POPC   GL2 3569   2.734   1.803   4.520
  262POPC   C1A 3570   2.733   2.132   4.888
  262POPC   D2A 3571   3.022   2.286   5.197
  262POPC   C3A 3572   2.969   2.108   5.617
  262POPC   C4A 3573   2.807   2.062   6.024
  262POPC   C1B 3574   2.396   1.743   4.738
  262POPC   C2B 3575   2.268   1.945   5.089
  262POPC   C3B 3576   2.509   1.983   5.425
  262POPC   C4B 3577   2.477   1.742   5.765
  263POPC   NC3 3578   4.108   1.967   3.935
  263POPC   PO4 3579   4.642   1.537   3.919
  263POPC   GL1 3580   4.308   1.638   4.299
  263POPC   GL2 3581   4.264   2.013   4.396
  263POPC   C1A 3582   4.118   1.729   4.775
  263POPC   D2A 3583   3.900   1.956   5.150
  263POPC   C3A 3584   3.881   1.786   5.550
  263POPC   C4A 3585   4.239   1.647   5.710
  263POPC   C1B 3586   4.471   2.196   4.736
  263POPC   C2B 3587   4.419   2.004   5.125
  263POPC   C3B 3588   4.341   2.119   5.535
  263POPC   C4B 3589   4.590   2.401   5.799
  264POPC   NC3 3590   3.096  10.233   3.909
  264POPC   PO4 3591   2.481   0.100   3.927
  264POPC   GL1 3592   2.745  10.383   4.251
  264POPC   GL2 3593   2.706  10.002   4.196
  264POPC   C1A 3594   2.906  10.371   4.691
  264POPC   D2A 3595   2.784  10.495   5.120
  264POPC   C3A 3596   3.011  10.382   5.515
  264POPC   C4A 3597   2.904  10.203   5.906
  264POPC   C1B 3598   2.482   9.898   4.604
  264POPC   C2B 3599   2.568  10.000   5.056
  264POPC   C3B 3600   2.536  10.161   5.487
  264POPC   C4B 3601   2.397  10.130   5.933
  265POPC   NC3 3602   4.153   0.272   3.756
  265POPC   PO4 3603   3.834   0.867   3.829
  265POPC   GL1 3604   3.957   0.685   4.272
  265POPC   GL2 3605   4.047   0.305   4.278
  265POPC   C1A 3606   3.798   0.644   4.712
  265POPC   D2A 3607   3.583   0.467   5.100
  265POPC   C3A 3608   3.803   0.487   5.502
  265POPC   C4A 3609   3.794   0.792   5.819
  265POPC   C1B 3610   4.237   0.376   4.679
  265POPC   C2B 3611   4.073   0.258   5.050
  265POPC   C3B 3612   4.228   0.105   5.396
  265POPC   C4B 3613   4.261   0.290   5.771
  266POPC   NC3 3614   1.355   7.017   3.928
  266POPC   PO4 3615   0.885   7.397   4.126
  266POPC   GL1 3616   1.057   7.065   4.333
  266POPC   GL2 3617   1.353   7.285   4.375
  266POPC   C1A 3618   1.324   6.855   4.622
  266POPC   D2A 3619   1.314   6.714   5.037
  266POPC   C3A 3620   1.198   6.879   5.449
  266POPC   C4A 3621   1.300   6.956   5.883
  266POPC   C1B 3622   1.157   7.297   4.797
  266POPC   C2B 3623   1.306   7.327   5.216
  266POPC   C3B 3624   1.233   7.383   5.651
  266POPC   C4B 3625   0.857   7.597   5.852
  267POPC   NC3 3626   7.630   2.353   3.940
  267POPC   PO4 3627   8.003   2.932   4.023
  267POPC   GL1 3628   7.958   2.595   4.285
  267POPC   GL2 3629   7.633   2.657   4.339
  267POPC   C1A 3630   8.030   2.409   4.671
  267POPC   D2A 3631   8.156   2.665   5.023
  267POPC   C3A 3632   8.092   2.502   5.414
  267POPC   C4A 3633   7.847   2.466   5.773
  267POPC   C1B 3634   7.774   2.832   4.704
  267POPC   C2B 3635   7.675   2.870   5.100
  267POPC   C3B 3636   7.795   2.893   5.476
  267POPC   C4B 3637   7.708   2.953   5.857
  268POPC   NC3 3638   1.638   9.315   3.849
  268POPC   PO4 3639   1.778   9.960   3.930
  268POPC   GL1 3640   1.990   9.822   4.303
  268POPC   GL2 3641   2.037   9.470   4.232
  268POPC   C1A 3642   1.975   9.726   4.749
  268POPC   D2A 3643   2.202   9.624   5.122
  268POPC   C3A 3644   1.931   9.579   5.477
  268POPC   C4A 3645   2.036   9.577   5.923
  268POPC   C1B 3646   1.772   9.280   4.542
  268POPC   C2B 3647   1.871   9.233   4.957
  268POPC   C3B 3648   1.746   9.114   5.330
  268POPC   C4B 3649   1.887   9.129   5.735
  269POPC   NC3 3650   9.130   1.778   3.884
  269POPC   PO4 3651   8.849   2.404   4.104
  269POPC   GL1 3652   8.920   2.048   4.346
  269POPC   GL2 3653   8.612   1.867   4.356
  269POPC   C1A 3654   8.878   2.083   4.804
  269POPC   D2A 3655   8.688   1.971   5.162
  269POPC   C3A 3656   8.726   2.226   5.523
  269POPC   C4A 3657   8.668   1.850   5.796
  269POPC   C1B 3658   8.400   2.070   4.699
  269POPC   C2B 3659   8.205   2.131   5.094
  269POPC   C3B 3660   8.257   2.045   5.549
  269POPC   C4B 3661   8.284   2.220   5.988
  270POPC   NC3 3662   2.829   2.881   4.013
  270POPC   PO4 3663   2.386   2.404   4.295
  270POPC   GL1 3664   2.484   2.782   4.373
  270POPC   GL2 3665   2.829   2.683   4.450
  270POPC   C1A 3666   2.487   2.997   4.730
  270POPC   D2A 3667   2.226   3.075   5.074
  270POPC   C3A 3668   2.302   2.870   5.423
  270POPC   C4A 3669   2.367   3.015   5.835
  270POPC   C1B 3670   2.810   2.617   4.836
  270POPC   C2B 3671   2.737   2.769   5.191
  270POPC   C3B 3672   2.651   2.494   5.495
  270POPC   C4B 3673   2.729   2.552   5.867
  271POPC   NC3 3674  10.126   8.657   3.617
  271POPC   PO4 3675  10.167   8.018   3.708
  271POPC   GL1 3676  10.150   8.333   4.095
  271POPC   GL2 3677  10.170   8.689   4.170
  271POPC   C1A 3678   9.953   8.352   4.535
  271POPC   D2A 3679  10.024   8.518   4.979
  271POPC   C3A 3680   9.942   8.346   5.366
  271POPC   C4A 3681   9.879   8.435   5.776
  271POPC   C1B 3682  10.267   8.782   4.614
  271POPC   C2B 3683   0.005   8.750   5.031
  271POPC   C3B 3684  10.368   8.678   5.489
  271POPC   C4B 3685  10.261   8.739   5.934
  272POPC   NC3 3686   8.845   4.773   3.909
  272POPC   PO4 3687   9.178   5.419   4.078
  272POPC   GL1 3688   8.811   5.245   4.337
  272POPC   GL2 3689   8.753   4.912   4.367
  272POPC   C1A 3690   8.629   5.150   4.772
  272POPC   D2A 3691   8.904   5.042   5.098
  272POPC   C3A 3692   8.682   5.046   5.441
  272POPC   C4A 3693   8.775   4.828   5.790
  272POPC   C1B 3694   8.824   4.665   4.731
  272POPC   C2B 3695   8.583   4.675   5.050
  272POPC   C3B 3696   8.546   4.550   5.395
  272POPC   C4B 3697   8.302   4.742   5.672
  273POPC   NC3 3698  10.184   3.095   3.751
  273POPC   PO4 3699   9.699   2.711   3.973
  273POPC   GL1 3700   9.968   2.766   4.370
  273POPC   GL2 3701  10.297   2.679   4.304
  273POPC   C1A 3702  10.001   2.908   4.820
  273POPC   D2A 3703   9.910   2.861   5.246
  273POPC   C3A 3704   9.842   3.121   5.622
  273POPC   C4A 3705   9.886   2.829   5.960
  273POPC   C1B 3706  10.412   2.583   4.749
  273POPC   C2B 3707  10.263   2.520   5.167
  273POPC   C3B 3708  10.170   2.574   5.590
  273POPC   C4B 3709  10.420   2.310   5.854
  274POPC   NC3 3710   0.291   0.790   3.855
  274POPC   PO4 3711   0.873   0.900   4.069
  274POPC   GL1 3712   0.588   0.945   4.400
  274POPC   GL2 3713   0.295   1.124   4.272
  274POPC   C1A 3714   0.609   0.996   4.860
  274POPC   D2A 3715   0.314   0.816   5.159
  274POPC   C3A 3716   0.336   0.790   5.616
  274POPC   C4A 3717   0.651   0.969   5.818
  274POPC   C1B 3718   0.171   1.319   4.664
  274POPC   C2B 3719   0.337   1.365   5.080
  274POPC   C3B 3720   0.323   1.254   5.451
  274POPC   C4B 3721   0.366   1.394   5.830
  275POPC   NC3 3722   4.277   9.560   3.800
  275POPC   PO4 3723   4.212  10.300   3.702
  275POPC   GL1 3724   4.236  10.315   4.142
  275POPC   GL2 3725   3.943  10.238   4.266
  275POPC   C1A 3726   4.317  10.366   4.599
  275POPC   D2A 3727   4.563   0.023   4.950
  275POPC   C3A 3728   4.674  10.349   5.388
  275POPC   C4A 3729   4.424  10.295   5.768
  275POPC   C1B 3730   3.945  10.021   4.671
  275POPC   C2B 3731   4.145  10.190   5.072
  275POPC   C3B 3732   4.027  10.094   5.501
  275POPC   C4B 3733   3.967  10.124   5.976
  276POPC   NC3 3734   6.575   8.791   4.045
  276POPC   PO4 3735   6.584   9.446   3.897
  276POPC   GL1 3736   6.551   9.245   4.291
  276POPC   GL2 3737   6.245   9.275   4.418
  276POPC   C1A 3738   6.639   9.249   4.764
  276POPC   D2A 3739   6.371   9.484   5.061
  276POPC   C3A 3740   6.447   9.495   5.510
  276POPC   C4A 3741   6.746   9.466   5.795
  276POPC   C1B 3742   6.064   9.628   4.646
  276POPC   C2B 3743   5.886   9.684   5.081
  276POPC   C3B 3744   5.958   9.458   5.474
  276POPC   C4B 3745   6.162   9.174   5.791
  277POPC   NC3 3746   1.341   5.323   3.946
  277POPC   PO4 3747   1.055   5.958   3.999
  277POPC   GL1 3748   1.059   5.572   4.283
  277POPC   GL2 3749   1.414   5.576   4.363
  277POPC   C1A 3750   1.103   5.319   4.689
  277POPC   D2A 3751   0.926   5.552   5.039
  277POPC   C3A 3752   1.080   5.435   5.455
  277POPC   C4A 3753   0.890   5.761   5.704
  277POPC   C1B 3754   1.298   5.793   4.700
  277POPC   C2B 3755   1.417   5.639   5.094
  277POPC   C3B 3756   1.275   5.877   5.389
  277POPC   C4B 3757   1.407   5.938   5.759
  278POPC   NC3 3758   1.160   3.830   3.706
  278POPC   PO4 3759   1.493   4.248   4.090
  278POPC   GL1 3760   1.255   4.156   4.390
  278POPC   GL2 3761   1.019   4.411   4.404
  278POPC   C1A 3762   1.408   4.144   4.804
  278POPC   D2A 3763   1.345   4.379   5.169
  278POPC   C3A 3764   1.395   4.072   5.489
  278POPC   C4A 3765   1.308   4.016   5.932
  278POPC   C1B 3766   0.909   4.197   4.786
  278POPC   C2B 3767   0.840   4.256   5.220
  278POPC   C3B 3768   0.903   4.279   5.652
  278POPC   C4B 3769   0.797   4.029   5.998
  279POPC   NC3 3770  10.018   1.447   3.849
  279POPC   PO4 3771  10.353   2.033   3.821
  279POPC   GL1 3772  10.175   1.920   4.221
  279POPC   GL2 3773  10.015   2.231   4.327
  279POPC   C1A 3774  10.294   1.840   4.666
  279POPC   D2A 3775  10.397   1.615   5.030
  279POPC   C3A 3776   0.070   1.719   5.375
  279POPC   C4A 3777  10.432   1.639   5.752
  279POPC   C1B 3778  10.006   2.288   4.759
  279POPC   C2B 3779  10.084   2.025   5.101
  279POPC   C3B 3780  10.186   2.076   5.480
  279POPC   C4B 3781  10.036   1.927   5.856
  280POPC   NC3 3782   9.233   4.035   3.989
  280POPC   PO4 3783   9.775   4.219   3.662
  280POPC   GL1 3784   9.687   4.223   4.150
  280POPC   GL2 3785   9.534   4.514   4.219
  280POPC   C1A 3786   9.429   4.119   4.602
  280POPC   D2A 3787   9.291   4.003   5.051
  280POPC   C3A 3788   9.437   4.216   5.438
  280POPC   C4A 3789   9.549   4.032   5.852
  280POPC   C1B 3790   9.488   4.637   4.650
  280POPC   C2B 3791   9.262   4.556   5.015
  280POPC   C3B 3792   9.044   4.626   5.378
  280POPC   C4B 3793   9.084   4.422   5.759
  281POPC   NC3 3794   2.621   8.011   3.773
  281POPC   PO4 3795   2.118   8.330   4.012
  281POPC   GL1 3796   2.473   8.052   4.254
  281POPC   GL2 3797   2.529   7.690   4.189
  281POPC   C1A 3798   2.655   8.115   4.682
  281POPC   D2A 3799   2.776   8.165   5.141
  281POPC   C3A 3800   2.433   8.145   5.447
  281POPC   C4A 3801   2.364   7.947   5.850
  281POPC   C1B 3802   2.805   7.637   4.563
  281POPC   C2B 3803   2.732   7.661   4.976
  281POPC   C3B 3804   2.649   7.698   5.395
  281POPC   C4B 3805   2.730   7.591   5.803
  282POPC   NC3 3806   0.719   6.272   3.959
  282POPC   PO4 3807   0.227   6.650   4.078
  282POPC   GL1 3808   0.457   6.484   4.393
  282POPC   GL2 3809   0.703   6.682   4.379
  282POPC   C1A 3810   0.388   6.544   4.826
  282POPC   D2A 3811   0.302   6.249   5.138
  282POPC   C3A 3812   0.103   6.357   5.526
  282POPC   C4A 3813   0.337   6.565   5.765
  282POPC   C1B 3814   0.901   6.613   4.742
  282POPC   C2B 3815   0.821   6.516   5.149
  282POPC   C3B 3816   0.693   6.744   5.466
  282POPC   C4B 3817   0.866   6.696   5.853
  283POPC   NC3 3818  10.056   7.599   3.573
  283POPC   PO4 3819  10.418   7.600   4.106
  283POPC   GL1 3820  10.034   7.622   4.350
  283POPC   GL2 3821  10.004   7.893   4.270
  283POPC   C1A 3822   9.870   7.873   4.747
  283POPC   D2A 3823  10.087   7.930   5.107
  283POPC   C3A 3824  10.116   7.603   5.403
  283POPC   C4A 3825  10.319   7.423   5.737
  283POPC   C1B 3826  10.340   8.006   4.591
  283POPC   C2B 3827  10.488   8.237   4.928
  283POPC   C3B 3828  10.438   8.199   5.358
  283POPC   C4B 3829  10.171   8.021   5.689
  284POPC   NC3 3830   8.397   7.150   4.179
  284POPC   PO4 3831   8.839   7.005   3.782
  284POPC   GL1 3832   8.895   7.082   4.220
  284POPC   GL2 3833   8.800   7.448   4.318
  284POPC   C1A 3834   8.833   6.957   4.667
  284POPC   D2A 3835   8.753   7.055   5.114
  284POPC   C3A 3836   9.020   7.307   5.366
  284POPC   C4A 3837   9.144   7.457   5.768
  284POPC   C1B 3838   8.570   7.410   4.753
  284POPC   C2B 3839   8.309   7.296   5.132
  284POPC   C3B 3840   8.420   7.165   5.519
  284POPC   C4B 3841   8.628   7.536   5.573
  285POPC   NC3 3842   6.442   0.284   3.966
  285POPC   PO4 3843   6.102   1.031   3.937
  285POPC   GL1 3844   6.218   0.632   4.261
  285POPC   GL2 3845   6.561   0.490   4.393
  285POPC   C1A 3846   6.121   0.495   4.701
  285POPC   D2A 3847   5.971   0.471   5.151
  285POPC   C3A 3848   6.234   0.676   5.459
  285POPC   C4A 3849   6.173   0.666   5.881
  285POPC   C1B 3850   6.612   0.298   4.754
  285POPC   C2B 3851   6.530   0.483   5.093
  285POPC   C3B 3852   6.600   0.300   5.457
  285POPC   C4B 3853   6.546   0.340   5.842
  286POPC   NC3 3854   4.501   9.342   4.205
  286POPC   PO4 3855   3.925   9.763   3.993
  286POPC   GL1 3856   4.257   9.799   4.275
  286POPC   GL2 3857   4.132   9.520   4.501
  286POPC   C1A 3858   4.443   9.861   4.677
  286POPC   D2A 3859   4.213   9.688   5.016
  286POPC   C3A 3860   4.435   9.829   5.371
  286POPC   C4A 3861   4.272   9.721   5.756
  286POPC   C1B 3862   4.251   9.174   4.788
  286POPC   C2B 3863   4.121   8.999   5.158
  286POPC   C3B 3864   4.251   9.232   5.518
  286POPC   C4B 3865   3.970   9.313   5.861
  287POPC   NC3 3866   8.420   4.116   3.995
  287POPC   PO4 3867   9.005   4.416   4.166
  287POPC   GL1 3868   8.627   4.434   4.307
  287POPC   GL2 3869   8.716   4.117   4.458
  287POPC   C1A 3870   8.362   4.398   4.658
  287POPC   D2A 3871   8.576   4.186   4.965
  287POPC   C3A 3872   8.364   4.068   5.320
  287POPC   C4A 3873   8.427   4.218   5.730
  287POPC   C1B 3874   8.975   3.806   4.653
  287POPC   C2B 3875   8.824   3.773   5.064
  287POPC   C3B 3876   8.878   4.076   5.401
  287POPC   C4B 3877   9.075   3.921   5.757
  288POPC   NC3 3878   8.208   1.610   3.695
  288POPC   PO4 3879   8.064   2.218   3.962
  288POPC   GL1 3880   7.757   2.090   4.333
  288POPC   GL2 3881   7.985   1.939   4.454
  288POPC   C1A 3882   7.642   2.043   4.785
  288POPC   D2A 3883   7.730   2.339   5.086
  288POPC   C3A 3884   7.766   2.093   5.426
  288POPC   C4A 3885   7.525   2.064   5.765
  288POPC   C1B 3886   8.032   1.714   4.843
  288POPC   C2B 3887   8.302   1.619   5.207
  288POPC   C3B 3888   8.155   1.551   5.634
  288POPC   C4B 3889   7.968   1.820   5.925
  289POPC   NC3 3890   9.859   2.162   3.844
  289POPC   PO4 3891   9.546   1.542   3.767
  289POPC   GL1 3892   9.671   1.795   4.126
  289POPC   GL2 3893   9.400   1.818   4.291
  289POPC   C1A 3894   9.792   1.841   4.589
  289POPC   D2A 3895   9.612   2.014   4.931
  289POPC   C3A 3896   9.603   1.873   5.334
  289POPC   C4A 3897   9.548   1.762   5.731
  289POPC   C1B 3898   9.258   1.759   4.661
  289POPC   C2B 3899   9.173   1.768   5.075
  289POPC   C3B 3900   9.105   1.885   5.486
  289POPC   C4B 3901   9.242   2.260   5.699
  290POPC   NC3 3902   3.331   8.484   3.675
  290POPC   PO4 3903   2.990   7.842   3.982
  290POPC   GL1 3904   3.347   7.809   4.321
  290POPC   GL2 3905   3.355   7.488   4.346
  290POPC   C1A 3906   3.436   8.146   4.701
  290POPC   D2A 3907   3.294   8.245   5.142
  290POPC   C3A 3908   3.500   8.137   5.554
  290POPC   C4A 3909   3.801   8.114   5.919
  290POPC   C1B 3910   3.282   7.668   4.795
  290POPC   C2B 3911   3.418   7.713   5.219
  290POPC   C3B 3912   3.181   7.752   5.595
  290POPC   C4B 3913   2.897   8.073   5.673
  291POPC   NC3 3914   0.377   5.125   3.959
  291POPC   PO4 3915   0.067   4.582   3.992
  291POPC   GL1 3916   0.250   4.716   4.321
  291POPC   GL2 3917   0.256   5.096   4.448
  291POPC   C1A 3918   0.054   4.700   4.697
  291POPC   D2A 3919   0.164   4.877   5.036
  291POPC   C3A 3920   0.024   4.809   5.430
  291POPC   C4A 3921   0.160   5.162   5.696
  291POPC   C1B 3922   0.604   4.903   4.633
  291POPC   C2B 3923   0.635   4.702   5.030
  291POPC   C3B 3924   0.551   4.918   5.413
  291POPC   C4B 3925   0.653   4.734   5.788
  292POPC   NC3 3926   0.958   8.582   3.868
  292POPC   PO4 3927   0.687   9.147   3.983
  292POPC   GL1 3928   0.916   8.894   4.293
  292POPC   GL2 3929   1.281   8.807   4.315
  292POPC   C1A 3930   0.930   8.677   4.699
  292POPC   D2A 3931   0.697   8.637   5.101
  292POPC   C3A 3932   0.946   8.657   5.478
  292POPC   C4A 3933   0.905   8.892   5.862
  292POPC   C1B 3934   1.442   8.879   4.734
  292POPC   C2B 3935   1.399   8.611   5.104
  292POPC   C3B 3936   1.610   8.653   5.497
  292POPC   C4B 3937   1.397   8.979   5.712
  293POPC   NC3 3938   7.969   9.751   3.899
  293POPC   PO4 3939   7.905   9.163   3.718
  293POPC   GL1 3940   7.932   9.282   4.192
  293POPC   GL2 3941   7.863   9.613   4.365
  293POPC   C1A 3942   8.114   9.218   4.645
  293POPC   D2A 3943   8.139   9.499   5.042
  293POPC   C3A 3944   8.191   9.299   5.467
  293POPC   C4A 3945   8.207   9.700   5.704
  293POPC   C1B 3946   7.692   9.485   4.729
  293POPC   C2B 3947   7.728   9.245   5.108
  293POPC   C3B 3948   7.783   9.578   5.441
  293POPC   C4B 3949   7.804   9.346   5.820
  294POPC   NC3 3950   3.437   1.215   3.815
  294POPC   PO4 3951   3.201   0.833   4.312
  294POPC   GL1 3952   3.543   1.037   4.404
  294POPC   GL2 3953   3.533   1.380   4.314
  294POPC   C1A 3954   3.524   1.082   4.837
  294POPC   D2A 3955   3.732   0.949   5.163
  294POPC   C3A 3956   3.439   0.847   5.439
  294POPC   C4A 3957   3.367   1.061   5.825
  294POPC   C1B 3958   3.573   1.588   4.698
  294POPC   C2B 3959   3.712   1.485   5.103
  294POPC   C3B 3960   3.617   1.341   5.487
  294POPC   C4B 3961   3.498   1.537   5.853
  295POPC   NC3 3962   3.235   8.214   4.082
  295POPC   PO4 3963   3.495   8.851   3.911
  295POPC   GL1 3964   3.543   8.605   4.296
  295POPC   GL2 3965   3.228   8.572   4.470
  295POPC   C1A 3966   3.664   8.753   4.681
  295POPC   D2A 3967   3.490   8.798   5.051
  295POPC   C3A 3968   3.528   8.612   5.414
  295POPC   C4A 3969   3.127   8.515   5.575
  295POPC   C1B 3970   3.208   9.007   4.664
  295POPC   C2B 3971   3.197   9.199   5.075
  295POPC   C3B 3972   3.249   9.014   5.465
  295POPC   C4B 3973   3.511   9.111   5.762
  296POPC   NC3 3974   2.928   7.264   4.030
  296POPC   PO4 3975   3.522   7.064   4.075
  296POPC   GL1 3976   3.180   7.015   4.420
  296POPC   GL2 3977   2.849   6.851   4.345
  296POPC   C1A 3978   3.090   7.201   4.847
  296POPC   D2A 3979   3.034   7.369   5.293
  296POPC   C3A 3980   3.043   7.191   5.755
  296POPC   C4A 3981   2.924   7.190   6.231
  296POPC   C1B 3982   2.634   7.161   4.623
  296POPC   C2B 3983   2.606   7.172   5.067
  296POPC   C3B 3984   2.587   7.204   5.504
  296POPC   C4B 3985   2.523   7.110   5.936
  297POPC   NC3 3986   1.459   6.193   3.975
  297POPC   PO4 3987   0.940   6.718   3.915
  297POPC   GL1 3988   1.176   6.522   4.252
  297POPC   GL2 3989   0.970   6.239   4.411
  297POPC   C1A 3990   1.404   6.357   4.635
  297POPC   D2A 3991   1.207   6.206   5.009
  297POPC   C3A 3992   1.345   6.371   5.407
  297POPC   C4A 3993   1.364   6.458   5.835
  297POPC   C1B 3994   0.745   6.118   4.796
  297POPC   C2B 3995   0.779   6.019   5.258
  297POPC   C3B 3996   0.914   6.256   5.625
  297POPC   C4B 3997   1.039   6.151   6.055
  298POPC   NC3 3998   0.727   5.644   3.870
  298POPC   PO4 3999   0.331   6.214   3.705
  298POPC   GL1 4000   0.341   6.036   4.188
  298POPC   GL2 4001   0.619   5.862   4.330
  298POPC   C1A 4002   0.255   6.030   4.649
  298POPC   D2A 4003   0.435   5.760   4.987
  298POPC   C3A 4004   0.235   5.810   5.374
  298POPC   C4A 4005   0.463   6.051   5.685
  298POPC   C1B 4006   0.610   5.464   4.588
  298POPC   C2B 4007   0.507   5.255   4.993
  298POPC   C3B 4008   0.569   5.423   5.410
  298POPC   C4B 4009   0.426   5.564   5.801
  299POPC   NC3 4010   1.286   0.531   3.708
  299POPC   PO4 4011   0.970   0.041   4.033
  299POPC   GL1 4012   1.289   0.160   4.333
  299POPC   GL2 4013   1.416   0.516   4.252
  299POPC   C1A 4014   1.141   0.241   4.760
  299POPC   D2A 4015   1.201   0.134   5.163
  299POPC   C3A 4016   1.170   0.323   5.530
  299POPC   C4A 4017   1.510   0.074   5.719
  299POPC   C1B 4018   1.434   0.646   4.674
  299POPC   C2B 4019   1.206   0.658   5.059
  299POPC   C3B 4020   1.271   0.867   5.430
  299POPC   C4B 4021   1.114   0.751   5.795
  300POPC   NC3 4022   3.934   8.695   3.990
  300POPC   PO4 4023   4.465   8.235   4.030
  300POPC   GL1 4024   4.186   8.442   4.347
  300POPC   GL2 4025   4.114   8.803   4.453
  300POPC   C1A 4026   3.921   8.337   4.687
  300POPC   D2A 4027   3.921   8.536   5.097
  300POPC   C3A 4028   3.970   8.347   5.486
  300POPC   C4A 4029   4.294   8.221   5.711
  300POPC   C1B 4030   4.342   8.640   4.820
  300POPC   C2B 4031   4.437   8.467   5.244
  300POPC   C3B 4032   4.324   8.719   5.599
  300POPC   C4B 4033   3.916   8.855   5.633
  301POPC   NC3 4034   9.807   0.867   4.141
  301POPC   PO4 4035  10.404   1.036   3.862
  301POPC   GL1 4036  10.281   1.185   4.286
  301POPC   GL2 4037  10.196   0.903   4.449
  301POPC   C1A 4038  10.134   1.319   4.728
  301POPC   D2A 4039   9.852   1.538   5.019
  301POPC   C3A 4040  10.016   1.610   5.440
  301POPC   C4A 4041  10.014   1.364   5.834
  301POPC   C1B 4042   0.007   0.845   4.746
  301POPC   C2B 4043  10.410   1.101   5.086
  301POPC   C3B 4044  10.324   1.218   5.446
  301POPC   C4B 4045  10.477   1.099   5.805
  302W        W 4046  10.383   3.585   8.981
  303W        W 4047   3.395   7.407   2.257
  304W        W 4048   8.010   2.748   1.837
  305W        W 4049   6.076   0.517   0.262
  306W        W 4050   8.992   2.412   8.557
  307W        W 4051   9.870   3.092   8.691
  308W        W 4052   8.190   5.490   9.717
  309W        W 4053   2.267   3.556   0.846
  310W        W 4054  10.033   3.167   0.981
  311W        W 4055   0.267   7.409  10.522
  312W        W 4056   5.253   1.874   2.190
  313W        W 4057   9.678   7.142   9.557
  314W        W 4058   9.904   7.950   8.978
  315W        W 4059   8.430   5.666   0.074
  316W        W 4060   8.998   0.896   3.251
  317W        W 4061   5.257   6.456   1.667
  318W        W 4062   7.996   6.166   1.485
  319W        W 4063   5.651  10.453  11.927
  320W        W 4064   6.516  10.333   1.448
  321W        W 4065   1.851   5.691  11.746
  322W        W 4066   3.516   6.673  11.483
  323W        W 4067   6.452   8.064   0.346
  324W        W 4068   8.953   7.678   9.834
  325W        W 4069   0.965   1.863   9.797
  326W        W 4070  10.293   1.791   9.120
  327W        W 4071   4.612   0.761  10.123
  328W        W 4072  10.004   8.576  10.906
  329W        W 4073   9.753   2.264   0.746
  330W        W 4074   1.874   6.959   2.782
  331W        W 4075   1.358   7.009   1.781
  332W        W 4076   9.560   2.106  11.786
  333W        W 4077   6.362   3.135   9.995
  334W        W 4078   2.220   2.852   2.566
  335W        W 4079   0.405   1.027   9.414
  336W        W 4080   8.720   2.239   2.200
  337W        W 4081   8.892   8.827  10.592
  338W        W 4082   4.976   0.439   1.500
  339W        W 4083   2.723   9.479  11.144
  340W        W 4084   3.525   7.354   2.984
  341W        W 4085   9.053   0.875   2.734
  342W        W 4086   1.380   2.545   0.092
  343W        W 4087   2.347   4.704   2.651
  344W        W 4088   6.682   0.158   3.511
  345W        W 4089  10.462   4.213   9.663
  346W        W 4090   7.021  10.317   1.730
  347W        W 4091   7.388   3.688   9.932
  348W        W 4092   1.645   6.773  10.315
  349W        W 4093  10.281   5.064   2.009
  350W        W 4094   8.438   5.603   0.609
  351W        W 4095   3.584   6.898  11.025
  352W        W 4096   6.969   4.128   1.901
  353W        W 4097   4.684   4.184  10.383
  354W        W 4098   8.531   7.612   9.036
  355W        W 4099   5.150  10.094  10.711
  356W        W 4100   8.538   7.672   9.555
  357W        W 4101   6.423   9.149   2.078
  358W        W 4102   2.257   1.300   1.689
  359W        W 4103   7.577   4.649   9.418
  360W        W 4104   0.889   0.851   0.286
  361W        W 4105   4.809   8.443   9.706
  362W        W 4106   5.293   4.779   0.321
  363W        W 4107   8.401   3.176   1.926
  364W        W 4108   0.437   0.795   1.393
  365W        W 4109   8.898   8.140   0.217
  366W        W 4110   5.193   3.045  11.391
  367W        W 4111   9.439   2.610   3.550
  368W        W 4112   2.170   1.887   3.051
  369W        W 4113   4.839   0.942   1.768
  370W        W 4114   8.476   0.206   1.754
  371W        W 4115   8.980   9.100  10.151
  372W        W 4116   9.279   1.375   1.107
  373W        W 4117   8.043   6.048   2.911
  374W        W 4118   6.140   3.721   0.691
  375W        W 4119   4.921   7.931   0.232
  376W        W 4120   8.735   9.765  10.952
  377W        W 4121   0.933   8.624   9.470
  378W        W 4122   5.683   9.444  10.206
  379W        W 4123   1.003   7.160   2.594
  380W        W 4124   1.885   0.975   1.750
  381W        W 4125   4.570   9.889   9.805
  382W        W 4126   6.696   9.714  11.730
  383W        W 4127   0.956   4.676   2.996
  384W        W 4128   7.143   3.555  10.468
  385W        W 4129   8.112   7.338   1.648
  386W        W 4130   4.788   2.181   2.904
  387W        W 4131   9.648   9.859   0.726
  388W        W 4132   8.488   9.557   3.080
  389W        W 4133   6.675   4.589   9.179
  390W        W 4134   7.022   9.455  10.237
  391W        W 4135   0.773   7.729   0.015
  392W        W 4136   5.438   7.574  10.479
  393W        W 4137   7.495   6.257  11.822
  394W        W 4138   1.632   0.543   1.734
  395W        W 4139   7.873   1.204   2.976
  396W        W 4140   0.913   3.739   8.788
  397W        W 4141   3.523   2.393  11.373
  398W        W 4142   4.045   9.626   9.785
  399W        W 4143   3.094   5.276   2.796
  400W        W 4144   7.188   4.361   3.338
  401W        W 4145   9.406   8.071   2.565
  402W        W 4146   7.696   1.420   9.486
  403W        W 4147   2.342   5.538   8.526
  404W        W 4148   8.155   3.771   2.908
  405W        W 4149   9.791   8.579   1.525
  406W        W 4150   7.579   4.603   3.134
  407W        W 4151   0.748  10.343   0.673
  408W        W 4152   2.621   2.808   2.253
  409W        W 4153   8.127   9.319   9.324
  410W        W 4154   1.758   4.506   8.691
  411W        W 4155   0.394   4.359   9.927
  412W        W 4156   7.910  10.264  10.575
  413W        W 4157   1.192   9.161  11.189
  414W        W 4158   7.051   8.211  11.892
  415W        W 4159   1.270   3.608   9.611
  416W        W 4160   6.359   9.770  11.322
  417W        W 4161   3.653   0.468   0.481
  418W        W 4162   9.246   7.190   2.919
  419W        W 4163   6.695   9.398  11.229
  420W        W 4164   8.055   1.252  10.134
  421W        W 4165   7.868   0.440   0.009
  422W        W 4166   7.751   2.705   8.817
  423W        W 4167  10.184   3.449   3.364
  424W        W 4168   0.977   0.017   1.739
  425W        W 4169   4.175   2.508  11.772
  426W        W 4170   4.750   4.115   2.205
  427W        W 4171   5.290   6.100   3.396
  428W        W 4172   7.458   8.566   3.726
  429W        W 4173   2.007   0.886   3.407
  430W        W 4174   4.293   0.853   1.859
  431W        W 4175  10.082   6.846  11.784
  432W        W 4176   1.998   9.117   1.238
  433W        W 4177   7.493   7.646   2.787
  434W        W 4178   1.772   2.104   0.372
  435W        W 4179   9.929   2.780  10.068
  436W        W 4180   0.228   4.652   9.541
  437W        W 4181   4.450   3.191   3.655
  438W        W 4182   6.515   5.027  11.564
  439W        W 4183   7.951   1.629   3.262
  440W        W 4184   1.869   0.650   8.903
  441W        W 4185   5.009   6.687   0.299
  442W        W 4186   3.754   3.762   1.945
  443W        W 4187   4.100   8.523  10.933
  444W        W 4188   1.250   0.488   2.767
  445W        W 4189   4.555   1.724   1.899
  446W        W 4190   8.145   5.722   9.217
  447W        W 4191   6.911   9.912   0.351
  448W        W 4192   3.446   0.770   0.865
  449W        W 4193   9.549   5.561   2.164
  450W        W 4194   6.633   9.938   3.033
  451W        W 4195   9.183   4.455   3.689
  452W        W 4196   5.082   5.242  11.405
  453W        W 4197   6.776   9.450   2.915
  454W        W 4198  10.344  10.372   2.480
  455W        W 4199   8.398   0.224  11.334
  456W        W 4200   2.846   1.324   8.788
  457W        W 4201   6.081   3.788  11.216
  458W        W 4202   0.760   8.610   1.771
  459W        W 4203   2.163   7.191   1.258
  460W        W 4204   9.500   9.557   2.409
  461W        W 4205   6.678   4.102  11.834
  462W        W 4206   6.939   4.147   9.278
  463W        W 4207   3.202   2.340   2.890
  464W        W 4208   8.172   3.728   0.299
  465W        W 4209   1.771   2.256  11.864
  466W        W 4210   8.023   1.170   3.448
  467W        W 4211   1.490  10.311  11.900
  468W        W 4212   5.483   6.622   9.424
  469W        W 4213   2.096   0.818   0.867
  470W        W 4214   5.963   8.165   0.498
  471W        W 4215  10.385   2.025   1.552
  472W        W 4216   6.618   4.104   9.670
  473W        W 4217   9.001   0.288   9.127
  474W        W 4218   8.029   4.697   2.922
  475W        W 4219   5.129   2.514   1.729
  476W        W 4220   3.058   8.256   2.564
  477W        W 4221   7.421   8.940  11.735
  478W        W 4222   2.889   0.350  11.806
  479W        W 4223  10.341   0.225   1.665
  480W        W 4224   1.941   0.862   0.379
  481W        W 4225   9.283   8.368   3.544
  482W        W 4226   9.834   6.405   9.000
  483W        W 4227   6.043   9.183  11.944
  484W        W 4228   9.404   6.641  10.822
  485W        W 4229   7.543   8.862   9.295
  486W        W 4230   2.388   4.229   9.890
  487W        W 4231   5.497   3.275   1.266
  488W        W 4232   4.506   9.961  11.328
  489W        W 4233   5.235   3.731   1.166
  490W        W 4234   5.029   0.733   9.800
  491W        W 4235   5.058   0.814   9.302
  492W        W 4236   1.326   4.980   3.546
  493W        W 4237   8.119   4.187  10.024
  494W        W 4238   2.915   2.363   3.313
  495W        W 4239   8.500   8.432  11.462
  496W        W 4240   9.778   2.334  10.291
  497W        W 4241   2.348   6.270   8.799
  498W        W 4242   5.961   6.294   9.484
  499W        W 4243   6.138   3.725   1.212
  500W        W 4244   2.809   7.410   0.981
  501W        W 4245   9.323   5.154  10.497
  502W        W 4246   6.850   2.146   1.671
  503W        W 4247   7.214   5.343   2.106
  504W        W 4248   6.126   6.031   2.535
  505W        W 4249   3.285   1.351   2.508
  506W        W 4250   0.076   3.892   0.808
  507W        W 4251   0.177   1.280   2.287
  508W        W 4252  10.051   3.999   8.721
  509W        W 4253   7.225   5.837   8.156
  510W        W 4254   2.780   5.868   9.475
  511W        W 4255  10.144   4.267  10.070
  512W        W 4256   2.159   5.158   2.899
  513W        W 4257   3.825   2.796  11.525
  514W        W 4258   8.310   6.496   0.048
  515W        W 4259   6.872   0.125  10.827
  516W        W 4260   6.634   4.557   1.912
  517W        W 4261   5.631   6.518   3.252
  518W        W 4262   6.115   3.703   2.823
  519W        W 4263   7.698   3.574   2.913
  520W        W 4264   6.569   5.949   1.818
  521W        W 4265   4.607   5.447   2.405
  522W        W 4266   2.909   3.289   0.350
  523W        W 4267   5.143   0.835   0.666
  524W        W 4268   1.417   7.587   1.139
  525W        W 4269   2.802   2.738  11.720
  526W        W 4270   6.520   1.417   2.730
  527W        W 4271   1.814   5.882   9.417
  528W        W 4272   3.583   2.340   2.203
  529W        W 4273  10.011   0.029  10.462
  530W        W 4274   6.512   1.668  10.070
  531W        W 4275   5.795   6.232   4.206
  532W        W 4276   6.705   7.034   0.104
  533W        W 4277   7.716   4.318  11.830
  534W        W 4278   9.318   8.577   9.503
  535W        W 4279   9.065  10.210  10.885
  536W        W 4280   9.123   4.667  10.561
  537W        W 4281   4.217   1.261  10.590
  538W        W 4282   9.876   4.749   1.230
  539W        W 4283   1.676   6.106   0.760
  540W        W 4284   9.643   4.154  10.043
  541W        W 4285   3.461   2.286   3.339
  542W        W 4286   0.465   5.261   9.782
  543W        W 4287   0.406   4.522   2.417
  544W        W 4288   2.402   6.035  10.314
  545W        W 4289   5.568  10.468  10.485
  546W        W 4290   1.931   0.688   2.173
  547W        W 4291   7.633   3.552   8.952
  548W        W 4292   7.961   1.875   9.331
  549W        W 4293   6.632   5.459   0.460
  550W        W 4294   9.802   7.172  10.537
  551W        W 4295  10.154   4.660  10.397
  552W        W 4296   3.745   6.624  10.634
  553W        W 4297   9.607   2.634   3.051
  554W        W 4298   7.552   1.149  11.477
  555W        W 4299   6.608   8.618   2.715
  556W        W 4300   4.582   1.805   3.324
  557W        W 4301   5.017   2.773   7.995
  558W        W 4302   4.183   0.581   9.901
  559W        W 4303   6.453   5.683   2.259
  560W        W 4304   8.913   5.091   9.540
  561W        W 4305   8.931   2.166   0.494
  562W        W 4306   8.497   2.748   2.213
  563W        W 4307   2.176   4.711   9.883
  564W        W 4308   1.383   0.719   0.350
  565W        W 4309   7.863   7.444   1.215
  566W        W 4310   6.912   3.139   1.214
  567W        W 4311  10.113   5.059  10.064
  568W        W 4312   0.793   2.767   9.714
  569W        W 4313   5.218   4.318   2.313
  570W        W 4314   1.197   4.757   9.617
  571W        W 4315   6.579   5.893   0.208
  572W        W 4316   2.019   8.024  11.927
  573W        W 4317   4.719   4.953  11.636
  574W        W 4318   0.657   1.690   1.735
  575W        W 4319   7.106   5.577  11.923
  576W        W 4320   3.339   1.869   2.175
  577W        W 4321   8.852   4.246   1.538
  578W        W 4322   0.385   9.900   1.782
  579W        W 4323   0.472   5.628   1.895
  580W        W 4324   8.493   8.916   8.782
  581W        W 4325   6.068   6.944   2.774
  582W        W 4326   6.242   6.548   9.854
  583W        W 4327   2.750   5.187   3.167
  584W        W 4328   7.129   6.519   9.373
  585W        W 4329   3.768   2.572   0.064
  586W        W 4330   3.254   8.247   0.548
  587W        W 4331   9.348   7.320   9.190
  588W        W 4332   6.684   9.261   0.664
  589W        W 4333   3.080   3.364   2.542
  590W        W 4334   9.407   7.544   2.467
  591W        W 4335   9.050   4.109   0.402
  592W        W 4336   4.512   4.111   0.674
  593W        W 4337   5.196   7.075   9.317
  594W        W 4338   5.109   9.936   9.055
  595W        W 4339   1.940   6.704   9.893
  596W        W 4340   3.766   6.060  10.464
  597W        W 4341   5.982   9.724   3.420
  598W        W 4342   9.442   3.782   0.444
  599W        W 4343   0.880   0.331  10.500
  600W        W 4344   2.330   4.569   1.002
  601W        W 4345   6.668   1.783   8.665
  602W        W 4346   2.692   3.558   3.232
  603W        W 4347   7.692   3.796   3.907
  604W        W 4348   6.042   3.221  10.782
  605W        W 4349   1.296   3.815   9.127
  606W        W 4350   9.540   4.724   1.962
  607W        W 4351   0.878   8.332  11.193
  608W        W 4352   3.612   1.549   3.436
  609W        W 4353   1.274   7.462   8.856
  610W        W 4354   4.786   1.029   1.204
  611W        W 4355   7.678   2.824   1.337
  612W        W 4356   1.342   2.392  11.051
  613W        W 4357   4.613   2.170  10.574
  614W        W 4358   3.226   9.738   9.167
  615W        W 4359   9.287   6.263   9.805
  616W        W 4360   4.101   8.398   9.074
  617W        W 4361   6.972   1.842  11.007
  618W        W 4362   4.112   5.992  11.776
  619W        W 4363   3.467   0.983   2.159
  620W        W 4364   9.022   1.674   0.651
  621W        W 4365   5.147   3.822   0.660
  622W        W 4366   3.367   5.017   9.836
  623W        W 4367   2.127   5.694  10.011
  624W        W 4368   4.572   2.823   8.814
  625W        W 4369   1.580   0.261   9.077
  626W        W 4370   6.922   6.997   3.510
  627W        W 4371   7.654   1.050   9.837
  628W        W 4372   2.402   7.359   0.225
  629W        W 4373   7.611   4.132  10.041
  630W        W 4374   6.140   8.358   1.869
  631W        W 4375   4.794   4.590   2.430
  632W        W 4376   7.243   3.628  11.958
  633W        W 4377   3.603   6.132   2.678
  634W        W 4378   4.728   7.363   0.989
  635W        W 4379   2.409   6.553  10.071
  636W        W 4380   7.515   0.825  11.853
  637W        W 4381   5.027   6.495  10.344
  638W        W 4382   3.214  10.301  11.397
  639W        W 4383   9.868   8.460   9.040
  640W        W 4384   9.194   5.745   0.712
  641W        W 4385   0.363   5.962   0.379
  642W        W 4386  10.105   2.808   1.758
  643W        W 4387   5.530   5.129  10.906
  644W        W 4388   2.156   2.080   9.946
  645W        W 4389   3.287   8.381  10.504
  646W        W 4390   4.754   0.021   1.998
  647W        W 4391  10.063   8.292   9.952
  648W        W 4392   5.671   4.141   9.534
  649W        W 4393   4.081   2.336   2.313
  650W        W 4394   4.516   4.210   1.182
  651W        W 4395   7.993  10.425   0.421
  652W        W 4396   9.455   6.730   9.889
  653W        W 4397   0.030   6.572  11.050
  654W        W 4398   1.716   6.968   3.288
  655W        W 4399   8.989   4.283   1.018
  656W        W 4400   1.928   8.788  10.531
  657W        W 4401   8.619   7.214   2.299
  658W        W 4402   9.834   1.362   0.258
  659W        W 4403   3.298   5.084   8.356
  660W        W 4404   2.329   2.099   1.001
  661W        W 4405   9.320   7.687   2.958
  662W        W 4406   6.711   6.022   8.728
  663W        W 4407   5.241   5.771   9.072
  664W        W 4408   7.601   5.700   2.149
  665W        W 4409   4.852   2.688  11.260
  666W        W 4410   9.095   2.333   1.363
  667W        W 4411   5.658   5.593   1.087
  668W        W 4412   5.920   8.632   1.489
  669W        W 4413   4.069   3.242   2.299
  670W        W 4414   6.104   0.318   2.495
  671W        W 4415   9.469   9.446   8.949
  672W        W 4416   3.837   0.040   1.693
  673W        W 4417   4.981   3.251   3.657
  674W        W 4418  10.068   3.636   1.708
  675W        W 4419   1.217   4.222   1.959
  676W        W 4420   0.510   3.368   3.512
  677W        W 4421   8.067   8.623  11.019
  678W        W 4422   6.510   3.606  11.725
  679W        W 4423   5.366  10.370   2.980
  680W        W 4424   5.064   6.061   1.411
  681W        W 4425   8.008   1.757   0.816
  682W        W 4426   0.833   0.950  11.797
  683W        W 4427   9.829   6.983   0.941
  684W        W 4428   1.944   3.690  11.917
  685W        W 4429   6.549   0.544   2.217
  686W        W 4430   0.321   2.081   1.843
  687W        W 4431   0.346   3.961  10.540
  688W        W 4432   6.221   4.683   0.494
  689W        W 4433   9.637   0.602   0.077
  690W        W 4434   0.509   4.735   1.939
  691W        W 4435   9.958   2.313   1.705
  692W        W 4436  10.250   7.797   9.819
  693W        W 4437   6.734   7.262   2.206
  694W        W 4438   0.829   8.542   2.270
  695W        W 4439   2.337   1.562   9.994
  696W        W 4440   8.631   6.529   1.901
  697W        W 4441   4.680   0.388   3.471
  698W        W 4442   1.986  10.426   3.393
  699W        W 4443   0.281   4.818  11.125
  700W        W 4444   7.191   1.871   8.588
  701W        W 4445   2.042   3.975   9.335
  702W        W 4446   3.744   7.619   2.607
  703W        W 4447   8.935   3.105   0.563
  704W        W 4448   7.781   3.131   3.139
  705W        W 4449   3.757   0.133   3.476
  706W        W 4450   7.939   8.356   3.079
  707W        W 4451   4.767   0.342   0.026
  708W        W 4452   5.209   6.029   1.930
  709W        W 4453   8.597   9.490   2.596
  710W        W 4454   1.251   5.714   8.582
  711W        W 4455   5.612   3.436   8.981
  712W        W 4456   7.894   5.248   9.095
  713W        W 4457   0.981   8.078   9.508
  714W        W 4458   2.312   6.979   8.895
  715W        W 4459   6.974  10.437   8.487
  716W        W 4460   7.134   7.404   1.889
  717W        W 4461   1.662  10.337   2.448
  718W        W 4462   3.215   0.340   0.782
  719W        W 4463   5.172   7.874  10.830
  720W        W 4464   7.095   4.225  10.919
  721W        W 4465   8.442   8.891   9.298
  722W        W 4466   5.663   8.928   2.181
  723W        W 4467   9.747   6.957   9.080
  724W        W 4468   5.138   7.162   0.480
  725W        W 4469   5.508   5.161   2.636
  726W        W 4470   6.417   7.423   0.394
  727W        W 4471   8.184   4.876   8.600
  728W        W 4472   6.404   7.400  11.196
  729W        W 4473   7.719   0.552   9.900
  730W        W 4474   1.415   1.419   1.753
  731W        W 4475   0.305   7.884   2.309
  732W        W 4476   1.561   8.406   1.669
  733W        W 4477   6.043   4.235  11.481
  734W        W 4478   0.094   4.708   0.428
  735W        W 4479   3.633   9.927   9.993
  736W        W 4480   9.536   5.269  10.968
  737W        W 4481   9.717   0.149   9.983
  738W        W 4482   3.782   1.904   0.419
  739W        W 4483   1.258   3.801   0.029
  740W        W 4484   0.422   5.729  11.041
  741W        W 4485  10.008   2.921   3.301
  742W        W 4486   1.170   7.798   3.306
  743W        W 4487   5.666   1.858   0.038
  744W        W 4488   2.136   9.254   8.959
  745W        W 4489   7.559   6.663   1.098
  746W        W 4490   5.662   9.584   8.858
  747W        W 4491   5.673   2.237   2.907
  748W        W 4492  10.042   3.507  10.700
  749W        W 4493   7.427   9.703   8.985
  750W        W 4494   1.760   7.591  11.824
  751W        W 4495   1.439   0.063  11.296
  752W        W 4496   4.317   6.664   1.602
  753W        W 4497   9.982   8.806  10.000
  754W        W 4498   0.581  10.499  10.799
  755W        W 4499   4.192  10.067   2.419
  756W        W 4500   5.331  10.068   9.542
  757W        W 4501   4.517   1.329   8.735
  758W        W 4502   0.448   0.825  11.000
  759W        W 4503   9.410   9.891   9.452
  760W        W 4504   2.068   3.183   0.019
  761W        W 4505   9.006   2.706  11.261
  762W        W 4506   7.278   7.915   9.107
  763W        W 4507   3.258   7.900   2.283
  764W        W 4508   1.350   1.968  10.742
  765W        W 4509   6.998   2.628   1.867
  766W        W 4510   8.973   3.125   0.060
  767W        W 4511   2.581  10.480   8.967
  768W        W 4512   2.171   8.947  11.794
  769W        W 4513   6.568   4.071   1.000
  770W        W 4514   9.897   9.985   9.274
  771W        W 4515   3.132   6.217   3.756
  772W        W 4516   1.703  10.386   1.293
  773W        W 4517   2.353   9.480   2.754
  774W        W 4518   9.611   8.454   0.293
  775W        W 4519   3.347   1.927  10.353
  776W        W 4520   1.306   0.657   1.208
  777W        W 4521   7.399   8.158  10.072
  778W        W 4522   2.754   6.442  10.968
  779W        W 4523   3.791   4.779   0.560
  780W        W 4524   7.691   5.775   1.320
  781W        W 4525   6.162   7.042  11.473
  782W        W 4526   0.350   2.300   1.386
  783W        W 4527   6.157   5.492   0.989
  784W        W 4528   5.544   6.022  10.228
  785W        W 4529   5.071   3.326   2.214
  786W        W 4530   0.848   6.196  11.502
  787W        W 4531   5.766   1.249  10.268
  788W        W 4532   6.329   9.493   3.149
  789W        W 4533   5.595   6.729   2.794
  790W        W 4534   0.110   2.125   8.613
  791W        W 4535   4.301   3.089   1.863
  792W        W 4536   6.643   0.334   1.356
  793W        W 4537   2.704   5.597   9.004
  794W        W 4538   0.141   9.436   3.308
  795W        W 4539   3.244   0.785   1.731
  796W        W 4540   0.250   6.559  10.577
  797W        W 4541   3.110   4.284   2.772
  798W        W 4542   4.267   9.356   8.881
  799W        W 4543   1.331   1.960   2.974
  800W        W 4544   2.999   4.307   8.559
  801W        W 4545   8.274   1.058  10.991
  802W        W 4546   7.250   2.818   0.018
  803W        W 4547   5.200   6.516   1.171
  804W        W 4548   7.229   4.224   8.532
  805W        W 4549  10.005   3.971  10.899
  806W        W 4550   4.779   0.355  11.514
  807W        W 4551   4.157   2.771   9.596
  808W        W 4552   8.898   0.231   8.609
  809W        W 4553   6.780   5.334   1.295
  810W        W 4554   9.338   4.109   1.361
  811W        W 4555   8.966   7.913   1.789
  812W        W 4556   7.039   7.547  10.390
  813W        W 4557   0.940   0.823  10.223
  814W        W 4558   3.739   4.025   3.762
  815W        W 4559   4.671   9.329  10.947
  816W        W 4560   7.549   7.258   3.618
  817W        W 4561  10.255   9.484  10.483
  818W        W 4562   6.930   3.690   9.526
  819W        W 4563  10.231   7.451  10.536
  820W        W 4564   5.627   2.242  11.186
  821W        W 4565   1.037   1.417   8.991
  822W        W 4566   0.124   5.566   9.543
  823W        W 4567   5.185   0.989   3.495
  824W        W 4568   3.591   4.253   1.807
  825W        W 4569   3.728   7.819   2.113
  826W        W 4570   7.117   1.191   0.800
  827W        W 4571   5.992   8.386  11.483
  828W        W 4572   2.605   6.925   2.962
  829W        W 4573   6.704   1.488   2.235
  830W        W 4574   8.051   2.871  11.222
  831W        W 4575   4.496   1.629   0.882
  832W        W 4576   8.555   9.479  10.567
  833W        W 4577   2.665   2.656   9.445
  834W        W 4578   7.904  10.202  10.078
  835W        W 4579   2.526   0.760   3.338
  836W        W 4580   7.398   5.565   8.575
  837W        W 4581   7.931   6.544  11.196
  838W        W 4582   6.045   3.282   0.937
  839W        W 4583   5.624   6.743   1.918
  840W        W 4584   9.223   1.080   2.101
  841W        W 4585   7.111   4.721   0.235
  842W        W 4586   4.850   6.177   0.346
  843W        W 4587   1.088   9.676  11.304
  844W        W 4588   0.768   9.843   2.436
  845W        W 4589   4.773   4.721   0.426
  846W        W 4590   4.748   3.716   9.511
  847W        W 4591   2.221   7.361  11.756
  848W        W 4592   6.193   4.283  11.967
  849W        W 4593   9.784   9.949   3.169
  850W        W 4594   6.576   8.354  10.371
  851W        W 4595   2.888   2.675  10.312
  852W        W 4596   7.906   4.670   8.217
  853W        W 4597   3.350   5.730   2.830
  854W        W 4598   1.873   1.786   2.372
  855W        W 4599   3.095   6.464   2.197
  856W        W 4600   4.068   8.611  11.436
  857W        W 4601   3.342   8.501   1.429
  858W        W 4602   2.092   2.413   2.340
  859W        W 4603   7.758   2.478  10.000
  860W        W 4604   2.254   3.836   3.234
  861W        W 4605   6.664   7.054  11.438
  862W        W 4606   0.511   8.518   3.310
  863W        W 4607   2.751   6.012   0.064
  864W        W 4608   6.662   4.801   2.415
  865W        W 4609   1.310   7.271  11.654
  866W        W 4610   8.908   7.459  10.878
  867W        W 4611   1.114   9.255   3.074
  868W        W 4612   3.657   2.753  10.031
  869W        W 4613   8.068   6.464  10.712
  870W        W 4614   6.457   3.239   0.546
  871W        W 4615   8.639   3.607   2.037
  872W        W 4616   9.533   6.635   1.176
  873W        W 4617   4.181   9.818  10.964
  874W        W 4618   1.443   0.549   2.298
  875W        W 4619   7.899   3.283  10.488
  876W        W 4620   0.327   3.227   9.115
  877W        W 4621   1.766   5.062   3.245
  878W        W 4622   4.116   0.386  10.747
  879W        W 4623   2.591   6.554   2.173
  880W        W 4624   0.518   0.893   9.920
  881W        W 4625   7.535   9.975   1.036
  882W        W 4626   2.063   1.011  11.806
  883W        W 4627   7.445   4.971   9.815
  884W        W 4628   8.456   4.655  10.788
  885W        W 4629  10.053   0.917  10.609
  886W        W 4630   9.654   6.630   2.193
  887W        W 4631   9.374   6.126  10.744
  888W        W 4632   5.005   2.614   8.989
  889W        W 4633   8.445   4.541   8.893
  890W        W 4634   4.681   2.209  11.443
  891W        W 4635  10.246   7.983   1.436
  892W        W 4636   9.081   2.825   0.970
  893W        W 4637   6.557   5.125   0.874
  894W        W 4638   8.151   3.661   8.921
  895W        W 4639  10.420   3.256   9.430
  896W        W 4640   0.684   9.751  10.457
  897W        W 4641   0.882   0.941   1.209
  898W        W 4642   8.122   4.786  11.221
  899W        W 4643   9.400   9.424  10.478
  900W        W 4644   0.491   7.569   0.836
  901W        W 4645   3.996   7.663   1.285
  902W        W 4646   3.578  10.027   0.479
  903W        W 4647   4.731   1.734   8.959
  904W        W 4648   5.616   9.388  11.755
  905W        W 4649   4.267   3.629   0.671
  906W        W 4650   7.548   7.634  10.308
  907W        W 4651   0.790   8.018   2.436
  908W        W 4652   2.555   1.166  11.458
  909W        W 4653   0.948   9.151   1.894
  910W        W 4654   0.840   3.068   2.296
  911W        W 4655   8.039   9.291   3.199
  912W        W 4656   7.550   0.955   3.319
  913W        W 4657   8.531   0.518   0.613
  914W        W 4658   8.425   1.963  11.936
  915W        W 4659   6.987   1.476   0.410
  916W        W 4660   6.465   2.727   3.261
  917W        W 4661   2.235   9.357  11.272
  918W        W 4662   8.101   1.391   9.167
  919W        W 4663   1.730   7.209   8.865
  920W        W 4664   2.149   4.105  10.738
  921W        W 4665   6.516   0.730   0.406
  922W        W 4666   9.888   2.733  11.121
  923W        W 4667   6.397   6.815  10.544
  924W        W 4668   0.938   8.755  10.351
  925W        W 4669   3.518   0.956   1.330
  926W        W 4670   3.322   6.809   0.215
  927W        W 4671  10.016   7.350  11.858
  928W        W 4672   8.864   4.200  10.478
  929W        W 4673   7.017   6.972   9.969
  930W        W 4674   1.519   8.182  11.916
  931W        W 4675   9.068   9.487  11.833
  932W        W 4676   0.581   9.130  11.135
  933W        W 4677   5.481   6.655   4.078
  934W        W 4678   8.372  10.040   8.358
  935W        W 4679   0.575   4.830   0.545
  936W        W 4680   9.369   6.173   8.763
  937W        W 4681   6.623   3.762   1.411
  938W        W 4682   9.436   6.406  10.294
  939W        W 4683   4.385  10.362   2.863
  940W        W 4684   3.878   7.303   2.204
  941W        W 4685   8.425   0.727  11.355
  942W        W 4686   4.555   5.772  11.897
  943W        W 4687   8.729   9.281   2.155
  944W        W 4688   3.680   6.053   1.291
  945W        W 4689   8.311   9.436   0.876
  946W        W 4690   5.202   5.238   9.549
  947W        W 4691   7.915   4.065   1.131
  948W        W 4692   1.829   1.611   0.536
  949W        W 4693   5.090   5.218   0.826
  950W        W 4694   1.712   4.177   3.207
  951W        W 4695   3.288   8.371   9.533
  952W        W 4696   9.948   3.184   9.244
  953W        W 4697   6.094   2.455  10.363
  954W        W 4698   1.883   9.388  10.820
  955W        W 4699   5.601   6.485   2.355
  956W        W 4700   2.604   9.975   9.114
  957W        W 4701   0.997   9.025   2.411
  958W        W 4702   3.824   9.383  11.771
  959W        W 4703   2.683   8.036   3.280
  960W        W 4704   4.585   4.060   8.905
  961W        W 4705   3.678   7.553   3.452
  962W        W 4706   2.401   0.290  11.809
  963W        W 4707   5.670   8.029  11.309
  964W        W 4708   1.414   5.662   2.492
  965W        W 4709   5.261   0.957  11.353
  966W        W 4710   7.497   6.956   8.654
  967W        W 4711   2.908   3.200   8.909
  968W        W 4712   2.632   8.941   9.994
  969W        W 4713   5.651   7.561   8.855
  970W        W 4714   4.076   2.222   8.883
  971W        W 4715   5.958   6.795   9.493
  972W        W 4716   9.843  10.284  11.452
  973W        W 4717   4.234   0.332   2.711
  974W        W 4718   7.425   1.040   2.836
  975W        W 4719   4.279   8.603   2.735
  976W        W 4720   1.861   5.074   9.999
  977W        W 4721   8.888   4.541   2.006
  978W        W 4722   3.205   6.107   9.657
  979W        W 4723   9.000   0.842  11.414
  980W        W 4724   5.550   1.679  10.531
  981W        W 4725   2.807   8.086   1.770
  982W        W 4726   6.622   8.123   2.764
  983W        W 4727   6.657  10.030   1.022
  984W        W 4728   6.699   4.457   0.632
  985W        W 4729   4.820   9.817   0.876
  986W        W 4730  10.411   1.419   0.848
  987W        W 4731  10.311   4.690  11.374
  988W        W 4732   3.562   5.255   9.400
  989W        W 4733   5.457   4.335   1.668
  990W        W 4734   0.161   0.200   2.065
  991W        W 4735   0.896   7.194   3.649
  992W        W 4736   4.576   2.658   2.752
  993W        W 4737   1.167   6.101  10.851
  994W        W 4738   9.050   9.728   2.225
  995W        W 4739   8.805   9.877  11.523
  996W        W 4740   6.874   8.350   2.352
  997W        W 4741   0.225   9.201   2.413
  998W        W 4742   8.948   0.044  10.490
  999W        W 4743  10.304   3.253  11.356
 1000W        W 4744   2.341   2.089   2.052
 1001W        W 4745   7.840   3.291   1.125
 1002W        W 4746   0.792   0.513  11.562
 1003W        W 4747   4.965   4.493   3.048
 1004W        W 4748   2.289   7.837   0.369
 1005W        W 4749   9.885   9.212   2.626
 1006W        W 4750   4.054   3.948   9.137
 1007W        W 4751   5.337   7.899   2.655
 1008W        W 4752   6.589   5.700  11.735
 1009W        W 4753   5.944   2.240  10.782
 1010W        W 4754   5.696   8.557   0.715
 1011W        W 4755  10.313  10.020  11.784
 1012W        W 4756   1.681   9.059   9.125
 1013W        W 4757   2.735   2.770   3.543
 1014W        W 4758   7.429   1.321   1.699
 1015W        W 4759   1.169   1.858   1.610
 1016W        W 4760   3.138   6.128  11.770
 1017W        W 4761   7.919   9.136   0.790
 1018W        W 4762   3.546   7.667   1.653
 1019W        W 4763   3.669   4.696   8.199
 1020W        W 4764   7.093   4.743  10.385
 1021W        W 4765   9.380   3.724  10.139
 1022W        W 4766   8.557   5.694   3.081
 1023W        W 4767   3.996   4.439   1.567
 1024W        W 4768   9.165   3.577  11.340
 1025W        W 4769   9.534   6.346   0.164
 1026W        W 4770   2.586   2.670   3.064
 1027W        W 4771   9.320   7.825  11.503
 1028W        W 4772   8.389  10.192   0.201
 1029W        W 4773   5.559   0.028   8.901
 1030W        W 4774   5.795   9.859   9.595
 1031W        W 4775   1.322   0.760   9.531
 1032W        W 4776   1.246   5.096   3.024
 1033W        W 4777   5.663  10.383   1.973
 1034W        W 4778   5.753   0.671   1.321
 1035W        W 4779   1.864   8.555   3.169
 1036W        W 4780   1.104   0.995   3.620
 1037W        W 4781  10.443   1.795  10.122
 1038W        W 4782   2.302   3.684  11.075
 1039W        W 4783   8.876   5.729   2.673
 1040W        W 4784   8.115   9.280   9.829
 1041W        W 4785   5.210   3.533   1.731
 1042W        W 4786   1.884   8.464  10.149
 1043W        W 4787   5.582   3.700  11.965
 1044W        W 4788   8.332   3.306  10.824
 1045W        W 4789   6.573   8.544   9.845
 1046W        W 4790   2.793   0.388   9.766
 1047W        W 4791   7.565   0.273   2.286
 1048W        W 4792  10.235   5.078   3.225
 1049W        W 4793   1.325   5.927   3.417
 1050W        W 4794   4.587   1.890  11.044
 1051W        W 4795   4.280   3.313  11.259
 1052W        W 4796   8.274  10.246   8.826
 1053W        W 4797   9.729   4.012   1.691
 1054W        W 4798  10.188   5.986   8.991
 1055W        W 4799   2.557   4.532   8.735
 1056W        W 4800   6.656   7.534   1.757
 1057W        W 4801   5.782   6.192  11.513
 1058W        W 4802   6.862   5.152   9.519
 1059W        W 4803   0.915   3.571  10.819
 1060W        W 4804   4.068   0.203  11.223
 1061W        W 4805  10.025   3.228   9.780
 1062W        W 4806   0.819   7.936   2.972
 1063W        W 4807   1.359   9.983  10.604
 1064W        W 4808   0.576   0.514   9.136
 1065W        W 4809   7.101   1.041   8.922
 1066W        W 4810   0.799   2.629   2.973
 1067W        W 4811   8.696   7.309  11.856
 1068W        W 4812   7.116   3.374   8.917
 1069W        W 4813   4.418   0.005   2.368
 1070W        W 4814   7.847   5.179  11.432
 1071W        W 4815   9.555   7.122  10.994
 1072W        W 4816   4.129  10.069  10.035
 1073W        W 4817   6.997   6.092   9.611
 1074W        W 4818   0.120   7.477   9.580
 1075W        W 4819   7.083   4.663   4.271
 1076W        W 4820   7.466   0.868  10.884
 1077W        W 4821   5.257   8.290   0.485
 1078W        W 4822   4.749   9.319   0.929
 1079W        W 4823   9.257   1.603   1.980
 1080W        W 4824   5.156   8.965   1.961
 1081W        W 4825   3.645   8.551   8.905
 1082W        W 4826   6.942   0.182  11.825
 1083W        W 4827   9.904   1.859   1.465
 1084W        W 4828   7.576   5.405  10.998
 1085W        W 4829   8.662   6.812   1.467
 1086W        W 4830   5.781   4.632   1.371
 1087W        W 4831   5.104  10.433   1.556
 1088W        W 4832   8.350   6.212   2.183
 1089W        W 4833   6.121   3.690   1.723
 1090W        W 4834  10.338   1.205   2.649
 1091W        W 4835   3.567   2.744   1.850
 1092W        W 4836   5.261   8.991  11.455
 1093W        W 4837   1.743   7.153   9.776
 1094W        W 4838   9.857   7.054   2.973
 1095W        W 4839   3.681   9.604   0.213
 1096W        W 4840   6.866   2.232  10.692
 1097W        W 4841   9.428   1.208   9.969
 1098W        W 4842   5.354   0.427  10.586
 1099W        W 4843   3.277  10.175  10.880
 1100W        W 4844   8.145   8.389   0.310
 1101W        W 4845   6.475   3.340   2.775
 1102W        W 4846   4.627   7.874   2.330
 1103W        W 4847   2.279   8.357   1.384
 1104W        W 4848   6.077   9.671  10.466
 1105W        W 4849   6.091   1.040   0.173
 1106W        W 4850   3.275   0.503   2.731
 1107W        W 4851   3.922   4.637   2.713
 1108W        W 4852   2.846   3.553  11.746
 1109W        W 4853   5.281   1.347  11.004
 1110W        W 4854   2.939   4.594   9.601
 1111W        W 4855   6.249   1.363  10.538
 1112W        W 4856   3.192   4.583  11.555
 1113W        W 4857   6.578  10.232   0.555
 1114W        W 4858   9.861   1.389  10.691
 1115W        W 4859   0.136   8.324   0.375
 1116W        W 4860   3.407   3.662  10.381
 1117W        W 4861   0.182   6.184   9.863
 1118W        W 4862   4.962   5.635  10.279
 1119W        W 4863   6.165   6.506   1.217
 1120W        W 4864   5.653   3.134  11.157
 1121W        W 4865   4.701   9.102   9.143
 1122W        W 4866   9.531   9.589   0.037
 1123W        W 4867   4.997   4.518   1.860
 1124W        W 4868   1.750   6.027   9.920
 1125W        W 4869   2.206   9.486   9.847
 1126W        W 4870   0.359   2.762   1.167
 1127W        W 4871   2.969   5.943   0.545
 1128W        W 4872   2.236   0.935  10.559
 1129W        W 4873   0.199   1.674  11.083
 1130W        W 4874   3.568   1.705  11.987
 1131W        W 4875   9.972   6.156   1.368
 1132W        W 4876   8.093   7.214   8.618
 1133W        W 4877   5.982   7.477   1.521
 1134W        W 4878   3.704   3.531   1.456
 1135W        W 4879   8.476   5.907   9.572
 1136W        W 4880   1.007   5.918   9.421
 1137W        W 4881   2.822   8.889   2.174
 1138W        W 4882   4.801   3.151   2.715
 1139W        W 4883   9.891   6.013   0.007
 1140W        W 4884   5.005   4.191   8.655
 1141W        W 4885  10.385   7.240   0.207
 1142W        W 4886   9.568   7.062  11.938
 1143W        W 4887   7.588   5.777  11.916
 1144W        W 4888   3.705   1.411   9.347
 1145W        W 4889   0.795   7.035  10.581
 1146W        W 4890   9.193   1.728  10.816
 1147W        W 4891   8.936   3.307   1.080
 1148W        W 4892  10.317   0.465   0.702
 1149W        W 4893   0.285   6.976  10.254
 1150W        W 4894   8.411   5.042   9.620
 1151W        W 4895   0.348   2.815   3.115
 1152W        W 4896   4.404   9.514  10.126
 1153W        W 4897   7.903  10.220   9.553
 1154W        W 4898   2.677   5.659   1.729
 1155W        W 4899   7.181   7.013   0.205
 1156W        W 4900   5.446   7.269   3.716
 1157W        W 4901   8.380  10.484  11.777
 1158W        W 4902   6.471   1.385   9.613
 1159W        W 4903   1.788   4.274   0.630
 1160W        W 4904   9.895   8.894  11.552
 1161W        W 4905   3.507   7.558   1.159
 1162W        W 4906   1.723   3.169   2.951
 1163W        W 4907   6.990   6.033   0.954
 1164W        W 4908   0.492   2.095   0.930
 1165W        W 4909   7.150   9.304   3.262
 1166W        W 4910   2.684   1.928   9.913
 1167W        W 4911   3.711   8.863   0.898
 1168W        W 4912   1.357   0.868  10.531
 1169W        W 4913   9.973   5.699  10.306
 1170W        W 4914   8.751  10.040  10.512
 1171W        W 4915   3.121   9.809  11.353
 1172W        W 4916   1.828   5.746  11.233
 1173W        W 4917   1.003   1.376   3.296
 1174W        W 4918   9.547   7.053   3.403
 1175W        W 4919  10.390   9.857   1.692
 1176W        W 4920   5.752   7.008   2.355
 1177W        W 4921   7.404   5.612   9.097
 1178W        W 4922   2.854   4.814   2.807
 1179W        W 4923   9.486   3.573   3.320
 1180W        W 4924   9.555   4.508   0.411
 1181W        W 4925   5.641   1.291   8.750
 1182W        W 4926   7.051   3.972   2.407
 1183W        W 4927   5.631   3.740   1.985
 1184W        W 4928   7.689   3.824  11.873
 1185W        W 4929   7.166   2.663  10.624
 1186W        W 4930  10.425   4.371   0.776
 1187W        W 4931   7.191   1.226  11.870
 1188W        W 4932   2.927   2.969   8.432
 1189W        W 4933   5.545   2.240   8.795
 1190W        W 4934   8.188   1.911   2.865
 1191W        W 4935   3.316   0.486   2.215
 1192W        W 4936   7.937   7.387   2.702
 1193W        W 4937   0.278   1.341   9.827
 1194W        W 4938   2.394   1.860   8.612
 1195W        W 4939   0.641   8.904   0.928
 1196W        W 4940   6.168   6.010   1.039
 1197W        W 4941   9.076   3.742  10.547
 1198W        W 4942   4.260   1.171   0.847
 1199W        W 4943   2.666   3.769   0.623
 1200W        W 4944   7.889   5.105   0.209
 1201W        W 4945   7.833   8.287  11.324
 1202W        W 4946   7.925   6.601  11.694
 1203W        W 4947   1.212   7.331   3.061
 1204W        W 4948   1.439   6.500  11.009
 1205W        W 4949   7.600   7.872  11.054
 1206W        W 4950   1.638   2.770   3.254
 1207W        W 4951   6.051   1.957   0.739
 1208W        W 4952   2.150   8.588   2.308
 1209W        W 4953   6.911   7.877  10.013
 1210W        W 4954   1.385   5.567   9.439
 1211W        W 4955   1.868   5.906  10.410
 1212W        W 4956   1.738   7.719   8.766
 1213W        W 4957   7.185   1.478  11.316
 1214W        W 4958   2.275   3.789   8.882
 1215W        W 4959  10.024   3.817  10.279
 1216W        W 4960   0.009   9.369   1.429
 1217W        W 4961   9.846   5.508   9.823
 1218W        W 4962   7.665   9.476   8.577
 1219W        W 4963   3.162   2.761   9.357
 1220W        W 4964   7.290   4.423   0.599
 1221W        W 4965   2.953   7.559   8.632
 1222W        W 4966   4.015   7.946   3.377
 1223W        W 4967   3.495   3.193   3.306
 1224W        W 4968   8.195   4.682   0.165
 1225W        W 4969   5.604   1.667   2.503
 1226W        W 4970   3.130   4.089  10.808
 1227W        W 4971   9.516   0.715  11.573
 1228W        W 4972   5.651   8.460   0.210
 1229W        W 4973   2.158   7.343  11.244
 1230W        W 4974   4.590   5.027  10.806
 1231W        W 4975   3.747   1.319  10.366
 1232W        W 4976   2.262   8.341   9.045
 1233W        W 4977   8.950   0.013   1.897
 1234W        W 4978   6.029   5.808   9.567
 1235W        W 4979   0.716  10.164   3.282
 1236W        W 4980   5.730   9.564   3.007
 1237W        W 4981   9.423   1.714   1.497
 1238W        W 4982   3.518   1.709   0.798
 1239W        W 4983   6.980   0.263   9.512
 1240W        W 4984   9.480   0.953   0.889
 1241W        W 4985   9.389   9.606   2.915
 1242W        W 4986   9.319   5.106   9.212
 1243W        W 4987   1.499   7.768   2.921
 1244W        W 4988   2.206   5.801   2.351
 1245W        W 4989   6.167   6.461   3.899
 1246W        W 4990   5.237   3.796   2.324
 1247W        W 4991   0.512   8.286   9.493
 1248W        W 4992   6.224   2.721  10.767
 1249W        W 4993   4.960   3.704   7.804
 1250W        W 4994   4.271   3.902  10.344
 1251W        W 4995   7.373   6.778   3.707
 1252W        W 4996   5.384   7.081  10.559
 1253W        W 4997   5.971   8.387   9.537
 1254W        W 4998   7.103   7.362   0.660
 1255W        W 4999   5.082   0.709   2.151
 1256W        W 5000   4.757   2.712  10.750
 1257W        W 5001   3.348   2.808   0.260
 1258W        W 5002   7.952   0.963   8.878
 1259W        W 5003   5.987   3.908  10.208
 1260W        W 5004   2.205   5.757   8.962
 1261W        W 5005   2.785   4.697   1.937
 1262W        W 5006   9.724   7.155   1.439
 1263W        W 5007   8.566   3.379   3.358
 1264W        W 5008   5.012   7.985   9.771
 1265W        W 5009   1.689   4.698   9.700
 1266W        W 5010   9.116   8.184   9.242
 1267W        W 5011   7.447   5.230   3.608
 1268W        W 5012   6.483   7.344   2.747
 1269W        W 5013   4.563   8.123  10.023
 1270W        W 5014   4.501   9.697   8.537
 1271W        W 5015   7.798  10.423  11.950
 1272W        W 5016   4.130   1.404   0.389
 1273W        W 5017   1.253   6.460   0.299
 1274W        W 5018   8.105   8.909   0.336
 1275W        W 5019   0.151   6.830   8.622
 1276W        W 5020   4.615   5.023   2.677
 1277W        W 5021   9.389   2.464   9.964
 1278W        W 5022  10.141   0.447   9.905
 1279W        W 5023   1.821   1.670  10.040
 1280W        W 5024   1.286   2.190   1.176
 1281W        W 5025   7.916   8.799   3.339
 1282W        W 5026  10.280   6.485   9.653
 1283W        W 5027   0.467   3.472  10.595
 1284W        W 5028   7.043   5.372   0.779
 1285W        W 5029   5.593   9.421   1.471
 1286W        W 5030   3.503   8.330   3.238
 1287W        W 5031   7.470   5.020   0.472
 1288W        W 5032   7.243   9.295   1.856
 1289W        W 5033   9.135   1.350   0.206
 1290W        W 5034   2.860   4.037   3.275
 1291W        W 5035   9.798   0.471   1.786
 1292W        W 5036   1.831   5.568   0.251
 1293W        W 5037   3.110  10.485   9.612
 1294W        W 5038   1.834  10.335  11.528
 1295W        W 5039  10.277   1.938   2.046
 1296W        W 5040   6.882   7.585   1.244
 1297W        W 5041   6.491   3.539  10.737
 1298W        W 5042   8.746  10.421   9.472
 1299W        W 5043   3.213   5.981   2.326
 1300W        W 5044   4.459   4.616   0.828
 1301W        W 5045  10.476   5.427   2.360
 1302W        W 5046   3.041   0.695   3.279
 1303W        W 5047   6.715   5.562  10.848
 1304W        W 5048   8.896   7.636   0.369
 1305W        W 5049   8.369   8.543   3.298
 1306W        W 5050   2.401   0.295   9.412
 1307W        W 5051   8.395   1.802   0.435
 1308W        W 5052   0.736   2.421   8.563
 1309W        W 5053   0.706   4.126   2.255
 1310W        W 5054   6.946   2.271   8.841
 1311W        W 5055   4.653   7.083   1.663
 1312W        W 5056   0.375   6.414  11.913
 1313W        W 5057   3.191   7.613   3.252
 1314W        W 5058   4.160   7.872   9.787
 1315W        W 5059   2.506   9.584   8.789
 1316W        W 5060   7.660   6.532   1.562
 1317W        W 5061   6.849   2.313  11.744
 1318W        W 5062   1.165   7.565  11.259
 1319W        W 5063   4.609   9.941   2.694
 1320W        W 5064   7.829   6.026   4.171
 1321W        W 5065   4.843   1.323  11.249
 1322W        W 5066   6.562   5.852   2.742
 1323W        W 5067   9.918   7.477   1.826
 1324W        W 5068   6.474   0.974   9.283
 1325W        W 5069   2.390   1.468   9.025
 1326W        W 5070   4.757   6.532   1.825
 1327W        W 5071   4.623   6.155  10.379
 1328W        W 5072   6.982   9.447   1.434
 1329W        W 5073   4.154   4.701   9.964
 1330W        W 5074   2.709   3.215  10.871
 1331W        W 5075   4.202   0.352   1.179
 1332W        W 5076   7.693   8.314   0.527
 1333W        W 5077   9.367   0.231   9.568
 1334W        W 5078   2.808   1.433   9.826
 1335W        W 5079   3.192   4.099  11.310
 1336W        W 5080   7.432   9.754   0.447
 1337W        W 5081   1.222   6.518   1.710
 1338W        W 5082  10.441   0.147   1.145
 1339W        W 5083   8.854   3.149   9.538
 1340W        W 5084   6.067   7.370   3.072
 1341W        W 5085   5.087   7.419  10.071
 1342W        W 5086   7.711   7.316   9.937
 1343W        W 5087   3.822   2.256   1.781
 1344W        W 5088   2.581   3.167  11.949
 1345W        W 5089   3.940   2.624   8.577
 1346W        W 5090   7.887   7.033   9.527
 1347W        W 5091   3.868   3.647  11.036
 1348W        W 5092   6.081   0.369   0.801
 1349W        W 5093   2.185   4.372   8.418
 1350W        W 5094   6.214   0.031  10.836
 1351W        W 5095   7.523   2.927   2.300
 1352W        W 5096   5.556   4.361  11.418
 1353W        W 5097   8.209   5.804   3.879
 1354W        W 5098   8.994   7.695   9.306
 1355W        W 5099   4.721   7.237   9.474
 1356W        W 5100   7.924   1.169   1.951
 1357W        W 5101   7.864   8.355   9.835
 1358W        W 5102   3.700   1.407   1.496
 1359W        W 5103   7.419   7.432  11.270
 1360W        W 5104   6.576   6.862   2.730
 1361W        W 5105   8.473   4.560   3.124
 1362W        W 5106   7.815   5.101   7.980
 1363W        W 5107   4.566  10.348  10.033
 1364W        W 5108   5.740   4.659   2.924
 1365W        W 5109   9.698  10.414   1.255
 1366W        W 5110  10.091   0.511  11.823
 1367W        W 5111   5.103   6.143  11.042
 1368W        W 5112   2.338   6.098   3.722
 1369W        W 5113   1.965   1.158   8.800
 1370W        W 5114   1.803   3.204  10.994
 1371W        W 5115   4.091   2.373   0.458
 1372W        W 5116   9.338   0.469   8.666
 1373W        W 5117   2.935   4.035   2.338
 1374W        W 5118   8.959   2.709  10.742
 1375W        W 5119   4.481   6.773  11.820
 1376W        W 5120   0.141   9.314  11.290
 1377W        W 5121  10.312   6.366   2.536
 1378W        W 5122   5.817   7.684   1.957
 1379W        W 5123   2.727   9.896   3.243
 1380W        W 5124   8.371   4.170   9.555
 1381W        W 5125   5.722   8.311   1.157
 1382W        W 5126   4.713   3.258   9.712
 1383W        W 5127   2.626   1.216  10.281
 1384W        W 5128   7.803  10.359   1.257
 1385W        W 5129   8.295   0.251   0.225
 1386W        W 5130   7.053   8.803   3.343
 1387W        W 5131   7.845   9.349   2.666
 1388W        W 5132   2.278   9.837   1.427
 1389W        W 5133   6.006   2.956  10.328
 1390W        W 5134   7.233   7.872   1.696
 1391W        W 5135   1.714   2.639   9.545
 1392W        W 5136   5.418   0.852  10.879
 1393W        W 5137   9.961   0.607   3.173
 1394W        W 5138   1.269   0.532  11.395
 1395W        W 5139   8.561   1.785   1.413
 1396W        W 5140   2.446   2.206   9.553
 1397W        W 5141   1.938   3.304   1.505
 1398W        W 5142   5.713   8.210   2.739
 1399W        W 5143   1.006   2.324   9.570
 1400W        W 5144   0.709   2.875  11.436
 1401W        W 5145   7.694   1.979  10.268
 1402W        W 5146   5.458   0.825   3.082
 1403W        W 5147   3.952   5.639  10.195
 1404W        W 5148   2.912   4.536  10.971
 1405W        W 5149   8.962   6.205   2.820
 1406W        W 5150   5.570   2.036   0.982
 1407W        W 5151   1.618   8.050  10.062
 1408W        W 5152   2.648   7.006   3.463
 1409W        W 5153   7.591   1.325   3.659
 1410W        W 5154   2.829   3.746   1.937
 1411W        W 5155  10.353   3.063   8.928
 1412W        W 5156   9.095   6.667   2.659
 1413W        W 5157   1.206   3.328   0.235
 1414W        W 5158   4.919   0.680   8.239
 1415W        W 5159   3.579   3.222  10.676
 1416W        W 5160   1.440   2.249   9.320
 1417W        W 5161   0.442   6.892  10.927
 1418W        W 5162   2.127   7.683   1.187
 1419W        W 5163   1.337   4.325   9.020
 1420W        W 5164   2.582   2.673   0.832
 1421W        W 5165   9.085   5.558   9.259
 1422W        W 5166   0.292   4.133  11.941
 1423W        W 5167   2.381   0.873   1.939
 1424W        W 5168   2.378   6.093   9.797
 1425W        W 5169   5.023   3.778   9.032
 1426W        W 5170   8.899   5.287   0.434
 1427W        W 5171   6.211   5.488   0.069
 1428W        W 5172   1.474   5.087   1.952
 1429W        W 5173   0.251   0.556   0.983
 1430W        W 5174   6.157   8.379  10.073
 1431W        W 5175   0.321   0.384  11.365
 1432W        W 5176   9.492   4.150   0.058
 1433W        W 5177   7.971   8.753   1.707
 1434W        W 5178  10.264   8.423   3.154
 1435W        W 5179   4.823   4.560   1.374
 1436W        W 5180   0.941   0.345   0.329
 1437W        W 5181   8.868   9.797   3.330
 1438W        W 5182   1.063  10.383   0.175
 1439W        W 5183   7.986   4.631   2.410
 1440W        W 5184  10.378  10.064   9.061
 1441W        W 5185   8.870   5.584   9.734
 1442W        W 5186   8.840   9.044  11.975
 1443W        W 5187   4.771   1.222   0.727
 1444W        W 5188   7.977   6.492   2.633
 1445W        W 5189   5.434   2.151  10.729
 1446W        W 5190   4.200   5.858  10.630
 1447W        W 5191   2.213   2.186  11.136
 1448W        W 5192   5.231   4.253   3.628
 1449W        W 5193   3.705   5.892   2.217
 1450W        W 5194   1.753   9.584   8.964
 1451W        W 5195   5.269   0.054  10.964
 1452W        W 5196   6.109   9.913   2.951
 1453W        W 5197   2.164   6.541   1.893
 1454W        W 5198   8.157   5.761   8.449
 1455W        W 5199   1.641   4.604   0.269
 1456W        W 5200   7.629   3.281  11.934
 1457W        W 5201   2.837   5.745  10.383
 1458W        W 5202   6.649   6.631   3.174
 1459W        W 5203   6.809   2.080  10.203
 1460W        W 5204   5.713   3.743   2.492
 1461W        W 5205   5.179   1.756   0.830
 1462W        W 5206   3.796   3.548   9.376
 1463W        W 5207  10.222   6.041   0.920
 1464W        W 5208   4.210   1.420   9.586
 1465W        W 5209   3.020   0.862   2.406
 1466W        W 5210   3.563   0.148  11.284
 1467W        W 5211   4.689   0.326   9.901
 1468W        W 5212   1.756   3.127   2.461
 1469W        W 5213   1.010   8.339   0.432
 1470W        W 5214   3.538   6.696   8.665
 1471W        W 5215   2.271   5.483  11.999
 1472W        W 5216   6.444   5.281   2.594
 1473W        W 5217   2.375   0.271   3.449
 1474W        W 5218   7.534   1.498   0.733
 1475W        W 5219   9.734  10.117  10.343
 1476W        W 5220   9.594   2.228   1.251
 1477W        W 5221   1.772   7.268  10.384
 1478W        W 5222   0.764   4.249   3.286
 1479W        W 5223   1.675   7.627  11.312
 1480W        W 5224   8.537   5.289   1.279
 1481W        W 5225   5.706   7.130   4.130
 1482W        W 5226   4.550   8.135   8.957
 1483W        W 5227   9.785   7.646   9.375
 1484W        W 5228   5.002   7.908   8.806
 1485W        W 5229   8.742   5.826   0.969
 1486W        W 5230   3.273   6.333   1.450
 1487W        W 5231   6.844   8.106   8.889
 1488W        W 5232   8.984   3.353   1.582
 1489W        W 5233   9.496   4.719  10.955
 1490W        W 5234   2.756   4.621   0.693
 1491W        W 5235   9.856   2.200   0.194
 1492W        W 5236  10.373   6.107   0.273
 1493W        W 5237   3.153   5.647   1.915
 1494W        W 5238   7.870   7.160  10.416
 1495W        W 5239   6.148   0.518  10.751
 1496W        W 5240   7.860   9.751  11.452
 1497W        W 5241   3.965   8.418   3.100
 1498W        W 5242   0.250   8.560   9.136
 1499W        W 5243   5.312   4.495   1.200
 1500W        W 5244   8.471   6.358   1.262
 1501W        W 5245   7.537   9.502   3.586
 1502W        W 5246   3.701  10.072   9.113
 1503W        W 5247   8.542   0.997   2.919
 1504W        W 5248   4.265   1.497  11.096
 1505W        W 5249   3.572   4.316   0.424
 1506W        W 5250   4.526   6.948   0.638
 1507W        W 5251   8.455   9.005   2.530
 1508W        W 5252   2.046   7.721   2.141
 1509W        W 5253   8.474   8.270  11.948
 1510W        W 5254   1.801   2.135   2.767
 1511W        W 5255   5.661   1.287   0.259
 1512W        W 5256   6.999   7.500   3.437
 1513W        W 5257   0.195   5.939  11.889
 1514W        W 5258   9.425   5.056   1.247
 1515W        W 5259   4.259   1.119   9.999
 1516W        W 5260   0.006   8.413  10.976
 1517W        W 5261   9.345   0.544  10.482
 1518W        W 5262   3.132   6.969   2.149
 1519W        W 5263   7.666   4.216   8.276
 1520W        W 5264   1.464   5.487  11.467
 1521W        W 5265   5.069   0.059   3.355
 1522W        W 5266   9.546   5.455   0.945
 1523W        W 5267   9.035   5.856   3.180
 1524W        W 5268   8.772   7.043   2.784
 1525W        W 5269   3.761   8.601   2.645
 1526W        W 5270   2.745  10.422  11.580
 1527W        W 5271   3.507   2.775  10.974
 1528W        W 5272   7.279   2.323   9.773
 1529W        W 5273   3.229   9.205   3.596
 1530W        W 5274  10.307   6.190   3.033
 1531W        W 5275   1.825   3.719  10.888
 1532W        W 5276   7.489   6.110   9.407
 1533W        W 5277   6.027   7.430   2.565
 1534W        W 5278   5.617   8.308   3.633
 1535W        W 5279   2.230   5.791   1.456
 1536W        W 5280   5.544   6.856   0.404
 1537W        W 5281   3.345   1.132   3.334
 1538W        W 5282  10.354   6.466   9.111
 1539W        W 5283   6.775   8.483   0.295
 1540W        W 5284   9.821   5.238  10.456
 1541W        W 5285   4.475   7.541   1.470
 1542W        W 5286   3.671   6.673   9.164
 1543W        W 5287   1.466   5.557   2.991
 1544W        W 5288   5.594   3.100   9.389
 1545W        W 5289   7.533   8.883   1.964
 1546W        W 5290  10.175   5.990   9.872
 1547W        W 5291   9.848   6.029   8.589
 1548W        W 5292   6.128   9.885   9.981
 1549W        W 5293   9.868   3.264  11.134
 1550W        W 5294   6.088   6.478  11.805
 1551W        W 5295   4.515   7.486   1.987
 1552W        W 5296   2.374   7.586  10.090
 1553W        W 5297   4.472   7.247  11.080
 1554W        W 5298   5.620   1.311   9.263
 1555W        W 5299   7.244   4.465   9.001
 1556W        W 5300   7.666   6.958   0.333
 1557W        W 5301  10.281   4.966   2.510
 1558W        W 5302   8.941   6.258   3.504
 1559W        W 5303   8.090   1.273  11.469
 1560W        W 5304   6.763   5.691   9.838
 1561W        W 5305   1.544   1.863   1.973
 1562W        W 5306   4.881   5.622   9.402
 1563W        W 5307   5.109   1.203   3.013
 1564W        W 5308   3.595   3.745   8.932
 1565W        W 5309   7.478   6.752  11.885
 1566W        W 5310   5.676   2.801   1.590
 1567W        W 5311   3.704   5.875   3.163
 1568W        W 5312   6.118   5.933  11.819
 1569W        W 5313   2.838   0.735  11.486
 1570W        W 5314   7.367   2.361  11.766
 1571W        W 5315   5.291   9.321   2.949
 1572W        W 5316   9.680   5.447   9.310
 1573W        W 5317   2.135   8.038  10.109
 1574W        W 5318   8.025   4.460   3.930
 1575W        W 5319   9.586   0.473   0.578
 1576W        W 5320   4.585   0.738   0.830
 1577W        W 5321   2.202   4.069   0.866
 1578W        W 5322   1.355   9.387  11.624
 1579W        W 5323   1.057   8.388  10.709
 1580W        W 5324   1.604   0.755   0.797
 1581W        W 5325   7.800   1.138   2.471
 1582W        W 5326   9.190   5.599   3.601
 1583W        W 5327   1.843   9.244   0.341
 1584W        W 5328   9.959   0.254   2.646
 1585W        W 5329   1.351   8.412   9.257
 1586W        W 5330   8.832   0.797   9.040
 1587W        W 5331   6.551   5.041  11.051
 1588W        W 5332   8.969   7.921   3.356
 1589W        W 5333   5.438   7.100   8.737
 1590W        W 5334   1.790   8.089   9.131
 1591W        W 5335   6.359   2.423  11.937
 1592W        W 5336   1.232   1.144   0.028
 1593W        W 5337   3.350   8.753   0.440
 1594W        W 5338   5.705   0.191  11.459
 1595W        W 5339   7.105   6.609   1.490
 1596W        W 5340   8.007   7.677  10.631
 1597W        W 5341   9.277   2.371  10.466
 1598W        W 5342   9.867   6.162   2.317
 1599W        W 5343   7.240   2.913   0.903
 1600W        W 5344   0.958   5.162   0.583
 1601W        W 5345  10.335   4.520   1.265
 1602W        W 5346   3.566   3.649   9.819
 1603W        W 5347   8.961   3.592   0.270
 1604W        W 5348   6.026   5.198  10.127
 1605W        W 5349   9.761   8.153  10.723
 1606W        W 5350   8.867   4.367   2.549
 1607W        W 5351   7.409   6.596   1.981
 1608W        W 5352   1.313   5.742   9.932
 1609W        W 5353   0.034   8.751   2.261
 1610W        W 5354   7.620   8.112   1.454
 1611W        W 5355   6.954   4.540  11.805
 1612W        W 5356   5.494   6.226   2.791
 1613W        W 5357   8.212   0.676   9.697
 1614W        W 5358   6.018   9.182   1.746
 1615W        W 5359   5.309   9.892   0.889
 1616W        W 5360   7.663   9.561  11.022
 1617W        W 5361   7.079   3.592   2.062
 1618W        W 5362   4.718   3.617   0.929
 1619W        W 5363   8.499   1.496   9.957
 1620W        W 5364   8.419   3.790   2.458
 1621W        W 5365   2.522   1.650   0.889
 1622W        W 5366   4.122   6.581   9.382
 1623W        W 5367   3.371   2.283   9.628
 1624W        W 5368   9.635   3.469  11.554
 1625W        W 5369   6.129   0.320   1.348
 1626W        W 5370   5.211   3.925   9.507
 1627W        W 5371   4.883   9.045   2.866
 1628W        W 5372   3.306   7.499   3.785
 1629W        W 5373   9.431   9.771   1.818
 1630W        W 5374   1.661  10.470   2.963
 1631W        W 5375   8.478   2.789   9.478
 1632W        W 5376   4.138   4.126   1.951
 1633W        W 5377   1.313   9.428   9.225
 1634W        W 5378   2.829   7.367   0.482
 1635W        W 5379   8.946   3.146  11.026
 1636W        W 5380   5.051  10.491   0.285
 1637W        W 5381   1.243   2.750   1.436
 1638W        W 5382   8.534   5.545  10.552
 1639W        W 5383   2.655   6.052   2.918
 1640W        W 5384   0.211   2.724   9.127
 1641W        W 5385   6.973   6.060   3.565
 1642W        W 5386   4.460   5.675  10.236
 1643W        W 5387   4.290   1.432   3.553
 1644W        W 5388   4.072   6.136   2.892
 1645W        W 5389   7.174   3.201  11.695
 1646W        W 5390   5.937   5.624  10.413
 1647W        W 5391   1.366   6.869   2.873
 1648W        W 5392   0.925   2.700  10.187
 1649W        W 5393   7.221   3.708   2.880
 1650W        W 5394   4.983   5.180   0.325
 1651W        W 5395   7.049   0.366   1.688
 1652W        W 5396   6.032   2.442   2.213
 1653W        W 5397   5.587   2.442   1.953
 1654W        W 5398   7.837   5.662   8.819
 1655W        W 5399   2.158   7.785  11.473
 1656W        W 5400   8.523   0.674   1.538
 1657W        W 5401   5.495  10.235  11.460
 1658W        W 5402   4.784   8.084  11.697
 1659W        W 5403   4.609   5.949   1.175
 1660W        W 5404  10.407   3.133   2.912
 1661W        W 5405   1.946   1.356   9.269
 1662W        W 5406   4.749   3.660  10.493
 1663W        W 5407   0.517   5.228   0.895
 1664W        W 5408   0.538   9.354   0.707
 1665W        W 5409   9.832   2.346   9.763
 1666W        W 5410   2.729   7.901   2.792
 1667W        W 5411   1.232   6.568   2.216
 1668W        W 5412   0.968   9.379   8.402
 1669W        W 5413   6.139   1.040  11.433
 1670W        W 5414   2.199   6.826   2.382
 1671W        W 5415   2.126   4.306   0.135
 1672W        W 5416   0.394   6.509   8.950
 1673W        W 5417   3.936   3.208   3.593
 1674W        W 5418   5.470   3.408   3.690
 1675W        W 5419   4.709   1.263   2.649
 1676W        W 5420   5.165   1.212   1.494
 1677W        W 5421   3.889   8.921   3.033
 1678W        W 5422   1.596   9.180  10.452
 1679W        W 5423   1.111   8.493   1.417
 1680W        W 5424   6.200   1.396   2.321
 1681W        W 5425   3.806   2.824   0.543
 1682W        W 5426   7.576   3.083   9.188
 1683W        W 5427   1.356   2.456  11.580
 1684W        W 5428   5.110   2.233   0.624
 1685W        W 5429   6.354   7.308  10.449
 1686W        W 5430   9.820   1.791  11.457
 1687W        W 5431   1.007   1.401   1.429
 1688W        W 5432   6.389   1.986   1.562
 1689W        W 5433   5.665   8.511   3.162
 1690W        W 5434   4.216   6.734   2.398
 1691W        W 5435   2.256   0.798   2.871
 1692W        W 5436   5.645   3.274   1.784
 1693W        W 5437   7.345   6.926   0.715
 1694W        W 5438   4.475   2.192   0.061
 1695W        W 5439   2.729   5.660  11.261
 1696W        W 5440   7.592   4.094   3.037
 1697W        W 5441  10.243   5.735  11.795
 1698W        W 5442   8.050   1.664  11.797
 1699W        W 5443   5.638   3.185   3.266
 1700W        W 5444   7.899   1.944  10.749
 1701W        W 5445   2.091   4.202   1.859
 1702W        W 5446   5.516  10.270   0.400
 1703W        W 5447   2.227  10.429   9.751
 1704W        W 5448   5.243   2.036   2.688
 1705W        W 5449   2.315   5.144   0.375
 1706W        W 5450   4.771   7.162   8.984
 1707W        W 5451   2.849   9.041   9.006
 1708W        W 5452  10.044   9.468   1.680
 1709W        W 5453   6.967   6.558   0.032
 1710W        W 5454   5.655   2.198   0.494
 1711W        W 5455   9.677   1.788  10.966
 1712W        W 5456   5.602   7.313   1.208
 1713W        W 5457   0.277   4.723   0.945
 1714W        W 5458   9.875   8.059  11.212
 1715W        W 5459   7.355   9.683  11.499
 1716W        W 5460   4.164   9.127   0.720
 1717W        W 5461   9.267   5.475   0.094
 1718W        W 5462   4.627   8.222   2.717
 1719W        W 5463   0.247   2.865  10.886
 1720W        W 5464   6.410   2.471   0.846
 1721W        W 5465   3.318   0.732  10.023
 1722W        W 5466   2.797   1.415  11.863
 1723W        W 5467   0.655   5.072   2.757
 1724W        W 5468  10.254   3.197   0.315
 1725W        W 5469   2.675   7.231   9.788
 1726W        W 5470   2.907   9.021  10.482
 1727W        W 5471   2.842   6.968   0.150
 1728W        W 5472   7.662   7.964   0.956
 1729W        W 5473   0.819  10.106   1.998
 1730W        W 5474   3.934   5.205  11.448
 1731W        W 5475   6.182   2.396   1.340
 1732W        W 5476  10.243   6.491  10.620
 1733W        W 5477   6.264   8.556   0.346
 1734W        W 5478   4.155   6.862   0.247
 1735W        W 5479   2.155   6.105  10.769
 1736W        W 5480   2.640   5.538   2.224
 1737W        W 5481  10.478   7.000  10.732
 1738W        W 5482   5.089   3.117  10.896
 1739W        W 5483   3.064   1.857   1.727
 1740W        W 5484   7.439   7.132   2.720
 1741W        W 5485   6.084   3.384   2.416
 1742W        W 5486   0.283   6.198  11.442
 1743W        W 5487   7.527   8.616   1.470
 1744W        W 5488   9.110   7.092   2.383
 1745W        W 5489   8.686   4.808   0.371
 1746W        W 5490   1.164   7.547   9.359
 1747W        W 5491   4.339   9.984   0.931
 1748W        W 5492   2.479   9.905  11.932
 1749W        W 5493   4.141   2.249   1.393
 1750W        W 5494   7.717   4.818  11.777
 1751W        W 5495   9.149   3.509   2.938
 1752W        W 5496   2.790   6.115   9.015
 1753W        W 5497   0.497   7.355   0.356
 1754W        W 5498   1.482   1.963   9.754
 1755W        W 5499   9.123   7.521   0.804
 1756W        W 5500  10.415   0.773   2.913
 1757W        W 5501   4.970   3.329   1.332
 1758W        W 5502   2.297   3.501  11.591
 1759W        W 5503   9.844   1.353   2.620
 1760W        W 5504   4.981   1.257   9.024
 1761W        W 5505   4.300   3.702   2.194
 1762W        W 5506   9.842   8.366  11.828
 1763W        W 5507   7.418   4.060   1.644
 1764W        W 5508   2.641   3.609   2.389
 1765W        W 5509   4.606   7.247   3.433
 1766W        W 5510   3.242   1.363   9.565
 1767W        W 5511   0.381   8.070   9.030
 1768W        W 5512   8.358   7.030   3.118
 1769W        W 5513   5.865   8.916   8.826
 1770W        W 5514   3.531   6.420  11.925
 1771W        W 5515   2.439   5.228  11.163
 1772W        W 5516   2.907   9.900   1.277
 1773W        W 5517   3.531   4.525   1.369
 1774W        W 5518   6.995  10.468  11.354
 1775W        W 5519   2.885   7.637  10.075
 1776W        W 5520   9.455   2.634   2.033
 1777W        W 5521   5.140   8.309  10.566
 1778W        W 5522   2.742   8.630   8.672
 1779W        W 5523   0.584   3.532   1.619
 1780W        W 5524   5.486   4.700  10.127
 1781W        W 5525   2.292   7.243   2.707
 1782W        W 5526   4.089   6.686   8.860
 1783W        W 5527   5.336   7.993   1.254
 1784W        W 5528   0.069   5.721  11.413
 1785W        W 5529   7.515   0.710   9.013
 1786W        W 5530   5.506   2.659   9.131
 1787W        W 5531   5.692   9.548   0.941
 1788W        W 5532   3.036   2.225   1.362
 1789W        W 5533   8.879   8.553  11.843
 1790W        W 5534   3.296   1.470  11.091
 1791W        W 5535   2.851   6.229  10.506
 1792W        W 5536   8.543   2.015   3.865
 1793W        W 5537   1.150   6.971   0.408
 1794W        W 5538   5.968   6.966   1.366
 1795W        W 5539   2.111   4.274   2.882
 1796W        W 5540   7.147   8.173   1.268
 1797W        W 5541   5.720   5.595  10.915
 1798W        W 5542   4.192   2.837   0.190
 1799W        W 5543   5.956   1.187   1.903
 1800W        W 5544   6.143   6.162   0.267
 1801W        W 5545   5.209   2.871   0.248
 1802W        W 5546  10.495   2.116  11.068
 1803W        W 5547   3.117   2.734  11.311
 1804W        W 5548   6.592   1.872   2.553
 1805W        W 5549   9.842   9.871   1.371
 1806W        W 5550   4.863   9.861  11.692
 1807W        W 5551   7.414   7.287  11.796
 1808W        W 5552   6.031   1.650   9.298
 1809W        W 5553   9.447   8.494   2.273
 1810W        W 5554   3.884   3.640  10.526
 1811W        W 5555   4.911   7.505  11.102
 1812W        W 5556   3.673   9.541   1.503
 1813W        W 5557   3.595   2.650   3.004
 1814W        W 5558   5.156   3.411   9.410
 1815W        W 5559   4.589   6.901   1.201
 1816W        W 5560  10.494   9.121  11.896
 1817W        W 5561   1.902   0.392   9.461
 1818W        W 5562   3.562   8.996   1.373
 1819W        W 5563   6.135   0.637   9.511
 1820W        W 5564   2.058   3.768   1.277
 1821W        W 5565   3.548   2.237   1.345
 1822W        W 5566   5.558   6.058   9.722
 1823W        W 5567   4.197   9.135   9.830
 1824W        W 5568   5.763  10.058   0.812
 1825W        W 5569   8.583   8.575   2.300
 1826W        W 5570   7.049   0.990  11.414
 1827W        W 5571   9.570   2.681   2.538
 1828W        W 5572   0.144   4.077   2.350
 1829W        W 5573   1.692   2.375   9.992
 1830W        W 5574   6.212   7.464   9.989
 1831W        W 5575   6.587   4.539   0.133
 1832W        W 5576   7.660   7.530   2.277
 1833W        W 5577  10.194   2.335   2.367
 1834W        W 5578   6.521   2.799   9.488
 1835W        W 5579   7.528   3.938   0.740
 1836W        W 5580   4.717   0.263   2.946
 1837W        W 5581   8.654   1.731   2.792
 1838W        W 5582   4.073   6.471  11.937
 1839W        W 5583   8.875   7.064   3.284
 1840W        W 5584   6.881   6.788   0.542
 1841W        W 5585   2.764   9.415   1.404
 1842W        W 5586   4.440   4.571   2.811
 1843W        W 5587   7.915   2.789   0.359
 1844W        W 5588   6.116   8.942   2.435
 1845W        W 5589   5.030  10.423  11.420
 1846W        W 5590   1.706   3.785   0.763
 1847W        W 5591   2.191   2.621   9.750
 1848W        W 5592   5.632   7.040   3.279
 1849W        W 5593   0.682   4.880   9.538
 1850W        W 5594   1.200   9.561   2.172
 1851W        W 5595   3.866   7.081   3.258
 1852W        W 5596   6.954   3.281   0.687
 1853W        W 5597   4.341   4.706   1.320
 1854W        W 5598  10.215   8.312  10.502
 1855W        W 5599   8.829   5.081   9.025
 1856W        W 5600   1.004   7.893   8.634
 1857W        W 5601   3.684   4.923   2.327
 1858W        W 5602   1.394   4.101  11.495
 1859W        W 5603   7.917   9.070  11.879
 1860W        W 5604   7.159   9.794   1.748
 1861W        W 5605  10.272   9.819   3.304
 1862W        W 5606   8.466   4.696   2.634
 1863W        W 5607   0.286   2.725   1.695
 1864W        W 5608  10.406   1.148   1.888
 1865W        W 5609   9.731   8.752   1.031
 1866W        W 5610   7.001   1.651   3.411
 1867W        W 5611   2.082   2.720  10.954
 1868W        W 5612   0.324   0.533   3.420
 1869W        W 5613   4.543   6.768  11.274
 1870W        W 5614   5.170   3.511   2.734
 1871W        W 5615   3.660   6.246   9.441
 1872W        W 5616   1.705   2.708   2.197
 1873W        W 5617   9.501   5.644   3.180
 1874W        W 5618   5.859   3.785   8.570
 1875W        W 5619   3.048   0.956   1.137
 1876W        W 5620   5.160   9.265  10.756
 1877W        W 5621   8.543   8.139   2.560
 1878W        W 5622   5.920   2.981   9.778
 1879W        W 5623   0.199   5.589   2.838
 1880W        W 5624   2.316   4.198   1.377
 1881W        W 5625   6.599   2.000   0.817
 1882W        W 5626   1.815   9.884  10.961
 1883W        W 5627   0.710   8.033   1.019
 1884W        W 5628  10.375   2.709   9.806
 1885W        W 5629   1.714   1.786  11.593
 1886W        W 5630   0.945   7.794   1.913
 1887W        W 5631   1.248   3.757   0.522
 1888W        W 5632   6.297   2.629   9.917
 1889W        W 5633   0.804   1.869  10.276
 1890W        W 5634   8.315   6.094   0.850
 1891W        W 5635   1.814   8.117   1.243
 1892W        W 5636   4.862   4.028   9.892
 1893W        W 5637   9.316   0.673   1.801
 1894W        W 5638   0.003   7.019   3.176
 1895W        W 5639   3.185   5.660   0.003
 1896W        W 5640   5.730   7.716   2.887
 1897W        W 5641   1.744   4.006   8.927
 1898W        W 5642   9.276  10.044   3.163
 1899W        W 5643   7.498   8.678  10.027
 1900W        W 5644   3.802   7.348   0.798
 1901W        W 5645   8.526   0.455   9.292
 1902W        W 5646   3.612   6.043   0.687
 1903W        W 5647   2.841   7.187   8.943
 1904W        W 5648   6.119   4.423   9.467
 1905W        W 5649   3.432   2.766   8.502
 1906W        W 5650   3.200   1.824  11.451
 1907W        W 5651   9.478   5.260   1.732
 1908W        W 5652  10.260   7.621   9.192
 1909W        W 5653   3.841   6.116   0.223
 1910W        W 5654   6.449   2.335   2.464
 1911W        W 5655   5.031   6.273   9.062
 1912W        W 5656   5.697   4.068   0.716
 1913W        W 5657   1.200   7.898   0.288
 1914W        W 5658   4.448   0.049   9.558
 1915W        W 5659   0.518   8.334  10.810
 1916W        W 5660   4.189   4.865   1.792
 1917W        W 5661   1.736   6.599   2.444
 1918W        W 5662  10.216   5.650   1.367
 1919W        W 5663   6.290   3.627   0.203
 1920W        W 5664   7.601   9.451   2.209
 1921W        W 5665   8.120   6.620   9.252
 1922W        W 5666   7.035   5.776   0.470
 1923W        W 5667   6.483   4.903   2.940
 1924W        W 5668   6.448   6.362  10.291
 1925W        W 5669  10.378   2.652   0.411
 1926W        W 5670   6.037   1.137   9.512
 1927W        W 5671   1.377   8.940   9.570
 1928W        W 5672  10.444   4.600   3.073
 1929W        W 5673   9.535   5.861   0.348
 1930W        W 5674   3.714   9.970  11.045
 1931W        W 5675   5.226   0.382   2.990
 1932W        W 5676   6.383   1.891   9.600
 1933W        W 5677   3.135   2.093   3.670
 1934W        W 5678   4.545   3.644   9.994
 1935W        W 5679   8.330   8.059  10.500
 1936W        W 5680   2.882   3.657  11.038
 1937W        W 5681   9.906   6.191   0.526
 1938W        W 5682   0.793   2.681   1.939
 1939W        W 5683   0.199   1.930   0.513
 1940W        W 5684   8.000   4.211   0.276
 1941W        W 5685   8.041   4.380   8.613
 1942W        W 5686   9.870   3.565   8.915
 1943W        W 5687   9.422   4.616   0.983
 1944W        W 5688   0.097  10.346   3.579
 1945W        W 5689   3.139   7.837   9.023
 1946W        W 5690   3.381   0.898   0.355
 1947W        W 5691  10.293  10.495   8.807
 1948W        W 5692   9.908   1.254   8.649
 1949W        W 5693   6.098   7.456   9.091
 1950W        W 5694   7.448   3.113   0.406
 1951W        W 5695   6.189   1.261   0.967
 1952W        W 5696   5.077   1.601   1.800
 1953W        W 5697  10.460   2.187   2.787
 1954W        W 5698   5.668   3.697   1.483
 1955W        W 5699   6.603   2.546  10.368
 1956W        W 5700   1.470   9.139   3.411
 1957W        W 5701   8.047   0.248   1.471
 1958W        W 5702   0.778   0.213   2.797
 1959W        W 5703   1.351   3.696  11.076
 1960W        W 5704   6.885   2.882   9.054
 1961W        W 5705   4.787   9.425  10.459
 1962W        W 5706   0.212   6.957   0.481
 1963W        W 5707   0.964   5.618   1.699
 1964W        W 5708   2.338   5.547   1.013
 1965W        W 5709   4.730   6.639   8.590
 1966W        W 5710   8.566   3.715   1.549
 1967W        W 5711   2.631   0.798  11.047
 1968W        W 5712   5.562   7.421   0.175
 1969W        W 5713   0.765   5.105   8.986
 1970W        W 5714   1.301   1.475   9.851
 1971W        W 5715   1.761  10.300   9.005
 1972W        W 5716   5.771   5.425   0.622
 1973W        W 5717   4.944   6.990  10.319
 1974W        W 5718   9.838   6.029   2.865
 1975W        W 5719   7.187   4.114   9.719
 1976W        W 5720  10.491   5.550   3.310
 1977W        W 5721   5.409   8.065   3.212
 1978W        W 5722   7.940   7.376   0.408
 1979W        W 5723   4.796   4.959   9.395
 1980W        W 5724   5.405   6.190   8.717
 1981W        W 5725   6.644   4.956   0.393
 1982W        W 5726  10.249   4.542   2.112
 1983W        W 5727   8.342   1.347   0.743
 1984W        W 5728   0.062   6.674  11.566
 1985W        W 5729   8.231   4.146   0.736
 1986W        W 5730   2.623   4.494   9.228
 1987W        W 5731   4.595   2.628   9.318
 1988W        W 5732   1.798   5.656   1.684
 1989W        W 5733   4.288   7.967   1.942
 1990W        W 5734  10.463   4.572  11.940
 1991W        W 5735   3.648   5.419  11.813
 1992W        W 5736   1.714   3.798   9.835
 1993W        W 5737   2.944   0.739   0.656
 1994W        W 5738   6.005   1.601   9.790
 1995W        W 5739   0.449   4.284   8.730
 1996W        W 5740  10.421   2.323   9.049
 1997W        W 5741   4.537   3.615   8.103
 1998W        W 5742   9.489  10.353   0.768
 1999W        W 5743   9.293   8.803   1.880
 2000W        W 5744   8.773   5.299   3.319
 2001W        W 5745   8.966  10.330   2.761
 2002W        W 5746  10.184   7.877  10.827
 2003W        W 5747   9.716   9.152   8.416
 2004W        W 5748   0.510   6.984   2.425
 2005W        W 5749   3.084   7.661   1.886
 2006W        W 5750  10.274   5.849   2.648
 2007W        W 5751   2.345   9.934   2.450
 2008W        W 5752   4.635   7.631   9.771
 2009W        W 5753   7.834   4.623   9.888
 2010W        W 5754   5.079   5.176   1.910
 2011W        W 5755   0.519   6.399  11.032
 2012W        W 5756   6.774   3.144   3.137
 2013W        W 5757   2.129   2.556  11.473
 2014W        W 5758   5.460   6.900   0.945
 2015W        W 5759   2.458  10.372   3.135
 2016W        W 5760   8.481   3.564   0.992
 2017W        W 5761   5.996   6.982   9.964
 2018W        W 5762   3.739   3.076  11.982
 2019W        W 5763   0.237   0.052   9.125
 2020W        W 5764   6.567  10.117   1.906
 2021W        W 5765   0.897   9.851   9.051
 2022W        W 5766   5.993   4.180   8.872
 2023W        W 5767   2.123   9.857  11.506
 2024W        W 5768   6.588   9.513   1.095
 2025W        W 5769   8.750   6.457   0.318
 2026W        W 5770   1.271   3.405  10.409
 2027W        W 5771   8.076   0.024  10.987
 2028W        W 5772   0.842   8.634   0.070
 2029W        W 5773   1.412   5.352   8.940
 2030W        W 5774   6.634   8.577   0.781
 2031W        W 5775   3.137   8.034   8.549
 2032W        W 5776   3.437   3.117   2.260
 2033W        W 5777   0.724   5.180   1.754
 2034W        W 5778   0.997   9.477   1.391
 2035W        W 5779   8.819   5.552  11.293
 2036W        W 5780   2.260   0.783   1.421
 2037W        W 5781   3.303   1.735   8.748
 2038W        W 5782   2.334   4.645   2.151
 2039W        W 5783   1.684   6.656   9.363
 2040W        W 5784  10.345  10.339  11.391
 2041W        W 5785   0.302   1.798   1.377
 2042W        W 5786   0.305   2.290   3.826
 2043W        W 5787   5.315   8.593   8.439
 2044W        W 5788   8.579   0.806   1.039
 2045W        W 5789   2.017   0.360   3.069
 2046W        W 5790   9.850   5.190  11.375
 2047W        W 5791   6.672   4.449   2.781
 2048W        W 5792   5.202   0.993   0.179
 2049W        W 5793   1.938   2.362   3.204
 2050W        W 5794   0.264   6.117   1.777
 2051W        W 5795   2.345   6.090   9.292
 2052W        W 5796   3.550   9.635   3.673
 2053W        W 5797   3.188   4.565  10.040
 2054W        W 5798   1.790   2.277  10.839
 2055W        W 5799   9.252   5.434  11.567
 2056W        W 5800   0.006   1.264   3.138
 2057W        W 5801   8.636   3.607   2.908
 2058W        W 5802   4.526   6.685  10.351
 2059W        W 5803   6.978   3.240   0.171
 2060W        W 5804   4.252  10.288   9.169
 2061W        W 5805   3.094   1.185  11.492
 2062W        W 5806   2.151   6.991   0.492
 2063W        W 5807   7.505   2.615  11.346
 2064W        W 5808   6.117   3.985   9.732
 2065W        W 5809   6.998   8.714  11.881
 2066W        W 5810   4.636   3.649   3.455
 2067W        W 5811   2.721   5.244  10.303
 2068W        W 5812   8.479   7.177  10.960
 2069W        W 5813   3.821   3.587   0.068
 2070W        W 5814   5.176   3.524   3.249
 2071W        W 5815   0.148  10.039  10.006
 2072W        W 5816   1.665   5.176   2.730
 2073W        W 5817   1.945   1.713   8.876
 2074W        W 5818   4.303   7.048   9.175
 2075W        W 5819   9.920   9.976   1.853
 2076W        W 5820   7.007   2.220   2.201
 2077W        W 5821   5.696   6.812  10.872
 2078W        W 5822   2.051   4.836   0.037
 2079W        W 5823   7.897   1.657   2.460
 2080W        W 5824   5.965   5.535   1.481
 2081W        W 5825   1.122   4.535  11.466
 2082W        W 5826   2.735   5.606  11.757
 2083W        W 5827   2.756   8.473  11.198
 2084W        W 5828   7.077   1.746   1.956
 2085W        W 5829   1.368   1.163   1.183
 2086W        W 5830   4.251   2.338   3.512
 2087W        W 5831   0.519   7.789   9.534
 2088W        W 5832   2.968  10.004  11.840
 2089W        W 5833   1.338   0.910  11.055
 2090W        W 5834   5.619   4.643   9.629
 2091W        W 5835   7.940   3.629   2.426
 2092W        W 5836   8.949   5.362   0.971
 2093W        W 5837   7.941   2.167  11.925
 2094W        W 5838   0.789   6.001   3.378
 2095W        W 5839   3.876   7.105   2.705
 2096W        W 5840   3.616   4.174   8.582
 2097W        W 5841   8.897   2.669   9.231
 2098W        W 5842   7.736   2.846   0.834
 2099W        W 5843   4.708   4.023  11.902
 2100W        W 5844   0.872  10.132   9.505
 2101W        W 5845   8.778   7.896  10.633
 2102W        W 5846   5.230   2.315   3.147
 2103W        W 5847   1.898   3.164   3.447
 2104W        W 5848   3.310   9.665  10.896
 2105W        W 5849   8.623   0.919  11.830
 2106W        W 5850  10.423   4.661  10.822
 2107W        W 5851   7.100   7.968   2.644
 2108W        W 5852   4.209   9.393   3.294
 2109W        W 5853   2.413   3.150   3.387
 2110W        W 5854   7.669   1.299  11.003
 2111W        W 5855   9.409   3.100   1.799
 2112W        W 5856   7.459   6.961   3.222
 2113W        W 5857   5.463   9.394   2.005
 2114W        W 5858   4.764   0.782   0.296
 2115W        W 5859   6.075   6.065   1.552
 2116W        W 5860   5.584   4.091   8.231
 2117W        W 5861   7.621   1.526  10.021
 2118W        W 5862   3.305   7.210   1.722
 2119W        W 5863   0.326   2.842   0.280
 2120W        W 5864   4.686   1.451  10.784
 2121W        W 5865   2.229   6.571   2.828
 2122W        W 5866   1.195   7.974  10.962
 2123W        W 5867   7.446  10.060  10.266
 2124W        W 5868   8.143   0.493   0.999
 2125W        W 5869   8.421   4.058   8.706
 2126W        W 5870   7.050   3.855   3.327
 2127W        W 5871   1.637   9.722   0.342
 2128W        W 5872   8.365   8.470   9.050
 2129W        W 5873   1.402   9.366   1.697
 2130W        W 5874   1.630   4.142   1.642
 2131W        W 5875   7.509   8.079  10.574
 2132W        W 5876   9.026   6.644   1.149
 2133W        W 5877   1.419   1.400   3.642
 2134W        W 5878   2.799   2.180   0.885
 2135W        W 5879   8.936   6.168   1.323
 2136W        W 5880   1.271   3.806  10.090
 2137W        W 5881   0.360   0.496   2.923
 2138W        W 5882   0.443   8.778   9.563
 2139W        W 5883   7.975   0.667   3.318
 2140W        W 5884   9.113   0.788   9.900
 2141W        W 5885   8.090   2.857  10.230
 2142W        W 5886   1.116   6.331   3.640
 2143W        W 5887   8.491   1.892   9.626
 2144W        W 5888   9.468  10.472   2.914
 2145W        W 5889   7.047   2.389   0.206
 2146W        W 5890   8.820   0.218   2.377
 2147W        W 5891   1.832   8.740   0.428
 2148W        W 5892  10.345   8.960   2.708
 2149W        W 5893   1.002   5.318  11.248
 2150W        W 5894   3.168   2.812   9.872
 2151W        W 5895   0.802   1.765   3.028
 2152W        W 5896   7.438   7.415   0.301
 2153W        W 5897   9.987   4.703   2.885
 2154W        W 5898   4.696   3.730   0.409
 2155W        W 5899   9.922   1.232   0.785
 2156W        W 5900   9.284   0.283  11.411
 2157W        W 5901   1.321   9.881   9.472
 2158W        W 5902   2.909   4.825   8.554
 2159W        W 5903   9.088   6.691   0.640
 2160W        W 5904   8.972   8.410   3.099
 2161W        W 5905   8.077   3.535  11.793
 2162W        W 5906   6.812   9.005   0.242
 2163W        W 5907   6.121   9.531   1.381
 2164W        W 5908   7.938   6.021   2.399
 2165W        W 5909   7.749   7.626  11.987
 2166W        W 5910   4.389   2.784   3.240
 2167W        W 5911   4.122   5.014   0.920
 2168W        W 5912   3.374   9.964   1.474
 2169W        W 5913   7.701   9.284   9.046
 2170W        W 5914  10.309   8.443   2.602
 2171W        W 5915   5.263   1.460   0.003
 2172W        W 5916   7.057   0.403  10.438
 2173W        W 5917   2.591   2.060   1.615
 2174W        W 5918   4.466   2.757   0.604
 2175W        W 5919   1.352   6.853  11.950
 2176W        W 5920   2.651   1.190   2.833
 2177W        W 5921   4.224   4.813   2.342
 2178W        W 5922   0.012   4.712   1.710
 2179W        W 5923   7.210  10.244   2.852
 2180W        W 5924   4.623   8.945  10.619
 2181W        W 5925   9.291   5.744   1.733
 2182W        W 5926   8.464   2.331   0.327
 2183W        W 5927   3.417   9.139   2.908
 2184W        W 5928   3.112   2.758   2.100
 2185W        W 5929  10.370   2.603   3.082
 2186W        W 5930   5.078   9.793   2.012
 2187W        W 5931  10.270   9.695  10.012
 2188W        W 5932   5.589   9.296   0.266
 2189W        W 5933   1.765   8.694   2.651
 2190W        W 5934   6.997   2.827   0.460
 2191W        W 5935   9.871   8.582   9.538
 2192W        W 5936   5.609   9.986   2.741
 2193W        W 5937   7.055   4.935   9.091
 2194W        W 5938   1.802   6.687  11.734
 2195W        W 5939   8.085   5.040  10.035
 2196W        W 5940   2.605   8.053   9.951
 2197W        W 5941   0.329   6.879   1.362
 2198W        W 5942   5.055   4.934  11.013
 2199W        W 5943   8.585   1.463  11.858
 2200W        W 5944   5.873   9.897  11.450
 2201W        W 5945   8.212   7.795   1.828
 2202W        W 5946   9.663   1.352   2.152
 2203W        W 5947   8.324   0.763   0.214
 2204W        W 5948   7.078  10.162   0.752
 2205W        W 5949   9.194   5.097   3.138
 2206W        W 5950   7.024   9.873  10.528
 2207W        W 5951   2.766   0.696   2.841
 2208W        W 5952   9.970   9.376  11.307
 2209W        W 5953   4.147   0.506   0.686
 2210W        W 5954   5.112   7.083  11.517
 2211W        W 5955   8.020   2.294   9.016
 2212W        W 5956   9.784   1.807   0.504
 2213W        W 5957   4.400   7.056   8.649
 2214W        W 5958   8.521   0.089   2.842
 2215W        W 5959   8.131   7.332   2.179
 2216W        W 5960   4.645   2.588  10.256
 2217W        W 5961   2.827   1.760   1.285
 2218W        W 5962   0.339   1.761  11.561
 2219W        W 5963   1.574   2.784  10.795
 2220W        W 5964   4.133   5.270   2.579
 2221W        W 5965   4.118   4.383  10.365
 2222W        W 5966   4.176   8.360   9.572
 2223W        W 5967   2.042   1.508   8.430
 2224W        W 5968   6.014   2.445  11.516
 2225W        W 5969   9.046   3.827   1.727
 2226W        W 5970  10.336  10.444   0.691
 2227W        W 5971   8.384   5.198   0.266
 2228W        W 5972   8.443   7.428   2.738
 2229W        W 5973   7.623   2.735   2.776
 2230W        W 5974   5.618   8.480   1.908
 2231W        W 5975   3.739   9.361   1.026
 2232W        W 5976   0.702   2.577  11.005
 2233W        W 5977   6.181   9.867   1.012
 2234W        W 5978   6.050  10.339   1.189
 2235W        W 5979   8.330   8.550  10.604
 2236W        W 5980   2.417   1.237  10.940
 2237W        W 5981   8.296  10.292   1.319
 2238W        W 5982  10.109   7.486   0.927
 2239W        W 5983   7.117   5.119   1.632
 2240W        W 5984   8.546   3.736  10.547
 2241W        W 5985   6.919   7.422  11.205
 2242W        W 5986   1.026   5.691  11.656
 2243W        W 5987   7.471   4.303   1.155
 2244W        W 5988   3.094   3.243  10.526
 2245W        W 5989   8.390   8.794  11.839
 2246W        W 5990   2.503   2.787  10.620
 2247W        W 5991   9.901   6.059  11.484
 2248W        W 5992   1.003   7.107   9.106
 2249W        W 5993   5.682   1.796  11.502
 2250W        W 5994   6.493   7.106   3.205
 2251W        W 5995   8.418   7.903   3.559
 2252W        W 5996   1.866   5.604   0.760
 2253W        W 5997   2.808   6.565   3.630
 2254W        W 5998   9.474   0.373   3.238
 2255W        W 5999   3.683   4.766   1.828
 2256W        W 6000   8.425   0.978   1.947
 2257W        W 6001   3.223   6.113   3.234
 2258W        W 6002   1.169   2.258  10.066
 2259W        W 6003   4.314   9.903   1.490
 2260W        W 6004   3.286   5.661   0.886
 2261W        W 6005   5.441   0.852  10.085
 2262W        W 6006   6.345   4.975   9.380
 2263W        W 6007   3.616   5.370  11.096
 2264W        W 6008   0.256   5.094   3.363
 2265W        W 6009   2.347   6.059   1.904
 2266W        W 6010   3.103   8.101   9.930
 2267W        W 6011   7.976   3.308   9.435
 2268W        W 6012   7.390   4.047  11.331
 2269W        W 6013   2.343   6.482   0.846
 2270W        W 6014   4.441   4.614   9.552
 2271W        W 6015   8.444   7.686  10.974
 2272W        W 6016   5.721   1.196   2.344
 2273W        W 6017   9.195   0.292  10.060
 2274W        W 6018   9.958   6.951   0.290
 2275W        W 6019   6.283   6.188  11.394
 2276W        W 6020   5.474   5.860  11.284
 2277W        W 6021   5.041   6.972   9.805
 2278W        W 6022   2.847   7.485  11.975
 2279W        W 6023   8.061   4.521   1.915
 2280W        W 6024   8.966   6.035   9.441
 2281W        W 6025   7.186   1.701   1.472
 2282W        W 6026  10.304   9.902   2.239
 2283W        W 6027   5.555   7.075   9.664
 2284W        W 6028   1.411   7.531   9.799
 2285W        W 6029   6.597   6.200  11.806
 2286W        W 6030   7.169   9.252  11.311
 2287W        W 6031   5.259   7.899  11.850
 2288W        W 6032   2.902   1.064   0.274
 2289W        W 6033   3.398   0.377  11.739
 2290W        W 6034   4.926   4.398   9.522
 2291W        W 6035  10.173   1.470   2.219
 2292W        W 6036   9.378   8.110  11.099
 2293W        W 6037   8.048   0.285   2.506
 2294W        W 6038   1.574   3.345  10.006
 2295W        W 6039   1.525   8.270   0.526
 2296W        W 6040   7.058   3.085   2.193
 2297W        W 6041   0.074   4.018  10.124
 2298W        W 6042   9.222   1.365   2.531
 2299W        W 6043   6.478   2.433   1.916
 2300W        W 6044   0.271   6.460   0.406
 2301W        W 6045   1.228   6.861   3.428
 2302W        W 6046   1.960  10.436   0.760
 2303W        W 6047   2.803   6.417   8.576
 2304W        W 6048   0.455   2.279   8.982
 2305W        W 6049   7.992   4.193   2.674
 2306W        W 6050   7.024   8.904   9.091
 2307W        W 6051   1.170   5.100   1.545
 2308W        W 6052   9.608  10.329  10.870
 2309W        W 6053   8.379  10.464   2.308
 2310W        W 6054   1.587   5.186   0.861
 2311W        W 6055   9.517   0.896   3.037
 2312W        W 6056   0.814   3.327   2.753
 2313W        W 6057   2.777   8.527   1.361
 2314W        W 6058   0.073   2.182   3.381
 2315W        W 6059   1.266   3.195  10.864
 2316W        W 6060   0.305   2.358  10.764
 2317W        W 6061   3.590   4.129   0.887
 2318W        W 6062   5.070   8.403  11.051
 2319W        W 6063   0.446   1.823   9.822
 2320W        W 6064   0.876   0.912  11.279
 2321W        W 6065   1.994   7.048   9.303
 2322W        W 6066   5.211   6.641  10.788
 2323W        W 6067   0.893   6.332   1.390
 2324W        W 6068   2.240  10.206  10.755
 2325W        W 6069   7.384   5.738   3.559
 2326W        W 6070   6.251   2.880  11.708
 2327W        W 6071   3.376   7.095   9.541
 2328W        W 6072   8.094   8.134   0.780
 2329W        W 6073   3.743   6.878  11.913
 2330W        W 6074   1.371   9.316   0.133
 2331W        W 6075   5.477   6.070   1.129
 2332W        W 6076   3.669   7.161  10.570
 2333W        W 6077  10.101   6.569  11.349
 2334W        W 6078   7.479   3.273  10.198
 2335W        W 6079   6.663   3.711   0.633
 2336W        W 6080   7.091   4.545   1.576
 2337W        W 6081   0.533   1.884  10.726
 2338W        W 6082   3.789   8.699   3.503
 2339W        W 6083   9.696   2.781   9.078
 2340W        W 6084   5.581   7.956   0.233
 2341W        W 6085   9.290   9.868   9.957
 2342W        W 6086   7.186   2.720   8.620
 2343W        W 6087   5.240   7.607   3.101
 2344W        W 6088   3.729   3.767  11.535
 2345W        W 6089   5.578   1.735   9.539
 2346W        W 6090   8.711   1.300   2.518
 2347W        W 6091   7.978   3.674   0.795
 2348W        W 6092   9.124   2.677   2.843
 2349W        W 6093  10.063   7.086   3.460
 2350W        W 6094   8.892   5.718  11.818
 2351W        W 6095   4.203   3.797   9.608
 2352W        W 6096   7.488   5.084   8.822
 2353W        W 6097   0.472   4.593   0.092
 2354W        W 6098   3.224   5.421  10.241
 2355W        W 6099   3.273   1.237   0.757
 2356W        W 6100   1.693   9.804   9.829
 2357W        W 6101   6.124   1.266   8.980
 2358W        W 6102   1.663   9.678  10.334
 2359W        W 6103   0.477   2.119  11.209
 2360W        W 6104   1.518  10.372   1.796
 2361W        W 6105   7.173   5.040   1.147
 2362W        W 6106   7.356   3.165   2.805
 2363W        W 6107   6.478   4.518  11.600
 2364W        W 6108   0.721   1.253  10.951
 2365W        W 6109   4.330   2.735   1.406
 2366W        W 6110   5.570   8.949   1.670
 2367W        W 6111   6.515   0.044   9.632
 2368W        W 6112   3.175   3.662   3.514
 2369W        W 6113   2.306   9.445  11.778
 2370W        W 6114  10.295   9.132   8.950
 2371W        W 6115   4.641   3.724   1.422
 2372W        W 6116   2.042   9.509   8.525
 2373W        W 6117   9.083   4.588   0.604
 2374W        W 6118   8.076   6.611   9.747
 2375W        W 6119   2.809   3.947   1.479
 2376W        W 6120  10.129   5.657   9.415
 2377W        W 6121   2.960   8.576  10.164
 2378W        W 6122   3.649   7.966  11.826
 2379W        W 6123   6.828   5.516   1.769
 2380W        W 6124   3.820   8.331   2.151
 2381W        W 6125   0.270   1.320  10.734
 2382W        W 6126   3.274   1.292  10.073
 2383W        W 6127   8.799   8.229   8.396
 2384W        W 6128   5.278   3.018   2.562
 2385W        W 6129  10.342   9.170  10.095
 2386W        W 6130   2.079   2.851   8.840
 2387W        W 6131   2.651   5.018   2.367
 2388W        W 6132   8.929   9.810   1.259
 2389W        W 6133   3.168   6.137   0.998
 2390W        W 6134   8.746   0.450   0.119
 2391W        W 6135   1.223   8.157   2.722
 2392W        W 6136   4.589   1.609   9.911
 2393W        W 6137   6.594   2.238   0.362
 2394W        W 6138   3.040   4.098   9.411
 2395W        W 6139   8.984   9.309  10.787
 2396W        W 6140   8.602   4.604   9.386
 2397W        W 6141   4.497  10.448   0.289
 2398W        W 6142   0.166   9.782  10.487
 2399W        W 6143   7.902   4.741  10.760
 2400W        W 6144   1.443   9.117   2.157
 2401W        W 6145   5.938   7.626  10.401
 2402W        W 6146   5.093   8.155   3.644
 2403W        W 6147   0.786   3.559   2.285
 2404W        W 6148   9.846   6.171  10.445
 2405W        W 6149   5.991   8.687  11.883
 2406W        W 6150   3.346   6.836  10.379
 2407W        W 6151   4.660   2.637  11.761
 2408W        W 6152   4.243   1.762   8.757
 2409W        W 6153   3.765   7.591   3.999
 2410W        W 6154   8.918   7.524   2.581
 2411W        W 6155   7.754   0.366   8.393
 2412W        W 6156  10.035   9.441   1.186
 2413W        W 6157   1.634   4.534   3.638
 2414W        W 6158   8.553   9.374  10.070
 2415W        W 6159   5.319   4.795   2.153
 2416W        W 6160   8.855  10.437  11.361
 2417W        W 6161   2.955   0.222   3.615
 2418W        W 6162   7.591   2.690   9.548
 2419W        W 6163   5.549   8.306  11.751
 2420W        W 6164  10.423   7.895   3.296
 2421W        W 6165   6.521   0.469  11.956
 2422W        W 6166   2.368   6.843   9.614
 2423W        W 6167   2.878   8.082   9.369
 2424W        W 6168   8.423   4.218   1.238
 2425W        W 6169   5.574   5.145  10.361
 2426W        W 6170   9.950   1.881   9.939
 2427W        W 6171   4.753   3.670   2.462
 2428W        W 6172  10.114   8.393   0.283
 2429W        W 6173   5.082   9.240   0.219
 2430W        W 6174   4.681   1.219  10.318
 2431W        W 6175   0.672   2.285   9.963
 2432W        W 6176   2.232   4.783   9.069
 2433W        W 6177   8.877   9.533   1.727
 2434W        W 6178   7.243   6.483   9.892
 2435W        W 6179   0.397   4.314   0.532
 2436W        W 6180   9.215   5.745   1.222
 2437W        W 6181   2.796   9.392   3.011
 2438W        W 6182   2.717   7.830   0.685
 2439W        W 6183   2.557   0.313  11.302
 2440W        W 6184   6.153   4.736  11.259
 2441W        W 6185   2.904   0.284   9.253
 2442W        W 6186   0.939   0.492   8.420
 2443W        W 6187   9.880   3.730   1.254
 2444W        W 6188   4.950   3.994   4.112
 2445W        W 6189   7.164   7.718  10.856
 2446W        W 6190   8.876   6.070   8.915
 2447W        W 6191   1.646   4.209  10.765
 2448W        W 6192   7.073   4.600   9.514
 2449W        W 6193   0.762   1.435  10.003
 2450W        W 6194   8.881   0.277   0.900
 2451W        W 6195  10.408   7.167   8.967
 2452W        W 6196   2.135   1.844  10.775
 2453W        W 6197   3.714   0.977   9.098
 2454W        W 6198   2.330   8.696   9.470
 2455W        W 6199   4.143   1.340   1.845
 2456W        W 6200   7.600   8.122   3.530
 2457W        W 6201   6.906   0.791   9.540
 2458W        W 6202   1.852   1.398   2.031
 2459W        W 6203   7.466   8.435  11.659
 2460W        W 6204   2.713   2.117   2.891
 2461W        W 6205  10.460  10.039  10.942
 2462W        W 6206   3.185   8.018   3.544
 2463W        W 6207   7.988   0.730   2.783
 2464W        W 6208   2.329   7.669   3.004
 2465W        W 6209   2.604   2.340   2.431
 2466W        W 6210  10.393   3.721   0.013
 2467W        W 6211   6.489   6.981   1.842
 2468W        W 6212   6.105  10.476   1.724
 2469W        W 6213   3.888   0.059   8.935
 2470W        W 6214   3.760   0.534   9.335
 2471W        W 6215   7.171   7.834   0.878
 2472W        W 6216   5.069   3.571   9.881
 2473W        W 6217   8.107   9.305  10.352
 2474W        W 6218   1.774   0.871   1.273
 2475W        W 6219   1.889   2.100  10.373
 2476W        W 6220   6.678   2.888   0.860
 2477W        W 6221   4.607   8.559  11.899
 2478W        W 6222  10.013   9.556   8.565
 2479W        W 6223   6.268   8.834  11.450
 2480W        W 6224   0.405   4.188   1.025
 2481W        W 6225   6.052   6.303   3.413
 2482W        W 6226   8.359   8.039   8.793
 2483W        W 6227   4.201   7.666   0.818
 2484W        W 6228   5.225  10.164  11.913
 2485W        W 6229  10.167   8.526   1.191
 2486W        W 6230   5.124   2.531  10.004
 2487W        W 6231   3.201  10.448   1.275
 2488W        W 6232   5.007   6.004  11.880
 2489W        W 6233   7.553   8.830   8.772
 2490W        W 6234   8.942   3.191   9.052
 2491W        W 6235   0.855   7.477  10.290
 2492W        W 6236   0.373   1.598  10.304
 2493W        W 6237   0.900   8.967   1.422
 2494W        W 6238  10.089   8.119   9.450
 2495W        W 6239   7.161   2.890  11.080
 2496W        W 6240   2.905   0.226   1.579
 2497W        W 6241   2.499   7.241   9.297
 2498W        W 6242   3.859   8.074   1.665
 2499W        W 6243   5.449   4.275   3.150
 2500W        W 6244   9.938   2.453  11.669
 2501W        W 6245   3.383   0.286   1.738
 2502W        W 6246   7.577   3.798  10.433
 2503W        W 6247   4.250   3.871  11.281
 2504W        W 6248   0.040   5.930   2.212
 2505W        W 6249   0.659   6.582  10.284
 2506W        W 6250   7.902   2.324   2.808
 2507W        W 6251   9.392   3.137   1.285
 2508W        W 6252   3.733   1.285   0.996
 2509W        W 6253   4.601   7.984   3.616
 2510W        W 6254   1.209   5.310  10.300
 2511W        W 6255   5.722   9.899   1.300
 2512W        W 6256   0.725   7.440   2.238
 2513W        W 6257   7.932  10.029  11.046
 2514W        W 6258   9.424   7.647  10.175
 2515W        W 6259   5.685   4.482   9.150
 2516W        W 6260   8.045   1.786   1.965
 2517W        W 6261   7.825   7.059   0.869
 2518W        W 6262   8.028   0.244   3.005
 2519W        W 6263   9.360   2.824   0.465
 2520W        W 6264   2.133   7.444   1.721
 2521W        W 6265   4.151   8.628   0.859
 2522W        W 6266   8.908   5.964  10.959
 2523W        W 6267   9.619   9.985   3.660
 2524W        W 6268   9.960   4.467   1.691
 2525W        W 6269   2.382   5.325   1.474
 2526W        W 6270  10.055   4.879  11.802
 2527W        W 6271   8.133   2.426   1.442
 2528W        W 6272   9.137   3.689   9.155
 2529W        W 6273   6.272   2.876   1.170
 2530W        W 6274  10.290   1.286   9.984
 2531W        W 6275  10.432   2.426   1.927
 2532W        W 6276   6.487   2.772   2.768
 2533W        W 6277   8.314   7.155   9.128
 2534W        W 6278   9.920  10.234   2.752
 2535W        W 6279   0.831   6.795   1.163
 2536W        W 6280   3.249   0.221  10.031
 2537W        W 6281   2.242   2.683   3.483
 2538W        W 6282   4.069   5.278   0.471
 2539W        W 6283   6.211   6.924   9.072
 2540W        W 6284   2.871   4.165   9.884
 2541W        W 6285   3.192   9.689   9.903
 2542W        W 6286   5.954   6.622  11.301
 2543W        W 6287   8.156   4.035  11.824
 2544W        W 6288   7.225   5.574   1.198
 2545W        W 6289   0.926   9.143   9.430
 2546W        W 6290   5.230   0.271   1.936
 2547W        W 6291   6.228   1.230  10.040
 2548W        W 6292   7.855   5.445   1.772
 2549W        W 6293   7.413   8.090   3.056
 2550W        W 6294   5.463   7.828   3.757
 2551W        W 6295   7.041   6.064   0.043
 2552W        W 6296   1.897   4.263   9.853
 2553W        W 6297   5.006   2.927   8.546
 2554W        W 6298   3.174   3.487   3.031
 2555W        W 6299   9.295   9.280   3.366
 2556W        W 6300   6.251   5.001   2.167
 2557W        W 6301   4.500   7.712  11.468
 2558W        W 6302   9.010   4.503  11.041
 2559W        W 6303   8.572   9.295  11.123
 2560W        W 6304   5.971   3.506   9.868
 2561W        W 6305  10.369   0.281   3.354
 2562W        W 6306   3.576   2.241   8.735
 2563W        W 6307   8.142   9.332  11.509
 2564W        W 6308   4.730   8.374   0.403
 2565W        W 6309   8.915   1.428   1.504
 2566W        W 6310   6.933   0.823  10.943
 2567W        W 6311   4.599   6.655   9.083
 2568W        W 6312   9.113   3.440   2.070
 2569W        W 6313   8.453   7.412   0.347
 2570W        W 6314   4.687   9.050  10.109
 2571W        W 6315   1.694   6.462   3.477
 2572W        W 6316   5.197   1.350   2.503
 2573W        W 6317   3.618   8.388  10.885
 2574W        W 6318   5.616   1.702   0.548
 2575W        W 6319   3.829   7.484   9.774
 2576W        W 6320   5.665   5.137   1.317
 2577W        W 6321   9.406   7.920   2.067
 2578W        W 6322   7.201   1.370   9.760
 2579W        W 6323   8.518   6.709  10.003
 2580W        W 6324   9.880   9.700   2.740
 2581W        W 6325   4.061   1.529  11.562
 2582W        W 6326   0.759   6.091   9.878
 2583W        W 6327   1.374   8.494  11.095
 2584W        W 6328   3.311   1.458  10.584
 2585W        W 6329  10.471   0.017   9.718
 2586W        W 6330   2.621   4.896   3.618
 2587W        W 6331   5.757   0.776  10.505
 2588W        W 6332   0.768   4.325   1.754
 2589W        W 6333   6.000   7.314   9.562
 2590W        W 6334   0.847   4.667   8.670
 2591W        W 6335   4.594   8.469  11.367
 2592W        W 6336   2.223   3.202  10.704
 2593W        W 6337   6.670   8.394   1.842
 2594W        W 6338   0.377   5.719   9.988
 2595W        W 6339   9.642   5.365   0.442
 2596W        W 6340   9.796   3.067   0.067
 2597W        W 6341   4.317   9.515  11.843
 2598W        W 6342   1.716   3.658  10.394
 2599W        W 6343   0.448   0.480   0.352
 2600W        W 6344   1.756   5.697   8.728
 2601W        W 6345  10.208   2.821  11.944
 2602W        W 6346   5.805   2.495   9.957
 2603W        W 6347   6.584   2.941   1.915
 2604W        W 6348   6.481   3.922  10.331
 2605W        W 6349   7.467   2.276   8.777
 2606W        W 6350   6.504  10.405  10.126
 2607W        W 6351   2.234   9.644   9.260
 2608W        W 6352   4.707   6.423   1.330
 2609W        W 6353   3.600  10.417  10.298
 2610W        W 6354   2.938   5.672   3.122
 2611W        W 6355   6.345  10.272   3.273
 2612W        W 6356   9.401   3.095   2.811
 2613W        W 6357   8.055   1.801   8.819
 2614W        W 6358   8.960   9.517   9.802
 2615W        W 6359   9.456   2.186   1.747
 2616W        W 6360   8.447   0.231   8.842
 2617W        W 6361   5.375   9.563   9.821
 2618W        W 6362   6.975   2.161   3.248
 2619W        W 6363   7.888   3.877  11.360
 2620W        W 6364   1.136   1.399  11.208
 2621W        W 6365   7.092   5.028  11.812
 2622W        W 6366   8.305   7.105   1.236
 2623W        W 6367   4.234   6.551   1.091
 2624W        W 6368   2.730   9.894  10.021
 2625W        W 6369   5.457   7.608   1.581
 2626W        W 6370   7.108   5.726  10.223
 2627W        W 6371   8.417   0.742   8.752
 2628W        W 6372   7.256   9.307   9.281
 2629W        W 6373   6.059   1.987  11.220
 2630W        W 6374   7.329   5.203  10.251
 2631W        W 6375   2.038   9.924   0.653
 2632W        W 6376   9.953   9.312  11.853
 2633W        W 6377   4.583   0.678  10.656
 2634W        W 6378   9.852   9.471  10.795
 2635W        W 6379   9.493   1.785   2.421
 2636W        W 6380   9.514   0.421   9.130
 2637W        W 6381   5.204   1.942  10.269
 2638W        W 6382   2.787   9.307   2.498
 2639W        W 6383   1.149   0.987   0.744
 2640W        W 6384   5.942   3.025   9.015
 2641W        W 6385   6.514  10.175  11.584
 2642W        W 6386   6.975   8.520  10.698
 2643W        W 6387   0.347   2.680  10.047
 2644W        W 6388   2.444   9.545   0.612
 2645W        W 6389   0.518   7.408  10.976
 2646W        W 6390   3.772   0.440   2.500
 2647W        W 6391   5.230   5.051  11.863
 2648W        W 6392   3.709   6.703   9.686
 2649W        W 6393   9.769   6.625   9.489
 2650W        W 6394   0.019   3.392   0.803
 2651W        W 6395   9.466   9.846  10.746
 2652W        W 6396   2.221  10.441  10.271
 2653W        W 6397   0.206   3.344  11.019
 2654W        W 6398   6.129   1.101   2.742
 2655W        W 6399   2.827   6.059   1.438
 2656W        W 6400   5.664   0.057   0.885
 2657W        W 6401   8.924   4.729   2.904
 2658W        W 6402   8.494   4.147   2.835
 2659W        W 6403   3.636   7.088  10.036
 2660W        W 6404   5.241   6.493   9.860
 2661W        W 6405   6.177   7.723   0.068
 2662W        W 6406   7.550   3.929   2.555
 2663W        W 6407   6.081   1.480   0.514
 2664W        W 6408   4.608   8.369   2.130
 2665W        W 6409   7.051   4.827   2.036
 2666W        W 6410   8.018   7.585   3.622
 2667W        W 6411   8.517   3.388   0.495
 2668W        W 6412   5.541   6.479  10.453
 2669W        W 6413   6.346   8.180   8.678
 2670W        W 6414   9.287   4.275   1.859
 2671W        W 6415   4.491   3.228   1.410
 2672W        W 6416   4.218   8.055  10.781
 2673W        W 6417   9.436   6.727   3.031
 2674W        W 6418   1.480   1.937   0.747
 2675W        W 6419   9.738   9.065   1.829
 2676W        W 6420   6.782   8.306   8.421
 2677W        W 6421  10.306   2.750  11.445
 2678W        W 6422   1.838   0.375   0.502
 2679W        W 6423   8.865   5.498   1.903
 2680W        W 6424   0.260   1.308  11.768
 2681W        W 6425   1.626   4.238   2.691
 2682W        W 6426   8.478   4.576   1.644
 2683W        W 6427   6.677   4.459  10.553
 2684W        W 6428   6.676   3.142  11.540
 2685W        W 6429   7.659   0.469   1.224
 2686W        W 6430   9.887   9.109  10.423
 2687W        W 6431  10.347   2.584  10.970
 2688W        W 6432   4.492   5.595   0.377
 2689W        W 6433   1.426   6.027   1.655
 2690W        W 6434   2.220   1.310   0.685
 2691W        W 6435   3.747   1.874   9.544
 2692W        W 6436   9.683   1.886   2.919
 2693W        W 6437   8.399   5.700  11.569
 2694W        W 6438   9.815   1.710   8.863
 2695W        W 6439   0.289   5.106   8.794
 2696W        W 6440   0.305   4.918  10.572
 2697W        W 6441   5.877   7.551   3.881
 2698W        W 6442   8.493   7.572   1.351
 2699W        W 6443   9.254   8.101   9.744
 2700W        W 6444   1.085   7.655   2.636
 2701W        W 6445   4.218   8.913   1.703
 2702W        W 6446   8.850   0.506   1.935
 2703W        W 6447   0.828   9.486  10.011
 2704W        W 6448   4.994   3.999   3.231
 2705W        W 6449   7.455   5.547  11.480
 2706W        W 6450   1.161   4.317  10.357
 2707W        W 6451   2.323   2.699  11.948
 2708W        W 6452   4.525   6.549   0.301
 2709W        W 6453   0.366   9.785   1.257
 2710W        W 6454   2.250   7.220   3.232
 2711W        W 6455   9.736   6.470  11.718
 2712W        W 6456   7.905   8.447   9.269
 2713W        W 6457   7.506   4.755   2.270
 2714W        W 6458   4.366   4.192   9.915
 2715W        W 6459   5.814   9.308   9.623
 2716W        W 6460   8.623   9.369  11.624
 2717W        W 6461   3.101   1.515   0.347
 2718W        W 6462   9.451   6.219  11.253
 2719W        W 6463   9.185   0.701   9.407
 2720W        W 6464   8.386   3.313  10.264
 2721W        W 6465   1.840   0.667  10.340
 2722W        W 6466   3.502   6.924   0.718
 2723W        W 6467   1.393   5.613  11.986
 2724W        W 6468   8.835   7.134   0.635
 2725W        W 6469   0.371   0.226  10.408
 2726W        W 6470   8.614   4.787  11.859
 2727W        W 6471   2.691   9.800   1.746
 2728W        W 6472   7.881   5.272   8.486
 2729W        W 6473  10.332   5.257  11.604
 2730W        W 6474   7.362   6.932   9.167
 2731W        W 6475   2.111  10.301   2.157
 2732W        W 6476   8.570   7.817  10.135
 2733W        W 6477   1.929   6.196   1.599
 2734W        W 6478   6.381   0.672   2.710
 2735W        W 6479   3.207   9.553   2.672
 2736W        W 6480   5.831   4.538   0.864
 2737W        W 6481   0.411  10.378   0.245
 2738W        W 6482   6.193   1.638   1.868
 2739W        W 6483   1.846   8.567   9.301
 2740W        W 6484   6.583  10.314  11.111
 2741W        W 6485   9.261   2.357   0.864
 2742W        W 6486   3.202   0.964  10.466
 2743W        W 6487   1.523   1.017   2.114
 2744W        W 6488   8.725   8.169   9.793
 2745W        W 6489   6.118   4.280  10.996
 2746W        W 6490   3.791   7.670  11.443
 2747W        W 6491   0.481   1.859   0.050
 2748W        W 6492   8.015   3.166   8.899
 2749W        W 6493   7.027   9.174   1.016
 2750W        W 6494   7.556   0.494   2.948
 2751W        W 6495  10.468   4.657   9.991
 2752W        W 6496   9.415   9.381   9.967
 2753W        W 6497   7.470   0.148  11.315
 2754W        W 6498   7.833   6.978   1.396
 2755W        W 6499  10.319   1.211  10.959
 2756W        W 6500   5.169   1.326  10.514
 2757W        W 6501   3.048  10.253   9.150
 2758W        W 6502   0.952   7.007   8.579
 2759W        W 6503   7.083   8.833   0.631
 2760W        W 6504   2.295   8.843   1.533
 2761W        W 6505  10.365   6.033   3.521
 2762W        W 6506   0.372   0.917   0.089
 2763W        W 6507  10.349   4.142  10.581
 2764W        W 6508   8.591   2.614   1.192
 2765W        W 6509   8.404   0.219   9.725
 2766W        W 6510   0.656   7.347   9.357
 2767W        W 6511   8.362   5.538   1.743
 2768W        W 6512   8.757   4.166   9.071
 2769W        W 6513   0.828   3.696   9.341
 2770W        W 6514   6.171   4.427   2.136
 2771W        W 6515   8.381   6.540  11.471
 2772W        W 6516   2.576   4.764  11.263
 2773W        W 6517   9.935   6.940   1.883
 2774W        W 6518   8.285   9.620   0.400
 2775W        W 6519   3.419   3.227  10.106
 2776W        W 6520   0.077   5.993   1.300
 2777W        W 6521   2.017   8.261   0.387
 2778W        W 6522  10.420   6.441   1.523
 2779W        W 6523   6.840   5.308  10.152
 2780W        W 6524   2.661   5.988   0.959
 2781W        W 6525   7.488   5.895  10.797
 2782W        W 6526   6.154  10.001   1.554
 2783W        W 6527   9.168   1.792   2.826
 2784W        W 6528   8.592   5.072   1.753
 2785W        W 6529   0.218   8.553   2.888
 2786W        W 6530   8.346   9.729  11.283
 2787W        W 6531   5.712   7.089   9.158
 2788W        W 6532   7.227   1.855   9.992
 2789W        W 6533   6.153   8.644  10.520
 2790W        W 6534   1.823   5.969   3.546
 2791W        W 6535   5.942   4.103   3.122
 2792W        W 6536   7.015   0.700   0.725
 2793W        W 6537   2.512   8.273   0.543
 2794W        W 6538   9.769   5.925   1.836
 2795W        W 6539   8.354   8.981   3.533
 2796W        W 6540   8.541   2.857  10.488
 2797W        W 6541   3.309   3.285   8.586
 2798W        W 6542   3.118   2.248  11.117
 2799W        W 6543   9.054   1.240   8.735
 2800W        W 6544   8.897   7.014   1.894
 2801W        W 6545   0.217   3.093  10.397
 2802W        W 6546  10.411   8.223   2.137
 2803W        W 6547   2.206   6.416  11.589
 2804W        W 6548  10.447   6.050   9.428
 2805W        W 6549   3.087   2.378   0.125
 2806W        W 6550   3.885   3.329   0.518
 2807W        W 6551   5.569   3.326  11.622
 2808W        W 6552   8.561   8.576   2.826
 2809W        W 6553   8.783  10.336   8.945
 2810W        W 6554   1.927   8.056   1.754
 2811W        W 6555   5.269   9.566   3.404
 2812W        W 6556   3.877   2.330   9.796
 2813W        W 6557   4.540   7.940   0.577
 2814W        W 6558   8.157   1.718  10.343
 2815W        W 6559   9.855   0.521  10.330
 2816W        W 6560   9.877   0.963  10.063
 2817W        W 6561   6.021   2.767   8.397
 2818W        W 6562   7.960   8.879   1.219
 2819W        W 6563   1.243   4.277   3.484
 2820W        W 6564   6.052   0.019   0.228
 2821W        W 6565   9.970   7.445  10.087
 2822W        W 6566   1.153   8.971   0.994
 2823W        W 6567   8.336   0.031   0.826
 2824W        W 6568   3.146   5.252   1.484
 2825W        W 6569   1.888   3.721   1.789
 2826W        W 6570   8.450   6.081   1.694
 2827W        W 6571   0.018   0.199   0.280
 2828W        W 6572   0.183   1.148   8.512
 2829W        W 6573   7.622   1.080  10.358
 2830W        W 6574   7.834   6.199   1.017
 2831W        W 6575   4.084   9.016   1.223
 2832W        W 6576  10.084   2.644   0.838
 2833W        W 6577   9.491   8.913   0.483
 2834W        W 6578   1.046   5.199   9.394
 2835W        W 6579   5.963   8.810   9.841
 2836W        W 6580   9.404   2.331   0.374
 2837W        W 6581   8.018   6.158   8.797
 2838W        W 6582   7.196   5.487  10.651
 2839W        W 6583   8.352   5.433   3.557
 2840W        W 6584   0.314   9.957  11.921
 2841W        W 6585   9.341   5.363   9.683
 2842W        W 6586   3.294   1.315   9.046
 2843W        W 6587   1.023   4.791   1.973
 2844W        W 6588   8.559   6.196   3.180
 2845W        W 6589   9.416   6.298   9.299
 2846W        W 6590   6.949  10.449   0.298
 2847W        W 6591   0.008   0.770   2.308
 2848W        W 6592   6.687   7.840  11.898
 2849W        W 6593   5.297   1.433  11.507
 2850W        W 6594   6.210   8.902   2.954
 2851W        W 6595   1.394   0.967  10.022
 2852W        W 6596   7.931   2.151   2.333
 2853W        W 6597   1.014   5.860   0.319
 2854W        W 6598   8.681   0.043   0.464
 2855W        W 6599   4.645   8.924   9.610
 2856W        W 6600   5.549   3.227   0.170
 2857W        W 6601   1.849   6.758  11.219
 2858W        W 6602   4.140   6.373   0.598
 2859W        W 6603   3.454  10.044  11.997
 2860W        W 6604   2.607   4.112  10.401
 2861W        W 6605   5.256   8.677   3.771
 2862W        W 6606   0.505   8.928   2.079
 2863W        W 6607   1.319   2.026  11.853
 2864W        W 6608   0.410   7.170   2.890
 2865W        W 6609   3.215   1.816   9.849
 2866W        W 6610   7.258   0.376   9.975
 2867W        W 6611   4.740   3.135  10.257
 2868W        W 6612   4.547   9.419   9.573
 2869W        W 6613   8.475   4.441   3.615
 2870W        W 6614   8.591   3.865   0.044
 2871W        W 6615   9.331   1.839   3.336
 2872W        W 6616   3.044   2.661   1.082
 2873W        W 6617   1.281  10.358   9.248
 2874W        W 6618   6.637   5.661   0.925
 2875W        W 6619   4.422   5.831  11.401
 2876W        W 6620   7.957   8.166  10.824
 2877W        W 6621   1.400   4.749  11.844
 2878W        W 6622   1.863   9.917   1.121
 2879W        W 6623   3.009   9.163  11.869
 2880W        W 6624   8.802   9.514   0.283
 2881W        W 6625   4.179   7.417  10.133
 2882W        W 6626   8.499   1.321  10.454
 2883W        W 6627   3.032   0.067   2.078
 2884W        W 6628   0.425   7.109   1.929
 2885W        W 6629   9.252   9.304   1.986
 2886W        W 6630   7.400   0.090   1.461
 2887W        W 6631   1.116   8.268   1.920
 2888W        W 6632   5.053   8.723   9.307
 2889W        W 6633   4.592   9.094  11.985
 2890W        W 6634   1.493   9.321   1.152
 2891W        W 6635   2.761   9.486   9.245
 2892W        W 6636   5.931   7.984   8.923
 2893W        W 6637   7.859   9.763  10.420
 2894W        W 6638   6.187   4.225   0.703
 2895W        W 6639   3.329   0.452  10.477
 2896W        W 6640   8.288   2.324   1.981
 2897W        W 6641   4.629   2.652   1.894
 2898W        W 6642  10.162   5.218   0.505
 2899W        W 6643   6.749   1.664  10.555
 2900W        W 6644   2.118   2.171   1.441
 2901W        W 6645   8.349   6.942  11.801
 2902W        W 6646   6.914   6.598  10.298
 2903W        W 6647   8.063   5.217  10.947
 2904W        W 6648   8.767   5.720   1.471
 2905W        W 6649   4.019   4.658  11.642
 2906W        W 6650   6.016   5.301   9.623
 2907W        W 6651   9.871   4.189  11.402
 2908W        W 6652   4.309   3.086   9.978
 2909W        W 6653   1.590   4.564  11.149
 2910W        W 6654   2.413   4.309   3.336
 2911W        W 6655   7.121   6.915  11.219
 2912W        W 6656   5.676   4.211   2.676
 2913W        W 6657   2.825   9.321   0.874
 2914W        W 6658   3.039   4.736   1.159
 2915W        W 6659  10.319   3.478   1.277
 2916W        W 6660   4.871   8.653   2.515
 2917W        W 6661   5.202   0.488   0.262
 2918W        W 6662   8.189   3.725   8.013
 2919W        W 6663   7.925   6.881   3.491
 2920W        W 6664   2.722   9.446   9.749
 2921W        W 6665  10.177   5.970  10.758
 2922W        W 6666   9.807   5.582   2.637
 2923W        W 6667   5.121   7.537   9.559
 2924W        W 6668   3.578   4.007   9.390
 2925W        W 6669   1.116   0.110  11.710
 2926W        W 6670   1.676  10.243   0.377
 2927W        W 6671  10.473   7.392  10.073
 2928W        W 6672   7.672   6.520   9.048
 2929W        W 6673   8.307   5.820   1.273
 2930W        W 6674   4.590   6.284  11.862
 2931W        W 6675   3.395   4.538  11.094
 2932W        W 6676   9.997   1.337   9.168
 2933W        W 6677   0.198   5.266  10.221
 2934W        W 6678   0.979   1.617  10.703
 2935W        W 6679   1.682   7.415   1.960
 2936W        W 6680   0.219   0.394  10.873
 2937W        W 6681   7.021   4.869   0.706
 2938W        W 6682   6.831   8.914   1.873
 2939W        W 6683   4.562   8.538   9.274
 2940W        W 6684   7.532   4.767   1.390
 2941W        W 6685   4.192   8.302   0.477
 2942W        W 6686   5.128   3.213  11.871
 2943W        W 6687   4.693   5.962   1.741
 2944W        W 6688   8.631   8.092   9.273
 2945W        W 6689   0.186   4.461  10.408
 2946W        W 6690   6.380   2.041  10.527
 2947W        W 6691   0.237   7.991   0.744
 2948W        W 6692   9.814   0.371  11.300
 2949W        W 6693   8.472   7.457  10.509
 2950W        W 6694   1.188   5.198  11.760
 2951W        W 6695   6.563   3.756   2.313
 2952W        W 6696   5.197   7.411   2.645
 2953W        W 6697   3.861   1.267  11.956
 2954W        W 6698   2.518   6.653   0.394
 2955W        W 6699   5.545   8.072   2.222
 2956W        W 6700   5.102   8.362   0.022
 2957W        W 6701   0.485   1.420   3.230
 2958W        W 6702   6.276   2.128  10.027
 2959W        W 6703   8.114   5.519   2.224
 2960W        W 6704   4.262   4.810   0.365
 2961W        W 6705   1.281   2.812   1.933
 2962W        W 6706   0.235   4.265   3.331
 2963W        W 6707   5.274   3.509  11.214
 2964W        W 6708   1.973   8.253  10.620
 2965W        W 6709   5.703   2.109  10.280
 2966W        W 6710   9.037   1.211   9.266
 2967W        W 6711   9.282   7.901  10.643
 2968W        W 6712   7.792   6.024   3.664
 2969W        W 6713   4.216   2.098  10.225
 2970W        W 6714   0.598   8.539   1.294
 2971W        W 6715   8.534   5.093   0.779
 2972W        W 6716   8.835   1.969   8.318
 2973W        W 6717   4.072   3.235  10.787
 2974W        W 6718   4.172   6.106  10.153
 2975W        W 6719   2.242   7.892   8.798
 2976W        W 6720   0.431   4.669   3.600
 2977W        W 6721   1.641   9.497   2.458
 2978W        W 6722   3.748   1.399   9.853
 2979W        W 6723   9.751   8.464   3.322
 2980W        W 6724   0.913   3.207   9.489
 2981W        W 6725   7.037   4.064   1.305
 2982W        W 6726   0.722   2.789   9.207
 2983W        W 6727   5.174   4.064   2.757
 2984W        W 6728   2.995   6.915   0.670
 2985W        W 6729   4.008   6.860   0.729
 2986W        W 6730   9.089   4.639   9.334
 2987W        W 6731   3.783   5.743   9.468
 2988W        W 6732   5.520   4.308   8.693
 2989W        W 6733   7.873   2.639   3.227
 2990W        W 6734   1.713   1.667  10.545
 2991W        W 6735   3.684   7.146  11.455
 2992W        W 6736   8.706   2.359   3.517
 2993W        W 6737   6.981   0.469  11.363
 2994W        W 6738   2.413   8.374  10.392
 2995W        W 6739   1.656   3.553   0.304
 2996W        W 6740   3.173   6.453   8.948
 2997W        W 6741  10.355   4.179  11.221
 2998W        W 6742   5.220   2.316   3.703
 2999W        W 6743   4.270   3.357   3.193
 3000W        W 6744   3.600   5.915  11.827
 3001W        W 6745   9.463   4.137   0.808
 3002W        W 6746   6.202   5.725   0.545
 3003W        W 6747   0.950   3.302  11.800
 3004W        W 6748   2.718   4.959   1.496
 3005W        W 6749   0.896   7.091  11.104
 3006W        W 6750   3.242   5.921  10.112
 3007W        W 6751   8.559   1.840   1.924
 3008W        W 6752   6.627   9.815   1.500
 3009W        W 6753   7.040  10.409   9.925
 3010W        W 6754   5.012   9.352  11.730
 3011W        W 6755   4.248   7.041   1.973
 3012W        W 6756   7.830   9.641   0.783
 3013W        W 6757   7.098   8.561   8.716
 3014W        W 6758  10.043   5.717   0.402
 3015W        W 6759  10.070   3.495   8.422
 3016W        W 6760   1.303   3.352   3.149
 3017W        W 6761   4.254   6.167   1.472
 3018W        W 6762   4.739   7.486   0.486
 3019W        W 6763   0.981   5.592   9.016
 3020W        W 6764   5.689   0.395  10.981
 3021W        W 6765   5.536   0.992  11.809
 3022W        W 6766   8.016   8.888   9.024
 3023W        W 6767   6.031  10.315   8.969
 3024W        W 6768   1.446   0.230   0.199
 3025W        W 6769   9.767   1.379   1.268
 3026W        W 6770   8.555   5.234   2.264
 3027W        W 6771   2.761   6.056   3.435
 3028W        W 6772   4.659   3.129   9.231
 3029W        W 6773   9.908   5.248   1.261
 3030W        W 6774   5.196   0.282   0.746
 3031W        W 6775   2.836   1.805   9.005
 3032W        W 6776   5.193   5.551  10.977
 3033W        W 6777   2.637   3.145   2.659
 3034W        W 6778   9.698   2.209   3.346
 3035W        W 6779   8.949   6.501   9.224
 3036W        W 6780   1.008   9.556   0.387
 3037W        W 6781   6.461   9.976   0.118
 3038W        W 6782   4.497   4.487  11.688
 3039W        W 6783   1.773   5.895   1.224
 3040W        W 6784   6.009   8.865   9.333
 3041W        W 6785   7.622   9.581   9.498
 3042W        W 6786   3.747   6.993   1.182
 3043W        W 6787   7.021   4.050   0.778
 3044W        W 6788   8.044   5.035   2.078
 3045W        W 6789   8.454   0.288  10.449
 3046W        W 6790   6.544   4.046  10.834
 3047W        W 6791   4.602   0.860   8.602
 3048W        W 6792   8.921   1.791  11.662
 3049W        W 6793  10.211   7.454   3.109
 3050W        W 6794   3.208   4.940   3.159
 3051W        W 6795   5.940   3.601   3.291
 3052W        W 6796   1.495   7.580  10.809
 3053W        W 6797   0.441   2.250  11.706
 3054W        W 6798   4.699   9.609   1.339
 3055W        W 6799   8.066   3.407  11.309
 3056W        W 6800   5.177   7.482   9.026
 3057W        W 6801   2.194  10.320   1.205
 3058W        W 6802   1.934   5.152   1.734
 3059W        W 6803   9.079   5.019  10.946
 3060W        W 6804   4.631   2.524   1.028
 3061W        W 6805   1.907   3.171  11.517
 3062W        W 6806   3.790   6.253  11.486
 3063W        W 6807  10.350   1.762   9.633
 3064W        W 6808   1.276   3.885  10.607
 3065W        W 6809   9.453   5.522  10.149
 3066W        W 6810  10.005   5.647   3.195
 3067W        W 6811   6.628   6.153   2.291
 3068W        W 6812   3.789   7.110   8.869
 3069W        W 6813   3.118   6.384  11.327
 3070W        W 6814   1.836   5.034   8.877
 3071W        W 6815   2.590   3.708  10.088
 3072W        W 6816   7.894   9.909   8.718
 3073W        W 6817   4.286   8.428  10.429
 3074W        W 6818   0.707   7.878  10.949
 3075W        W 6819  10.477   6.961   9.803
 3076W        W 6820   4.190   9.413   1.587
 3077W        W 6821   2.041   0.278  11.390
 3078W        W 6822   8.161   2.891   1.207
 3079W        W 6823   2.040   8.531   1.822
 3080W        W 6824   1.178   1.316  10.327
 3081W        W 6825   7.460   6.640   2.481
 3082W        W 6826   7.489   0.865   8.517
 3083W        W 6827   6.745   1.788   1.261
 3084W        W 6828   0.207   7.007   9.348
 3085W        W 6829   2.792   1.256   9.307
 3086W        W 6830   7.489   4.088   0.259
 3087W        W 6831   2.578   2.796   8.955
 3088W        W 6832   4.351   0.857   3.262
 3089W        W 6833   7.484   5.521   0.361
 3090W        W 6834   3.332   7.505   9.873
 3091W        W 6835   4.851   0.357   8.640
 3092W        W 6836   0.504   9.489   9.179
 3093W        W 6837   3.544   8.657  11.308
 3094W        W 6838   6.498   0.023   0.977
 3095W        W 6839  10.252   5.167   9.274
 3096W        W 6840   2.573   1.440   0.349
 3097W        W 6841   7.230   7.470   9.922
 3098W        W 6842   3.832   6.587   2.687
 3099W        W 6843   3.333   1.769   1.263
 3100W        W 6844   7.503   0.156   0.319
 3101W        W 6845   6.460   5.518   9.469
 3102W        W 6846   9.152   5.864   2.246
 3103W        W 6847   4.512   9.910   3.209
 3104W        W 6848   5.933   7.579  11.308
 3105W        W 6849   6.704   3.436  10.276
 3106W        W 6850   9.692   1.192   3.441
 3107W        W 6851   6.743   2.776  11.943
 3108W        W 6852   3.141   6.107  10.906
 3109W        W 6853   7.451   0.101   9.332
 3110W        W 6854   1.943   4.470   2.393
 3111W        W 6855   5.720   5.605   9.954
 3112W        W 6856   6.495   6.369   2.733
 3113W        W 6857   3.450   0.072   9.243
 3114W        W 6858   8.522   9.043   3.046
 3115W        W 6859   0.748   0.510   3.734
 3116W        W 6860   9.449   4.673   8.980
 3117W        W 6861   3.941   2.984   3.133
 3118W        W 6862   2.224   9.066   0.758
 3119W        W 6863   2.295   1.982   9.124
 3120W        W 6864   2.886   9.507  10.642
 3121W        W 6865   1.389   9.934   8.966
 3122W        W 6866   9.042   7.494   2.083
 3123W        W 6867   7.455   1.447   3.179
 3124W        W 6868   8.972   2.189   9.033
 3125W        W 6869   0.765   6.359   9.388
 3126W        W 6870   0.043  10.456  10.702
 3127W        W 6871   9.747   7.232   2.252
 3128W        W 6872   2.567   7.647   1.937
 3129W        W 6873   5.940   2.547   8.849
 3130W        W 6874   2.718   9.523   0.168
 3131W        W 6875   4.219   8.198   2.409
 3132W        W 6876   9.837   3.320   3.000
 3133W        W 6877   3.791   9.464  10.799
 3134W        W 6878   0.243   4.447  11.500
 3135W        W 6879   6.568   4.631   9.687
 3136W        W 6880   7.507  10.444   1.917
 3137W        W 6881   0.158   0.439  11.847
 3138W        W 6882   6.472   3.106  11.052
 3139W        W 6883   0.047   9.456   0.888
 3140W        W 6884   8.320   8.411   9.561
 3141W        W 6885   3.764   6.491  10.151
 3142W        W 6886   7.337   5.611   1.697
 3143W        W 6887   1.489   8.905   8.454
 3144W        W 6888   8.436   1.658  11.421
 3145W        W 6889   1.752   3.656  11.429
 3146W        W 6890   6.250   1.509   0.014
 3147W        W 6891   2.704   6.988   2.458
 3148W        W 6892   0.037   1.830  10.626
 3149W        W 6893   7.184   6.160   8.550
 3150W        W 6894   8.818   7.017  10.284
 3151W        W 6895   0.787   6.822   1.657
 3152W        W 6896   7.580  10.223   0.606
 3153W        W 6897   5.358   3.825   8.624
 3154W        W 6898   9.482   0.061  10.432
 3155W        W 6899   2.282   8.134   2.550
 3156W        W 6900   1.662   8.650   2.134
 3157W        W 6901   8.207   2.605  11.978
 3158W        W 6902   4.679   5.217  10.328
 3159W        W 6903   0.047   0.846  10.685
 3160W        W 6904   9.886   4.476   0.800
 3161W        W 6905   0.958   6.609   0.717
 3162W        W 6906   7.404   9.511  10.568
 3163W        W 6907   5.172  10.271   2.046
 3164W        W 6908  10.419   6.409   2.043
 3165W        W 6909   3.028   1.879  11.954
 3166W        W 6910   4.829   3.347   8.820
 3167W        W 6911   7.668   0.916   1.511
 3168W        W 6912   5.747   2.686  10.915
 3169W        W 6913   3.102   6.192   2.756
 3170W        W 6914   6.325   9.076   0.368
 3171W        W 6915   6.172   4.300  10.502
 3172W        W 6916   2.335   8.130   2.047
 3173W        W 6917   7.635   9.927  11.859
 3174W        W 6918   5.160   5.627   1.155
 3175W        W 6919   4.147   1.586  10.175
 3176W        W 6920   3.607   5.219   2.743
 3177W        W 6921   6.124   0.163   9.331
 3178W        W 6922   4.123   1.352   9.072
 3179W        W 6923   4.986   2.737   0.690
 3180W        W 6924   1.003   8.437   9.939
 3181W        W 6925  10.358   8.226   9.024
 3182W        W 6926   2.270   5.630   9.510
 3183W        W 6927   0.903   0.978   9.230
 3184W        W 6928   2.510   4.229   0.466
 3185W        W 6929   5.579   8.049  10.389
 3186W        W 6930   6.900   3.017   2.667
 3187W        W 6931   3.307   4.522  10.602
 3188W        W 6932   6.920   5.390  11.487
 3189W        W 6933   0.467   3.782  11.006
 3190W        W 6934   9.877   1.389   9.684
 3191W        W 6935   6.267   5.630   9.982
 3192W        W 6936   5.984   5.075   1.721
 3193W        W 6937   8.918   8.074  11.694
 3194W        W 6938   8.532   8.551   1.765
 3195W        W 6939   6.628   1.272   8.853
 3196W        W 6940   2.142   9.665   0.226
 3197W        W 6941   5.213   7.546   0.989
 3198W        W 6942   4.145   6.181   8.788
 3199W        W 6943   8.044   0.485   9.078
 3200W        W 6944   2.767   4.449   1.473
 3201W        W 6945   2.639   4.533   8.230
 3202W        W 6946   2.218   1.488  11.708
 3203W        W 6947   6.031   6.108  10.524
 3204W        W 6948   3.139   4.132  10.310
 3205W        W 6949   3.201   0.388   0.235
 3206W        W 6950   9.916  10.258   0.476
 3207W        W 6951   8.869   8.822   1.263
 3208W        W 6952   7.232   3.555   3.733
 3209W        W 6953   9.299   6.884  10.388
 3210W        W 6954   0.630   8.419  11.643
 3211W        W 6955   4.589   7.149   9.987
 3212W        W 6956   8.137   9.539  10.840
 3213W        W 6957   9.423   7.578   0.368
 3214W        W 6958   3.177   8.350   9.006
 3215W        W 6959   1.915   8.530  11.956
 3216W        W 6960   6.063   9.525   0.339
 3217W        W 6961   4.045   4.895  10.461
 3218W        W 6962   4.652   9.103   1.885
 3219W        W 6963   8.428   5.073   2.967
 3220W        W 6964   0.236   5.517   1.435
 3221W        W 6965   4.055   9.710  11.446
 3222W        W 6966   1.558   3.533   3.609
 3223W        W 6967   0.747   7.445   8.748
 3224W        W 6968   1.355   5.621  10.986
 3225W        W 6969   9.454   6.173   1.449
 3226W        W 6970   4.757  10.373  11.846
 3227W        W 6971   0.937   6.092   1.859
 3228W        W 6972   0.454   9.987  10.883
 3229W        W 6973   7.836   0.123   0.847
 3230W        W 6974   5.638   8.001   9.562
 3231W        W 6975   6.322   5.444   1.837
 3232W        W 6976   9.921   3.709   2.663
 3233W        W 6977   2.836   5.168  11.487
 3234W        W 6978   8.451   9.729   9.698
 3235W        W 6979   9.975   0.336   1.332
 3236W        W 6980   6.377   9.476  10.827
 3237W        W 6981   9.304   4.946   0.261
 3238W        W 6982   0.781   3.633   0.273
 3239W        W 6983   4.996   4.827  10.280
 3240W        W 6984  10.398   7.999  11.318
 3241W        W 6985   6.765   1.218  10.020
 3242W        W 6986   0.625   1.644   0.493
 3243W        W 6987   1.989   6.323   9.573
 3244W        W 6988   6.052   9.361  11.438
 3245W        W 6989  10.141   7.335   9.620
 3246W        W 6990   6.138   3.526   8.921
 3247W        W 6991   3.770   6.302   8.414
 3248W        W 6992   2.857   6.093   1.946
 3249W        W 6993   5.223   6.993   2.341
 3250W        W 6994   7.783   4.375   0.724
 3251W        W 6995   8.090   9.778   2.883
 3252W        W 6996   6.762   6.518   8.584
 3253W        W 6997  10.205   9.043   0.927
 3254W        W 6998   9.054   8.024  10.203
 3255W        W 6999   5.206   0.400   9.022
 3256W        W 7000   0.438   1.955   2.664
 3257W        W 7001   5.993   5.105   2.778
 3258W        W 7002   3.609   7.866   3.046
 3259W        W 7003   2.778   0.283   3.118
 3260W        W 7004   9.365   1.202   1.603
 3261W        W 7005   7.955   3.292   9.983
 3262W        W 7006   8.130   0.911   1.297
 3263W        W 7007   3.152   5.008   2.358
 3264W        W 7008   6.672   0.984   2.968
 3265W        W 7009   6.091   8.113  10.532
 3266W        W 7010   1.932   5.557   3.207
 3267W        W 7011   7.223   5.441   9.781
 3268W        W 7012  10.497   5.292   1.029
 3269W        W 7013   0.701   5.282  11.670
 3270W        W 7014   9.111  10.312   0.422
 3271W        W 7015   8.662   4.645  10.294
 3272W        W 7016   9.873   0.287   3.568
 3273W        W 7017   5.322   8.390   9.579
 3274W        W 7018   9.611   6.703  11.286
 3275W        W 7019   7.859   4.242  10.470
 3276W        W 7020   8.427   6.942   9.565
 3277W        W 7021   7.352   6.256   3.823
 3278W        W 7022   5.556   3.784   2.968
 3279W        W 7023   5.791   5.792   0.254
 3280W        W 7024   3.123   2.726   1.574
 3281W        W 7025   5.097   6.763   8.940
 3282W        W 7026   7.855   4.221   9.594
 3283W        W 7027   2.714   6.677   9.011
 3284W        W 7028   3.601   9.486  11.295
 3285W        W 7029   7.914   0.393  11.494
 3286W        W 7030   7.683   5.575   8.115
 3287W        W 7031   8.568   5.435   9.306
 3288W        W 7032   8.251   0.480   3.730
 3289W        W 7033   2.716   6.513   2.665
 3290W        W 7034   5.312   5.586   3.150
 3291W        W 7035   7.487   0.484   3.458
 3292W        W 7036   3.776   9.150   1.804
 3293W        W 7037   6.592   6.004   9.275
 3294W        W 7038   6.454   8.640   2.219
 3295W        W 7039   0.119   8.431  11.551
 3296W        W 7040   5.936   7.130   8.163
 3297W        W 7041   1.420   2.399  10.483
 3298W        W 7042   7.448   3.411   0.825
 3299W        W 7043   1.017   1.825   2.087
 3300W        W 7044   7.355  10.324  11.690
 3301W        W 7045   6.174   3.239   1.933
 3302W        W 7046   7.885   4.723   8.999
 3303W        W 7047   4.224   9.622   0.318
 3304W        W 7048  10.051   5.475  10.827
 3305W        W 7049   6.448   8.091   2.205
 3306W        W 7050   0.007   7.463  10.976
 3307W        W 7051   1.173   0.459   9.952
 3308W        W 7052   1.671   1.784   9.302
 3309W        W 7053   5.732   1.819   2.008
 3310W        W 7054   3.014   2.797  10.804
 3311W        W 7055   9.903   5.223   2.286
 3312W        W 7056   8.561   9.761   2.068
 3313W        W 7057  10.359   9.851   1.179
 3314W        W 7058   4.324   7.133   2.980
 3315W        W 7059   4.070   6.325   3.371
 3316W        W 7060   4.319   1.379   2.336
 3317W        W 7061   9.993   9.793   0.233
 3318W        W 7062   5.247   4.755   9.273
 3319W        W 7063   2.224  10.320   8.532
 3320W        W 7064   4.728   7.515   8.607
 3321W        W 7065   3.702   7.851   0.733
 3322W        W 7066   7.407   7.654   1.282
 3323W        W 7067   8.382   9.738   3.531
 3324W        W 7068   2.707   4.989   9.028
 3325W        W 7069   6.483   9.264  11.688
 3326W        W 7070   1.897   2.621  10.430
 3327W        W 7071   8.443   0.881   3.430
 3328W        W 7072   8.198   1.234   0.060
 3329W        W 7073   5.574   3.633   0.469
 3330W        W 7074   7.012   4.499   1.047
 3331W        W 7075   2.337   0.431  10.467
 3332W        W 7076   2.826   9.501   3.541
 3333W        W 7077   0.666   0.419  10.030
 3334W        W 7078   9.334   7.466   1.252
 3335W        W 7079  10.264   7.062   0.688
 3336W        W 7080   4.721   7.671   9.187
 3337W        W 7081   0.171   8.059   9.924
 3338W        W 7082   8.124   7.551  10.129
 3339W        W 7083   9.118   0.340   0.446
 3340W        W 7084   8.980   9.412   8.763
 3341W        W 7085   1.774   1.228   0.892
 3342W        W 7086   5.687   3.631   0.963
 3343W        W 7087   7.343   1.782   9.460
 3344W        W 7088   4.034  10.304   3.217
 3345W        W 7089   1.846   2.205   8.988
 3346W        W 7090   3.634   0.508  10.936
 3347W        W 7091   3.417   4.533   0.003
 3348W        W 7092   2.415   1.925  10.356
 3349W        W 7093   1.266   5.116   2.424
 3350W        W 7094   1.077   5.207   8.562
 3351W        W 7095   4.343   3.673  10.819
 3352W        W 7096   0.270   3.380   2.390
 3353W        W 7097   8.955   7.954   2.310
 3354W        W 7098   4.596   8.336   0.903
 3355W        W 7099   3.925   4.611   8.656
 3356W        W 7100   2.981  10.304   0.840
 3357W        W 7101   8.328   4.969   9.132
 3358W        W 7102   2.448   8.591   3.312
 3359W        W 7103   5.335   0.748   1.671
 3360W        W 7104   8.421   6.079   0.356
 3361W        W 7105   5.139   3.325   0.856
 3362W        W 7106   6.991   9.984   2.167
 3363W        W 7107   2.121   8.919  10.047
 3364W        W 7108   0.792   5.186   2.254
 3365W        W 7109   5.683   9.907  11.934
 3366W        W 7110   8.114   3.655   1.352
 3367W        W 7111   5.684   7.568   3.373
 3368W        W 7112   6.775   2.831   9.947
 3369W        W 7113   5.805   4.482   0.269
 3370W        W 7114   0.015   9.433   8.547
 3371W        W 7115   5.420   2.148   9.832
 3372W        W 7116   8.984   2.769   3.345
 3373W        W 7117   4.195   8.432   1.791
 3374W        W 7118   9.940   0.092   3.114
 3375W        W 7119   4.961   7.686   1.414
 3376W        W 7120   1.830   2.811   0.736
 3377W        W 7121   5.722   7.826  10.839
 3378W        W 7122   3.821   0.540  11.499
 3379W        W 7123   6.617   8.561   8.928
 3380W        W 7124   9.593   2.780   0.919
 3381W        W 7125   9.462   8.923  10.181
 3382W        W 7126   6.216   2.550   3.655
 3383W        W 7127   3.586   8.909  10.803
 3384W        W 7128   3.145   7.771   0.389
 3385W        W 7129   4.084   4.022   0.965
 3386W        W 7130   1.359   5.508   0.487
 3387W        W 7131   7.731   8.095   2.668
 3388W        W 7132   5.110   9.916   1.357
 3389W        W 7133   3.261   6.928   9.058
 3390W        W 7134   8.109   5.445   3.093
 3391W        W 7135   9.360   0.452   1.027
 3392W        W 7136   8.862   3.229  10.044
 3393W        W 7137   9.036   9.338  11.336
 3394W        W 7138   5.719   2.713   3.757
 3395W        W 7139   1.777   5.516  10.725
 3396W        W 7140   6.935   4.275  11.389
 3397W        W 7141   4.268   3.885   0.165
 3398W        W 7142   2.190   8.097  11.073
 3399W        W 7143   6.196   7.661   8.602
 3400W        W 7144   1.763   1.244   9.742
 3401W        W 7145   5.422   6.491   0.024
 3402W        W 7146   1.317   7.144  10.130
 3403W        W 7147   8.919   3.578  11.769
 3404W        W 7148   6.047   5.191  11.624
 3405W        W 7149   0.515   7.859  10.459
 3406W        W 7150   7.429   6.520  11.382
 3407W        W 7151   8.175   7.859   2.766
 3408W        W 7152   2.538   0.167   1.921
 3409W        W 7153  10.188   0.529  10.940
 3410W        W 7154   6.373  10.481   2.238
 3411W        W 7155   2.778   5.077   4.071
 3412W        W 7156   8.360  10.315  10.316
 3413W        W 7157   9.037   3.498   8.657
 3414W        W 7158   7.177   3.680   0.462
 3415W        W 7159   8.205   7.970   9.809
 3416W        W 7160   0.692   1.206  10.453
 3417W        W 7161   6.762   9.281   9.416
 3418W        W 7162   1.146   0.487   1.873
 3419W        W 7163   4.205   9.352  11.130
 3420W        W 7164   4.974   7.418  10.600
 3421W        W 7165   8.161   6.926   0.284
 3422W        W 7166   4.726   5.454   9.854
 3423W        W 7167   4.021   6.591  11.083
 3424W        W 7168   7.098   8.307   3.457
 3425W        W 7169   3.851   1.981   3.498
 3426W        W 7170   7.409   6.286   0.770
 3427W        W 7171   4.251   3.209   8.915
 3428W        W 7172   0.943   0.413   2.347
 3429W        W 7173   4.297   0.921   0.394
 3430W        W 7174   5.223   1.258   0.987
 3431W        W 7175   7.504   4.761   0.893
 3432W        W 7176   6.940   3.740  10.918
 3433W        W 7177   7.127   1.696   0.945
 3434W        W 7178   5.475   4.898   0.908
 3435W        W 7179   7.500   0.209   8.826
 3436W        W 7180   1.884   6.210   9.044
 3437W        W 7181   6.090   6.783   3.249
 3438W        W 7182   6.476   4.826  10.239
 3439W        W 7183   2.118   9.931   8.850
 3440W        W 7184   3.599   0.833  11.868
 3441W        W 7185   6.532   6.295   3.529
 3442W        W 7186   3.629   9.956  10.539
 3443W        W 7187   7.563   9.045   2.996
 3444W        W 7188   6.457   8.284   9.363
 3445W        W 7189   0.294   1.555   9.375
 3446W        W 7190   9.384   4.865   9.655
 3447W        W 7191   6.093   2.858   0.687
 3448W        W 7192   1.156   4.276   2.470
 3449W        W 7193   8.915   4.873   2.411
 3450W        W 7194   9.485   3.569   1.591
 3451W        W 7195   4.345   2.782   2.311
 3452W        W 7196   0.703   9.210  10.431
 3453W        W 7197   3.855   8.530   1.289
 3454W        W 7198   1.062   2.829   8.809
 3455W        W 7199   4.742   3.045   4.067
 3456W        W 7200   7.050   1.901   0.012
 3457W        W 7201   0.623   6.602   8.494
 3458W        W 7202   1.720   6.088   2.547
 3459W        W 7203   6.928   7.951   3.142
 3460W        W 7204   5.153   8.336   2.836
 3461W        W 7205   5.363   8.828   0.410
 3462W        W 7206   8.846   5.535   8.789
 3463W        W 7207   7.003   9.262  11.822
 3464W        W 7208  10.391  10.205   0.236
 3465W        W 7209   1.473   3.250   0.679
 3466W        W 7210   7.074   6.585   0.987
 3467W        W 7211  10.370   0.676   0.216
 3468W        W 7212   9.929   4.174   9.608
 3469W        W 7213   3.308   5.014  11.287
 3470W        W 7214   7.884   6.904   2.933
 3471W        W 7215   4.717   3.037   0.997
 3472W        W 7216   4.108   4.126  11.722
 3473W        W 7217   9.435   8.337   1.784
 3474W        W 7218   0.857   2.848   0.962
 3475W        W 7219   2.898   5.199   1.931
 3476W        W 7220   0.972   2.322   9.056
 3477W        W 7221   9.888   7.110  11.405
 3478W        W 7222   5.678   7.119  11.345
 3479W        W 7223  10.121   4.565   0.372
 3480W        W 7224   5.562  10.002   3.294
 3481W        W 7225   5.168   1.256   9.520
 3482W        W 7226   1.204   4.236   2.974
 3483W        W 7227   9.734   4.005   9.162
 3484W        W 7228   3.739   8.198  11.374
 3485W        W 7229   0.426   8.635  11.204
 3486W        W 7230  10.233   2.174   0.582
 3487W        W 7231   5.105   0.687  11.778
 3488W        W 7232   7.216   1.885  10.525
 3489W        W 7233   3.819   8.808   9.948
 3490W        W 7234   8.070   3.232   0.196
 3491W        W 7235   1.857   7.885   0.763
 3492W        W 7236   5.525   8.803   1.170
 3493W        W 7237   1.287   8.110  11.442
 3494W        W 7238   9.926   4.703   3.420
 3495W        W 7239   2.670   2.968   1.257
 3496W        W 7240   6.547   8.981   1.113
 3497W        W 7241   1.923   3.570   2.683
 3498W        W 7242   8.689   0.539  10.083
 3499W        W 7243   6.611   6.738   1.385
 3500W        W 7244   5.612   9.964  10.077
 3501W        W 7245   8.792   3.619  10.987
 3502W        W 7246  10.010   0.277   0.303
 3503W        W 7247   9.861   8.317   2.846
 3504W        W 7248   3.167   1.341   1.503
 3505W        W 7249   5.638   6.312   3.719
 3506W        W 7250   4.537   7.664   8.061
 3507W        W 7251   2.845   8.100  10.391
 3508W        W 7252   6.713   5.932  11.285
 3509W        W 7253   2.656  10.240   3.622
 3510W        W 7254   1.378  10.082  11.126
 3511W        W 7255   1.884   6.953   1.981
 3512W        W 7256   3.193   4.764   1.662
 3513W        W 7257   7.121   0.249   3.169
 3514W        W 7258   7.940   0.803  10.694
 3515W        W 7259   2.320   2.882   0.437
 3516W        W 7260   3.066   1.870  10.778
 3517W        W 7261   1.367   3.077   3.566
 3518W        W 7262   8.064   3.548   3.365
 3519W        W 7263  10.252   9.394   2.989
 3520W        W 7264   2.933   1.179  10.836
 3521W        W 7265   0.257   4.288   1.909
 3522W        W 7266   9.679  10.319   9.593
 3523W        W 7267   1.325   1.810  10.245
 3524W        W 7268   7.259   7.892   9.632
 3525W        W 7269   4.500   0.785   2.767
 3526W        W 7270   5.762   8.068   1.615
 3527W        W 7271   1.191   4.298  11.927
 3528W        W 7272   3.116   9.910  10.437
 3529W        W 7273   6.595   0.175   1.836
 3530W        W 7274   5.372   0.487   3.486
 3531W        W 7275   5.092   9.975   2.491
 3532W        W 7276   0.630   0.231  11.938
 3533W        W 7277   6.581   4.497  11.087
 3534W        W 7278   0.739   0.413  11.054
 3535W        W 7279   2.918   1.645  10.285
 3536W        W 7280   3.187   7.876   0.916
 3537W        W 7281   2.638   4.251  11.947
 3538W        W 7282   2.273   1.654  11.232
 3539W        W 7283   4.667   9.617   9.082
 3540W        W 7284   3.720   0.321   0.977
 3541W        W 7285   5.028   6.066   0.866
 3542W        W 7286   3.354   2.688  11.768
 3543W        W 7287   0.443   4.015   1.522
 3544W        W 7288   7.587   7.424  10.770
 3545W        W 7289   7.111   6.229  11.070
 3546W        W 7290   8.421   8.931   0.976
 3547W        W 7291   0.614   2.508   3.475
 3548W        W 7292   0.386   7.440  11.862
 3549W        W 7293   3.572   4.973  10.713
 3550W        W 7294   7.105   8.836   9.621
 3551W        W 7295   9.755   4.309   3.149
 3552W        W 7296   3.641   8.500  11.800
 3553W        W 7297   3.949   0.039   2.193
 3554W        W 7298   6.933   7.904   2.090
 3555W        W 7299   1.368   4.973  11.358
 3556W        W 7300   0.324   5.289  11.326
 3557W        W 7301   7.538   3.200   9.696
 3558W        W 7302  10.004   9.100   9.414
 3559W        W 7303   7.123   0.401   1.170
 3560W        W 7304   0.542   1.322   8.998
 3561W        W 7305   5.711   6.443   1.440
 3562W        W 7306   8.863   0.531  10.628
 3563W        W 7307   0.822   7.016  10.073
 3564W        W 7308   4.548   7.648  10.764
 3565W        W 7309   2.358   6.885   8.104
 3566W        W 7310   4.736   6.834   3.152
 3567W        W 7311   2.856   3.173  11.412
 3568W        W 7312  10.349   2.975   1.312
 3569W        W 7313   0.524   7.020   8.932
 3570W        W 7314   9.961   9.505   9.069
 3571W        W 7315   4.259   3.639   2.707
 3572W        W 7316   8.545   6.667   3.441
 3573W        W 7317   0.802   7.795   9.110
 3574W        W 7318   1.921   2.188   9.510
 3575W        W 7319   7.254   9.402   2.764
 3576W        W 7320   1.474   7.974   9.541
 3577W        W 7321   6.685   7.006  10.926
 3578W        W 7322   4.594   0.762  11.794
 3579W        W 7323   1.298   1.024  11.550
 3580W        W 7324   5.197   4.272   9.118
 3581W        W 7325   6.718   7.398   9.999
 3582W        W 7326   4.003   3.126   1.407
 3583W        W 7327   4.720   6.955   2.151
 3584W        W 7328   5.570   2.562  10.464
 3585W        W 7329   6.263   8.699   8.585
 3586W        W 7330   4.036   8.052   8.697
 3587W        W 7331   2.237   6.580   9.205
 3588W        W 7332  10.270   7.992   2.831
 3589W        W 7333   3.098   1.911   3.204
 3590W        W 7334  10.445   0.898  11.762
 3591W        W 7335   7.500  10.089   1.542
 3592W        W 7336   1.309   3.319   2.637
 3593W        W 7337   3.367   6.112   1.875
 3594W        W 7338   0.890   4.711   2.467
 3595W        W 7339   6.067   2.002  11.749
 3596W        W 7340   8.593   9.394   1.289
 3597W        W 7341   6.543   2.305   2.981
 3598W        W 7342   6.922   6.466  11.488
 3599W        W 7343   4.544   1.095   9.247
 3600W        W 7344   0.745   8.406   2.775
 3601W        W 7345   9.949   0.810   3.652
 3602W        W 7346   4.290   9.434  10.616
 3603W        W 7347   0.533   2.878   8.738
 3604W        W 7348   4.195   4.203   3.594
 3605W        W 7349   4.563   9.971   0.461
 3606W        W 7350   2.215   3.767   9.756
 3607W        W 7351   5.603   5.108   9.842
 3608W        W 7352   5.492   9.871  11.064
 3609W        W 7353   9.300   8.996   8.721
 3610W        W 7354   1.408   9.250   0.632
 3611W        W 7355   9.367   8.097  11.958
 3612W        W 7356   1.405  10.013   2.785
 3613W        W 7357   2.473   1.806   0.020
 3614W        W 7358   5.956   7.911   9.973
 3615W        W 7359   0.811  10.204   2.790
 3616W        W 7360   1.252   2.888   2.937
 3617W        W 7361   5.686   3.566   4.259
 3618W        W 7362   0.391   8.959  11.587
 3619W        W 7363   2.629   7.534  11.495
 3620W        W 7364   7.469  10.110  11.247
 3621W        W 7365   1.762   2.806   1.714
 3622W        W 7366   1.739   9.316   9.970
 3623W        W 7367  10.358   5.984   8.490
 3624W        W 7368   2.065   7.123   8.468
 3625W        W 7369  10.014   7.900  10.289
 3626W        W 7370   1.229   3.640  11.559
 3627W        W 7371   7.193   0.141   3.671
 3628W        W 7372   3.993   0.880  10.924
 3629W        W 7373   7.781   6.148  10.453
 3630W        W 7374   7.680   2.004   9.757
 3631W        W 7375   7.923   7.866   3.207
 3632W        W 7376   1.709   5.205  11.878
 3633W        W 7377   5.066   4.071   8.159
 3634W        W 7378   8.065   2.000  11.404
 3635W        W 7379   5.348   4.439   0.687
 3636W        W 7380   8.718   2.597   0.694
 3637W        W 7381   6.862   1.747   9.619
 3638W        W 7382   6.951   4.025  10.481
 3639W        W 7383   1.359   4.328   9.883
 3640W        W 7384   5.284   6.652   8.475
 3641W        W 7385  10.040   2.221  11.214
 3642W        W 7386   2.364   1.266   3.446
 3643W        W 7387   5.747   5.101   2.180
 3644W        W 7388   6.946   0.174   0.748
 3645W        W 7389  10.367   8.944   3.251
 3646W        W 7390   9.996   2.848   2.785
 3647W        W 7391   4.712   3.115  11.575
 3648W        W 7392   2.270   9.925   2.988
 3649W        W 7393  10.273   3.077  10.856
 3650W        W 7394   9.508   1.102  11.939
 3651W        W 7395   4.418   8.888  11.128
 3652W        W 7396   0.875   6.664   2.571
 3653W        W 7397   7.938   4.098   2.179
 3654W        W 7398   6.491   9.074   9.001
 3655W        W 7399   5.224   8.377   8.887
 3656W        W 7400   4.992  10.439   9.742
 3657W        W 7401   4.503   9.591   2.330
 3658W        W 7402   1.153   0.483   0.758
 3659W        W 7403   4.863   0.277  10.518
 3660W        W 7404   3.887   9.875   1.186
 3661W        W 7405   4.192   7.902  10.301
 3662W        W 7406   3.737   1.934  11.506
 3663W        W 7407  10.275   8.453   1.688
 3664W        W 7408   7.639   1.801   1.659
 3665W        W 7409   7.514   9.975  10.753
 3666W        W 7410   8.834   8.998   1.749
 3667W        W 7411   1.790   8.119  11.481
 3668W        W 7412   1.028   5.535   3.250
 3669W        W 7413   9.467   7.883   3.475
 3670W        W 7414   9.390   8.604  11.856
 3671W        W 7415   8.599   4.295  11.777
 3672W        W 7416   3.525  10.315   3.141
 3673W        W 7417   4.182   4.375  11.250
 3674W        W 7418   9.750   0.967   1.832
 3675W        W 7419   7.511   8.969   4.044
 3676W        W 7420   2.608   2.375   0.412
 3677W        W 7421   9.856   9.798  11.707
 3678W        W 7422   4.452   3.619   9.133
 3679W        W 7423   9.379   2.240   2.689
 3680W        W 7424   4.217   6.555   9.918
 3681W        W 7425   1.002   2.383   0.779
 3682W        W 7426   6.240   0.777   1.142
 3683W        W 7427   5.984   5.690  11.375
 3684W        W 7428   4.229   8.939  10.299
 3685W        W 7429   8.504   8.003   1.032
 3686W        W 7430   0.496   5.109   0.130
 3687W        W 7431   7.817   9.356   0.341
 3688W        W 7432   2.838   8.982   3.330
 3689W        W 7433   2.196   1.223   1.177
 3690W        W 7434   9.905   2.328   2.778
 3691W        W 7435   1.801   1.424   1.424
 3692W        W 7436   0.297   4.920  11.688
 3693W        W 7437   8.943   7.978   2.829
 3694W        W 7438   8.928   1.731   9.331
 3695W        W 7439   4.573   9.085   2.445
 3696W        W 7440   8.345   2.364   2.537
 3697W        W 7441   3.613   1.386   0.404
 3698W        W 7442   8.286   6.307   3.733
 3699W        W 7443   1.823   4.806  11.572
 3700W        W 7444   6.738   6.722   9.057
 3701W        W 7445   7.640   0.912   0.721
 3702W        W 7446   8.568   1.457  10.969
 3703W        W 7447   2.085   9.300  10.356
 3704W        W 7448   9.823   4.625   9.896
 3705W        W 7449   3.782   9.140  10.377
 3706W        W 7450   0.681   9.383   2.256
 3707W        W 7451   2.645   2.270  11.906
 3708W        W 7452   2.857   3.089   3.141
 3709W        W 7453   9.957   6.403   1.841
 3710W        W 7454   1.486   3.619   8.679
 3711W        W 7455   9.436   3.951  11.545
 3712W        W 7456   8.324  10.009  10.750
 3713W        W 7457   2.048   4.892   3.708
 3714W        W 7458   0.750   6.510   2.072
 3715W        W 7459   0.637   0.375   1.931
 3716W        W 7460   9.619   4.284   8.731
 3717W        W 7461   0.897   2.773  11.900
 3718W        W 7462   8.097   7.934  11.788
 3719W        W 7463   6.485   8.503  10.881
 3720W        W 7464   3.634   7.561   9.324
 3721W        W 7465   3.319   3.805   2.637
 3722W        W 7466   6.010   6.094  10.011
 3723W        W 7467  10.413   8.169  11.938
 3724W        W 7468   9.780   4.999   0.789
 3725W        W 7469   7.468   4.576  11.002
 3726W        W 7470   5.184   8.370  10.073
 3727W        W 7471  10.322   5.116  10.553
 3728W        W 7472  10.299   7.045   1.202
 3729W        W 7473   7.139   7.210  10.798
 3730W        W 7474   7.609   9.116   9.750
 3731W        W 7475   8.597   9.268   9.572
 3732W        W 7476   9.580   3.518   9.362
 3733W        W 7477   0.028   0.857   9.734
 3734W        W 7478   9.908   9.309   9.897
 3735W        W 7479   9.914   6.137   9.466
 3736W        W 7480   6.910  10.169  11.879
 3737W        W 7481   5.450   9.976   1.721
 3738W        W 7482   5.503   3.321   9.838
 3739W        W 7483   9.553   6.652   1.679
 3740W        W 7484   5.066   8.507  11.545
 3741W        W 7485   3.733  10.474  10.820
 3742W        W 7486   9.351   9.486   0.507
 3743W        W 7487   4.794   8.681   8.846
 3744W        W 7488   9.350  10.329  11.853
 3745W        W 7489   3.692   8.639   1.775
 3746W        W 7490  10.345   5.527   9.976
 3747W        W 7491   1.472   3.769   2.775
 3748W        W 7492   6.617   8.490   1.326
 3749W        W 7493   2.891   7.445   2.310
 3750W        W 7494   3.106   5.137  10.829
 3751W        W 7495   5.257   9.670   0.045
 3752W        W 7496   0.045   3.202   9.930
 3753W        W 7497   9.389   3.293   0.289
 3754W        W 7498   8.914   8.349   1.052
 3755W        W 7499   4.283   6.814   3.398
 3756W        W 7500   9.978   8.830   0.540
 3757W        W 7501   2.416   3.402   0.368
 3758W        W 7502   7.424   2.439   0.936
 3759W        W 7503   6.642   0.264   8.754
 3760W        W 7504   2.671   6.937   8.527
 3761W        W 7505   0.260   3.342   0.326
 3762W        W 7506   9.411   6.225   3.092
 3763W        W 7507   7.570   0.009   9.821
 3764W        W 7508   3.036   6.611   3.055
 3765W        W 7509   1.474   8.199   3.185
 3766W        W 7510   2.810   2.801   0.235
 3767W        W 7511   1.262   9.796   8.475
 3768W        W 7512   5.797   4.237   3.621
 3769W        W 7513   0.212   4.182   2.840
 3770W        W 7514   9.763   5.871  11.021
 3771W        W 7515   6.006  10.388   9.921
 3772W        W 7516   4.233   7.325   0.447
 3773W        W 7517   7.333   9.023   0.216
 3774W        W 7518  10.308   9.468   2.499
 3775W        W 7519   3.276   7.084  11.749
 3776W        W 7520   2.472   7.831  11.870
 3777W        W 7521   5.701   0.709  11.426
 3778W        W 7522   9.225   2.322   3.189
 3779W        W 7523   3.760   3.176  11.178
 3780W        W 7524   4.738   3.178   3.223
 3781W        W 7525   7.391   6.982   1.658
 3782W        W 7526   2.388   9.941   9.632
 3783W        W 7527   8.325   3.779  11.048
 3784W        W 7528   5.646   9.085   0.759
 3785W        W 7529   3.850   9.434   2.903
 3786W        W 7530   1.727   9.473  11.288
 3787W        W 7531   1.746   6.504   2.967
 3788W        W 7532   3.348   7.396   8.941
 3789W        W 7533   0.273   1.631   8.378
 3790W        W 7534   6.540   0.187  11.500
 3791W        W 7535   4.705   4.588  11.194
 3792W        W 7536   8.213   2.652   0.756
 3793W        W 7537   6.200   8.198   1.376
 3794W        W 7538   0.819   9.299  11.548
 3795W        W 7539   5.148   6.047   2.436
 3796W        W 7540   2.664   8.099  10.861
 3797W        W 7541   6.135   4.249   1.228
 3798W        W 7542   4.759   8.555  10.283
 3799W        W 7543   5.616   9.038  10.527
 3800W        W 7544   7.556   0.070  10.323
 3801W        W 7545   4.505   4.728  10.356
 3802W        W 7546   7.109   4.941   3.351
 3803W        W 7547   4.907   7.248   8.050
 3804W        W 7548   8.007   3.196   1.598
 3805W        W 7549   5.476  10.443   9.939
 3806W        W 7550   9.173   6.699   0.131
 3807W        W 7551   9.580   8.969   9.701
 3808W        W 7552   2.242   0.753   9.635
 3809W        W 7553   8.045   6.616  10.244
 3810W        W 7554   5.208   7.069   4.247
 3811W        W 7555   7.358   7.130  10.329
 3812W        W 7556   3.062   6.638  11.769
 3813W        W 7557   0.315   2.922   9.580
 3814W        W 7558   6.204   7.052   4.004
 3815W        W 7559   1.841   6.726   1.520
 3816W        W 7560   1.136   5.257   1.057
 3817W        W 7561   8.723   7.472   3.562
 3818W        W 7562   1.326   7.066  10.664
 3819W        W 7563   8.793  10.271   0.921
 3820W        W 7564   7.017   7.086   8.824
 3821W        W 7565   1.835   4.961   2.307
 3822W        W 7566   4.237   5.209  10.083
 3823W        W 7567   6.176   8.378   2.888
 3824W        W 7568   5.064   3.347   0.362
 3825W        W 7569   3.166   0.994   2.877
 3826W        W 7570  10.429   0.626   1.367
 3827W        W 7571   1.530   7.801   2.409
 3828W        W 7572   6.886   6.261   8.140
 3829W        W 7573   5.948   9.639  11.024
 3830W        W 7574   4.457   1.691   2.819
 3831W        W 7575   8.142   2.785   2.809
 3832W        W 7576   8.589   6.770   0.941
 3833W        W 7577   4.808   1.335   2.137
 3834W        W 7578   9.342  10.179   2.134
 3835W        W 7579   9.996  10.148   0.964
 3836W        W 7580   7.646   8.142   0.037
 3837W        W 7581   3.266   6.008   9.173
 3838W        W 7582   2.272   5.989  11.864
 3839W        W 7583   8.359   6.953  10.471
 3840W        W 7584   0.226   7.155   0.949
 3841W        W 7585   8.549   2.837   9.982
 3842W        W 7586   5.139   6.507   2.158
 3843W        W 7587   1.363   6.869   8.859
 3844W        W 7588   5.638   3.317   2.782
 3845W        W 7589   8.121   6.499   3.174
 3846W        W 7590   4.680   9.842  10.819
 3847W        W 7591   8.958   4.753   1.529
 3848W        W 7592   1.781   2.883   9.986
 3849W        W 7593   7.019   8.959   2.865
 3850W        W 7594   6.130   6.501  10.835
 3851W        W 7595   1.324   3.286   2.139
 3852W        W 7596   7.047   2.733  11.542
 3853W        W 7597   9.868  10.241  11.973
 3854W        W 7598   3.767   8.077   9.511
 3855W        W 7599   3.116   1.426   2.025
 3856W        W 7600   6.478   0.220   0.458
 3857W        W 7601   5.081   1.781  10.757
 3858W        W 7602   2.286   5.576  11.501
 3859W        W 7603   5.378   5.685   8.575
 3860W        W 7604   2.184   7.382   9.642
 3861W        W 7605   6.128   8.104  11.064
 3862W        W 7606   2.166   7.818   9.337
 3863W        W 7607   6.944   3.491   2.540
 3864W        W 7608   1.879   4.526   1.416
 3865W        W 7609   0.334   0.962   2.678
 3866W        W 7610   0.915   5.078   9.951
 3867W        W 7611   0.462   4.838  10.088
 3868W        W 7612   4.624   5.360  11.205
 3869W        W 7613   5.112   3.791   0.139
 3870W        W 7614   4.306   4.607  10.820
 3871W        W 7615   5.583   3.301   2.277
 3872W        W 7616   2.111   9.755  10.564
 3873W        W 7617   7.635   9.607   1.656
 3874W        W 7618   4.104   6.057   0.998
 3875W        W 7619  10.328   1.785  11.469
 3876W        W 7620   8.964   2.856   1.462
 3877W        W 7621   0.587   5.908   1.458
 3878W        W 7622   7.395   0.570   9.509
 3879W        W 7623   8.481   3.916   3.318
 3880W        W 7624   9.073   2.241  11.463
 3881W        W 7625   9.339   4.608  10.100
 3882W        W 7626   1.944   9.163   2.807
 3883W        W 7627   1.786   0.888   9.350
 3884W        W 7628   9.431   1.250  10.920
 3885W        W 7629   8.577   4.589  11.309
 3886W        W 7630   8.447   2.726   8.954
 3887W        W 7631   8.841   2.019   3.152
 3888W        W 7632   7.159   7.936   8.511
 3889W        W 7633   1.970   7.726   2.651
 3890W        W 7634   9.894   0.673   0.968
 3891W        W 7635   1.173   4.044   1.452
 3892W        W 7636   5.739   1.283  10.771
 3893W        W 7637   8.058   7.846  11.266
 3894W        W 7638   2.289   5.222   3.391
 3895W        W 7639   7.997   9.823   9.225
 3896W        W 7640   2.681   8.960  10.985
 3897W        W 7641  10.488   1.858  11.964
 3898W        W 7642   9.436   8.591   2.772
 3899W        W 7643   3.220   4.696   3.608
 3900W        W 7644   9.750   0.840  11.021
 3901W        W 7645   7.142   6.687  10.749
 3902W        W 7646   9.021   0.746   0.762
 3903W        W 7647   9.970   9.968  10.819
 3904W        W 7648   5.239   9.704  10.369
 3905W        W 7649   7.480   8.568   3.207
 3906W        W 7650   5.715   6.463   0.937
 3907W        W 7651   1.393   9.548  10.891
 3908W        W 7652   9.780   3.702   9.817
 3909W        W 7653   7.040   0.034   9.022
 3910W        W 7654   6.475   6.630  11.217
 3911W        W 7655   1.742   6.182  11.849
 3912W        W 7656   5.272   4.472  11.018
 3913W        W 7657   5.681   4.211   2.149
 3914W        W 7658   5.582   5.110   3.142
 3915W        W 7659   1.935   3.235   9.644
 3916W        W 7660   6.154   3.327  11.430
 3917W        W 7661   6.372   7.731   1.287
 3918W        W 7662   5.640   0.268   0.409
 3919W        W 7663   3.286   4.977   4.031
 3920W        W 7664   8.203   6.691   2.208
 3921W        W 7665   1.074   3.543   1.476
 3922W        W 7666   4.794   9.470   3.172
 3923W        W 7667  10.467  10.476  10.210
 3924W        W 7668   9.277   4.053   2.480
 3925W        W 7669   8.377   1.881   2.389
 3926W        W 7670   3.684   4.029   1.364
 3927W        W 7671   1.085   7.104   9.645
 3928W        W 7672   9.655   4.739  10.471
 3929W        W 7673   2.763   1.221   0.771
 3930W        W 7674   2.251   8.310  11.569
 3931W        W 7675   8.023   8.440  11.773
 3932W        W 7676   1.824  10.006   1.636
 3933W        W 7677   6.544   9.347  10.353
 3934W        W 7678   9.615   3.783  10.594
 3935W        W 7679  10.492   0.809  11.244
 3936W        W 7680   1.215   1.383   2.320
 3937W        W 7681   9.447   2.667   1.515
 3938W        W 7682   4.876  10.249   2.988
 3939W        W 7683   4.134   2.696   9.064
 3940W        W 7684   9.391  10.043   2.638
 3941W        W 7685   5.600   6.630   8.924
 3942W        W 7686   8.072   2.863  10.724
 3943W        W 7687   1.804   2.765  11.800
 3944W        W 7688   3.605   0.912   2.639
 3945W        W 7689   8.483   8.916  10.289
 3946W        W 7690   0.275   4.217   9.240
 3947W        W 7691   1.539   1.414   8.947
 3948W        W 7692   4.949   2.237  11.873
 3949W        W 7693   8.593  10.483  10.877
 3950W        W 7694   2.139   1.070  10.057
 3951W        W 7695   0.947   6.988   2.115
 3952W        W 7696   8.055   0.678   1.757
 3953W        W 7697   7.298   6.215  10.343
 3954W        W 7698   9.415   0.778   3.539
 3955W        W 7699  10.488   5.090   9.726
 3956W        W 7700   8.819   5.090  10.493
 3957W        W 7701   8.953   4.622   8.858
 3958W        W 7702   4.909   3.678   8.450
 3959W        W 7703   4.980   5.683   0.275
 3960W        W 7704   2.417   0.308   2.767
 3961W        W 7705   9.759   8.979   3.484
 3962W        W 7706  10.460   8.594  10.088
 3963W        W 7707   6.330  10.334   2.749
 3964W        W 7708   4.251   5.352  10.574
 3965W        W 7709   7.064   3.361  11.236
 3966W        W 7710   1.450   1.671   0.213
 3967W        W 7711   7.426   5.174   9.354
 3968W        W 7712   3.258   0.490   1.277
 3969W        W 7713   1.224   3.693   1.010
 3970W        W 7714   7.069   6.091   9.089
 3971W        W 7715   5.971   2.129   9.123
 3972W        W 7716   9.849   1.824   9.404
 3973W        W 7717   0.858   1.688   2.542
 3974W        W 7718   3.323   9.571  11.802
 3975W        W 7719   6.573   0.505   0.874
 3976W        W 7720   3.342   3.956   3.115
 3977W        W 7721   3.398   5.409   3.225
 3978W        W 7722   7.232   4.117  11.811
 3979W        W 7723   1.214   6.118  11.882
 3980W        W 7724   0.861   9.634   9.523
 3981W        W 7725   7.159   7.496   2.400
 3982W        W 7726   9.412   3.679   1.088
 3983W        W 7727   3.922   9.716   0.703
 3984W        W 7728   5.588   1.743   3.019
 3985W        W 7729   3.284   4.902   0.528
 3986W        W 7730   5.078   4.079  10.748
 3987W        W 7731   8.041   5.398   1.271
 3988W        W 7732   4.506   4.139   9.397
 3989W        W 7733   5.347   9.757  11.547
 3990W        W 7734   7.508   9.580  10.051
 3991W        W 7735   6.885   9.393  10.732
 3992W        W 7736   0.206   6.185   0.830
 3993W        W 7737   2.627   5.655   9.929
 3994W        W 7738   3.174   4.204   1.243
 3995W        W 7739  10.187   6.899   9.363
 3996W        W 7740   9.618   7.435   0.832
 3997W        W 7741   7.062   5.236   0.292
 3998W        W 7742   5.938   0.805   9.966
 3999W        W 7743   8.124   8.431   2.608
 4000W        W 7744   6.589   6.677   2.264
 4001W        W 7745   6.936   4.871   9.931
 4002W        W 7746   3.862   3.071   9.247
 4003W        W 7747   1.747   2.234  11.348
 4004W        W 7748   6.841  10.329   2.510
 4005W        W 7749   1.390  10.376  10.260
 4006W        W 7750   5.948   4.735  10.339
 4007W        W 7751   4.964   7.880   8.269
 4008W        W 7752   8.418   3.611   8.476
 4009W        W 7753  10.273   0.917   8.756
 4010W        W 7754   8.995   2.487   1.839
 4011W        W 7755   2.921   4.586   4.111
 4012W        W 7756   4.647   6.477   2.332
 4013W        W 7757   5.059   7.175   1.342
 4014W        W 7758   0.711   6.181   0.927
 4015W        W 7759   9.544   0.061   0.272
 4016W        W 7760   2.901   3.709  10.518
 4017W        W 7761   3.224   8.325  11.503
 4018W        W 7762   7.864   2.407  10.513
 4019W        W 7763   0.854   1.376   0.928
 4020W        W 7764   9.463   1.845   0.910
 4021W        W 7765   7.191   2.614   2.546
 4022W        W 7766   1.452   8.469   1.042
 4023W        W 7767   3.069   2.520   0.603
 4024W        W 7768   7.556   6.061   2.733
 4025W        W 7769   5.623   1.152   1.279
 4026W        W 7770   7.023   9.654   0.815
 4027W        W 7771   9.566   7.175  10.076
 4028W        W 7772   5.951   6.712   4.302
 4029W        W 7773   4.603   3.234  10.809
 4030W        W 7774  10.055   0.975   1.406
 4031W        W 7775   0.415   8.932   1.570
 4032W        W 7776   2.731   7.897   1.211
 4033W        W 7777  10.353   8.544   0.735
 4034W        W 7778   9.955   5.450   1.772
 4035W        W 7779   6.667   5.266  11.979
 4036W        W 7780   5.068   7.888  10.293
 4037W        W 7781   9.940   4.958  10.869
 4038W        W 7782   9.843   1.444  10.192
 4039W        W 7783   4.247   4.445   9.076
 4040W        W 7784   5.598   9.498  10.710
 4041W        W 7785   4.511   6.015   0.690
 4042W        W 7786   7.644   5.557   3.994
 4043W        W 7787   2.152   0.381   9.983
 4044W        W 7788   6.472  10.008   2.393
 4045W        W 7789   5.196   9.457   0.648
 4046W        W 7790   9.670   9.818  11.223
 4047W        W 7791   7.960   0.293  10.559
 4048W        W 7792   0.810   7.900  11.488
 4049W        W 7793  10.301  10.321   1.956
 4050W        W 7794   5.697   3.581  10.937
 4051W        W 7795   2.306   5.059  11.635
 4052W        W 7796  10.071   5.707   2.195
 4053W        W 7797   4.702   2.767   9.785
 4054W        W 7798   6.054   7.204   3.544
 4055W        W 7799   7.577   6.659  10.461
 4056W        W 7800   1.632   8.590  11.540
 4057W        W 7801   5.995   7.122   1.890
 4058W        W 7802   8.802   1.676   3.510
 4059W        W 7803   4.490   7.944   8.488
 4060W        W 7804   8.411   6.184   9.126
 4061W        W 7805   3.394   4.637   8.625
 4062W        W 7806   8.375   9.256   0.052
 4063W        W 7807   1.327   6.392   2.678
 4064W        W 7808  10.192   4.171   2.883
 4065W        W 7809   7.455   5.791   0.801
 4066W        W 7810  10.490   1.728   2.526
 4067W        W 7811   2.932   2.075   9.470
 4068W        W 7812   0.107   1.605   1.813
 4069W        W 7813   4.058   6.916  10.304
 4070W        W 7814   6.735   4.596   3.274
 4071W        W 7815   7.175   2.649   1.364
 4072W        W 7816   4.865   2.814   2.321
 4073W        W 7817   4.888   9.513   2.670
 4074W        W 7818   5.138   4.683  11.478
 4075W        W 7819   8.966   0.404   1.438
 4076W        W 7820   4.015   7.531   3.059
 4077W        W 7821   1.828   3.236   1.981
 4078W        W 7822   1.578   9.524   2.990
 4079W        W 7823   7.106   7.863  11.458
 4080W        W 7824   1.275   4.264   0.429
 4081W        W 7825   9.364   8.559   8.994
 4082W        W 7826   0.810   3.840  11.784
 4083W        W 7827   0.745   7.107   0.755
 4084W        W 7828   3.353   8.831   3.297
 4085W        W 7829   9.577  10.391   3.390
 4086W        W 7830   1.199   2.866   0.477
 4087W        W 7831   6.948   9.969  11.378
 4088W        W 7832   2.346   3.834   2.734
 4089W        W 7833   4.954   4.215   0.923
 4090W        W 7834   4.651   4.961   9.893
 4091W        W 7835   2.847   1.180   3.335
 4092W        W 7836   9.000   8.412   2.567
 4093W        W 7837   3.289   2.382  10.120
 4094W        W 7838   1.797   6.262  11.321
 4095W        W 7839   4.632   7.624  10.267
 4096W        W 7840   6.495   3.044  10.501
 4097W        W 7841   7.340   1.052   9.388
 4098W        W 7842   7.031   7.460   9.439
 4099W        W 7843   4.075  10.103   0.348
 4100W        W 7844   8.376   1.975  10.981
 4101W        W 7845   5.652   1.127   0.748
 4102W        W 7846   8.179   6.619   1.620
 4103W        W 7847   9.404   3.110  11.254
 4104W        W 7848   0.280   7.811   0.253
 4105W        W 7849   0.281   1.759   8.905
 4106W        W 7850   4.459   1.040  10.990
 4107W        W 7851   7.494   2.718   1.790
 4108W        W 7852   8.329   0.925   9.235
 4109W        W 7853   4.689   3.020   0.108
 4110W        W 7854   5.863   2.393   0.044
 4111W        W 7855   7.375   5.039  11.380
 4112W        W 7856   7.449   3.240   1.886
 4113W        W 7857   1.226   7.441   2.176
 4114W        W 7858   4.166   0.786  10.393
 4115W        W 7859   6.753   1.466  11.949
 4116W        W 7860   2.616   3.866  11.430
 4117W        W 7861   6.952   0.973   0.285
 4118W        W 7862   1.436   8.660  10.495
 4119W        W 7863   8.335   9.815  10.221
 4120W        W 7864   8.041   6.029   0.006
 4121W        W 7865   1.899   8.532  11.101
 4122W        W 7866   9.776   9.849   9.827
 4123W        W 7867   3.783   1.810   9.019
 4124W        W 7868   4.452   8.085   0.084
 4125W        W 7869   5.192   9.438   1.155
 4126W        W 7870   1.323  10.304   9.759
 4127W        W 7871   6.513   3.646   3.202
 4128W        W 7872   2.810   8.550  10.654
 4129W        W 7873   5.535   6.397  11.113
 4130W        W 7874   7.045   8.649   1.101
 4131W        W 7875   5.129   8.964   0.869
 4132W        W 7876  10.172  10.277   1.433
 4133W        W 7877   1.430   9.089   2.692
 4134W        W 7878   4.635   5.454   1.843
 4135W        W 7879   1.271   8.461   8.734
 4136W        W 7880   4.480  10.455  11.417
 4137W        W 7881  10.395   3.658   2.142
 4138W        W 7882   8.068   7.501   9.596
 4139W        W 7883   4.068   6.824  11.532
 4140W        W 7884   7.469   7.658   3.320
 4141W        W 7885  10.066   6.842   2.422
 4142W        W 7886   2.821   4.565  10.474
 4143W        W 7887   6.103   0.209  11.767
 4144W        W 7888   0.440   0.390   2.437
 4145W        W 7889   2.777   5.522   0.757
 4146W        W 7890   4.587  10.348  10.534
 4147W        W 7891   6.114   0.330   8.838
 4148W        W 7892   5.615  10.381   1.446
 4149W        W 7893   6.906   3.827  10.023
 4150W        W 7894   2.835   8.882   2.803
 4151W        W 7895   7.572   5.262   1.396
 4152W        W 7896   2.309   5.648   0.509
 4153W        W 7897   9.384   7.598  11.049
 4154W        W 7898   7.435   9.029   2.471
 4155W        W 7899   8.667   2.403  11.865
 4156W        W 7900   8.808   6.132   9.924
 4157W        W 7901   8.953  10.015   1.798
 4158W        W 7902   3.742   8.094  10.462
 4159W        W 7903   3.297   2.163   0.903
 4160W        W 7904   0.012   2.900   0.824
 4161W        W 7905   0.738   2.902   1.477
 4162W        W 7906   4.170   8.849   9.409
 4163W        W 7907   3.609   8.053   9.037
 4164W        W 7908   1.617   2.237   2.311
 4165W        W 7909   0.281   6.006   3.192
 4166W        W 7910   4.774  10.352  10.994
 4167W        W 7911   0.244   6.087   2.672
 4168W        W 7912   0.886   5.547   9.742
 4169W        W 7913   5.050   6.504   2.656
 4170W        W 7914   1.818   9.929   9.341
 4171W        W 7915   8.010   8.842   9.568
 4172W        W 7916   5.134   1.273  10.021
 4173W        W 7917   4.794   2.036   0.998
 4174W        W 7918   6.625   4.258   2.318
 4175W        W 7919   2.762   0.693   1.478
 4176W        W 7920   3.278   8.601   2.853
 4177W        W 7921   6.125   0.461  11.294
 4178W        W 7922   7.763   0.431  11.000
 4179W        W 7923   2.507   6.977   0.857
 4180W        W 7924   9.999   5.514   8.914
 4181W        W 7925   8.118   3.036  11.703
 4182W        W 7926   5.485   0.771   2.477
 4183W        W 7927   5.583   7.315   0.686
 4184W        W 7928   2.240   8.614   2.812
 4185W        W 7929   3.301   3.708   1.177
 4186W        W 7930   7.219   3.881   8.944
 4187W        W 7931   2.808   8.487   9.698
 4188W        W 7932   6.077   3.836  10.705
 4189W        W 7933   7.653   4.247   3.542
 4190W        W 7934   2.443   4.780   3.141
 4191W        W 7935   0.307   1.232  11.261
 4192W        W 7936   8.008   7.392  11.052
 4193W        W 7937   6.504   5.859  10.385
 4194W        W 7938   0.289   9.526  10.056
 4195W        W 7939   5.048   6.650  11.253
 4196W        W 7940   2.167   6.048   2.798
 4197W        W 7941   9.241   9.030   0.925
 4198W        W 7942   0.065   3.763   9.423
 4199W        W 7943   2.226   3.310   2.344
 4200W        W 7944   7.075   1.145   3.379
 4201W        W 7945   3.207   7.658   2.721
 4202W        W 7946   9.431   5.048   2.332
 4203W        W 7947   8.702   1.775  10.617
 4204W        W 7948   3.171   5.608  11.019
 4205W        W 7949   1.805   0.316   2.600
 4206W        W 7950   9.989   2.785   2.260
 4207W        W 7951   6.723   4.821   1.298
 4208W        W 7952   3.037   8.808  11.454
 4209W        W 7953   8.807   8.897  11.475
 4210W        W 7954   2.145   8.980  10.939
 4211W        W 7955   5.904   7.661   0.508
 4212W        W 7956   8.518   8.095   3.090
 4213W        W 7957   3.631   5.642   0.311
 4214W        W 7958   4.973   6.898   0.877
 4215W        W 7959   2.299   9.360   1.655
 4216W        W 7960   2.603   2.368  11.413
 4217W        W 7961   2.871   5.077   9.850
 4218W        W 7962   8.025   2.357   9.543
 4219W        W 7963   6.719   2.329   9.754
 4220W        W 7964   0.981   8.334   3.239
 4221W        W 7965   8.904   4.628   9.822
 4222W        W 7966   1.919   6.523   0.564
 4223W        W 7967   3.397   8.158   1.866
 4224W        W 7968   4.286  10.294   1.865
 4225W        W 7969   3.339   5.784  10.577
 4226W        W 7970   6.029   1.728  10.269
 4227W        W 7971   1.386   3.721   1.848
 4228W        W 7972   3.421   9.584   0.677
 4229W        W 7973   7.138   6.557   3.303
 4230W        W 7974   5.389   2.038   1.703
 4231W        W 7975   2.123   4.668   0.533
 4232W        W 7976   4.959   1.464   3.459
 4233W        W 7977   9.252   8.500  10.401
 4234W        W 7978   8.553   8.058   1.531
 4235W        W 7979   3.778   3.224   1.873
 4236W        W 7980   0.257   6.467   9.429
 4237W        W 7981   5.996   1.743  10.773
 4238W        W 7982   3.710   4.872   3.126
 4239W        W 7983   2.096   1.321   0.198
 4240W        W 7984   2.748   2.363  10.789
 4241W        W 7985   7.916   1.335   0.468
 4242W        W 7986   6.978   4.191   0.258
 4243W        W 7987   5.628   0.479  11.910
 4244W        W 7988   2.300   6.719   1.286
 4245W        W 7989   9.807   9.288   0.339
 4246W        W 7990   4.081   9.002  10.772
 4247W        W 7991   7.188   1.830   2.953
 4248W        W 7992   6.991   8.416   9.266
 4249W        W 7993   8.854   4.063  11.394
 4250W        W 7994   2.242   4.450  10.329
 4251W        W 7995  10.049   5.552   0.883
 4252W        W 7996   6.923   7.131   1.505
 4253W        W 7997   3.102   5.013   9.366
 4254W        W 7998   8.064   8.885   2.855
 4255W        W 7999   9.207   0.570   2.316
 4256W        W 8000   5.690   0.408   9.220
 4257W        W 8001   2.705   3.615   9.121
 4258W        W 8002   8.929   1.464  10.224
 4259W        W 8003   0.698   9.284   2.752
 4260W        W 8004   7.816   5.055   3.268
 4261W        W 8005   0.805   1.847   1.252
 4262W        W 8006   6.639   8.543   3.222
 4263W        W 8007   7.447   3.432   2.396
 4264W        W 8008  10.497   5.573   0.222
 4265W        W 8009   4.705   5.489   1.339
 4266W        W 8010   3.171   5.144  11.940
 4267W        W 8011   3.275   0.475   9.559
 4268W        W 8012   7.619   4.753  10.325
 4269W        W 8013   4.329   4.907  11.306
 4270W        W 8014   1.596   8.848  10.039
 4271W        W 8015   6.003   6.593  10.313
 4272W        W 8016   4.300   1.769  10.637
 4273W        W 8017   8.479   6.665  10.959
 4274W        W 8018   0.309   8.650  11.985
 4275W        W 8019   7.380  10.486   0.980
 4276W        W 8020   6.573   9.886   9.252
 4277W        W 8021   7.184   0.886   9.974
 4278W        W 8022   6.253   2.876   2.337
 4279W        W 8023   3.721   8.221   0.268
 4280W        W 8024   8.438   3.214   9.204
 4281W        W 8025  10.456   0.357   2.620
 4282W        W 8026   4.014   4.283   9.532
 4283W        W 8027   4.183   3.547   1.712
 4284W        W 8028   6.737   3.726   9.011
 4285W        W 8029   9.594   7.614  11.886
 4286W        W 8030   3.836   2.789   2.278
 4287W        W 8031   0.513   9.300   1.230
 4288W        W 8032   6.253   3.196   3.243
 4289W        W 8033   9.857   4.261  10.504
 4290W        W 8034   7.720   2.759  11.881
 4291W        W 8035   3.625   6.885   2.292
 4292W        W 8036   1.241   8.752   1.870
 4293W        W 8037   4.177   3.979   1.468
 4294W        W 8038   4.089   9.909   2.901
 4295W        W 8039   2.627   5.963  10.869
 4296W        W 8040   8.536   0.557   2.642
 4297W        W 8041   5.694   0.330   1.699
 4298W        W 8042   0.998   7.485  10.775
 4299W        W 8043   6.660   0.493   3.115
 4300W        W 8044   6.131   8.164   3.669
 4301W        W 8045   2.844   8.791   0.790
 4302W        W 8046   2.287   7.693   3.530
 4303W        W 8047   5.963   7.184   0.347
 4304W        W 8048   6.740   9.578   3.421
 4305W        W 8049   4.268   9.940  10.495
 4306W        W 8050   9.389   7.806   8.986
 4307W        W 8051   4.220   3.085  11.748
 4308W        W 8052   6.458   4.054   1.860
 4309W        W 8053   6.235   7.927  11.581
 4310W        W 8054   3.292   0.258   3.184
 4311W        W 8055   4.232   8.126  11.290
 4312W        W 8056   1.346   5.790  10.474
 4313W        W 8057   5.829   1.860   1.445
 4314W        W 8058   2.128   5.141  10.770
 4315W        W 8059   7.954   2.287   0.459
 4316W        W 8060   5.693   9.346   3.602
 4317W        W 8061   8.505   2.741   1.685
 4318W        W 8062   4.130  10.413  11.926
 4319W        W 8063   8.760   6.604  11.804
 4320W        W 8064   6.925   0.447   0.285
 4321W        W 8065   0.382   1.463   2.723
 4322W        W 8066   0.211   6.026   8.986
 4323W        W 8067   2.787   0.332   1.053
 4324W        W 8068   3.874   3.896   0.488
 4325W        W 8069   2.962   7.914  11.698
 4326W        W 8070   3.978   8.302  10.036
 4327W        W 8071   2.738   6.900  10.733
 4328W        W 8072   4.081   0.074   9.944
 4329W        W 8073   3.774   9.546   8.980
 4330W        W 8074   2.786   8.046   0.186
 4331W        W 8075   4.668   2.037   9.519
 4332W        W 8076   5.996   5.014   0.936
 4333W        W 8077   2.665   6.626  11.421
 4334W        W 8078   6.617   0.251   2.624
 4335W        W 8079   2.690   2.307   9.065
 4336W        W 8080   0.440   1.713   2.209
 4337W        W 8081   9.811   7.970   0.197
 4338W        W 8082   2.608   8.019  11.362
 4339W        W 8083   9.918   7.983   3.244
 4340W        W 8084   4.456   2.400  11.031
 4341W        W 8085  10.452   8.961   1.788
 4342W        W 8086   2.773   5.879   3.918
 4343W        W 8087   8.858   8.756   0.743
 4344W        W 8088   4.081   7.991   2.846
 4345W        W 8089   5.687   6.231   1.896
 4346W        W 8090  10.454   6.569  10.137
 4347W        W 8091   9.885   3.703   2.169
 4348W        W 8092   3.868   5.087   9.766
 4349W        W 8093   0.820   4.164   9.065
 4350W        W 8094   3.302   8.958   1.937
 4351W        W 8095   8.544   6.696   8.990
 4352W        W 8096   9.429   9.375  11.031
 4353W        W 8097   5.995  10.028   0.331
 4354W        W 8098   3.173  10.455  11.888
 4355W        W 8099   9.767   7.444   8.895
 4356W        W 8100   6.059   9.328   9.144
 4357W        W 8101   1.953   1.780   0.042
 4358W        W 8102   2.548   8.538   1.858
 4359W        W 8103   7.601   5.678  10.342
 4360W        W 8104   5.163   5.234  10.060
 4361W        W 8105  10.335   0.926   0.950
 4362W        W 8106   8.098   3.174   0.698
 4363W        W 8107   9.116   8.603   0.300
 4364W        W 8108   3.617   4.228   2.742
 4365W        W 8109   0.520   1.336   1.372
 4366W        W 8110   0.980   6.174  10.356
 4367W        W 8111   9.345   4.944  11.397
 4368W        W 8112   0.827   9.634   1.841
 4369W        W 8113   0.244   9.978   3.172
 4370W        W 8114   2.741   4.729  11.737
 4371W        W 8115   5.254   7.670   0.502
 4372W        W 8116   9.358   9.537   1.018
 4373W        W 8117   2.788   3.656   9.615
 4374W        W 8118   1.743   2.929   1.228
 4375W        W 8119   1.355   2.755   0.951
 4376W        W 8120   4.666   0.080   9.041
 4377W        W 8121   9.841   3.552   0.224
 4378W        W 8122   2.802   7.204   1.822
 4379W        W 8123   1.155   2.829  11.216
 4380W        W 8124   1.850   9.530   1.468
 4381W        W 8125   7.613   2.313   1.391
 4382W        W 8126   4.943   2.240  10.959
 4383W        W 8127  10.258   8.068   0.922
 4384W        W 8128   8.367   7.129   3.622
 4385W        W 8129   5.933   3.970   0.278
 4386W        W 8130   7.512   8.452   0.981
 4387W        W 8131   3.714   4.527   3.570
 4388W        W 8132   9.023   5.501  10.763
 4389W        W 8133   0.547   5.755  11.536
 4390W        W 8134   6.075   2.865   0.173
 4391W        W 8135   1.631   4.134  10.268
 4392W        W 8136   4.350   2.203   1.901
 4393W        W 8137   3.384  10.056   9.534
 4394W        W 8138   3.827   2.647   1.410
 4395W        W 8139   9.708   0.188  11.770
 4396W        W 8140   9.907   8.845   3.007
 4397W        W 8141   5.496   7.248   1.947
 4398W        W 8142   2.114   3.953  10.229
 4399W        W 8143   7.985   5.622   0.330
 4400W        W 8144   2.349   7.873  10.542
 4401W        W 8145   2.302   5.520  10.450
 4402W        W 8146   8.599   5.771   2.229
 4403W        W 8147   4.877   0.750   3.143
 4404W        W 8148   0.472   2.219   3.085
 4405W        W 8149   8.148   4.734   0.669
 4406W        W 8150   3.639   1.438   2.000
 4407W        W 8151   0.957   0.069   3.528
 4408W        W 8152   8.126   8.494   2.114
 4409W        W 8153   2.816   4.522   2.404
 4410W        W 8154   0.755   3.117   0.299
 4411W        W 8155   2.847   3.824   2.810
 4412W        W 8156   9.515   9.017   2.319
 4413W        W 8157   8.685   6.729   2.366
 4414W        W 8158   6.433   4.134   9.159
 4415W        W 8159   7.237   9.247   8.744
 4416W        W 8160   9.863   5.055   9.591
 4417W        W 8161   3.145  10.488   2.765
 4418W        W 8162   6.892   5.535   2.522
 4419W        W 8163   3.633   1.341   2.950
 4420W        W 8164   3.824   9.014   9.044
 4421W        W 8165   6.980   3.162   1.703
 4422W        W 8166   0.805   8.929   9.887
 4423W        W 8167   3.422   3.145  11.544
 4424W        W 8168   4.041   7.541   1.785
 4425W        W 8169   0.324   6.623   1.809
 4426W        W 8170   9.396   4.407  11.358
 4427W        W 8171   3.196   5.407   0.445
 4428W        W 8172   6.245   3.951   3.544
 4429W        W 8173   4.707   7.088   0.154
 4430W        W 8174   4.708   3.505  11.957
 4431W        W 8175   5.619   1.769   9.008
 4432W        W 8176   8.845   4.772   3.400
 4433W        W 8177   1.386   5.216   9.816
 4434W        W 8178   8.403   3.263   9.733
 4435W        W 8179   7.947   9.124  11.069
 4436W        W 8180   0.818   1.227   2.836
 4437W        W 8181   3.267   8.805   9.267
 4438W        W 8182   7.555   2.006   0.676
 4439W        W 8183   7.514   8.291   8.569
 4440W        W 8184   7.452   7.887   0.453
 4441W        W 8185   8.499   6.454  10.432
 4442W        W 8186   0.679   6.845   9.429
 4443W        W 8187   5.656   5.064   9.328
 4444W        W 8188   5.962   1.278   3.209
 4445W        W 8189   5.091   0.818   8.741
 4446W        W 8190   5.598   0.008   3.450
 4447W        W 8191   6.020   7.370   0.947
 4448W        W 8192   1.271   9.918   1.810
 4449W        W 8193   6.902   5.201   2.929
 4450W        W 8194   7.957   9.765   9.846
 4451W        W 8195   6.395   6.929   0.516
 4452W        W 8196   9.466   9.978   8.950
 4453W        W 8197   9.799   4.695  11.404
 4454W        W 8198   5.939   2.778   3.284
 4455W        W 8199   4.644  10.082   8.880
 4456W        W 8200   4.415   3.650   8.625
 4457W        W 8201   8.959   6.594   3.141
 4458W        W 8202   4.679   6.902   2.651
 4459W        W 8203   2.706   7.500   3.318
 4460W        W 8204   5.642   0.784   0.342
 4461W        W 8205   3.244   5.960   4.172
 4462W        W 8206   9.694   5.693   1.389
 4463W        W 8207   1.780   4.615  10.216
 4464W        W 8208   9.176   9.799  11.176
 4465W        W 8209   7.934   8.932   2.338
 4466W        W 8210   7.031   2.190   9.342
 4467W        W 8211   4.791   1.766   0.495
 4468W        W 8212   4.794   7.326   2.957
 4469W        W 8213   1.343   1.260   9.394
 4470W        W 8214   9.836  10.477   1.749
 4471W        W 8215  10.276   5.110   8.745
 4472W        W 8216   7.611   6.597   9.537
 4473W        W 8217   2.202   2.232   0.133
 4474W        W 8218   8.462   2.893   0.344
 4475W        W 8219   8.305   6.534   0.583
 4476W        W 8220   5.613   5.683   2.746
 4477W        W 8221   5.163   4.361  10.334
 4478W        W 8222   6.414   2.207   8.851
 4479W        W 8223   3.281   9.112   0.797
 4480W        W 8224   4.330   3.396  10.389
 4481W        W 8225   4.869   1.539   1.198
 4482W        W 8226   7.543   1.851  11.811
 4483W        W 8227   8.083   4.004   3.630
 4484W        W 8228   3.638   2.718   9.528
 4485W        W 8229   2.761   4.332  11.436
 4486W        W 8230   9.386   1.875   9.128
 4487W        W 8231   3.423   4.432   4.003
 4488W        W 8232   9.276   3.260  10.368
 4489W        W 8233   7.766   3.213  10.975
 4490W        W 8234   1.380   5.608   1.969
 4491W        W 8235   1.839   8.182   2.250
 4492W        W 8236   7.911   3.684  10.808
 4493W        W 8237   5.270   4.687   2.673
 4494W        W 8238   1.862   7.098   0.041
 4495W        W 8239   6.948   1.292   1.283
 4496W        W 8240   5.441   7.431  11.686
 4497W        W 8241   1.754   4.605   9.194
 4498W        W 8242   8.627   4.193  10.012
 4499W        W 8243   5.163   8.009  11.353
 4500W        W 8244  10.216   6.691   2.922
 4501W        W 8245   4.709  10.214   1.202
 4502W        W 8246  10.243   7.268   2.164
 4503W        W 8247   4.603   3.251   0.561
 4504W        W 8248   1.861   4.724   2.830
 4505W        W 8249   0.219   7.485   3.295
 4506W        W 8250   3.938   9.912  11.895
 4507W        W 8251   8.100   8.256   1.672
 4508W        W 8252   9.382   7.130   8.688
 4509W        W 8253   3.159   0.904   9.309
 4510W        W 8254   1.973   3.254   0.544
 4511W        W 8255   5.922   2.113   9.635
 4512W        W 8256   5.243   7.533   8.520
 4513W        W 8257   6.785   8.919  11.458
 4514W        W 8258   9.068   3.267   3.443
 4515W        W 8259  10.092   2.215   1.139
 4516W        W 8260   1.311   7.120   0.879
 4517W        W 8261   8.520   2.162   8.754
 4518W        W 8262   7.321   2.199   1.780
 4519W        W 8263   8.517   0.253   1.246
 4520W        W 8264  10.390   0.873   9.235
 4521W        W 8265   0.784   2.938   3.690
 4522W        W 8266   9.841   6.628   3.307
 4523W        W 8267   3.842   5.682   2.693
 4524W        W 8268   8.472  10.221   1.871
 4525W        W 8269   8.632   4.167  10.934
 4526W        W 8270   4.155   9.878   8.871
 4527W        W 8271   1.143   2.342   2.194
 4528W        W 8272   6.924   7.594   8.940
 4529W        W 8273   1.434   3.121   9.566
 4530W        W 8274   2.804  10.411  11.069
 4531W        W 8275   8.243   5.972  10.426
 4532W        W 8276   6.677   1.547   1.700
 4533W        W 8277   3.808   8.614  10.442
 4534W        W 8278   4.359   0.016   0.806
 4535W        W 8279   2.466   7.644  10.994
 4536W        W 8280   3.267   3.014   2.867
 4537W        W 8281   1.770   0.200   2.093
 4538W        W 8282   8.487   6.294   8.601
 4539W        W 8283   7.508   2.165   0.206
 4540W        W 8284   6.936   7.428  11.706
 4541W        W 8285   3.281   6.530   9.962
 4542W        W 8286   6.049   3.802  11.760
 4543W        W 8287   2.093   4.799  11.155
 4544W        W 8288   2.405   5.080   1.920
 4545W        W 8289   3.286   7.869  10.352
 4546W        W 8290   0.735   7.891   0.522
 4547W        W 8291  10.235   7.000  10.295
 4548W        W 8292   2.025   5.033   9.485
 4549W        W 8293   4.636   5.053   1.103
 4550W        W 8294   2.317   0.703  11.510
 4551W        W 8295   4.074   9.085   2.579
 4552W        W 8296   7.144   9.336   9.771
 4553W        W 8297   9.870   6.121   3.373
 4554W        W 8298   9.703  10.437   9.083
 4555W        W 8299   7.437   7.410   8.947
 4556W        W 8300   5.712   4.174  11.858
 4557W        W 8301   6.562   7.601   3.180
 4558W        W 8302  10.099   5.622  11.305
 4559W        W 8303   8.980   8.868   2.830
 4560W        W 8304   2.381   3.667  10.565
 4561W        W 8305   5.660   0.312   2.242
 4562W        W 8306   0.250  10.433  11.707
 4563W        W 8307  10.351   1.671   3.455
 4564W        W 8308   0.302   0.130   0.704
 4565W        W 8309   3.297   3.813   1.672
 4566W        W 8310   7.114   9.014  10.462
 4567W        W 8311   7.367   7.155   1.172
 4568W        W 8312   4.592   6.208   2.762
 4569W        W 8313   8.668   6.970  11.397
 4570W        W 8314   5.954   8.609  11.010
 4571W        W 8315   1.277   3.208   1.153
 4572W        W 8316   8.210   9.404   2.271
 4573W        W 8317   6.482   4.080   0.331
 4574W        W 8318   3.195   9.839   1.937
 4575W        W 8319   2.640   7.675   9.064
 4576W        W 8320   0.714   4.339  11.719
 4577W        W 8321   4.233   9.079  11.593
 4578W        W 8322   7.950   7.525   9.060
 4579W        W 8323   3.312   1.258  11.965
 4580W        W 8324   8.104   6.672   8.723
 4581W        W 8325   3.554   1.433  11.537
 4582W        W 8326   3.920   9.617  10.289
 4583W        W 8327   1.670   2.759  11.297
 4584W        W 8328   5.373   9.558   2.493
 4585W        W 8329   9.216  10.327   9.267
 4586W        W 8330   7.279   8.479   0.269
 4587W        W 8331   8.026  10.116   0.851
 4588W        W 8332   9.521   2.791  10.382
 4589W        W 8333   5.158   0.341  10.098
 4590W        W 8334   7.346   8.535   2.302
 4591W        W 8335   7.137   5.043   2.504
 4592W        W 8336   3.122  10.439  10.451
 4593W        W 8337   2.436   3.302   9.768
 4594W        W 8338   2.434   5.582   2.767
 4595W        W 8339   7.863   5.509   3.544
 4596W        W 8340  10.327   6.555   3.425
 4597W        W 8341   7.825   8.788  11.452
 4598W        W 8342   7.847   3.167   2.624
 4599W        W 8343   2.316   0.236   0.350
 4600W        W 8344   0.820   3.961   0.695
 4601W        W 8345   3.873   4.070  10.002
 4602W        W 8346   1.352   6.504  11.546
 4603W        W 8347   6.675   2.296   1.226
 4604W        W 8348   1.227   1.540  11.697
 4605W        W 8349   2.228   9.956   3.516
 4606W        W 8350   9.495   7.069   0.481
 4607W        W 8351   1.353   2.321   1.732
 4608W        W 8352  10.314   9.246   0.432
 4609W        W 8353   0.151   1.785   3.055
 4610W        W 8354   4.657   3.612  11.470
 4611W        W 8355   5.080   1.742   9.775
 4612W        W 8356   7.688   3.589   1.614
 4613W        W 8357   1.164   0.579  11.911
 4614W        W 8358   5.431   7.961   9.102
 4615W        W 8359   9.471   2.327   8.878
 4616W        W 8360   2.174   6.735   3.373
 4617W        W 8361   2.748   7.067  11.659
 4618W        W 8362   6.106   6.567   2.403
 4619W        W 8363   4.461   4.365   0.202
 4620W        W 8364   6.901   0.675   2.611
 4621W        W 8365   5.236   3.019   1.619
 4622W        W 8366   1.328   2.410   2.721
 4623W        W 8367   0.162   5.190   0.546
 4624W        W 8368   7.037   2.703   9.526
 4625W        W 8369   3.632   6.388   3.114
 4626W        W 8370   0.068   7.956   9.415
 4627W        W 8371   1.437   8.895   1.420
 4628W        W 8372   1.673   4.053   0.183
 4629W        W 8373   6.693   7.513  10.763
 4630W        W 8374  10.086   2.628   8.795
 4631W        W 8375   9.951  10.061   8.758
 4632W        W 8376   8.971   9.619  10.306
 4633W        W 8377   3.698   3.124   0.960
 4634W        W 8378   0.868   4.081   9.943
 4635W        W 8379   2.292   4.311  11.228
 4636W        W 8380   1.893   6.394   1.120
 4637W        W 8381   9.079   5.022   1.949
 4638W        W 8382   0.729   1.365  11.540
 4639W        W 8383   3.349   9.251   9.048
 4640W        W 8384   5.416   7.581  11.198
 4641W        W 8385   6.961   2.351  11.195
 4642W        W 8386   5.399   8.542   2.417
 4643W        W 8387   9.350  10.275  11.316
 4644W        W 8388   3.814   1.351   2.465
 4645W        W 8389   5.350   3.627   8.149
 4646W        W 8390   6.549   9.528   2.397
 4647W        W 8391   2.842   3.243   2.099
 4648W        W 8392   5.723   8.818   3.558
 4649W        W 8393   8.543   6.093  11.310
 4650W        W 8394   1.024   1.354   0.418
 4651W        W 8395  10.483   9.617   0.121
 4652W        W 8396   0.222   1.113  10.270
 4653W        W 8397   3.964   6.614   1.977
 4654W        W 8398   3.408   5.189   1.940
 4655W        W 8399   2.710   7.193  10.304
 4656W        W 8400   6.257   1.740   1.139
 4657W        W 8401   6.629   9.070   3.226
 4658W        W 8402   4.102   9.162   0.173
 4659W        W 8403   2.351   1.250   9.584
 4660W        W 8404   4.291   0.339  11.700
 4661W        W 8405   7.432   4.986   4.065
 4662W        W 8406   7.813  10.323   9.060
 4663W        W 8407   0.673   6.810   0.321
 4664W        W 8408   8.060   6.120  11.507
 4665W        W 8409   6.240   7.020  11.969
 4666W        W 8410   7.168   1.406  10.281
 4667W        W 8411   0.793   2.606   0.356
 4668W        W 8412   0.938   4.795  10.445
 4669W        W 8413   9.410   8.976  10.669
 4670W        W 8414   6.078   2.859  11.239
 4671W        W 8415   3.205   1.874   2.674
 4672W        W 8416   6.442   5.477  11.297
 4673W        W 8417   3.897   3.158  10.277
 4674W        W 8418   2.864   8.289   0.908
 4675W        W 8419   4.548   3.186   8.427
 4676W        W 8420   4.579   4.080   8.382
 4677W        W 8421   7.984   6.064  10.995
 4678W        W 8422   8.209   7.440  11.913
 4679W        W 8423   8.137   1.170   9.645
 4680W        W 8424   9.376   6.290   2.476
 4681W        W 8425   7.418   3.624   9.417
 4682W        W 8426   1.200   8.884   9.077
 4683W        W 8427   0.700   4.358  11.215
 4684W        W 8428   8.352   8.952   2.021
 4685W        W 8429   7.838   0.901   0.236
 4686W        W 8430  10.458   7.084   2.659
 4687W        W 8431   4.012   1.663   0.812
 4688W        W 8432   4.401   4.009   4.042
 4689W        W 8433   8.673   9.942   0.540
 4690W        W 8434   9.441   3.281   8.928
 4691W        W 8435   0.209   1.438   0.281
 4692W        W 8436   8.412   4.784   1.187
 4693W        W 8437   3.205   9.381   1.665
 4694W        W 8438   2.508   9.117   8.574
 4695W        W 8439   5.155   6.962   2.863
 4696W        W 8440   9.544   1.054   9.466
 4697W        W 8441   4.097   8.708  11.947
 4698W        W 8442   7.644   3.085  11.462
 4699W        W 8443   6.342   6.946   1.013
 4700W        W 8444   5.277   8.032   1.783
 4701W        W 8445   0.053   6.874   2.202
 4702W        W 8446   9.705   5.954   0.939
 4703W        W 8447   3.650   4.313  11.502
 4704W        W 8448   9.878   3.879  11.827
 4705W        W 8449   4.618   2.678   8.307
 4706W        W 8450   7.716   5.385   9.950
 4707W        W 8451   7.606   7.896  11.574
 4708W        W 8452   8.376  10.222  11.302
 4709W        W 8453   0.926   2.115  10.976
 4710W        W 8454   7.557   6.061   1.753
 4711W        W 8455   4.850   8.189   1.400
 4712W        W 8456   4.050   1.635   3.154
 4713W        W 8457   1.620   0.317  11.715
 4714W        W 8458   4.200   5.755   1.836
 4715W        W 8459   7.470   1.771  10.981
 4716W        W 8460   7.722   6.319   9.971
 4717W        W 8461   7.079   3.227   8.412
 4718W        W 8462   3.703   6.029   9.919
 4719W        W 8463   1.382   2.888  10.309
 4720W        W 8464   2.398   8.356   0.055
 4721W        W 8465   8.114   7.630   0.814
 4722W        W 8466   3.601   6.381   2.250
 4723W        W 8467   2.574   6.470   3.193
 4724W        W 8468   5.271   0.425  11.361
 4725W        W 8469   0.352   8.379   2.408
 4726W        W 8470   3.731   2.340  10.861
 4727W        W 8471   5.100   8.467   1.974
 4728W        W 8472   5.210   0.340   2.482
 4729W        W 8473   4.221   5.613   9.756
 4730W        W 8474   3.756   5.470  10.625
 4731W        W 8475   0.450   2.969   2.634
 4732W        W 8476   9.290   4.368   2.917
 4733W        W 8477   2.128   6.241   3.258
 4734W        W 8478   8.996   4.571  11.590
 4735W        W 8479   7.042   5.203  11.041
 4736W        W 8480   7.999   5.507  11.814
 4737W        W 8481   2.628   9.962  11.413
 4738W        W 8482  10.059  10.242   3.496
 4739W        W 8483   8.957   9.858   9.032
 4740W        W 8484   4.660  10.059   2.195
 4741W        W 8485   5.562   9.376  11.241
 4742W        W 8486   3.174   8.659  10.969
 4743W        W 8487   9.589   6.586   0.633
 4744W        W 8488   2.638  10.430  10.558
 4745W        W 8489   2.127   2.578   1.119
 4746W        W 8490   7.003   1.366   2.911
 4747W        W 8491   8.393   9.386   1.764
 4748W        W 8492   4.765   4.495   9.989
 4749W        W 8493   9.387   7.942   1.486
 4750W        W 8494   3.609   7.941   9.958
 4751W        W 8495   5.958   4.189   1.707
 4752W        W 8496   9.861   2.984  11.568
 4753W        W 8497   6.884   3.226  10.784
 4754W        W 8498   8.886   9.944   8.523
 4755W        W 8499  10.406   6.094  10.315
 4756W        W 8500   2.268   0.334   0.909
 4757W        W 8501   0.700   6.004  11.953
 4758W        W 8502   6.014   5.210  11.131
 4759W        W 8503  10.311   3.663   9.867
 4760W        W 8504   5.772   8.938  11.464
 4761W        W 8505   9.879   6.413   9.969
 4762W        W 8506   4.899   1.176  11.740
 4763W        W 8507   9.927   4.396  11.927
 4764W        W 8508   8.839   7.228   9.448
 4765W        W 8509   4.717   0.330   0.545
 4766W        W 8510   7.397   5.312   3.086
 4767W        W 8511   3.910  10.076   9.575
 4768W        W 8512   8.754   0.915  10.965
 4769W        W 8513   1.401   5.529   1.418
 4770W        W 8514   6.659   1.497   0.840
 4771W        W 8515   0.959   7.688   1.364
 4772W        W 8516  10.269   7.511  11.427
 4773W        W 8517   3.622   9.878   2.666
 4774W        W 8518   5.915   2.415   0.914
 4775W        W 8519   2.176   4.042  11.647
 4776W        W 8520   3.191   8.007   1.425
 4777W        W 8521   1.287   2.842   2.437
 4778W        W 8522   7.055   8.433   2.909
 4779W        W 8523   2.224   3.050   0.969
 4780W        W 8524   7.897   9.939   0.301
 4781W        W 8525   7.011   8.578  10.189
 4782W        W 8526   6.138   8.852   0.795
 4783W        W 8527   9.445   3.807   8.739
 4784W        W 8528   3.272   3.615   2.142
 4785W        W 8529   8.516   9.760  11.941
 4786W        W 8530   5.653   8.538  10.465
 4787W        W 8531   9.086   9.302   2.519
 4788W        W 8532   2.561   0.941  11.913
 4789W        W 8533   1.195  10.322   3.147
 4790W        W 8534   5.656   5.982   2.336
 4791W        W 8535   1.476   8.126  10.541
 4792W        W 8536   9.460   4.593   1.488
 4793W        W 8537   5.945   8.440   2.329
 4794W        W 8538   5.870   8.887   0.344
 4795W        W 8539   4.291   1.890   0.452
 4796W        W 8540   6.054   9.829   9.131
 4797W        W 8541   8.844   1.233   0.864
 4798W        W 8542   4.657   4.995   2.134
 4799W        W 8543   6.709   1.151  10.569
 4800W        W 8544   3.386   3.171   9.083
 4801W        W 8545   8.145   9.360   8.786
 4802W        W 8546   3.741   2.317  10.330
 4803W        W 8547   7.405   7.081   2.170
 4804W        W 8548   8.962   3.750   3.351
 4805W        W 8549   5.069   9.444  11.231
 4806W        W 8550   7.444  10.367   8.288
 4807W        W 8551   0.766   3.829   1.183
 4808W        W 8552   5.462   6.875  10.120
 4809W        W 8553   2.937   7.706  11.113
 4810W        W 8554   9.866   0.330   9.492
 4811W        W 8555   6.784   3.710   0.138
 4812W        W 8556   5.008   7.411   1.837
 4813W        W 8557   9.392   6.054   3.577
 4814W        W 8558   7.436   9.826   2.551
 4815W        W 8559  10.128   8.448  11.393
 4816W        W 8560   5.501   2.193   9.324
 4817W        W 8561   3.318   5.488   2.379
 4818W        W 8562   1.461   4.640   3.178
 4819W        W 8563   7.719   5.635   9.507
 4820W        W 8564   0.717   8.312  10.352
 4821W        W 8565  10.298   1.153   0.422
 4822W        W 8566   4.745   9.615   0.125
 4823W        W 8567   8.958   6.519  10.216
 4824W        W 8568   0.240  10.162   0.908
 4825W        W 8569   6.387   2.726   9.002
 4826W        W 8570   4.978   6.619  11.770
 4827W        W 8571   2.603   7.694   9.588
 4828W        W 8572   5.575   0.783   9.563
 4829W        W 8573  10.000   7.387  10.986
 4830W        W 8574   6.798   4.225   8.798
 4831W        W 8575  10.348   9.541  11.629
 4832W        W 8576   3.136   8.073   3.025
 4833W        W 8577   8.470   9.774   8.797
 4834W        W 8578   3.234   5.490  11.518
 4835W        W 8579   0.574   7.598   2.682
 4836W        W 8580   9.365   5.349   2.741
 4837W        W 8581   3.363   9.430  10.434
 4838W        W 8582   7.701   1.940   8.475
 4839W        W 8583   5.479   6.695  11.540
 4840W        W 8584   6.909   6.967   9.467
 4841W        W 8585   0.386   1.588   0.924
 4842W        W 8586  10.221   0.701   1.835
 4843W        W 8587   1.863   8.636   1.324
 4844W        W 8588   3.067   5.189   3.596
 4845W        W 8589   3.808   1.871  10.580
 4846W        W 8590   0.872   9.445  10.871
 4847W        W 8591   0.146   0.440  10.009
 4848W        W 8592   4.294   1.699  11.983
 4849W        W 8593   5.443   7.791   9.970
 4850W        W 8594   0.420   8.747  10.470
 4851W        W 8595   7.139   5.968  11.560
 4852W        W 8596   0.355   9.477  10.839
 4853W        W 8597   3.541   0.728   3.114
 4854W        W 8598   0.125   8.317   1.292
 4855W        W 8599   4.154   5.555  11.045
 4856W        W 8600   9.840   1.684   3.367
 4857W        W 8601   7.610   2.735  10.872
 4858W        W 8602   5.581   3.139   0.709
 4859W        W 8603   3.246   2.990   0.720
 4860W        W 8604   3.584   4.916  11.708
 4861W        W 8605   2.356   9.491   3.297
 4862W        W 8606   5.716   3.399  10.298
 4863W        W 8607   0.800   9.742  11.788
 4864W        W 8608   8.527   2.843  10.991
 4865W        W 8609   4.827   2.548   0.242
 4866W        W 8610   9.939   3.832   3.145
 4867W        W 8611   5.474   1.386   3.370
 4868W        W 8612   4.196   4.995   2.995
 4869W        W 8613   3.597   8.120   2.595
 4870W        W 8614   0.791  10.402   9.062
 4871W        W 8615   7.478   0.919   2.018
 4872W        W 8616   9.345   8.778   3.239
 4873W        W 8617  10.156   9.880  11.307
 4874W        W 8618   0.472   3.929   9.663
 4875W        W 8619   1.249   1.484   2.833
 4876W        W 8620   0.985   7.547   0.892
 4877W        W 8621   5.618   3.837  11.456
 4878W        W 8622   7.092   8.310   0.719
 4879W        W 8623   3.846   0.362  11.993
 4880W        W 8624   6.054   0.176  10.373
 4881W        W 8625   6.300   5.143   1.333
 4882W        W 8626   7.915   2.369  11.045
 4883W        W 8627   8.913   0.952  10.330
 4884W        W 8628   3.612   5.263   0.711
 4885W        W 8629   3.746   7.902  10.953
 4886W        W 8630   4.948   9.361   2.196
 4887W        W 8631   1.104   4.109   9.495
 4888W        W 8632   4.186   9.254   2.098
 4889W        W 8633   6.528   6.489   0.276
 4890W        W 8634   7.019   3.042  10.334
 4891W        W 8635   3.115  10.273   0.356
 4892W        W 8636   4.935   4.226   0.378
 4893W        W 8637   5.169  10.439   9.243
 4894W        W 8638   0.834   2.424   1.272
 4895W        W 8639   0.503   3.476  11.434
 4896W        W 8640   2.406   9.043   3.041
 4897W        W 8641   0.660   2.182   2.243
 4898W        W 8642   5.400   0.302   1.253
 4899W        W 8643   0.164   2.243   9.836
 4900W        W 8644   0.073   3.146   3.396
 4901W        W 8645   6.287   4.744  10.736
 4902W        W 8646   4.363   5.370  11.645
 4903W        W 8647   2.414   0.261   1.413
 4904W        W 8648   3.802   2.167   0.873
 4905W        W 8649   2.881   8.541   0.317
 4906W        W 8650   6.581   3.249   2.295
 4907W        W 8651   2.364   7.912   1.571
 4908W        W 8652   9.710   7.496   3.213
 4909W        W 8653   8.124   5.493  10.254
 4910W        W 8654   2.431   2.219   3.335
 4911W        W 8655   1.926   1.169   2.969
 4912W        W 8656   4.386   0.312  10.311
 4913W        W 8657   9.398   6.235   1.962
 4914W        W 8658   4.808   1.750  11.972
 4915W        W 8659   9.136   9.910   0.744
 4916W        W 8660   6.426   7.239   1.407
 4917W        W 8661   3.796   5.657   0.946
 4918W        W 8662   8.390   5.679  11.026
 4919W        W 8663   6.630   8.771   9.399
 4920W        W 8664   0.499   3.099  11.860
 4921W        W 8665   3.734   6.474   0.940
 4922W        W 8666   0.904   5.812  11.170
 4923W        W 8667   9.500   3.054   3.304
 4924W        W 8668   7.576   4.517   1.806
 4925W        W 8669   9.591   0.634   9.805
 4926W        W 8670   0.312   8.988  10.023
 4927W        W 8671   7.452   8.370  10.991
 4928W        W 8672   1.844   5.443   9.187
 4929W        W 8673   1.688   3.623   2.260
 4930W        W 8674   5.209   0.182  11.820
 4931W        W 8675   1.900   5.619   2.704
 4932W        W 8676   7.626   6.982  11.434
 4933W        W 8677   8.386   1.930   3.345
 4934W        W 8678  10.342   5.136  11.114
 4935W        W 8679   2.278   7.358  10.575
 4936W        W 8680   9.001   1.947   1.703
 4937W        W 8681   5.990   3.307  11.914
 4938W        W 8682   7.152   2.136   1.229
 4939W        W 8683   4.576   2.220   9.020
 4940W        W 8684   6.117  10.395  11.339
 4941W        W 8685   2.652  10.215   2.137
 4942W        W 8686   3.353   7.870  11.332
 4943W        W 8687   4.342   6.259   1.969
 4944W        W 8688   1.551   7.849   3.642
 4945W        W 8689   9.853   0.849   9.091
 4946W        W 8690   4.591   8.856   0.840
 4947W        W 8691   2.776   8.391  11.724
 4948W        W 8692   7.993   0.216   1.987
 4949W        W 8693   3.185   5.736   3.581
 4950W        W 8694   0.242   6.664   2.835
 4951W        W 8695   7.324   2.633   9.112
 4952W        W 8696   5.462   3.925   3.966
 4953W        W 8697   1.915   0.371   1.318
 4954W        W 8698   4.281   6.369  11.471
 4955W        W 8699   9.078   2.683  11.765
 4956W        W 8700   0.485   4.672   9.083
 4957W        W 8701   0.035   7.506   0.609
 4958W        W 8702   7.709   1.621  11.405
 4959W        W 8703   3.533   4.865   9.053
 4960W        W 8704   8.933   1.343   2.980
 4961W        W 8705   1.883   3.366   8.918
 4962W        W 8706   2.685   0.736   9.381
 4963W        W 8707   7.134   9.791   3.113
 4964W        W 8708   4.191  10.350   1.293
 4965W        W 8709   8.382   0.508   2.161
 4966W        W 8710   2.370   7.243   2.155
 4967W        W 8711   9.236   6.518  11.622
 4968W        W 8712  10.408   8.873  11.367
 4969W        W 8713   4.099   0.802  11.851
 4970W        W 8714   2.187   3.804   2.198
 4971W        W 8715   3.166   5.695   8.772
 4972W        W 8716   0.458   5.960   9.466
 4973W        W 8717   0.755   6.611   3.431
 4974W        W 8718   5.642   2.353   1.372
 4975W        W 8719   2.097   0.192   8.991
 4976W        W 8720   9.004   9.950   0.064
 4977W        W 8721   0.925   6.587   9.819
 4978W        W 8722  10.480   6.602   1.039
 4979W        W 8723   9.470   4.634  11.839
 4980W        W 8724   5.944   6.063  11.037
 4981W        W 8725   6.600   5.031   1.732
 4982W        W 8726   8.508   7.911  11.468
 4983W        W 8727   5.663   0.225   2.753
 4984W        W 8728   6.162   1.779   3.228
 4985W        W 8729   0.832   3.094   3.206
 4986W        W 8730   6.610  10.246  10.604
 4987W        W 8731   5.548   3.832   9.946
 4988W        W 8732   9.900   8.209   2.350
 4989W        W 8733   5.992   6.405   2.890
 4990W        W 8734   5.207  10.360   1.062
 4991W        W 8735   5.553   1.759  11.030
 4992W        W 8736   5.270   8.894   8.864
 4993W        W 8737   8.317   0.498  10.907
 4994W        W 8738   5.079   8.839   9.855
 4995W        W 8739   8.847   1.859  11.151
 4996W        W 8740   3.172  10.075   2.413
 4997W        W 8741   9.570   0.990  10.480
 4998W        W 8742   1.650   7.188   1.383
 4999W        W 8743   5.732   7.569   8.357
 5000W        W 8744   4.692   4.116  11.393
 5001W        W 8745   1.228  10.240   1.400
 5002W        W 8746   3.477  10.440   0.730
 5003W        W 8747   6.565   9.096   2.632
 5004W        W 8748   5.884  10.363   3.041
 5005W        W 8749   4.861   8.304   8.526
 5006W        W 8750   2.662   1.571   1.778
 5007W        W 8751   1.884   2.607   0.266
 5008W        W 8752   1.696   8.912   0.896
 5009W        W 8753   2.338   8.484   9.917
 5010W        W 8754   7.575   6.030  11.302
 5011W        W 8755   8.854   3.730  10.102
 5012W        W 8756   0.921   6.540  10.715
 5013W        W 8757   5.160   8.531   3.304
 5014W        W 8758   4.568   3.245   2.270
 5015W        W 8759   7.635   6.463   8.550
 5016W        W 8760   0.262   4.268  10.942
 5017W        W 8761   0.420   3.423   9.583
 5018W        W 8762   5.514   8.530  11.313
 5019W        W 8763   5.299   1.153   2.017
 5020W        W 8764   6.442   6.805   3.623
 5021W        W 8765   4.209   3.844   3.217
 5022W        W 8766   5.244   1.878  11.729
 5023W        W 8767   1.787   8.192   2.775
 5024W        W 8768   6.450   7.820   9.049
 5025W        W 8769   8.854   5.237   2.783
 5026W        W 8770  10.324   8.822  10.517
 5027W        W 8771   0.638   9.840   0.777
 5028W        W 8772   1.219  10.488   2.663
 5029W        W 8773   7.962   2.484  11.537
 5030W        W 8774   5.131   7.717   2.213
 5031W        W 8775   2.726   6.388   9.443
 5032W        W 8776   2.850   0.332   2.477
 5033W        W 8777   7.433   2.132   2.588
 5034W        W 8778   5.127   9.391   8.998
 5035W        W 8779   1.349   4.839   8.877
 5036W        W 8780   9.422   3.830   2.056
 5037W        W 8781   1.374   7.616  10.314
 5038W        W 8782   9.470   8.536  10.872
 5039W        W 8783   5.109   3.029   9.909
 5040W        W 8784   9.817   5.025   9.037
 5041W        W 8785   0.683   4.380   9.511
 5042W        W 8786   7.828   0.853   9.390
 5043W        W 8787   8.917   7.987   0.722
 5044W        W 8788   9.877   1.344  11.694
 5045W        W 8789   0.009   7.829  10.355
 5046W        W 8790   3.104   1.470   2.986
 5047W        W 8791   8.635   8.681  11.019
 5048W        W 8792  10.431   7.660  11.902
 5049W        W 8793   4.248   7.232  11.940
 5050W        W 8794   5.346   2.390   0.148
 5051W        W 8795   0.270   2.557  11.293
 5052W        W 8796   6.185   8.361   0.904
 5053W        W 8797   6.972   6.858   1.951
 5054W        W 8798   4.794   1.309   0.230
 5055W        W 8799   3.246   8.200   0.030
 5056W        W 8800   0.454   4.651   3.050
 5057W        W 8801   4.761   0.247   1.061
 5058W        W 8802   2.152   0.667  11.030
 5059W        W 8803   9.793   3.120   0.557
 5060W        W 8804   0.532   8.831   2.580
 5061W        W 8805   6.122   2.413   0.452
 5062W        W 8806   2.628   9.114  11.512
 5063W        W 8807   5.704   6.360   0.437
 5064W        W 8808   0.190   7.924  10.847
 5065W        W 8809   0.950   9.938  10.886
 5066W        W 8810   6.146   9.385   2.704
 5067W        W 8811   6.990   7.006   3.003
 5068W        W 8812  10.309   6.263  11.747
 5069W        W 8813   3.267   7.368  11.289
 5070W        W 8814   1.684   1.322   2.515
 5071W        W 8815   0.374   2.635   2.207
 5072W        W 8816   7.442   0.436   0.758
 5073W        W 8817  10.052   7.392   2.628
 5074W        W 8818   8.933   3.809   1.226
 5075W        W 8819   6.896   9.538   8.988
 5076W        W 8820   1.215   0.425  10.893
 5077W        W 8821   6.740   4.176   3.584
 5078W        W 8822   9.827   6.698  10.396
 5079W        W 8823   9.776   3.201   2.488
 5080W        W 8824   1.892   9.449   0.829
 5081W        W 8825   9.989   2.717  10.598
 5082W        W 8826   0.931  10.474  10.040
 5083W        W 8827   6.124   0.159   3.498
 5084W        W 8828   9.358   8.066   0.479
 5085W        W 8829   1.810  10.263   9.995
 5086W        W 8830   3.162   4.945  10.355
 5087W        W 8831   2.578   9.410  10.244
 5088W        W 8832   3.641   4.122  10.476
 5089W        W 8833   2.400   8.587   0.939
 5090W        W 8834   6.093   3.906   2.200
 5091W        W 8835   3.165   8.138  10.939
 5092W        W 8836  10.164   9.343   3.504
 5093W        W 8837   3.722   1.368   8.743
 5094W        W 8838   5.985   5.503   2.419
 5095W        W 8839   5.988   3.238   1.432
 5096W        W 8840   4.106   6.087  11.084
 5097W        W 8841   4.741   8.954  11.513
 5098W        W 8842   2.169   4.454   9.458
 5099W        W 8843   7.454   3.730   8.505
 5100W        W 8844   4.772   7.390   2.414
 5101W        W 8845   8.393   5.525   2.649
 5102W        W 8846   5.037   8.850  11.917
 5103W        W 8847   7.112   3.200   9.399
 5104W        W 8848   0.411   8.011   3.316
 5105W        W 8849   4.363   2.778  11.372
 5106W        W 8850   9.883   3.207   1.472
 5107W        W 8851   3.717   3.652   3.396
 5108W        W 8852   2.967   9.796   0.775
 5109W        W 8853   2.513   4.885   9.519
 5110W        W 8854   2.684   1.236   2.286
 5111W        W 8855   6.187   1.359  11.042
 5112W        W 8856   2.614   3.249  10.339
 5113W        W 8857   4.313   7.501   8.918
 5114W        W 8858   6.536   7.355   3.669
 5115W        W 8859   1.344   6.078   2.186
 5116W        W 8860   9.222   5.962  10.255
 5117W        W 8861   5.071   9.436   1.664
 5118W        W 8862   3.896   1.123   3.360
 5119W        W 8863   3.634   9.614   9.479
 5120W        W 8864   9.721   0.534   2.274
 5121W        W 8865   5.171   2.317  11.397
 5122W        W 8866   1.971   1.702   1.011
 5123W        W 8867   7.071   9.458   2.307
 5124W        W 8868   9.289  10.442   8.760
 5125W        W 8869   5.098   5.608   1.654
 5126W        W 8870   1.476   7.123   9.315
 5127W        W 8871   8.826   0.902   0.327
 5128W        W 8872   9.392   7.543   9.665
 5129W        W 8873   9.082   0.898   1.250
 5130W        W 8874   6.568   6.211   1.329
 5131W        W 8875   0.851   4.822  11.824
 5132W        W 8876   6.579   3.565  11.230
 5133W        W 8877   8.834   7.192   1.145
 5134W        W 8878   6.491   8.347  11.360
 5135W        W 8879   4.329   0.422   8.707
 5136W        W 8880   9.388   3.656  11.951
 5137W        W 8881   2.449   0.913   0.473
 5138W        W 8882   1.259   0.068   2.171
 5139W        W 8883   8.270  10.491   9.279
 5140W        W 8884   8.260   1.409   2.737
 5141W        W 8885   4.036   7.392   8.470
 5142W        W 8886   2.422   6.499  10.585
 5143W        W 8887   5.737   6.522   9.883
 5144W        W 8888   3.325   6.452   0.599
 5145W        W 8889   4.709   1.135   9.753
 5146W        W 8890   6.694   6.463  10.762
 5147W        W 8891   2.279   6.964  10.944
 5148W        W 8892   3.617   7.678   0.259
 5149W        W 8893   5.199   4.175  11.775
 5150W        W 8894   0.491   7.062   3.380
 5151W        W 8895   6.548   0.715  11.489
 5152W        W 8896   2.740   5.554   0.262
 5153W        W 8897   3.817   0.551   8.814
 5154W        W 8898   4.597   7.850   1.080
 5155W        W 8899   8.600   2.899  11.826
 5156W        W 8900   8.972   7.235   8.353
 5157W        W 8901   4.580   6.292   9.446
 5158W        W 8902  10.079  10.251   9.949
 5159W        W 8903   1.918   5.259  11.353
 5160W        W 8904  10.076   4.006   0.865
 5161W        W 8905   8.026   5.901   1.910
 5162W        W 8906   2.006  10.493   1.680
 5163W        W 8907   6.145   0.787   1.651
 5164W        W 8908   4.311   7.215   2.453
 5165W        W 8909   2.154   1.114   2.358
 5166W        W 8910   7.682   5.976   8.417
 5167W        W 8911   7.662   4.603   0.261
 5168W        W 8912   2.717   8.138   8.853
 5169W        W 8913   6.947   5.899   1.457
 5170W        W 8914   9.081   9.433   9.307
 5171W        W 8915   7.454   2.597   0.460
 5172W        W 8916   5.605   1.247   2.837
 5173W        W 8917   0.167   6.095  10.781
 5174W        W 8918   4.170   2.402  10.623
 5175W        W 8919   3.245   9.989   3.466
 5176W        W 8920   6.107   7.868   9.432
 5177W        W 8921   1.444   7.572   0.625
 5178W        W 8922   8.132   6.986  11.352
 5179W        W 8923   5.168   2.693  11.760
 5180W        W 8924   0.376   3.611  11.902
 5181W        W 8925   4.599   7.541   3.882
 5182W        W 8926   9.016   2.635   2.345
 5183W        W 8927   2.709   5.469  10.786
 5184W        W 8928   6.940   2.636   3.011
 5185W        W 8929   0.359   7.970  11.760
 5186W        W 8930  10.260   1.673   0.410
 5187W        W 8931   1.383   6.244   1.183
 5188W        W 8932   2.442   3.775   0.012
 5189W        W 8933   2.687   3.211   0.799
 5190W        W 8934   8.531   8.129   2.042
 5191W        W 8935   6.548   0.443   9.253
 5192W        W 8936   3.098   3.120  11.918
 5193W        W 8937   2.381   2.995  11.518
 5194W        W 8938   0.300   2.338   0.203
 5195W        W 8939   4.868   8.844   0.414
 5196W        W 8940   6.674   7.709   2.474
 5197W        W 8941   4.782   0.815  11.317
 5198W        W 8942   1.932   1.380  10.899
 5199W        W 8943   9.570   4.208  10.932
 5200W        W 8944   3.749   1.886  10.049
 5201W        W 8945   0.946  10.285  10.514
 5202W        W 8946   7.452   1.339   1.201
 5203W        W 8947   5.144   8.807  10.530
 5204W        W 8948   5.784   8.434   8.628
 5205W        W 8949   8.156   0.892   0.685
 5206W        W 8950   4.530   4.238   3.196
 5207W        W 8951   8.422   9.966   2.502
 5208W        W 8952  10.434   8.785   0.293
 5209W        W 8953   1.925   9.065   2.305
 5210W        W 8954   5.750   6.907  11.909
 5211W        W 8955   4.641   2.327   1.496
 5212W        W 8956   5.133   4.792   9.778
 5213W        W 8957   3.366   8.867  10.310
 5214W        W 8958   2.918   0.940   9.787
 5215W        W 8959   6.966   3.772  11.525
 5216W        W 8960   1.428   2.465   8.853
 5217W        W 8961   3.772   7.042   1.770
 5218W        W 8962  10.335   9.937   0.662
 5219W        W 8963   2.693  10.361   1.248
 5220W        W 8964   3.658   9.593   2.025
 5221W        W 8965   5.466   4.608  11.875
 5222W        W 8966   1.669   4.115   2.160
 5223W        W 8967  10.444   5.554   1.857
 5224W        W 8968   0.453   7.165   9.783
 5225W        W 8969   2.461   7.412   8.646
 5226W        W 8970   2.630   4.975  10.740
 5227W        W 8971   5.337   0.318   9.600
 5228W        W 8972   0.780   8.780  10.849
 5229W        W 8973   9.526   0.956   2.498
 5230W        W 8974   4.247   0.386   9.214
 5231W        W 8975   9.768   1.827   1.972
 5232W        W 8976   8.092   6.650   1.084
 5233W        W 8977   6.547   6.691  11.755
 5234W        W 8978   0.495   5.597   8.822
 5235W        W 8979   3.273   1.980   0.410
 5236W        W 8980   5.452   8.893  10.978
 5237W        W 8981   0.989   8.899   8.613
 5238W        W 8982   9.345   8.949  11.498
 5239W        W 8983   6.086   0.865   0.655
 5240W        W 8984   6.113   6.609   1.742
 5241W        W 8985   1.168   1.787   9.338
 5242W        W 8986   5.483   8.000   8.585
 5243W        W 8987   4.801   3.154   1.819
 5244W        W 8988   0.016   1.313   9.000
 5245W        W 8989   2.900   5.709   2.614
 5246W        W 8990   9.399   7.044   1.954
 5247W        W 8991   0.080   7.578   2.789
 5248W        W 8992   0.304  10.496   2.736
 5249W        W 8993   2.421   8.900  10.488
 5250W        W 8994   9.612   9.434   9.473
 5251W        W 8995   7.679   8.023   9.399
 5252W        W 8996   6.391   3.913   8.668
 5253W        W 8997   8.915   2.313  10.049
 5254W        W 8998   2.923   3.777   0.189
 5255W        W 8999   3.505   3.032   1.415
 5256W        W 9000   7.537  10.468   3.230
 5257W        W 9001   1.343   3.840   3.248
 5258W        W 9002   8.711   0.862   9.568
 5259W        W 9003   4.639   5.965   2.292
 5260W        W 9004   2.700   5.355   9.462
 5261W        W 9005   6.466   1.792  10.983
 5262W        W 9006   5.679   9.982  10.594
 5263W        W 9007   1.698   9.929   2.137
 5264W        W 9008   4.240   5.275   2.081
 5265W        W 9009   5.519   8.827  10.082
 5266W        W 9010   5.411   7.144   8.222
 5267W        W 9011   5.535   8.902  11.924
 5268W        W 9012   3.080   4.247   1.838
 5269W        W 9013   1.692   6.008   3.052
 5270W        W 9014   3.022   7.454   9.375
 5271W        W 9015   3.606   6.150   3.588
 5272W        W 9016   9.419   8.914   1.403
 5273W        W 9017   0.376  10.270   9.523
 5274W        W 9018   1.493   7.341   2.646
 5275W        W 9019   8.850   2.236   2.692
 5276W        W 9020   6.591   1.026   2.418
 5277W        W 9021   6.182  10.175   9.479
 5278W        W 9022   8.356   9.037  10.763
 5279W        W 9023   0.576   8.217   0.153
 5280W        W 9024   2.329   1.691   1.369
 5281W        W 9025  10.482   6.733   0.078
 5282W        W 9026   4.336   6.075   0.229
 5283W        W 9027   2.898   9.906   9.537
 5284W        W 9028   7.033   5.831   2.126
 5285W        W 9029   9.077   5.073  10.038
 5286W        W 9030  10.271   4.853   0.853
 5287W        W 9031   2.490   9.934   0.962
 5288W        W 9032   4.291   2.100   0.937
 5289W        W 9033   0.794   1.858   8.879
 5290W        W 9034   6.486   3.219   1.492
 5291W        W 9035   5.309   3.327   8.571
 5292W        W 9036   5.449   9.837   3.804
 5293W        W 9037   5.120   8.995   1.438
 5294W        W 9038   5.195   2.828   3.877
 5295W        W 9039   7.908   1.806   0.283
 5296W        W 9040   7.871   6.378   2.010
 5297W        W 9041   1.663   6.039  10.865
 5298W        W 9042   0.302   0.883   8.922
 5299W        W 9043   5.762   2.863   1.100
 5300W        W 9044   8.657   5.766   8.362
 5301W        W 9045   0.549   5.506   0.463
 5302W        W 9046   7.488   4.721   3.608
 5303W        W 9047   7.963   5.712   0.863
 5304W        W 9048   7.901   2.270   0.983
 5305W        W 9049   0.287  10.386  11.179
 5306W        W 9050   8.183   5.896   3.372
 5307W        W 9051   6.997   8.056  10.485
 5308W        W 9052   7.964  10.257   1.740
 5309W        W 9053   6.119  10.374   0.691
 5310W        W 9054   7.317   4.525   9.977
 5311W        W 9055   3.549   2.621   0.963
 5312W        W 9056   4.774   2.273   3.439
 5313W        W 9057   3.921   3.972   2.411
 5314W        W 9058   2.244   7.091  10.052
 5315W        W 9059   7.481  10.004   9.771
 5316W        W 9060   1.360   1.846   2.483
 5317W        W 9061   5.778   4.655   1.900
 5318W        W 9062   9.484   2.652  11.458
 5319W        W 9063   3.169   3.493   0.732
 5320W        W 9064   9.494   3.890   2.912
 5321W        W 9065   5.725   4.650   2.415
 5322W        W 9066   0.475   3.790   2.617
 5323W        W 9067   4.151   7.322  11.464
 5324W        W 9068   8.396   4.286   2.335
 5325W        W 9069   0.024   5.694   0.704
 5326W        W 9070   0.888   0.129   9.545
 5327W        W 9071   8.508   5.745  10.057
 5328W        W 9072  10.493   2.636  10.442
 5329W        W 9073   5.577   1.455   1.701
 5330W        W 9074   8.939   6.558   8.680
 5331W        W 9075   7.927   4.940   1.093
 5332W        W 9076   7.510   4.452   4.034
 5333W        W 9077   3.784   5.405   2.224
 5334W        W 9078  10.300   1.381  11.967
 5335W        W 9079   8.989   8.393   2.047
 5336W        W 9080   5.557   3.937   9.067
 5337W        W 9081   8.060   9.370   1.357
 5338W        W 9082   8.903   4.186   9.554
 5339W        W 9083   9.018   8.587   9.942
 5340W        W 9084   3.778   3.097   8.731
 5341W        W 9085   7.020   6.942   2.477
 5342W        W 9086   5.507  10.090   8.609
 5343W        W 9087   7.651   9.275  11.448
 5344W        W 9088   9.219   7.001   1.470
 5345W        W 9089   0.145   5.045   2.861
 5346W        W 9090   6.750   6.555   9.775
 5347W        W 9091   9.775   9.352   3.129
 5348W        W 9092   9.542   6.931   2.584
 5349W        W 9093   4.202   6.376  10.626
 5350W        W 9094   3.785   0.504   1.988
 5351W        W 9095   5.857   3.262   8.555
 5352W        W 9096   8.541   4.315   0.296
 5353W        W 9097   8.594   5.192  10.935
 5354W        W 9098   0.271   5.109   9.299
 5355W        W 9099   5.536   6.154   9.219
 5356W        W 9100   9.309   0.076   2.459
 5357W        W 9101   7.138   8.959   1.479
 5358W        W 9102   9.423   4.684   3.308
 5359W        W 9103   5.075   6.025  10.566
 5360W        W 9104   1.407   4.624   1.673
 5361W        W 9105   9.189  10.481   1.175
 5362W        W 9106   0.282   3.186   1.439
 5363W        W 9107   7.005   0.702  11.840
 5364W        W 9108   0.291   3.644   1.198
 5365W        W 9109   0.887   6.532  11.915
 5366W        W 9110   0.506   3.579   0.744
 5367W        W 9111   0.562   9.620  11.270
 5368W        W 9112   3.316   1.795   9.275
 5369W        W 9113   1.423  10.476  10.757
 5370W        W 9114   4.959   1.951   1.466
 5371W        W 9115   4.892   8.071   3.189
 5372W        W 9116   3.222   2.290   9.111
 5373W        W 9117   5.422   5.608  10.494
 5374W        W 9118  10.377   4.004   1.300
 5375W        W 9119   7.572   5.299   0.890
 5376W        W 9120   1.986   6.374  10.285
 5377W        W 9121   6.987   4.717  10.880
 5378W        W 9122   0.804   9.978   1.476
 5379W        W 9123   5.633   3.620   9.468
 5380W        W 9124  10.321   0.345  11.407
 5381W        W 9125   6.480   1.141   1.419
 5382W        W 9126   3.731   8.588   9.419
 5383W        W 9127   6.430   0.920  10.978
 5384W        W 9128   0.990   1.853   0.776
 5385W        W 9129   1.297   2.693   9.825
 5386W        W 9130   6.155   6.434   0.697
 5387W        W 9131   2.783   6.518   1.199
 5388W        W 9132   3.055   3.167   3.629
 5389W        W 9133  10.335   1.284  11.457
 5390W        W 9134   9.164   6.205   0.474
 5391W        W 9135  10.015   1.121   3.062
 5392W        W 9136   8.566   5.232  10.067
 5393W        W 9137   3.738   7.390  11.016
 5394W        W 9138   8.017   0.863  11.746
 5395W        W 9139   8.867   4.051   2.148
 5396W        W 9140   8.064  10.257   3.238
 5397W        W 9141   3.593  10.426   9.797
 5398W        W 9142   0.885   7.189  11.997
 5399W        W 9143   7.441   8.440   9.568
 5400W        W 9144   3.677   4.589   9.773
 5401W        W 9145   9.017   1.358  11.198
 5402W        W 9146   7.642   8.610   2.717
 5403W        W 9147   1.890   6.869   0.961
 5404W        W 9148   3.842   0.381  10.313
 5405W        W 9149   9.141   3.983  10.986
 5406W        W 9150   9.814   9.625  10.287
 5407W        W 9151   5.048   6.022   2.943
 5408W        W 9152   3.716   9.202   0.520
 5409W        W 9153   8.469   7.937   0.475
 5410W        W 9154   9.743   4.606   9.374
 5411W        W 9155   7.514   2.429   2.200
 5412W        W 9156   7.818   4.379  11.324
 5413W        W 9157   8.457   4.753   2.136
 5414W        W 9158   8.913   1.767   2.345
 5415W        W 9159   1.598   4.168   9.443
 5416W        W 9160   5.548   5.360   1.773
 5417W        W 9161   5.434   4.137   0.281
 5418W        W 9162   8.967   1.290  10.697
 5419W        W 9163   3.097   6.888  11.277
 5420W        W 9164   9.790   7.804   2.775
 5421W        W 9165   4.180   3.560   1.177
 5422W        W 9166   1.332   4.808  10.122
 5423W        W 9167   2.337   9.190   0.227
 5424W        W 9168   5.665   2.713   0.423
 5425W        W 9169   3.121   5.186   0.941
 5426W        W 9170   8.781   6.309   0.817
 5427W        W 9171   7.675  10.057   2.949
 5428W        W 9172   1.812   5.465   9.694
 5429W        W 9173   8.740   8.321   3.566
 5430W        W 9174   9.230   0.311  11.938
 5431W        W 9175   4.177   1.231   2.837
 5432W        W 9176   0.755   9.996   0.274
 5433W        W 9177   7.913   0.478   0.510
 5434W        W 9178   1.845  10.396  11.019
 5435W        W 9179   0.382   2.469   2.679
 5436W        W 9180   4.309   5.520   0.934
 5437W        W 9181   5.520   8.859   9.576
 5438W        W 9182   5.627   5.430   8.962
 5439W        W 9183   3.443   4.096   2.254
 5440W        W 9184   6.625   7.849  11.262
 5441W        W 9185   7.793   5.204  10.494
 5442W        W 9186   3.245   9.509   1.163
 5443W        W 9187   1.656   0.243   9.985
 5444W        W 9188   4.939   5.766  11.384
 5445W        W 9189   6.435   8.090   3.264
 5446W        W 9190   2.330   4.635   1.651
 5447W        W 9191  10.001   0.965  -0.000
 5448W        W 9192   4.969   7.589  11.589
 5449W        W 9193   5.358   1.670   1.304
 5450W        W 9194   2.825   3.387   1.574
 5451W        W 9195   1.396   0.374  10.413
 5452W        W 9196   4.669   8.085  10.532
 5453W        W 9197   1.614   3.027   0.215
 5454W        W 9198   5.544   8.287  10.880
 5455W        W 9199   7.617   7.420   1.698
 5456W        W 9200   2.634   8.470   2.381
 5457W        W 9201   1.829   2.197   0.969
 5458W        W 9202   3.390   3.825   0.379
 5459W        W 9203   8.489   2.297   9.263
 5460W        W 9204   1.626   1.345  11.326
 5461W        W 9205   3.589   1.875   3.036
 5462W        W 9206   1.155   9.539  10.437
 5463W        W 9207   1.773   0.093   8.563
 5464W        W 9208   0.183   9.211  10.461
 5465W        W 9209   3.871  10.365   2.699
 5466W        W 9210   4.411   7.609   2.742
 5467W        W 9211   0.713   3.312   1.160
 5468W        W 9212   3.641   5.699   1.728
 5469W        W 9213   4.083   9.354   9.354
 5470W        W 9214   4.067   7.514  10.627
 5471W        W 9215   1.883   1.420   3.423
 5472W        W 9216   5.009  10.035   3.454
 5473W        W 9217   0.211   7.390   2.315
 5474W        W 9218   1.798   5.469   2.202
 5475W        W 9219   4.672   0.622   9.045
 5476W        W 9220   0.485   3.852   3.122
 5477W        W 9221   4.325   5.135   9.545
 5478W        W 9222   1.895   2.897   8.341
 5479W        W 9223   8.182   5.039  11.796
 5480W        W 9224   8.043   8.636   0.768
 5481W        W 9225   3.229   7.358  10.364
 5482W        W 9226   7.116   0.741   3.065
 5483W        W 9227   0.701   3.089  10.915
 5484W        W 9228  10.429   9.430   2.005
 5485W        W 9229   6.134   9.114   3.418
 5486W        W 9230   1.094   0.441   9.152
 5487W        W 9231   6.175   6.186   2.049
 5488W        W 9232   4.058   9.863   3.468
 5489W        W 9233   7.017   4.594   3.759
 5490W        W 9234   9.253   3.407   9.756
 5491W        W 9235   4.569   4.159  10.893
 5492W        W 9236   5.043   2.387   9.491
 5493W        W 9237   1.213   4.222  11.033
 5494W        W 9238   8.600   7.140   8.704
 5495W        W 9239   9.346   0.886   8.963
 5496W        W 9240   8.862   1.730   8.810
 5497W        W 9241   5.069   6.102   9.543
 5498W        W 9242   6.123   1.957   0.243
 5499W        W 9243   0.804   6.346   2.971
 5500W        W 9244   4.211   3.603  11.724
 5501W        W 9245   3.259   6.156   8.543
 5502W        W 9246   0.669   8.864   9.080
 5503W        W 9247   6.316   1.473   8.387
 5504W        W 9248   4.578   9.268   0.459
 5505W        W 9249   0.966   1.762   0.116
 5506W        W 9250  10.420   4.497   2.578
 5507W        W 9251   8.616   7.553   0.832
 5508W        W 9252   9.370   1.537   9.542
 5509W        W 9253   9.881   1.335  11.190
 5510W        W 9254   4.290   3.101   2.744
 5511W        W 9255   2.875   2.158  10.338
 5512W        W 9256   4.274   5.227   1.420
 5513W        W 9257   7.597   8.804   0.581
 5514W        W 9258   4.752   1.725  10.367
 5515W        W 9259   6.163   7.596   8.066
 5516W        W 9260   9.287   6.240   0.956
 5517W        W 9261   8.482   6.061   2.664
 5518W        W 9262   3.225   7.126   1.154
 5519W        W 9263   2.796   9.747   2.250
 5520W        W 9264   9.426   3.557   2.501
 5521W        W 9265   6.431   2.306  10.976
 5522W        W 9266   6.162   9.678  11.832
 5523W        W 9267   6.464   2.167  11.461
 5524W        W 9268   5.949   4.669  11.726
 5525W        W 9269   7.195   6.650   8.340
 5526W        W 9270   7.133   1.959  11.501
 5527W        W 9271   1.477   7.906   1.920
 5528W        W 9272   9.071   7.001  11.729
 5529W        W 9273   9.188   2.229  10.938
 5530W        W 9274   0.436   6.931  11.884
 5531W        W 9275   7.422   8.018   2.255
 5532W        W 9276   1.217  10.013   0.491
 5533W        W 9277   0.444   7.642   1.872
 5534W        W 9278   3.377   3.650  10.886
 5535W        W 9279   5.745  10.328  10.989
 5536W        W 9280   2.636   8.824  11.955
 5537W        W 9281   1.289   0.994   2.662
 5538W        W 9282   4.574  10.397   3.363
 5539W        W 9283   9.112   8.873  11.059
 5540W        W 9284   2.199   2.512   9.219
 5541W        W 9285   9.418   8.171   3.067
 5542W        W 9286   6.408   5.358  10.421
 5543W        W 9287   6.558   1.736   0.384
 5544W        W 9288   3.265   2.359  10.639
 5545W        W 9289   5.671   8.345   9.960
 5546W        W 9290   7.465   1.502   2.672
 5547W        W 9291   7.908   7.996  10.242
 5548W        W 9292  10.211   2.733   9.307
 5549W        W 9293   1.666   5.047  10.964
 5550W        W 9294   7.099   9.765   3.715
 5551W        W 9295   1.271   4.193   0.929
 5552W        W 9296   9.774   2.816   9.577
 5553W        W 9297   0.855   0.432   1.430
 5554W        W 9298   6.461   0.752   8.815
 5555W        W 9299   4.756  10.086   1.698
 5556W        W 9300   7.484   9.007   3.501
 5557W        W 9301   9.209   1.358   3.398
 5558W        W 9302   8.052   8.006   2.274
 5559W        W 9303   5.604   2.645   2.446
 5560W        W 9304   1.972   9.074   3.315
 5561W        W 9305   7.158   9.745  11.954
 5562W        W 9306   0.693   0.054  11.429
 5563W        W 9307   8.518   3.205   1.405
 5564W        W 9308   9.020   6.045  11.463
 5565W        W 9309   8.322   2.427  10.753
 5566W        W 9310   3.269   7.305   0.209
 5567W        W 9311   8.306   7.129   0.730
 5568W        W 9312   4.211   0.361   1.716
 5569W        W 9313   0.816   4.754   1.498
 5570W        W 9314   0.916  10.184   8.538
 5571W        W 9315   3.410   9.998   0.974
 5572W        W 9316   5.640   4.119   1.219
 5573W        W 9317   7.374   3.156  10.685
 5574W        W 9318   3.685   3.532   2.425
 5575W        W 9319   7.927   9.776   3.375
 5576W        W 9320   9.840   4.711   2.387
 5577W        W 9321   6.530   6.087   0.673
 5578W        W 9322   9.991   4.472  10.978
 5579W        W 9323  10.326   6.125  11.214
 5580W        W 9324   4.203   0.858   8.953
 5581W        W 9325   1.821   7.367   0.907
 5582W        W 9326   4.257   9.496   1.077
 5583W        W 9327   0.878   2.265  11.978
 5584W        W 9328   5.627   7.230   2.813
 5585W        W 9329   4.720   6.465  10.815
 5586W        W 9330   5.555   2.692  11.395
 5587W        W 9331   7.479   8.953   1.056
 5588W        W 9332   2.819   9.066   0.375
 5589W        W 9333   8.081   4.213   3.169
 5590W        W 9334   8.090   5.110   2.591
 5591W        W 9335   6.561   2.662  11.358
 5592W        W 9336   8.092   4.984   1.581
 5593W        W 9337   1.356   1.678   1.184
 5594W        W 9338   9.710   2.252   2.264
 5595W        W 9339   8.374   2.431  10.257
 5596W        W 9340   3.700   0.427   9.829
 5597W        W 9341   8.836   3.146   2.452
 5598W        W 9342   4.034   9.454   8.426
 5599W        W 9343   7.529   1.903   2.149
 5600W        W 9344   8.931   2.637   0.244
 5601W        W 9345   7.050   6.931  11.714
 5602W        W 9346   5.062   2.372  10.480
 5603W        W 9347   6.002   7.916   2.398
 5604W        W 9348   0.036   2.404   0.952
 5605W        W 9349   6.253   4.656   1.569
 5606W        W 9350   2.275   3.355   2.954
 5607W        W 9351   1.995   4.597   3.295
 5608W        W 9352   7.656   6.451   3.434
 5609W        W 9353   7.083  10.190  10.925
 5610W        W 9354   2.202  10.263   9.259
 5611W        W 9355   7.913   0.265   9.526
 5612W        W 9356   2.981   8.480   3.291
 5613W        W 9357   3.123   0.681  10.923
 5614W        W 9358   2.435  10.242   1.673
 5615W        W 9359   8.584   9.363   9.079
 5616W        W 9360   0.726  10.076  11.330
 5617W        W 9361   7.604   2.817  10.374
 5618W        W 9362   8.530   6.427   9.555
 5619W        W 9363   6.950  10.421   1.222
 5620W        W 9364   4.543   0.313  11.035
 5621W        W 9365   0.375   4.509   1.423
 5622W        W 9366   0.720  10.245  11.827
 5623W        W 9367   2.753   8.553   9.196
 5624W        W 9368   3.047   4.247   0.337
 5625W        W 9369   4.591   0.091   1.525
 5626W        W 9370   0.392   9.375   1.808
 5627W        W 9371   0.980   4.657   9.178
 5628W        W 9372  10.216   2.242  10.636
 5629W        W 9373   7.025   9.895   9.993
 5630W        W 9374   4.630   7.208  11.594
 5631W        W 9375   5.543   3.081  10.652
 5632W        W 9376  10.307   1.562   1.343
 5633W        W 9377   4.092   2.600   0.951
 5634W        W 9378   0.956   2.213   3.214
 5635W        W 9379   1.755   0.737  11.405
 5636W        W 9380   3.188   8.698  11.933
 5637W        W 9381   5.831   8.076   4.066
 5638W        W 9382   8.456   8.487   1.250
 5639W        W 9383   8.632   5.290  11.799
 5640W        W 9384   2.272   4.544  11.681
 5641W        W 9385   9.359   4.211  10.470
 5642W        W 9386   2.417   2.911   8.466
 5643W        W 9387   5.589   7.534   9.365
 5644W        W 9388   6.528   3.415   1.022
 5645W        W 9389   8.054   1.647   9.780
 5646W        W 9390   3.251   3.220   1.797
 5647W        W 9391   4.829  10.334   0.715
 5648W        W 9392   1.783   4.700   0.934
 5649W        W 9393   2.619   4.308   2.865
 5650W        W 9394   1.373   1.937   8.884
 5651W        W 9395   4.712   0.424   2.441
 5652W        W 9396   5.732   5.983   3.167
 5653W        W 9397   1.753   4.348  11.773
 5654W        W 9398   4.706   8.019  11.086
 5655W        W 9399   0.863   5.700  10.222
 5656W        W 9400   0.430  10.210  10.405
 5657W        W 9401   2.353   6.981   1.712
 5658W        W 9402   9.774   8.587  10.428
 5659W        W 9403   3.838  10.028   1.679
 5660W        W 9404   5.119   2.562   2.714
 5661W        W 9405   5.194   1.641   8.731
 5662W        W 9406   8.654   0.530   3.131
 5663W        W 9407   6.991   1.198   1.937
 5664W        W 9408   9.105   2.197  11.983
 5665W        W 9409   2.309   9.441   2.246
 5666W        W 9410   3.427   0.945   8.690
 5667W        W 9411   5.298   8.474   1.491
 5668W        W 9412   2.485   6.141   0.476
 5669W        W 9413   3.101   0.794  11.905
 5670W        W 9414   7.452   0.654  11.369
 5671W        W 9415   0.537   6.034   2.203
 5672W        W 9416   7.337   6.107   3.196
 5673W        W 9417   5.633   4.093  10.974
 5674W        W 9418   4.370   8.570   1.312
 5675W        W 9419  10.367   7.031  11.236
 5676W        W 9420   5.897   7.075  10.459
 5677W        W 9421   5.004   7.994   0.818
 5678W        W 9422   6.453   3.646   9.900
 5679W        W 9423   1.707   3.590   9.346
 5680W        W 9424   2.769   1.904   0.430
 5681W        W 9425   2.893   6.953   9.405
 5682W        W 9426   0.895   6.620   8.946
 5683W        W 9427   7.970   2.675   2.342
 5684W        W 9428   4.040   2.646   2.735
 5685W        W 9429   0.926   6.157   2.486
 5686W        W 9430  10.286   7.912   0.405
 5687W        W 9431   8.396   0.168   3.355
 5688W        W 9432  10.400   0.813   3.410
 5689W        W 9433   3.438   0.536   3.572
 5690W        W 9434   4.625   4.097   7.866
 5691W        W 9435   7.356   6.557   0.353
 5692W        W 9436   3.192   9.985   2.942
 5693W        W 9437   6.931   9.839   2.639
 5694W        W 9438   7.690   1.871   2.923
 5695W        W 9439  10.412   8.897   9.680
 5696W        W 9440   3.821   2.762  10.557
 5697W        W 9441   9.375   9.102   0.012
 5698W        W 9442   0.078   2.642   8.629
 5699W        W 9443   8.863   5.806   0.327
 5700W        W 9444   5.007   0.828   2.649
 5701W        W 9445   6.614   6.457   1.812
 5702W        W 9446   8.958   7.435   1.572
 5703W        W 9447   5.356   2.747   3.399
 5704W        W 9448  10.023   0.868   9.586
 5705W        W 9449   2.378   5.780   3.236
 5706W        W 9450   6.458   1.131   1.939
 5707W        W 9451   2.691   8.394   2.890
 5708W        W 9452   7.866   7.441  11.530
 5709W        W 9453   6.154   2.049   2.782
 5710W        W 9454   4.166   7.135   1.476
 5711W        W 9455   8.848   8.806   3.391
 5712W        W 9456   3.408   2.675   2.529
 5713W        W 9457   2.951   1.092   8.329
 5714W        W 9458   9.337   3.033   9.380
 5715W        W 9459   8.828   7.522   3.067
 5716W        W 9460   5.145   5.240   9.050
 5717W        W 9461   9.741   5.603  11.684
 5718W        W 9462  10.138   2.065   3.161
 5719W        W 9463  10.456   2.726   2.578
 5720W        W 9464   6.435   6.052  10.872
 5721W        W 9465   7.219   9.728   8.516
 5722W        W 9466   8.594   4.509   0.785
 5723W        W 9467   4.214   3.118   0.904
 5724W        W 9468   4.377   9.499   2.812
 5725W        W 9469   6.142   8.580   3.374
 5726W        W 9470   7.412  10.182   8.759
 5727W        W 9471   9.392   7.941   0.976
 5728W        W 9472   4.756   4.538   9.061
 5729W        W 9473   2.873   6.681  10.304
 5730W        W 9474   3.554   2.384   0.484
 5731W        W 9475   1.412   8.634   0.125
 5732W        W 9476  10.036   6.479   0.130
 5733W        W 9477   6.216  10.025  10.878
 5734W        W 9478   1.701   8.334   3.612
 5735W        W 9479   4.590   9.077   1.362
 5736W        W 9480   9.036   9.100   0.434
 5737W        W 9481   7.385   3.250   1.346
 5738W        W 9482   5.952   2.613   9.399
 5739W        W 9483   3.642   6.230   8.909
 5740W        W 9484   8.046   2.852   9.737
 5741W        W 9485   0.241   3.037  11.420
 5742W        W 9486   2.101   3.434  10.140
 5743W        W 9487   0.878   2.370  11.443
 5744W        W 9488   1.818   3.376   1.024
 5745W        W 9489   1.738   4.138   1.132
 5746W        W 9490   9.726   4.261   2.135
 5747W        W 9491   0.806   0.457   3.229
 5748W        W 9492   2.731   5.885   8.564
 5749W        W 9493   6.137   1.759   8.793
 5750W        W 9494   9.414   5.539   8.852
 5751W        W 9495   4.084   0.905   2.414
 5752W        W 9496   2.400   4.217   2.410
 5753W        W 9497   8.915   9.942   9.528
 5754W        W 9498   8.716   2.357  11.053
 5755W        W 9499   6.008   3.872   9.260
 5756W        W 9500   1.611   0.715   3.077
 5757W        W 9501   1.454   4.614   2.202
 5758W        W 9502   2.265   2.329  10.648
 5759W        W 9503   6.153   9.375  10.026
 5760W        W 9504   9.007   8.858   2.295
 5761W        W 9505   9.399   7.295  11.490
 5762W        W 9506   1.151   7.936   9.979
 5763W        W 9507   9.280   5.063   0.741
 5764W        W 9508   3.735   3.635   0.915
 5765W        W 9509   9.931   9.521   2.163
 5766W        W 9510   9.569   4.807   3.800
 5767W        W 9511   6.907   6.552   3.761
 5768W        W 9512   9.484   4.821   2.794
 5769W        W 9513   3.342   3.212   9.590
 5770W        W 9514   7.429   2.332   3.058
 5771W        W 9515   4.085   8.231  11.776
 5772W        W 9516   9.004   7.470   8.811
 5773W        W 9517   2.529   0.731  10.076
 5774W        W 9518   9.437   9.099   2.840
 5775W        W 9519   0.219   9.532   2.804
 5776W        W 9520   8.304   6.227   9.985
 5777W        W 9521  10.011   4.527   8.952
 5778W        W 9522   8.396   6.997   1.873
 5779W        W 9523  10.269   4.084   1.860
 5780W        W 9524   1.776   0.830   2.618
 5781W        W 9525   1.056   9.988   1.002
 5782W        W 9526   5.817   0.321   9.719
 5783W        W 9527   3.678   2.239   2.679
 5784W        W 9528   2.362   6.234   1.305
 5785W        W 9529   2.287   2.999   9.344
 5786W        W 9530   9.732   7.658  10.634
 5787W        W 9531   4.600   1.342   1.580
 5788W        W 9532   2.412   9.366  10.748
 5789W        W 9533   9.367   5.855   2.727
 5790W        W 9534   9.454   0.279   1.490
 5791W        W 9535   5.922   6.892   0.754
 5792W        W 9536   7.579   4.603   8.623
 5793W        W 9537   3.115   7.053   9.978
 5794W        W 9538   1.849   9.461   1.977
 5795W        W 9539   5.572   9.934   2.214
 5796W        W 9540   9.102   7.207   0.193
 5797W        W 9541   5.100   5.577   2.669
 5798W        W 9542   6.542   0.304  10.470
 5799W        W 9543   2.277   4.962  10.322
 5800W        W 9544   8.510   8.404   0.714
 5801W        W 9545   9.858   2.656   0.382
 5802W        W 9546   9.583   0.772   1.373
 5803W        W 9547   8.342   0.483  11.784
 5804W        W 9548   7.549   0.576  10.421
 5805W        W 9549   8.157   7.946   9.282
 5806W        W 9550   2.256   0.189  10.903
 5807W        W 9551   2.324   1.586   2.181
 5808W        W 9552   1.869   9.569   3.470
 5809W        W 9553   1.162   9.075  10.679
 5810W        W 9554   6.478   7.798  10.311
 5811W        W 9555   3.615   5.122   0.216
 5812W        W 9556   8.037   6.936  10.853
 5813W        W 9557   6.515   3.237   9.112
 5814W        W 9558   9.072   4.210   8.598
 5815W        W 9559   4.184   5.733   2.330
 5816W        W 9560   0.735   7.470   3.175
 5817W        W 9561   0.692   2.129   0.450
 5818W        W 9562   7.593   1.837   1.151
 5819W        W 9563   3.276   4.182   3.569
 5820W        W 9564   5.962   8.043   8.333
 5821W        W 9565   9.601   5.057  10.051
 5822W        W 9566   8.672   5.820   3.554
 5823W        W 9567   4.886   9.499   9.956
 5824W        W 9568   9.756   3.361  10.219
 5825W        W 9569   4.466   1.841   1.370
 5826W        W 9570   4.284   0.677  11.319
 5827W        W 9571   4.130   7.731  11.828
 5828W        W 9572   2.589   1.703   9.451
 5829W        W 9573   8.103   4.628   9.441
 5830W        W 9574   0.481   5.559   2.419
 5831W        W 9575   6.427   7.434  11.713
 5832W        W 9576   3.242   9.532   3.206
 5833W        W 9577   0.861   8.320   9.056
 5834W        W 9578   8.463   9.891   1.029
 5835W        W 9579   9.072   5.027  11.835
 5836W        W 9580   8.090   4.223   9.106
 5837W        W 9581   3.479   8.431  10.036
 5838W        W 9582   9.452   5.842   9.543
 5839W        W 9583   9.579   9.408   1.465
 5840W        W 9584   6.043   3.032   2.810
 5841W        W 9585   5.761   7.836  11.768
 5842W        W 9586   1.443   3.242  11.340
 5843W        W 9587   9.139   6.632   2.144
 5844W        W 9588   5.220   1.898   0.264
 5845W        W 9589   0.713   4.274   2.762
 5846W        W 9590  10.165   9.075  10.930
 5847W        W 9591   0.386   0.312   9.571
 5848W        W 9592   3.183   7.130   2.646
 5849W        W 9593   7.851   6.929   1.905
 5850W        W 9594   9.014   0.426   3.487
 5851W        W 9595   8.921   3.664   2.487
 5852W        W 9596   4.079   0.931   9.486
 5853W        W 9597   4.476   7.191  10.509
 5854W        W 9598   3.338   3.608  11.897
 5855W        W 9599   2.750   9.832   2.742
 5856W        W 9600   3.652   9.822   3.180
 5857W        W 9601   6.408   9.595   8.835
 5858W        W 9602   3.146   9.767   0.284
 5859W        W 9603   0.187   8.046   1.710
 5860W        W 9604   4.388   5.716   2.795
 5861W        W 9605   6.198   1.444   3.627
 5862W        W 9606   1.849   7.771  10.426
 5863W        W 9607   9.373   2.511   9.392
 5864W        W 9608   8.038   7.721   8.568
 5865W        W 9609   2.725   6.352   4.108
 5866W        W 9610   5.468   5.516   2.264
 5867W        W 9611   5.999  10.178   3.636
 5868W        W 9612   3.188   9.392   2.184
 5869W        W 9613   0.250   5.436  11.818
 5870W        W 9614   0.100   2.673   3.558
 5871W        W 9615   5.415  10.378   2.464
 5872W        W 9616   1.039   0.893   2.217
 5873W        W 9617   0.829   3.578   9.865
 5874W        W 9618   8.300   1.412   2.219
 5875W        W 9619   3.792   4.138   3.246
 5876W        W 9620   8.782  10.340   1.444
 5877W        W 9621   4.075   6.231   2.395
 5878W        W 9622   7.514   3.138   8.676
 5879W        W 9623   4.132   4.128   8.664
 5880W        W 9624   6.938   8.945  10.967
 5881W        W 9625   5.466   2.668   9.642
 5882W        W 9626   3.202   9.323   9.539
 5883W        W 9627   8.910   7.920  11.146
 5884W        W 9628   6.464   5.157   9.850
 5885W        W 9629   1.221  10.071   2.316
 5886W        W 9630   1.175   6.683   9.368
 5887W        W 9631   6.491   7.539   9.541
 5888W        W 9632   8.547   3.039   0.895
 5889W        W 9633   7.392   5.000  10.729
 5890W        W 9634  10.133   2.453   3.525
 5891W        W 9635   3.065   7.121   3.159
 5892W        W 9636   7.122   4.712   2.901
 5893W        W 9637  10.295   6.561   0.559
 5894W        W 9638   0.345   8.474   0.861
 5895W        W 9639   2.040   8.697   3.660
 5896W        W 9640   6.982   7.505   2.883
 5897W        W 9641   6.076  10.084   2.053
 5898W        W 9642   1.660   9.000  11.861
 5899W        W 9643   4.817   6.969  10.830
 5900W        W 9644   0.571   3.138   9.994
 5901W        W 9645   0.256   8.530   1.852
 5902W        W 9646   5.132   3.681  11.656
 5903W        W 9647   5.658   2.834  11.871
 5904W        W 9648   2.263   6.020  11.271
 5905W        W 9649   4.714   5.545  10.724
 5906W        W 9650   4.274   3.360   0.188
 5907W        W 9651   5.448   9.612   9.325
 5908W        W 9652   3.871   5.262   1.731
 5909W        W 9653   4.173   7.487   3.573
 5910W        W 9654   4.136   7.897   9.204
 5911W        W 9655   0.834   1.884  11.633
 5912W        W 9656   5.544   2.915  10.122
 5913W        W 9657   3.481   2.189  11.875
 5914W        W 9658   9.101   7.158   9.883
 5915W        W 9659   3.849   7.104   9.376
 5916W        W 9660   6.736   7.998   1.540
 5917W        W 9661   6.170   9.365   0.828
 5918W        W 9662   0.989   7.453   0.408
 5919W        W 9663   8.603   8.671   0.285
 5920W        W 9664   2.677  10.417   0.091
 5921W        W 9665   8.807   3.289  10.564
 5922W        W 9666   1.256   7.740  11.799
 5923W        W 9667   7.375   5.579   2.620
 5924W        W 9668   8.358  10.219   9.798
 5925W        W 9669   6.741  10.462   3.012
 5926W        W 9670   5.574   9.150   9.175
 5927W        W 9671   3.935   0.607   3.414
 5928W        W 9672   2.078   1.121  11.306
 5929W        W 9673   3.923  10.241   0.817
 5930W        W 9674   6.815   7.930   9.398
 5931W        W 9675   8.823   5.032  11.390
 5932W        W 9676   6.119   0.844   2.290
 5933W        W 9677  10.448   3.709   2.674
 5934W        W 9678  10.037   0.981   2.246
 5935W        W 9679   9.346   1.672   8.628
 5936W        W 9680   2.752   4.093   8.957
 5937W        W 9681   2.802   5.086   0.498
 5938W        W 9682   0.838   3.158  10.430
 5939W        W 9683   8.930   6.425  10.728
 5940W        W 9684   4.762   8.989   3.390
 5941W        W 9685   0.845   2.309  10.514
 5942W        W 9686   0.653   9.743   2.954
 5943W        W 9687   7.530  10.481  10.838
 5944W        W 9688   2.572   0.810   1.011
 5945W        W 9689   0.805   8.845   3.032
 5946W        W 9690   1.835   7.404   3.015
 5947W        W 9691  10.378   0.419   9.440
 5948W        W 9692   2.828   0.348  10.295
 5949W        W 9693   8.936   9.822   2.760
 5950W        W 9694   6.106   8.466   9.031
 5951W        W 9695   5.576   5.367  11.372
 5952W        W 9696   2.276   2.381   8.714
 5953W        W 9697   0.427  10.476   9.969
 5954W        W 9698   2.813   3.165   9.418
 5955W        W 9699   5.049   1.817  11.264
 5956W        W 9700   5.756   5.549  11.817
 5957W        W 9701   2.234   0.287   2.301
 5958W        W 9702   7.538   6.525   2.956
 5959W        W 9703   5.209   9.210  10.219
 5960W        W 9704   5.572   5.589   9.451
 5961W        W 9705   6.988   8.441  11.442
 5962W        W 9706   7.033   1.720   9.055
 5963W        W 9707   5.617   1.240   9.779
 5964W        W 9708   2.343   6.912  11.982
 5965W        W 9709   7.524   9.411  11.928
 5966W        W 9710   0.894   3.610   3.276
 5967W        W 9711   4.029   3.568  10.017
 5968W        W 9712   3.673   5.153  10.232
 5969W        W 9713   8.867   9.441   0.826
 5970W        W 9714   4.978   8.164   9.271
 5971W        W 9715   0.917   5.575  10.716
 5972W        W 9716   1.873   6.533  10.758
 5973W        W 9717   9.787   7.671   1.311
 5974W        W 9718   6.606   7.244   9.138
 5975W        W 9719   2.663   5.145  11.993
 5976W        W 9720   7.554   7.578   8.454
 5977W        W 9721   3.559   0.001   0.223
 5978W        W 9722  10.267   8.662  11.838
 5979W        W 9723   4.246   7.206   0.995
 5980W        W 9724   0.954   3.326  11.276
 5981W        W 9725   2.137   4.938   1.293
 5982W        W 9726   4.304   8.839   8.910
 5983W        W 9727   9.551   2.192  11.281
 5984W        W 9728   1.835   5.987   2.059
 5985W        W 9729   5.603  10.051   9.108
 5986W        W 9730   0.211   8.285  10.409
 5987W        W 9731   0.772   7.391  11.530
 5988W        W 9732   9.214   2.161   2.195
 5989W        W 9733   8.581   1.956  10.153
 5990W        W 9734   7.902   1.396   1.476
 5991W        W 9735   3.390   4.722   2.711
 5992W        W 9736   7.867   7.077  11.888
 5993W        W 9737   8.616   3.879   0.567
 5994W        W 9738   5.555   5.845   1.575
 5995W        W 9739   0.453   6.667   0.844
 5996W        W 9740   6.080   4.787   9.832
 5997W        W 9741   6.414   7.004   9.573
 5998W        W 9742   8.829   3.666   9.589
 5999W        W 9743   7.124   3.635   1.565
 6000W        W 9744   2.502   0.725   2.408
 6001W        W 9745   9.879   8.711   2.515
 6002W        W 9746   8.741   8.382  10.357
 6003W        W 9747   4.085   5.576   0.056
 6004W        W 9748   1.380   0.878   9.017
 6005W        W 9749   8.325   3.217   2.440
 6006W        W 9750   2.908   2.697   2.663
 6007W        W 9751   4.697   8.487   3.561
 6008W        W 9752   4.788   2.120  10.038
 6009W        W 9753   9.943   7.468   0.389
 6010W        W 9754   7.482   9.989   3.434
 6011W        W 9755   0.672  10.426   1.279
 6012W        W 9756   3.947   4.769   9.364
 6013W        W 9757   0.730   5.425   1.302
 6014W        W 9758   0.309   3.844   0.357
 6015W        W 9759   6.609   1.004   0.829
 6016W        W 9760   9.522   9.416  11.549
 6017W        W 9761   7.450   9.093  10.868
 6018W        W 9762   3.340   6.078   0.246
 6019W        W 9763   8.955   1.274   9.764
 6020W        W 9764   3.237   0.174  10.885
 6021W        W 9765   4.691   4.984   1.620
 6022W        W 9766   0.442   5.736   0.991
 6023W        W 9767   4.934   8.891  11.040
 6024W        W 9768   9.974   6.901   9.882
 6025W        W 9769   8.581   7.784  11.983
 6026W        W 9770   5.818   4.337   9.994
 6027W        W 9771   8.109   4.266  10.916
 6028W        W 9772   0.340   8.961   3.506
 6029W        W 9773  10.247   2.290  10.113
 6030W        W 9774   0.916   9.047   0.478
 6031W        W 9775   8.391   8.958   1.486
 6032W        W 9776   3.939   4.518   1.035
 6033W        W 9777   1.204   1.838   3.462
 6034W        W 9778  10.246   3.693   0.490
 6035W        W 9779   6.816   0.797   1.233
 6036W        W 9780   3.023   1.698   0.823
 6037W        W 9781   4.290   8.738   3.353
 6038W        W 9782   3.074   9.217  10.047
 6039W        W 9783   0.061   5.499   8.526
 6040W        W 9784   1.553   3.378  11.840
 6041W        W 9785   7.566   1.285   8.990
 6042W        W 9786   5.218   3.584  10.725
 6043W        W 9787   4.818   3.717  11.011
 6044W        W 9788   1.038   5.862   1.245
 6045W        W 9789   1.891   1.774   3.823
 6046W        W 9790   7.874   5.595   2.669
 6047W        W 9791   1.350   6.005  11.358
 6048W        W 9792   0.619   3.859   3.633
 6049W        W 9793   0.968   3.337   0.713
 6050W        W 9794   5.250   8.421   0.969
 6051W        W 9795   4.407   1.152  11.480
 6052W        W 9796   3.103   3.985   0.779
 6053W        W 9797   2.787   8.950   1.657
 6054W        W 9798   0.336   1.081   0.981
 6055W        W 9799   7.650   6.826   9.993
 6056W        W 9800   6.929   3.767   8.532
 6057W        W 9801   8.334   7.542   3.215
 6058W        W 9802   5.688   9.194   2.627
 6059W        W 9803   1.117   0.029   1.004
 6060W        W 9804   0.050   1.128   1.404
 6061W        W 9805   0.688   5.232  10.386
 6062W        W 9806   6.213   5.600  10.846
 6063W        W 9807   3.164   9.170  10.901
 6064W        W 9808   9.151   6.919  11.231
 6065W        W 9809   9.801  10.476   2.258
 6066W        W 9810   3.183   7.088   8.559
 6067W        W 9811   4.976   6.619   9.437
 6068W        W 9812  10.145   4.091   2.378
 6069W        W 9813   0.079   3.698   1.662
 6070W        W 9814   7.863   7.327   3.210
 6071W        W 9815   1.279   6.407   3.175
 6072W        W 9816   0.876   4.451   0.703
 6073W        W 9817   7.926   2.141   3.299
 6074W        W 9818   7.770   7.996   8.904
 6075W        W 9819   3.644   8.064   1.199
 6076W        W 9820   7.658   5.239   2.341
 6077W        W 9821   6.100   2.305   3.211
 6078W        W 9822   2.437   2.446  10.183
 6079W        W 9823   8.583   7.318   9.940
 6080W        W 9824   4.548   8.044   9.491
 6081W        W 9825   3.637   4.057  11.971
 6082W        W 9826   2.611   2.774  11.124
 6083W        W 9827   3.387   4.145   9.838
 6084W        W 9828   0.400   8.125  11.269
 6085W        W 9829   6.624   4.324   1.445
 6086W        W 9830   3.055   6.777   1.589
 6087W        W 9831   1.205   9.893  10.057
 6088W        W 9832   0.730   1.434   8.536
 6089W        W 9833   1.504  10.222   0.866
 6090W        W 9834   8.922   4.840   1.032
 6091W        W 9835   5.304   4.295   9.857
 6092W        W 9836   4.603   2.261   0.577
 6093W        W 9837   3.326   6.612   3.469
 6094W        W 9838   8.933   2.226   9.538
 6095W        W 9839  10.178   1.714  10.975
 6096W        W 9840   1.350   7.375   3.544
 6097W        W 9841   8.366   4.205  10.475
 6098W        W 9842   0.396   9.996   9.099
 6099W        W 9843   6.197   7.650  10.824
 6100W        W 9844   0.281   7.550   9.088
 6101W        W 9845   6.225   7.822   2.858
 6102W        W 9846   8.846   1.789   0.167
 6103W        W 9847   2.599   5.068   0.997
 6104W        W 9848   8.843   6.251   2.329
 6105W        W 9849   2.711   7.199  11.137
 6106W        W 9850   4.523   0.657   1.427
 6107W        W 9851   1.924   4.649  10.703
 6108W        W 9852   0.769   5.079   3.268
 6109W        W 9853   9.359   4.078   3.382
 6110W        W 9854   0.914   5.651   0.789
 6111W        W 9855   8.637   2.734   2.716
 6112W        W 9856   1.662   6.464   1.955
 6113W        W 9857   3.748   6.595   0.368
 6114W        W 9858   8.874   4.271   3.301
 6115W        W 9859   2.394   3.388   1.316
 6116W        W 9860   7.600   9.563   3.075
 6117W        W 9861   9.695   9.507   3.605
 6118W        W 9862   6.579  10.023   9.768
 6119W        W 9863   3.128   4.104  11.823
 6120W        W 9864   8.897   0.967   1.724
 6121W        W 9865   7.861  10.320   2.280
 6122W        W 9866   6.218   0.267   2.997
 6123W        W 9867   5.949   3.175   3.675
 6124W        W 9868   9.939   0.806   0.478
 6125W        W 9869   3.286   8.836   9.783
 6126W        W 9870   7.561   9.947   2.048
 6127W        W 9871   8.793   2.195   0.992
 6128W        W 9872   0.452   8.497   9.974
 6129W        W 9873   3.238   3.597  11.394
 6130W        W 9874   1.416   4.663  10.637
 6131W        W 9875   3.851   1.834   1.255
 6132W        W 9876   5.889   3.687   3.797
 6133W        W 9877   1.330   5.071   0.234
 6134W        W 9878   1.334   3.290   9.078
 6135W        W 9879   7.574   7.491   0.790
 6136W        W 9880   3.838   4.450   2.223
 6137W        W 9881   6.172   7.694   3.483
 6138W        W 9882   6.574   9.472   0.162
 6139W        W 9883   8.074   0.722  10.206
 6140W        W 9884   4.168   7.661  11.097
 6141W        W 9885   6.658   0.709   1.724
 6142W        W 9886   7.711   8.663   0.098
 6143W        W 9887   7.453   8.401   9.057
 6144W        W 9888   8.457   2.853   3.223
 6145W        W 9889   9.306   5.715  11.146
 6146W        W 9890   3.747   4.361   9.058
 6147W        W 9891   3.363   8.517   2.255
 6148W        W 9892   1.829   8.999   1.752
 6149W        W 9893   9.806   8.983   8.921
 6150W        W 9894   5.608   0.598   0.827
 6151W        W 9895   3.712   8.363   0.772
 6152W        W 9896   8.495   2.377   9.770
 6153W        W 9897   2.329   9.797  11.030
 6154W        W 9898   8.598   1.188  11.405
 6155W        W 9899   4.004   0.744   2.910
 6156W        W 9900   6.912   7.483   0.208
 6157W        W 9901   6.530   8.322  11.869
 6158W        W 9902   4.126   4.160   2.843
 6159W        W 9903   3.311   4.579   2.154
 6160W        W 9904   7.343  10.304   2.371
 6161W        W 9905   6.033   6.680   0.269
 6162W        W 9906   3.381   4.496   9.382
 6163W        W 9907   6.527   1.675   9.160
 6164W        W 9908   5.764   5.953   0.729
 6165W        W 9909   0.364   3.363   2.995
 6166W        W 9910   9.989   1.739   0.959
 6167W        W 9911   8.447   1.406   3.240
 6168W        W 9912   6.730   0.755  10.253
 6169W        W 9913   8.744   9.299   3.450
 6170W        W 9914   4.890   2.688   3.148
 6171W        W 9915   0.538   9.557   0.193
 6172W        W 9916   4.823   2.804   1.434
 6173W        W 9917   7.586   3.758   3.406
 6174W        W 9918   6.084   0.708  11.789
 6175W        W 9919   5.952   9.373   2.217
 6176W        W 9920   8.773   2.279  10.545
 6177W        W 9921   7.613   4.095  10.885
 6178W        W 9922   9.029   8.435  11.337
 6179W        W 9923   7.441   6.163   2.249
 6180W        W 9924   2.551   7.469   1.440
 6181W        W 9925   5.265   6.479   0.672
 6182W        W 9926   1.609   9.883  11.537
 6183W        W 9927   0.878   7.544   9.790
 6184W        W 9928  10.019   5.348   0.033
 6185W        W 9929  10.313   2.328   0.036
 6186W        W 9930   6.855   6.138  10.093
 6187W        W 9931   2.468  10.385   0.741
 6188W        W 9932   3.352   2.819  10.422
 6189W        W 9933   0.334   0.294   1.467
 6190W        W 9934   5.252   6.248  11.522
 6191W        W 9935   1.739   1.643   2.900
 6192W        W 9936   3.302   7.868   9.521
 6193W        W 9937   5.332   6.045   0.359
 6194W        W 9938   1.095   3.152   9.970
 6195W        W 9939   7.344  10.179   0.174
 6196W        W 9940   7.404   0.701   2.477
 6197W        W 9941   3.665  10.424  11.722
 6198W        W 9942   0.431   6.129  10.307
 6199W        W 9943   2.734   0.787  10.548
 6200W        W 9944   4.044   5.064  11.949
 6201W        W 9945   1.262   9.696   3.814
 6202W        W 9946  10.083   8.990   1.429
 6203W        W 9947   5.777   1.564   1.010
 6204W        W 9948   1.503   5.999   0.299
 6205W        W 9949   9.562   8.120  10.264
 6206W        W 9950   4.718   4.128   3.658
 6207W        W 9951   7.303   2.815   9.964
 6208W        W 9952   5.736   7.328  10.870
 6209W        W 9953   1.172   6.129   0.718
 6210W        W 9954   2.701   5.536   3.541
 6211W        W 9955  10.218   4.247   3.398
 6212W        W 9956   2.346   5.228   9.871
 6213W        W 9957   6.759   0.346   9.970
 6214W        W 9958   5.152   3.866  10.278
 6215W        W 9959   3.782   3.747   2.890
 6216W        W 9960   0.333   6.482   2.357
 6217W        W 9961   8.787   1.374   2.016
 6218W        W 9962  10.162   1.613   2.933
 6219W        W 9963   7.026   6.533   2.794
 6220W        W 9964   9.485   1.369   9.049
 6221W        W 9965   3.813   2.639   3.500
 6222W        W 9966   6.476   8.820  11.928
 6223W        W 9967   2.102   1.723   9.575
 6224W        W 9968   3.284   8.594   0.939
 6225W        W 9969  10.418   7.658   1.886
 6226W        W 9970   1.206   2.131   0.359
 6227W        W 9971   6.227   4.165   2.643
 6228W        W 9972   9.593   8.498  11.375
 6229W        W 9973   8.449   2.625  11.438
 6230W        W 9974   9.323   7.347  10.596
 6231W        W 9975   3.689   9.251   3.365
 6232W        W 9976   5.917   8.063   3.219
 6233W        W 9977   3.523   4.857   0.993
 6234W        W 9978   4.302   9.824   9.368
 6235W        W 9979   2.242   3.508   9.320
 6236W        W 9980   7.465   1.915   3.399
 6237W        W 9981   2.381   8.829   8.987
 6238W        W 9982   9.457   1.736  10.014
 6239W        W 9983   5.926   7.368  11.795
 6240W        W 9984   7.883  10.366  11.445
 6241W        W 9985   0.593   8.169   1.996
 6242W        W 9986  10.319   7.763   2.380
 6243W        W 9987   9.024   4.529   0.095
 6244W        W 9988   3.861   6.155   1.796
 6245W        W 9989   0.826   2.611   2.474
 6246W        W 9990  10.343   9.553  10.968
 6247W        W 9991   2.819   1.081   1.796
 6248W        W 9992   9.665   5.963   9.992
 6249W        W 9993   9.451   1.212  11.433
 6250W        W 9994   1.517   5.454   3.485
 6251W        W 9995   1.443   3.217   1.636
 6252W        W 9996   6.005   9.809   2.466
 6253W        W 9997   5.784   8.711   2.723
 6254W        W 9998   7.165   0.857   1.604
 6255W        W 9999   6.969   5.639   9.363
 6256W        W10000   7.604   1.555  10.539
 6257W        W10001   2.111   2.868   3.050
 6258W        W10002   8.833  10.191   2.282
 6259W        W10003   1.012   7.923  10.487
 6260W        W10004   0.407   6.660   9.859
 6261W        W10005   4.087   7.024  10.827
 6262W        W10006  10.010   0.875  11.463
 6263W        W10007   5.167   1.690   9.256
 6264W        W10008   5.052   6.078  10.060
 6265W        W10009   2.828   7.617  10.606
 6266W        W10010   3.450   7.599   8.483
 6267W        W10011   6.458   4.166   3.137
 6268W        W10012   5.911  10.335   2.466
 6269W        W10013  10.253   4.127   9.194
 6270W        W10014   9.783   5.189   3.002
 6271W        W10015   9.899   3.223   1.990
 6272W        W10016   1.783   9.440   9.467
 6273W        W10017   0.407   0.844  11.558
 6274W        W10018  10.266   3.249   2.427
 6275W        W10019   9.352   6.578   3.530
 6276W        W10020  10.472   4.728   9.085
 6277W        W10021   0.790   1.451   9.470
 6278W        W10022   8.079   7.891   1.305
 6279W        W10023   6.257   7.873   1.763
 6280W        W10024   9.247   0.728  10.968
 6281W        W10025   6.504   6.929  10.067
 6282W        W10026   7.072  10.256   3.326
 6283W        W10027   4.312   4.303   2.397
 6284W        W10028   0.903   0.814  10.753
 6285W        W10029   0.930   4.670   3.526
 6286W        W10030   8.479   7.703   2.312
 6287W        W10031   0.444   2.554   0.703
 6288W        W10032   8.574   7.469   1.868
 6289W        W10033   2.225   1.485   2.705
 6290W        W10034   9.561   1.928  10.494
 6291W        W10035   9.086   7.632  11.904
 6292W        W10036   9.379   8.417   1.260
 6293W        W10037   1.329   8.021   1.428
 6294W        W10038   4.401   9.032   2.972
 6295W        W10039   6.736   1.355  11.039
 6296W        W10040   0.399   3.768   2.041
 6297W        W10041   9.368   6.656   8.932
 6298W        W10042  10.446   2.266  11.556
 6299W        W10043   1.609   0.823  11.907
 6300W        W10044   5.219   3.338  10.298
 6301W        W10045   3.768   7.384  11.883
 6302W        W10046  10.475   3.588  10.426
 6303W        W10047   1.921   0.047   0.042
 6304W        W10048   7.427   1.667   0.269
 6305W        W10049   7.418   9.290   0.678
 6306W        W10050   0.001   9.579   9.081
 6307W        W10051   7.830   6.976   2.416
 6308W        W10052   2.632   1.644   3.153
 6309W        W10053   7.026   0.698   2.105
 6310W        W10054  10.215   4.665   9.539
 6311W        W10055   7.950   5.648  11.291
 6312W        W10056   5.705   0.760   2.004
 6313W        W10057  10.052   5.560   8.397
 6314W        W10058   1.729   1.193  10.354
 6315W        W10059   9.436   1.600  11.820
 6316W        W10060   8.163   4.544  11.674
 6317W        W10061   1.608   8.949  10.927
 6318W        W10062   7.361   4.322  10.478
 6319W        W10063  10.480   1.908   0.990
 6320W        W10064   2.364   9.193   9.444
 6321W        W10065   6.802   5.097  10.604
 6322W        W10066   7.427   3.612  10.950
 6323W        W10067   8.914   7.469  11.412
 6324W        W10068   7.889   5.074   9.568
 6325W        W10069   7.419   4.241   2.180
 6326W        W10070   1.925   8.434   0.850
 6327W        W10071   4.541   0.690   9.557
 6328W        W10072   9.962   1.774  11.958
 6329W        W10073   3.674   9.088   9.526
 6330W        W10074   2.199   9.946  10.107
 6331W        W10075   4.830   1.771   2.462
 6332W        W10076   9.043   3.684   0.750
 6333W        W10077   0.431   3.152   1.954
 6334W        W10078  10.462   5.071   0.079
 6335W        W10079   8.871   6.489  11.248
 6336W        W10080   8.849   8.482   8.898
 6337W        W10081   1.466   7.004   2.286
 6338W        W10082   2.630   7.336   8.177
 6339W        W10083   0.285   7.627  11.386
 6340W        W10084   2.226  10.225   0.291
 6341W        W10085   4.077   1.814   1.706
 6342W        W10086   5.657   2.153   2.394
 6343W        W10087   7.566   7.504   9.439
 6344W        W10088   5.090   2.116   9.011
 6345W        W10089   9.034   6.195  11.981
 6346W        W10090   5.312   6.761   3.594
 6347W        W10091   9.323   3.880   9.613
 6348W        W10092   5.360   4.751  10.616
 6349W        W10093   2.213   9.841   1.943
 6350W        W10094   3.464   6.636   1.840
 6351W        W10095   6.645   3.268   9.603
 6352W        W10096   6.001   0.783   9.060
 6353W        W10097   1.725   1.904   3.348
 6354W        W10098   4.327  10.418   8.664
 6355W        W10099   4.598   7.601  11.980
 6356W        W10100   2.267   6.489  11.093
 6357W        W10101   1.009  10.437  11.049
 6358W        W10102   2.196   2.043  11.635
 6359W        W10103   2.360   3.293   1.839
 6360W        W10104   6.508   2.128   3.470
 6361W        W10105   5.117   6.914   1.830
 6362W        W10106   5.440   2.535   0.849
 6363W        W10107   1.860   6.709   8.879
 6364W        W10108   5.569   9.761   0.448
 6365W        W10109   1.862   2.297   1.866
 6366W        W10110   6.494   4.045  11.356
 6367W        W10111   5.057  10.363  10.276
 6368W        W10112   7.992   4.613   3.451
 6369W        W10113   8.559   3.182   8.705
 6370W        W10114   1.322  10.423   8.737
 6371W        W10115  10.379  10.031   9.570
 6372W        W10116   0.791   0.734   2.703
 6373W        W10117   5.942   9.087   1.223
 6374W        W10118   4.312   0.449   0.203
 6375W        W10119   1.061   4.715  10.995
 6376W        W10120   7.565   6.388  10.886
 6377W        W10121   0.439   5.657  10.513
 6378W        W10122   7.689   5.746   3.131
 6379W        W10123   4.005   9.602   2.445
 6380W        W10124   1.803   5.083   0.413
 6381W        W10125   1.693   7.584   9.277
 6382W        W10126   6.171   2.782   1.677
 6383W        W10127   3.180  10.187  10.010
 6384W        W10128   6.634   8.871  10.541
 6385W        W10129   8.984  10.464   3.259
 6386W        W10130   6.274   7.060   2.323
 6387W        W10131   1.439   2.317   3.310
 6388W        W10132   8.784  10.000  10.011
 6389W        W10133   1.578   1.195   0.385
 6390W        W10134   3.637   8.968   0.065
 6391W        W10135   5.950   7.183   8.678
 6392W        W10136   8.320   4.165  11.365
 6393W        W10137   7.550   6.923  10.931
 6394W        W10138   0.013   8.418   9.598
 6395W        W10139   8.294   0.961   2.446
 6396W        W10140   9.773   7.605  11.392
 6397W        W10141  10.262   2.256   9.533
 6398W        W10142   3.948   0.919   8.473
 6399W        W10143   6.562   0.433  11.044
 6400W        W10144   7.555   1.805   8.982
 6401W        W10145   8.455   1.787   9.130
 6402W        W10146   2.687   6.114  11.530
 6403W        W10147   0.864   6.930   3.035
 6404W        W10148  10.235   5.370   2.816
 6405W        W10149   3.566   0.952   9.601
 6406W        W10150   9.894   4.961   1.691
 6407W        W10151   8.142   7.058   9.988
 6408W        W10152   7.337   8.777  11.264
 6409W        W10153   1.895  10.013  11.954
 6410W        W10154   7.991   7.521   8.099
 6411W        W10155   4.609   8.484  10.841
 6412W        W10156   3.048   8.533   1.844
 6413W        W10157   9.789   6.507   2.716
 6414W        W10158   0.815   3.773  10.353
 6415W        W10159   1.383   6.753   1.268
 6416W        W10160   5.217   1.381   0.502
 6417W        W10161  10.412   4.163   0.293
 6418W        W10162   0.723   1.696  11.168
 6419W        W10163   3.662   4.628  10.267
 6420W        W10164   4.409   2.371   9.828
 6421W        W10165   3.943   2.290   3.108
 6422W        W10166   1.156   6.676  10.282
 6423W        W10167   8.880   7.959   8.831
 6424W        W10168   0.671   8.032   9.942
 6425W        W10169   8.482  10.017   9.259
 6426W        W10170   1.317   8.729   0.599
 6427W        W10171   5.544   2.866   8.670
 6428W        W10172   4.329   8.061   1.448
 6429W        W10173   8.253   3.265   2.953
 6430W        W10174  10.352   5.157   1.503
 6431W        W10175   3.562   1.846   1.710
 6432W        W10176   0.972   6.910  11.583
 6433W        W10177   8.345   2.162   0.792
 6434W        W10178   4.605   5.986  10.942
 6435W        W10179   8.320   8.902  11.349
 6436W        W10180   1.881   9.902   2.652
 6437W        W10181   7.185   1.355  10.795
 6438W        W10182   4.614   9.612   1.840
 6439W        W10183   7.643   0.027   2.729
 6440W        W10184   6.959   6.285   0.503
 6441W        W10185   2.975   6.437   0.233
 6442W        W10186   5.122   7.163   3.325
 6443W        W10187   4.253  10.326  10.932
 6444W        W10188   0.713  10.454   2.345
 6445W        W10189   5.325   8.807   2.909
 6446W        W10190   6.068   4.230   8.369
 6447W        W10191   3.344   0.532   9.027
 6448W        W10192   0.845   4.343   1.207
 6449W        W10193   1.685   1.348  11.867
 6450W        W10194   0.560   6.635  11.482
 6451W        W10195   0.487   2.430   9.486
 6452W        W10196   8.132  10.050  11.763
 6453W        W10197   5.133   2.859  10.429
 6454W        W10198  10.461   3.768  10.930
 6455W        W10199   8.060   1.909   1.365
 6456W        W10200   6.727   2.713  10.861
 6457W        W10201   2.310   8.075   0.949
 6458W        W10202   3.193   6.632  10.821
 6459W        W10203   1.872   9.000  11.376
 6460W        W10204   6.700   9.847  10.933
 6461W        W10205   4.241   2.016  11.579
 6462W        W10206   1.647   7.020   0.511
 6463W        W10207   8.967   3.134  11.537
 6464W        W10208   1.353   0.226   1.448
 6465W        W10209   4.670   3.567   3.956
 6466W        W10210   2.334   8.746  11.342
 6467W        W10211   2.796   2.388   1.942
 6468W        W10212   1.403   5.704   0.941
 6469W        W10213   9.125   4.155  10.019
 6470W        W10214   9.863   2.319   9.223
 6471W        W10215   0.556   2.732  10.519
 6472W        W10216   0.893   2.167   2.710
 6473W        W10217   0.945   5.699   2.232
 6474W        W10218   4.867   8.649   1.200
 6475W        W10219   7.572   0.464   1.780
 6476W        W10220   2.158   6.009   0.878
 6477W        W10221   9.299   6.847   9.402
 6478W        W10222   7.031   9.748   9.484
 6479W        W10223   3.253   5.775   1.402
 6480W        W10224   8.419   4.102   1.858
 6481W        W10225   2.275   0.948   9.154
 6482W        W10226   2.414   4.538  10.800
 6483W        W10227   1.795   9.510  11.864
 6484W        W10228   4.361   8.448   8.549
 6485W        W10229   6.036   2.538   2.726
 6486W        W10230   7.262   0.416  10.918
 6487W        W10231   0.175  10.246   1.416
 6488W        W10232   0.267  10.209   2.197
 6489W        W10233   1.316   4.763   0.677
 6490W        W10234   8.064   9.770   1.893
 6491W        W10235   8.900   2.983   1.959
 6492W        W10236   7.439   9.485   1.168
 6493W        W10237   6.256   9.612   9.555
 6494W        W10238   3.592   9.361   9.950
 6495W        W10239   1.684   2.452   1.372
 6496W        W10240   7.380   7.068   9.640
 6497W        W10241   4.246   7.463   9.466
 6498W        W10242   1.913   7.280   2.382
 6499W        W10243   6.501   7.412   0.921
 6500W        W10244   1.380   9.330   8.719
 6501W        W10245   4.619   4.140   1.705
 6502W        W10246   6.652   9.516   9.871
 6503W        W10247   0.515   5.540   3.254
 6504W        W10248   2.276  10.313  11.760
 6505W        W10249   6.039   1.389   1.445
 6506W        W10250   6.201   5.197   0.495
 6507W        W10251   5.292   6.088   8.223
 6508W        W10252   0.894   3.878  11.264
 6509W        W10253   3.052   7.523   1.408
 6510W        W10254   7.528   5.270  11.899
 6511W        W10255   5.723   1.290  11.286
 6512W        W10256   7.823   2.248   1.838
 6513W        W10257   4.507   7.702   3.218
 6514W        W10258   3.804   4.524  10.761
 6515W        W10259   9.533   5.653  10.624
 6516W        W10260   5.996   2.204   1.779
 6517W        W10261   2.132   7.448   9.019
 6518W        W10262   0.189   7.337   1.535
 6519W        W10263   2.006   6.037   0.354
 6520W        W10264   5.653   4.339  10.496
 6521W        W10265   2.245   8.170   3.043
 6522W        W10266   7.462   1.407   2.184
 6523W        W10267   2.389   3.266   8.889
 6524W        W10268   6.439   5.701   1.393
 6525W        W10269   5.078   9.969   0.420
 6526W        W10270   4.644   2.327   2.361
 6527W        W10271  10.043   9.553   0.706
 6528W        W10272   4.161   7.689   2.327
 6529W        W10273   8.948   6.674   9.725
 6530W        W10274   7.874   8.459  10.379
 6531W        W10275   8.124   3.650   1.918
 6532W        W10276   8.350   5.247  11.367
 6533W        W10277   3.290   2.301   1.806
 6534W        W10278   0.353   9.467  11.732
 6535W        W10279   5.973   3.303   0.430
 6536W        W10280   3.822   6.547   1.455
 6537W        W10281   5.587   7.539   2.372
 6538W        W10282   7.465   6.051   0.324
 6539W        W10283   6.558   9.856  10.275
 6540W        W10284   7.388   0.658   0.308
 6541W        W10285   0.834   7.330   1.735
 6542W        W10286   5.074   3.756   3.684
 6543W        W10287   1.007   9.461   0.889
 6544W        W10288   5.049   5.138   2.419
 6545W        W10289   5.143   6.526   3.149
 6546W        W10290   4.754   6.253  11.383
 6547W        W10291   9.128   7.456   3.898
 6548W        W10292  10.319   4.137  11.720
 6549W        W10293   3.584   2.698   8.999
 6550W        W10294   2.100   5.125   0.831
 6551W        W10295   6.982   0.614   3.525
 6552W        W10296   1.776   9.992   3.166
 6553W        W10297   6.698   1.715  11.449
 6554W        W10298   1.197   5.149  10.781
 6555W        W10299   9.956   0.770   2.691
 6556W        W10300   0.645   9.328   3.272
 6557W        W10301   6.109   9.154  10.511
 6558W        W10302   7.414   1.170   0.347
 6559W        W10303   9.909   2.685   1.309
 6560W        W10304   9.731   4.274   2.645
 6561W        W10305   9.070   6.533   1.648
 6562W        W10306   8.834   3.120   2.982
 6563W        W10307   3.717   2.282   9.248
 6564W        W10308   1.294   6.260   9.979
 6565W        W10309   0.330  10.008   2.659
 6566W        W10310   8.921   0.744   8.505
 6567W        W10311   8.503   3.180  11.369
 6568W        W10312  10.370   0.399  10.477
 6569W        W10313   5.084   5.103   2.934
 6570W        W10314   6.473   0.844   9.815
 6571W        W10315   9.408   9.019   9.236
 6572W        W10316   8.950   5.532  10.249
 6573W        W10317  10.485   7.156  11.722
 6574W        W10318   3.855   1.885   2.169
 6575W        W10319   4.412   8.224   3.198
 6576W        W10320   7.961   8.381   1.204
 6577W        W10321   5.578   2.755   2.932
 6578W        W10322   5.178   4.025  11.259
 6579W        W10323   7.976   7.888   0.351
 6580W        W10324   7.177   9.686  11.017
 6581W        W10325   7.599   4.956   2.761
 6582W        W10326   5.686  10.419   9.443
 6583W        W10327   0.047   7.662   1.103
 6584W        W10328   6.197   1.573  11.499
 6585W        W10329   0.492   9.283   9.652
 6586W        W10330   0.481  10.412   1.778
 6587W        W10331   5.655   2.306   3.436
 6588W        W10332   8.353   4.952   3.436
 6589W        W10333   0.826   4.849   1.004
 6590W        W10334   4.600   1.290   3.146
 6591W        W10335   5.499   0.866   9.047
 6592W        W10336   5.135   7.548   4.043
 6593W        W10337   6.131   1.926   2.298
 6594W        W10338   2.256   2.389   2.821
 6595W        W10339   5.254   1.879   3.385
 6596W        W10340   8.665   6.935   0.203
 6597W        W10341   9.508   0.481   2.737
 6598W        W10342   9.395   3.089  11.783
 6599W        W10343   0.875   4.181   8.422
 6600W        W10344   4.794   5.612   0.791
 6601W        W10345   2.421   8.203   9.504
 6602W        W10346   4.997   5.628   2.155
 6603W        W10347  10.025   7.904  11.711
 6604W        W10348  10.234   8.665   8.724
 6605W        W10349   6.694   8.075   1.014
 6606W        W10350   1.295   9.444   9.741
 6607W        W10351   0.662   4.322  10.349
 6608W        W10352   5.582   3.098   4.079
 6609W        W10353   1.483   6.302  10.467
 6610W        W10354   8.181   4.213   8.143
 6611W        W10355   6.918   4.802  11.368
 6612W        W10356   0.082   8.838   1.209
 6613W        W10357   7.658   4.114   8.820
 6614W        W10358   9.023   5.272   1.475
 6615W        W10359   0.909   9.315   8.927
 6616W        W10360   6.942   8.876   2.364
 6617W        W10361   3.080   3.717   8.785
 6618W        W10362   4.127   2.631  10.148
 6619W        W10363   4.348   1.895   2.333
 6620W        W10364   0.297   9.054   2.984
 6621W        W10365   1.832   4.117  11.235
 6622W        W10366   9.297   7.044   0.954
 6623W        W10367   6.117   0.406   1.989
 6624W        W10368   7.484   3.770   1.205
 6625W        W10369   0.773   8.123   1.531
 6626W        W10370   5.593   3.842  10.512
 6627W        W10371  10.272   8.699   9.237
 6628W        W10372   8.103  10.292   2.731
 6629W        W10373   2.313   5.281   9.120
 6630W        W10374   8.550   6.118  11.824
 6631W        W10375   4.787   7.930   1.848
 6632W        W10376   2.382   5.020   8.623
 6633W        W10377   0.321   2.133  10.308
 6634W        W10378   6.418   6.503   9.379
 6635W        W10379   6.120  10.180  10.401
 6636W        W10380   8.889   0.371   9.649
 6637W        W10381   1.884   7.878   3.242
 6638W        W10382   2.629   6.080   2.399
 6639W        W10383   5.216   2.887   1.125
 6640W        W10384   2.806   1.505  11.199
 6641W        W10385   3.495   1.027  10.960
 6642W        W10386   5.519   3.855   3.455
 6643W        W10387  10.068   3.404  11.785
 6644W        W10388   3.071   8.985   1.242
 6645W        W10389   1.683   8.060  10.999
 6646W        W10390   8.761   6.004  10.444
 6647W        W10391   7.941   5.865   9.969
 6648W        W10392   3.528   1.914  11.032
 6649W        W10393   5.282   9.046   3.401
 6650W        W10394   9.341   9.878  11.650
 6651W        W10395   4.967   9.707   9.497
 6652W        W10396   3.387   5.951  11.351
 6653W        W10397   8.491   0.999  10.018
 6654W        W10398   5.255   2.633  10.919
 6655W        W10399   7.972   9.878   1.342
 6656W        W10400   4.874   7.790   2.770
 6657W        W10401   1.424   1.336  10.789
 6658W        W10402   4.217   8.724   2.223
 6659W        W10403   6.509   2.742   0.393
 6660W        W10404   2.234   5.628  10.947
 6661W        W10405   5.992   5.155  10.641
 6662W        W10406   1.463   9.719   0.829
 6663W        W10407   7.361   2.837   3.223
 6664W        W10408   1.902   5.402   1.245
 6665W        W10409   4.600   9.461  11.437
 6666W        W10410  10.090  10.497  10.981
 6667W        W10411   7.424   0.327  11.800
 6668W        W10412   3.681   5.861  10.943
 6669W        W10413   0.789   0.838   1.752
 6670W        W10414   3.962   1.797   2.674
 6671W        W10415  10.069   3.672   9.395
 6672W        W10416   9.445   6.012  11.749
 6673W        W10417   4.007   0.093   0.431
 6674W        W10418   7.927   9.233   1.885
 6675W        W10419   7.481   3.566  11.481
 6676W        W10420   6.198   4.672   2.591
 6677W        W10421  10.222   7.469   1.441
 6678W        W10422   8.025   1.304  10.632
 6679W        W10423   6.697   3.891   2.782
 6680W        W10424   2.583   9.907  10.498
 6681W        W10425   9.418   2.054   9.619
 6682W        W10426   0.221   0.676   1.831
 6683W        W10427   8.920   6.075   1.846
 6684W        W10428   4.604   5.967   9.844
 6685W        W10429   7.047   6.038   2.609
 6686W        W10430   1.434   6.222   9.494
 6687W        W10431   2.803   1.893   2.176
 6688W        W10432   7.333   2.336  10.286
 6689W        W10433   3.340   6.323  10.438
 6690W        W10434   0.802   4.089  10.774
 6691W        W10435   9.686   5.907   9.076
 6692W        W10436   8.536   6.570   2.835
 6693W        W10437   2.138   0.458   1.790
 6694W        W10438   9.363  10.282   1.631
 6695W        W10439   9.812   8.161   1.208
 6696W        W10440   6.342   9.110   9.642
 6697W        W10441   3.230   8.814   8.746
 6698W        W10442   1.765   2.664   2.726
 6699W        W10443   9.337   8.505   0.761
 6700W        W10444   4.252   0.272   3.217
 6701W        W10445   2.221   5.279   2.399
 6702W        W10446   1.777   0.719   9.834
 6703W        W10447   3.060   2.289  11.615
 6704W        W10448   2.559   4.017   8.487
 6705W        W10449   8.014   9.588  11.930
 6706W        W10450   5.041   0.794  10.397
 6707W        W10451   9.320   3.053   2.306
 6708W        W10452   1.492   8.449   9.746
 6709W        W10453   2.695   4.185   1.006
 6710W        W10454  10.377   1.288   9.495
 6711W        W10455   7.168   0.235   2.656
 6712W        W10456   1.381   6.978  11.227
 6713W        W10457   5.903   5.732   1.958
 6714W        W10458   2.722   7.020   1.315
 6715W        W10459   2.186   1.441  10.459
 6716W        W10460   4.937   4.586  11.961
 6717W        W10461   4.250   3.297   9.497
 6718W        W10462   8.040   0.192  10.069
 6719W        W10463   8.963   8.382   1.548
 6720W        W10464   6.670   2.733   1.466
 6721W        W10465   4.378   8.773   0.373
 6722W        W10466   2.396   8.994   2.520
 6723W        W10467   1.285   0.936   1.646
 6724W        W10468   7.140   5.707  11.114
 6725W        W10469   8.399   2.361   3.049
 6726W        W10470  10.161  10.449   9.319
 6727W        W10471   1.143   9.568   2.675
 6728W        W10472   2.631   2.859   9.911
 6729W        W10473   3.338   7.639  10.803
 6730W        W10474   0.981   1.067   9.748
 6731W        W10475   3.875   8.713   0.428
 6732W        W10476   6.082  10.197  11.828
 6733W        W10477   5.226   9.045   2.471
 6734W        W10478   5.177   2.385   2.249
 6735W        W10479   7.075   6.231   1.822
 6736W        W10480   1.319   0.311   3.238
 6737W        W10481   4.990   7.630   3.545
 6738W        W10482   5.217   5.675   9.815
 6739W        W10483   7.681   3.297   3.631
 6740W        W10484  10.179   0.318   2.171
 6741W        W10485   6.521   9.263   1.562
 6742W        W10486   5.081   9.974   9.951
 6743W        W10487   3.770   0.515   1.459
 6744W        W10488   5.731   5.052  12.000
 6745W        W10489   4.205   1.909   9.755
 6746W        W10490   8.046   5.241   0.683
 6747W        W10491   2.179   4.290   8.959
 6748W        W10492   7.050   3.309   9.902
 6749W        W10493   7.025   0.554   9.084
 6750W        W10494   5.668   7.354  10.069
 6751W        W10495   5.918   0.880  11.004
 6752W        W10496   4.979   7.080   8.527
 6753W        W10497   1.754   0.443   3.486
 6754W        W10498   5.518   5.999  11.887
 6755W        W10499   7.425   5.913   9.879
 6756W        W10500   9.266   4.203   9.124
 6757W        W10501   4.750   2.766   3.624
 6758W        W10502   5.153   5.170   3.444
 6759W        W10503   3.419   3.311   0.314
 6760W        W10504   0.884   4.575   9.964
 6761W        W10505   2.828   6.208   9.997
 6762W        W10506   8.303   5.075  10.510
 6763W        W10507   2.341   9.461   1.104
 6764W        W10508   6.205   0.808   3.175
 6765W        W10509   7.932   4.064   1.658
 6766W        W10510   1.856   7.426   3.516
 6767W        W10511   8.919   8.963   9.109
 6768W        W10512   5.142   4.013   1.893
 6769W        W10513  10.263   0.043  11.857
 6770W        W10514   7.928   6.108   0.518
 6771W        W10515   1.868   4.659   1.903
 6772W        W10516   9.893   8.599   2.017
 6773W        W10517   0.598   5.489   9.325
 6774W        W10518   4.044   2.770  10.995
 6775W        W10519   4.711   1.535   9.426
 6776W        W10520   8.747   0.015  10.028
 6777W        W10521   1.412   5.892   9.061
 6778W        W10522   0.418   3.981  11.467
 6779W        W10523   1.301   7.507   1.663
 6780W        W10524   8.017   2.784   9.242
 6781W        W10525   4.937   1.010  10.847
 6782W        W10526   4.086  10.420  10.443
 6783W        W10527   2.686   2.889   1.760
 6784W        W10528   3.217   3.623   9.293
 6785W        W10529   3.741   3.086   2.684
 6786W        W10530   6.560   8.013  10.772
 6787W        W10531   0.303   5.026   2.353
 6788W        W10532   7.029   6.452   2.285
 6789W        W10533   8.312   8.411  10.087
 6790W        W10534   0.421   3.753   9.041
 6791W        W10535   9.722   2.308  10.807
 6792W        W10536   2.229   2.942  10.214
 6793W        W10537   0.727   4.881  11.341
 6794W        W10538   2.309   1.959   2.556
 6795W        W10539   0.995   5.464   2.719
 6796W        W10540   3.598   5.347   1.282
 6797W        W10541   5.632   0.511   8.683
 6798W        W10542   5.652   0.393  10.176
 6799W        W10543   5.556   7.988   0.775
 6800W        W10544   5.241   0.779   1.169
 6801W        W10545   1.271   4.651   1.182
 6802W        W10546   1.463   6.595   0.782
 6803W        W10547   5.609   8.573   9.155
 6804W        W10548   4.301   2.193   2.756
 6805W        W10549   9.587   5.133  11.834
 6806W        W10550   0.703   0.315   0.951
 6807W        W10551   9.456   1.399   0.611
 6808W        W10552   6.436   3.683   9.404
 6809W        W10553   5.025   8.179   2.373
 6810W        W10554   9.498   1.413   2.989
 6811W        W10555   3.293   7.400   0.715
 6812W        W10556   7.973   3.868   8.488
 6813W        W10557   5.757   1.799   3.557
 6814W        W10558   8.449   0.822  10.533
 6815W        W10559   0.188   2.038   9.361
 6816W        W10560   3.814   7.624   8.862
 6817W        W10561   0.981   6.584  11.201
 6818W        W10562   6.365   8.789   1.686
 6819W        W10563   6.979   8.148  11.035
 6820W        W10564   0.339   9.767   9.589
 6821W        W10565   8.373   4.609   9.869
 6822W        W10566   2.123  10.376   2.706
 6823W        W10567   5.550   1.668  10.032
 6824W        W10568   0.424   0.071   3.234
 6825W        W10569   5.069   7.463   0.068
 6826W        W10570   2.653  10.358   9.477
 6827W        W10571   3.745   7.154   0.338
 6828W        W10572   4.049   5.684   1.372
 6829W        W10573   4.062   5.797   0.549
 6830W        W10574   1.400   0.467   8.650
 6831W        W10575   4.721   8.600   3.042
 6832W        W10576   9.053   5.377   2.341
 6833W        W10577   4.733   6.467   9.921
 6834W        W10578   8.479   9.842   1.541
 6835W        W10579   1.371   4.694   2.691
 6836W        W10580   1.677   5.500  10.193
 6837W        W10581   6.357   4.642   0.995
 6838W        W10582   3.013   7.688   8.145
 6839W        W10583   7.364   6.191   1.284
 6840W        W10584   6.888   1.298   9.329
 6841W        W10585   0.872   8.810  11.388
 6842W        W10586   3.068   0.303  11.334
 6843W        W10587   5.110   5.216  10.593
 6844W        W10588   3.471   0.012   2.365
 6845W        W10589   3.685  10.352   1.250
 6846W        W10590   8.996   2.707   9.728
 6847W        W10591   7.057   9.429   0.341
 6848W        W10592   7.668   8.376   1.926
 6849W        W10593   2.838   6.422   0.719
 6850W        W10594   5.735   0.904   3.524
 6851W        W10595   3.147   5.522   9.259
 6852W        W10596   6.203   3.466  10.339
 6853W        W10597   2.157   6.311   2.352
 6854W        W10598   6.484   9.732   0.607
 6855W        W10599   1.801   3.620   3.175
 6856W        W10600   2.666   9.998   0.419
 6857W        W10601   1.778   0.909  10.807
 6858W        W10602   4.173   1.424   1.288
 6859W        W10603   3.475   9.049  11.610
 6860W        W10604   1.065   2.748  10.694
 6861W        W10605   0.737   6.061   8.973
 6862W        W10606   0.528   8.692   0.451
 6863W        W10607   7.726   7.872   1.883
 6864W        W10608   8.948   9.355   2.995
 6865W        W10609   6.295   7.540   2.142
 6866W        W10610   0.396   6.384   1.302
 6867W        W10611   9.809   4.926   0.249
 6868W        W10612  10.251  10.050  10.403
 6869W        W10613   6.481   3.193   0.039
 6870W        W10614   0.687   1.266   2.343
 6871W        W10615   6.945   2.204   2.712
 6872W        W10616   6.721   5.232   2.168
 6873W        W10617   7.959   8.456   8.744
 6874W        W10618   3.238   4.472   0.780
 6875W        W10619   0.757   6.299   0.372
 6876W        W10620   1.507   2.443   0.609
 6877W        W10621   7.084   4.746   8.598
 6878W        W10622   6.823   7.087  10.431
 6879W        W10623   1.396   6.392   9.004
 6880W        W10624   2.334   8.981   2.010
 6881W        W10625   9.825   4.243   1.246
 6882W        W10626   9.561   8.489   9.936
 6883W        W10627   8.822   0.419  11.120
 6884W        W10628   2.112   6.877  10.476
 6885W        W10629   3.855   5.723  11.421
 6886W        W10630   1.983   7.661  10.893
 6887W        W10631   9.857   8.366   0.735
 6888W        W10632   4.500   4.532   1.988
 6889W        W10633   4.895  10.438   2.513
 6890W        W10634   9.739   7.905   9.824
 6891W        W10635   7.699   1.329  11.945
 6892W        W10636   7.584   9.126  10.272
 6893W        W10637  10.387   2.507   1.432
 6894W        W10638   0.489   0.713  10.457
 6895W        W10639   2.117   6.464   0.096
 6896W        W10640   4.157   9.783   1.986
 6897W        W10641   8.005   8.849  10.083
 6898W        W10642   2.258   6.915  11.481
 6899W        W10643   7.069   4.500   2.435
 6900W        W10644   4.663   4.107   2.724
 6901W        W10645   9.034   0.335   2.854
 6902W        W10646   9.033   1.813   1.188
 6903W        W10647   9.428   2.717  10.911
 6904W        W10648   0.367   7.107  11.387
 6905W        W10649   7.013   3.619   1.054
 6906W        W10650   3.052   0.166   8.781
 6907W        W10651   9.788   9.980   2.330
 6908W        W10652   9.598   8.148   9.364
 6909W        W10653   5.038   4.110   1.417
 6910W        W10654   9.708   9.214   0.843
 6911W        W10655   6.518   1.239   0.389
 6912W        W10656   1.426   7.364   0.153
 6913W        W10657  10.121   9.047   2.194
 6914W        W10658  10.413   6.937   1.704
 6915W        W10659   2.529   0.507   8.940
 6916W        W10660   0.429   1.192   1.852
 6917W        W10661   3.324   7.584  11.771
 6918W        W10662   8.784   0.859   2.288
 6919W        W10663   4.099   4.537   3.206
 6920W        W10664   8.799   1.183   3.629
 6921W        W10665   2.803   5.549   1.252
 6922W        W10666   8.462   6.163  10.833
 6923W        W10667   9.430   7.510   1.752
 6924W        W10668   1.672   5.067  10.464
 6925W        W10669   5.560   2.264  11.692
 6926W        W10670   2.708  10.421  10.009
 6927W        W10671   9.047   9.012   9.632
 6928W        W10672   7.230   4.081   3.776
 6929W        W10673   3.884   1.046  11.420
 6930W        W10674   2.625   1.625  10.710
 6931W        W10675   0.668   5.845   2.847
 6932W        W10676   7.616   9.125   1.509
 6933W        W10677   6.012   9.906   8.613
 6934W        W10678   6.828   6.156   3.082
 6935W        W10679   6.387   2.328   9.354
 6936W        W10680   6.328   4.349  10.031
 6937W        W10681   7.155   0.918  10.485
 6938W        W10682   7.897   0.855  11.235
 6939W        W10683   3.106   3.212   1.166
 6940W        W10684   8.353   1.421   1.712
 6941W        W10685   9.113   0.793  11.917
 6942W        W10686   7.912   1.258   0.989
 6943W        W10687   5.319   5.656   0.674
 6944W        W10688   4.560   5.152   0.622
 6945W        W10689   9.682   3.142  10.692
 6946W        W10690   3.870   4.911   1.365
 6947W        W10691   8.820   0.396  11.625
 6948W        W10692   2.590   2.467   1.309
 6949W        W10693   9.396  10.015   1.178
 6950W        W10694   5.263   7.004  11.992
 6951W        W10695   5.821   6.794   3.712
 6952W        W10696   9.421   2.971   9.921
 6953W        W10697   9.039   4.061  11.874
 6954W        W10698   6.930   2.423   0.774
 6955W        W10699   4.867   2.123   1.939
 6956W        W10700   2.533   8.333   8.287
 6957W        W10701   9.995   6.859  10.912
 6958W        W10702   1.740   7.677   1.507
 6959W        W10703   2.836   9.927  10.933
 6960W        W10704   1.111   7.183   1.334
 6961W        W10705   1.928   7.448   0.413
 6962W        W10706  10.203   3.133  10.336
 6963W        W10707   4.585   1.654  11.521
 6964W        W10708   3.568   6.357  11.039
 6965W        W10709   7.199   6.561   8.859
 6966W        W10710   2.371   8.726   0.410
 6967W        W10711   0.282   9.694   2.260
 6968W        W10712   2.331   7.466   0.755
 6969W        W10713   0.184   2.684  11.805
 6970W        W10714   6.043   8.203  11.990
 6971W        W10715   9.319   1.739  11.336
 6972W        W10716   5.003   0.519  10.948
 6973W        W10717   9.743   6.729   8.588
 6974W        W10718   1.696   7.858   0.269
 6975W        W10719   7.931   9.823   2.401
 6976W        W10720   4.789   1.631   8.369
 6977W        W10721   9.993   1.417   1.735
 6978W        W10722   6.452   8.006   9.814
 6979W        W10723  10.438   5.617  10.494
 6980W        W10724   7.088   9.924   1.261
 6981W        W10725   3.057   4.624   9.005
 6982W        W10726   5.317   2.871   2.080
 6983W        W10727   1.229   8.013   0.875
 6984W        W10728   8.973   3.984   2.891
 6985W        W10729   1.264   1.942  11.333
 6986W        W10730   7.098   1.147   2.444
 6987W        W10731   6.019   1.577   2.774
 6988W        W10732   5.727   9.059   3.116
 6989W        W10733   0.473   3.079   0.733
 6990W        W10734   8.613   2.257   1.572
 6991W        W10735   4.382   1.205  11.973
 6992W        W10736   8.980   6.986   9.011
 6993W        W10737   5.198   3.075   3.043
 6994W        W10738   5.805   1.410  11.792
 6995W        W10739   3.256   6.642   1.062
 6996W        W10740   0.418   7.605  10.029
 6997W        W10741   8.945   7.831   1.232
 6998W        W10742   0.566   0.913   3.161
 6999W        W10743   7.086   1.753   2.458
 7000W        W10744   0.177   9.922  11.414
 7001W        W10745   0.780   4.162   0.215
 7002W        W10746  10.476   2.913   2.107
 7003W        W10747   8.075   3.755  10.317
 7004W        W10748   7.083  10.381  10.433
 7005W        W10749   7.957   5.652  10.714
 7006W        W10750   7.676   3.589   0.356
 7007W        W10751   9.830   7.870   0.703
 7008W        W10752   3.275   9.272   0.282
 7009W        W10753   0.022   3.225  11.854
 7010W        W10754   9.497  10.032   0.268
 7011W        W10755   3.155   4.608   8.155
 7012W        W10756   3.404   4.464   3.160
 7013W        W10757   0.961   3.818   2.791
 7014W        W10758   9.166  10.328   9.796
 7015W        W10759   2.624   6.498   1.673
 7016W        W10760   1.418   9.783   1.342
 7017W        W10761   4.249   0.469   2.217
 7018W        W10762   9.994   6.704   1.418
 7019W        W10763   4.947   7.127   3.802
 7020W        W10764   3.848   9.037  11.239
 7021W        W10765   4.598   0.894   2.271
 7022W        W10766   0.670   9.991   9.968
 7023W        W10767   3.177   7.153  10.826
 7024W        W10768   5.790   4.666  10.883
 7025W        W10769   7.328   0.855   1.119
 7026W        W10770   4.697   6.475   0.803
 7027W        W10771   5.428   5.417   0.213
 7028W        W10772  10.334   0.814  10.202
 7029W        W10773   6.915  10.259   9.462
 7030W        W10774   3.793   1.448  10.885
 7031W        W10775   9.889   4.077   0.383
 7032W        W10776   2.816   6.694   9.815
 7033W        W10777   2.355   8.531  10.869
 7034W        W10778   9.803   3.589   0.754
 7035W        W10779   5.172   9.829   2.975
 7036W        W10780   9.219   7.439   3.400
 7037W        W10781   4.714   3.635   2.964
 7038W        W10782   9.846   6.366  10.937
 7039W        W10783   2.731   1.655   2.628
 7040W        W10784   0.366   3.603  10.089
 7041W        W10785   7.538   4.440   2.658
 7042W        W10786   2.162   2.870   2.055
 7043W        W10787   1.570   3.671   1.374
 7044W        W10788   8.981   8.340  10.822
 7045W        W10789   1.783   3.149  10.459
 7046W        W10790   7.298   3.365   3.258
 7047W        W10791   1.898   8.968   9.603
 7048W        W10792   7.365   4.541  11.509
 7049W        W10793   2.221   5.549   1.920
 7050W        W10794   8.080   1.577  11.059
 7051W        W10795   2.653   4.653  10.018
 7052W        W10796   2.953  10.231   1.687
 7053W        W10797   8.970   1.803   9.836
 7054W        W10798   6.077   3.324   9.407
 7055W        W10799  10.005   0.368   8.999
 7056W        W10800   6.191   0.630   3.648
 7057W        W10801  10.325   1.373  10.476
 7058W        W10802   3.583   9.943  11.527
 7059W        W10803   5.013   9.956  11.207
 7060W        W10804   7.570   5.033   1.855
 7061W        W10805   8.656   3.647   8.973
 7062W        W10806   6.254   0.865  10.396
 7063W        W10807   2.527   4.041   9.426
 7064W        W10808   8.514   3.364  11.984
 7065W        W10809   3.776   0.280   2.991
 7066W        W10810   9.725   0.348  10.794
 7067W        W10811   6.944   5.985  10.649
 7068W        W10812   0.892   3.839   1.866
 7069W        W10813   8.140   4.631  10.322
 7070W        W10814   1.221   3.802   2.322
 7071W        W10815   6.995   8.304   9.757
 7072W        W10816  10.048   1.814  10.460
 7073W        W10817  10.266   6.003   1.757
 7074W        W10818   5.872   0.682   2.785
 7075W        W10819   0.931   8.973   3.523
 7076W        W10820   4.071   4.094  10.795
 7077W        W10821   4.706   8.633   1.688
 7078W        W10822  10.473   3.834   3.181
 7079W        W10823   1.666   1.947   1.470
 7080W        W10824   6.624   6.220   4.033
 7081W        W10825   8.593   1.731   0.916
 7082W        W10826   0.172   0.842   0.571
 7083W        W10827   1.005   4.674   0.269
 7084W        W10828   0.159   2.172   2.311
 7085W        W10829   1.796   7.162  10.904
 7086W        W10830   8.943   7.513  10.317
 7087W        W10831   8.554   2.133  11.467
 7088W        W10832   6.552   0.978  11.944
 7089W        W10833   9.691   8.948  11.095
 7090W        W10834   2.790   9.567  11.667
 7091W        W10835   7.802   6.594   0.659
 7092W        W10836   8.485   3.700  11.533
 7093W        W10837   0.377   5.023   1.366
 7094W        W10838   3.616   4.092  11.015
 7095W        W10839   6.157   7.024  10.951
 7096W        W10840   0.818   2.201   1.744
 7097W        W10841   2.380   3.780   1.689
 7098W        W10842   0.565   1.908   3.462
 7099W        W10843   8.388   7.418  11.429
 7100W        W10844   7.569   3.773   2.055
 7101W        W10845   6.601   1.227  11.509
 7102W        W10846   2.767   7.394   2.815
 7103W        W10847   0.615   4.594  10.781
 7104W        W10848   0.791   0.935   8.717
 7105W        W10849   6.258   4.940   0.035
 7106W        W10850   3.966   2.094  11.998
 7107W        W10851   2.982  10.347   3.238
 7108W        W10852   5.797   0.443   3.226
 7109W        W10853   2.211   8.689   8.501
 7110W        W10854   1.473   1.194   3.185
 7111W        W10855   0.164   8.945  10.899
 7112W        W10856   1.094   0.858   3.119
 7113W        W10857   3.280   4.164   8.972
 7114W        W10858   8.646   1.364   0.356
 7115W        W10859   6.598   6.529   0.901
 7116W        W10860   7.395   2.263  10.861
 7117W        W10861   3.425  10.297   1.874
 7118W        W10862   9.344   1.831   0.271
 7119W        W10863   6.265   7.858   0.803
 7120W        W10864   2.704   0.563   0.214
 7121W        W10865   5.757   4.931   0.490
 7122W        W10866   6.419   9.000  10.991
 7123W        W10867   6.259   0.382   9.959
 7124W        W10868   3.123   9.307  11.382
 7125W        W10869   6.537  10.400   9.126
 7126W        W10870   6.844   4.359  10.071
 7127W        W10871  10.063   2.123   8.768
 7128W        W10872   7.569   2.227   9.301
 7129W        W10873   1.298   7.946   9.054
 7130W        W10874   8.588   1.282   8.956
 7131W        W10875   7.872   3.811   9.309
 7132W        W10876   4.280   1.808   9.255
 7133W        W10877  10.422   4.744   3.550
 7134W        W10878   9.994   1.871   2.499
 7135W        W10879   2.564   9.007   1.163
 7136W        W10880   3.702   7.572  10.278
 7137W        W10881   8.387   3.743   9.911
 7138W        W10882   2.851   2.401   9.857
 7139W        W10883  10.324   1.607   8.637
 7140W        W10884   6.580   1.946   2.049
 7141W        W10885   4.092   7.818   0.340
 7142W        W10886   0.822   3.266   8.988
 7143W        W10887   3.580   5.513   9.873
 7144W        W10888   1.759  10.409   9.504
 7145W        W10889   9.901   0.163   0.839
 7146W        W10890   6.004   0.906   8.567
 7147W        W10891   7.260   7.763  11.959
 7148W        W10892   6.749   2.691   2.313
 7149W        W10893   3.680   0.825  10.528
 7150W        W10894   2.193   8.198   3.536
 7151W        W10895   8.353   3.679   9.402
 7152W        W10896   7.912   3.208   2.111
 7153W        W10897   0.937   3.211   1.824
 7154W        W10898   7.443   8.643  10.550
 7155W        W10899   0.814   0.622   9.584
 7156W        W10900   9.089   1.923  10.329
 7157W        W10901   9.081   9.283   1.350
 7158W        W10902   4.330   2.895  10.523
 7159W        W10903   8.472   1.295   1.233
 7160W        W10904   6.861   2.559   3.525
 7161W        W10905   4.130   6.119   9.637
 7162W        W10906   2.306  10.322  11.255
 7163W        W10907   2.933   3.265   9.931
 7164W        W10908   9.030   1.270  11.712
 7165W        W10909   1.862   0.185  10.544
 7166W        W10910   1.107   2.687   3.386
 7167W        W10911   9.546   2.616  11.972
 7168W        W10912   7.114   4.200   2.864
 7169W        W10913   0.686   6.037  10.738
 7170W        W10914   6.543   1.935  11.914
 7171W        W10915   2.635   4.086  10.929
 7172W        W10916   8.288   6.965   2.617
 7173W        W10917   0.947   8.489   0.913
 7174W        W10918   1.393   0.264   9.545
 7175W        W10919   1.535   5.052   9.341
 7176W        W10920   4.081   4.356   0.571
 7177W        W10921   4.148   8.355   3.647
 7178W        W10922   6.456   6.095   9.760
 7179W        W10923   8.118   2.099   9.986
 7180W        W10924   3.225   8.959   2.471
 7181W        W10925   7.902   0.185   3.486
 7182W        W10926   3.101   3.730   9.999
 7183W        W10927   4.020  10.217  11.404
 7184W        W10928   1.170   5.957   2.909
 7185W        W10929   0.940   1.300   1.909
 7186W        W10930   8.808   8.558   9.435
 7187W        W10931   4.302   6.619   2.904
 7188W        W10932   7.533   6.061   8.897
 7189W        W10933   0.685   1.960   9.367
 7190W        W10934   3.791   0.964   1.761
 7191W        W10935   7.024   0.165   2.159
 7192W        W10936   5.830   2.892   2.066
 7193W        W10937   9.832   8.847   0.056
 7194W        W10938   1.811  10.173  10.499
 7195W        W10939   3.102   2.291   2.365
 7196W        W10940   0.674   1.353   0.057
 7197W        W10941   2.154   2.405   0.633
 7198W        W10942   7.469   4.135   9.300
 7199W        W10943   3.364   0.750  11.386
 7200W        W10944   2.654  10.348   2.646
 7201W        W10945   0.017   5.540   9.040
 7202W        W10946   4.969   1.690   2.973
 7203W        W10947   3.943   4.469   0.099
 7204W        W10948   9.325   4.542   2.385
 7205W        W10949   9.225  10.122  10.381
 7206W        W10950   9.355   0.907   0.390
 7207W        W10951   1.233   2.732   9.296
 7208W        W10952   2.587   4.213   1.927
 7209W        W10953   3.091   5.547   9.761
 7210W        W10954   2.830   8.970   9.519
 7211W        W10955   5.541   6.044  10.746
 7212W        W10956   7.712   7.802   9.839
 7213W        W10957   3.075   2.714   8.860
 7214W        W10958   5.062  10.380   8.734
 7215W        W10959   6.509  10.467   0.007
 7216W        W10960   3.825   3.164   9.761
 7217W        W10961   7.821   6.475   0.172
 7218W        W10962   6.059   2.196   8.462
 7219W        W10963   3.219   3.198  11.054
 7220W        W10964   4.740  10.155   9.381
 7221W        W10965   4.116   7.040   9.793
 7222W        W10966  10.344   9.907   2.786
 7223W        W10967   4.098   2.648   1.863
 7224W        W10968   0.529   0.818   2.208
 7225W        W10969   1.358   1.458   0.749
 7226W        W10970   2.040   1.788   1.780
 7227W        W10971   3.731  10.066   2.203
 7228W        W10972   5.630   4.862  11.354
 7229W        W10973   9.837   7.725   2.256
 7230ION    NA+10974   7.840   7.014   9.023
 7231ION    NA+10975   8.854  10.452  11.973
 7232ION    NA+10976   0.277   6.679   3.613
 7233ION    NA+10977   6.651   1.800   3.052
 7234ION    NA+10978  10.488   3.701  11.497
 7235ION    NA+10979   1.316   8.634   2.935
 7236ION    NA+10980   9.973   6.480   0.958
 7237ION    NA+10981   4.879   0.339   9.422
 7238ION    NA+10982   2.967   4.719   0.181
 7239ION    NA+10983  10.498   0.476   8.939
 7240ION    NA+10984   7.383   4.669   8.158
 7241ION    NA+10985   0.200   9.079   9.262
 7242ION    NA+10986   5.264   7.108  11.040
 7243ION    NA+10987   5.221   3.078   9.038
 7244ION    NA+10988   6.369   8.910  10.120
 7245ION    NA+10989   1.426   6.736   9.820
 7246ION    NA+10990   4.065   1.987  11.058
 7247ION    NA+10991   1.581   0.254   0.946
 7248ION    NA+10992   2.747   0.352  10.817
 7249ION    NA+10993   2.327   2.513   1.749
 7250ION    NA+10994   9.416   0.196   1.987
 7251ION    NA+10995   0.468   7.723   1.360
 7252ION    NA+10996   7.692   0.812   3.825
 7253ION    NA+10997   7.884   3.755   9.811
 7254ION    NA+10998   0.209   5.330  10.828
 7255ION    NA+10999   3.814   4.782  11.199
 7256ION    NA+11000   7.048   1.979   0.524
 7257ION    NA+11001   3.616   9.284   2.447
 7258ION    NA+11002   6.615   3.529   1.863
 7259ION    NA+11003   3.237   6.575   9.447
 7260ION    NA+11004   1.623   4.989   1.350
 7261ION    NA+11005  10.378  10.336   3.076
 7262ION    NA+11006   2.680   1.973  11.111
 7263ION    NA+11007   7.023  10.023   9.038
 7264ION    NA+11008   9.368   3.262   0.793
 7265ION    NA+11009   1.697   1.798  11.071
 7266ION    NA+11010   1.710   2.948   9.166
 7267ION    NA+11011   4.527   6.799   9.593
 7268ION    NA+11012   1.785   7.160  11.528
 7269ION    NA+11013   3.845   0.952   0.619
 7270ION    NA+11014   0.303   9.147   0.323
 7271ION    NA+11015   9.389   1.455  10.438
 7272ION    NA+11016   7.580   2.120  11.345
 7273ION    NA+11017   9.558   5.207   3.461
 7274ION    NA+11018   4.527   5.170   0.087
 7275ION    NA+11019   0.924   5.407   0.127
 7276ION    NA+11020  10.105   9.608   9.540
 7277ION    NA+11021   3.322   6.630   2.623
 7278ION    NA+11022   2.727   9.342   1.957
 7279ION    NA+11023   5.918   9.125  10.986
 7280ION    NA+11024   4.950   3.285   8.098
 7281ION    NA+11025   5.376   4.863   1.643
 7282ION    NA+11026   9.638   3.710  11.117
 7283ION    NA+11027   0.244   5.160   1.853
 7284ION    NA+11028   1.152  10.078  11.620
 7285ION    NA+11029   1.711   0.403  10.995
 7286ION    NA+11030   4.122   8.132   0.984
 7287ION    NA+11031   5.115   2.382   1.223
 7288ION    NA+11032   1.086   9.006  11.839
 7289ION    NA+11033   0.344   8.038   2.827
 7290ION    NA+11034   6.303   9.628   1.895
 7291ION    NA+11035   4.968   4.737   0.900
 7292ION    NA+11036   0.677   0.772   0.744
 7293ION    NA+11037   1.104   9.820   3.148
 7294ION    NA+11038   3.801   0.904  10.043
 7295ION    NA+11039   1.883   7.754   9.761
 7296ION    NA+11040   5.255   5.579  11.742
 7297ION    NA+11041   3.917   0.068   9.450
 7298ION    NA+11042   2.814   0.180   0.522
 7299ION    NA+11043   7.888   0.689   2.239
 7300ION    NA+11044   2.015   0.539  11.999
 7301ION    NA+11045   4.743   3.659   1.933
 7302ION    NA+11046   1.007   8.180  11.885
 7303ION    NA+11047   6.754   7.710   0.643
 7304ION    NA+11048   2.745   7.956   2.290
 7305ION    NA+11049   4.380   8.631   9.937
 7306ION    CL-11050   5.122   4.953   1.276
 7307ION    CL-11051   4.862   5.389  11.867
 7308ION    CL-11052   9.015   2.777  10.238
 7309ION    CL-11053   8.557   1.381   9.456
 7310ION    CL-11054  10.379   3.245   1.754
 7311ION    CL-11055   5.466   6.893   1.460
 7312ION    CL-11056   1.691  10.068   8.576
 7313ION    CL-11057   8.536   8.815   9.802
 7314ION    CL-11058   9.235   0.202  10.894
 7315ION    CL-11059   3.216   2.767   3.336
 7316ION    CL-11060   1.935   8.187   9.657
 7317ION    CL-11061   2.798   3.626   1.092
 7318ION    CL-11062   7.390  10.102   9.294
 7319ION    CL-11063   0.619   7.312   1.257
 7320ION    CL-11064   2.680   1.864  11.546
 7321ION    CL-11065   1.166   8.561  11.701
 7322ION    CL-11066   1.334   2.941  11.729
 7323ION    CL-11067   3.721   8.902   2.240
 7324ION    CL-11068   4.669   0.497   1.915
 7325ION    CL-11069   9.236   2.796   8.884
 7326ION    CL-11070   2.842   0.572   2.004
 7327ION    CL-11071   3.935   0.809   1.035
 7328ION    CL-11072   6.786   9.022  10.007
 7329ION    CL-11073   8.534   9.135   0.522
 7330ION    CL-11074   9.398   4.366   9.639
 7331ION    CL-11075   6.749   9.549   1.924
 7332ION    CL-11076   9.329   3.474  10.883
 7333ION    CL-11077   7.889   8.908  10.611
 7334ION    CL-11078   2.900   4.538   3.236
 7335ION    CL-11079   2.676   1.273   1.310
 7336ION    CL-11080   0.648   9.082   0.010
 7337ION    CL-11081   0.163   8.954   0.715
 7338ION    CL-11082   2.092   3.816   0.410
 7339ION    CL-11083   1.582   2.933   8.729
 7340ION    CL-11084   4.434   9.999  11.958
 7341ION    CL-11085   1.287   8.611   2.482
 7342ION    CL-11086   2.449   7.660   2.450
 7343ION    CL-11087   5.116   9.212   9.495
 7344ION    CL-11088   4.739   9.910  10.306
 7345ION    CL-11089   8.330   5.338   8.801
 7346ION    CL-11090   6.555   1.394   3.237
 7347ION    CL-11091  10.059   3.719  11.341
 7348ION    CL-11092   9.858   8.032   1.784
 7349ION    CL-11093   6.860   7.092   0.984
 7350ION    CL-11094   2.256   1.887   0.513
 7351ION    CL-11095   5.072   2.898   9.418
 7352ION    CL-11096  10.486   9.369   9.537
 7353ION    CL-11097   4.177   3.672   3.700
 7354ION    CL-11098   5.851   7.813   1.160
 7355ION    CL-11099   2.523   4.695   0.207
 7356ION    CL-11100   3.144   5.177   8.857
 7357ION    CL-11101   4.856   4.565  10.703
 7358ION    CL-11102   7.176   8.382   1.792
 7359ION    CL-11103   4.021   2.363  11.296
 7360ION    CL-11104   1.196   9.137  10.136
 7361ION    CL-11105   6.790   9.966   8.647
 7362ION    CL-11106   7.991   4.509   1.390
 7363ION    CL-11107   0.273   9.907   0.432
 7364ION    CL-11108   2.596   6.473  11.906
 7365ION    CL-11109   8.008   6.150   9.520
 7366ION    CL-11110   1.341   8.648   3.413
 7367ION    CL-11111   9.286   5.064   8.701
 7368ION    CL-11112   0.623   5.178  10.905
 7369ION    CL-11113   5.172   3.471   4.105
 7370ION    CL-11114   6.959   7.980   0.349
 7371ION    CL-11115   5.857   9.684   1.823
 7372ION    CL-11116   4.026   5.072  10.935
 7373ION    CL-11117   3.486   6.852   2.973
 7374ION    CL-11118   0.568   1.151   0.536
 7375ION    CL-11119   8.474   8.193  10.993
 7376ION    CL-11120   8.918   6.941  10.778
 7377ION    CL-11121   8.533  10.089   2.981
 7378ION    CL-11122   4.203   2.291   9.382
 7379ION    CL-11123   3.004   0.683   8.656
 7380ION    CL-11124   2.231   2.882   1.515
 7381ION    CL-11125   1.308   9.797  11.935
  10.50000  10.50000  12.00000
