Protein in INSANE! Membrane UpperLeaflet>POPC=1.0 LowerLeaflet>POPC=1.0
12676
    1AU     AUC    1   9.397   8.387   6.893 -0.0225  0.0082  0.0089
    1AU     AUC    2   9.261   8.108   6.913  0.0025  0.0749  0.0306
    1AU     AUC    3   9.519   8.180   6.751  0.0420  0.0184  0.0118
    1AU     AUC    4   9.256   8.595   7.067  0.0087 -0.0200 -0.0512
    1AU     AUC    5   9.484   8.692   6.863  0.0833 -0.0065 -0.0195
    1AU     AUC    6   9.220   8.588   6.751 -0.0982  0.0794 -0.0390
    1AU     AUC    7   9.207   8.284   6.676 -0.0302 -0.0258 -0.0178
    1AU     AUC    8   9.547   8.499   7.135 -0.0684  0.0011  0.0482
    1AU     AUC    9   9.558   8.221   7.039  0.0033  0.0581  0.0594
    1AU     AUC   10   9.689   8.427   6.855  0.0564  0.0311  0.0612
    1AU     AUC   11   9.479   8.468   6.610  0.0582 -0.0317  0.0138
    1AU     AUC   12   9.281   8.315   7.172 -0.0721 -0.0387 -0.0846
    1AU     AUC   13   9.094   8.398   6.953  0.0009 -0.0017 -0.0870
    1AU     AUC   14   9.145   7.842   6.950  0.0306  0.0974 -0.0095
    1AU     AUC   15   9.393   7.899   6.752  0.0163 -0.0561 -0.0454
    1AU     AUC   16   9.638   7.972   6.588  0.0564 -0.1016  0.0641
    1AU     AUC   17   9.125   8.833   7.233 -0.0497  0.0413 -0.0657
    1AU     AUC   18   9.364   8.893   7.043  0.0113  0.0553 -0.0138
    1AU     AUC   19   9.582   8.953   6.812  0.0231 -0.0021 -0.0087
    1AU     AUC   20   9.043   8.759   6.593 -0.0115  0.0133  0.0809
    1AU     AUC   21   9.055   8.483   6.499 -0.0177 -0.0060 -0.1544
    1AU     AUC   22   9.078   8.202   6.432  0.0300  0.0629  0.0696
    1AU     AUC   23   9.707   8.600   7.353  0.0880  0.0185 -0.1897
    1AU     AUC   24   9.717   8.301   7.296  0.0282 -0.0592 -0.0877
    1AU     AUC   25   9.734   8.011   7.196 -0.0317  0.0027  0.0190
    1AU     AUC   26   9.978   8.456   6.846 -0.0791 -0.0140 -0.0442
    1AU     AUC   27   9.790   8.513   6.587  0.0757 -0.0128 -0.0734
    1AU     AUC   28   9.611   8.546   6.329 -0.1193 -0.0203 -0.0889
    1AU     AUC   29   9.204   8.249   7.436  0.1000  0.0451  0.0134
    1AU     AUC   30   8.991   8.276   7.215 -0.1171 -0.0562  0.0125
    1AU     AUC   31   8.793   8.356   6.989  0.0768  0.0371  0.0504
    1AU     AUC   32   9.821   8.186   6.676  0.0666 -0.1446  0.0474
    1AU     AUC   33   9.632   8.257   6.470 -0.0096 -0.0799  0.0085
    1AU     AUC   34   9.194   8.027   7.198  0.0039 -0.0362 -0.0329
    1AU     AUC   35   8.962   8.077   6.974  0.0689 -0.0720 -0.0738
    1AU     AUC   36   9.781   8.718   6.823 -0.0110 -0.0461  0.0741
    1AU     AUC   37   9.607   8.773   6.582 -0.0020  0.0164  0.0744
    1AU     AUC   38   9.150   8.523   7.345  0.0014 -0.0587  0.0199
    1AU     AUC   39   8.961   8.605   7.117  0.0988  0.0167 -0.0041
    1AU     AUC   40   9.100   8.012   6.667 -0.0012  0.0179  0.0470
    1AU     AUC   41   9.354   8.066   6.503 -0.0724  0.0331  0.1052
    1AU     AUC   42   9.100   8.814   6.918 -0.0152 -0.1087  0.0326
    1AU     AUC   43   9.323   8.876   6.700  0.0128 -0.0619 -0.0089
    1AU     AUC   44   9.440   7.927   7.060 -0.0706  0.1059 -0.0428
    1AU     AUC   45   9.698   7.977   6.888 -0.0414  0.0165  0.0037
    1AU     AUC   46   9.416   8.719   7.294  0.0601 -0.0041  0.0778
    1AU     AUC   47   9.666   8.799   7.090  0.0747 -0.0033 -0.1607
    1AU     AUC   48   9.336   8.665   6.469  0.0100 -0.0209 -0.0184
    1AU     AUC   49   9.304   8.354   6.384  0.0511 -0.0076  0.0321
    1AU     AUC   50   9.863   8.533   7.106 -0.0519 -0.0630  0.0270
    1AU     AUC   51   9.876   8.219   6.993  0.1371  0.0260  0.0852
    1AU     AUC   52   8.915   8.573   6.793 -0.0374  0.0413 -0.0046
    1AU     AUC   53   8.923   8.273   6.719  0.0703  0.0178 -0.0321
    1AU     AUC   54   9.439   8.425   7.414 -0.0001 -0.0522 -0.0040
    1AU     AUC   55   9.470   8.105   7.306  0.0221 -0.0705 -0.0391
    1AU    AUSL   56   9.907   8.196   6.475  0.0951 -0.0583 -0.1173
    1AU    AUSL   57  10.203   8.105   6.787  0.0543 -0.0192 -0.0051
    1AU     AUL   58  10.326   7.994   6.454  0.0091 -0.0278 -0.0460
    1AU       S   59  10.350   7.800   6.931  0.4076 -0.0832  0.0169
    1AU     LIG   60  10.768   8.026   6.753  0.1479 -0.4196  0.0536
    1AU     LIG   61  11.128   8.269   6.702  0.0750 -0.4118 -0.2740
    1AU     LIG   62  11.577   8.499   6.774 -0.4589 -0.2839 -0.2414
    1AU     LIG   63  11.823   8.682   7.163  0.2758 -0.2873 -0.0702
    1AU     LIG   64  12.165   8.541   7.484 -0.2691 -0.1321 -0.1199
    1AU     LIG   65  12.262   8.117   7.765 -0.0823  0.2226  0.1499
    1AU       S   66  10.235   8.468   6.031  0.0163 -0.0863 -0.7476
    1AU     LIG   67  10.497   8.761   5.819  0.2060 -0.1410 -0.1244
    1AU     LIG   68  10.474   9.182   5.619 -0.0926 -0.1922  0.1628
    1AU     LIG   69  10.666   9.630   5.696  0.0229  0.1899  0.3193
    1AU     LIG   70  10.718   9.904   6.048  0.1819 -0.2046  0.2650
    1AU     LIG   71  10.626  10.316   6.035 -0.0528  0.0331 -0.1768
    1AU     LIG   72  10.634  10.726   5.999  0.2047 -0.4877 -0.2073
    1AU    AUSL   73  10.206   8.453   6.574 -0.0225  0.0555  0.0250
    1AU    AUSL   74   9.932   8.645   6.339 -0.0754  0.0204  0.1201
    1AU     AUL   75  10.451   8.493   6.552  0.0975 -0.0417 -0.0420
    1AU       S   76  10.290   8.425   6.145  0.2469 -0.3855  0.4121
    1AU     LIG   77  10.718   8.112   6.219  0.0702  0.2766 -0.3631
    1AU     LIG   78  10.996   7.813   6.358 -0.0597 -0.1737 -0.4680
    1AU     LIG   79  11.255   7.513   6.603  0.3545  0.0911  0.0889
    1AU     LIG   80  11.349   7.248   6.880 -0.0278 -0.1780 -0.0594
    1AU     LIG   81  11.641   7.153   7.188 -0.0238  0.0819  0.0712
    1AU     LIG   82  12.005   7.111   6.928 -0.0667  0.0739  0.2309
    1AU       S   83  10.290   8.897   6.242 -0.2731  0.3311  0.6328
    1AU     LIG   84  10.777   8.711   6.302  0.4446 -0.0429 -0.0926
    1AU     LIG   85  11.098   8.612   6.377 -0.0240  0.0830 -0.2902
    1AU     LIG   86  11.438   8.936   6.599 -0.0834 -0.2575  0.1501
    1AU     LIG   87  11.691   9.021   6.879 -0.2635  0.3823  0.1845
    1AU     LIG   88  12.058   9.155   6.726  0.4286 -0.0892  0.2798
    1AU     LIG   89  12.173   9.470   6.455  0.1723 -0.0890  0.4135
    1AU    AUSL   90   9.792   8.341   6.105  0.0887 -0.0577  0.0679
    1AU    AUSL   91   9.676   7.913   6.275 -0.0587  0.0849  0.0388
    1AU     AUL   92   9.988   8.079   6.167  0.0107  0.0578 -0.0884
    1AU       S   93   9.848   8.463   5.865 -0.0867 -0.3195  0.2987
    1AU     LIG   94   9.666   8.171   5.519  0.0494  0.1877  0.0707
    1AU     LIG   95   9.247   8.112   5.472  0.2840  0.0122  0.3072
    1AU     LIG   96   8.905   7.988   5.689  0.2471 -0.0135 -0.0412
    1AU     LIG   97   8.738   7.547   5.826  0.0814 -0.2186 -0.0320
    1AU     LIG   98   8.373   7.349   6.038  0.3110 -0.2128  0.0567
    1AU     LIG   99   7.932   7.426   6.086 -0.0666 -0.4560 -0.0183
    1AU       S  100   9.681   7.700   6.007 -0.3545  0.1869  0.2709
    1AU     LIG  101   9.992   7.397   5.781 -0.3133  0.0711 -0.0110
    1AU     LIG  102  10.392   7.304   5.923 -0.0110  0.3627  0.0097
    1AU     LIG  103  10.652   6.896   5.921  0.1131 -0.2982  0.1181
    1AU     LIG  104  11.016   6.725   6.136  0.2103 -0.0328 -0.3929
    1AU     LIG  105  11.394   6.759   6.321  0.0326  0.0100 -0.0855
    1AU     LIG  106  11.599   6.758   6.880 -0.1370 -0.2560 -0.1097
    1AU    AUSL  107   8.920   7.788   7.067 -0.0719 -0.0234 -0.0711
    1AU    AUSL  108   8.602   8.048   6.882  0.0257  0.0331  0.0043
    1AU     AUL  109   8.530   7.683   7.013 -0.0733 -0.0547 -0.0189
    1AU       S  110   8.473   7.945   7.359 -0.0513 -0.4959 -0.0136
    1AU     LIG  111   8.077   7.736   7.378  0.0142  0.3470 -0.0873
    1AU     LIG  112   7.718   7.887   7.208  0.2774  0.0517 -0.0970
    1AU     LIG  113   7.341   7.896   7.034 -0.0633  0.0834  0.2845
    1AU     LIG  114   6.985   7.746   6.988 -0.1102  0.0954  0.0446
    1AU     LIG  115   7.005   7.288   6.835 -0.2798 -0.1951  0.4579
    1AU     LIG  116   6.683   6.953   6.559  0.0215 -0.0557 -0.0830
    1AU       S  117   8.361   7.685   6.590  0.2374 -0.3169  0.3110
    1AU     LIG  118   8.120   7.355   6.508 -0.0970  0.3113  0.1407
    1AU     LIG  119   7.771   7.164   6.572  0.3590 -0.3166 -0.1875
    1AU     LIG  120   7.383   6.994   6.674  0.1045  0.1114 -0.6074
    1AU     LIG  121   7.061   6.677   6.823 -0.3705 -0.1558 -0.0308
    1AU     LIG  122   7.165   6.162   6.897 -0.0051 -0.0334 -0.0045
    1AU     LIG  123   6.988   5.872   7.115  0.0322  0.2207 -0.0022
    1AU    AUSL  124   8.938   7.906   7.484 -0.0074 -0.0280  0.0469
    1AU    AUSL  125   9.230   7.620   7.267 -0.0028 -0.0557  0.0798
    1AU     AUL  126   8.903   7.536   7.306 -0.0016 -0.1099 -0.0561
    1AU       S  127   9.258   7.457   7.618 -0.1754  0.0876  0.3399
    1AU     LIG  128   9.102   7.089   7.353  0.0634 -0.1711 -0.0733
    1AU     LIG  129   9.341   6.824   7.012 -0.0196 -0.0970 -0.2399
    1AU     LIG  130   9.563   6.810   6.602 -0.0164  0.0976  0.0098
    1AU     LIG  131   9.789   6.668   6.214 -0.0984  0.2579  0.1033
    1AU     LIG  132   9.703   6.543   5.819 -0.0674  0.0640 -0.0823
    1AU     LIG  133   9.715   6.802   5.450 -0.0800 -0.0771 -0.1058
    1AU       S  134   8.537   7.774   7.512  0.2116 -0.5046  0.0313
    1AU     LIG  135   8.413   7.351   7.296  0.1627  0.1555 -0.0591
    1AU     LIG  136   8.272   7.072   6.926  0.1691  0.2681  0.3887
    1AU     LIG  137   7.951   6.682   6.658 -0.0250 -0.3459  0.0239
    1AU     LIG  138   7.594   6.432   6.858  0.1936 -0.0181  0.4675
    1AU     LIG  139   7.377   6.475   7.217  0.2435 -0.2502  0.0663
    1AU     LIG  140   7.357   6.360   7.619  0.1678  0.1129 -0.0069
    1AU    AUSL  141   8.856   8.179   7.179 -0.0399  0.0209 -0.0329
    1AU    AUSL  142   8.854   8.314   7.590  0.0479  0.0718 -0.0039
    1AU     AUL  143   8.898   8.024   7.711  0.0358 -0.0256  0.0766
    1AU       S  144   8.528   8.356   7.739  0.3329 -0.3284  0.1417
    1AU     LIG  145   8.552   7.911   7.995 -0.0815  0.1370  0.2855
    1AU     LIG  146   8.727   7.550   8.202  0.2736 -0.2904  0.1516
    1AU     LIG  147   9.094   7.279   8.168 -0.0800  0.2490  0.1465
    1AU     LIG  148   9.529   7.100   8.004 -0.2805  0.2376 -0.0951
    1AU     LIG  149   9.882   7.269   7.883  0.0931 -0.0777 -0.4068
    1AU     LIG  150  10.303   7.235   7.803 -0.2329  0.0485  0.0253
    1AU       S  151   8.608   7.975   7.371  0.2370  0.1512  0.0999
    1AU     LIG  152   8.143   8.207   7.140 -0.2361  0.3862  0.1004
    1AU     LIG  153   8.012   8.110   6.811 -0.1274 -0.1387  0.2431
    1AU     LIG  154   7.548   8.108   6.559  0.0609 -0.0009  0.2918
    1AU     LIG  155   7.153   8.108   6.547  0.3112  0.0764  0.1670
    1AU     LIG  156   6.876   8.420   6.456  0.1033  0.3260  0.3321
    1AU     LIG  157   6.519   8.537   6.686  0.0192  0.2293  0.0773
    1AU    AUSL  158   9.896   8.973   6.583 -0.0216 -0.0115 -0.0587
    1AU    AUSL  159   9.607   8.885   6.238  0.0385 -0.0016 -0.0040
    1AU     AUL  160   9.873   8.861   6.119 -0.0121 -0.0212 -0.0497
    1AU       S  161  10.224   9.048   6.353  0.2602  0.0092 -0.0292
    1AU     LIG  162  10.269   9.463   6.027  0.1199  0.0126 -0.1388
    1AU     LIG  163  10.128   9.811   5.863  0.1673 -0.0590  0.0934
    1AU     LIG  164   9.794  10.008   6.080 -0.2972  0.2227 -0.1992
    1AU     LIG  165   9.548  10.205   6.249 -0.2573 -0.6490 -0.3342
    1AU     LIG  166   9.528  10.421   6.584 -0.0401 -0.4526 -0.1824
    1AU     LIG  167   9.388  10.821   6.871  0.2545 -0.1427  0.0760
    1AU       S  168   9.804   9.308   6.204  0.2479  0.0145  0.4090
    1AU     LIG  169   9.997   9.626   6.377  0.1394 -0.1990  0.1140
    1AU     LIG  170  10.306   9.993   6.354 -0.0983 -0.0133  0.0214
    1AU     LIG  171  10.408  10.416   6.553  0.0001 -0.0707  0.2425
    1AU     LIG  172  10.347  10.610   6.926  0.4524  0.0801  0.1105
    1AU     LIG  173  10.589  10.847   7.298 -0.1200  0.0601  0.1331
    1AU     LIG  174  10.747  11.175   7.379 -0.3243 -0.2096  0.1429
    1AU    AUSL  175   9.870   8.606   6.750  0.0060 -0.0364  0.0006
    1AU    AUSL  176   9.893   9.105   6.972 -0.0355  0.0662  0.0204
    1AU     AUL  177   9.974   9.158   6.726  0.0080 -0.0055 -0.1269
    1AU       S  178  10.290   9.254   7.053 -0.0905 -0.1463  0.0052
    1AU     LIG  179  10.574   9.604   7.224  0.1931  0.0390  0.4023
    1AU     LIG  180  10.925   9.898   7.389 -0.1731 -0.1856  0.1667
    1AU     LIG  181  11.290  10.236   7.374  0.0154 -0.2407 -0.0573
    1AU     LIG  182  11.427  10.488   6.990 -0.0434 -0.0219 -0.3155
    1AU     LIG  183  11.382  10.720   6.672 -0.6095 -0.3454  0.1138
    1AU     LIG  184  11.519  11.046   6.490 -0.0327 -0.2720  0.2613
    1AU       S  185  10.343   8.924   6.473 -0.0095 -0.2294  0.0887
    1AU     LIG  186  10.459   9.335   6.607 -0.2489  0.0225 -0.1524
    1AU     LIG  187  10.581   9.622   6.458 -0.0237  0.0474  0.0990
    1AU     LIG  188  10.795  10.046   6.502 -0.3040 -0.0924 -0.1112
    1AU     LIG  189  10.871  10.353   6.821 -0.0429 -0.0572  0.0888
    1AU     LIG  190  10.746  10.804   6.786 -0.0552 -0.1893  0.0038
    1AU     LIG  191  10.948  11.157   6.879 -0.1492 -0.3422 -0.0114
    1AU    AUSL  192   8.944   8.664   7.392  0.0345 -0.1047  0.0105
    1AU    AUSL  193   9.241   8.448   7.654 -0.0129  0.0214  0.0101
    1AU     AUL  194   8.934   8.557   7.795  0.0092  0.0079 -0.0071
    1AU       S  195   8.460   8.559   7.741  0.1080 -0.2694 -0.3194
    1AU     LIG  196   8.381   9.035   7.820  0.3129  0.0704  0.0550
    1AU     LIG  197   8.257   9.381   7.565  0.2748  0.2437 -0.2210
    1AU     LIG  198   8.080   9.568   7.228 -0.0608  0.3403 -0.5397
    1AU     LIG  199   7.859  10.026   7.250  0.0537  0.4612  0.3432
    1AU     LIG  200   7.403   9.905   7.337 -0.0350  0.0147  0.3018
    1AU     LIG  201   7.116  10.131   7.531 -0.1022 -0.1066  0.1301
    1AU       S  202   9.334   8.748   8.056 -0.0785 -0.1178 -0.0872
    1AU     LIG  203   9.057   8.503   8.268 -0.0237 -0.2123 -0.2967
    1AU     LIG  204   8.913   8.174   8.146 -0.2632  0.0235 -0.0085
    1AU     LIG  205   9.255   7.880   8.206  0.1140 -0.1562  0.1769
    1AU     LIG  206   9.661   7.715   8.134  0.0743  0.0757  0.1366
    1AU     LIG  207  10.086   7.700   8.019  0.4099  0.0991  0.2564
    1AU     LIG  208  10.461   7.503   8.185 -0.1154 -0.0987 -0.0416
    1AU    AUSL  209   8.570   8.449   7.259  0.0266  0.0049 -0.0486
    1AU    AUSL  210   8.783   9.002   7.198  0.0072  0.0884  0.0451
    1AU     AUL  211   8.702   8.839   7.454 -0.0365  0.0628 -0.0090
    1AU       S  212   8.416   9.108   7.176  0.3449 -0.0481 -0.2451
    1AU     LIG  213   7.950   9.107   7.117 -0.0275 -0.2064 -0.1346
    1AU     LIG  214   7.624   9.369   7.250  0.4123  0.0278 -0.1164
    1AU     LIG  215   7.233   9.394   7.200  0.0002  0.0294 -0.0305
    1AU     LIG  216   6.810   9.391   6.956  0.0773  0.1903  0.2764
    1AU     LIG  217   6.410   9.459   6.846 -0.2387  0.1804 -0.1689
    1AU     LIG  218   6.011   9.375   6.784 -0.0980  0.2612 -0.0395
    1AU       S  219   8.474   8.446   7.534  0.1843  0.2143 -0.2137
    1AU     LIG  220   8.097   8.702   7.426  0.1335  0.0699 -0.0836
    1AU     LIG  221   7.704   8.538   7.458  0.3255 -0.1409  0.0219
    1AU     LIG  222   7.382   8.427   7.389 -0.4560 -0.1637 -0.1026
    1AU     LIG  223   7.029   8.237   7.456  0.0755  0.4343 -0.0369
    1AU     LIG  224   6.797   7.949   7.365  0.1063 -0.2027  0.1770
    1AU     LIG  225   6.514   7.634   7.375 -0.2542  0.5625 -0.2091
    1AU    AUSL  226   8.983   7.929   6.287  0.0276 -0.0538 -0.0300
    1AU    AUSL  227   8.851   7.767   6.665 -0.0053  0.0044  0.0264
    1AU     AUL  228   8.706   7.872   6.171 -0.0025  0.0118 -0.0736
    1AU       S  229   8.621   7.545   6.550 -0.3021 -0.0994 -0.0970
    1AU     LIG  230   8.574   7.109   6.450  0.2982 -0.5321 -0.1796
    1AU     LIG  231   8.565   6.708   6.672 -0.1092 -0.1677 -0.1366
    1AU     LIG  232   8.393   6.332   6.809 -0.2595  0.1569 -0.1027
    1AU     LIG  233   8.016   6.175   6.750 -0.4501 -0.4755  0.0257
    1AU     LIG  234   7.709   5.836   6.753  0.3996  0.0514 -0.0541
    1AU     LIG  235   7.744   5.393   6.680  0.0440 -0.4407 -0.2099
    1AU       S  236   9.030   7.477   6.255 -0.3492  0.1733  0.2446
    1AU     LIG  237   8.992   7.107   6.087 -0.6948  0.0945  0.2332
    1AU     LIG  238   9.294   6.612   6.175 -0.4625  0.2870  0.0875
    1AU     LIG  239   9.462   6.310   6.442  0.2748 -0.1720 -0.3459
    1AU     LIG  240   9.487   6.294   6.873  0.2490 -0.1371 -0.2528
    1AU     LIG  241   9.306   6.128   7.267  0.0976  0.0743  0.1768
    1AU     LIG  242   9.311   5.845   7.620 -0.0473  0.0637 -0.3435
    1AU    AUSL  243   9.178   7.555   6.774  0.0702  0.0228 -0.0973
    1AU    AUSL  244   9.608   7.587   6.676  0.0535 -0.0055 -0.0039
    1AU     AUL  245   9.403   7.271   6.752  0.1027  0.0111 -0.0768
    1AU       S  246   9.102   7.372   6.455 -0.3105  0.0904  0.3661
    1AU     LIG  247   9.052   6.971   6.559  0.3404  0.1746  0.0831
    1AU     LIG  248   9.072   6.538   6.656 -0.4933  0.2328  0.0259
    1AU     LIG  249   8.907   6.142   6.848 -0.0707  0.2916  0.0476
    1AU     LIG  250   8.891   5.860   7.081  0.0344  0.1669  0.0083
    1AU     LIG  251   8.753   5.469   6.986  0.0327 -0.0206 -0.0949
    1AU     LIG  252   8.832   5.045   6.966  0.1452 -0.0994 -0.1768
    1AU       S  253   9.814   7.184   6.930  0.1229  0.2256 -0.0692
    1AU     LIG  254   9.866   6.670   7.120  0.0765 -0.0349  0.1773
    1AU     LIG  255  10.195   6.522   7.299 -0.2508 -0.0742  0.0564
    1AU     LIG  256  10.608   6.350   7.453 -0.1888  0.3684  0.0245
    1AU     LIG  257  11.063   6.386   7.435 -0.0421  0.4347 -0.2344
    1AU     LIG  258  11.616   6.219   7.389  0.0329 -0.1388  0.1634
    1AU     LIG  259  11.872   5.825   7.348 -0.0170 -0.3608 -0.0131
    1AU    AUSL  260   9.329   7.850   6.503 -0.0853  0.0273  0.1121
    1AU    AUSL  261   9.342   8.092   6.135  0.0221  0.0845  0.0076
    1AU     AUL  262   9.238   7.886   6.103  0.0421 -0.0253  0.0055
    1AU       S  263   9.637   7.897   5.912 -0.1560  0.0407 -0.2119
    1AU     LIG  264  10.096   7.934   5.725 -0.0818  0.1390 -0.3038
    1AU     LIG  265  10.416   7.833   5.949 -0.0197  0.1952  0.0316
    1AU     LIG  266  10.763   7.619   5.980  0.0347  0.0009  0.0721
    1AU     LIG  267  10.807   7.218   6.312  0.3468  0.0172 -0.1149
    1AU     LIG  268  10.776   6.861   6.543 -0.1677 -0.0905 -0.1408
    1AU     LIG  269  11.093   6.788   6.784 -0.1890 -0.0755  0.0343
    1AU       S  270   9.285   7.486   6.322 -0.0957  0.3279  0.1184
    1AU     LIG  271   9.545   7.236   6.287 -0.0654  0.0469  0.0228
    1AU     LIG  272   9.950   7.144   6.248  0.2336  0.2471  0.0055
    1AU     LIG  273  10.347   7.009   6.309  0.0374 -0.2664  0.2232
    1AU     LIG  274  10.374   6.558   6.386 -0.4297 -0.0304  0.1895
    1AU     LIG  275  10.368   6.117   6.513 -0.3510  0.2014 -0.4232
    1AU     LIG  276  10.372   5.727   6.721 -0.1172 -0.4903  0.4064
    1AU    AUSL  277   9.079   9.143   6.609  0.0940 -0.1263  0.1142
    1AU    AUSL  278   9.508   9.137   6.559 -0.0909 -0.0049  0.0345
    1AU     AUL  279   9.164   9.208   6.279 -0.0492 -0.0818 -0.0191
    1AU       S  280   9.599   9.344   6.450  0.3024  0.1156 -0.4388
    1AU     LIG  281   9.452   9.685   6.378 -0.0698 -0.0026 -0.1837
    1AU     LIG  282   9.145  10.048   6.564  0.1957 -0.0107  0.1603
    1AU     LIG  283   9.047  10.378   6.622 -0.1757 -0.3136  0.1503
    1AU     LIG  284   8.803  10.582   6.886  0.1054 -0.2508 -0.2653
    1AU     LIG  285   8.698  10.624   7.286 -0.4476  0.1426  0.0557
    1AU     LIG  286   8.856  10.854   7.649  0.1693  0.2726  0.0062
    1AU       S  287   9.054   9.488   6.636  0.0628  0.2682  0.3431
    1AU     LIG  288   8.708   9.900   6.630  0.0317  0.1507 -0.0220
    1AU     LIG  289   8.507  10.284   6.598  0.3540  0.3339 -0.0127
    1AU     LIG  290   8.161  10.449   6.492 -0.2554 -0.2890  0.2630
    1AU     LIG  291   7.803  10.765   6.608 -0.0387  0.2894  0.2627
    1AU     LIG  292   7.473  10.731   6.861  0.0632  0.1330 -0.2337
    1AU     LIG  293   7.123  10.804   7.075 -0.1487 -0.2088 -0.1084
    1AU    AUSL  294   9.120   8.970   6.972  0.0273  0.0400  0.0011
    1AU    AUSL  295   8.732   8.945   6.738  0.0659  0.0534 -0.0011
    1AU     AUL  296   8.817   9.196   6.881 -0.0239 -0.0327  0.0058
    1AU       S  297   9.079   9.564   6.790 -0.3547  0.0343  0.1298
    1AU     LIG  298   9.049   9.858   7.043  0.2623 -0.1258 -0.0484
    1AU     LIG  299   9.061  10.210   7.132 -0.1429  0.0713 -0.0369
    1AU     LIG  300   9.200  10.548   7.422  0.1829  0.0341  0.0483
    1AU     LIG  301   9.409  10.873   7.333  0.2251  0.0121  0.3175
    1AU     LIG  302   9.492  11.360   7.120  0.1151  0.3245  0.1742
    1AU     LIG  303   9.335  11.772   7.147 -0.2349 -0.0215 -0.0215
    1AU       S  304   8.363   9.097   6.821 -0.1824 -0.1509 -0.1396
    1AU     LIG  305   8.399   9.524   6.810 -0.0649  0.2409  0.1487
    1AU     LIG  306   8.121  10.021   6.818 -0.4997 -0.2758  0.1363
    1AU     LIG  307   7.793  10.335   6.856 -0.0814 -0.1169  0.2017
    1AU     LIG  308   7.270  10.253   6.890  0.3515 -0.1649  0.3599
    1AU     LIG  309   6.900  10.330   7.047  0.1983  0.3051 -0.2741
    1AU     LIG  310   6.548  10.051   7.212  0.1257  0.2109 -0.2155
    1AU    AUSL  311   9.418   9.269   6.923  0.1013 -0.0682  0.0286
    1AU    AUSL  312   9.287   9.132   7.310  0.0720  0.0120 -0.0148
    1AU     AUL  313   9.117   9.323   7.211  0.0096  0.0002 -0.0807
    1AU       S  314   9.562   9.487   7.326 -0.4525  0.1035  0.1073
    1AU     LIG  315   9.201   9.660   7.508 -0.1702  0.1569  0.0738
    1AU     LIG  316   8.958   9.931   7.603  0.1364 -0.0907 -0.0574
    1AU     LIG  317   9.105  10.004   7.992  0.1452 -0.1256 -0.3674
    1AU     LIG  318   9.564  10.096   8.085  0.0282 -0.4835 -0.2944
    1AU     LIG  319   9.741  10.047   8.513  0.2788  0.0145 -0.0914
    1AU     LIG  320  10.043   9.836   8.804 -0.1831  0.2189 -0.0603
    1AU       S  321   9.398   9.515   6.855  0.1847  0.2388  0.0667
    1AU     LIG  322   9.822   9.611   6.876  0.0293  0.0860 -0.2291
    1AU     LIG  323  10.272   9.781   6.843 -0.1137 -0.2814 -0.3684
    1AU     LIG  324  10.534  10.056   7.036  0.0474 -0.2439  0.2474
    1AU     LIG  325  10.759  10.373   7.280 -0.1191  0.0124 -0.4691
    1AU     LIG  326  11.096  10.819   7.319  0.2149  0.3164  0.1440
    1AU     LIG  327  11.299  11.070   7.611 -0.1901  0.0628  0.1056
    1AU    AUSL  328   9.793   7.653   7.066 -0.0261 -0.0382 -0.0145
    1AU    AUSL  329   9.925   7.827   6.650 -0.0576 -0.0907 -0.1261
    1AU     AUL  330   9.860   7.532   6.626  0.0956 -0.0137  0.0109
    1AU       S  331   9.877   7.348   7.084  0.1514 -0.0562 -0.0793
    1AU     LIG  332  10.092   7.028   7.405 -0.1364 -0.2470  0.2893
    1AU     LIG  333   9.936   6.773   7.702 -0.2043 -0.1316  0.3746
    1AU     LIG  334   9.910   6.821   8.131 -0.0474 -0.2086  0.1723
    1AU     LIG  335   9.945   6.562   8.400  0.5728 -0.0709 -0.3387
    1AU     LIG  336   9.909   6.293   8.657 -0.0995  0.2419 -0.0289
    1AU     LIG  337   9.721   6.175   8.952 -0.0117 -0.0621 -0.0003
    1AU       S  338  10.211   7.711   6.841  0.1232 -0.4265  0.2510
    1AU     LIG  339  10.261   7.283   6.769  0.1865  0.0746 -0.2282
    1AU     LIG  340  10.068   6.873   6.659  0.0532  0.0622 -0.0973
    1AU     LIG  341   9.948   6.505   6.644  0.0343  0.0806 -0.0815
    1AU     LIG  342  10.003   6.194   6.945 -0.3019  0.0083  0.2627
    1AU     LIG  343  10.311   5.973   7.239  0.3200  0.1790  0.2297
    1AU     LIG  344  10.201   6.187   7.708 -0.0343 -0.3947  0.3339
    1AU    AUSL  345   9.416   7.810   6.962 -0.0251  0.0230 -0.0215
    1AU    AUSL  346   9.602   7.760   7.408  0.0591 -0.0120 -0.0607
    1AU     AUL  347   9.433   7.479   7.163 -0.0412 -0.0305  0.0045
    1AU       S  348   9.877   7.467   7.111  0.0269 -0.3928 -0.4020
    1AU     LIG  349  10.079   7.578   7.507 -0.0935  0.0341 -0.3621
    1AU     LIG  350  10.518   7.741   7.647  0.1886 -0.3307 -0.3577
    1AU     LIG  351  10.842   7.447   7.695 -0.2955  0.0364 -0.2951
    1AU     LIG  352  11.277   7.231   7.677 -0.2224  0.0903 -0.3530
    1AU     LIG  353  11.686   7.529   7.680 -0.1055 -0.3194 -0.1779
    1AU     LIG  354  11.840   7.943   7.671 -0.1344 -0.2023  0.1537
    1AU       S  355   9.568   7.450   7.602 -0.0813  0.4396 -0.1148
    1AU     LIG  356   9.562   7.019   7.385 -0.4417 -0.1144  0.2089
    1AU     LIG  357   9.486   6.587   7.437  0.0683 -0.1737  0.0832
    1AU     LIG  358   9.724   6.242   7.514 -0.1055  0.3299  0.1776
    1AU     LIG  359   9.750   5.859   7.375 -0.4396 -0.0437  0.0506
    1AU     LIG  360   9.468   5.658   7.093 -0.0260 -0.0944  0.2053
    1AU     LIG  361   9.295   5.798   6.667 -0.5091  0.0259  0.1710
    1AU    AUSL  362   9.663   8.978   7.475 -0.0139  0.0201 -0.0280
    1AU    AUSL  363   9.235   8.854   7.603 -0.0253  0.0646  0.0352
    1AU     AUL  364   9.332   9.191   7.638 -0.1793 -0.0899  0.1112
    1AU       S  365   9.348   8.827   7.919 -0.3193  0.3996  0.0474
    1AU     LIG  366   8.918   9.034   7.969 -0.2904  0.0680  0.3366
    1AU     LIG  367   8.849   9.277   7.583 -0.0889  0.0547 -0.1951
    1AU     LIG  368   8.651   9.575   7.241  0.2319 -0.0446 -0.1248
    1AU     LIG  369   8.544  10.059   7.104  0.0545  0.2329 -0.1810
    1AU     LIG  370   8.308  10.401   7.059  0.4425  0.0354  0.2304
    1AU     LIG  371   8.274  10.782   7.062  0.2747  0.0551  0.4876
    1AU       S  372   9.647   9.415   7.410 -0.2881  0.3310  0.1584
    1AU     LIG  373  10.048   9.421   7.620  0.1868  0.1111  0.0093
    1AU     LIG  374  10.397   9.594   7.917  0.0073 -0.0171  0.0161
    1AU     LIG  375  10.560  10.021   7.677  0.0465 -0.4732 -0.1717
    1AU     LIG  376  10.268  10.279   7.446  0.0827 -0.3115  0.3323
    1AU     LIG  377   9.985  10.212   7.036  0.0348 -0.0002 -0.0312
    1AU     LIG  378   9.926  10.093   6.622  0.1449  0.0965 -0.1179
    1AU    AUSL  379   9.551   8.917   7.071  0.0337  0.0656  0.0069
    1AU    AUSL  380   9.934   8.771   7.222  0.0370  0.0819  0.0550
    1AU     AUL  381   9.977   9.065   7.324  0.0263 -0.0491  0.0538
    1AU       S  382  10.392   9.101   7.170  0.3001  0.2740  0.2322
    1AU     LIG  383  10.712   8.781   7.327  0.0179  0.0888  0.0276
    1AU     LIG  384  10.838   8.378   7.210 -0.0989 -0.1132 -0.0795
    1AU     LIG  385  11.231   8.264   7.314  0.3059  0.0812 -0.0758
    1AU     LIG  386  11.573   8.235   7.352 -0.0474 -0.1474 -0.2475
    1AU     LIG  387  11.817   8.180   7.107  0.2653 -0.1725 -0.1999
    1AU     LIG  388  12.320   8.197   7.162  0.2524 -0.0312 -0.2034
    1AU       S  389   9.640   9.408   7.277  0.1331  0.0184 -0.0379
    1AU     LIG  390   9.558   9.955   7.107  0.1099  0.2057 -0.1984
    1AU     LIG  391   9.532  10.412   7.087 -0.2677 -0.3658 -0.0364
    1AU     LIG  392   9.809  10.728   7.131 -0.0326 -0.5016  0.4540
    1AU     LIG  393  10.009  11.116   7.051 -0.4047  0.1605 -0.2910
    1AU     LIG  394  10.169  11.532   7.073  0.2044 -0.0298  0.1650
    1AU     LIG  395  10.249  11.932   7.028 -0.0789  0.0798  0.1933
    1AU    AUSL  396   9.373   8.606   6.045 -0.0286  0.0938 -0.0919
    1AU    AUSL  397   9.274   8.800   6.466 -0.0034 -0.0058  0.0190
    1AU     AUL  398   9.357   8.883   6.014  0.0054 -0.0178 -0.0637
    1AU       S  399   9.612   9.252   6.100  0.2648 -0.3049 -0.0243
    1AU     LIG  400   9.628   9.599   5.805  0.2911  0.1373 -0.0778
    1AU     LIG  401   9.259   9.862   5.922  0.1742 -0.1122 -0.0551
    1AU     LIG  402   9.281  10.276   5.866  0.1469  0.0674  0.2814
    1AU     LIG  403   9.182  10.535   6.155 -0.0513 -0.2289 -0.0205
    1AU     LIG  404   8.985  10.852   6.441  0.2649  0.2063  0.0679
    1AU     LIG  405   8.727  11.243   6.511 -0.1966  0.1446  0.1091
    1AU       S  406   9.054   8.611   5.713 -0.0471  0.0337 -0.4463
    1AU     LIG  407   9.378   8.694   5.373  0.5574 -0.0693 -0.2524
    1AU     LIG  408   9.770   8.644   5.363 -0.2076  0.1223  0.2250
    1AU     LIG  409  10.190   8.400   5.484 -0.0009  0.3131 -0.0530
    1AU     LIG  410  10.546   8.213   5.687  0.1096 -0.0168 -0.1484
    1AU     LIG  411  10.859   8.428   5.894  0.1516  0.2733  0.3092
    1AU     LIG  412  11.200   8.742   5.945 -0.2970 -0.1867  0.3888
    1AU    AUSL  413   8.955   8.798   6.214 -0.1070 -0.0064 -0.1254
    1AU    AUSL  414   8.696   8.322   6.333 -0.0012 -0.0544 -0.0308
    1AU     AUL  415   8.616   8.809   6.233 -0.0131  0.0578 -0.0086
    1AU       S  416   8.922   8.688   5.879 -0.1171 -0.0581  0.0264
    1AU     LIG  417   8.716   9.079   5.847  0.3502  0.2438  0.2555
    1AU     LIG  418   8.378   9.320   5.920  0.1203  0.1389  0.1326
    1AU     LIG  419   8.143   9.470   6.322  0.0823 -0.0425 -0.3403
    1AU     LIG  420   7.832   9.595   6.748  0.1012 -0.0614  0.0096
    1AU     LIG  421   7.436   9.722   6.888 -0.3124  0.0380  0.3410
    1AU     LIG  422   6.956   9.835   6.994  0.0340 -0.1981  0.2310
    1AU       S  423   8.369   8.408   6.236  0.0107 -0.1507 -0.0390
    1AU     LIG  424   8.197   7.971   6.227 -0.0682 -0.0727  0.2498
    1AU     LIG  425   7.901   7.823   6.350 -0.1603  0.2522 -0.1260
    1AU     LIG  426   7.819   7.688   6.769  0.3027 -0.3328  0.0213
    1AU     LIG  427   7.911   7.370   7.113  0.2967  0.2763  0.3396
    1AU     LIG  428   7.972   7.148   7.449  0.0092  0.2463  0.0242
    1AU     LIG  429   8.120   6.863   7.812 -0.1958  0.0484 -0.0853
    1AU    AUSL  430   9.076   8.388   6.213 -0.0330  0.0205  0.0536
    1AU    AUSL  431   9.498   8.378   6.378 -0.0011  0.0489 -0.0859
    1AU     AUL  432   9.363   8.316   5.931  0.0401 -0.0800  0.0228
    1AU       S  433   9.687   7.725   6.210 -0.1831 -0.2233  0.1137
    1AU     LIG  434  10.115   7.561   6.244 -0.0771 -0.0809 -0.1781
    1AU     LIG  435  10.394   7.524   6.416 -0.3051 -0.0486  0.3969
    1AU     LIG  436  10.716   7.416   6.745  0.1971  0.1196  0.1898
    1AU     LIG  437  10.955   7.217   7.160 -0.0808  0.0108 -0.0353
    1AU     LIG  438  11.194   6.881   7.317 -0.2296 -0.0893  0.2922
    1AU     LIG  439  11.247   6.712   7.719 -0.1285  0.3557 -0.1578
    1AU       S  440   8.916   8.423   5.918 -0.3111 -0.2067  0.4260
    1AU     LIG  441   8.484   8.562   5.749  0.3140 -0.0490  0.1405
    1AU     LIG  442   8.177   8.828   5.945  0.2743  0.2605  0.3216
    1AU     LIG  443   8.166   8.973   6.315  0.3124 -0.1167 -0.0007
    1AU     LIG  444   7.761   9.086   6.512  0.4964  0.1091  0.2168
    1AU     LIG  445   7.493   9.143   6.780 -0.0421  0.2153  0.2912
    1AU     LIG  446   7.469   8.912   7.202  0.1094 -0.1331 -0.0215
    1AU    AUSL  447  10.115   8.384   7.083  0.0726  0.0156  0.0318
    1AU    AUSL  448   9.853   8.049   6.998  0.0600 -0.0940 -0.0561
    1AU     AUL  449  10.370   8.253   6.994 -0.0265  0.0175 -0.0083
    1AU       S  450  10.458   8.277   7.465  0.0227 -0.2187 -0.0599
    1AU     LIG  451  10.859   8.069   7.642  0.1014 -0.2722 -0.3499
    1AU     LIG  452  11.182   7.796   7.567 -0.3719 -0.1632 -0.3140
    1AU     LIG  453  11.478   7.587   7.221  0.2077  0.0291 -0.2380
    1AU     LIG  454  11.957   7.696   7.270 -0.6871 -0.1500 -0.1743
    1AU     LIG  455  12.176   7.386   7.327  0.0781  0.0743  0.0374
    1AU     LIG  456  12.430   7.014   7.495 -0.1763 -0.0005 -0.0818
    1AU       S  457  10.221   7.735   7.020 -0.3483 -0.0191  0.3605
    1AU     LIG  458  10.452   7.388   7.211 -0.0058  0.0754  0.0150
    1AU     LIG  459  10.394   6.914   7.018 -0.4305 -0.1738 -0.2044
    1AU     LIG  460  10.676   6.640   7.017  0.0447 -0.0101  0.1824
    1AU     LIG  461  10.759   6.159   6.925  0.2134  0.5427 -0.2809
    1AU     LIG  462  11.071   5.918   6.750 -0.2981  0.2064 -0.1336
    1AU     LIG  463  11.242   5.426   6.795 -0.1062 -0.3550 -0.1350
    1AU    AUSL  464   9.999   8.450   7.465  0.0022  0.1893 -0.0118
    1AU    AUSL  465  10.209   8.757   6.904  0.1021 -0.0106 -0.0595
    1AU     AUL  466  10.275   8.667   7.292 -0.0054 -0.0190  0.1026
    1AU       S  467  10.338   8.376   7.615  0.0451  0.2296  0.1640
    1AU     LIG  468  10.654   8.583   7.812  0.1773 -0.0429  0.0761
    1AU     LIG  469  11.080   8.774   7.689 -0.4061 -0.1020  0.0914
    1AU     LIG  470  11.138   9.238   7.850 -0.2052  0.1502 -0.0298
    1AU     LIG  471  10.903   9.537   7.899 -0.1514  0.0836  0.2004
    1AU     LIG  472  10.854   9.750   8.264 -0.1738  0.1187  0.1466
    1AU     LIG  473  11.043   9.871   8.550 -0.1670  0.0627 -0.3888
    1AU       S  474  10.356   8.949   6.947 -0.2023  0.0700 -0.1080
    1AU     LIG  475  10.766   8.753   6.869 -0.1811 -0.1110 -0.0472
    1AU     LIG  476  11.142   8.753   6.966 -0.0439 -0.1882  0.0451
    1AU     LIG  477  11.306   8.893   7.180  0.0347 -0.2567  0.0777
    1AU     LIG  478  11.511   8.893   7.429  0.0406 -0.0296  0.3311
    1AU     LIG  479  11.642   8.597   7.738  0.1040  0.1408  0.0829
    1AU     LIG  480  11.244   8.356   7.893 -0.1298 -0.0376 -0.0410
    1AU    AUSL  481  10.072   8.031   7.340 -0.0132 -0.0172  0.0511
    1AU    AUSL  482   9.683   8.424   7.731 -0.0102  0.0219  0.0232
    1AU     AUL  483  10.009   8.081   7.713 -0.0618 -0.1100 -0.0659
    1AU       S  484   9.860   8.492   8.001 -0.4481 -0.3437 -0.3027
    1AU     LIG  485   9.905   8.805   8.258  0.3415 -0.3995  0.3946
    1AU     LIG  486  10.230   9.184   8.180 -0.1352  0.0309 -0.0565
    1AU     LIG  487  10.598   9.140   8.097 -0.4085  0.0852 -0.1776
    1AU     LIG  488  10.963   9.247   8.345  0.1565 -0.0100  0.1029
    1AU     LIG  489  11.246   9.001   8.571  0.0606 -0.0378 -0.1127
    1AU     LIG  490  11.579   8.921   8.843 -0.0220 -0.0102 -0.2139
    1AU       S  491  10.338   8.171   7.421 -0.0474  0.2622  0.0460
    1AU     LIG  492  10.732   7.839   7.235  0.1195 -0.0528  0.3378
    1AU     LIG  493  11.118   7.760   6.961  0.3127  0.1494  0.0710
    1AU     LIG  494  11.478   7.902   6.779 -0.0081 -0.0171 -0.2841
    1AU     LIG  495  11.507   7.833   6.305 -0.1944 -0.0493 -0.0243
    1AU     LIG  496  11.293   8.000   5.984 -0.2425  0.3388  0.1344
    1AU     LIG  497  11.016   8.009   5.722 -0.1592 -0.3761  0.0673
    1AU    AUSL  498   8.554   8.426   6.732  0.0349  0.0512 -0.0237
    1AU    AUSL  499   8.929   8.154   6.622 -0.0092  0.0193 -0.0349
    1AU     AUL  500   8.516   8.108   6.591 -0.0146 -0.0136 -0.0180
    1AU       S  501   8.205   8.440   6.423 -0.3010  0.0615  0.1476
    1AU     LIG  502   7.857   8.572   6.429  0.1770  0.0981 -0.1311
    1AU     LIG  503   7.499   8.653   6.512  0.0490  0.0841 -0.2311
    1AU     LIG  504   7.072   8.828   6.759  0.1273 -0.3008 -0.0329
    1AU     LIG  505   6.866   8.684   7.126  0.2625  0.2745  0.0852
    1AU     LIG  506   6.464   8.667   7.262  0.0557 -0.0851 -0.0404
    1AU     LIG  507   6.229   8.382   7.140 -0.0251 -0.2649 -0.1627
    1AU       S  508   8.724   7.661   6.598 -0.1590 -0.2355 -0.4707
    1AU     LIG  509   8.822   7.255   6.890  0.1101  0.2062  0.0413
    1AU     LIG  510   8.732   6.980   7.059  0.0114  0.2996  0.1529
    1AU     LIG  511   8.855   6.635   7.281 -0.0641 -0.0654  0.1550
    1AU     LIG  512   8.693   6.268   7.294  0.0560  0.0082  0.2728
    1AU     LIG  513   8.296   6.085   7.240 -0.2336 -0.3799  0.0695
    1AU     LIG  514   8.039   5.779   7.221 -0.1113  0.2834 -0.1432
    1AU    AUSL  515   8.896   8.604   6.568 -0.0201 -0.0023  0.1297
    1AU    AUSL  516   8.803   8.626   6.985 -0.0160 -0.0821  0.0235
    1AU     AUL  517   8.506   8.710   6.648  0.0612 -0.0120 -0.1077
    1AU       S  518   8.538   8.337   6.212 -0.1827 -0.1331  0.0673
    1AU     LIG  519   8.396   8.072   5.787 -0.0008 -0.3353  0.2559
    1AU     LIG  520   8.167   7.724   5.737 -0.0066 -0.1450  0.1027
    1AU     LIG  521   7.602   7.763   5.853 -0.0850  0.0152  0.3752
    1AU     LIG  522   7.390   7.726   6.206 -0.2461  0.0451  0.0022
    1AU     LIG  523   7.372   7.577   6.545  0.2411  0.1343 -0.1932
    1AU     LIG  524   7.445   7.419   7.013  0.1281 -0.0438 -0.3515
    1AU       S  525   8.374   8.822   7.075  0.1158  0.1390  0.1667
    1AU     LIG  526   8.068   8.628   6.883 -0.1581  0.0286  0.3015
    1AU     LIG  527   7.700   8.450   6.979  0.0236 -0.1139  0.2427
    1AU     LIG  528   7.265   8.414   6.891  0.0087 -0.0868 -0.0472
    1AU     LIG  529   6.840   8.209   6.928  0.0731 -0.0876 -0.0917
    1AU     LIG  530   6.590   7.864   6.593  0.2185 -0.2668  0.0318
    1AU     LIG  531   6.424   7.701   6.269 -0.0900  0.0841 -0.0142
    1AU    AUSL  532   9.412   8.073   7.719  0.0556 -0.0067 -0.0081
    1AU    AUSL  533   9.532   8.593   7.399  0.0075 -0.0612 -0.0417
    1AU     AUL  534   9.333   8.329   7.868 -0.0206 -0.0459  0.0316
    1AU       S  535   9.541   8.849   7.963 -0.1993  0.1200  0.9996
    1AU     LIG  536   9.736   9.203   7.978  0.1051 -0.2223 -0.2508
    1AU     LIG  537   9.570   9.654   7.849 -0.4109 -0.3328  0.1045
    1AU     LIG  538   9.494  10.082   7.630  0.1389 -0.0237 -0.4594
    1AU     LIG  539   9.810  10.439   7.495  0.1563  0.1646  0.0523
    1AU     LIG  540  10.094  10.775   7.529 -0.0378 -0.1611  0.1278
    1AU     LIG  541   9.816  11.075   7.604 -0.1431  0.0258  0.0199
    1AU       S  542   9.739   8.208   8.053  0.1702 -0.3256 -0.6367
    1AU     LIG  543   9.600   8.475   8.414 -0.0615 -0.0262 -0.0799
    1AU     LIG  544   9.476   8.921   8.499  0.1300  0.1699  0.1045
    1AU     LIG  545   9.349   9.295   8.289 -0.3585  0.0578  0.0725
    1AU     LIG  546   9.015   9.495   8.047 -0.0801  0.1871 -0.4483
    1AU     LIG  547   8.638   9.650   7.807  0.0781 -0.1315 -0.0923
    1AU     LIG  548   8.376   9.920   7.542 -0.3983 -0.1158  0.0614
    1AU    AUSL  549   9.684   8.158   7.402 -0.0145 -0.0047 -0.0346
    1AU    AUSL  550   9.282   8.047   7.344 -0.0136 -0.0121  0.0777
    1AU     AUL  551   9.598   7.893   7.687  0.0450 -0.0490 -0.0511
    1AU       S  552   9.787   8.485   7.860 -0.3062  0.0490  0.1658
    1AU     LIG  553  10.015   8.802   7.724  0.2175 -0.2508  0.0095
    1AU     LIG  554  10.355   8.983   7.620  0.1809 -0.1475  0.0316
    1AU     LIG  555  10.724   9.197   7.602 -0.2139  0.1005 -0.0518
    1AU     LIG  556  11.013   9.427   7.440  0.3283  0.0308  0.3107
    1AU     LIG  557  11.437   9.430   7.342 -0.0337  0.0110 -0.0070
    1AU     LIG  558  11.727   9.585   7.116 -0.1743 -0.0079  0.3468
    1AU       S  559   9.195   7.634   7.752 -0.0640 -0.0390  0.0010
    1AU     LIG  560   8.771   7.335   7.720  0.1404 -0.2017 -0.1188
    1AU     LIG  561   8.587   6.948   7.557 -0.2583  0.6063  0.1885
    1AU     LIG  562   8.373   6.808   7.319 -0.2285  0.1934  0.4235
    1AU     LIG  563   8.115   6.552   7.143 -0.2754  0.1485 -0.1862
    1AU     LIG  564   7.802   6.206   7.220 -0.1399 -0.0253  0.1406
    1AU     LIG  565   7.498   5.978   7.173  0.0159 -0.1228 -0.2417
    2POPC   NC3  566   4.397   6.753   9.705 -0.0529  0.1250 -0.1630
    2POPC   PO4  567   4.152   6.528   9.314 -0.1589  0.1845 -0.0307
    2POPC   GL1  568   4.318   6.562   8.943  0.0725 -0.1876  0.1804
    2POPC   GL2  569   4.162   6.199   8.765 -0.1328 -0.0101 -0.0252
    2POPC   C1A  570   4.693   6.532   8.700  0.1782 -0.1939  0.0985
    2POPC   D2A  571   4.743   6.954   8.528  0.0828  0.0160 -0.0825
    2POPC   C3A  572   5.011   6.981   8.059  0.1223 -0.1533  0.2956
    2POPC   C4A  573   5.338   7.061   7.822 -0.0764  0.0524  0.1280
    2POPC   C1B  574   4.357   6.370   8.420 -0.1684 -0.1596  0.0120
    2POPC   C2B  575   4.312   6.459   7.949 -0.0633  0.2056  0.2929
    2POPC   C3B  576   4.203   6.479   7.555  0.0424  0.1596  0.0143
    2POPC   C4B  577   4.427   6.522   7.085  0.0692 -0.2151  0.3229
    3POPC   NC3  578   4.826   2.362   9.156 -0.1645 -0.1284  0.0346
    3POPC   PO4  579   5.227   2.567   9.117  0.1137 -0.2485 -0.2938
    3POPC   GL1  580   5.557   2.618   8.831  0.1797  0.1918 -0.2439
    3POPC   GL2  581   5.874   2.874   8.694 -0.0304  0.0035 -0.0791
    3POPC   C1A  582   5.887   2.402   8.649  0.2115 -0.2265  0.0329
    3POPC   D2A  583   5.731   2.356   8.194 -0.2475 -0.0246  0.0002
    3POPC   C3A  584   6.014   2.352   7.867 -0.0371 -0.2188  0.2005
    3POPC   C4A  585   6.234   2.141   7.518 -0.1199 -0.0392 -0.1832
    3POPC   C1B  586   5.522   2.768   8.326  0.1385  0.0423 -0.1429
    3POPC   C2B  587   5.555   2.715   7.845 -0.3045  0.0710 -0.4661
    3POPC   C3B  588   5.386   2.789   7.447  0.0018  0.0627 -0.0229
    3POPC   C4B  589   5.394   2.988   7.102 -0.2228 -0.3930  0.1225
    4POPC   NC3  590   5.103   5.671   8.924 -0.0957  0.0478  0.4895
    4POPC   PO4  591   5.100   5.159   8.981 -0.1562  0.1579 -0.0889
    4POPC   GL1  592   5.063   5.185   8.576  0.0158  0.0687 -0.0592
    4POPC   GL2  593   4.800   5.443   8.563 -0.2533  0.0731  0.0620
    4POPC   C1A  594   5.155   5.085   8.149 -0.0964  0.1603 -0.2010
    4POPC   D2A  595   5.504   4.905   7.822 -0.0656 -0.1477 -0.1849
    4POPC   C3A  596   5.698   5.300   7.734  0.0821  0.1499 -0.2204
    4POPC   C4A  597   5.637   5.536   7.461 -0.1511 -0.0453  0.0753
    4POPC   C1B  598   4.927   5.643   8.173  0.1130  0.4636 -0.0018
    4POPC   C2B  599   5.216   5.390   7.749 -0.3277 -0.0629 -0.3603
    4POPC   C3B  600   5.339   5.164   7.368  0.0860 -0.0925 -0.0028
    4POPC   C4B  601   5.676   4.898   7.312  0.2462  0.0857  0.0780
    5POPC   NC3  602   5.629   6.654   9.197  0.1743 -0.2532  0.1076
    5POPC   PO4  603   5.680   7.011   8.929  0.1172  0.2913 -0.1701
    5POPC   GL1  604   6.020   7.117   8.687 -0.2925  0.1807  0.2937
    5POPC   GL2  605   6.166   7.368   8.669 -0.0681  0.1601  0.0076
    5POPC   C1A  606   6.060   7.131   8.207  0.3051  0.2567  0.1050
    5POPC   D2A  607   6.265   7.117   7.792 -0.1453 -0.1647 -0.1102
    5POPC   C3A  608   6.054   7.436   7.452 -0.0513  0.4261 -0.1133
    5POPC   C4A  609   6.057   7.901   7.498  0.0002  0.5901  0.0190
    5POPC   C1B  610   6.474   7.157   8.467 -0.1337  0.3081  0.2484
    5POPC   C2B  611   6.760   7.181   8.026 -0.2612  0.1807 -0.2797
    5POPC   C3B  612   6.785   7.197   7.611 -0.3134  0.0576  0.1016
    5POPC   C4B  613   7.043   7.415   7.355  0.2629 -0.0076 -0.1116
    6POPC   NC3  614   5.915   6.251   9.063 -0.0062 -0.0562 -0.0770
    6POPC   PO4  615   5.561   5.980   8.990  0.2952 -0.1604  0.3084
    6POPC   GL1  616   5.580   5.857   8.568  0.0661 -0.0204 -0.1218
    6POPC   GL2  617   5.746   6.061   8.426 -0.6101 -0.2444  0.2442
    6POPC   C1A  618   5.356   6.141   8.206 -0.1260 -0.2684  0.0091
    6POPC   D2A  619   5.254   6.522   8.003  0.0899 -0.2552  0.0246
    6POPC   C3A  620   4.951   6.647   7.706  0.0825 -0.1204  0.0656
    6POPC   C4A  621   4.751   6.430   7.438  0.2006  0.1478  0.0862
    6POPC   C1B  622   5.830   6.238   8.044  0.0542 -0.4297 -0.3499
    6POPC   C2B  623   5.524   6.310   7.619  0.0301  0.0297  0.0760
    6POPC   C3B  624   5.402   6.714   7.433  0.1556  0.0962  0.0063
    6POPC   C4B  625   5.296   6.959   7.065  0.0768 -0.1367  0.2856
    7POPC   NC3  626   3.809   0.775   9.533 -0.0300 -0.1964 -0.1273
    7POPC   PO4  627   3.360   0.906   9.370 -0.2200  0.0220  0.0157
    7POPC   GL1  628   3.284   0.753   8.866 -0.0253 -0.1101 -0.1089
    7POPC   GL2  629   3.148   0.976   8.688  0.0051  0.1737 -0.1889
    7POPC   C1A  630   3.533   0.546   8.486  0.2859 -0.1842 -0.1269
    7POPC   D2A  631   3.700   0.322   8.054 -0.0546  0.2590  0.1335
    7POPC   C3A  632   3.983   0.504   7.672 -0.1451 -0.1061 -0.0971
    7POPC   C4A  633   4.215   0.868   7.476 -0.0942  0.2336  0.1589
    7POPC   C1B  634   3.364   1.015   8.267  0.2757  0.3380  0.1140
    7POPC   C2B  635   3.417   0.815   7.820  0.0542  0.0146 -0.2751
    7POPC   C3B  636   3.727   1.075   7.481  0.0559 -0.1225 -0.3750
    7POPC   C4B  637   3.791   1.521   7.641 -0.0512  0.0387 -0.0152
    8POPC   NC3  638   1.515   8.391   9.734 -0.0214 -0.0099  0.1455
    8POPC   PO4  639   1.872   8.511   9.913  0.3075  0.2432  0.0254
    8POPC   GL1  640   1.968   8.346   9.503  0.0064  0.0758 -0.1176
    8POPC   GL2  641   1.839   8.077   9.414  0.1333  0.1390  0.1404
    8POPC   C1A  642   2.085   8.444   9.045  0.0545  0.0429  0.0691
    8POPC   D2A  643   2.008   8.296   8.677 -0.0241  0.3883  0.3553
    8POPC   C3A  644   1.895   8.717   8.455  0.4741 -0.0310  0.2956
    8POPC   C4A  645   1.611   9.045   8.421  0.4317 -0.0623  0.0928
    8POPC   C1B  646   1.764   7.997   9.039 -0.0339  0.0488  0.1924
    8POPC   C2B  647   1.640   7.968   8.560  0.2427  0.1955 -0.2206
    8POPC   C3B  648   1.699   7.746   8.164 -0.2279  0.2076 -0.1988
    8POPC   C4B  649   2.007   7.532   7.847  0.0050  0.1478 -0.1176
    9POPC   NC3  650   5.240   0.298   9.753  0.1200 -0.0645  0.1077
    9POPC   PO4  651   5.510   0.470   9.418 -0.0132  0.1610 -0.1316
    9POPC   GL1  652   5.770   0.372   9.066  0.1451  0.0327 -0.2020
    9POPC   GL2  653   6.036   0.587   9.002 -0.0931 -0.1002 -0.0870
    9POPC   C1A  654   5.829   0.242   8.587  0.1568 -0.1917 -0.2257
    9POPC   D2A  655   5.621   0.202   8.160  0.1316  0.0418 -0.4034
    9POPC   C3A  656   5.326   0.420   8.023 -0.3176  0.2513 -0.0139
    9POPC   C4A  657   5.198   0.497   7.624 -0.0651  0.0629 -0.0652
    9POPC   C1B  658   6.112   0.599   8.527  0.1916 -0.0309 -0.2623
    9POPC   C2B  659   6.353   0.845   8.264 -0.2215  0.3785  0.0787
    9POPC   C3B  660   6.402   1.100   7.927 -0.1351 -0.0520 -0.1732
    9POPC   C4B  661   6.811   1.302   7.855  0.0379  0.2416 -0.1320
   10POPC   NC3  662   7.024   5.343   9.576  0.1163 -0.0585  0.0891
   10POPC   PO4  663   6.869   5.275   9.141 -0.0573 -0.3171  0.0079
   10POPC   GL1  664   6.806   5.312   8.658  0.2020  0.0433 -0.0593
   10POPC   GL2  665   6.626   5.035   8.526 -0.3821  0.1226  0.2225
   10POPC   C1A  666   6.851   5.345   8.173 -0.1356 -0.1547  0.4076
   10POPC   D2A  667   6.981   5.398   7.809  0.0185 -0.2173 -0.2990
   10POPC   C3A  668   7.082   5.253   7.315 -0.5291 -0.2078  0.3062
   10POPC   C4A  669   7.241   5.454   6.976  0.3631 -0.1943  0.0197
   10POPC   C1B  670   6.902   4.859   8.232 -0.1225  0.2760 -0.0164
   10POPC   C2B  671   7.246   5.038   8.049  0.1987  0.0712  0.0064
   10POPC   C3B  672   7.432   5.125   7.671 -0.1465  0.1547 -0.0179
   10POPC   C4B  673   7.550   4.898   7.287  0.1488 -0.0980 -0.1120
   11POPC   NC3  674   1.264   1.065   9.317  0.2581 -0.0175 -0.0504
   11POPC   PO4  675   0.844   0.833   9.468  0.0223  0.0656  0.0395
   11POPC   GL1  676   0.925   0.628   9.137  0.0148 -0.1950  0.1498
   11POPC   GL2  677   0.814   0.285   9.195  0.0501  0.4424 -0.0455
   11POPC   C1A  678   0.991   0.609   8.615 -0.0506 -0.1771 -0.1056
   11POPC   D2A  679   1.312   0.455   8.410  0.0396 -0.0964 -0.1669
   11POPC   C3A  680   1.473   0.623   8.047 -0.2626 -0.0501  0.1553
   11POPC   C4A  681   1.395   0.391   7.708 -0.2525 -0.2024 -0.0271
   11POPC   C1B  682   0.832   0.197   8.733 -0.0694 -0.1242  0.3834
   11POPC   C2B  683   0.837   0.244   8.290 -0.1336  0.1461 -0.1538
   11POPC   C3B  684   0.815   0.052   7.922  0.1052  0.0037  0.2301
   11POPC   C4B  685   1.019  -0.235   7.793 -0.0147  0.1256 -0.1592
   12POPC   NC3  686   0.229   4.819   9.370  0.0709  0.1836 -0.3961
   12POPC   PO4  687   0.059   5.297   9.491  0.0575 -0.0820 -0.2279
   12POPC   GL1  688   0.055   5.224   9.108  0.0996 -0.3061 -0.1232
   12POPC   GL2  689   0.325   5.320   8.903 -0.1465  0.0836  0.4574
   12POPC   C1A  690  -0.284   5.354   8.871  0.1554 -0.1273  0.1746
   12POPC   D2A  691  -0.530   5.367   8.325  0.1244 -0.2371 -0.2316
   12POPC   C3A  692  -0.757   5.130   8.048 -0.1928 -0.1536 -0.0667
   12POPC   C4A  693  -0.877   4.803   7.834 -0.3237  0.1914  0.0970
   12POPC   C1B  694   0.537   5.276   8.466  0.2046  0.0064 -0.1371
   12POPC   C2B  695   0.773   5.619   8.166  0.2585 -0.1717  0.2844
   12POPC   C3B  696   1.045   5.917   8.036  0.1208  0.0388 -0.2527
   12POPC   C4B  697   1.253   6.269   7.909 -0.2284 -0.0206  0.2585
   13POPC   NC3  698   9.708   2.554   8.750  0.2883  0.0550  0.0666
   13POPC   PO4  699  10.030   2.215   8.816 -0.1166 -0.0518 -0.2014
   13POPC   GL1  700  10.136   2.383   8.460 -0.1672 -0.1150 -0.0238
   13POPC   GL2  701  10.167   2.129   8.308 -0.0742  0.0605  0.0971
   13POPC   C1A  702  10.192   2.553   8.082 -0.2400 -0.0004  0.0278
   13POPC   D2A  703  10.452   2.625   7.753 -0.0890  0.0075 -0.2315
   13POPC   C3A  704  10.818   2.280   7.602  0.1465  0.3202 -0.0728
   13POPC   C4A  705  10.741   1.854   7.283 -0.0578 -0.1694  0.1277
   13POPC   C1B  706   9.944   2.029   7.931  0.1093 -0.0869 -0.3358
   13POPC   C2B  707   9.638   2.130   7.608 -0.1332  0.2468 -0.4373
   13POPC   C3B  708   9.308   2.188   7.318  0.2062  0.3430 -0.2753
   13POPC   C4B  709   8.971   2.347   6.986 -0.0485  0.2856 -0.0602
   14POPC   NC3  710   7.385   3.754   8.748 -0.2255  0.1133 -0.0735
   14POPC   PO4  711   7.727   4.231   8.803  0.1581 -0.0490 -0.1024
   14POPC   GL1  712   7.670   4.210   8.362  0.1834 -0.0384 -0.1118
   14POPC   GL2  713   7.666   3.842   8.185  0.0162  0.2947 -0.1023
   14POPC   C1A  714   7.693   4.202   7.919  0.1282 -0.1594  0.3236
   14POPC   D2A  715   7.879   4.081   7.528 -0.2725 -0.0429  0.1677
   14POPC   C3A  716   8.137   4.336   7.254 -0.1436  0.1996 -0.0159
   14POPC   C4A  717   8.410   4.669   7.210 -0.5524  0.0059 -0.0013
   14POPC   C1B  718   7.705   3.484   7.857  0.2985 -0.1870  0.0637
   14POPC   C2B  719   7.906   3.496   7.426 -0.3104 -0.1469 -0.3376
   14POPC   C3B  720   7.827   3.503   7.099  0.1339 -0.2632  0.0757
   14POPC   C4B  721   7.606   3.556   6.700 -0.0570 -0.0897  0.0196
   15POPC   NC3  722   5.497   7.982   9.722  0.0266 -0.0540 -0.2823
   15POPC   PO4  723   5.632   7.602   9.447 -0.1178 -0.2709  0.0010
   15POPC   GL1  724   5.554   7.759   9.044 -0.1966 -0.3378  0.0536
   15POPC   GL2  725   5.643   7.511   8.769 -0.1421 -0.0754 -0.3910
   15POPC   C1A  726   5.281   7.764   8.577  0.0082 -0.0302 -0.1615
   15POPC   D2A  727   5.032   7.957   8.319  0.0279 -0.1653  0.4949
   15POPC   C3A  728   5.149   8.281   7.938  0.1712 -0.0036 -0.0519
   15POPC   C4A  729   4.989   8.475   7.679  0.3297  0.0525 -0.5967
   15POPC   C1B  730   5.784   7.619   8.371  0.4051  0.1965  0.1427
   15POPC   C2B  731   5.968   7.880   7.962  0.0666  0.0043 -0.2962
   15POPC   C3B  732   5.815   8.256   7.745 -0.1271  0.0036 -0.1953
   15POPC   C4B  733   6.024   8.688   7.510  0.3497 -0.1299 -0.0068
   16POPC   NC3  734   8.183   4.138   9.026 -0.3380  0.1198  0.0656
   16POPC   PO4  735   8.595   4.244   8.792  0.1399  0.0581 -0.0719
   16POPC   GL1  736   8.877   4.191   8.550 -0.2928 -0.0384 -0.1293
   16POPC   GL2  737   9.105   4.420   8.532 -0.0814  0.2137 -0.3195
   16POPC   C1A  738   8.947   3.994   8.239  0.1037  0.1548  0.1211
   16POPC   D2A  739   9.101   3.769   7.903 -0.1339 -0.0476  0.0318
   16POPC   C3A  740   9.114   3.349   7.770 -0.1762  0.1607  0.0283
   16POPC   C4A  741   9.239   2.970   7.986  0.0605  0.1107  0.1212
   16POPC   C1B  742   9.365   4.341   8.139 -0.0425  0.1747 -0.1705
   16POPC   C2B  743   9.104   4.275   7.766 -0.1637  0.0783  0.1094
   16POPC   C3B  744   9.146   4.107   7.389  0.1266 -0.0486 -0.2318
   16POPC   C4B  745   9.160   3.748   7.308 -0.1394  0.2129  0.1072
   17POPC   NC3  746   8.270   9.783   9.765 -0.2808  0.1354 -0.1326
   17POPC   PO4  747   8.317  10.077   9.441  0.2744  0.1679 -0.1428
   17POPC   GL1  748   8.193   9.918   9.073 -0.2231 -0.2197  0.0418
   17POPC   GL2  749   8.177  10.250   8.877  0.2857  0.1009  0.0608
   17POPC   C1A  750   7.944   9.791   8.701 -0.2197  0.0778 -0.1025
   17POPC   D2A  751   7.872   9.449   8.419 -0.1613  0.3036  0.0990
   17POPC   C3A  752   8.151   9.129   8.637 -0.1950  0.0226  0.0876
   17POPC   C4A  753   8.528   9.098   8.765  0.0460  0.0280 -0.3488
   17POPC   C1B  754   8.286  10.079   8.454 -0.1006 -0.2589 -0.0304
   17POPC   C2B  755   8.208   9.810   8.166 -0.1345  0.0834 -0.2586
   17POPC   C3B  756   8.240   9.392   8.076 -0.1069 -0.1016  0.3225
   17POPC   C4B  757   8.525   9.181   8.307 -0.3990 -0.3286 -0.0852
   18POPC   NC3  758   3.081   9.621   9.358  0.2143 -0.0164 -0.0969
   18POPC   PO4  759   2.814   9.358   9.158 -0.2644 -0.3615  0.0343
   18POPC   GL1  760   2.696   9.557   8.702 -0.0246 -0.0998 -0.0049
   18POPC   GL2  761   2.325   9.747   8.700 -0.0282 -0.1140  0.2750
   18POPC   C1A  762   2.733   9.456   8.303 -0.2827  0.1994 -0.0955
   18POPC   D2A  763   2.895   9.468   7.817  0.0199  0.1985 -0.0294
   18POPC   C3A  764   3.156   9.784   7.557  0.2081  0.0488  0.0135
   18POPC   C4A  765   3.464  10.125   7.509 -0.0694  0.0576 -0.2932
   18POPC   C1B  766   2.268   9.644   8.243 -0.0939  0.0693  0.2693
   18POPC   C2B  767   2.359   9.623   7.806 -0.2213  0.0822  0.0924
   18POPC   C3B  768   2.578   9.463   7.424  0.1911  0.1325  0.3157
   18POPC   C4B  769   2.688   9.097   7.113  0.0727 -0.0651 -0.1688
   19POPC   NC3  770   0.080   4.011   9.288  0.4859 -0.1388  0.0195
   19POPC   PO4  771   0.218   4.374   9.186 -0.1568  0.1795  0.2812
   19POPC   GL1  772   0.088   4.676   8.901  0.2286  0.1834 -0.0275
   19POPC   GL2  773   0.393   4.805   8.748 -0.3528  0.0653 -0.1511
   19POPC   C1A  774  -0.388   4.823   8.872 -0.0342  0.0301  0.1095
   19POPC   D2A  775  -0.671   5.071   8.696  0.4336  0.1652  0.1806
   19POPC   C3A  776  -1.023   4.863   8.381  0.0258 -0.1646 -0.0438
   19POPC   C4A  777  -1.334   4.947   8.113 -0.2005 -0.2411  0.0817
   19POPC   C1B  778   0.296   4.847   8.262 -0.2032  0.0404  0.2484
   19POPC   C2B  779   0.149   5.163   8.016 -0.1731  0.3177 -0.0753
   19POPC   C3B  780   0.284   5.572   7.905  0.0648  0.0964  0.1335
   19POPC   C4B  781   0.298   5.615   7.516  0.1876  0.0580  0.1483
   20POPC   NC3  782   6.264   1.579   9.673 -0.4927  0.0298  0.0695
   20POPC   PO4  783   6.568   1.972   9.484  0.1350  0.0352 -0.0696
   20POPC   GL1  784   6.461   1.816   9.105 -0.0516  0.7002 -0.3337
   20POPC   GL2  785   6.758   1.679   9.006 -0.1801  0.1091 -0.0177
   20POPC   C1A  786   6.282   1.469   8.847 -0.4578  0.0877  0.1096
   20POPC   D2A  787   6.282   1.019   8.702  0.2832 -0.1518  0.1321
   20POPC   C3A  788   6.544   0.695   8.799 -0.4397  0.1802 -0.0958
   20POPC   C4A  789   6.850   0.414   8.542  0.2618 -0.1425  0.1557
   20POPC   C1B  790   6.788   1.567   8.675 -0.0298  0.0476  0.1982
   20POPC   C2B  791   6.591   1.467   8.253  0.0116  0.0362  0.1580
   20POPC   C3B  792   6.192   1.415   8.235  0.0041  0.0667 -0.0700
   20POPC   C4B  793   5.889   1.115   8.252 -0.2171  0.2129  0.3921
   21POPC   NC3  794  10.146   1.060   9.915  0.0832 -0.1812  0.0011
   21POPC   PO4  795  10.074   1.061   9.488 -0.1862  0.0057  0.1922
   21POPC   GL1  796  10.216   1.107   9.010 -0.4126  0.1646  0.0360
   21POPC   GL2  797  10.188   0.885   8.766  0.1385 -0.0740 -0.3407
   21POPC   C1A  798   9.957   1.300   8.642 -0.0334  0.0331  0.2678
   21POPC   D2A  799   9.972   0.948   8.294 -0.0038  0.1048  0.0448
   21POPC   C3A  800  10.220   0.880   7.921  0.0879  0.0097  0.3043
   21POPC   C4A  801  10.287   1.082   7.463  0.0372 -0.0282  0.3251
   21POPC   C1B  802  10.157   0.508   8.386 -0.0213  0.0593  0.1561
   21POPC   C2B  803   9.991   0.192   8.047 -0.1577 -0.0380  0.1344
   21POPC   C3B  804   9.983  -0.169   7.700  0.3343 -0.0758 -0.1888
   21POPC   C4B  805  10.053  -0.405   7.344  0.0820 -0.3045 -0.2721
   22POPC   NC3  806  10.002   5.594  10.229 -0.0600  0.0287  0.2070
   22POPC   PO4  807   9.915   5.502   9.784 -0.0214 -0.0611 -0.1148
   22POPC   GL1  808   9.786   5.643   9.417 -0.0353  0.0937 -0.2768
   22POPC   GL2  809   9.987   5.691   9.150 -0.0069  0.0177 -0.0724
   22POPC   C1A  810   9.384   5.827   9.310  0.0695 -0.0665 -0.1634
   22POPC   D2A  811   9.136   6.197   9.527  0.0913 -0.0443 -0.0665
   22POPC   C3A  812   9.130   6.583   9.142  0.2554 -0.0810 -0.2000
   22POPC   C4A  813   9.590   6.661   8.810  0.0345 -0.2917 -0.4468
   22POPC   C1B  814  10.160   5.837   8.795 -0.0521  0.0867  0.0854
   22POPC   C2B  815  10.085   5.972   8.289 -0.0320 -0.0819  0.0040
   22POPC   C3B  816   9.835   6.242   8.034 -0.2196  0.2570  0.0033
   22POPC   C4B  817   9.525   6.532   7.906  0.0847  0.2906  0.5491
   23POPC   NC3  818   4.826   1.427   9.142 -0.0008  0.0097 -0.0833
   23POPC   PO4  819   4.982   1.022   9.123  0.3929 -0.0967 -0.2073
   23POPC   GL1  820   4.711   1.136   8.706 -0.0714 -0.3159 -0.1079
   23POPC   GL2  821   4.444   1.456   8.774  0.0758  0.1748  0.1349
   23POPC   C1A  822   4.875   1.488   8.484 -0.1701 -0.1998  0.1235
   23POPC   D2A  823   5.072   1.495   8.144  0.0064  0.0833 -0.3072
   23POPC   C3A  824   4.801   1.435   7.692  0.1935  0.0351 -0.1711
   23POPC   C4A  825   4.647   1.558   7.367 -0.1073 -0.0228 -0.0964
   23POPC   C1B  826   4.381   1.877   8.462  0.0636 -0.3511 -0.1300
   23POPC   C2B  827   4.380   2.147   8.157 -0.0526  0.1506  0.0933
   23POPC   C3B  828   4.150   2.281   7.779  0.1313  0.2439  0.0923
   23POPC   C4B  829   3.731   2.064   7.513 -0.0150  0.0247 -0.1389
   24POPC   NC3  830   8.354   1.727   9.478  0.0622 -0.1132 -0.1899
   24POPC   PO4  831   8.091   1.932   9.256 -0.0389  0.6924  0.0104
   24POPC   GL1  832   8.260   1.964   8.841  0.0013 -0.5291 -0.0617
   24POPC   GL2  833   8.308   2.378   8.825  0.1609 -0.0692  0.2987
   24POPC   C1A  834   8.711   1.903   8.777 -0.0000  0.0359  0.1220
   24POPC   D2A  835   8.798   1.777   8.371  0.3517  0.1754  0.0738
   24POPC   C3A  836   8.896   2.079   8.020 -0.0385 -0.0089 -0.2149
   24POPC   C4A  837   8.834   2.327   7.510  0.0683  0.1924 -0.1026
   24POPC   C1B  838   8.122   2.481   8.405  0.1376  0.1562 -0.0991
   24POPC   C2B  839   8.090   2.811   8.111  0.0112  0.2398 -0.0524
   24POPC   C3B  840   8.154   3.304   8.052 -0.4368 -0.0574 -0.0122
   24POPC   C4B  841   8.188   3.731   7.777 -0.1345 -0.2516 -0.2585
   25POPC   NC3  842   7.460   2.766   9.176  0.2670  0.1105  0.2273
   25POPC   PO4  843   7.494   3.201   9.025  0.4280  0.1246  0.1793
   25POPC   GL1  844   7.688   3.032   8.731 -0.2214  0.1514  0.2125
   25POPC   GL2  845   7.645   2.719   8.660  0.0953 -0.0401  0.1818
   25POPC   C1A  846   7.609   3.036   8.245  0.0898  0.0548 -0.1618
   25POPC   D2A  847   7.654   2.960   7.776  0.0170  0.0596 -0.0410
   25POPC   C3A  848   7.957   2.833   7.640  0.0465  0.0231  0.1587
   25POPC   C4A  849   8.402   2.902   7.511  0.0641  0.1953 -0.1021
   25POPC   C1B  850   7.650   2.541   8.202 -0.2791 -0.0161 -0.0941
   25POPC   C2B  851   7.524   2.274   7.883 -0.0309 -0.0659 -0.2736
   25POPC   C3B  852   7.779   2.246   7.549 -0.2349 -0.2315  0.0861
   25POPC   C4B  853   7.878   1.843   7.333 -0.2876  0.0032  0.2242
   26POPC   NC3  854   6.465   7.420   9.437 -0.0284 -0.2660  0.5526
   26POPC   PO4  855   6.458   7.649   9.124 -0.2676  0.1130  0.1122
   26POPC   GL1  856   6.663   7.489   8.745  0.3527  0.0198 -0.0942
   26POPC   GL2  857   6.799   7.718   8.650  0.0725  0.2062  0.1046
   26POPC   C1A  858   6.965   7.203   8.478  0.0617  0.1263 -0.4806
   26POPC   D2A  859   7.241   6.995   8.213  0.0625 -0.0636 -0.0326
   26POPC   C3A  860   7.224   7.179   7.856 -0.1327 -0.0325 -0.2467
   26POPC   C4A  861   7.503   7.269   7.493  0.1566 -0.1377 -0.1748
   26POPC   C1B  862   6.825   7.765   8.118  0.0146  0.3357  0.2250
   26POPC   C2B  863   7.049   7.689   7.746 -0.0400 -0.1169 -0.4684
   26POPC   C3B  864   7.351   7.941   7.678  0.1940 -0.2224 -0.1968
   26POPC   C4B  865   7.618   7.969   8.150 -0.2679 -0.2416  0.2159
   27POPC   NC3  866   4.833   1.897   9.944  0.0125 -0.2354 -0.4059
   27POPC   PO4  867   4.964   1.874   9.397 -0.0910 -0.0633 -0.1533
   27POPC   GL1  868   5.243   2.040   9.056 -0.0510 -0.0061  0.4438
   27POPC   GL2  869   5.152   2.174   8.773 -0.1855 -0.1086 -0.1761
   27POPC   C1A  870   5.602   1.979   8.653  0.2445 -0.4705 -0.0727
   27POPC   D2A  871   6.017   1.876   8.410  0.1660 -0.1499 -0.0993
   27POPC   C3A  872   5.898   1.833   7.952  0.0621 -0.0553  0.1092
   27POPC   C4A  873   5.597   2.020   7.839 -0.1657 -0.0831 -0.3246
   27POPC   C1B  874   4.854   1.986   8.478 -0.2096  0.1241 -0.3011
   27POPC   C2B  875   4.680   1.765   8.118  0.0621  0.3677 -0.2832
   27POPC   C3B  876   4.515   1.848   7.733  0.4960  0.0484 -0.0132
   27POPC   C4B  877   4.188   1.906   7.379 -0.1955  0.1839 -0.0853
   28POPC   NC3  878   5.736   9.426   9.287 -0.1024 -0.1804  0.1337
   28POPC   PO4  879   6.261   9.432   9.305  0.0175 -0.0924  0.0552
   28POPC   GL1  880   6.168   9.528   8.956 -0.0272  0.2187 -0.4786
   28POPC   GL2  881   5.858   9.415   8.719 -0.0250  0.1957 -0.0838
   28POPC   C1A  882   6.294   9.649   8.528 -0.0234  0.1983  0.0307
   28POPC   D2A  883   6.296   9.606   8.076  0.2351  0.0344  0.2268
   28POPC   C3A  884   6.632   9.624   7.817  0.0819 -0.1397  0.0317
   28POPC   C4A  885   6.829   9.707   7.447 -0.0543 -0.1390 -0.1274
   28POPC   C1B  886   5.817   9.407   8.231 -0.0041 -0.1852  0.1853
   28POPC   C2B  887   5.839   9.538   7.790  0.1835 -0.0351 -0.2894
   28POPC   C3B  888   5.788   9.586   7.403  0.0500  0.0317 -0.1607
   28POPC   C4B  889   5.629   9.582   7.004 -0.1871  0.0039  0.1100
   29POPC   NC3  890   4.507   3.618   9.029  0.0701  0.1433  0.0030
   29POPC   PO4  891   4.794   3.299   9.171 -0.0170 -0.2413 -0.1870
   29POPC   GL1  892   4.701   3.258   8.753 -0.1727  0.0100 -0.1440
   29POPC   GL2  893   4.490   3.332   8.594 -0.0255  0.1956 -0.2114
   29POPC   C1A  894   4.661   3.014   8.308  0.1181 -0.0127  0.1176
   29POPC   D2A  895   5.004   2.786   8.102  0.0142  0.0145 -0.1053
   29POPC   C3A  896   5.253   3.087   7.810  0.0462 -0.1701 -0.2329
   29POPC   C4A  897   5.409   3.479   7.844  0.2003 -0.0471 -0.0546
   29POPC   C1B  898   4.384   3.620   8.267  0.1086 -0.0624 -0.0728
   29POPC   C2B  899   4.552   3.738   7.781 -0.1613  0.1097  0.1739
   29POPC   C3B  900   4.432   3.672   7.449  0.0341  0.1711  0.2199
   29POPC   C4B  901   4.253   3.563   7.016  0.0039 -0.2215  0.0701
   30POPC   NC3  902   8.576   2.775   9.095 -0.1798  0.1959 -0.2826
   30POPC   PO4  903   8.066   2.851   9.041 -0.0530  0.2174 -0.3857
   30POPC   GL1  904   8.326   2.853   8.677  0.0115  0.1118 -0.1960
   30POPC   GL2  905   8.287   3.148   8.529 -0.2742 -0.2657  0.2328
   30POPC   C1A  906   8.619   2.866   8.375  0.1868 -0.0881  0.0503
   30POPC   D2A  907   8.742   3.118   8.017  0.0888  0.2271  0.3129
   30POPC   C3A  908   8.897   2.882   7.665 -0.1836  0.1088  0.2911
   30POPC   C4A  909   8.753   2.722   7.213 -0.2447  0.0917  0.0669
   30POPC   C1B  910   8.501   3.477   8.383 -0.2852 -0.6414  0.0214
   30POPC   C2B  911   8.661   3.604   8.046 -0.1158 -0.2269  0.0357
   30POPC   C3B  912   8.704   3.680   7.650 -0.2947 -0.2962 -0.0735
   30POPC   C4B  913   8.424   3.397   7.460 -0.2867 -0.2403  0.1823
   31POPC   NC3  914   8.144   5.850  10.100  0.0445 -0.0367  0.1748
   31POPC   PO4  915   8.229   6.097   9.725  0.1239  0.1889  0.0776
   31POPC   GL1  916   8.145   6.203   9.246  0.0375  0.1554 -0.0124
   31POPC   GL2  917   7.996   6.003   9.086  0.1331 -0.0377 -0.0989
   31POPC   C1A  918   8.304   6.279   8.768  0.1769 -0.2961 -0.0439
   31POPC   D2A  919   8.658   6.169   8.576 -0.1204 -0.0954 -0.0643
   31POPC   C3A  920   8.649   6.149   8.141 -0.1455 -0.0023 -0.1866
   31POPC   C4A  921   8.802   5.905   7.767 -0.1556 -0.1139 -0.1016
   31POPC   C1B  922   7.686   6.004   8.817 -0.1735 -0.2121  0.1021
   31POPC   C2B  923   7.569   5.820   8.392 -0.1595 -0.0173  0.0467
   31POPC   C3B  924   7.506   6.019   7.967  0.0137 -0.2417 -0.1512
   31POPC   C4B  925   7.739   5.981   7.663 -0.1700  0.1714  0.0974
   32POPC   NC3  926   3.804   6.223   9.065  0.1553 -0.1926  0.1178
   32POPC   PO4  927   4.101   5.794   9.038  0.0517 -0.0420 -0.1265
   32POPC   GL1  928   3.885   5.712   8.674  0.0344 -0.0714  0.0567
   32POPC   GL2  929   3.584   5.710   8.454 -0.1109 -0.1220 -0.0122
   32POPC   C1A  930   4.042   5.989   8.349 -0.0177  0.1276  0.2464
   32POPC   D2A  931   4.021   5.955   7.896  0.0839 -0.0601  0.1478
   32POPC   C3A  932   4.394   5.991   7.582 -0.0393  0.0891  0.0117
   32POPC   C4A  933   4.411   6.051   7.203 -0.3917 -0.0903  0.3333
   32POPC   C1B  934   3.503   5.692   7.932 -0.1519  0.2067 -0.1528
   32POPC   C2B  935   3.853   5.560   7.653  0.1206 -0.0767 -0.1351
   32POPC   C3B  936   3.833   5.242   7.308  0.2926  0.2636  0.2865
   32POPC   C4B  937   4.253   5.081   7.286  0.4095  0.0440 -0.2497
   33POPC   NC3  938   0.780   3.956   9.538 -0.1233  0.1741  0.0200
   33POPC   PO4  939   0.574   3.958   9.164 -0.1771 -0.1987 -0.1065
   33POPC   GL1  940   0.243   3.753   8.874 -0.0708 -0.1663  0.1521
   33POPC   GL2  941   0.023   4.089   8.770  0.0130  0.0304  0.1309
   33POPC   C1A  942   0.256   3.814   8.363 -0.1065 -0.2069 -0.0779
   33POPC   D2A  943   0.472   3.711   7.972  0.3067  0.4129 -0.0336
   33POPC   C3A  944   0.738   3.901   7.842 -0.0377 -0.1191 -0.2022
   33POPC   C4A  945   1.127   3.935   7.477  0.0290 -0.0383  0.1005
   33POPC   C1B  946   0.247   4.290   8.421  0.0568 -0.0238 -0.1039
   33POPC   C2B  947   0.232   4.341   8.091 -0.0605 -0.1420 -0.1146
   33POPC   C3B  948  -0.135   4.458   7.809  0.0357  0.0069 -0.3649
   33POPC   C4B  949  -0.140   4.314   7.359  0.0335 -0.3204 -0.1889
   34POPC   NC3  950   1.830   0.046   9.307 -0.1482  0.1537 -0.0942
   34POPC   PO4  951   2.166  -0.199   9.429  0.0422 -0.1225 -0.0079
   34POPC   GL1  952   1.944  -0.327   8.967  0.2125 -0.3301 -0.2664
   34POPC   GL2  953   1.839  -0.090   8.744 -0.2200  0.1986 -0.0706
   34POPC   C1A  954   1.770  -0.536   8.511 -0.0387 -0.0832  0.3461
   34POPC   D2A  955   1.859  -0.832   8.089  0.2327  0.0679 -0.2775
   34POPC   C3A  956   1.840  -1.347   7.925  0.0706  0.1534  0.4175
   34POPC   C4A  957   1.768  -1.845   8.087  0.2302  0.1692  0.0643
   34POPC   C1B  958   2.033  -0.121   8.292 -0.2032  0.3213  0.2030
   34POPC   C2B  959   2.236   0.038   8.004 -0.3167  0.2696  0.2135
   34POPC   C3B  960   2.411   0.011   7.654  0.2622  0.1630  0.2542
   34POPC   C4B  961   2.032  -0.099   7.434  0.0595 -0.0196  0.3211
   35POPC   NC3  962   9.575   1.676   9.463  0.0559 -0.1414 -0.0832
   35POPC   PO4  963   9.239   1.408   9.602  0.1372 -0.2199  0.1091
   35POPC   GL1  964   9.148   1.410   9.185  0.0796  0.2190 -0.1178
   35POPC   GL2  965   9.256   1.672   8.997  0.0862 -0.1058  0.0414
   35POPC   C1A  966   9.250   1.036   8.816 -0.0412 -0.1481 -0.1708
   35POPC   D2A  967   9.247   0.586   8.703 -0.0507 -0.2457  0.0195
   35POPC   C3A  968   9.590   0.333   8.860 -0.0381 -0.0581 -0.2892
   35POPC   C4A  969  10.029   0.252   8.763 -0.0473  0.2196  0.1517
   35POPC   C1B  970   9.497   1.502   8.723 -0.0013  0.2028  0.1485
   35POPC   C2B  971   9.635   1.307   8.300  0.3088  0.3640 -0.0467
   35POPC   C3B  972   9.446   1.078   7.988  0.3167 -0.0219 -0.0581
   35POPC   C4B  973   9.175   0.699   8.021  0.2540  0.0939 -0.0530
   36POPC   NC3  974   4.063   8.483   9.446 -0.0202 -0.0279 -0.1299
   36POPC   PO4  975   4.375   8.758   9.236 -0.0968 -0.0969  0.1113
   36POPC   GL1  976   4.303   9.047   8.823  0.1436 -0.1081 -0.0515
   36POPC   GL2  977   4.136   9.298   8.609  0.2472  0.1098  0.1733
   36POPC   C1A  978   4.587   9.501   8.669  0.1501 -0.0548 -0.1098
   36POPC   D2A  979   5.103   9.514   8.697  0.2341  0.1288  0.2151
   36POPC   C3A  980   5.324   9.369   8.393  0.1236  0.2251 -0.0379
   36POPC   C4A  981   5.372   9.446   7.929 -0.2909  0.0004 -0.4089
   36POPC   C1B  982   4.161   9.585   8.259  0.1925  0.0173  0.1194
   36POPC   C2B  983   3.999   9.594   7.879  0.0110  0.1054  0.0908
   36POPC   C3B  984   3.691   9.593   7.552 -0.0639 -0.1987  0.3314
   36POPC   C4B  985   3.489   9.591   7.106  0.2208  0.1045 -0.2872
   37POPC   NC3  986   0.525   8.062  10.060 -0.1132 -0.0211 -0.2611
   37POPC   PO4  987   0.613   7.651  10.070  0.0513  0.1470 -0.1173
   37POPC   GL1  988   0.636   7.746   9.608 -0.2305 -0.1561  0.0229
   37POPC   GL2  989   0.346   7.607   9.454 -0.0553  0.2897  0.0771
   37POPC   C1A  990   0.777   7.908   9.176 -0.3106  0.3205 -0.2403
   37POPC   D2A  991   0.663   7.920   8.717 -0.1123 -0.0978  0.2508
   37POPC   C3A  992   0.733   7.617   8.420  0.1186  0.0272 -0.0515
   37POPC   C4A  993   1.090   7.541   8.052 -0.0623 -0.1906  0.1381
   37POPC   C1B  994  -0.019   7.667   9.158 -0.3551 -0.2513 -0.2668
   37POPC   C2B  995  -0.252   7.364   9.006  0.0343 -0.1256 -0.0232
   37POPC   C3B  996  -0.664   7.152   8.824 -0.0939 -0.0574  0.0113
   37POPC   C4B  997  -1.008   6.948   8.705  0.2167 -0.0753  0.2844
   38POPC   NC3  998   0.023   3.039   9.237 -0.1808  0.1081 -0.1511
   38POPC   PO4  999  -0.396   2.972   9.021 -0.1155  0.0054 -0.1326
   38POPC   GL1 1000  -0.479   3.112   8.681  0.0099 -0.0305 -0.0341
   38POPC   GL2 1001  -0.542   3.488   8.714 -0.1975  0.0296 -0.1465
   38POPC   C1A 1002  -0.447   3.111   8.252  0.1015  0.2800 -0.2348
   38POPC   D2A 1003  -0.208   2.951   7.915 -0.2959  0.2300  0.0779
   38POPC   C3A 1004  -0.435   2.964   7.541  0.0422  0.0259  0.0823
   38POPC   C4A 1005  -0.796   3.134   7.232  0.2514 -0.0519  0.1199
   38POPC   C1B 1006  -0.279   3.674   8.451 -0.0197 -0.0320 -0.0968
   38POPC   C2B 1007  -0.194   3.699   7.995  0.4039  0.1937  0.0959
   38POPC   C3B 1008  -0.027   3.914   7.629  0.1485 -0.1403 -0.3371
   38POPC   C4B 1009   0.324   4.142   7.585  0.3234  0.1065 -0.1817
   39POPC   NC3 1010   0.880   4.613   8.778  0.4343 -0.1060  0.2419
   39POPC   PO4 1011   1.168   4.972   8.836  0.1581 -0.1016 -0.0542
   39POPC   GL1 1012   0.994   5.223   8.479 -0.2204  0.2430  0.2549
   39POPC   GL2 1013   0.873   4.926   8.344  0.0012 -0.2377  0.0204
   39POPC   C1A 1014   1.132   5.195   8.011 -0.0663 -0.0904 -0.1213
   39POPC   D2A 1015   1.364   5.202   7.599 -0.0055  0.2156 -0.1445
   39POPC   C3A 1016   1.430   4.945   7.358  0.4183  0.0921  0.0468
   39POPC   C4A 1017   1.185   4.895   6.905 -0.1403  0.1074 -0.0922
   39POPC   C1B 1018   0.649   5.076   7.995  0.1168  0.0361  0.1164
   39POPC   C2B 1019   0.501   5.140   7.581 -0.0686 -0.3346  0.1289
   39POPC   C3B 1020   0.339   5.253   7.157 -0.2562 -0.2654 -0.1050
   39POPC   C4B 1021   0.594   5.388   6.728  0.3951  0.4010 -0.0200
   40POPC   NC3 1022   4.538   4.376   9.628 -0.0946  0.0048  0.0607
   40POPC   PO4 1023   4.485   4.048   9.303 -0.0991  0.0728 -0.1269
   40POPC   GL1 1024   4.107   4.164   8.907  0.0653  0.1519  0.0487
   40POPC   GL2 1025   3.874   3.949   8.700 -0.0661 -0.0862 -0.1972
   40POPC   C1A 1026   4.330   4.046   8.513  0.0112  0.2311  0.0309
   40POPC   D2A 1027   3.936   3.966   8.221  0.0715  0.0245  0.0673
   40POPC   C3A 1028   4.048   3.639   7.931 -0.0475  0.2369 -0.1323
   40POPC   C4A 1029   3.947   3.724   7.535 -0.2442  0.1060 -0.2741
   40POPC   C1B 1030   4.034   3.560   8.552  0.0828  0.1924  0.2936
   40POPC   C2B 1031   4.065   3.205   8.215 -0.1477 -0.1148  0.0201
   40POPC   C3B 1032   4.403   3.222   7.906  0.0558  0.0820 -0.4484
   40POPC   C4B 1033   4.576   3.197   7.533 -0.0683 -0.0480 -0.1687
   41POPC   NC3 1034   1.262   6.459   9.869 -0.0153  0.0980  0.0101
   41POPC   PO4 1035   0.986   6.485   9.680 -0.0604  0.0247  0.0699
   41POPC   GL1 1036   1.150   6.505   9.231 -0.0195 -0.0656 -0.0928
   41POPC   GL2 1037   1.277   6.177   9.115 -0.0376  0.0619 -0.2522
   41POPC   C1A 1038   1.277   6.671   8.762  0.0797  0.0353  0.3610
   41POPC   D2A 1039   1.421   6.563   8.347  0.0541  0.0140 -0.0984
   41POPC   C3A 1040   1.556   6.694   7.986  0.0945  0.0140  0.1256
   41POPC   C4A 1041   1.679   6.942   7.598  0.0427  0.0847 -0.2296
   41POPC   C1B 1042   1.131   6.168   8.659 -0.1559 -0.3387 -0.0272
   41POPC   C2B 1043   1.353   6.040   8.413  0.0787 -0.1278 -0.0821
   41POPC   C3B 1044   1.677   6.099   8.169 -0.1042 -0.0765  0.1278
   41POPC   C4B 1045   1.823   5.841   7.848 -0.1270  0.0591  0.0460
   42POPC   NC3 1046   3.004   6.210   9.197 -0.3333  0.0223  0.0514
   42POPC   PO4 1047   3.348   5.976   8.978  0.1706 -0.3517 -0.4359
   42POPC   GL1 1048   3.140   5.982   8.541 -0.1366  0.1687  0.2618
   42POPC   GL2 1049   3.087   5.643   8.526 -0.0824 -0.0888  0.1017
   42POPC   C1A 1050   3.127   6.070   8.148 -0.0005 -0.1589 -0.1898
   42POPC   D2A 1051   3.129   6.020   7.826 -0.0570 -0.5163  0.0382
   42POPC   C3A 1052   2.783   6.022   7.579  0.0512 -0.0408  0.3947
   42POPC   C4A 1053   2.702   5.690   7.298 -0.2292 -0.0023 -0.1350
   42POPC   C1B 1054   2.922   5.452   8.094 -0.1721  0.1070  0.3206
   42POPC   C2B 1055   2.821   5.547   7.767  0.1923 -0.3203  0.1438
   42POPC   C3B 1056   2.600   5.277   7.534 -0.0765 -0.2267 -0.0689
   42POPC   C4B 1057   2.700   5.111   7.145 -0.3077  0.0074 -0.0398
   43POPC   NC3 1058   9.211   9.092  10.123 -0.0515  0.0785  0.2879
   43POPC   PO4 1059   8.904   8.726  10.091 -0.2816 -0.0580  0.0605
   43POPC   GL1 1060   8.916   8.477   9.736 -0.0033 -0.3913 -0.0693
   43POPC   GL2 1061   8.768   8.608   9.452 -0.0499 -0.0989  0.0856
   43POPC   C1A 1062   9.074   8.160   9.576 -0.2711  0.0455 -0.0407
   43POPC   D2A 1063   9.223   8.093   9.149  0.0141 -0.3796 -0.1414
   43POPC   C3A 1064   9.361   7.699   9.009 -0.2980  0.2645  0.0041
   43POPC   C4A 1065   9.551   7.550   8.569 -0.2852 -0.3217  0.0000
   43POPC   C1B 1066   8.832   8.675   8.989 -0.0360  0.0136 -0.0563
   43POPC   C2B 1067   8.712   8.398   8.601 -0.1706 -0.0778  0.3062
   43POPC   C3B 1068   8.875   8.022   8.684 -0.1496 -0.0419 -0.0959
   43POPC   C4B 1069   8.921   7.579   8.724  0.1908  0.1138 -0.2079
   44POPC   NC3 1070   4.684   0.840   9.459  0.2477  0.0527  0.0745
   44POPC   PO4 1071   4.964   0.464   9.312  0.0549 -0.0686 -0.0219
   44POPC   GL1 1072   4.672   0.606   9.031 -0.0342 -0.1758  0.2610
   44POPC   GL2 1073   4.413   0.461   8.894  0.0410  0.2066  0.2850
   44POPC   C1A 1074   4.517   0.733   8.529 -0.1703  0.1987 -0.0045
   44POPC   D2A 1075   4.344   0.894   8.040 -0.1298 -0.2707  0.2395
   44POPC   C3A 1076   4.635   0.982   7.680 -0.4101 -0.1788 -0.3372
   44POPC   C4A 1077   4.967   0.912   7.717  0.3950  0.1051  0.0598
   44POPC   C1B 1078   4.637   0.235   8.525 -0.2341  0.1004 -0.1915
   44POPC   C2B 1079   4.795   0.412   8.050 -0.1444  0.2422 -0.4702
   44POPC   C3B 1080   4.610   0.507   7.564  0.1348  0.3209  0.1287
   44POPC   C4B 1081   4.717   0.803   7.254 -0.1637 -0.3045  0.2249
   45POPC   NC3 1082   5.217   1.240   9.890  0.1199 -0.0041  0.1896
   45POPC   PO4 1083   5.234   1.419   9.564 -0.0789 -0.0722 -0.0446
   45POPC   GL1 1084   5.363   1.477   9.146 -0.3584 -0.1767 -0.1137
   45POPC   GL2 1085   5.366   1.234   8.983  0.1414  0.2085 -0.0406
   45POPC   C1A 1086   5.246   1.679   8.699 -0.3237 -0.0031 -0.1801
   45POPC   D2A 1087   5.261   1.972   8.231 -0.2544  0.3196 -0.1581
   45POPC   C3A 1088   5.180   2.382   8.276  0.0884  0.1699 -0.0720
   45POPC   C4A 1089   5.071   2.744   8.556  0.3294 -0.3262 -0.1272
   45POPC   C1B 1090   5.241   1.188   8.522 -0.0647 -0.0709  0.1930
   45POPC   C2B 1091   5.358   1.029   8.111 -0.0421  0.2239  0.2636
   45POPC   C3B 1092   5.467   0.908   7.691 -0.1518 -0.0671  0.0692
   45POPC   C4B 1093   5.292   0.801   7.243 -0.4748  0.1403  0.1353
   46POPC   NC3 1094   5.807   5.530   9.140 -0.4495  0.4201 -0.2399
   46POPC   PO4 1095   6.022   5.831   8.790  0.1287 -0.1619 -0.2100
   46POPC   GL1 1096   6.145   5.664   8.453 -0.1288 -0.1650 -0.1355
   46POPC   GL2 1097   6.356   5.452   8.534 -0.0949  0.1880  0.1291
   46POPC   C1A 1098   6.057   5.675   7.988 -0.1789  0.3723  0.0214
   46POPC   D2A 1099   6.231   5.569   7.708  0.3614 -0.1403  0.0598
   46POPC   C3A 1100   6.040   5.226   7.431 -0.1210  0.1186 -0.2738
   46POPC   C4A 1101   6.095   5.132   7.126  0.3486  0.0181  0.3234
   46POPC   C1B 1102   6.329   5.204   8.167  0.0596  0.1256  0.0500
   46POPC   C2B 1103   6.132   5.027   7.841 -0.2731 -0.1474  0.2254
   46POPC   C3B 1104   6.220   4.757   7.459 -0.0254  0.1206 -0.1386
   46POPC   C4B 1105   6.423   4.394   7.569  0.1148  0.0488 -0.1576
   47POPC   NC3 1106   5.741   2.917   9.196 -0.0780  0.2995  0.0579
   47POPC   PO4 1107   6.287   3.129   9.255  0.2482  0.0469 -0.1644
   47POPC   GL1 1108   6.548   2.869   9.103  0.1896  0.0631  0.0681
   47POPC   GL2 1109   6.747   2.845   8.915 -0.1456 -0.0770 -0.0228
   47POPC   C1A 1110   6.328   2.569   8.758 -0.0560 -0.2376 -0.2007
   47POPC   D2A 1111   6.576   2.183   8.786  0.1243 -0.4316 -0.0134
   47POPC   C3A 1112   6.738   1.982   8.362  0.1927  0.0794 -0.2750
   47POPC   C4A 1113   6.911   1.774   7.992  0.0378 -0.1384  0.0439
   47POPC   C1B 1114   6.627   2.669   8.423 -0.3632  0.0565  0.1112
   47POPC   C2B 1115   6.582   2.759   7.952  0.0111  0.0271 -0.0306
   47POPC   C3B 1116   6.178   2.872   7.781  0.0378 -0.4225  0.0435
   47POPC   C4B 1117   5.900   2.723   7.476  0.0475 -0.3239 -0.1277
   48POPC   NC3 1118   3.505   3.166   9.302 -0.0030  0.0036  0.0418
   48POPC   PO4 1119   3.254   3.125   8.912 -0.0185 -0.0921  0.1590
   48POPC   GL1 1120   3.150   2.945   8.607  0.1732 -0.1433 -0.0044
   48POPC   GL2 1121   2.874   2.832   8.496  0.1289  0.2931  0.0647
   48POPC   C1A 1122   3.308   2.742   8.223 -0.2113 -0.0404  0.0624
   48POPC   D2A 1123   3.271   2.747   7.769 -0.2062 -0.0468 -0.3017
   48POPC   C3A 1124   3.623   2.717   7.539 -0.0399 -0.0408  0.0536
   48POPC   C4A 1125   3.837   2.920   7.130 -0.2156  0.2512 -0.1502
   48POPC   C1B 1126   2.795   3.047   8.216 -0.3195  0.0208  0.2491
   48POPC   C2B 1127   2.719   3.033   7.744  0.2433 -0.0142 -0.0859
   48POPC   C3B 1128   2.472   3.117   7.344 -0.2556 -0.3457 -0.0926
   48POPC   C4B 1129   2.164   3.180   7.082 -0.0322  0.0278 -0.0223
   49POPC   NC3 1130   3.553   2.420   9.937  0.0897  0.0976 -0.1025
   49POPC   PO4 1131   3.647   2.442   9.427 -0.1967  0.0601 -0.1715
   49POPC   GL1 1132   3.935   2.387   8.981  0.1748 -0.0830  0.4298
   49POPC   GL2 1133   4.223   2.398   8.908  0.0244 -0.0658  0.0707
   49POPC   C1A 1134   3.980   2.228   8.519 -0.0111  0.3014 -0.3029
   49POPC   D2A 1135   3.772   1.944   8.238 -0.3497  0.0107 -0.0427
   49POPC   C3A 1136   3.515   1.871   7.903 -0.3252 -0.0660  0.1673
   49POPC   C4A 1137   3.230   1.739   7.536 -0.1544  0.0873 -0.0594
   49POPC   C1B 1138   4.421   2.392   8.635 -0.1295  0.0554  0.1079
   49POPC   C2B 1139   4.720   2.415   8.372  0.1725 -0.1668  0.2525
   49POPC   C3B 1140   4.749   2.277   7.922  0.0619  0.1137 -0.4030
   49POPC   C4B 1141   5.119   2.414   7.732 -0.3840 -0.0906 -0.1557
   50POPC   NC3 1142   3.978  10.087   9.056  0.0454 -0.0222  0.0679
   50POPC   PO4 1143   3.835   9.665   8.934  0.1591 -0.0429  0.0552
   50POPC   GL1 1144   3.650   9.437   8.688 -0.0033  0.2271  0.0666
   50POPC   GL2 1145   3.315   9.545   8.860  0.1005  0.2588  0.1074
   50POPC   C1A 1146   3.560   9.187   8.350 -0.2742  0.0514 -0.0696
   50POPC   D2A 1147   3.385   8.820   8.272 -0.0933  0.2727 -0.2210
   50POPC   C3A 1148   3.373   8.591   7.882 -0.0388 -0.3510  0.1701
   50POPC   C4A 1149   3.082   8.391   7.714 -0.1351  0.4871  0.1941
   50POPC   C1B 1150   3.100   9.220   8.598  0.0981  0.3139  0.3514
   50POPC   C2B 1151   3.140   9.208   8.161 -0.0741 -0.3469  0.1811
   50POPC   C3B 1152   3.362   9.210   7.734 -0.2321 -0.1051 -0.0499
   50POPC   C4B 1153   3.599   8.813   7.502 -0.2733 -0.3541  0.1502
   51POPC   NC3 1154   6.396   7.100   9.101  0.1566  0.1927  0.0794
   51POPC   PO4 1155   6.116   6.720   9.074 -0.0842 -0.1653  0.2751
   51POPC   GL1 1156   6.000   6.591   8.729 -0.3664 -0.0359 -0.0719
   51POPC   GL2 1157   6.169   6.302   8.639  0.1610  0.2600  0.0492
   51POPC   C1A 1158   5.718   6.661   8.373 -0.1885 -0.1943  0.1555
   51POPC   D2A 1159   5.842   6.794   7.976 -0.1970  0.0360 -0.0236
   51POPC   C3A 1160   5.797   7.023   7.635  0.1102 -0.0076  0.1394
   51POPC   C4A 1161   5.656   7.234   7.240  0.0466 -0.1735  0.0196
   51POPC   C1B 1162   6.273   6.083   8.218  0.4132  0.5114 -0.1791
   51POPC   C2B 1163   6.351   6.083   7.777 -0.1729 -0.2109  0.2005
   51POPC   C3B 1164   6.625   6.292   7.530  0.0919  0.0425  0.0847
   51POPC   C4B 1165   6.871   6.440   7.187 -0.3293 -0.3810  0.0055
   52POPC   NC3 1166   9.511   3.478   9.211 -0.0341  0.1399 -0.0294
   52POPC   PO4 1167   9.495   3.993   9.045  0.0966  0.1140 -0.1821
   52POPC   GL1 1168   9.671   4.032   8.598  0.3380  0.0475  0.2196
   52POPC   GL2 1169   9.415   3.938   8.455 -0.0248 -0.1726 -0.2143
   52POPC   C1A 1170   9.947   4.209   8.251  0.0534 -0.0612  0.1243
   52POPC   D2A 1171   9.802   4.737   8.110  0.0170  0.2144 -0.1602
   52POPC   C3A 1172   9.895   5.160   7.915  0.0327  0.0589  0.1542
   52POPC   C4A 1173   9.594   5.301   7.518 -0.1210  0.0907  0.0446
   52POPC   C1B 1174   9.594   3.923   8.069  0.2209 -0.0815  0.2539
   52POPC   C2B 1175   9.582   4.041   7.667  0.2363  0.1460  0.0241
   52POPC   C3B 1176   9.556   4.481   7.548 -0.3971 -0.2128  0.3399
   52POPC   C4B 1177   9.780   4.820   7.511  0.3556  0.0366  0.2562
   53POPC   NC3 1178   6.583   3.449   9.033  0.2379 -0.0582  0.2116
   53POPC   PO4 1179   6.293   3.719   8.979  0.0447  0.0470 -0.2160
   53POPC   GL1 1180   6.409   3.727   8.594 -0.2925  0.3835  0.2056
   53POPC   GL2 1181   6.409   3.473   8.324  0.0972  0.0577  0.1269
   53POPC   C1A 1182   6.829   3.818   8.288  0.3109 -0.2874  0.2288
   53POPC   D2A 1183   7.228   3.994   8.046  0.0383  0.2029  0.0395
   53POPC   C3A 1184   7.368   3.867   7.687 -0.1138  0.2428  0.4294
   53POPC   C4A 1185   7.550   3.895   7.255  0.2223  0.1361  0.0201
   53POPC   C1B 1186   6.283   3.138   8.196 -0.1491 -0.1341 -0.0708
   53POPC   C2B 1187   6.144   2.767   8.303 -0.1372  0.1635 -0.0107
   53POPC   C3B 1188   6.283   2.275   8.309 -0.0516 -0.0843 -0.2354
   53POPC   C4B 1189   6.363   1.901   8.015 -0.4233 -0.0457  0.1162
   54POPC   NC3 1190   9.006   5.738  10.141 -0.0791 -0.0719  0.2784
   54POPC   PO4 1191   8.777   6.130   9.897  0.1011 -0.0999  0.0220
   54POPC   GL1 1192   8.683   6.318   9.358  0.0340  0.0117 -0.0887
   54POPC   GL2 1193   8.576   6.566   9.246 -0.0977  0.3133  0.1648
   54POPC   C1A 1194   8.902   6.120   8.982  0.0997  0.0400 -0.3957
   54POPC   D2A 1195   9.274   6.159   8.722  0.2507  0.1607 -0.0084
   54POPC   C3A 1196   9.470   6.341   8.420 -0.2246 -0.0572 -0.4957
   54POPC   C4A 1197   9.448   6.729   8.359  0.1948  0.1154  0.2592
   54POPC   C1B 1198   8.699   6.601   8.812 -0.0914 -0.3935  0.0976
   54POPC   C2B 1199   9.019   6.506   8.509 -0.3468 -0.1596  0.0456
   54POPC   C3B 1200   8.920   6.702   8.142 -0.3714  0.0913 -0.3690
   54POPC   C4B 1201   9.107   6.908   7.794 -0.0043  0.0788 -0.1442
   55POPC   NC3 1202   1.484   2.337   8.931 -0.0486 -0.2991  0.1956
   55POPC   PO4 1203   1.861   2.689   8.995 -0.0335  0.1417  0.2390
   55POPC   GL1 1204   2.057   2.983   8.680  0.0785 -0.2563  0.2805
   55POPC   GL2 1205   2.438   2.970   8.637 -0.2367 -0.2360 -0.0490
   55POPC   C1A 1206   1.928   2.878   8.155  0.2552 -0.1211 -0.2064
   55POPC   D2A 1207   1.824   2.570   7.828  0.1020  0.2385  0.1455
   55POPC   C3A 1208   1.484   2.225   7.836 -0.0355 -0.1267 -0.0236
   55POPC   C4A 1209   1.199   2.067   7.677 -0.2224  0.4059  0.2375
   55POPC   C1B 1210   2.287   3.228   8.251  0.4353 -0.0138 -0.0571
   55POPC   C2B 1211   1.932   3.359   8.072  0.1431 -0.5175  0.2641
   55POPC   C3B 1212   1.653   3.629   7.832 -0.0929 -0.0422  0.2032
   55POPC   C4B 1213   1.299   3.525   7.573  0.1977  0.1180  0.2571
   56POPC   NC3 1214   6.746   9.203   9.419  0.1941 -0.3966  0.0606
   56POPC   PO4 1215   6.405   8.910   9.396  0.1606 -0.0278 -0.2448
   56POPC   GL1 1216   6.666   8.842   9.043  0.2532  0.1587  0.2708
   56POPC   GL2 1217   6.388   8.740   8.805  0.0063  0.3013 -0.3886
   56POPC   C1A 1218   6.857   8.768   8.642  0.1411 -0.0425 -0.4526
   56POPC   D2A 1219   7.213   8.604   8.442 -0.0713 -0.2511  0.2474
   56POPC   C3A 1220   7.148   8.036   8.391  0.0767  0.3299  0.1724
   56POPC   C4A 1221   7.268   7.554   8.242  0.0875  0.0433 -0.2510
   56POPC   C1B 1222   6.479   8.727   8.312  0.2450 -0.0025  0.0477
   56POPC   C2B 1223   6.868   8.818   8.165 -0.3721 -0.2993  0.0747
   56POPC   C3B 1224   7.394   8.903   8.077  0.0636 -0.1493 -0.0642
   56POPC   C4B 1225   7.657   9.007   7.700 -0.0597 -0.1060  0.0222
   57POPC   NC3 1226   3.657   6.627   9.431  0.2295  0.1349  0.0004
   57POPC   PO4 1227   3.378   6.533   9.077  0.0325  0.0341  0.3731
   57POPC   GL1 1228   3.497   6.436   8.713 -0.0621 -0.1641  0.0089
   57POPC   GL2 1229   3.582   6.167   8.629  0.1137 -0.1648 -0.1816
   57POPC   C1A 1230   3.799   6.649   8.428 -0.2041  0.0959  0.1930
   57POPC   D2A 1231   3.807   6.627   7.880  0.1830 -0.0542  0.0064
   57POPC   C3A 1232   3.588   6.889   7.628  0.0480  0.0212  0.1925
   57POPC   C4A 1233   3.248   6.812   7.261 -0.2486  0.3100  0.2413
   57POPC   C1B 1234   3.658   6.146   8.163  0.0440  0.2204 -0.0920
   57POPC   C2B 1235   3.531   6.266   7.659 -0.2825  0.0021  0.1616
   57POPC   C3B 1236   3.369   5.993   7.321 -0.3037 -0.0307  0.1210
   57POPC   C4B 1237   3.181   5.792   7.060  0.0974  0.0442 -0.1862
   58POPC   NC3 1238   0.476   8.293  10.567  0.0761  0.3060  0.2375
   58POPC   PO4 1239   0.388   8.550  10.227  0.1656  0.0342  0.2090
   58POPC   GL1 1240   0.095   8.277   9.881 -0.2395  0.0182 -0.3693
   58POPC   GL2 1241   0.057   8.511   9.564 -0.0403 -0.0102 -0.2729
   58POPC   C1A 1242  -0.037   7.833   9.689 -0.0839 -0.0069  0.1895
   58POPC   D2A 1243  -0.162   7.362   9.556 -0.0682 -0.0423 -0.0569
   58POPC   C3A 1244   0.155   7.189   9.279 -0.1612  0.1477  0.0424
   58POPC   C4A 1245   0.498   6.971   8.989  0.0440 -0.3410 -0.0613
   58POPC   C1B 1246   0.068   8.149   9.251 -0.1438 -0.0736 -0.0918
   58POPC   C2B 1247   0.201   8.073   8.806 -0.1999 -0.0129  0.0870
   58POPC   C3B 1248   0.318   8.164   8.435 -0.0184  0.2622  0.3730
   58POPC   C4B 1249   0.250   8.080   7.993 -0.1658  0.2230  0.0792
   59POPC   NC3 1250   7.094   4.507   8.945  0.0345 -0.0557 -0.2574
   59POPC   PO4 1251   6.566   4.711   8.913 -0.0794  0.3122  0.0887
   59POPC   GL1 1252   6.716   4.455   8.563 -0.0301 -0.2657  0.3882
   59POPC   GL2 1253   6.559   4.169   8.495 -0.1458  0.2107 -0.0407
   59POPC   C1A 1254   6.792   4.314   8.078  0.1070 -0.0081 -0.0199
   59POPC   D2A 1255   6.830   4.114   7.703  0.0426 -0.0231 -0.3377
   59POPC   C3A 1256   6.566   3.920   7.560  0.2554  0.0563  0.0351
   59POPC   C4A 1257   6.161   3.713   7.349 -0.1457 -0.1042  0.2196
   59POPC   C1B 1258   6.389   4.030   8.021  0.0238 -0.0619 -0.0793
   59POPC   C2B 1259   5.989   4.006   7.746 -0.2518  0.1634 -0.2529
   59POPC   C3B 1260   5.634   3.792   7.571  0.0898 -0.0245 -0.0021
   59POPC   C4B 1261   5.334   3.524   7.235  0.2662  0.0445 -0.2119
   60POPC   NC3 1262   7.734   7.938   9.605  0.3259 -0.1259 -0.1687
   60POPC   PO4 1263   7.412   7.626   9.437  0.0075 -0.3369 -0.3721
   60POPC   GL1 1264   7.695   7.737   9.161 -0.2132 -0.1264  0.1109
   60POPC   GL2 1265   7.946   7.448   9.312  0.0015 -0.0142 -0.1554
   60POPC   C1A 1266   8.030   7.626   8.855 -0.1003 -0.0202 -0.1962
   60POPC   D2A 1267   8.063   7.187   8.651  0.3239 -0.1972  0.2081
   60POPC   C3A 1268   8.178   7.178   8.204  0.1887 -0.0274 -0.2323
   60POPC   C4A 1269   8.196   7.478   7.777 -0.0628 -0.1132  0.2105
   60POPC   C1B 1270   8.388   7.312   9.075 -0.1914  0.0758 -0.0023
   60POPC   C2B 1271   8.715   7.150   8.805 -0.0536 -0.0746  0.3346
   60POPC   C3B 1272   8.704   7.096   8.451  0.0582 -0.0219 -0.1815
   60POPC   C4B 1273   8.570   6.993   8.014  0.3584  0.2552 -0.2007
   61POPC   NC3 1274   6.378   5.345   9.148 -0.1893  0.2160  0.1044
   61POPC   PO4 1275   6.127   5.050   8.917  0.0899 -0.0981  0.1190
   61POPC   GL1 1276   5.992   5.017   8.515  0.1009 -0.0681 -0.0364
   61POPC   GL2 1277   5.795   4.720   8.318  0.0339  0.0316 -0.1237
   61POPC   C1A 1278   5.802   5.264   8.204  0.3077  0.1598 -0.3774
   61POPC   D2A 1279   5.454   5.504   8.189  0.0647 -0.1651  0.0971
   61POPC   C3A 1280   5.591   5.848   7.847  0.1544 -0.0834 -0.0774
   61POPC   C4A 1281   5.875   5.937   7.593 -0.2826 -0.0961  0.0472
   61POPC   C1B 1282   6.303   4.637   8.331 -0.0172  0.0171  0.2949
   61POPC   C2B 1283   6.468   4.739   7.979  0.0461  0.2763  0.1776
   61POPC   C3B 1284   6.655   5.049   7.581 -0.0985  0.1984  0.2753
   61POPC   C4B 1285   6.541   5.279   7.229  0.1029 -0.2316  0.2757
   62POPC   NC3 1286   9.698   0.322   9.800  0.0951  0.0875  0.4478
   62POPC   PO4 1287  10.158   0.254   9.952 -0.0055  0.1789 -0.0645
   62POPC   GL1 1288  10.259  -0.015   9.621  0.0361 -0.0884 -0.1005
   62POPC   GL2 1289  10.540   0.104   9.513  0.1776  0.0559  0.2805
   62POPC   C1A 1290  10.368  -0.307   9.219 -0.2085 -0.1464 -0.0428
   62POPC   D2A 1291  10.313  -0.751   9.045  0.0228 -0.2344 -0.0620
   62POPC   C3A 1292  10.183  -1.105   8.806 -0.0210 -0.1860  0.1467
   62POPC   C4A 1293  10.160  -1.501   9.041 -0.0668 -0.0361  0.0961
   62POPC   C1B 1294  10.434   0.248   9.090  0.1157 -0.1481 -0.0096
   62POPC   C2B 1295  10.591   0.503   8.693  0.0972  0.0716  0.1751
   62POPC   C3B 1296  10.600   0.698   8.331 -0.2816  0.0397 -0.2206
   62POPC   C4B 1297  10.727   0.845   7.876  0.0951 -0.0059  0.0658
   63POPC   NC3 1298   4.455   9.588   9.461 -0.1150  0.0325  0.0165
   63POPC   PO4 1299   4.358  10.024   9.522 -0.0734 -0.4597  0.2692
   63POPC   GL1 1300   4.517  10.132   9.057  0.2203 -0.1817  0.0031
   63POPC   GL2 1301   4.808  10.274   9.013 -0.1851  0.1394  0.2107
   63POPC   C1A 1302   4.366   9.946   8.599 -0.2294  0.0804  0.0744
   63POPC   D2A 1303   4.523  10.047   8.191 -0.1157 -0.1166 -0.0594
   63POPC   C3A 1304   4.475   9.748   7.922 -0.3740 -0.2988 -0.1631
   63POPC   C4A 1305   4.586   9.422   7.857 -0.3249  0.4678  0.2216
   63POPC   C1B 1306   4.906   9.993   8.638 -0.1489 -0.0930 -0.5197
   63POPC   C2B 1307   4.939   9.676   8.238  0.0970  0.3339  0.1024
   63POPC   C3B 1308   4.947   9.718   7.733  0.0323  0.1174  0.0834
   63POPC   C4B 1309   4.680   9.774   7.435  0.3878  0.0420  0.1878
   64POPC   NC3 1310   1.674   4.120   9.439  0.4416  0.2827  0.2570
   64POPC   PO4 1311   1.886   4.124   9.052  0.0263  0.0870  0.2552
   64POPC   GL1 1312   2.014   3.836   8.757  0.0185  0.0998  0.0466
   64POPC   GL2 1313   1.829   3.476   8.659 -0.0736 -0.3720  0.2009
   64POPC   C1A 1314   2.215   3.728   8.280  0.2715 -0.1945 -0.3669
   64POPC   D2A 1315   1.997   4.076   7.926  0.2108  0.2352  0.3150
   64POPC   C3A 1316   2.110   3.863   7.595  0.1579 -0.0035 -0.2164
   64POPC   C4A 1317   2.082   3.467   7.455  0.0863  0.3183 -0.2399
   64POPC   C1B 1318   1.654   3.702   8.375 -0.2065  0.0286 -0.1097
   64POPC   C2B 1319   1.363   3.981   8.084  0.0894  0.1414 -0.1912
   64POPC   C3B 1320   1.252   4.231   7.854 -0.0689 -0.2396  0.2081
   64POPC   C4B 1321   1.602   4.164   7.495  0.0031  0.3842 -0.2982
   65POPC   NC3 1322   2.014   7.732   9.739  0.1655  0.0607 -0.0389
   65POPC   PO4 1323   2.322   7.719   9.436 -0.2895 -0.0221  0.1576
   65POPC   GL1 1324   2.309   7.777   8.964  0.3264  0.0372  0.2020
   65POPC   GL2 1325   2.611   7.705   8.752 -0.1059 -0.1698  0.2644
   65POPC   C1A 1326   2.119   7.792   8.557  0.1568  0.0526  0.2847
   65POPC   D2A 1327   2.374   7.704   8.177 -0.0442  0.1554  0.0447
   65POPC   C3A 1328   2.381   7.247   7.987 -0.1334 -0.0171  0.0422
   65POPC   C4A 1329   2.488   6.842   8.149 -0.0522  0.0231  0.0936
   65POPC   C1B 1330   2.543   8.151   8.629  0.1960 -0.0254 -0.0684
   65POPC   C2B 1331   2.828   8.420   8.507  0.0938 -0.0004 -0.1456
   65POPC   C3B 1332   3.142   8.627   8.625 -0.0948  0.3188  0.0824
   65POPC   C4B 1333   3.471   8.936   8.773  0.1795  0.1068 -0.3075
   66POPC   NC3 1334   0.880   2.761   9.366 -0.2063 -0.1220 -0.0096
   66POPC   PO4 1335   0.960   2.411   8.968 -0.1072  0.2229  0.0877
   66POPC   GL1 1336   1.055   2.378   8.572 -0.1406 -0.0637 -0.0092
   66POPC   GL2 1337   0.787   2.252   8.501 -0.2503  0.1233  0.0549
   66POPC   C1A 1338   1.280   2.073   8.335 -0.2055  0.0003 -0.0731
   66POPC   D2A 1339   1.361   1.775   8.069 -0.2177 -0.1654 -0.0506
   66POPC   C3A 1340   1.435   1.548   7.622 -0.1195  0.1773  0.0208
   66POPC   C4A 1341   1.625   1.218   7.306 -0.3091  0.5191  0.0479
   66POPC   C1B 1342   0.489   2.358   8.136 -0.0947  0.1386  0.3596
   66POPC   C2B 1343   0.316   2.098   7.953 -0.2760 -0.0490  0.1424
   66POPC   C3B 1344   0.108   2.151   7.503 -0.0007 -0.3519 -0.5346
   66POPC   C4B 1345  -0.052   2.244   7.174  0.2064  0.1865  0.1505
   67POPC   NC3 1346   8.339   5.704   9.390 -0.0719 -0.2904 -0.0642
   67POPC   PO4 1347   8.676   5.465   9.234 -0.1633  0.1617  0.1226
   67POPC   GL1 1348   8.572   5.591   8.841  0.1474  0.0778  0.1286
   67POPC   GL2 1349   8.436   5.752   8.855  0.3346 -0.0125  0.2596
   67POPC   C1A 1350   8.674   5.708   8.435 -0.4550 -0.2780  0.1873
   67POPC   D2A 1351   8.467   5.676   8.110  0.1498 -0.0475  0.2283
   67POPC   C3A 1352   8.457   5.382   7.904  0.1675  0.0697  0.1392
   67POPC   C4A 1353   8.475   5.076   7.558  0.3437 -0.0625 -0.0347
   67POPC   C1B 1354   8.161   5.850   8.517  0.1126  0.0017  0.0037
   67POPC   C2B 1355   8.104   6.036   8.050 -0.0023 -0.2235 -0.1443
   67POPC   C3B 1356   8.269   5.869   7.658  0.2727 -0.0113 -0.1257
   67POPC   C4B 1357   8.520   5.662   7.402 -0.1533  0.1347 -0.1881
   68POPC   NC3 1358   6.566   0.066   9.470 -0.0319 -0.0887  0.0283
   68POPC   PO4 1359   6.621  -0.224   9.150  0.1395 -0.2955  0.2555
   68POPC   GL1 1360   6.779  -0.445   8.814 -0.1753  0.1549  0.2387
   68POPC   GL2 1361   6.992  -0.596   8.922 -0.3418  0.2833  0.5015
   68POPC   C1A 1362   6.891  -0.541   8.396 -0.0732 -0.1540  0.0181
   68POPC   D2A 1363   6.819  -0.879   8.254  0.3918 -0.1801  0.3779
   68POPC   C3A 1364   7.103  -0.948   7.857  0.1855 -0.1015 -0.1065
   68POPC   C4A 1365   7.061  -1.377   7.691  0.1228  0.1871 -0.0418
   68POPC   C1B 1366   6.630  -0.939   8.728 -0.2797 -0.0765  0.0117
   68POPC   C2B 1367   6.318  -1.025   8.522 -0.3077  0.0764  0.2523
   68POPC   C3B 1368   6.304  -1.085   8.045 -0.6743  0.1512  0.2086
   68POPC   C4B 1369   6.169  -1.022   7.631 -0.0284  0.5244  0.0043
   69POPC   NC3 1370   7.916   5.077   9.005 -0.1852 -0.1451 -0.2893
   69POPC   PO4 1371   8.279   5.147   9.183 -0.1986  0.1316  0.1269
   69POPC   GL1 1372   8.587   5.116   8.888 -0.3913 -0.1335 -0.0663
   69POPC   GL2 1373   8.295   5.111   8.661  0.2371  0.2169  0.2175
   69POPC   C1A 1374   8.787   5.223   8.523  0.0611 -0.0763  0.0219
   69POPC   D2A 1375   9.042   5.451   8.175 -0.3076 -0.2828  0.2301
   69POPC   C3A 1376   9.041   5.332   7.795  0.2391  0.2706 -0.3098
   69POPC   C4A 1377   9.054   5.376   7.379  0.0904 -0.2564 -0.0069
   69POPC   C1B 1378   8.155   5.343   8.339 -0.1365 -0.0174  0.2140
   69POPC   C2B 1379   7.947   5.564   7.927  0.3157  0.0133 -0.1492
   69POPC   C3B 1380   7.504   5.549   7.864 -0.1340 -0.0111  0.0803
   69POPC   C4B 1381   7.093   5.756   8.211  0.1123  0.0733 -0.0494
   70POPC   NC3 1382   5.415   6.726   9.837  0.0861 -0.1963  0.2683
   70POPC   PO4 1383   5.242   6.802   9.427 -0.1160  0.0163 -0.0799
   70POPC   GL1 1384   5.138   6.848   8.968 -0.3278  0.2087  0.1570
   70POPC   GL2 1385   5.211   7.209   8.726 -0.1594  0.0957 -0.0464
   70POPC   C1A 1386   5.193   6.637   8.549 -0.0986 -0.2865  0.0484
   70POPC   D2A 1387   4.793   6.515   8.226  0.1089  0.3885 -0.0689
   70POPC   C3A 1388   4.489   6.846   8.131  0.2829  0.0218 -0.3804
   70POPC   C4A 1389   4.172   6.910   7.772  0.4231 -0.0886 -0.1762
   70POPC   C1B 1390   5.400   7.257   8.321  0.1242  0.3703 -0.0300
   70POPC   C2B 1391   5.657   7.427   7.922  0.0616 -0.0332 -0.3949
   70POPC   C3B 1392   5.588   7.625   7.484 -0.2125  0.0063 -0.0529
   70POPC   C4B 1393   5.721   7.760   7.193 -0.4733 -0.1449  0.2623
   71POPC   NC3 1394   1.149   4.717   9.259 -0.2021  0.0661  0.1561
   71POPC   PO4 1395   1.388   4.382   9.006  0.2041  0.0607  0.1428
   71POPC   GL1 1396   1.165   4.224   8.607 -0.5427 -0.0421  0.1835
   71POPC   GL2 1397   1.189   4.447   8.338  0.1301 -0.2748 -0.3411
   71POPC   C1A 1398   0.914   4.005   8.296  0.1075 -0.1216 -0.2034
   71POPC   D2A 1399   1.041   3.573   8.052 -0.0860 -0.0463 -0.0713
   71POPC   C3A 1400   0.785   3.495   7.585 -0.1779 -0.0386  0.1536
   71POPC   C4A 1401   0.365   3.490   7.442 -0.0183  0.2774 -0.1322
   71POPC   C1B 1402   0.777   4.492   8.078 -0.0565  0.2848  0.3885
   71POPC   C2B 1403   0.483   4.610   7.780  0.2102 -0.0716  0.1859
   71POPC   C3B 1404   0.147   4.860   7.602 -0.0363  0.1517  0.1305
   71POPC   C4B 1405  -0.056   5.280   7.463  0.0575 -0.0645  0.0480
   72POPC   NC3 1406   0.031   5.815   9.581 -0.2120  0.2062  0.0017
   72POPC   PO4 1407   0.425   5.830   9.248 -0.2578  0.0872  0.0072
   72POPC   GL1 1408   0.731   6.060   8.889  0.1475 -0.0618 -0.1817
   72POPC   GL2 1409   0.439   6.069   8.782 -0.0225 -0.1736 -0.2084
   72POPC   C1A 1410   0.708   6.121   8.351 -0.0752 -0.1446 -0.0510
   72POPC   D2A 1411   0.411   6.033   8.065  0.1885 -0.0915 -0.0847
   72POPC   C3A 1412   0.683   5.935   7.744 -0.0077  0.5296 -0.3401
   72POPC   C4A 1413   0.967   5.906   7.399 -0.2673 -0.0009  0.1954
   72POPC   C1B 1414   0.269   6.317   8.410 -0.0517  0.1252  0.1692
   72POPC   C2B 1415   0.152   6.511   8.028  0.0356  0.1991  0.1520
   72POPC   C3B 1416   0.255   6.725   7.738 -0.2776  0.0754  0.0425
   72POPC   C4B 1417   0.499   6.817   7.456 -0.2075  0.1299 -0.1245
   73POPC   NC3 1418   5.309   8.688   9.317  0.1388  0.2623 -0.0514
   73POPC   PO4 1419   5.605   8.957   9.259 -0.1124 -0.1366  0.0590
   73POPC   GL1 1420   5.603   8.721   8.853 -0.0139  0.1028 -0.0075
   73POPC   GL2 1421   5.895   8.609   8.839 -0.1200  0.1379  0.0156
   73POPC   C1A 1422   5.749   8.935   8.499 -0.0011 -0.0692  0.0666
   73POPC   D2A 1423   5.813   8.889   7.947 -0.1306 -0.0492 -0.1508
   73POPC   C3A 1424   5.657   9.100   7.642 -0.0820  0.0286 -0.2581
   73POPC   C4A 1425   5.882   9.131   7.218  0.0077  0.0681 -0.1965
   73POPC   C1B 1426   6.084   8.425   8.356  0.1394  0.1215  0.1392
   73POPC   C2B 1427   6.261   8.539   7.936  0.1002  0.1237 -0.3553
   73POPC   C3B 1428   6.575   8.719   7.808 -0.0066  0.1398 -0.1193
   73POPC   C4B 1429   6.758   9.126   7.480 -0.0506  0.1519 -0.0587
   74POPC   NC3 1430   7.066   9.759   9.341  0.1039 -0.3597 -0.1188
   74POPC   PO4 1431   7.407   9.830   9.499 -0.0887  0.4541  0.1860
   74POPC   GL1 1432   7.425   9.674   8.975  0.3639  0.1589 -0.1637
   74POPC   GL2 1433   7.592   9.426   8.840 -0.0462 -0.1978  0.0218
   74POPC   C1A 1434   7.368   9.827   8.546 -0.2092 -0.1904  0.0549
   74POPC   D2A 1435   7.659   9.895   8.195 -0.0444 -0.1700  0.2438
   74POPC   C3A 1436   7.567  10.130   7.779  0.0167 -0.0784  0.2452
   74POPC   C4A 1437   7.486  10.372   7.296  0.4049  0.0211  0.3628
   74POPC   C1B 1438   7.196   9.220   8.611  0.0659 -0.1127 -0.2079
   74POPC   C2B 1439   7.361   9.404   8.303 -0.2082  0.3637 -0.0395
   74POPC   C3B 1440   7.650   9.444   7.956 -0.2628 -0.4337 -0.0344
   74POPC   C4B 1441   7.943   9.757   7.713 -0.3284  0.1653  0.0642
   75POPC   NC3 1442   2.608   4.948   9.144 -0.2553 -0.0337  0.1115
   75POPC   PO4 1443   2.992   5.240   9.059  0.0936  0.2164 -0.3491
   75POPC   GL1 1444   2.719   5.314   8.734 -0.2072  0.1089  0.3716
   75POPC   GL2 1445   2.583   5.623   8.573 -0.1961  0.1023  0.0939
   75POPC   C1A 1446   2.685   5.012   8.371  0.0287  0.0455  0.0925
   75POPC   D2A 1447   2.537   4.925   7.970 -0.2279  0.0460  0.3710
   75POPC   C3A 1448   2.287   4.531   7.846  0.2543 -0.1539 -0.2282
   75POPC   C4A 1449   2.114   4.350   7.541 -0.0833 -0.1094  0.0631
   75POPC   C1B 1450   2.656   6.080   8.652 -0.2265  0.1941 -0.2199
   75POPC   C2B 1451   2.469   6.371   8.524 -0.1459 -0.2079  0.0053
   75POPC   C3B 1452   2.331   6.856   8.629  0.1744  0.1602  0.0833
   75POPC   C4B 1453   2.362   7.293   8.530 -0.1159 -0.0389  0.2834
   76POPC   NC3 1454   8.975   2.362   9.775  0.1460 -0.0549 -0.1401
   76POPC   PO4 1455   9.016   2.516   9.288 -0.1318  0.0873 -0.0395
   76POPC   GL1 1456   9.127   2.352   8.874  0.1798 -0.0832 -0.3914
   76POPC   GL2 1457   8.811   2.504   8.792 -0.3357 -0.2308 -0.0399
   76POPC   C1A 1458   9.183   2.328   8.535  0.1672 -0.2163 -0.1266
   76POPC   D2A 1459   9.481   2.614   8.307 -0.2195 -0.1054 -0.3267
   76POPC   C3A 1460   9.723   2.532   7.862 -0.1335  0.3472 -0.0506
   76POPC   C4A 1461   9.966   2.517   7.602  0.2629  0.1610  0.1575
   76POPC   C1B 1462   8.677   2.343   8.414  0.3291  0.0937 -0.1113
   76POPC   C2B 1463   8.408   2.078   8.240  0.4553  0.1348  0.1930
   76POPC   C3B 1464   8.239   1.557   8.105  0.2889  0.3953  0.1118
   76POPC   C4B 1465   8.201   1.150   7.843 -0.4470 -0.0242  0.3284
   77POPC   NC3 1466   8.861   1.301  10.007 -0.0782 -0.2803 -0.0191
   77POPC   PO4 1467   8.676   1.390   9.554 -0.1005 -0.0261 -0.2062
   77POPC   GL1 1468   8.702   1.562   9.112 -0.2279 -0.0358  0.2652
   77POPC   GL2 1469   8.452   1.527   8.990 -0.0662 -0.1174 -0.3692
   77POPC   C1A 1470   8.913   1.398   8.741  0.0579  0.2665  0.0820
   77POPC   D2A 1471   9.044   1.194   8.421  0.0457 -0.1679  0.0557
   77POPC   C3A 1472   9.143   1.450   8.086  0.3011 -0.3250  0.1334
   77POPC   C4A 1473   9.143   1.832   7.627 -0.0059 -0.0878 -0.0964
   77POPC   C1B 1474   8.400   1.379   8.526 -0.2387  0.0397  0.0300
   77POPC   C2B 1475   8.604   1.286   8.265  0.3026  0.0441  0.1411
   77POPC   C3B 1476   8.655   1.483   7.891  0.0891  0.1851 -0.2442
   77POPC   C4B 1477   8.728   1.570   7.459  0.2598  0.1298  0.0930
   78POPC   NC3 1478   0.710   7.191  10.240  0.2562  0.0985  0.0830
   78POPC   PO4 1479   0.762   7.247   9.778 -0.1895 -0.0200  0.4931
   78POPC   GL1 1480   0.725   7.395   9.266  0.0483  0.0936 -0.0171
   78POPC   GL2 1481   0.933   7.281   8.961 -0.0010 -0.1829 -0.2878
   78POPC   C1A 1482   0.471   7.526   8.921  0.3346  0.0117  0.3480
   78POPC   D2A 1483   0.196   7.329   8.628 -0.2233  0.0541  0.2003
   78POPC   C3A 1484  -0.058   7.687   8.592 -0.2979  0.1594  0.3507
   78POPC   C4A 1485  -0.175   8.005   8.489  0.1118  0.1922  0.1932
   78POPC   C1B 1486   0.712   7.150   8.565 -0.1080 -0.0038  0.0782
   78POPC   C2B 1487   0.661   7.220   8.200 -0.3750 -0.0001 -0.0752
   78POPC   C3B 1488   0.670   6.899   7.927  0.0906  0.1412 -0.1254
   78POPC   C4B 1489   0.642   6.462   7.917  0.2255  0.3571 -0.3491
   79POPC   NC3 1490   3.641   4.171   9.116  0.2641 -0.0743  0.0898
   79POPC   PO4 1491   3.567   3.734   9.357 -0.2264  0.2107  0.6537
   79POPC   GL1 1492   3.437   3.671   8.889 -0.0943  0.1263 -0.1066
   79POPC   GL2 1493   3.220   3.622   8.795  0.0450  0.0433 -0.0219
   79POPC   C1A 1494   3.560   3.740   8.406  0.0173 -0.1680  0.0386
   79POPC   D2A 1495   3.562   3.649   7.994 -0.1748 -0.1019 -0.1019
   79POPC   C3A 1496   3.551   3.946   7.680 -0.0159 -0.2831  0.1090
   79POPC   C4A 1497   3.458   3.999   7.294 -0.0199 -0.0763  0.1798
   79POPC   C1B 1498   3.203   3.343   8.319  0.0088  0.2087 -0.0835
   79POPC   C2B 1499   3.129   3.248   7.888 -0.1398 -0.1938 -0.0644
   79POPC   C3B 1500   3.379   3.417   7.546  0.0144 -0.1854  0.0252
   79POPC   C4B 1501   3.556   3.419   7.237  0.0894 -0.3817  0.1276
   80POPC   NC3 1502   2.004   0.784   9.308 -0.1249  0.2685  0.0578
   80POPC   PO4 1503   2.482   0.741   9.215  0.0613  0.0621  0.2468
   80POPC   GL1 1504   2.728   0.700   8.787 -0.2218 -0.0993 -0.2243
   80POPC   GL2 1505   2.451   0.437   8.627  0.2010 -0.1694 -0.0141
   80POPC   C1A 1506   2.850   0.721   8.348 -0.0791  0.2101 -0.0158
   80POPC   D2A 1507   2.975   0.774   7.995  0.1050  0.0219 -0.1210
   80POPC   C3A 1508   2.733   0.814   7.623 -0.2646  0.1149  0.0572
   80POPC   C4A 1509   2.544   1.039   7.401  0.1736 -0.1505 -0.1438
   80POPC   C1B 1510   2.410   0.616   8.172 -0.2113 -0.1879 -0.0299
   80POPC   C2B 1511   2.249   0.608   7.784  0.2785  0.0352  0.6037
   80POPC   C3B 1512   2.301   0.366   7.338 -0.1771  0.0818 -0.0637
   80POPC   C4B 1513   2.104   0.503   6.920  0.2455 -0.4035  0.0056
   81POPC   NC3 1514   2.410   8.787  10.024  0.1014  0.4784 -0.1745
   81POPC   PO4 1515   2.092   8.994   9.748  0.0212 -0.2799  0.0587
   81POPC   GL1 1516   1.954   8.844   9.346  0.1744  0.2500  0.0612
   81POPC   GL2 1517   1.657   8.763   9.357 -0.0333 -0.1664  0.5392
   81POPC   C1A 1518   1.894   8.885   8.905 -0.2807  0.1933 -0.0004
   81POPC   D2A 1519   2.029   9.286   8.650  0.2276  0.0805  0.1273
   81POPC   C3A 1520   2.339   9.168   8.236  0.1418 -0.1268 -0.0627
   81POPC   C4A 1521   2.373   9.065   7.816  0.1645 -0.1272 -0.1873
   81POPC   C1B 1522   1.336   8.530   9.120  0.0894  0.2514  0.4853
   81POPC   C2B 1523   1.535   8.443   8.717 -0.0165  0.1739  0.0870
   81POPC   C3B 1524   1.343   8.624   8.272  0.2319 -0.4102  0.1505
   81POPC   C4B 1525   1.331   9.034   8.047 -0.2586  0.3164  0.2145
   82POPC   NC3 1526   0.849   3.563   9.288 -0.4122 -0.2763 -0.0658
   82POPC   PO4 1527   0.621   3.171   9.342 -0.0606  0.1224 -0.1827
   82POPC   GL1 1528   0.525   3.337   8.844 -0.3474 -0.0331 -0.4084
   82POPC   GL2 1529   0.831   3.713   8.730  0.1471  0.1370 -0.1794
   82POPC   C1A 1530   0.659   3.326   8.417 -0.0198 -0.1638  0.3561
   82POPC   D2A 1531   0.688   3.094   8.096  0.0240  0.0040  0.2388
   82POPC   C3A 1532   0.366   3.118   7.829  0.0214  0.2509 -0.2996
   82POPC   C4A 1533  -0.061   3.397   7.672 -0.0243 -0.0314  0.0464
   82POPC   C1B 1534   1.210   3.555   8.612  0.3261  0.1092 -0.1502
   82POPC   C2B 1535   1.396   3.305   8.248 -0.3753 -0.0179 -0.2323
   82POPC   C3B 1536   1.231   3.132   7.903 -0.1783 -0.0625 -0.1737
   82POPC   C4B 1537   1.610   3.089   7.687  0.0433  0.1936 -0.0182
   83POPC   NC3 1538   1.338   1.912   9.233 -0.1892  0.2445  0.2421
   83POPC   PO4 1539   1.258   1.504   9.066 -0.2360  0.1838  0.1433
   83POPC   GL1 1540   0.894   1.433   8.721  0.2002  0.0835 -0.2688
   83POPC   GL2 1541   0.794   1.256   8.368 -0.4475  0.1773  0.0187
   83POPC   C1A 1542   0.888   1.751   8.419  0.1415 -0.1800  0.2125
   83POPC   D2A 1543   0.859   1.898   8.008  0.1439 -0.0847  0.0167
   83POPC   C3A 1544   0.955   2.352   7.954 -0.0216 -0.0525 -0.0376
   83POPC   C4A 1545   0.963   2.631   8.193 -0.1152 -0.0133 -0.1820
   83POPC   C1B 1546   0.913   1.285   7.897  0.1757  0.1193  0.0384
   83POPC   C2B 1547   0.763   1.502   7.576 -0.1091 -0.3444  0.2090
   83POPC   C3B 1548   1.069   1.783   7.231 -0.2251  0.3459  0.2351
   83POPC   C4B 1549   1.335   2.190   7.108 -0.1040 -0.0001 -0.3516
   84POPC   NC3 1550   6.113   7.875   9.423 -0.0660 -0.0128  0.2669
   84POPC   PO4 1551   6.283   8.267   9.184  0.0417 -0.1270 -0.0719
   84POPC   GL1 1552   6.255   8.091   8.767  0.0827 -0.1386 -0.0512
   84POPC   GL2 1553   6.009   7.808   8.867  0.0754 -0.0484 -0.2816
   84POPC   C1A 1554   6.316   7.815   8.465 -0.0161  0.0264 -0.0338
   84POPC   D2A 1555   6.365   7.540   8.141  0.0214 -0.1837  0.1391
   84POPC   C3A 1556   6.418   7.831   7.821  0.0050  0.3385  0.1133
   84POPC   C4A 1557   6.383   8.248   7.555 -0.1612 -0.2013 -0.0306
   84POPC   C1B 1558   5.805   8.059   8.654  0.0608 -0.0157  0.0485
   84POPC   C2B 1559   5.559   8.112   8.236 -0.2010 -0.0160  0.0679
   84POPC   C3B 1560   5.342   7.814   7.953  0.0767  0.0435  0.0219
   84POPC   C4B 1561   5.122   7.484   7.940  0.0701 -0.0507  0.3789
   85POPC   NC3 1562   7.366   0.326   9.484 -0.1880  0.1159  0.1206
   85POPC   PO4 1563   7.098   0.052   9.280  0.0646 -0.0727 -0.1253
   85POPC   GL1 1564   7.120  -0.084   8.906  0.1319  0.4930 -0.0877
   85POPC   GL2 1565   7.407   0.040   8.902  0.0814  0.4014 -0.1567
   85POPC   C1A 1566   6.902  -0.073   8.428  0.2349 -0.4791  0.2618
   85POPC   D2A 1567   6.522  -0.146   8.277 -0.2187  0.2489 -0.1725
   85POPC   C3A 1568   6.512  -0.020   7.819  0.0234  0.1467 -0.0015
   85POPC   C4A 1569   6.489   0.356   7.492 -0.1562 -0.0474  0.0033
   85POPC   C1B 1570   7.722   0.098   8.660  0.1112  0.3492  0.2921
   85POPC   C2B 1571   7.898   0.138   8.187  0.1523  0.1747 -0.4395
   85POPC   C3B 1572   8.136   0.035   7.880 -0.2123  0.0193  0.0793
   85POPC   C4B 1573   8.433   0.274   7.736 -0.3344 -0.0822  0.1498
   86POPC   NC3 1574   4.952   4.665   8.846 -0.3373 -0.2813  0.0013
   86POPC   PO4 1575   4.626   5.014   8.899 -0.1144 -0.0291 -0.2906
   86POPC   GL1 1576   4.574   4.994   8.471  0.4702 -0.3215 -0.1769
   86POPC   GL2 1577   4.725   4.793   8.332 -0.3228 -0.3657  0.0025
   86POPC   C1A 1578   4.181   5.000   8.270 -0.2752 -0.0688  0.1761
   86POPC   D2A 1579   3.773   4.759   8.218  0.3246 -0.0244  0.0166
   86POPC   C3A 1580   3.274   4.604   8.266 -0.0099 -0.1294  0.1339
   86POPC   C4A 1581   2.888   4.528   8.015 -0.1958  0.4574  0.0566
   86POPC   C1B 1582   4.694   5.103   7.978  0.4955  0.0724 -0.0688
   86POPC   C2B 1583   4.626   5.203   7.552  0.0528 -0.2456 -0.0463
   86POPC   C3B 1584   4.655   5.252   7.126 -0.0579  0.0663  0.2945
   86POPC   C4B 1585   4.580   5.501   6.875 -0.3050  0.0606 -0.4574
   87POPC   NC3 1586   1.199   0.400   9.527 -0.2585  0.1428  0.2399
   87POPC   PO4 1587   1.573   0.592   9.414  0.0424 -0.1725 -0.0502
   87POPC   GL1 1588   1.546   0.718   9.021 -0.0320  0.0008 -0.2562
   87POPC   GL2 1589   1.833   0.389   8.942 -0.0692 -0.1409 -0.4343
   87POPC   C1A 1590   1.533   0.860   8.582  0.0647 -0.1559 -0.0964
   87POPC   D2A 1591   1.226   0.982   8.369 -0.1668 -0.2201  0.2135
   87POPC   C3A 1592   0.995   0.747   8.085 -0.0941 -0.1063  0.3417
   87POPC   C4A 1593   0.790   0.483   7.744 -0.1336 -0.0319 -0.2547
   87POPC   C1B 1594   1.810   0.383   8.562 -0.0420 -0.0369 -0.3969
   87POPC   C2B 1595   1.946   0.350   8.229  0.0381  0.2004  0.1144
   87POPC   C3B 1596   1.849   0.282   7.732  0.1614  0.2224 -0.0142
   87POPC   C4B 1597   1.784   0.375   7.281 -0.2509  0.1537  0.0556
   88POPC   NC3 1598   1.791   3.146   9.096  0.0453  0.2411  0.3637
   88POPC   PO4 1599   1.401   3.312   9.172  0.0727 -0.4909 -0.0111
   88POPC   GL1 1600   1.501   3.107   8.713  0.0011  0.0275 -0.0802
   88POPC   GL2 1601   1.504   2.738   8.626  0.2298 -0.1716 -0.0572
   88POPC   C1A 1602   1.036   3.051   8.504 -0.2227  0.0094  0.0085
   88POPC   D2A 1603   0.631   2.770   8.495 -0.0343 -0.0981 -0.2015
   88POPC   C3A 1604   0.273   2.922   8.416  0.0782  0.1660 -0.0912
   88POPC   C4A 1605   0.038   3.329   8.176  0.2009 -0.2446 -0.0603
   88POPC   C1B 1606   1.493   2.679   8.268 -0.0729 -0.1705 -0.0896
   88POPC   C2B 1607   1.303   2.670   7.787  0.1566 -0.1723 -0.1296
   88POPC   C3B 1608   0.736   2.795   7.617  0.2105 -0.0619 -0.1171
   88POPC   C4B 1609   0.637   3.048   7.311  0.3718 -0.1266  0.1055
   89POPC   NC3 1610   8.471   3.214   9.459  0.1101 -0.2547 -0.0803
   89POPC   PO4 1611   8.458   3.283   9.068 -0.4391 -0.2614 -0.1001
   89POPC   GL1 1612   8.807   3.353   8.675  0.2089  0.1253 -0.2906
   89POPC   GL2 1613   9.184   3.277   8.827 -0.4501  0.2194  0.3847
   89POPC   C1A 1614   9.100   3.455   8.342  0.1824 -0.3106 -0.2271
   89POPC   D2A 1615   9.351   3.477   8.169  0.2780  0.1319 -0.0854
   89POPC   C3A 1616   9.568   3.306   7.829 -0.3551 -0.3002  0.1472
   89POPC   C4A 1617   9.614   3.535   7.443  0.0443 -0.2929  0.1508
   89POPC   C1B 1618   9.142   2.896   8.541  0.0454 -0.1318 -0.0108
   89POPC   C2B 1619   8.970   2.647   8.181 -0.0350  0.1910 -0.1318
   89POPC   C3B 1620   8.509   2.583   7.966 -0.2730  0.3265 -0.2700
   89POPC   C4B 1621   8.252   2.442   7.616  0.0306  0.1680 -0.0987
   90POPC   NC3 1622   8.114   6.629   9.948 -0.0438 -0.0943  0.1909
   90POPC   PO4 1623   7.928   6.483   9.611 -0.3847 -0.0366 -0.1785
   90POPC   GL1 1624   7.756   6.596   9.315 -0.3355  0.0634  0.0064
   90POPC   GL2 1625   7.583   6.316   9.208 -0.1020 -0.2046  0.0935
   90POPC   C1A 1626   7.761   6.939   9.001 -0.3201 -0.0729  0.0772
   90POPC   D2A 1627   7.568   7.174   8.553 -0.0366 -0.0635 -0.1821
   90POPC   C3A 1628   7.821   7.527   8.338  0.0015  0.5655 -0.0847
   90POPC   C4A 1629   8.082   7.812   8.253 -0.2150  0.1491 -0.1002
   90POPC   C1B 1630   7.732   6.505   8.769 -0.2512 -0.0033 -0.3122
   90POPC   C2B 1631   7.766   6.352   8.338 -0.2420  0.1989  0.1300
   90POPC   C3B 1632   7.805   6.407   7.915 -0.2668 -0.3551 -0.1842
   90POPC   C4B 1633   8.090   6.408   7.625 -0.1981 -0.0525  0.0152
   91POPC   NC3 1634   5.878   3.729   9.275 -0.1512  0.2319  0.0247
   91POPC   PO4 1635   5.851   3.369   8.989  0.0693  0.2847 -0.2636
   91POPC   GL1 1636   5.603   3.312   8.623 -0.1616  0.1223 -0.0273
   91POPC   GL2 1637   5.822   3.264   8.396 -0.0281  0.1007 -0.0095
   91POPC   C1A 1638   5.318   3.207   8.308  0.2842  0.0058 -0.3861
   91POPC   D2A 1639   4.935   3.416   8.119  0.0048 -0.1787 -0.2273
   91POPC   C3A 1640   4.966   3.478   7.652 -0.0203 -0.1789 -0.0207
   91POPC   C4A 1641   4.789   3.532   7.112 -0.0481 -0.2575  0.0035
   91POPC   C1B 1642   5.808   3.141   8.037 -0.1030 -0.0390  0.0675
   91POPC   C2B 1643   5.770   3.252   7.633 -0.1863  0.0436 -0.3043
   91POPC   C3B 1644   5.878   3.301   7.204  0.4298 -0.0229 -0.0408
   91POPC   C4B 1645   5.927   2.979   6.919  0.1268  0.0925  0.1449
   92POPC   NC3 1646   5.144   4.099   8.813 -0.2415 -0.0369  0.1831
   92POPC   PO4 1647   5.514   4.276   8.789 -0.0842  0.0213  0.2377
   92POPC   GL1 1648   5.472   4.093   8.412  0.0234  0.1340 -0.2292
   92POPC   GL2 1649   5.298   3.752   8.394 -0.0163 -0.2503  0.0694
   92POPC   C1A 1650   5.537   4.320   8.078 -0.1154  0.2377 -0.0500
   92POPC   D2A 1651   5.311   4.407   7.756 -0.1230  0.3163  0.0919
   92POPC   C3A 1652   4.880   4.220   7.868 -0.3341  0.0895  0.1209
   92POPC   C4A 1653   4.627   4.178   7.518 -0.0881 -0.0738  0.0910
   92POPC   C1B 1654   5.270   3.941   7.952 -0.0765  0.1130 -0.1025
   92POPC   C2B 1655   5.101   3.949   7.470  0.1728  0.0266  0.0825
   92POPC   C3B 1656   5.289   3.988   7.090 -0.1550  0.1640  0.1320
   92POPC   C4B 1657   5.233   3.889   6.717 -0.1964 -0.1660 -0.0495
   93POPC   NC3 1658   8.386   7.423   9.663  0.1928  0.0474 -0.2810
   93POPC   PO4 1659   8.227   7.121   9.896  0.2844  0.3907 -0.1510
   93POPC   GL1 1660   8.467   6.989   9.429  0.0279  0.0434  0.2776
   93POPC   GL2 1661   8.132   6.894   9.372  0.1243 -0.2553 -0.0890
   93POPC   C1A 1662   8.835   7.008   9.279  0.0051 -0.3054  0.0022
   93POPC   D2A 1663   9.141   7.283   9.187 -0.1990  0.0048 -0.0523
   93POPC   C3A 1664   8.848   7.588   9.228  0.0538 -0.1329  0.1082
   93POPC   C4A 1665   8.745   8.117   9.177 -0.2809 -0.1594 -0.0408
   93POPC   C1B 1666   8.236   6.805   8.936 -0.0721  0.5735  0.2441
   93POPC   C2B 1667   8.190   6.719   8.487  0.1177  0.3291  0.1217
   93POPC   C3B 1668   8.280   6.551   8.153 -0.0521  0.0361 -0.1611
   93POPC   C4B 1669   8.599   6.513   7.770  0.2485  0.1412 -0.2187
   94POPC   NC3 1670   8.144   0.325   9.292  0.0022  0.1940 -0.1030
   94POPC   PO4 1671   7.820   0.551   9.423  0.1077  0.4823  0.0576
   94POPC   GL1 1672   7.627   0.541   9.076  0.1421 -0.0432  0.1777
   94POPC   GL2 1673   7.294   0.493   8.961  0.2468  0.0655  0.0881
   94POPC   C1A 1674   7.770   0.761   8.642  0.0157 -0.1188  0.0049
   94POPC   D2A 1675   7.767   0.670   8.242  0.0055 -0.1845  0.1290
   94POPC   C3A 1676   7.769   0.419   7.805 -0.2410  0.0136 -0.0347
   94POPC   C4A 1677   7.989   0.305   7.466 -0.0785  0.1366  0.0656
   94POPC   C1B 1678   7.332   0.490   8.574  0.1793  0.3013 -0.0881
   94POPC   C2B 1679   7.390   0.131   8.255  0.2123  0.0134 -0.0957
   94POPC   C3B 1680   7.320   0.346   7.822 -0.2579 -0.0467 -0.0659
   94POPC   C4B 1681   7.021   0.422   7.461 -0.1794  0.1726  0.1163
   95POPC   NC3 1682   7.157   1.264   9.207 -0.0425 -0.0208  0.0568
   95POPC   PO4 1683   7.532   1.300   9.169 -0.5476  0.5682  0.0069
   95POPC   GL1 1684   7.376   1.012   8.848 -0.1687  0.3434 -0.0860
   95POPC   GL2 1685   7.058   0.987   8.798 -0.0950  0.1765 -0.0841
   95POPC   C1A 1686   7.373   0.967   8.373  0.0944  0.0222 -0.1445
   95POPC   D2A 1687   7.295   0.848   7.946  0.1205  0.3670 -0.1360
   95POPC   C3A 1688   7.187   1.037   7.591  0.0108  0.5054  0.1138
   95POPC   C4A 1689   7.022   1.201   7.231 -0.0785  0.1531 -0.0326
   95POPC   C1B 1690   6.848   0.979   8.322 -0.1837 -0.1401  0.0517
   95POPC   C2B 1691   6.837   0.758   7.867 -0.4089  0.2230  0.3452
   95POPC   C3B 1692   6.642   0.977   7.520 -0.3331  0.2919 -0.0337
   95POPC   C4B 1693   6.291   0.824   7.475  0.1107 -0.3137  0.1966
   96POPC   NC3 1694   7.131   8.020   9.558 -0.2266 -0.1705 -0.2977
   96POPC   PO4 1695   6.606   7.924   9.515  0.1072 -0.0008  0.1311
   96POPC   GL1 1696   6.808   7.992   9.089  0.1649  0.2736 -0.2535
   96POPC   GL2 1697   7.241   7.962   9.071  0.1848  0.2103  0.0316
   96POPC   C1A 1698   6.710   8.212   8.706 -0.1744  0.2060  0.0808
   96POPC   D2A 1699   6.657   8.208   8.291  0.0204  0.1472 -0.2522
   96POPC   C3A 1700   6.831   8.294   7.915 -0.0523  0.0410 -0.0842
   96POPC   C4A 1701   7.308   8.382   7.870  0.3751 -0.1785 -0.2300
   96POPC   C1B 1702   7.070   8.452   8.995  0.1783  0.0200 -0.0536
   96POPC   C2B 1703   7.283   8.856   8.902 -0.0569  0.3572  0.0236
   96POPC   C3B 1704   7.626   8.902   8.575  0.0326 -0.1027  0.1374
   96POPC   C4B 1705   7.830   8.993   8.206 -0.0947  0.2632  0.0482
   97POPC   NC3 1706   2.649   0.221   9.108 -0.4956 -0.4693  0.0792
   97POPC   PO4 1707   2.322   0.059   8.920 -0.1994  0.2913 -0.0973
   97POPC   GL1 1708   2.701   0.006   8.633 -0.0151  0.1473  0.0909
   97POPC   GL2 1709   2.511  -0.004   8.383 -0.0420 -0.2527 -0.1613
   97POPC   C1A 1710   3.003  -0.236   8.527 -0.0462 -0.0126 -0.0513
   97POPC   D2A 1711   3.221  -0.534   8.405 -0.0073  0.0625 -0.0329
   97POPC   C3A 1712   3.373  -0.517   8.012  0.0162 -0.1379  0.0298
   97POPC   C4A 1713   3.734  -0.189   7.955  0.2761 -0.2060  0.1909
   97POPC   C1B 1714   2.689   0.240   8.032  0.1411 -0.1595 -0.1649
   97POPC   C2B 1715   2.997   0.371   7.703 -0.0512 -0.1110  0.0050
   97POPC   C3B 1716   3.256   0.497   7.385  0.1102 -0.2826  0.2378
   97POPC   C4B 1717   3.486   0.332   7.016  0.2713 -0.2920 -0.3245
   98POPC   NC3 1718   1.045   8.736   9.791  0.0683  0.1034 -0.0876
   98POPC   PO4 1719   0.956   8.276   9.942 -0.2217 -0.2419 -0.1251
   98POPC   GL1 1720   0.768   8.381   9.618 -0.1313  0.0786  0.1934
   98POPC   GL2 1721   0.517   8.619   9.735 -0.0601  0.0118  0.2821
   98POPC   C1A 1722   0.513   8.382   9.222  0.0126 -0.1202 -0.1423
   98POPC   D2A 1723   0.428   8.506   8.861 -0.1688 -0.0474  0.1120
   98POPC   C3A 1724   0.601   8.790   8.537 -0.3235  0.2622 -0.3007
   98POPC   C4A 1725   0.879   8.816   8.135  0.0928 -0.1103 -0.2270
   98POPC   C1B 1726   0.415   8.965   9.545 -0.0075 -0.2006  0.0797
   98POPC   C2B 1727   0.432   8.949   9.144 -0.0060  0.2609  0.1216
   98POPC   C3B 1728   0.532   9.218   8.799  0.3419 -0.1647  0.2983
   98POPC   C4B 1729   0.365   9.589   8.584 -0.0344  0.0297  0.0654
   99POPC   NC3 1730   3.779   6.909   9.820  0.2201  0.1462 -0.1019
   99POPC   PO4 1731   3.854   7.069   9.325 -0.1022  0.1534 -0.1229
   99POPC   GL1 1732   3.947   7.238   8.938 -0.0971 -0.5187  0.0050
   99POPC   GL2 1733   3.708   7.430   9.017  0.0659  0.0756  0.3101
   99POPC   C1A 1734   3.754   7.124   8.623 -0.4357  0.0718  0.0691
   99POPC   D2A 1735   3.626   7.071   8.129  0.0031 -0.0757 -0.2957
   99POPC   C3A 1736   3.517   7.351   7.805  0.0652  0.0773 -0.5040
   99POPC   C4A 1737   3.239   7.343   7.473  0.1665 -0.1792  0.0586
   99POPC   C1B 1738   3.708   7.688   8.569  0.4505 -0.0841  0.0458
   99POPC   C2B 1739   3.434   7.766   8.234 -0.2853 -0.0805 -0.0142
   99POPC   C3B 1740   3.255   7.846   7.771 -0.2678 -0.0505 -0.2158
   99POPC   C4B 1741   3.183   7.994   7.372 -0.2999  0.2046  0.2244
  100POPC   NC3 1742   2.345   2.911   9.176  0.5653 -0.1679 -0.0717
  100POPC   PO4 1743   2.626   3.292   9.186 -0.0246  0.1079 -0.1070
  100POPC   GL1 1744   2.772   3.502   8.874 -0.2359 -0.1620 -0.0606
  100POPC   GL2 1745   2.782   3.333   8.646 -0.1222 -0.0242 -0.4146
  100POPC   C1A 1746   2.663   3.870   8.559  0.2044 -0.0280  0.1440
  100POPC   D2A 1747   2.503   4.200   8.198 -0.1668  0.0528  0.1738
  100POPC   C3A 1748   2.505   4.095   7.796 -0.0659  0.0782 -0.1264
  100POPC   C4A 1749   2.581   4.281   7.428 -0.0193 -0.0032  0.1263
  100POPC   C1B 1750   2.697   3.512   8.179  0.0450 -0.1319 -0.2387
  100POPC   C2B 1751   2.362   3.558   7.878 -0.3504 -0.0127  0.0241
  100POPC   C3B 1752   2.179   3.051   7.776 -0.2174  0.1062  0.3984
  100POPC   C4B 1753   2.363   2.618   7.761 -0.1416 -0.0569  0.1441
  101POPC   NC3 1754   3.300   0.444   9.661 -0.0024  0.1221 -0.1365
  101POPC   PO4 1755   3.513   0.301   9.428  0.2051 -0.1444 -0.1504
  101POPC   GL1 1756   3.403   0.224   9.011 -0.0678 -0.0718  0.1301
  101POPC   GL2 1757   3.129   0.111   8.956  0.1520 -0.1327  0.0162
  101POPC   C1A 1758   3.470  -0.034   8.595  0.0699  0.0429  0.1061
  101POPC   D2A 1759   3.836  -0.270   8.425 -0.0295 -0.2453  0.1957
  101POPC   C3A 1760   4.057  -0.003   8.218 -0.1817  0.2614  0.3201
  101POPC   C4A 1761   4.275   0.341   8.049 -0.1283 -0.0668 -0.4575
  101POPC   C1B 1762   3.043   0.338   8.582 -0.4176  0.0814 -0.0268
  101POPC   C2B 1763   3.205   0.374   8.162 -0.1279 -0.1655  0.2984
  101POPC   C3B 1764   3.157  -0.036   7.937  0.0107  0.1383 -0.1586
  101POPC   C4B 1765   2.779  -0.289   8.026 -0.0853 -0.0207 -0.1368
  102POPC   NC3 1766   5.370   4.602   9.171 -0.0746 -0.4829 -0.3813
  102POPC   PO4 1767   5.472   4.834   8.740 -0.3893 -0.0533 -0.2885
  102POPC   GL1 1768   5.244   4.622   8.446 -0.0543  0.4649  0.0247
  102POPC   GL2 1769   4.997   4.349   8.407  0.0925 -0.0963 -0.0221
  102POPC   C1A 1770   5.071   4.651   8.025  0.3192  0.1271  0.0797
  102POPC   D2A 1771   4.948   4.803   7.617  0.0911  0.2126  0.0459
  102POPC   C3A 1772   4.931   4.504   7.380  0.0618 -0.0956  0.0864
  102POPC   C4A 1773   5.261   4.455   7.259 -0.1097 -0.0064  0.3156
  102POPC   C1B 1774   4.624   4.304   8.263 -0.2006 -0.1833 -0.2405
  102POPC   C2B 1775   4.365   4.126   7.985 -0.0925  0.1343 -0.1782
  102POPC   C3B 1776   4.159   4.126   7.618 -0.1228  0.0616 -0.2225
  102POPC   C4B 1777   4.325   4.080   7.118  0.0578  0.2956  0.0345
  103POPC   NC3 1778   4.612   7.850  10.119  0.2667 -0.2115 -0.2591
  103POPC   PO4 1779   4.537   7.676   9.684  0.2689 -0.2332 -0.0887
  103POPC   GL1 1780   4.468   7.501   9.257 -0.1148  0.0641  0.1404
  103POPC   GL2 1781   4.524   7.675   8.994 -0.0298  0.0756 -0.1466
  103POPC   C1A 1782   4.449   7.180   8.870 -0.1042 -0.0945  0.0098
  103POPC   D2A 1783   4.234   6.971   8.559  0.2038  0.1297 -0.0570
  103POPC   C3A 1784   4.134   7.171   8.204 -0.0972  0.1033 -0.1988
  103POPC   C4A 1785   3.867   7.457   8.193 -0.0742  0.3053 -0.0498
  103POPC   C1B 1786   4.732   7.722   8.630  0.2937  0.2642 -0.0459
  103POPC   C2B 1787   4.864   7.437   8.337 -0.1005 -0.1055  0.0532
  103POPC   C3B 1788   4.666   7.306   7.873  0.1600  0.2580 -0.4626
  103POPC   C4B 1789   4.499   7.372   7.520  0.0717  0.0726 -0.2838
  104POPC   NC3 1790   8.725   9.328  10.039  0.1630  0.4519  0.0566
  104POPC   PO4 1791   8.509   9.382   9.623  0.1686  0.0192 -0.2307
  104POPC   GL1 1792   8.516   9.633   9.334  0.1256 -0.2001  0.2360
  104POPC   GL2 1793   8.737   9.872   9.355 -0.0381 -0.0949  0.2646
  104POPC   C1A 1794   8.725   9.528   8.937  0.1414 -0.1421  0.0466
  104POPC   D2A 1795   8.941   9.491   8.579  0.0860  0.0027  0.0737
  104POPC   C3A 1796   8.930   8.959   8.514 -0.1885 -0.0967  0.0596
  104POPC   C4A 1797   8.622   8.708   8.223 -0.1155  0.3774  0.0457
  104POPC   C1B 1798   8.764   9.980   8.857 -0.0889  0.0097 -0.0597
  104POPC   C2B 1799   8.651  10.320   8.608  0.0922  0.2800 -0.1489
  104POPC   C3B 1800   8.720  10.683   8.726  0.0083  0.1781 -0.1814
  104POPC   C4B 1801   8.660  11.078   8.639  0.1785  0.0944  0.0439
  105POPC   NC3 1802   7.613   8.938   9.578 -0.4102 -0.0565  0.2718
  105POPC   PO4 1803   7.560   8.552   9.685  0.0683  0.1087  0.1214
  105POPC   GL1 1804   7.524   8.366   9.318  0.0254 -0.3289  0.0207
  105POPC   GL2 1805   7.666   8.666   9.154  0.0722 -0.2673 -0.0341
  105POPC   C1A 1806   7.903   8.238   9.082  0.1578  0.0625 -0.2227
  105POPC   D2A 1807   7.921   8.101   8.592 -0.1105  0.2140 -0.0329
  105POPC   C3A 1808   7.521   7.767   8.654  0.1613  0.1172  0.1444
  105POPC   C4A 1809   7.219   7.504   8.786 -0.1467 -0.0669 -0.0588
  105POPC   C1B 1810   7.498   8.368   8.743  0.4168  0.0733  0.3435
  105POPC   C2B 1811   7.637   8.496   8.259  0.2250 -0.0237 -0.0394
  105POPC   C3B 1812   7.852   8.543   7.915 -0.2239  0.2834  0.0404
  105POPC   C4B 1813   8.081   8.150   7.704 -0.2606 -0.1578 -0.1980
  106POPC   NC3 1814   6.113   9.931   9.389  0.1855  0.1809 -0.1004
  106POPC   PO4 1815   6.062  10.346   9.449  0.3323 -0.1857 -0.0110
  106POPC   GL1 1816   6.229  10.275   9.022  0.1491 -0.1565 -0.3403
  106POPC   GL2 1817   6.064  10.032   8.739  0.2310 -0.0416  0.0152
  106POPC   C1A 1818   6.386  10.357   8.596 -0.0734 -0.0972 -0.1141
  106POPC   D2A 1819   6.420  10.557   8.130 -0.0280  0.0586 -0.2092
  106POPC   C3A 1820   6.870  10.410   7.984 -0.1886  0.1145 -0.2912
  106POPC   C4A 1821   7.091   9.967   8.026 -0.0243 -0.1900 -0.0695
  106POPC   C1B 1822   5.989  10.054   8.290  0.3585  0.0289 -0.2335
  106POPC   C2B 1823   6.009  10.111   7.845 -0.1961  0.0593 -0.5096
  106POPC   C3B 1824   6.185   9.868   7.513  0.2024 -0.0711 -0.2698
  106POPC   C4B 1825   6.372   9.552   7.361 -0.4425  0.1648  0.0663
  107POPC   NC3 1826   1.983   7.138  10.129 -0.1744 -0.0876 -0.0505
  107POPC   PO4 1827   1.705   7.207   9.774  0.0609  0.1042  0.1532
  107POPC   GL1 1828   1.709   7.433   9.374  0.1805 -0.0601  0.1158
  107POPC   GL2 1829   1.924   7.593   9.229  0.0952  0.0511 -0.1823
  107POPC   C1A 1830   1.343   7.679   9.114  0.2397 -0.0772 -0.1028
  107POPC   D2A 1831   1.264   8.009   9.004 -0.0844 -0.1277  0.0056
  107POPC   C3A 1832   1.167   8.035   8.531 -0.2067 -0.4979  0.2156
  107POPC   C4A 1833   1.283   7.970   8.108  0.0347  0.1257  0.1734
  107POPC   C1B 1834   1.772   7.536   8.824 -0.0811  0.1878  0.0077
  107POPC   C2B 1835   1.894   7.323   8.493  0.4665 -0.2464  0.0995
  107POPC   C3B 1836   1.974   7.173   8.232 -0.3272  0.0735  0.0378
  107POPC   C4B 1837   1.993   6.849   7.939  0.2966  0.2124  0.1965
  108POPC   NC3 1838   3.640   7.910   9.364 -0.3489 -0.0957  0.1494
  108POPC   PO4 1839   3.290   7.582   9.310  0.1036 -0.2300  0.2371
  108POPC   GL1 1840   3.250   7.640   8.871 -0.2596 -0.1212  0.2646
  108POPC   GL2 1841   3.086   7.407   8.799  0.0711 -0.0500  0.1294
  108POPC   C1A 1842   3.035   7.878   8.556  0.3363 -0.0303  0.0576
  108POPC   D2A 1843   2.973   8.123   8.163 -0.1108  0.1054  0.0289
  108POPC   C3A 1844   2.694   8.148   8.122  0.2801 -0.0045 -0.1479
  108POPC   C4A 1845   2.180   8.168   8.249  0.1556  0.1904 -0.1529
  108POPC   C1B 1846   3.282   7.294   8.407  0.1321  0.0940  0.1092
  108POPC   C2B 1847   3.183   7.033   7.998 -0.0257 -0.0882 -0.0755
  108POPC   C3B 1848   2.843   7.096   7.730 -0.1562  0.3558  0.3632
  108POPC   C4B 1849   2.781   7.468   7.330  0.0069  0.2852 -0.4087
  109POPC   NC3 1850   5.516   9.182   9.687  0.1126  0.0920  0.1193
  109POPC   PO4 1851   5.166   9.130   9.383  0.1775 -0.2438  0.0396
  109POPC   GL1 1852   4.989   8.914   9.039  0.2299  0.0153  0.0535
  109POPC   GL2 1853   5.061   8.673   8.872  0.1602 -0.1544  0.1221
  109POPC   C1A 1854   4.787   9.048   8.665 -0.0521  0.1715 -0.2015
  109POPC   D2A 1855   4.615   9.093   8.231 -0.0559  0.1071  0.0661
  109POPC   C3A 1856   4.243   9.097   8.139  0.0941 -0.0983  0.1554
  109POPC   C4A 1857   3.851   8.974   7.857 -0.2004 -0.3887  0.0093
  109POPC   C1B 1858   5.205   8.837   8.501 -0.2944 -0.1363  0.0462
  109POPC   C2B 1859   5.147   8.989   8.030 -0.3673 -0.1722  0.2815
  109POPC   C3B 1860   5.153   9.102   7.583 -0.1709  0.1887  0.1711
  109POPC   C4B 1861   5.237   9.221   7.175 -0.0612 -0.0373  0.0385
  110POPC   NC3 1862   9.640   4.674   9.445 -0.0599  0.0176 -0.0853
  110POPC   PO4 1863   9.263   4.964   9.313  0.0042 -0.2414  0.1166
  110POPC   GL1 1864   9.312   5.368   9.124 -0.3277  0.2444  0.0334
  110POPC   GL2 1865   9.044   5.244   9.000 -0.0532 -0.0701  0.0132
  110POPC   C1A 1866   9.529   5.681   8.847  0.0258 -0.1909  0.3211
  110POPC   D2A 1867   9.662   5.824   8.471 -0.0177 -0.1243  0.1295
  110POPC   C3A 1868   9.629   5.781   8.033  0.1568 -0.2433 -0.1031
  110POPC   C4A 1869   9.929   5.713   7.854  0.0717 -0.2348 -0.2694
  110POPC   C1B 1870   9.056   5.670   8.786 -0.0994 -0.0017  0.1831
  110POPC   C2B 1871   9.115   5.888   8.365  0.0844 -0.2230 -0.0750
  110POPC   C3B 1872   9.161   6.195   8.082 -0.0509  0.0166  0.1195
  110POPC   C4B 1873   9.040   6.363   7.668 -0.0396 -0.0603 -0.0576
  111POPC   NC3 1874   2.148   1.632   9.034  0.1756 -0.1615 -0.3644
  111POPC   PO4 1875   1.765   1.667   8.892 -0.1502  0.0893  0.1136
  111POPC   GL1 1876   1.902   1.328   8.597 -0.0290 -0.0106 -0.2938
  111POPC   GL2 1877   2.228   1.402   8.470 -0.1850  0.1069  0.0223
  111POPC   C1A 1878   1.790   1.361   8.178  0.2066  0.2723  0.0522
  111POPC   D2A 1879   1.509   1.124   7.900  0.0299 -0.2764 -0.1318
  111POPC   C3A 1880   1.812   0.792   7.594 -0.1880 -0.3772 -0.0978
  111POPC   C4A 1881   2.099   0.843   7.256  0.1373  0.1010 -0.0719
  111POPC   C1B 1882   2.457   1.599   8.110  0.3575 -0.2624  0.2601
  111POPC   C2B 1883   2.784   1.769   7.971  0.1676 -0.1575  0.0172
  111POPC   C3B 1884   3.022   2.078   7.927  0.1448  0.1647  0.0552
  111POPC   C4B 1885   3.282   2.271   7.631 -0.2353 -0.0176  0.1005
  112POPC   NC3 1886   2.657   2.104   8.822 -0.1276  0.1648  0.0440
  112POPC   PO4 1887   2.481   2.507   8.938 -0.1913  0.0045 -0.0581
  112POPC   GL1 1888   2.431   2.482   8.490 -0.1464  0.1218  0.2184
  112POPC   GL2 1889   2.089   2.483   8.547 -0.2112  0.1660  0.3839
  112POPC   C1A 1890   2.319   2.185   8.129  0.0124  0.0010 -0.0156
  112POPC   D2A 1891   2.376   2.032   7.769 -0.0417  0.1157  0.1927
  112POPC   C3A 1892   2.454   1.524   7.615 -0.0646  0.0927  0.1171
  112POPC   C4A 1893   2.830   1.345   7.588 -0.2645  0.1923 -0.1043
  112POPC   C1B 1894   1.846   2.150   8.308  0.1393  0.3541  0.0963
  112POPC   C2B 1895   1.994   1.822   8.019  0.0159  0.0981 -0.2457
  112POPC   C3B 1896   1.960   1.529   7.698  0.4229 -0.1180 -0.0862
  112POPC   C4B 1897   2.095   1.305   7.318  0.1045 -0.0879  0.0376
  113POPC   NC3 1898   2.248   4.458   9.250  0.0492  0.0671  0.2094
  113POPC   PO4 1899   2.630   4.484   9.119 -0.1556  0.3607  0.0597
  113POPC   GL1 1900   2.528   4.696   8.718  0.1944 -0.3857 -0.1331
  113POPC   GL2 1901   2.714   4.555   8.471  0.1135  0.1194 -0.2836
  113POPC   C1A 1902   2.183   4.586   8.312 -0.2040 -0.0605  0.0051
  113POPC   D2A 1903   1.808   4.540   8.085  0.0933  0.1302 -0.0437
  113POPC   C3A 1904   1.719   4.627   7.721 -0.0824 -0.3830 -0.2816
  113POPC   C4A 1905   1.863   4.658   7.287 -0.1178 -0.1537  0.0005
  113POPC   C1B 1906   3.000   4.175   8.367 -0.0279  0.1814  0.1461
  113POPC   C2B 1907   3.064   3.831   8.086  0.2031 -0.1609  0.2277
  113POPC   C3B 1908   2.953   3.876   7.675  0.2858  0.2447 -0.0334
  113POPC   C4B 1909   3.211   4.268   7.661  0.1391 -0.0038  0.0856
  114POPC   NC3 1910   7.313   9.768  10.009  0.1853  0.0552 -0.3424
  114POPC   PO4 1911   7.451   9.400   9.733 -0.1541 -0.2278  0.0976
  114POPC   GL1 1912   7.694   9.448   9.368  0.1368  0.2558  0.1330
  114POPC   GL2 1913   7.978   9.616   9.407 -0.4919  0.2439 -0.1499
  114POPC   C1A 1914   7.860   9.118   9.045  0.0356 -0.0275  0.2622
  114POPC   D2A 1915   7.967   8.676   8.795  0.0806 -0.0941  0.0615
  114POPC   C3A 1916   8.148   8.642   8.402 -0.3517 -0.0408 -0.1088
  114POPC   C4A 1917   8.300   8.280   8.210  0.2002  0.0394 -0.0939
  114POPC   C1B 1918   8.232   9.459   8.969  0.0363  0.2613 -0.0326
  114POPC   C2B 1919   8.402   9.599   8.572  0.1101  0.0983 -0.0304
  114POPC   C3B 1920   8.737   9.866   8.299  0.1081  0.1052  0.0226
  114POPC   C4B 1921   8.574  10.105   8.053 -0.0478  0.1677  0.1912
  115POPC   NC3 1922   0.252   7.185   9.847 -0.0211 -0.0442  0.1358
  115POPC   PO4 1923   0.537   6.717   9.783 -0.0108 -0.1856  0.0634
  115POPC   GL1 1924   0.421   6.775   9.428  0.0361  0.1759  0.0276
  115POPC   GL2 1925   0.504   6.530   9.136 -0.1610  0.2479 -0.2681
  115POPC   C1A 1926   0.005   6.722   9.361  0.0231 -0.3578  0.0648
  115POPC   D2A 1927  -0.190   6.871   9.018 -0.1799  0.0302 -0.0767
  115POPC   C3A 1928  -0.130   6.954   8.673  0.0377  0.0814 -0.1182
  115POPC   C4A 1929  -0.268   7.302   8.367 -0.2997  0.0258  0.0679
  115POPC   C1B 1930   0.724   6.516   8.765 -0.1442 -0.2258  0.4877
  115POPC   C2B 1931   0.918   6.611   8.333  0.0215 -0.2218  0.0137
  115POPC   C3B 1932   1.099   6.984   8.254  0.0968 -0.0186 -0.0622
  115POPC   C4B 1933   1.481   7.212   8.130 -0.0812 -0.1309  0.0180
  116POPC   NC3 1934   4.000   2.856   9.266  0.0019 -0.2782 -0.0683
  116POPC   PO4 1935   4.278   3.152   9.109  0.1173  0.0409  0.1423
  116POPC   GL1 1936   4.148   2.976   8.810 -0.2276 -0.3470  0.3216
  116POPC   GL2 1937   3.716   2.935   8.807  0.0384 -0.2238 -0.0060
  116POPC   C1A 1938   4.061   2.766   8.507  0.2954 -0.1353 -0.0202
  116POPC   D2A 1939   4.329   2.614   8.162  0.0107 -0.2145 -0.1701
  116POPC   C3A 1940   4.690   2.746   7.787 -0.1530 -0.0663 -0.0287
  116POPC   C4A 1941   4.921   2.891   7.357  0.2981 -0.1845 -0.0796
  116POPC   C1B 1942   3.645   3.145   8.481 -0.0290  0.0273  0.0921
  116POPC   C2B 1943   3.582   3.106   7.969  0.0401  0.0173 -0.2492
  116POPC   C3B 1944   3.820   3.271   7.691  0.2520 -0.0536 -0.0794
  116POPC   C4B 1945   4.117   3.277   7.484 -0.0869  0.0488  0.0124
  117POPC   NC3 1946   2.874   1.064   9.101  0.3624 -0.0419  0.0133
  117POPC   PO4 1947   3.046   1.479   8.890 -0.1144 -0.0735  0.1968
  117POPC   GL1 1948   3.312   1.461   8.535 -0.0305 -0.1593  0.1490
  117POPC   GL2 1949   3.213   1.652   8.211  0.1248  0.0175  0.0933
  117POPC   C1A 1950   3.639   1.397   8.276  0.0446  0.1643 -0.0856
  117POPC   D2A 1951   3.922   1.118   7.959  0.0495  0.1107 -0.2008
  117POPC   C3A 1952   3.902   0.724   8.149  0.1230  0.2724  0.1123
  117POPC   C4A 1953   4.037   0.527   8.523  0.0518 -0.1575  0.0448
  117POPC   C1B 1954   2.921   1.254   8.225  0.0898  0.1810  0.0615
  117POPC   C2B 1955   2.642   1.152   7.968  0.3311  0.3269  0.0909
  117POPC   C3B 1956   2.234   1.146   7.889  0.1925 -0.2227 -0.0623
  117POPC   C4B 1957   1.936   0.889   8.093  0.2569 -0.1713  0.0268
  118POPC   NC3 1958   5.295   0.120   9.144  0.0010 -0.0647 -0.2831
  118POPC   PO4 1959   5.652  -0.273   9.063 -0.2952  0.0457  0.0011
  118POPC   GL1 1960   5.523  -0.202   8.639  0.1202 -0.2420  0.0277
  118POPC   GL2 1961   5.337   0.056   8.558 -0.0024 -0.1238 -0.4023
  118POPC   C1A 1962   5.516  -0.339   8.174  0.1222  0.3740 -0.0983
  118POPC   D2A 1963   5.538  -0.255   7.738 -0.0346 -0.1480 -0.4628
  118POPC   C3A 1964   5.600   0.201   7.622  0.1377  0.1055 -0.2834
  118POPC   C4A 1965   5.562   0.401   7.061  0.3150 -0.1631 -0.4673
  118POPC   C1B 1966   5.074  -0.020   8.143 -0.1095  0.4860  0.2890
  118POPC   C2B 1967   5.125   0.051   7.793 -0.2139 -0.0341 -0.1047
  118POPC   C3B 1968   4.668   0.038   7.701 -0.0977  0.4642 -0.0631
  118POPC   C4B 1969   4.198  -0.073   7.659 -0.1850  0.1338 -0.0163
  119POPC   NC3 1970   3.467   1.235   8.981  0.1848  0.2542  0.1702
  119POPC   PO4 1971   3.862   1.441   8.927  0.0496  0.3240  0.0051
  119POPC   GL1 1972   4.046   1.540   8.502  0.2172  0.1382 -0.2363
  119POPC   GL2 1973   4.105   1.246   8.402 -0.1058 -0.2136 -0.0790
  119POPC   C1A 1974   4.086   1.619   8.021  0.1170  0.1123 -0.3213
  119POPC   D2A 1975   4.260   1.411   7.603  0.0025  0.2646  0.2038
  119POPC   C3A 1976   4.066   1.412   7.262 -0.1087  0.2132 -0.1484
  119POPC   C4A 1977   3.620   1.457   7.115 -0.3435  0.1642 -0.2009
  119POPC   C1B 1978   4.418   1.342   8.206 -0.1573  0.1382 -0.3495
  119POPC   C2B 1979   4.775   1.107   8.203 -0.1526 -0.3413 -0.0041
  119POPC   C3B 1980   4.985   0.790   8.392 -0.0955 -0.1260  0.0205
  119POPC   C4B 1981   5.044   0.424   8.602  0.0922 -0.1499  0.4350
  120POPC   NC3 1982   8.882   0.517   9.963  0.0070 -0.2498 -0.0150
  120POPC   PO4 1983   9.227   0.495   9.694  0.1899 -0.2625  0.1470
  120POPC   GL1 1984   9.388   0.472   9.348  0.1170  0.1217 -0.1825
  120POPC   GL2 1985   9.328   0.171   9.299  0.3161  0.3395  0.2508
  120POPC   C1A 1986   9.563   0.731   9.117 -0.0184 -0.3349  0.0060
  120POPC   D2A 1987   9.664   0.850   8.628 -0.1112  0.0410 -0.2232
  120POPC   C3A 1988   9.575   0.425   8.346 -0.0191 -0.0577 -0.0724
  120POPC   C4A 1989   9.558   0.448   7.848 -0.1290  0.1541  0.0403
  120POPC   C1B 1990   9.115   0.143   8.891 -0.0360 -0.1581 -0.1481
  120POPC   C2B 1991   9.202   0.049   8.519  0.1468  0.1841 -0.0424
  120POPC   C3B 1992   9.045   0.290   8.299 -0.3334  0.1243  0.0489
  120POPC   C4B 1993   8.966   0.279   7.850 -0.1873  0.0791 -0.1862
  121POPC   NC3 1994   5.989   0.740   9.477  0.1909 -0.5348 -0.1712
  121POPC   PO4 1995   6.296   1.090   9.472  0.1012  0.3732 -0.0397
  121POPC   GL1 1996   6.026   1.074   9.141  0.2251  0.1370 -0.1184
  121POPC   GL2 1997   5.850   1.354   9.104 -0.1902  0.1125  0.2595
  121POPC   C1A 1998   5.703   0.910   8.800 -0.1780 -0.3217  0.2471
  121POPC   D2A 1999   5.500   0.686   8.489  0.1349  0.0527  0.1267
  121POPC   C3A 2000   5.733   0.692   8.122  0.1181 -0.4150 -0.1081
  121POPC   C4A 2001   5.986   0.568   7.782  0.0506 -0.1549 -0.0717
  121POPC   C1B 2002   5.701   1.442   8.651 -0.1249 -0.0302  0.2299
  121POPC   C2B 2003   5.589   1.560   8.298  0.0234  0.0449  0.1078
  121POPC   C3B 2004   5.501   1.530   7.768  0.0750  0.0378 -0.1553
  121POPC   C4B 2005   5.551   1.359   7.371  0.1303  0.0843  0.0892
  122POPC   NC3 2006   1.387   6.868   9.516  0.0609 -0.0092  0.1126
  122POPC   PO4 2007   1.656   6.421   9.438 -0.2949  0.2736  0.3316
  122POPC   GL1 2008   1.729   6.571   9.066 -0.0126  0.0795 -0.1164
  122POPC   GL2 2009   2.075   6.684   8.979 -0.0482 -0.1486 -0.1350
  122POPC   C1A 2010   1.677   6.319   8.751  0.0258 -0.0350  0.4682
  122POPC   D2A 2011   1.783   5.950   8.639  0.1800  0.0369  0.0595
  122POPC   C3A 2012   2.188   5.896   8.392 -0.3029 -0.3796  0.2016
  122POPC   C4A 2013   2.621   5.847   8.154 -0.0253 -0.2566  0.1238
  122POPC   C1B 2014   1.804   6.843   8.535 -0.0808  0.0324  0.0729
  122POPC   C2B 2015   1.909   6.555   8.367 -0.0908 -0.2317  0.1804
  122POPC   C3B 2016   2.161   6.413   8.134  0.2135 -0.0190 -0.1308
  122POPC   C4B 2017   2.277   6.027   7.853  0.0400 -0.1504 -0.0372
  123POPC   NC3 2018   3.368   2.207   9.060  0.4028  0.1429  0.0878
  123POPC   PO4 2019   3.000   2.380   9.126  0.0246  0.1899  0.1348
  123POPC   GL1 2020   3.018   2.431   8.747 -0.1492  0.2390  0.1829
  123POPC   GL2 2021   2.982   2.359   8.469  0.0854 -0.3073  0.0048
  123POPC   C1A 2022   3.378   2.180   8.267  0.1144 -0.0139  0.5013
  123POPC   D2A 2023   3.620   2.407   8.006  0.0824 -0.2226  0.1319
  123POPC   C3A 2024   3.860   2.704   8.069  0.3100 -0.0929  0.1526
  123POPC   C4A 2025   4.149   2.814   7.730  0.2193 -0.2420 -0.0959
  123POPC   C1B 2026   2.821   2.531   8.132 -0.0893 -0.3491  0.0087
  123POPC   C2B 2027   2.828   2.440   7.591 -0.2430  0.0797  0.0678
  123POPC   C3B 2028   3.061   2.606   7.287  0.0254  0.2595  0.1631
  123POPC   C4B 2029   3.365   2.902   7.034 -0.0783  0.1678  0.3607
  124POPC   NC3 2030   0.916  10.065   9.454  0.0569 -0.2221 -0.3485
  124POPC   PO4 2031   1.369  10.127   9.423  0.1708  0.1855  0.0168
  124POPC   GL1 2032   1.266   9.975   8.965 -0.0590 -0.1470  0.0839
  124POPC   GL2 2033   0.964   9.863   9.000 -0.4426 -0.0958 -0.1254
  124POPC   C1A 2034   1.361  10.066   8.517  0.0693 -0.1110  0.0929
  124POPC   D2A 2035   1.265  10.227   8.092 -0.2456 -0.0624  0.0070
  124POPC   C3A 2036   1.566  10.040   7.731  0.1748 -0.2290 -0.0825
  124POPC   C4A 2037   1.810   9.736   7.830  0.1781 -0.1329  0.0591
  124POPC   C1B 2038   0.535   9.998   8.891  0.0112 -0.1411  0.0731
  124POPC   C2B 2039   0.232  10.166   8.584 -0.1480 -0.0293  0.1030
  124POPC   C3B 2040   0.324  10.352   8.183  0.2085 -0.0274 -0.0350
  124POPC   C4B 2041   0.311  10.607   7.801  0.0027  0.0940  0.0360
  125POPC   NC3 2042   0.423   1.110   9.546 -0.2399 -0.0478  0.1561
  125POPC   PO4 2043   0.332   1.427   9.426 -0.0126  0.1511  0.1043
  125POPC   GL1 2044   0.400   1.489   8.958 -0.1587 -0.1017 -0.0804
  125POPC   GL2 2045   0.583   1.805   8.836 -0.0667 -0.1413 -0.0176
  125POPC   C1A 2046   0.312   1.440   8.617 -0.2359  0.1169 -0.0173
  125POPC   D2A 2047   0.236   1.187   8.282  0.1094  0.0519  0.2426
  125POPC   C3A 2048   0.315   1.307   7.818 -0.2546  0.0749  0.3535
  125POPC   C4A 2049   0.228   1.618   7.531  0.1661 -0.0540  0.1227
  125POPC   C1B 2050   0.392   1.920   8.442 -0.2488 -0.0977  0.0290
  125POPC   C2B 2051   0.028   1.653   8.163  0.1422  0.0171 -0.0260
  125POPC   C3B 2052  -0.235   1.322   7.905 -0.2461  0.1747  0.2869
  125POPC   C4B 2053  -0.305   1.462   7.478 -0.1606  0.0446  0.0856
  126POPC   NC3 2054   0.790   5.473   9.074 -0.2239  0.0234 -0.2177
  126POPC   PO4 2055   1.079   5.721   9.107  0.0879  0.1955  0.5145
  126POPC   GL1 2056   1.209   5.693   8.676 -0.2161 -0.3165 -0.1659
  126POPC   GL2 2057   0.860   5.662   8.631  0.1412  0.0344 -0.0791
  126POPC   C1A 2058   1.421   5.601   8.302 -0.1261  0.0040  0.3703
  126POPC   D2A 2059   1.359   5.642   7.856 -0.1674  0.1383 -0.1676
  126POPC   C3A 2060   0.908   5.457   7.634 -0.1868 -0.3569 -0.0565
  126POPC   C4A 2061   0.657   5.608   7.186  0.0805  0.1516  0.1188
  126POPC   C1B 2062   0.347   5.715   8.456  0.0829  0.0086 -0.2963
  126POPC   C2B 2063   0.010   5.466   8.397  0.1125 -0.0078 -0.2008
  126POPC   C3B 2064  -0.157   5.105   8.483 -0.0935  0.4055  0.1821
  126POPC   C4B 2065  -0.085   4.614   8.492 -0.2133 -0.1242 -0.0938
  127POPC   NC3 2066   0.087  10.127  10.333  0.3226  0.0390  0.4083
  127POPC   PO4 2067   0.020   9.768   9.966  0.1734  0.1416  0.1851
  127POPC   GL1 2068  -0.041   9.591   9.537 -0.1864  0.3779 -0.1752
  127POPC   GL2 2069   0.192   9.421   9.577 -0.0830  0.4267  0.1675
  127POPC   C1A 2070  -0.324   9.760   9.257 -0.5043 -0.0190  0.0811
  127POPC   D2A 2071  -0.619   9.896   9.113 -0.2443 -0.0779 -0.0144
  127POPC   C3A 2072  -0.803   9.754   8.792  0.1546 -0.1279 -0.0584
  127POPC   C4A 2073  -0.889   9.774   8.368 -0.0522  0.1988  0.1647
  127POPC   C1B 2074  -0.079   9.154   9.344  0.3799  0.1303  0.0440
  127POPC   C2B 2075  -0.414   9.017   9.113  0.0815  0.3229  0.0102
  127POPC   C3B 2076  -0.796   8.796   9.092  0.0717  0.2846 -0.1895
  127POPC   C4B 2077  -0.922   8.675   9.510  0.0094  0.0436 -0.0844
  128POPC   NC3 2078   2.796   7.781   9.301 -0.0276 -0.1912  0.2912
  128POPC   PO4 2079   2.766   7.451   9.612  0.1558  0.0332  0.1307
  128POPC   GL1 2080   2.557   7.367   9.097 -0.2652 -0.2347 -0.1553
  128POPC   GL2 2081   2.660   7.097   8.897 -0.1191 -0.3225  0.0918
  128POPC   C1A 2082   2.081   7.224   8.996  0.2015 -0.2010  0.0119
  128POPC   D2A 2083   1.649   7.065   9.025 -0.1368 -0.1908  0.3214
  128POPC   C3A 2084   1.421   7.168   8.691  0.0170 -0.1102 -0.3061
  128POPC   C4A 2085   1.264   7.520   8.521  0.1996  0.0023 -0.0677
  128POPC   C1B 2086   2.799   7.005   8.524 -0.0103  0.1096  0.3541
  128POPC   C2B 2087   2.777   7.438   8.282  0.2004 -0.2753  0.4412
  128POPC   C3B 2088   2.811   7.608   7.846  0.0590 -0.0646 -0.6050
  128POPC   C4B 2089   2.449   7.697   7.634  0.0908  0.1589 -0.0800
  129POPC   NC3 2090   7.447   4.531   9.407 -0.0690 -0.1149  0.2295
  129POPC   PO4 2091   7.493   4.760   9.073  0.0686 -0.0053 -0.3378
  129POPC   GL1 2092   7.718   4.760   8.646 -0.1650 -0.2643  0.5150
  129POPC   GL2 2093   7.359   4.715   8.507  0.0057  0.1253  0.0033
  129POPC   C1A 2094   7.841   4.674   8.262 -0.1088 -0.1238 -0.0803
  129POPC   D2A 2095   7.663   4.737   7.908  0.0561 -0.1749  0.0711
  129POPC   C3A 2096   7.562   4.463   7.555 -0.0697 -0.2714  0.0021
  129POPC   C4A 2097   7.196   4.219   7.376 -0.0312 -0.0497  0.0179
  129POPC   C1B 2098   7.267   4.462   8.147  0.0058  0.3781 -0.1856
  129POPC   C2B 2099   7.091   4.616   7.769  0.0543 -0.0869  0.2068
  129POPC   C3B 2100   6.904   4.671   7.341 -0.2088  0.1351 -0.0402
  129POPC   C4B 2101   6.627   4.555   7.045 -0.0270  0.2166 -0.1733
  130POPC   NC3 2102   1.541   5.683   9.056  0.2779 -0.4599 -0.0700
  130POPC   PO4 2103   1.777   5.495   9.211  0.0307  0.0226 -0.1755
  130POPC   GL1 2104   1.755   5.437   8.716  0.1716 -0.4421  0.2124
  130POPC   GL2 2105   1.502   5.221   8.536  0.0973  0.0949  0.1013
  130POPC   C1A 2106   1.906   5.494   8.258 -0.0665  0.0351  0.0674
  130POPC   D2A 2107   1.728   5.324   7.980  0.0691  0.2610 -0.0747
  130POPC   C3A 2108   1.819   5.373   7.589  0.2771 -0.2275  0.2704
  130POPC   C4A 2109   2.052   5.225   7.239 -0.1645  0.0108 -0.3391
  130POPC   C1B 2110   1.527   4.918   8.129  0.1709 -0.0282  0.0443
  130POPC   C2B 2111   1.231   4.730   7.841 -0.1655 -0.1156 -0.1491
  130POPC   C3B 2112   0.923   4.853   7.573  0.1680  0.2199  0.0934
  130POPC   C4B 2113   0.862   5.131   7.168  0.3234  0.1500 -0.2741
  131POPC   NC3 2114   9.784   6.424  10.072 -0.1068 -0.0188  0.0242
  131POPC   PO4 2115   9.861   6.002   9.917 -0.2326  0.2764  0.0689
  131POPC   GL1 2116   9.734   6.174   9.504  0.4220 -0.2042 -0.2267
  131POPC   GL2 2117  10.024   6.290   9.450 -0.0028 -0.2534  0.1251
  131POPC   C1A 2118   9.610   6.538   9.284 -0.0341 -0.0241 -0.1096
  131POPC   D2A 2119   9.531   6.982   9.266 -0.2635  0.0819 -0.1416
  131POPC   C3A 2120   9.516   7.313   9.556 -0.0052 -0.1714 -0.0599
  131POPC   C4A 2121   9.302   7.716   9.476  0.1795 -0.4236 -0.0970
  131POPC   C1B 2122  10.219   6.349   9.049  0.1482  0.0030 -0.0645
  131POPC   C2B 2123  10.398   6.606   8.788 -0.1810  0.0711  0.1777
  131POPC   C3B 2124  10.522   6.788   8.481 -0.2037 -0.0967 -0.1842
  131POPC   C4B 2125  10.400   7.002   8.211  0.1627 -0.1665  0.1949
  132POPC   NC3 2126   6.870   2.155   9.164 -0.0901 -0.1568 -0.0433
  132POPC   PO4 2127   6.964   2.514   9.201  0.0304 -0.2526 -0.1860
  132POPC   GL1 2128   7.168   2.567   8.742  0.1816  0.1446 -0.2290
  132POPC   GL2 2129   7.172   2.894   8.656 -0.0243  0.0329  0.0838
  132POPC   C1A 2130   7.165   2.456   8.410  0.1682 -0.2451  0.0786
  132POPC   D2A 2131   6.836   2.394   8.087  0.1205 -0.0181 -0.0769
  132POPC   C3A 2132   6.787   2.102   7.678  0.1458 -0.1420  0.0941
  132POPC   C4A 2133   6.584   1.873   7.271  0.1241 -0.0973 -0.0102
  132POPC   C1B 2134   7.054   2.869   8.223  0.0608 -0.0012  0.0577
  132POPC   C2B 2135   7.245   2.687   7.788  0.0642  0.2471 -0.0185
  132POPC   C3B 2136   7.531   2.605   7.476 -0.1171 -0.2167  0.3788
  132POPC   C4B 2137   7.611   2.232   7.067 -0.4076 -0.1585  0.1434
  133POPC   NC3 2138   8.273   1.204   9.347 -0.3688 -0.0841  0.0572
  133POPC   PO4 2139   8.343   0.788   9.364  0.4239  0.2487 -0.2004
  133POPC   GL1 2140   8.329   0.690   8.936 -0.0657  0.1933  0.0186
  133POPC   GL2 2141   8.203   1.016   8.778  0.2350  0.0914 -0.2869
  133POPC   C1A 2142   8.179   0.425   8.553 -0.2533 -0.0430  0.4148
  133POPC   D2A 2143   8.378   0.363   8.218 -0.0009 -0.1881 -0.2712
  133POPC   C3A 2144   8.696   0.639   8.189 -0.0648  0.0660  0.2642
  133POPC   C4A 2145   8.876   1.058   7.952 -0.0399 -0.0181 -0.1609
  133POPC   C1B 2146   8.239   0.932   8.318 -0.0801 -0.4055  0.1348
  133POPC   C2B 2147   8.231   0.688   7.949  0.3028 -0.2935 -0.1652
  133POPC   C3B 2148   8.368   0.751   7.505  0.0381  0.1913 -0.2601
  133POPC   C4B 2149   8.505   1.156   7.400 -0.2172  0.0849 -0.0892
  134POPC   NC3 2150   5.869   4.601   8.910  0.1134 -0.0635 -0.1582
  134POPC   PO4 2151   5.824   4.305   9.228 -0.2418  0.3238 -0.1040
  134POPC   GL1 2152   5.990   4.108   8.791 -0.1876  0.5217  0.1524
  134POPC   GL2 2153   5.907   3.785   8.569  0.1612  0.1223 -0.0296
  134POPC   C1A 2154   5.998   4.253   8.367 -0.1117 -0.1940 -0.0444
  134POPC   D2A 2155   6.007   4.441   7.974  0.0177  0.2592  0.2297
  134POPC   C3A 2156   5.843   4.404   7.471 -0.1501 -0.0482 -0.1628
  134POPC   C4A 2157   5.655   4.367   6.989 -0.2641 -0.0781 -0.2288
  134POPC   C1B 2158   5.809   3.693   8.095 -0.0230  0.0383  0.2106
  134POPC   C2B 2159   6.129   3.584   7.913 -0.2956  0.0554  0.0412
  134POPC   C3B 2160   6.332   3.360   7.595  0.0362  0.0074  0.3622
  134POPC   C4B 2161   6.720   3.091   7.538  0.0365 -0.1588 -0.1533
  135POPC   NC3 2162   2.436   9.054   9.306  0.0420 -0.1316 -0.3557
  135POPC   PO4 2163   2.698   8.652   9.183  0.2189 -0.0778 -0.1537
  135POPC   GL1 2164   2.774   8.934   8.901  0.1994  0.0345 -0.0820
  135POPC   GL2 2165   2.471   9.032   8.833  0.2997 -0.1319  0.0612
  135POPC   C1A 2166   2.739   8.924   8.366 -0.5267  0.2024  0.1493
  135POPC   D2A 2167   2.907   8.802   8.002 -0.0381 -0.2744 -0.1445
  135POPC   C3A 2168   2.876   8.934   7.652 -0.1710 -0.1978  0.1887
  135POPC   C4A 2169   3.074   9.261   7.343  0.2156 -0.1409 -0.0749
  135POPC   C1B 2170   2.362   8.686   8.571 -0.1736 -0.2481  0.0114
  135POPC   C2B 2171   2.404   8.609   8.141 -0.2170 -0.0351 -0.1422
  135POPC   C3B 2172   2.482   8.479   7.720 -0.2635 -0.2010 -0.1738
  135POPC   C4B 2173   2.651   8.139   7.500  0.4376  0.4394 -0.0133
  136POPC   NC3 2174   4.741   7.953   9.342  0.1284 -0.0177  0.3728
  136POPC   PO4 2175   4.423   8.169   9.050  0.1510 -0.0097 -0.0409
  136POPC   GL1 2176   4.441   8.433   8.733 -0.0387  0.0691 -0.3345
  136POPC   GL2 2177   4.351   8.244   8.496 -0.5230 -0.1824 -0.1587
  136POPC   C1A 2178   4.458   8.705   8.422 -0.0559  0.0071 -0.0365
  136POPC   D2A 2179   4.340   8.636   8.011  0.1132 -0.4066  0.0181
  136POPC   C3A 2180   4.525   8.319   7.567 -0.3390  0.1588 -0.2426
  136POPC   C4A 2181   4.805   8.111   7.262 -0.4226  0.0900 -0.4673
  136POPC   C1B 2182   4.625   8.194   8.179 -0.0428  0.2530 -0.0850
  136POPC   C2B 2183   4.768   7.911   7.838 -0.1075  0.2674 -0.2274
  136POPC   C3B 2184   4.943   7.620   7.479  0.0120 -0.2687 -0.3585
  136POPC   C4B 2185   5.007   7.231   7.514  0.1280  0.0932 -0.3251
  137POPC   NC3 2186   9.566   9.524   9.842  0.1451  0.2437 -0.0453
  137POPC   PO4 2187   9.113   9.450   9.722 -0.0954 -0.4943 -0.3816
  137POPC   GL1 2188   8.987   9.366   9.297  0.0343 -0.2830  0.0621
  137POPC   GL2 2189   8.708   9.123   9.255 -0.0449  0.1157 -0.0738
  137POPC   C1A 2190   9.207   9.245   8.912 -0.1995 -0.2149  0.2674
  137POPC   D2A 2191   9.646   9.362   8.672  0.1238 -0.3104 -0.1455
  137POPC   C3A 2192   9.822   9.602   8.320  0.0513  0.0625  0.0378
  137POPC   C4A 2193  10.153   9.900   8.183 -0.1557 -0.0081 -0.4085
  137POPC   C1B 2194   8.376   8.799   9.162 -0.2293  0.0860 -0.1539
  137POPC   C2B 2195   8.370   8.404   8.966 -0.0920  0.0862 -0.1469
  137POPC   C3B 2196   8.395   7.933   8.703 -0.0350 -0.1538 -0.0940
  137POPC   C4B 2197   8.392   7.546   8.565  0.3622 -0.0611  0.1056
  138POPC   NC3 2198   6.535   6.227   9.037  0.2493  0.0714  0.1738
  138POPC   PO4 2199   6.546   5.747   8.869  0.0676 -0.0057 -0.0608
  138POPC   GL1 2200   6.666   5.859   8.482  0.1027  0.0500  0.0601
  138POPC   GL2 2201   6.646   6.278   8.510  0.1546 -0.0420 -0.2443
  138POPC   C1A 2202   6.603   5.766   8.031  0.3337  0.1366  0.1738
  138POPC   D2A 2203   6.697   5.697   7.547  0.1031  0.0681  0.0466
  138POPC   C3A 2204   6.467   5.865   7.251  0.0942  0.1705 -0.1899
  138POPC   C4A 2205   6.505   6.076   6.908 -0.3344  0.0949 -0.0873
  138POPC   C1B 2206   6.786   6.272   8.162  0.0584  0.1807  0.0916
  138POPC   C2B 2207   6.988   6.063   7.820 -0.2225 -0.0978 -0.3196
  138POPC   C3B 2208   7.192   5.712   7.522 -0.3472  0.0215 -0.0459
  138POPC   C4B 2209   7.633   5.549   7.355 -0.0668 -0.3582  0.3304
  139POPC   NC3 2210   4.242   5.291   9.232  0.3131  0.1003 -0.1326
  139POPC   PO4 2211   3.869   5.328   9.001 -0.1761  0.0778 -0.2123
  139POPC   GL1 2212   3.804   5.231   8.621  0.1014 -0.1059 -0.4945
  139POPC   GL2 2213   3.551   5.070   8.618 -0.0088  0.2215 -0.0444
  139POPC   C1A 2214   3.810   5.313   8.149 -0.2207 -0.0206  0.1469
  139POPC   D2A 2215   3.571   5.143   7.811  0.3344 -0.3807  0.3322
  139POPC   C3A 2216   3.426   4.746   7.806  0.1929 -0.0406  0.2285
  139POPC   C4A 2217   3.616   4.421   7.488 -0.2717 -0.4074  0.1329
  139POPC   C1B 2218   3.183   5.098   8.353  0.2312 -0.0197 -0.1290
  139POPC   C2B 2219   3.086   5.019   7.960 -0.3785 -0.5743  0.0589
  139POPC   C3B 2220   3.123   5.127   7.581  0.0448  0.0568 -0.1577
  139POPC   C4B 2221   3.457   4.881   7.293  0.0462 -0.0597 -0.0747
  140POPC   NC3 2222   2.996   7.164   9.239 -0.0903 -0.0397  0.0479
  140POPC   PO4 2223   2.936   6.802   9.225 -0.1503  0.2197  0.0120
  140POPC   GL1 2224   2.984   6.727   8.879 -0.1629 -0.1239 -0.1945
  140POPC   GL2 2225   2.964   6.445   8.762 -0.4302 -0.1938 -0.5670
  140POPC   C1A 2226   3.321   6.839   8.507 -0.2600  0.0386 -0.4377
  140POPC   D2A 2227   3.352   6.572   8.126  0.0117  0.0761  0.0202
  140POPC   C3A 2228   3.049   6.515   7.628  0.0024  0.0789  0.4322
  140POPC   C4A 2229   2.933   6.286   7.200  0.1677 -0.0761 -0.1179
  140POPC   C1B 2230   2.912   6.498   8.347 -0.1414 -0.0774 -0.3280
  140POPC   C2B 2231   2.724   6.351   7.957  0.0340 -0.1395 -0.2060
  140POPC   C3B 2232   2.353   6.543   7.722 -0.1700  0.0336  0.2515
  140POPC   C4B 2233   1.895   6.336   7.687  0.1105 -0.1939  0.3112
  141POPC   NC3 2234   3.986   7.537   9.423  0.2656  0.1324 -0.1149
  141POPC   PO4 2235   4.153   7.914   9.386 -0.0151  0.2837  0.3045
  141POPC   GL1 2236   4.036   7.821   9.020 -0.0105  0.3817 -0.1687
  141POPC   GL2 2237   3.986   7.979   8.862  0.0595  0.1354  0.1278
  141POPC   C1A 2238   4.154   7.551   8.600 -0.0383 -0.1715 -0.2144
  141POPC   D2A 2239   4.398   7.658   8.206  0.0464 -0.0454  0.0265
  141POPC   C3A 2240   4.222   7.652   7.813  0.1627 -0.1542  0.1484
  141POPC   C4A 2241   3.939   7.402   7.576 -0.4957  0.1339 -0.2050
  141POPC   C1B 2242   3.920   8.071   8.388  0.1046  0.2045 -0.0605
  141POPC   C2B 2243   4.113   8.134   8.038  0.0540  0.0736 -0.2946
  141POPC   C3B 2244   4.068   8.036   7.542 -0.3192 -0.1019 -0.0128
  141POPC   C4B 2245   3.692   7.780   7.354 -0.0703 -0.0538  0.1832
  142POPC   NC3 2246   4.492   6.102   9.133 -0.0743  0.0375  0.0156
  142POPC   PO4 2247   4.614   5.829   8.886 -0.0682  0.1114  0.1473
  142POPC   GL1 2248   4.523   5.802   8.413  0.4083  0.0170 -0.1028
  142POPC   GL2 2249   4.360   5.513   8.279  0.1391  0.5023 -0.1080
  142POPC   C1A 2250   4.601   6.027   8.030 -0.1943 -0.2425  0.2588
  142POPC   D2A 2251   5.032   6.105   7.856 -0.1373 -0.1019 -0.2546
  142POPC   C3A 2252   5.257   5.939   7.462 -0.1721 -0.0104  0.0569
  142POPC   C4A 2253   5.571   6.065   7.168 -0.2466  0.3877  0.3082
  142POPC   C1B 2254   4.328   5.504   7.820 -0.1314 -0.2988 -0.1775
  142POPC   C2B 2255   4.295   5.558   7.374  0.0591 -0.3116  0.0947
  142POPC   C3B 2256   4.117   5.458   6.926 -0.3770 -0.2159 -0.2173
  142POPC   C4B 2257   3.778   5.110   6.813 -0.2101  0.0836  0.1634
  143POPC   NC3 2258   6.770   6.607   9.548  0.1512 -0.3430  0.0105
  143POPC   PO4 2259   6.636   6.660   9.205 -0.0520 -0.1497  0.1410
  143POPC   GL1 2260   6.483   6.723   8.768 -0.5656  0.1750 -0.3173
  143POPC   GL2 2261   6.838   6.770   8.767  0.0517  0.1633 -0.0863
  143POPC   C1A 2262   6.277   6.675   8.334 -0.1015 -0.0803 -0.3898
  143POPC   D2A 2263   6.442   6.537   7.959 -0.1562  0.1629  0.0442
  143POPC   C3A 2264   6.516   6.747   7.543  0.1814  0.1106 -0.2162
  143POPC   C4A 2265   6.211   6.972   7.291 -0.0219 -0.0063  0.0927
  143POPC   C1B 2266   6.785   6.713   8.338 -0.1882  0.0503 -0.1514
  143POPC   C2B 2267   6.885   6.709   7.912 -0.1874 -0.0810 -0.3248
  143POPC   C3B 2268   7.032   6.733   7.556  0.0462 -0.3951  0.1600
  143POPC   C4B 2269   7.190   6.940   7.242 -0.1513  0.0535 -0.1736
  144POPC   NC3 2270   7.257   2.688   9.659 -0.2663  0.1198 -0.3672
  144POPC   PO4 2271   7.373   2.290   9.402  0.2911  0.0255 -0.0204
  144POPC   GL1 2272   7.360   2.181   9.036 -0.1799  0.2091 -0.0442
  144POPC   GL2 2273   7.123   2.000   8.736 -0.1241  0.0052 -0.3874
  144POPC   C1A 2274   7.602   2.221   8.634 -0.0794  0.2707  0.3878
  144POPC   D2A 2275   7.967   1.967   8.369  0.1180 -0.1647 -0.0129
  144POPC   C3A 2276   8.068   2.013   7.875 -0.3397 -0.0347  0.1067
  144POPC   C4A 2277   8.508   1.967   7.720  0.2209  0.3289 -0.1376
  144POPC   C1B 2278   7.315   1.894   8.372  0.0116 -0.0603  0.2260
  144POPC   C2B 2279   7.625   1.738   8.065 -0.2203 -0.1592 -0.2864
  144POPC   C3B 2280   7.829   1.564   7.739  0.1416 -0.2563  0.0329
  144POPC   C4B 2281   8.239   1.572   7.575 -0.2381 -0.1658  0.0014
  145POPC   NC3 2282   4.794   8.452   9.281 -0.1149  0.0914 -0.1131
  145POPC   PO4 2283   5.201   8.101   9.345 -0.2253  0.0673  0.0952
  145POPC   GL1 2284   5.246   8.188   8.995 -0.1850 -0.2187 -0.2128
  145POPC   GL2 2285   4.933   8.129   8.845  0.1432  0.1127  0.2908
  145POPC   C1A 2286   5.348   8.329   8.592  0.1215 -0.0891  0.0090
  145POPC   D2A 2287   5.462   8.587   8.190 -0.1374 -0.4868  0.0539
  145POPC   C3A 2288   5.443   8.645   7.716 -0.1611 -0.2710 -0.2105
  145POPC   C4A 2289   5.489   8.792   7.295 -0.0842  0.3419  0.0878
  145POPC   C1B 2290   4.873   8.454   8.503 -0.0577 -0.1622  0.2386
  145POPC   C2B 2291   4.814   8.649   8.098 -0.1246  0.0778 -0.2048
  145POPC   C3B 2292   4.719   8.940   7.787 -0.1168  0.0756  0.1548
  145POPC   C4B 2293   4.347   8.948   7.612  0.1150  0.2257 -0.1342
  146POPC   NC3 2294   7.049   5.744   8.855  0.2560  0.0102 -0.1423
  146POPC   PO4 2295   6.985   6.155   8.938  0.1493  0.2091  0.3527
  146POPC   GL1 2296   7.241   6.292   8.707  0.2371  0.1977 -0.3369
  146POPC   GL2 2297   7.233   6.207   8.457 -0.0581 -0.0245  0.0231
  146POPC   C1A 2298   7.294   6.677   8.581 -0.2951  0.1996 -0.1013
  146POPC   D2A 2299   7.739   6.821   8.259 -0.1665 -0.0240  0.1239
  146POPC   C3A 2300   7.753   7.150   7.944  0.4028 -0.1270 -0.3808
  146POPC   C4A 2301   7.566   7.538   7.865  0.2754  0.1176  0.1200
  146POPC   C1B 2302   7.297   6.458   8.167  0.0859 -0.2608  0.1756
  146POPC   C2B 2303   7.483   6.752   7.880 -0.0610 -0.0065  0.0878
  146POPC   C3B 2304   7.714   6.672   7.472  0.1697 -0.1129 -0.5633
  146POPC   C4B 2305   7.804   6.912   7.044  0.0462  0.0765 -0.3429
  147POPC   NC3 2306   3.398   5.037   9.217  0.0114 -0.3649 -0.1375
  147POPC   PO4 2307   3.683   4.800   9.066  0.1226 -0.1669  0.1207
  147POPC   GL1 2308   3.803   4.548   8.692  0.0045  0.2757  0.1105
  147POPC   GL2 2309   3.593   4.356   8.489 -0.1841  0.2419 -0.0366
  147POPC   C1A 2310   4.133   4.465   8.314 -0.2935 -0.0720  0.3584
  147POPC   D2A 2311   4.454   4.620   7.930 -0.1776 -0.0769  0.1557
  147POPC   C3A 2312   4.398   4.655   7.449 -0.2249  0.3018  0.0609
  147POPC   C4A 2313   4.040   4.688   7.156  0.1482 -0.2005  0.0649
  147POPC   C1B 2314   3.530   4.209   8.178 -0.1082 -0.1897 -0.0693
  147POPC   C2B 2315   3.807   4.348   7.922 -0.0393  0.3060  0.1751
  147POPC   C3B 2316   3.919   4.765   7.736  0.2652 -0.1218  0.0754
  147POPC   C4B 2317   4.081   5.068   7.737  0.1664 -0.0744 -0.0305
  148POPC   NC3 2318   3.410   8.863   9.702  0.4055 -0.0330  0.2253
  148POPC   PO4 2319   3.566   8.419   9.525 -0.0411 -0.0697  0.0426
  148POPC   GL1 2320   3.696   8.347   9.063 -0.2302 -0.0249  0.2944
  148POPC   GL2 2321   3.920   8.607   8.897 -0.0051  0.5605  0.0054
  148POPC   C1A 2322   3.507   8.161   8.696 -0.3601  0.0568  0.0988
  148POPC   D2A 2323   3.402   8.306   8.295 -0.3168  0.3725 -0.0488
  148POPC   C3A 2324   3.630   8.171   7.968 -0.0224  0.1670  0.1849
  148POPC   C4A 2325   3.746   7.778   7.829 -0.2224  0.2445 -0.0215
  148POPC   C1B 2326   3.914   8.829   8.453  0.0904 -0.0065  0.1100
  148POPC   C2B 2327   3.859   8.544   8.179  0.1506  0.4889 -0.0648
  148POPC   C3B 2328   3.944   8.493   7.725 -0.2207 -0.0044 -0.0811
  148POPC   C4B 2329   4.025   8.610   7.340 -0.0006  0.2302  0.1137
  149POPC   NC3 2330   9.670   8.242  10.242 -0.2011  0.1099 -0.2979
  149POPC   PO4 2331   9.645   7.798  10.237  0.1437  0.0942 -0.1089
  149POPC   GL1 2332   9.671   7.857   9.809 -0.1466  0.0502 -0.1335
  149POPC   GL2 2333   9.707   8.192   9.750 -0.2626  0.1555 -0.1823
  149POPC   C1A 2334   9.730   7.875   9.319 -0.2276  0.0982 -0.0219
  149POPC   D2A 2335   9.799   7.944   8.956  0.1711  0.1744 -0.3593
  149POPC   C3A 2336   9.421   8.050   8.675  0.1527 -0.0119 -0.1748
  149POPC   C4A 2337   9.192   8.446   8.773  0.0618 -0.0263 -0.0293
  149POPC   C1B 2338   9.715   8.471   9.336 -0.3533  0.2450  0.5180
  149POPC   C2B 2339   9.744   8.457   8.925 -0.0980  0.0936  0.1941
  149POPC   C3B 2340  10.142   8.464   8.622 -0.0357  0.1766 -0.0067
  149POPC   C4B 2341  10.406   8.664   8.249  0.1273 -0.0199  0.3079
  150POPC   NC3 2342   1.657   9.229   9.556 -0.0369 -0.0444  0.1241
  150POPC   PO4 2343   1.253   9.226   9.745 -0.0895 -0.0659  0.0738
  150POPC   GL1 2344   1.248   9.035   9.328 -0.0547  0.0811  0.0176
  150POPC   GL2 2345   1.042   9.252   9.011  0.0862 -0.1631 -0.1151
  150POPC   C1A 2346   0.923   8.816   9.127 -0.1542  0.0014  0.1167
  150POPC   D2A 2347   0.907   8.360   8.885 -0.0599  0.1125  0.4803
  150POPC   C3A 2348   0.907   8.410   8.402 -0.0614 -0.1771  0.2893
  150POPC   C4A 2349   0.715   8.052   8.137  0.0022 -0.2965 -0.0465
  150POPC   C1B 2350   1.230   9.542   8.672  0.1075  0.1044  0.2734
  150POPC   C2B 2351   1.208   9.542   8.218 -0.0075 -0.1445  0.2346
  150POPC   C3B 2352   1.381   9.585   7.871 -0.2436 -0.2265  0.1606
  150POPC   C4B 2353   1.622   9.295   7.598 -0.0475 -0.0563  0.2340
  151POPC   NC3 2354   7.975   3.352   8.912 -0.0159  0.2415 -0.0458
  151POPC   PO4 2355   7.859   3.795   8.837 -0.1757  0.1180  0.2203
  151POPC   GL1 2356   8.142   3.870   8.544 -0.1021 -0.0143  0.0772
  151POPC   GL2 2357   8.444   3.956   8.317  0.2166  0.2491 -0.0975
  151POPC   C1A 2358   8.140   4.223   8.077 -0.1062  0.0777  0.0138
  151POPC   D2A 2359   8.217   4.462   7.754  0.1548 -0.0990  0.0804
  151POPC   C3A 2360   7.976   4.790   7.479 -0.1242  0.2381  0.0506
  151POPC   C4A 2361   7.995   5.279   7.484 -0.1627 -0.0117 -0.3238
  151POPC   C1B 2362   8.626   4.116   7.874  0.1912 -0.0111  0.3220
  151POPC   C2B 2363   8.589   4.161   7.498  0.1975 -0.0822  0.1064
  151POPC   C3B 2364   8.586   4.213   7.079 -0.0371  0.0116 -0.1966
  151POPC   C4B 2365   8.395   4.119   6.680 -0.1752 -0.2792  0.2151
  152POPC   NC3 2366   9.540   2.454   9.269  0.1350 -0.4408  0.1154
  152POPC   PO4 2367   9.541   2.047   9.068  0.1820  0.0248  0.1421
  152POPC   GL1 2368   9.609   2.105   8.517 -0.2177  0.3400  0.0884
  152POPC   GL2 2369   9.706   1.851   8.291  0.3701 -0.0081 -0.2452
  152POPC   C1A 2370   9.400   2.179   8.075  0.2347 -0.0185 -0.0477
  152POPC   D2A 2371   9.196   2.472   7.770  0.0921  0.1759 -0.3919
  152POPC   C3A 2372   9.260   2.660   7.378  0.1394 -0.0335  0.2245
  152POPC   C4A 2373   9.569   2.698   7.128  0.0824  0.1482 -0.1059
  152POPC   C1B 2374   9.599   1.686   7.944  0.2317  0.0144 -0.2864
  152POPC   C2B 2375   9.399   1.385   7.578  0.3086  0.0956  0.1428
  152POPC   C3B 2376   9.027   1.131   7.468 -0.3046 -0.1070  0.2926
  152POPC   C4B 2377   8.740   0.884   7.042 -0.0823 -0.0139 -0.1114
  153POPC   NC3 2378   8.746   4.954   9.315 -0.0888  0.0758  0.0475
  153POPC   PO4 2379   8.965   4.724   8.968  0.0067  0.0094 -0.3665
  153POPC   GL1 2380   8.724   4.688   8.555  0.0706 -0.1452  0.1282
  153POPC   GL2 2381   8.500   4.652   8.494  0.2651  0.0880 -0.0817
  153POPC   C1A 2382   8.833   4.483   8.131 -0.0377 -0.2027 -0.2127
  153POPC   D2A 2383   8.784   4.632   7.723  0.1822  0.1317 -0.1856
  153POPC   C3A 2384   8.962   4.888   7.456  0.2323  0.1046 -0.0154
  153POPC   C4A 2385   9.269   4.911   7.262  0.0972 -0.0748  0.1007
  153POPC   C1B 2386   8.305   4.843   8.133 -0.1698 -0.0298  0.2599
  153POPC   C2B 2387   8.067   4.985   7.912  0.0469 -0.1073 -0.0831
  153POPC   C3B 2388   7.711   5.160   8.185 -0.0043  0.1697  0.1813
  153POPC   C4B 2389   7.423   5.297   8.417 -0.1132 -0.2425 -0.2684
  154POPC   NC3 2390   7.626   1.761   9.102  0.2659  0.0583  0.0580
  154POPC   PO4 2391   7.205   1.730   9.237 -0.1125  0.2457 -0.2268
  154POPC   GL1 2392   7.267   1.547   8.797 -0.3257 -0.1059 -0.0795
  154POPC   GL2 2393   7.618   1.588   8.652  0.0995  0.0326 -0.0091
  154POPC   C1A 2394   7.218   1.415   8.348 -0.0041 -0.1841 -0.0546
  154POPC   D2A 2395   7.282   1.468   7.880 -0.1062  0.2736 -0.2182
  154POPC   C3A 2396   7.319   1.841   7.688  0.0346 -0.0849  0.4254
  154POPC   C4A 2397   7.256   2.216   7.470 -0.0364 -0.0071  0.2373
  154POPC   C1B 2398   7.779   1.322   8.503 -0.1055 -0.0450  0.0317
  154POPC   C2B 2399   7.804   1.141   8.136 -0.2194 -0.1395 -0.1982
  154POPC   C3B 2400   7.778   0.936   7.679  0.0427  0.0004  0.3170
  154POPC   C4B 2401   7.452   0.652   7.477 -0.2367  0.1161 -0.1913
  155POPC   NC3 2402   2.164   5.105   9.336 -0.0277 -0.0148  0.0577
  155POPC   PO4 2403   2.202   5.146   8.902 -0.0139 -0.1404 -0.0738
  155POPC   GL1 2404   2.224   5.259   8.559 -0.3435  0.2676  0.2229
  155POPC   GL2 2405   1.961   5.009   8.489 -0.0677 -0.0436 -0.1022
  155POPC   C1A 2406   2.436   5.388   8.149  0.1714 -0.0970  0.0793
  155POPC   D2A 2407   2.277   5.547   7.732  0.2649  0.1230  0.0197
  155POPC   C3A 2408   2.204   5.757   7.405 -0.1443  0.0672  0.3493
  155POPC   C4A 2409   2.094   6.201   7.223 -0.0860 -0.1137 -0.1231
  155POPC   C1B 2410   2.064   4.993   8.066 -0.0710 -0.0563 -0.0772
  155POPC   C2B 2411   2.097   4.938   7.628  0.0624  0.0366 -0.1780
  155POPC   C3B 2412   2.476   4.749   7.383  0.0102  0.3038  0.2009
  155POPC   C4B 2413   2.940   4.686   7.529 -0.1838 -0.0399 -0.0955
  156POPC   NC3 2414   6.926   3.594   9.694 -0.1654 -0.3294  0.2426
  156POPC   PO4 2415   7.067   3.514   9.284 -0.0404  0.0019 -0.1528
  156POPC   GL1 2416   7.022   3.352   8.840 -0.1348 -0.2660  0.0177
  156POPC   GL2 2417   7.152   3.419   8.430 -0.3258  0.2515 -0.0973
  156POPC   C1A 2418   6.766   3.160   8.467  0.0080  0.5137  0.0196
  156POPC   D2A 2419   6.789   3.262   8.045 -0.2586  0.0884 -0.0032
  156POPC   C3A 2420   6.855   3.570   7.825  0.2065 -0.0215  0.0159
  156POPC   C4A 2421   6.977   3.741   7.383 -0.3607 -0.0609 -0.0486
  156POPC   C1B 2422   7.216   3.189   7.899  0.1497 -0.1494 -0.2814
  156POPC   C2B 2423   7.472   3.305   7.444  0.0618 -0.0058  0.0301
  156POPC   C3B 2424   7.635   2.989   7.128 -0.1463  0.1538 -0.2413
  156POPC   C4B 2425   7.969   2.615   7.141  0.2172  0.0778 -0.0584
  157POPC   NC3 2426   6.958   3.831   4.385  0.0146  0.0284  0.0695
  157POPC   PO4 2427   7.159   3.984   4.757 -0.0269  0.0882 -0.4420
  157POPC   GL1 2428   7.191   4.021   5.165  0.1203  0.0074 -0.1465
  157POPC   GL2 2429   6.931   3.894   5.344 -0.0284 -0.1205 -0.4081
  157POPC   C1A 2430   7.351   4.301   5.515  0.2296 -0.2992  0.0526
  157POPC   D2A 2431   7.592   4.632   5.779  0.1553 -0.0688 -0.0789
  157POPC   C3A 2432   7.715   4.591   6.311 -0.1252  0.0023 -0.2228
  157POPC   C4A 2433   8.054   4.480   6.685  0.0721  0.1703 -0.1573
  157POPC   C1B 2434   6.566   3.791   5.605 -0.0173  0.1604 -0.0570
  157POPC   C2B 2435   6.293   4.097   5.891  0.1247 -0.2389 -0.0568
  157POPC   C3B 2436   5.928   4.355   6.163  0.5463  0.2150  0.1428
  157POPC   C4B 2437   5.698   4.615   6.423  0.0104  0.0998 -0.3290
  158POPC   NC3 2438   3.499   4.728   5.259 -0.2886 -0.0017  0.1831
  158POPC   PO4 2439   3.598   5.226   5.233  0.0497 -0.0644 -0.4115
  158POPC   GL1 2440   3.756   5.512   5.610 -0.1104  0.0838 -0.1994
  158POPC   GL2 2441   3.500   5.761   5.732 -0.1343 -0.2809  0.3104
  158POPC   C1A 2442   3.820   5.535   6.064  0.2186  0.1207  0.0980
  158POPC   D2A 2443   4.157   5.558   6.449 -0.3160  0.1809  0.0274
  158POPC   C3A 2444   4.046   5.932   6.743 -0.0004  0.0195  0.1107
  158POPC   C4A 2445   3.999   6.397   6.761  0.2824 -0.0462  0.0604
  158POPC   C1B 2446   3.525   6.001   6.112 -0.2134 -0.0491 -0.1044
  158POPC   C2B 2447   3.718   6.233   6.420  0.1923  0.1420  0.1145
  158POPC   C3B 2448   4.135   6.477   6.306  0.0060 -0.2901 -0.1620
  158POPC   C4B 2449   4.434   6.657   6.640 -0.4870 -0.0785  0.2551
  159POPC   NC3 2450   3.537   2.146   5.216 -0.1596  0.1157  0.0563
  159POPC   PO4 2451   3.184   1.905   5.114 -0.0907  0.0776 -0.0952
  159POPC   GL1 2452   3.136   1.979   5.610  0.0516 -0.3134  0.0471
  159POPC   GL2 2453   3.253   2.263   5.699 -0.0164 -0.0721  0.0960
  159POPC   C1A 2454   3.144   1.811   6.059 -0.4237  0.2655 -0.2872
  159POPC   D2A 2455   3.192   1.596   6.379 -0.2481  0.2402  0.0116
  159POPC   C3A 2456   3.327   1.868   6.606 -0.2351 -0.4059 -0.1389
  159POPC   C4A 2457   3.592   1.930   6.909  0.0757  0.1559 -0.2218
  159POPC   C1B 2458   2.962   2.312   6.081 -0.0287  0.2593  0.0333
  159POPC   C2B 2459   2.847   2.013   6.474 -0.0106  0.2362  0.0339
  159POPC   C3B 2460   2.488   1.897   6.336 -0.1483 -0.0949 -0.0572
  159POPC   C4B 2461   2.209   1.560   6.368 -0.2066  0.1486 -0.1880
  160POPC   NC3 2462   4.781   3.855   4.755 -0.0034  0.2691 -0.2460
  160POPC   PO4 2463   5.038   4.157   4.853 -0.0237  0.0892 -0.4527
  160POPC   GL1 2464   4.776   4.267   5.177 -0.2918 -0.1360 -0.0215
  160POPC   GL2 2465   4.592   4.543   5.291 -0.0774  0.0058  0.1572
  160POPC   C1A 2466   4.914   4.183   5.617  0.1063  0.1864 -0.1657
  160POPC   D2A 2467   5.091   3.705   5.807 -0.2228  0.1131  0.2590
  160POPC   C3A 2468   5.181   3.696   6.225  0.0909  0.2634 -0.1066
  160POPC   C4A 2469   4.821   3.663   6.598 -0.1292  0.0013 -0.0912
  160POPC   C1B 2470   4.406   4.633   5.676  0.1758 -0.0604  0.1627
  160POPC   C2B 2471   4.026   4.552   5.950 -0.1646 -0.1963 -0.2132
  160POPC   C3B 2472   3.688   4.369   5.961 -0.0105  0.0711 -0.1362
  160POPC   C4B 2473   3.504   3.940   5.929  0.0184  0.0886 -0.0151
  161POPC   NC3 2474   5.426   0.556   4.983 -0.4768 -0.3758 -0.1621
  161POPC   PO4 2475   5.490   0.679   5.455 -0.1669 -0.1895 -0.3196
  161POPC   GL1 2476   5.241   0.750   5.866  0.4083 -0.2605 -0.1256
  161POPC   GL2 2477   4.906   0.839   5.784  0.1931  0.0517 -0.0672
  161POPC   C1A 2478   5.233   0.557   6.209  0.1038  0.0629  0.3919
  161POPC   D2A 2479   5.332   0.693   6.651 -0.3591  0.1564  0.0153
  161POPC   C3A 2480   5.203   1.059   6.789 -0.2231  0.0534  0.0062
  161POPC   C4A 2481   5.048   1.264   7.156  0.0189 -0.0535 -0.1215
  161POPC   C1B 2482   4.872   0.857   6.157  0.1636  0.3051 -0.1664
  161POPC   C2B 2483   4.692   1.017   6.533  0.1300  0.0937  0.3770
  161POPC   C3B 2484   4.237   0.836   6.781 -0.0873  0.1239 -0.2244
  161POPC   C4B 2485   3.951   1.125   6.913 -0.3966 -0.1018  0.0473
  162POPC   NC3 2486   9.005   9.100   3.192 -0.1335 -0.2200 -0.2853
  162POPC   PO4 2487   8.841   8.723   3.141  0.1958  0.1467  0.0066
  162POPC   GL1 2488   8.751   8.549   3.571  0.0354 -0.0028  0.0125
  162POPC   GL2 2489   8.808   8.958   3.663  0.0583 -0.1813 -0.1295
  162POPC   C1A 2490   8.623   8.509   4.017 -0.1271 -0.0393  0.4281
  162POPC   D2A 2491   8.500   8.617   4.504  0.2119 -0.2511  0.2257
  162POPC   C3A 2492   8.169   8.317   4.725 -0.3572  0.0530  0.1108
  162POPC   C4A 2493   7.861   8.205   5.090 -0.0236  0.0847 -0.0048
  162POPC   C1B 2494   8.941   8.956   4.041 -0.1562  0.2371  0.1554
  162POPC   C2B 2495   9.003   8.821   4.477 -0.0197 -0.3324  0.4331
  162POPC   C3B 2496   9.148   8.884   4.897  0.1927 -0.1014  0.2639
  162POPC   C4B 2497   9.153   9.083   5.304 -0.2316  0.0687  0.0351
  163POPC   NC3 2498   3.372   0.554   5.301  0.1535  0.0015 -0.4549
  163POPC   PO4 2499   3.656   0.239   5.276  0.0928  0.3277 -0.0756
  163POPC   GL1 2500   3.861   0.118   5.659 -0.2111 -0.1622  0.0223
  163POPC   GL2 2501   4.128   0.188   5.731 -0.3475  0.1089  0.1229
  163POPC   C1A 2502   3.776   0.166   6.134  0.0792 -0.3648  0.1748
  163POPC   D2A 2503   3.710   0.081   6.532 -0.2188 -0.3365 -0.0790
  163POPC   C3A 2504   3.497  -0.317   6.657  0.0760 -0.0423 -0.0509
  163POPC   C4A 2505   3.354  -0.792   6.624  0.1859  0.1933 -0.0401
  163POPC   C1B 2506   4.130   0.496   5.904 -0.0648  0.2952 -0.0281
  163POPC   C2B 2507   3.968   0.582   6.352  0.0901 -0.2126  0.0694
  163POPC   C3B 2508   3.761   0.716   6.702  0.1784 -0.2544  0.1413
  163POPC   C4B 2509   3.436   0.880   7.077 -0.2382 -0.3211 -0.1224
  164POPC   NC3 2510   4.728   0.964   4.919  0.0410 -0.0506  0.2812
  164POPC   PO4 2511   4.277   0.965   5.147  0.0526 -0.1302  0.1642
  164POPC   GL1 2512   4.157   1.043   5.573 -0.0215  0.1615  0.0860
  164POPC   GL2 2513   3.777   1.098   5.532  0.1504 -0.0327  0.0084
  164POPC   C1A 2514   3.934   1.374   5.899  0.2511  0.2218 -0.0959
  164POPC   D2A 2515   4.077   1.551   6.304  0.0414 -0.0599 -0.0255
  164POPC   C3A 2516   4.234   1.451   6.702  0.1243 -0.0274  0.1248
  164POPC   C4A 2517   4.467   1.195   7.077  0.0200  0.0888  0.0926
  164POPC   C1B 2518   3.771   0.873   5.892  0.1144 -0.0620 -0.0300
  164POPC   C2B 2519   3.550   0.724   6.189  0.1694 -0.3227 -0.2243
  164POPC   C3B 2520   3.364   0.532   6.553  0.2398  0.0601  0.0444
  164POPC   C4B 2521   3.109   0.595   6.854 -0.1471  0.1950  0.1557
  165POPC   NC3 2522   9.520   0.296   3.898  0.4094  0.1262 -0.1185
  165POPC   PO4 2523   9.713   0.504   4.272 -0.0207  0.1145 -0.0869
  165POPC   GL1 2524   9.523   0.331   4.550  0.5251 -0.1819 -0.2022
  165POPC   GL2 2525   9.137   0.495   4.575  0.1721 -0.0285  0.0254
  165POPC   C1A 2526   9.531   0.012   4.934  0.1585 -0.1571 -0.4024
  165POPC   D2A 2527   9.145  -0.094   5.081 -0.1510  0.0329 -0.1070
  165POPC   C3A 2528   8.966  -0.272   5.397 -0.2090  0.1655  0.2117
  165POPC   C4A 2529   8.820  -0.070   5.697  0.1419  0.2262  0.2374
  165POPC   C1B 2530   9.065   0.316   4.798 -0.0856 -0.0408  0.0341
  165POPC   C2B 2531   8.728   0.061   4.804 -0.2520 -0.1416 -0.1641
  165POPC   C3B 2532   8.431  -0.061   5.028  0.1494 -0.3317  0.2877
  165POPC   C4B 2533   8.482  -0.345   5.280  0.0762  0.1302  0.0631
  166POPC   NC3 2534   8.866   9.957   3.858  0.0424  0.1687  0.3545
  166POPC   PO4 2535   9.120  10.192   4.027 -0.0533 -0.2656  0.2535
  166POPC   GL1 2536   9.240  10.083   4.494  0.1272 -0.1534  0.2317
  166POPC   GL2 2537   8.954   9.869   4.401  0.0819  0.0751 -0.0568
  166POPC   C1A 2538   9.400   9.761   4.695  0.0709  0.1345  0.2016
  166POPC   D2A 2539   9.212   9.507   5.017 -0.0104 -0.1353  0.3353
  166POPC   C3A 2540   9.306   9.509   5.425  0.0923 -0.1194  0.0090
  166POPC   C4A 2541   9.165   9.304   5.723  0.1051 -0.0040 -0.1264
  166POPC   C1B 2542   8.773   9.716   4.841  0.0761 -0.0182 -0.0329
  166POPC   C2B 2543   8.724   9.405   5.104 -0.0159 -0.2459 -0.0810
  166POPC   C3B 2544   8.690   9.506   5.611 -0.0322 -0.0062  0.3646
  166POPC   C4B 2545   8.790   9.703   6.058 -0.1348 -0.3266 -0.1381
  167POPC   NC3 2546   1.006   0.393   5.041  0.2120 -0.0464  0.0473
  167POPC   PO4 2547   1.234   0.145   4.722  0.1266 -0.0603  0.2235
  167POPC   GL1 2548   1.208  -0.089   5.090  0.2159  0.2619  0.2464
  167POPC   GL2 2549   1.192   0.035   5.491  0.0768 -0.1675 -0.1904
  167POPC   C1A 2550   0.749  -0.133   5.310  0.0394  0.1761 -0.1093
  167POPC   D2A 2551   0.607   0.235   5.455 -0.1765 -0.0971 -0.2642
  167POPC   C3A 2552   0.852   0.329   5.788  0.1569 -0.0218 -0.3805
  167POPC   C4A 2553   1.236   0.476   5.759 -0.0273  0.2252 -0.1873
  167POPC   C1B 2554   1.412  -0.155   5.843  0.1051  0.1096 -0.0045
  167POPC   C2B 2555   1.383  -0.472   6.204 -0.0574 -0.0564 -0.3903
  167POPC   C3B 2556   1.433  -0.713   6.587  0.0048 -0.2245  0.2592
  167POPC   C4B 2557   1.132  -0.784   6.894 -0.0085 -0.3044  0.3241
  168POPC   NC3 2558   3.084   6.244   5.273  0.0036  0.2817  0.0084
  168POPC   PO4 2559   2.684   6.212   5.084 -0.1450 -0.2190 -0.0228
  168POPC   GL1 2560   2.531   6.076   5.546  0.1181 -0.2663  0.0839
  168POPC   GL2 2561   2.630   6.398   5.626  0.3286  0.0866  0.3362
  168POPC   C1A 2562   2.354   5.936   5.918 -0.2726 -0.0240 -0.1148
  168POPC   D2A 2563   2.419   5.983   6.354  0.3748  0.0990  0.3245
  168POPC   C3A 2564   2.809   5.816   6.476  0.1127 -0.4627 -0.0154
  168POPC   C4A 2565   2.861   5.488   6.807  0.1592 -0.1898  0.0714
  168POPC   C1B 2566   2.286   6.394   5.852 -0.0395  0.3936  0.0935
  168POPC   C2B 2567   2.116   6.413   6.254 -0.1164  0.2760 -0.0627
  168POPC   C3B 2568   2.185   6.249   6.768  0.0665 -0.1321  0.1037
  168POPC   C4B 2569   2.535   6.051   6.999  0.0988 -0.2245 -0.1256
  169POPC   NC3 2570   2.061   3.810   5.935 -0.0994 -0.1116  0.2893
  169POPC   PO4 2571   2.363   3.564   5.727 -0.1930  0.4791  0.0511
  169POPC   GL1 2572   2.372   3.343   6.136  0.4552 -0.3075  0.2271
  169POPC   GL2 2573   2.615   3.470   6.241 -0.1090  0.1012  0.1535
  169POPC   C1A 2574   2.028   3.109   6.500 -0.0543  0.0362 -0.0898
  169POPC   D2A 2575   2.043   2.636   6.710 -0.0833  0.0058 -0.0353
  169POPC   C3A 2576   2.384   2.740   7.011  0.2865  0.0374  0.1079
  169POPC   C4A 2577   2.810   2.902   6.908 -0.0807  0.1991 -0.2666
  169POPC   C1B 2578   2.365   3.731   6.536  0.1161  0.0156 -0.1652
  169POPC   C2B 2579   2.203   3.912   7.046  0.3932  0.2152  0.0277
  169POPC   C3B 2580   2.272   4.383   6.968 -0.2229 -0.0183  0.2794
  169POPC   C4B 2581   2.221   4.851   6.994 -0.3166  0.2414  0.3182
  170POPC   NC3 2582   4.684   7.834   5.275  0.0487  0.0388  0.2166
  170POPC   PO4 2583   4.291   7.484   5.308 -0.1241 -0.0124 -0.0189
  170POPC   GL1 2584   4.379   7.716   5.692  0.4268 -0.1705  0.0131
  170POPC   GL2 2585   4.766   7.791   5.799  0.4860  0.1695 -0.0562
  170POPC   C1A 2586   4.173   7.878   6.005 -0.1959  0.2955  0.0108
  170POPC   D2A 2587   3.978   7.752   6.408  0.0431  0.2366  0.1277
  170POPC   C3A 2588   4.271   7.682   6.765  0.0579 -0.2046  0.0473
  170POPC   C4A 2589   4.361   7.757   7.214  0.2304 -0.1455  0.1936
  170POPC   C1B 2590   4.663   7.855   6.175 -0.2442 -0.4379  0.2376
  170POPC   C2B 2591   4.400   8.100   6.387 -0.2372 -0.3589  0.0387
  170POPC   C3B 2592   4.465   8.282   6.726  0.0665  0.0757 -0.1674
  170POPC   C4B 2593   4.454   8.495   7.137  0.0360 -0.0126 -0.1035
  171POPC   NC3 2594   3.604   8.707   5.254  0.0630  0.3665  0.4091
  171POPC   PO4 2595   3.523   9.145   5.188 -0.3401  0.1305  0.2844
  171POPC   GL1 2596   3.541   8.999   5.663 -0.1350 -0.1501  0.0636
  171POPC   GL2 2597   3.887   8.929   5.781  0.0879  0.2700  0.0382
  171POPC   C1A 2598   3.436   8.920   6.089 -0.3559 -0.0360  0.0450
  171POPC   D2A 2599   3.027   8.922   6.331 -0.1827  0.0353  0.4984
  171POPC   C3A 2600   2.956   9.160   6.729  0.1455  0.2969 -0.3876
  171POPC   C4A 2601   2.862   9.531   6.963  0.1860  0.0557  0.0198
  171POPC   C1B 2602   3.941   8.761   6.211  0.1835  0.1637 -0.1418
  171POPC   C2B 2603   3.597   8.781   6.515 -0.0445 -0.1774 -0.2111
  171POPC   C3B 2604   3.224   8.758   6.777  0.5394 -0.1416  0.3796
  171POPC   C4B 2605   3.085   8.472   7.212 -0.2261 -0.2172 -0.0739
  172POPC   NC3 2606   6.393   3.188   5.226  0.0881 -0.2730 -0.2861
  172POPC   PO4 2607   6.247   3.558   5.152  0.1029  0.1180  0.3098
  172POPC   GL1 2608   6.056   3.532   5.577 -0.0309  0.0640  0.3359
  172POPC   GL2 2609   6.000   3.391   5.869 -0.0226  0.1920 -0.0482
  172POPC   C1A 2610   5.779   3.808   5.839  0.0254  0.1671  0.0633
  172POPC   D2A 2611   5.368   4.073   5.975  0.0534  0.0151  0.2495
  172POPC   C3A 2612   5.405   4.170   6.350 -0.1506 -0.2557  0.1347
  172POPC   C4A 2613   5.248   4.414   6.741  0.1716 -0.1379 -0.1417
  172POPC   C1B 2614   6.215   3.688   6.104 -0.1808  0.3964 -0.0295
  172POPC   C2B 2615   6.446   3.680   6.445 -0.2432 -0.0496 -0.2620
  172POPC   C3B 2616   6.672   3.892   6.689 -0.0461 -0.0349  0.1033
  172POPC   C4B 2617   6.696   3.997   7.055 -0.1845 -0.2629 -0.1511
  173POPC   NC3 2618   8.364  10.073   4.037 -0.2314  0.1495 -0.0202
  173POPC   PO4 2619   7.996  10.133   4.285  0.0620  0.3152  0.0125
  173POPC   GL1 2620   8.002  10.097   4.726  0.0192  0.3207  0.3370
  173POPC   GL2 2621   7.717  10.186   4.928 -0.2076  0.0266  0.2133
  173POPC   C1A 2622   8.120   9.784   4.980  0.0166  0.1686 -0.2674
  173POPC   D2A 2623   7.941   9.653   5.246 -0.0215 -0.0227 -0.2441
  173POPC   C3A 2624   8.181   9.392   5.450 -0.1394  0.1312 -0.0055
  173POPC   C4A 2625   8.401   8.977   5.486 -0.1274  0.0908  0.1597
  173POPC   C1B 2626   7.957  10.224   5.288  0.0141  0.3822 -0.0952
  173POPC   C2B 2627   8.111  10.052   5.591  0.3398  0.1661  0.0580
  173POPC   C3B 2628   8.081   9.775   5.867  0.1442 -0.2862 -0.0378
  173POPC   C4B 2629   7.885   9.326   5.956  0.1019  0.1129  0.3194
  174POPC   NC3 2630   1.685   1.876   5.644  0.0708 -0.1862  0.0862
  174POPC   PO4 2631   1.316   1.733   5.386 -0.1268 -0.0635  0.0765
  174POPC   GL1 2632   1.255   1.654   5.803 -0.2416 -0.3072 -0.0220
  174POPC   GL2 2633   1.142   1.331   5.644 -0.0948  0.2478  0.0084
  174POPC   C1A 2634   1.248   1.745   6.211 -0.0555 -0.2847  0.0945
  174POPC   D2A 2635   1.023   1.877   6.675 -0.1540 -0.0039 -0.2688
  174POPC   C3A 2636   0.692   1.718   6.833  0.0334  0.2072 -0.0847
  174POPC   C4A 2637   0.551   1.409   7.097  0.0478  0.5048  0.0107
  174POPC   C1B 2638   1.229   1.234   6.062  0.0766 -0.2971 -0.1195
  174POPC   C2B 2639   1.175   1.391   6.509  0.1913 -0.0531 -0.0323
  174POPC   C3B 2640   1.046   1.390   6.887 -0.1240 -0.0749 -0.0068
  174POPC   C4B 2641   1.146   1.261   7.295  0.2799 -0.4123 -0.2533
  175POPC   NC3 2642   7.782   5.313   4.928 -0.1116  0.1518  0.4605
  175POPC   PO4 2643   7.861   5.714   4.952  0.0474 -0.2164  0.0690
  175POPC   GL1 2644   7.663   5.550   5.400  0.1136  0.1270  0.2412
  175POPC   GL2 2645   7.290   5.638   5.468 -0.2072 -0.1152  0.3359
  175POPC   C1A 2646   7.674   5.642   5.824 -0.1607  0.2653 -0.4720
  175POPC   D2A 2647   7.614   5.670   6.272 -0.0917 -0.0224  0.2043
  175POPC   C3A 2648   7.302   5.391   6.318  0.0088  0.2517 -0.5373
  175POPC   C4A 2649   6.979   5.228   6.592 -0.3573 -0.0073  0.0031
  175POPC   C1B 2650   7.335   5.976   5.774  0.2075  0.1003  0.0777
  175POPC   C2B 2651   7.554   6.209   5.967 -0.3944 -0.2069 -0.0183
  175POPC   C3B 2652   7.864   6.472   6.077  0.3551 -0.1203  0.2632
  175POPC   C4B 2653   8.279   6.423   6.266 -0.0558 -0.1467  0.2574
  176POPC   NC3 2654   8.417   6.237   4.269  0.0169 -0.0683  0.3314
  176POPC   PO4 2655   8.917   6.166   4.196 -0.2085 -0.2735 -0.2702
  176POPC   GL1 2656   9.117   6.163   4.586  0.0600 -0.1954 -0.1269
  176POPC   GL2 2657   9.390   6.229   4.633 -0.0117 -0.2333  0.1580
  176POPC   C1A 2658   8.944   6.198   4.969 -0.0114  0.1279  0.0421
  176POPC   D2A 2659   8.863   6.424   5.398  0.0770 -0.2143 -0.0586
  176POPC   C3A 2660   8.974   6.467   5.830 -0.1873 -0.0218  0.3185
  176POPC   C4A 2661   8.774   6.659   6.194  0.0215  0.0435 -0.5465
  176POPC   C1B 2662   9.335   6.535   5.005  0.0945 -0.1000  0.0169
  176POPC   C2B 2663   9.234   6.763   5.358  0.1246 -0.2093 -0.0197
  176POPC   C3B 2664   9.253   6.919   5.636  0.1999  0.1934  0.1429
  176POPC   C4B 2665   9.551   7.005   5.867  0.3972 -0.2413 -0.2521
  177POPC   NC3 2666   4.957   3.180   4.369  0.1481  0.1340  0.2486
  177POPC   PO4 2667   5.020   3.356   4.721 -0.2993 -0.0912  0.0033
  177POPC   GL1 2668   4.911   3.203   5.168  0.1093  0.1758 -0.0754
  177POPC   GL2 2669   5.106   3.127   5.483  0.0321 -0.0223 -0.0341
  177POPC   C1A 2670   4.677   3.340   5.591  0.0298  0.0640 -0.0018
  177POPC   D2A 2671   4.494   3.658   5.662 -0.0479 -0.1594 -0.0837
  177POPC   C3A 2672   4.522   3.742   6.159  0.0005  0.1915  0.3042
  177POPC   C4A 2673   4.376   3.930   6.603 -0.0229  0.0381 -0.0380
  177POPC   C1B 2674   5.275   3.168   5.909 -0.0410 -0.2023 -0.0648
  177POPC   C2B 2675   5.541   3.433   6.146  0.0376 -0.3405 -0.1346
  177POPC   C3B 2676   5.699   3.771   6.292 -0.6425  0.3492  0.1545
  177POPC   C4B 2677   5.828   4.113   6.569 -0.1645 -0.0197 -0.0471
  178POPC   NC3 2678   7.330   0.341   4.808 -0.0443 -0.0243  0.0202
  178POPC   PO4 2679   7.377   0.705   5.203  0.0560 -0.2501 -0.2265
  178POPC   GL1 2680   7.398   0.252   5.256  0.3152 -0.1206 -0.4210
  178POPC   GL2 2681   7.391   0.315   5.596 -0.0045 -0.0354  0.1376
  178POPC   C1A 2682   7.084  -0.041   5.356 -0.1091  0.3558 -0.6523
  178POPC   D2A 2683   6.944  -0.062   5.701 -0.2884 -0.0051  0.1510
  178POPC   C3A 2684   7.126   0.162   6.052 -0.0026 -0.1876  0.2146
  178POPC   C4A 2685   7.424   0.318   6.391  0.0120 -0.3050  0.1912
  178POPC   C1B 2686   7.603   0.096   5.851 -0.1219  0.0078 -0.1106
  178POPC   C2B 2687   7.775  -0.021   6.286 -0.2973 -0.2889  0.2996
  178POPC   C3B 2688   7.692  -0.430   6.336  0.1434 -0.0069  0.3184
  178POPC   C4B 2689   7.366  -0.734   6.369 -0.0638  0.3021  0.1276
  179POPC   NC3 2690   5.648   8.946   5.111 -0.0773  0.0322  0.0100
  179POPC   PO4 2691   5.339   8.653   5.408  0.1028 -0.0447  0.3006
  179POPC   GL1 2692   5.436   8.938   5.713 -0.0887  0.1314  0.0838
  179POPC   GL2 2693   5.321   9.196   5.539  0.0550 -0.3361  0.0855
  179POPC   C1A 2694   5.544   8.953   6.138  0.0724 -0.0419 -0.3178
  179POPC   D2A 2695   5.943   9.066   6.264  0.2987  0.0964  0.2108
  179POPC   C3A 2696   6.083   8.899   6.583 -0.1243 -0.3776 -0.1065
  179POPC   C4A 2697   6.277   8.968   6.963  0.3015 -0.0367 -0.2075
  179POPC   C1B 2698   5.432   9.416   5.988 -0.0576  0.4289  0.1122
  179POPC   C2B 2699   5.166   9.384   6.398 -0.0015 -0.1683  0.0254
  179POPC   C3B 2700   5.335   9.192   6.670 -0.1651 -0.2893 -0.0176
  179POPC   C4B 2701   5.282   8.834   6.889  0.0301  0.1589  0.0111
  180POPC   NC3 2702   9.817   7.881   3.183  0.0233 -0.0072  0.0677
  180POPC   PO4 2703   9.544   8.334   3.145 -0.1187  0.4224  0.1772
  180POPC   GL1 2704   9.462   8.186   3.555 -0.0052 -0.0958 -0.0045
  180POPC   GL2 2705   9.676   8.425   3.705  0.0026  0.0005 -0.0132
  180POPC   C1A 2706   9.450   7.978   3.977 -0.2840  0.0450 -0.1220
  180POPC   D2A 2707   9.063   7.859   4.235 -0.0088  0.0801  0.0385
  180POPC   C3A 2708   9.143   7.892   4.736 -0.0527 -0.1766 -0.0623
  180POPC   C4A 2709   8.972   7.842   5.092  0.0338  0.0025 -0.0147
  180POPC   C1B 2710   9.773   8.454   4.165  0.0629 -0.0221 -0.1152
  180POPC   C2B 2711   9.651   8.187   4.523  0.1125 -0.0052  0.1064
  180POPC   C3B 2712   9.592   7.779   4.476 -0.0369  0.1831  0.1980
  180POPC   C4B 2713   9.843   7.541   4.582 -0.0705 -0.3917 -0.1589
  181POPC   NC3 2714   7.460   5.025   4.551  0.1588 -0.1244 -0.1460
  181POPC   PO4 2715   7.630   4.850   4.855 -0.1693  0.3113 -0.2459
  181POPC   GL1 2716   7.668   4.933   5.296  0.2384 -0.0612  0.0314
  181POPC   GL2 2717   7.402   5.048   5.431 -0.2552 -0.1339 -0.1944
  181POPC   C1A 2718   7.956   5.060   5.634  0.0170 -0.1365  0.1597
  181POPC   D2A 2719   8.278   5.134   5.900 -0.4479  0.0251 -0.3289
  181POPC   C3A 2720   8.679   5.450   5.848 -0.0581  0.2861  0.2195
  181POPC   C4A 2721   8.771   5.491   5.414 -0.0124 -0.1822  0.1246
  181POPC   C1B 2722   7.480   5.123   5.926  0.2194  0.0763 -0.2010
  181POPC   C2B 2723   7.745   5.056   6.178 -0.0716  0.1965 -0.0166
  181POPC   C3B 2724   7.988   4.999   6.469  0.3001 -0.0410 -0.3621
  181POPC   C4B 2725   8.023   4.934   6.930 -0.0743  0.1267 -0.0622
  182POPC   NC3 2726   3.433   3.207   5.170 -0.1628 -0.1210 -0.1615
  182POPC   PO4 2727   3.814   3.412   5.030 -0.0008 -0.1585 -0.0357
  182POPC   GL1 2728   4.123   3.352   5.383 -0.1253 -0.1184  0.0261
  182POPC   GL2 2729   4.323   2.988   5.453 -0.0829 -0.1107 -0.2636
  182POPC   C1A 2730   4.093   3.400   5.770 -0.1881  0.3346 -0.1741
  182POPC   D2A 2731   4.343   3.340   6.071  0.1225  0.1913  0.3300
  182POPC   C3A 2732   4.838   3.360   6.178  0.0338 -0.0029  0.3078
  182POPC   C4A 2733   5.182   3.311   6.487  0.1051  0.0716 -0.0789
  182POPC   C1B 2734   4.226   2.867   5.947  0.1531  0.2977 -0.0190
  182POPC   C2B 2735   4.339   2.834   6.367 -0.1397 -0.1147  0.0253
  182POPC   C3B 2736   4.168   2.743   6.706 -0.1318 -0.3441 -0.0641
  182POPC   C4B 2737   4.377   2.704   7.203 -0.1197  0.0356  0.0554
  183POPC   NC3 2738   2.853   8.797   4.729 -0.2422 -0.2883  0.1117
  183POPC   PO4 2739   3.190   8.776   4.993 -0.0841  0.2245  0.1585
  183POPC   GL1 2740   3.084   9.061   5.332  0.2747 -0.0464  0.1261
  183POPC   GL2 2741   2.884   8.856   5.544  0.0019  0.0324 -0.1787
  183POPC   C1A 2742   3.150   9.293   5.783  0.1226 -0.0617  0.0606
  183POPC   D2A 2743   3.270   9.402   6.139  0.2300 -0.1799 -0.1214
  183POPC   C3A 2744   3.796   9.270   6.166 -0.1326 -0.0894 -0.0290
  183POPC   C4A 2745   4.273   9.132   6.378 -0.0746 -0.0839 -0.1146
  183POPC   C1B 2746   2.645   8.925   5.881  0.1179 -0.1787  0.1678
  183POPC   C2B 2747   2.489   8.780   6.258  0.0258  0.1850 -0.0967
  183POPC   C3B 2748   2.441   8.926   6.694 -0.2618  0.1417 -0.0892
  183POPC   C4B 2749   2.330   9.379   6.865  0.0636  0.4602 -0.2114
  184POPC   NC3 2750   3.239   8.088   5.109 -0.2044 -0.1023 -0.0009
  184POPC   PO4 2751   3.343   7.956   5.461 -0.3925  0.1712 -0.2500
  184POPC   GL1 2752   3.015   7.914   5.614 -0.0506  0.1984 -0.4214
  184POPC   GL2 2753   2.780   8.229   5.683 -0.1037  0.0985  0.1888
  184POPC   C1A 2754   2.697   7.760   5.971 -0.1619 -0.3465  0.3089
  184POPC   D2A 2755   2.432   7.531   6.205  0.0630  0.2130 -0.0566
  184POPC   C3A 2756   2.445   7.584   6.676  0.0262 -0.0697 -0.0812
  184POPC   C4A 2757   2.424   7.704   7.156 -0.2742  0.0017 -0.1350
  184POPC   C1B 2758   2.855   8.449   6.143 -0.2692 -0.0636 -0.1616
  184POPC   C2B 2759   2.821   8.474   6.638  0.1021 -0.0661  0.0976
  184POPC   C3B 2760   2.480   8.557   7.003 -0.0653  0.0840  0.0913
  184POPC   C4B 2761   2.214   8.993   7.190 -0.1760  0.0164  0.1264
  185POPC   NC3 2762   5.218   2.139   5.464  0.0276 -0.0918  0.2534
  185POPC   PO4 2763   5.270   2.533   5.499  0.1991  0.0509  0.0990
  185POPC   GL1 2764   5.291   2.530   5.939 -0.0668 -0.1364  0.1253
  185POPC   GL2 2765   5.085   2.411   6.043  0.3795 -0.0181  0.0166
  185POPC   C1A 2766   5.420   2.790   6.182  0.1886 -0.0188 -0.2223
  185POPC   D2A 2767   5.527   2.948   6.594  0.3342  0.1212 -0.0678
  185POPC   C3A 2768   5.597   3.445   6.772 -0.1372 -0.1909  0.0271
  185POPC   C4A 2769   5.758   3.796   6.993 -0.0499  0.1504 -0.1037
  185POPC   C1B 2770   4.898   2.122   6.332 -0.1421  0.3596 -0.0710
  185POPC   C2B 2771   4.889   2.010   6.760  0.0725  0.3217  0.3912
  185POPC   C3B 2772   4.879   2.001   7.145 -0.1509  0.4374  0.0204
  185POPC   C4B 2773   4.695   2.276   7.412 -0.2720 -0.1932 -0.2062
  186POPC   NC3 2774   7.195   1.718   4.992 -0.0856  0.0447 -0.1547
  186POPC   PO4 2775   7.445   1.468   5.234 -0.1038 -0.1920 -0.1916
  186POPC   GL1 2776   7.382   1.582   5.669 -0.2525  0.3200  0.0508
  186POPC   GL2 2777   7.151   1.546   5.929 -0.3448 -0.1932 -0.2592
  186POPC   C1A 2778   7.666   1.359   6.014  0.3586 -0.2729 -0.1314
  186POPC   D2A 2779   8.050   1.487   6.219  0.0208 -0.2309  0.1892
  186POPC   C3A 2780   8.255   1.295   6.607 -0.4557 -0.3801 -0.4560
  186POPC   C4A 2781   8.287   1.122   6.969  0.2006  0.1583  0.1438
  186POPC   C1B 2782   7.330   1.377   6.424  0.2247  0.0734  0.2139
  186POPC   C2B 2783   7.336   1.356   6.874 -0.2565  0.2269 -0.1907
  186POPC   C3B 2784   7.488   1.011   7.111 -0.0176  0.3103  0.2434
  186POPC   C4B 2785   7.817   0.698   7.190 -0.2031  0.1996  0.2464
  187POPC   NC3 2786   4.011   5.960   5.420 -0.0481 -0.0297 -0.0701
  187POPC   PO4 2787   4.427   5.976   5.154  0.1766  0.0229  0.0103
  187POPC   GL1 2788   4.516   6.212   5.612 -0.2058 -0.2174 -0.0207
  187POPC   GL2 2789   4.760   5.996   5.821  0.1733  0.1683  0.0028
  187POPC   C1A 2790   4.537   6.396   6.035 -0.0215 -0.0153 -0.0423
  187POPC   D2A 2791   4.888   6.439   6.346  0.1552 -0.1611 -0.1413
  187POPC   C3A 2792   5.301   6.211   6.558  0.2523 -0.4226 -0.0871
  187POPC   C4A 2793   5.558   5.886   6.719  0.3755  0.1985  0.0656
  187POPC   C1B 2794   4.888   5.930   6.276 -0.0921 -0.1835 -0.0913
  187POPC   C2B 2795   5.013   5.808   6.702 -0.3080  0.0298 -0.0171
  187POPC   C3B 2796   4.920   5.927   7.113 -0.2478  0.1073 -0.1636
  187POPC   C4B 2797   4.828   5.710   7.572  0.1297  0.0564 -0.2338
  188POPC   NC3 2798   0.808   2.624   5.027  0.3041 -0.0476 -0.0351
  188POPC   PO4 2799   0.640   2.623   5.410 -0.1720 -0.1124 -0.0608
  188POPC   GL1 2800   0.575   2.534   5.773 -0.1891 -0.0371 -0.0354
  188POPC   GL2 2801   0.455   2.762   5.936 -0.0293  0.0982  0.0001
  188POPC   C1A 2802   0.704   2.288   6.175 -0.0479  0.1459 -0.0774
  188POPC   D2A 2803   0.600   2.269   6.575 -0.3882 -0.0271 -0.4047
  188POPC   C3A 2804   0.400   2.180   6.959  0.0182 -0.1233  0.1113
  188POPC   C4A 2805   0.337   2.516   7.276 -0.1567  0.2434 -0.0431
  188POPC   C1B 2806   0.441   2.662   6.349  0.3758  0.0581  0.0569
  188POPC   C2B 2807   0.694   2.716   6.779 -0.1156 -0.0411 -0.0576
  188POPC   C3B 2808   1.010   2.821   7.053 -0.0998 -0.0608 -0.0203
  188POPC   C4B 2809   1.188   3.051   7.424 -0.1434 -0.1276 -0.2383
  189POPC   NC3 2810   5.381   4.566   4.913  0.0597  0.2864 -0.1210
  189POPC   PO4 2811   5.599   4.641   5.226 -0.1193 -0.1200  0.0377
  189POPC   GL1 2812   5.495   4.878   5.574 -0.2225 -0.2214 -0.0013
  189POPC   GL2 2813   5.514   5.237   5.573  0.2059  0.3794 -0.1256
  189POPC   C1A 2814   5.224   5.016   5.895 -0.2483 -0.2204 -0.1821
  189POPC   D2A 2815   4.846   5.041   6.120  0.0139 -0.1245  0.0821
  189POPC   C3A 2816   4.809   4.845   6.552 -0.0135  0.0259  0.1787
  189POPC   C4A 2817   4.619   4.576   7.005 -0.1014  0.0105  0.2093
  189POPC   C1B 2818   5.607   5.311   6.049  0.4807  0.0401 -0.2411
  189POPC   C2B 2819   5.749   5.188   6.445  0.1939 -0.1054  0.2305
  189POPC   C3B 2820   5.574   5.352   6.881 -0.2854 -0.0866 -0.0117
  189POPC   C4B 2821   5.277   5.604   7.095  0.3311 -0.0460 -0.2061
  190POPC   NC3 2822   7.906   3.017   5.160 -0.1988 -0.5166  0.1181
  190POPC   PO4 2823   7.875   3.511   5.293  0.1047  0.1714  0.1865
  190POPC   GL1 2824   7.926   3.639   5.758 -0.3126 -0.0162  0.2181
  190POPC   GL2 2825   7.886   3.991   5.779 -0.2212 -0.1952 -0.1518
  190POPC   C1A 2826   8.203   3.654   6.093 -0.0554 -0.1212 -0.0432
  190POPC   D2A 2827   8.102   3.552   6.546  0.2081  0.1188 -0.1186
  190POPC   C3A 2828   7.863   3.122   6.677  0.0635 -0.0220  0.2484
  190POPC   C4A 2829   7.656   2.703   6.702 -0.2670 -0.2536 -0.2176
  190POPC   C1B 2830   7.507   4.184   6.008 -0.0577  0.1461  0.0876
  190POPC   C2B 2831   7.344   4.150   6.331 -0.3863  0.1813 -0.2042
  190POPC   C3B 2832   7.465   4.329   6.707  0.1628 -0.1027  0.3040
  190POPC   C4B 2833   7.632   4.376   7.069  0.0751  0.2200 -0.3097
  191POPC   NC3 2834   7.666   6.106   4.703  0.2777  0.2361  0.1939
  191POPC   PO4 2835   7.242   6.217   4.712 -0.0081  0.0390 -0.1327
  191POPC   GL1 2836   7.367   6.446   5.120  0.0742  0.1216  0.1639
  191POPC   GL2 2837   7.606   6.578   4.883 -0.2284 -0.1835  0.0549
  191POPC   C1A 2838   7.281   6.409   5.544 -0.3798  0.2051  0.0028
  191POPC   D2A 2839   7.025   6.345   5.947 -0.4407 -0.2903  0.1985
  191POPC   C3A 2840   7.208   6.036   6.247 -0.1825  0.0176  0.0443
  191POPC   C4A 2841   6.998   5.768   6.514 -0.0996  0.2253  0.1362
  191POPC   C1B 2842   7.604   6.871   5.140  0.1413  0.1301 -0.2994
  191POPC   C2B 2843   7.526   7.147   5.310  0.3209 -0.2725 -0.0747
  191POPC   C3B 2844   7.286   7.494   5.483  0.0526 -0.1340 -0.0857
  191POPC   C4B 2845   6.960   7.624   5.856 -0.0341  0.0661  0.0596
  192POPC   NC3 2846   7.163   7.800   3.759 -0.1929 -0.0633  0.0638
  192POPC   PO4 2847   7.407   7.917   4.061 -0.3708  0.3343 -0.0068
  192POPC   GL1 2848   7.831   7.811   4.203  0.0523 -0.2430  0.3058
  192POPC   GL2 2849   7.835   7.581   4.439 -0.1394  0.1114 -0.2379
  192POPC   C1A 2850   8.269   7.785   4.283 -0.3024  0.2353 -0.1984
  192POPC   D2A 2851   8.625   7.837   4.547  0.1222 -0.1627 -0.1811
  192POPC   C3A 2852   8.771   8.210   4.373 -0.0983 -0.0148  0.3895
  192POPC   C4A 2853   9.112   8.337   4.442  0.0202 -0.0497 -0.3449
  192POPC   C1B 2854   8.038   7.789   4.716  0.1997  0.2776 -0.0520
  192POPC   C2B 2855   8.067   7.717   5.143 -0.3072  0.2196  0.1390
  192POPC   C3B 2856   7.825   7.437   5.530 -0.0517 -0.2862 -0.0680
  192POPC   C4B 2857   7.491   7.202   5.839 -0.2257 -0.0877  0.0540
  193POPC   NC3 2858   9.417   2.991   5.523 -0.2837  0.0559 -0.0879
  193POPC   PO4 2859   9.298   3.428   5.478 -0.0720 -0.2363 -0.0141
  193POPC   GL1 2860   9.538   3.649   5.719  0.1137  0.0701  0.1063
  193POPC   GL2 2861   9.587   3.988   5.701 -0.1329  0.2862  0.0961
  193POPC   C1A 2862   9.677   3.778   6.144  0.1089 -0.2250 -0.0670
  193POPC   D2A 2863   9.684   3.549   6.509 -0.0520  0.1963  0.0716
  193POPC   C3A 2864   9.782   3.580   6.881  0.0289 -0.1922  0.0999
  193POPC   C4A 2865  10.029   3.572   7.182 -0.2396 -0.0095  0.2173
  193POPC   C1B 2866   9.655   4.288   6.018 -0.0516  0.1167 -0.1072
  193POPC   C2B 2867   9.846   4.165   6.421  0.1171 -0.1785 -0.2343
  193POPC   C3B 2868   9.937   4.039   6.847 -0.0300  0.1444  0.3894
  193POPC   C4B 2869   9.617   4.052   7.151  0.0448  0.1834 -0.0583
  194POPC   NC3 2870   3.716   7.612   4.672  0.3137  0.1359 -0.0480
  194POPC   PO4 2871   3.654   7.749   5.036  0.0634 -0.2144 -0.1690
  194POPC   GL1 2872   3.874   7.715   5.457 -0.2475  0.0721  0.0886
  194POPC   GL2 2873   3.798   7.949   5.693  0.2106 -0.0929  0.0077
  194POPC   C1A 2874   3.815   7.459   5.856  0.0661 -0.0504  0.0471
  194POPC   D2A 2875   3.731   7.284   6.234  0.0883  0.0630  0.2742
  194POPC   C3A 2876   3.836   7.332   6.698 -0.1450  0.1789  0.0980
  194POPC   C4A 2877   4.006   7.480   7.099 -0.2002 -0.0419 -0.0937
  194POPC   C1B 2878   3.580   7.994   6.065 -0.1801 -0.1843  0.0728
  194POPC   C2B 2879   3.386   8.219   6.472  0.4402  0.4377  0.2265
  194POPC   C3B 2880   3.143   8.173   6.830 -0.1167  0.1940  0.2777
  194POPC   C4B 2881   2.725   8.071   6.996 -0.2352 -0.0771 -0.3699
  195POPC   NC3 2882   3.215   1.404   5.051 -0.1090  0.0877  0.2803
  195POPC   PO4 2883   3.271   1.055   5.442 -0.1198  0.0197  0.0649
  195POPC   GL1 2884   3.319   1.229   5.735  0.3715 -0.2322 -0.1310
  195POPC   GL2 2885   3.021   1.330   5.886  0.2332  0.0015 -0.0603
  195POPC   C1A 2886   3.438   1.229   6.128 -0.2757  0.2203 -0.0853
  195POPC   D2A 2887   3.373   1.062   6.581 -0.0547 -0.4510  0.0578
  195POPC   C3A 2888   3.235   1.279   6.802  0.0587 -0.1680  0.0393
  195POPC   C4A 2889   2.949   1.505   7.092  0.1270  0.1374  0.2771
  195POPC   C1B 2890   2.760   1.353   6.256  0.0280  0.2760 -0.0406
  195POPC   C2B 2891   2.676   1.547   6.673  0.0284  0.0894  0.0420
  195POPC   C3B 2892   2.603   1.855   6.923 -0.2518  0.1575 -0.1962
  195POPC   C4B 2893   2.238   1.791   7.297 -0.3139  0.1976  0.0873
  196POPC   NC3 2894   2.838   7.604   5.236 -0.1299 -0.0539 -0.3514
  196POPC   PO4 2895   2.703   7.923   5.173 -0.0697  0.0553 -0.1099
  196POPC   GL1 2896   2.404   8.015   5.422 -0.1779  0.2122  0.1776
  196POPC   GL2 2897   2.216   8.090   5.227  0.0521  0.2077 -0.0684
  196POPC   C1A 2898   2.089   8.081   5.771 -0.2885 -0.2222 -0.2353
  196POPC   D2A 2899   1.688   8.059   5.977 -0.3783  0.3129 -0.2118
  196POPC   C3A 2900   1.507   7.538   5.985  0.1332 -0.3821  0.1414
  196POPC   C4A 2901   1.054   7.382   6.115 -0.4983 -0.2778 -0.2771
  196POPC   C1B 2902   1.970   8.454   5.524 -0.1821  0.0907  0.0312
  196POPC   C2B 2903   1.861   8.565   5.979  0.0261  0.4229  0.2792
  196POPC   C3B 2904   1.774   8.628   6.408 -0.3050  0.3367  0.3106
  196POPC   C4B 2905   1.975   8.475   6.836 -0.0188 -0.2151  0.2280
  197POPC   NC3 2906   1.943   1.190   5.301  0.1397  0.0829 -0.0320
  197POPC   PO4 2907   1.741   1.385   5.563  0.1352  0.2137  0.1661
  197POPC   GL1 2908   1.757   1.421   6.011 -0.0606 -0.2700 -0.3129
  197POPC   GL2 2909   1.916   1.758   6.059 -0.2262 -0.1567 -0.2100
  197POPC   C1A 2910   1.762   1.068   6.314  0.0127  0.0593  0.1438
  197POPC   D2A 2911   1.828   0.751   6.510 -0.2862 -0.1947 -0.0932
  197POPC   C3A 2912   1.634   0.723   6.879 -0.0374 -0.0213  0.0656
  197POPC   C4A 2913   1.266   0.811   7.044  0.0953  0.0261  0.2596
  197POPC   C1B 2914   1.671   1.633   6.454 -0.3302  0.0214 -0.2233
  197POPC   C2B 2915   1.597   1.463   6.789  0.0116  0.3191 -0.1028
  197POPC   C3B 2916   1.776   1.654   7.154 -0.1149  0.0295  0.0013
  197POPC   C4B 2917   1.715   1.926   7.437  0.1573 -0.0970 -0.3484
  198POPC   NC3 2918   2.797   3.370   5.750 -0.2153 -0.0420  0.3604
  198POPC   PO4 2919   3.040   3.538   5.596  0.3041 -0.0166  0.2667
  198POPC   GL1 2920   3.191   3.526   5.940 -0.3017 -0.1084 -0.0905
  198POPC   GL2 2921   3.207   3.218   5.979  0.0369  0.3178  0.1132
  198POPC   C1A 2922   3.375   3.576   6.349  0.0064  0.2897 -0.1801
  198POPC   D2A 2923   3.378   3.749   6.766 -0.0342  0.0078  0.0998
  198POPC   C3A 2924   3.037   3.812   7.086 -0.2479  0.0084  0.1202
  198POPC   C4A 2925   2.723   4.051   7.015 -0.1188  0.0775 -0.2064
  198POPC   C1B 2926   3.160   3.083   6.347 -0.1921 -0.0396 -0.0510
  198POPC   C2B 2927   3.105   2.636   6.520  0.0518 -0.3050  0.2441
  198POPC   C3B 2928   2.928   2.422   6.838 -0.2056  0.3459  0.0073
  198POPC   C4B 2929   3.100   2.040   7.085 -0.2298 -0.1517  0.1016
  199POPC   NC3 2930   8.165   3.801   4.749  0.0980  0.1152  0.2258
  199POPC   PO4 2931   8.344   3.811   5.127 -0.0568 -0.0046  0.3247
  199POPC   GL1 2932   8.379   3.701   5.523  0.1250  0.1727  0.0015
  199POPC   GL2 2933   8.467   4.076   5.665  0.0299 -0.0580  0.1795
  199POPC   C1A 2934   8.515   3.392   5.841  0.0657 -0.0974 -0.1309
  199POPC   D2A 2935   8.370   3.211   6.277  0.4265 -0.1320 -0.1740
  199POPC   C3A 2936   8.452   3.016   6.562  0.0518  0.1972  0.1284
  199POPC   C4A 2937   8.682   3.085   6.879  0.1138 -0.0418  0.1446
  199POPC   C1B 2938   8.245   4.170   6.017  0.0624  0.1091 -0.0277
  199POPC   C2B 2939   7.956   4.053   6.384 -0.0295 -0.1918  0.0270
  199POPC   C3B 2940   7.919   4.023   6.903 -0.0559 -0.1711  0.2512
  199POPC   C4B 2941   8.224   3.834   7.258 -0.3575 -0.0063  0.0697
  200POPC   NC3 2942   1.036   3.428   5.601  0.2800  0.1750 -0.1391
  200POPC   PO4 2943   0.950   3.925   5.824 -0.0370  0.2207  0.0992
  200POPC   GL1 2944   0.938   3.501   6.112  0.3707 -0.0512  0.0388
  200POPC   GL2 2945   0.621   3.258   5.947  0.3973  0.2271 -0.2668
  200POPC   C1A 2946   0.910   3.226   6.380 -0.1937 -0.1473 -0.0359
  200POPC   D2A 2947   0.827   3.214   6.812 -0.0976 -0.0034  0.0342
  200POPC   C3A 2948   0.635   3.584   6.945  0.0085 -0.0941  0.0753
  200POPC   C4A 2949   0.640   3.883   7.291 -0.1358 -0.0716  0.3337
  200POPC   C1B 2950   0.381   3.241   6.301  0.2567 -0.0526  0.0075
  200POPC   C2B 2951   0.373   3.144   6.642 -0.0255 -0.2423 -0.1358
  200POPC   C3B 2952   0.209   3.203   7.047  0.0080  0.2200  0.1462
  200POPC   C4B 2953   0.048   2.957   7.480 -0.0418 -0.0425 -0.0419
  201POPC   NC3 2954   4.219   6.427   5.050 -0.0000  0.2395 -0.1908
  201POPC   PO4 2955   3.929   6.452   5.307 -0.0003  0.0519  0.2925
  201POPC   GL1 2956   3.932   6.472   5.773  0.1536 -0.0696 -0.2213
  201POPC   GL2 2957   3.950   6.133   5.865  0.2146 -0.3244 -0.0765
  201POPC   C1A 2958   3.607   6.549   5.984  0.3282  0.0641 -0.1489
  201POPC   D2A 2959   3.243   6.457   6.284  0.3671 -0.1253  0.0055
  201POPC   C3A 2960   3.423   6.640   6.625 -0.1258 -0.0763 -0.1482
  201POPC   C4A 2961   3.554   6.287   6.946 -0.1261  0.1512 -0.2422
  201POPC   C1B 2962   4.212   6.000   6.224  0.1340  0.0980 -0.0844
  201POPC   C2B 2963   4.504   6.148   6.571 -0.0097 -0.0949  0.0253
  201POPC   C3B 2964   4.835   6.354   6.820  0.1365  0.0343  0.4102
  201POPC   C4B 2965   5.175   6.464   7.078  0.2472  0.0161 -0.2395
  202POPC   NC3 2966   7.900   6.984   4.235 -0.0928  0.1014 -0.2428
  202POPC   PO4 2967   7.502   6.843   4.460 -0.0734  0.0520  0.1020
  202POPC   GL1 2968   7.608   7.259   4.699  0.2378  0.0006 -0.3122
  202POPC   GL2 2969   7.522   7.562   4.865 -0.1544  0.2194 -0.2206
  202POPC   C1A 2970   8.004   7.218   4.965 -0.0491 -0.0751 -0.2576
  202POPC   D2A 2971   8.394   7.100   5.172  0.0393 -0.0421  0.1178
  202POPC   C3A 2972   8.450   7.400   5.441 -0.3617 -0.2625  0.4064
  202POPC   C4A 2973   8.565   7.781   5.391  0.0059 -0.4062 -0.2182
  202POPC   C1B 2974   7.540   7.818   5.220 -0.2210 -0.2392  0.1886
  202POPC   C2B 2975   7.863   8.041   5.541  0.1068 -0.0905 -0.1366
  202POPC   C3B 2976   8.257   8.177   5.383 -0.1711  0.1503 -0.0939
  202POPC   C4B 2977   8.771   8.322   5.381 -0.2239 -0.2065  0.2113
  203POPC   NC3 2978   8.365   5.886   5.108 -0.1867  0.1582  0.1239
  203POPC   PO4 2979   8.227   6.066   4.758  0.0675  0.0452  0.1079
  203POPC   GL1 2980   7.928   6.169   5.181  0.0161  0.2692 -0.0168
  203POPC   GL2 2981   7.766   6.065   5.475 -0.2372 -0.2817 -0.3277
  203POPC   C1A 2982   7.774   6.543   5.569 -0.2248 -0.0554  0.1075
  203POPC   D2A 2983   7.978   6.922   5.564 -0.0853  0.0087  0.0325
  203POPC   C3A 2984   7.983   7.017   5.854 -0.2936 -0.2128 -0.0965
  203POPC   C4A 2985   8.168   6.876   6.263 -0.0006 -0.0497 -0.0031
  203POPC   C1B 2986   8.010   6.063   5.878  0.0402  0.1627  0.1505
  203POPC   C2B 2987   8.032   5.991   6.250  0.1892 -0.0513 -0.2279
  203POPC   C3B 2988   7.655   6.227   6.439  0.0201  0.1581  0.1087
  203POPC   C4B 2989   7.291   6.534   6.381  0.0257  0.1175 -0.3152
  204POPC   NC3 2990   4.382   9.344   5.486 -0.1562  0.0448 -0.0294
  204POPC   PO4 2991   4.377   8.909   5.668 -0.1496  0.1253 -0.0699
  204POPC   GL1 2992   4.519   8.901   5.987 -0.0428  0.2419 -0.3334
  204POPC   GL2 2993   4.719   8.666   6.063 -0.0004  0.2763  0.0618
  204POPC   C1A 2994   4.367   8.580   6.368 -0.0051  0.0935  0.0436
  204POPC   D2A 2995   4.200   8.665   6.702  0.1057  0.4869  0.2130
  204POPC   C3A 2996   3.844   8.820   6.956 -0.0959 -0.1436  0.3135
  204POPC   C4A 2997   3.441   9.062   7.065  0.1815  0.0771  0.3568
  204POPC   C1B 2998   4.802   8.420   6.402 -0.2382  0.1559 -0.1477
  204POPC   C2B 2999   4.919   8.494   6.899 -0.0396  0.0903 -0.0083
  204POPC   C3B 3000   4.844   8.816   7.237  0.1252 -0.0579  0.1637
  204POPC   C4B 3001   4.706   9.272   7.364 -0.1479  0.0247 -0.4462
  205POPC   NC3 3002   0.422   1.461   4.866  0.4347  0.0431  0.0567
  205POPC   PO4 3003   0.336   1.775   5.052  0.0792 -0.0732 -0.3935
  205POPC   GL1 3004   0.198   1.534   5.412 -0.0117 -0.3459  0.2592
  205POPC   GL2 3005  -0.164   1.650   5.415  0.0832 -0.3148  0.2881
  205POPC   C1A 3006  -0.058   1.161   5.491  0.0176 -0.0023  0.1537
  205POPC   D2A 3007  -0.249   0.882   5.850  0.0436 -0.0395  0.3147
  205POPC   C3A 3008  -0.120   0.735   6.120  0.0171  0.0195  0.2047
  205POPC   C4A 3009   0.182   0.721   6.410 -0.0250 -0.2330  0.0864
  205POPC   C1B 3010  -0.175   1.509   5.839  0.0386  0.1815  0.0104
  205POPC   C2B 3011  -0.256   1.294   6.170  0.0762 -0.1339  0.4808
  205POPC   C3B 3012  -0.226   1.029   6.490  0.3167  0.2201  0.0044
  205POPC   C4B 3013  -0.249   0.659   6.655 -0.4507 -0.0059  0.2430
  206POPC   NC3 3014   5.783   3.745   5.145 -0.1462 -0.1120  0.0376
  206POPC   PO4 3015   5.558   4.136   5.316  0.0221  0.1162  0.1626
  206POPC   GL1 3016   5.584   4.365   5.653  0.1714  0.1049 -0.1164
  206POPC   GL2 3017   5.856   4.436   5.654  0.0432 -0.0987 -0.2401
  206POPC   C1A 3018   5.374   4.552   5.994  0.2095 -0.1750  0.0311
  206POPC   D2A 3019   5.134   4.590   6.232  0.0766  0.0808 -0.1721
  206POPC   C3A 3020   5.264   4.940   6.446 -0.0734  0.2820  0.1875
  206POPC   C4A 3021   5.593   4.877   6.828 -0.0522 -0.2156  0.0094
  206POPC   C1B 3022   5.841   4.892   5.945 -0.0015  0.0934  0.0376
  206POPC   C2B 3023   6.219   5.157   6.005 -0.1228  0.2869  0.0549
  206POPC   C3B 3024   6.540   5.417   5.936  0.3383 -0.0246 -0.1500
  206POPC   C4B 3025   6.887   5.625   6.073  0.1771 -0.2354  0.1514
  207POPC   NC3 3026   9.688   3.243   4.979  0.0629  0.0150 -0.5144
  207POPC   PO4 3027   9.831   3.273   5.446 -0.1526  0.1016  0.3507
  207POPC   GL1 3028   9.980   2.883   5.746  0.2024  0.1825 -0.2296
  207POPC   GL2 3029  10.186   3.052   6.009  0.3242  0.2393  0.1046
  207POPC   C1A 3030  10.166   2.479   6.008 -0.0707  0.0983  0.2742
  207POPC   D2A 3031  10.325   2.236   6.315 -0.0393  0.0181 -0.1722
  207POPC   C3A 3032  10.277   2.412   6.649 -0.2253  0.0834  0.1465
  207POPC   C4A 3033  10.077   2.670   6.946  0.0429 -0.1056 -0.0877
  207POPC   C1B 3034   9.834   3.257   6.070  0.2388 -0.0327  0.1616
  207POPC   C2B 3035   9.309   3.373   6.228 -0.3087 -0.4219  0.1315
  207POPC   C3B 3036   9.158   3.678   6.454  0.2068  0.0321  0.2524
  207POPC   C4B 3037   9.325   3.845   6.837  0.2245 -0.1718  0.1169
  208POPC   NC3 3038   8.407   1.577   4.823 -0.0473 -0.0416  0.1495
  208POPC   PO4 3039   8.724   1.888   5.040 -0.1711  0.2700 -0.0407
  208POPC   GL1 3040   8.629   1.757   5.485 -0.1474  0.0505 -0.1823
  208POPC   GL2 3041   8.359   1.792   5.534 -0.0970  0.1047 -0.1915
  208POPC   C1A 3042   8.987   1.622   5.845  0.0214  0.0918  0.0988
  208POPC   D2A 3043   9.177   1.405   6.201  0.2566  0.1299  0.0499
  208POPC   C3A 3044   9.559   1.493   6.468  0.0389 -0.1348 -0.2561
  208POPC   C4A 3045   9.770   1.454   6.781 -0.0922 -0.1775  0.0444
  208POPC   C1B 3046   8.488   1.639   5.974  0.1602  0.0528  0.4676
  208POPC   C2B 3047   8.796   1.708   6.277  0.1454  0.3877 -0.4593
  208POPC   C3B 3048   9.023   1.492   6.678  0.0744 -0.0367 -0.1567
  208POPC   C4B 3049   8.750   1.387   6.982  0.0701  0.5497 -0.2165
  209POPC   NC3 3050   0.591   0.936   4.394 -0.1267  0.0236  0.0488
  209POPC   PO4 3051   0.747   1.135   4.774 -0.0039 -0.0060 -0.1636
  209POPC   GL1 3052   0.686   1.224   5.274 -0.0585  0.0448 -0.1862
  209POPC   GL2 3053   0.776   1.595   5.372 -0.1867 -0.1667 -0.0272
  209POPC   C1A 3054   0.552   1.197   5.648  0.0815  0.0981  0.2545
  209POPC   D2A 3055   0.747   1.296   6.131  0.1610  0.2208 -0.0259
  209POPC   C3A 3056   0.501   1.306   6.516 -0.0755  0.1287  0.1244
  209POPC   C4A 3057   0.272   1.043   6.808  0.2682 -0.1127 -0.0591
  209POPC   C1B 3058   0.789   1.813   5.919  0.2022 -0.1784 -0.1053
  209POPC   C2B 3059   0.655   1.727   6.270  0.0553 -0.0130  0.1252
  209POPC   C3B 3060   0.322   1.837   6.537  0.0305 -0.1633 -0.0107
  209POPC   C4B 3061   0.060   1.539   6.577  0.1050  0.2003 -0.2217
  210POPC   NC3 3062   5.726   2.401   5.281 -0.0250  0.1279  0.2057
  210POPC   PO4 3063   5.827   2.430   5.787  0.1903  0.0180  0.0488
  210POPC   GL1 3064   5.811   2.455   6.183 -0.2981 -0.2231  0.0413
  210POPC   GL2 3065   6.153   2.327   6.200 -0.2187  0.1045 -0.1553
  210POPC   C1A 3066   5.885   2.648   6.540 -0.0490  0.1463  0.0078
  210POPC   D2A 3067   5.690   2.546   6.945 -0.1337  0.2421  0.1206
  210POPC   C3A 3068   5.735   2.193   7.332  0.0232 -0.2605  0.0666
  210POPC   C4A 3069   5.838   1.764   7.457  0.1279  0.1868  0.1085
  210POPC   C1B 3070   6.058   2.131   6.616  0.0458  0.1093  0.0713
  210POPC   C2B 3071   5.718   2.097   6.714 -0.0876  0.1132  0.1363
  210POPC   C3B 3072   5.354   2.092   6.898 -0.4373 -0.0871 -0.0464
  210POPC   C4B 3073   5.159   2.489   7.086 -0.1670 -0.0834 -0.0418
  211POPC   NC3 3074   0.053   9.723   3.541  0.0204 -0.1663  0.1139
  211POPC   PO4 3075   0.018   9.614   4.085 -0.1727  0.0425  0.0403
  211POPC   GL1 3076  -0.163   9.435   4.466 -0.0323 -0.1026  0.2317
  211POPC   GL2 3077  -0.491   9.483   4.348 -0.0750  0.1358  0.0992
  211POPC   C1A 3078  -0.308   9.469   4.890  0.2235  0.3118  0.3570
  211POPC   D2A 3079  -0.491   9.759   5.136  0.2132  0.1912  0.2437
  211POPC   C3A 3080  -0.213   9.926   5.408  0.1437  0.3470  0.1280
  211POPC   C4A 3081   0.237  10.037   5.481  0.1561 -0.0759 -0.2797
  211POPC   C1B 3082  -0.682   9.055   4.106  0.1474  0.0500  0.0251
  211POPC   C2B 3083  -0.864   8.568   4.041  0.0116 -0.0456 -0.3930
  211POPC   C3B 3084  -1.147   8.262   3.894 -0.1286 -0.2147 -0.0307
  211POPC   C4B 3085  -1.532   7.972   3.948  0.0943 -0.0486 -0.1330
  212POPC   NC3 3086   6.937   1.565   5.462 -0.2985 -0.4004  0.3372
  212POPC   PO4 3087   7.226   1.978   5.376  0.0961 -0.3439 -0.0054
  212POPC   GL1 3088   7.224   2.072   5.771  0.1069  0.1628  0.0662
  212POPC   GL2 3089   7.560   2.053   5.869 -0.2874 -0.0721  0.2128
  212POPC   C1A 3090   7.152   1.982   6.190 -0.1792 -0.0050  0.0086
  212POPC   D2A 3091   6.919   1.684   6.386  0.0701 -0.1681 -0.1134
  212POPC   C3A 3092   6.903   1.624   6.918  0.3322  0.0636  0.0191
  212POPC   C4A 3093   6.956   1.626   7.441 -0.2566 -0.3595  0.0148
  212POPC   C1B 3094   7.649   1.831   6.313 -0.2254  0.0533  0.1482
  212POPC   C2B 3095   7.787   1.628   6.692  0.2205 -0.2554 -0.0750
  212POPC   C3B 3096   7.833   1.449   7.029 -0.0980 -0.1098 -0.0060
  212POPC   C4B 3097   7.952   1.219   7.335 -0.3432 -0.3045 -0.3288
  213POPC   NC3 3098   2.394   6.685   5.158 -0.4979 -0.0250  0.0122
  213POPC   PO4 3099   2.176   7.117   5.137 -0.0416 -0.0101 -0.1395
  213POPC   GL1 3100   2.212   7.194   5.490 -0.1948  0.3263  0.0753
  213POPC   GL2 3101   2.377   6.888   5.623  0.0066 -0.1105 -0.0908
  213POPC   C1A 3102   2.578   7.302   5.805  0.1596 -0.0620  0.1893
  213POPC   D2A 3103   2.900   7.283   6.195 -0.1413 -0.1936  0.1666
  213POPC   C3A 3104   3.010   7.513   6.505 -0.0606  0.1977 -0.0625
  213POPC   C4A 3105   3.098   7.587   6.926  0.0551  0.1723  0.1949
  213POPC   C1B 3106   2.435   6.882   6.009 -0.2147  0.3690  0.0713
  213POPC   C2B 3107   2.509   7.025   6.376 -0.0272 -0.3463  0.0660
  213POPC   C3B 3108   2.777   7.160   6.798  0.1544  0.2891 -0.0607
  213POPC   C4B 3109   2.779   6.950   7.196 -0.2364  0.0293  0.3072
  214POPC   NC3 3110   6.778   9.048   3.480  0.0477  0.2257 -0.1342
  214POPC   PO4 3111   7.031   8.967   3.913 -0.1899  0.0612  0.1496
  214POPC   GL1 3112   7.278   9.114   4.170  0.0848 -0.4129 -0.1216
  214POPC   GL2 3113   7.577   9.147   4.245 -0.0240  0.3681 -0.0437
  214POPC   C1A 3114   7.284   9.172   4.622  0.2462  0.0028 -0.1249
  214POPC   D2A 3115   7.656   9.358   5.032  0.1748  0.1380  0.1209
  214POPC   C3A 3116   7.564   9.408   5.452  0.2842 -0.2168  0.0865
  214POPC   C4A 3117   7.389   9.415   5.879  0.1166 -0.1348 -0.0714
  214POPC   C1B 3118   7.437   8.757   4.418  0.1055  0.4135  0.0674
  214POPC   C2B 3119   7.592   8.434   4.743 -0.2401  0.2052 -0.0968
  214POPC   C3B 3120   7.450   8.507   5.221 -0.1025 -0.0967  0.0249
  214POPC   C4B 3121   7.335   8.287   5.516 -0.1394  0.1045 -0.2177
  215POPC   NC3 3122   2.968   4.050   5.351 -0.1537  0.0249  0.0352
  215POPC   PO4 3123   2.681   3.796   5.387 -0.0480  0.1946  0.0262
  215POPC   GL1 3124   2.720   4.053   5.759  0.3331 -0.3632 -0.1498
  215POPC   GL2 3125   2.871   3.909   5.902  0.0585  0.1014 -0.2980
  215POPC   C1A 3126   2.714   4.248   6.210  0.0435 -0.0227  0.4694
  215POPC   D2A 3127   2.537   4.230   6.533  0.0676  0.3051  0.0200
  215POPC   C3A 3128   2.716   4.622   6.930 -0.1275 -0.0366  0.4915
  215POPC   C4A 3129   3.100   4.758   6.899  0.0124 -0.1803  0.0708
  215POPC   C1B 3130   2.930   3.858   6.378 -0.0618 -0.1700  0.1034
  215POPC   C2B 3131   2.901   3.664   6.596  0.1253 -0.0668 -0.0822
  215POPC   C3B 3132   3.034   3.365   6.849 -0.1071  0.1763  0.0943
  215POPC   C4B 3133   2.968   3.243   7.241  0.0322  0.0237 -0.3619
  216POPC   NC3 3134   5.915   7.219   4.796  0.0669 -0.2194 -0.1740
  216POPC   PO4 3135   5.785   7.644   4.876  0.1817  0.1983 -0.0437
  216POPC   GL1 3136   5.899   7.903   5.250  0.0803  0.0339  0.0287
  216POPC   GL2 3137   6.088   8.213   5.387 -0.0860 -0.0377 -0.2206
  216POPC   C1A 3138   5.847   7.889   5.681 -0.2063 -0.1073 -0.3142
  216POPC   D2A 3139   5.915   7.776   6.094  0.2350  0.0666 -0.0197
  216POPC   C3A 3140   5.986   7.650   6.467  0.2501  0.0229 -0.0052
  216POPC   C4A 3141   5.904   7.467   6.826 -0.3521 -0.0710 -0.0638
  216POPC   C1B 3142   6.489   8.451   5.525  0.0363 -0.2686 -0.1955
  216POPC   C2B 3143   6.680   8.467   5.901 -0.0998 -0.0766  0.0575
  216POPC   C3B 3144   7.140   8.609   6.083  0.1213 -0.0872  0.1132
  216POPC   C4B 3145   7.227   8.972   6.172 -0.1524 -0.0659 -0.3835
  217POPC   NC3 3146   0.103   5.384   4.570 -0.2779 -0.1249 -0.2094
  217POPC   PO4 3147   0.457   5.493   4.837  0.0338 -0.2240  0.2903
  217POPC   GL1 3148   0.550   5.536   5.243  0.0115 -0.1523  0.1800
  217POPC   GL2 3149   0.673   5.370   5.434 -0.2037  0.2843  0.0253
  217POPC   C1A 3150   0.442   5.900   5.543 -0.3294  0.2621  0.2097
  217POPC   D2A 3151   0.192   6.115   5.880  0.0836  0.0360 -0.2211
  217POPC   C3A 3152   0.077   6.506   5.898 -0.1751  0.0709  0.1984
  217POPC   C4A 3153  -0.113   6.863   5.855  0.0226 -0.1873  0.0180
  217POPC   C1B 3154   0.260   5.253   5.532  0.0369  0.1920  0.1809
  217POPC   C2B 3155   0.024   5.462   5.853 -0.0341  0.1937 -0.3402
  217POPC   C3B 3156  -0.174   5.812   5.984 -0.1894  0.0779  0.1372
  217POPC   C4B 3157  -0.278   6.146   6.213  0.1440  0.1183 -0.1068
  218POPC   NC3 3158   1.664   7.777   4.326 -0.1652 -0.1075  0.2387
  218POPC   PO4 3159   1.630   7.338   4.172  0.1580  0.1182  0.1132
  218POPC   GL1 3160   1.417   7.437   4.580 -0.1349 -0.0698  0.0768
  218POPC   GL2 3161   1.580   7.602   4.849  0.4123  0.0140 -0.2184
  218POPC   C1A 3162   1.042   7.549   4.756  0.0736 -0.2571 -0.0476
  218POPC   D2A 3163   0.613   7.556   4.625 -0.1769 -0.2270  0.2076
  218POPC   C3A 3164   0.406   7.749   4.279  0.0936 -0.1199 -0.3261
  218POPC   C4A 3165   0.080   7.985   4.224  0.0125  0.2304 -0.0349
  218POPC   C1B 3166   1.387   7.605   5.191  0.1442 -0.0665 -0.1748
  218POPC   C2B 3167   1.362   7.916   5.598 -0.0202 -0.2555 -0.0270
  218POPC   C3B 3168   1.455   8.314   5.629 -0.0166 -0.2466  0.0333
  218POPC   C4B 3169   1.422   8.769   5.599 -0.1538 -0.1385  0.0857
  219POPC   NC3 3170   4.243   3.635   4.914 -0.0818  0.1253  0.0299
  219POPC   PO4 3171   4.358   4.090   5.013 -0.0112 -0.0483 -0.1929
  219POPC   GL1 3172   4.310   4.057   5.440  0.3615  0.0316 -0.2523
  219POPC   GL2 3173   3.990   3.968   5.535 -0.0492 -0.0638 -0.0735
  219POPC   C1A 3174   4.475   4.163   5.861 -0.0185 -0.0555  0.2330
  219POPC   D2A 3175   4.882   4.115   6.112  0.2180 -0.1585 -0.2452
  219POPC   C3A 3176   4.915   4.154   6.490 -0.0591  0.2981  0.0287
  219POPC   C4A 3177   4.780   4.040   6.966  0.2526  0.0358 -0.0165
  219POPC   C1B 3178   4.036   3.923   5.887  0.0980  0.4086 -0.2262
  219POPC   C2B 3179   4.002   3.642   6.243  0.1423  0.2081 -0.0469
  219POPC   C3B 3180   3.891   3.714   6.635 -0.0166  0.1013 -0.1519
  219POPC   C4B 3181   3.881   3.964   6.944 -0.2214  0.1159 -0.1873
  220POPC   NC3 3182   6.483   5.971   5.040  0.0487  0.0602 -0.2206
  220POPC   PO4 3183   6.066   6.048   5.269 -0.2269  0.1380  0.1007
  220POPC   GL1 3184   6.176   6.389   5.595 -0.1289 -0.1159  0.1061
  220POPC   GL2 3185   6.543   6.411   5.613  0.0828 -0.0793 -0.0544
  220POPC   C1A 3186   6.252   6.489   6.089 -0.1741  0.2022 -0.2147
  220POPC   D2A 3187   6.289   6.264   6.504  0.4715 -0.4854 -0.0118
  220POPC   C3A 3188   6.034   5.988   6.810  0.0082 -0.0607 -0.4138
  220POPC   C4A 3189   5.884   5.682   7.055 -0.2788  0.4016  0.2762
  220POPC   C1B 3190   6.751   6.852   5.415 -0.1534  0.3284  0.3892
  220POPC   C2B 3191   7.051   7.080   5.714  0.0495  0.0716 -0.2417
  220POPC   C3B 3192   7.369   6.712   5.897  0.0295 -0.1195  0.1065
  220POPC   C4B 3193   7.641   6.866   6.235  0.2109  0.1706 -0.0402
  221POPC   NC3 3194   1.037   4.204   4.923 -0.0574 -0.0018  0.5161
  221POPC   PO4 3195   1.196   4.252   5.383  0.2186  0.2599  0.0387
  221POPC   GL1 3196   0.997   4.410   5.731 -0.1809  0.0885  0.2029
  221POPC   GL2 3197   1.312   4.396   5.925  0.1200 -0.1819 -0.2030
  221POPC   C1A 3198   0.893   4.678   6.163 -0.0417 -0.0352 -0.0064
  221POPC   D2A 3199   0.906   4.946   6.485 -0.1505 -0.2051  0.1727
  221POPC   C3A 3200   0.796   5.381   6.229 -0.5527 -0.0290 -0.1056
  221POPC   C4A 3201   0.576   5.487   5.859 -0.0671 -0.1566 -0.0581
  221POPC   C1B 3202   1.376   4.724   6.244  0.0509  0.0432 -0.1826
  221POPC   C2B 3203   1.383   5.155   6.503  0.3210 -0.1809  0.3510
  221POPC   C3B 3204   1.817   5.400   6.627 -0.0867 -0.0094 -0.0590
  221POPC   C4B 3205   1.920   5.782   6.942  0.2698 -0.1386  0.1516
  222POPC   NC3 3206   7.634   1.121   4.968  0.3475 -0.1789 -0.1133
  222POPC   PO4 3207   7.955   1.445   5.046 -0.1275  0.0284 -0.0847
  222POPC   GL1 3208   8.015   1.414   5.421  0.2805  0.0871 -0.1073
  222POPC   GL2 3209   7.844   1.637   5.490  0.3161  0.1457  0.2326
  222POPC   C1A 3210   8.162   1.274   5.769  0.1701 -0.0040 -0.0092
  222POPC   D2A 3211   8.019   0.941   5.954  0.2591 -0.0672  0.3287
  222POPC   C3A 3212   7.793   1.041   6.351 -0.0696  0.0677 -0.3276
  222POPC   C4A 3213   7.830   1.040   6.773  0.1361  0.1299 -0.1237
  222POPC   C1B 3214   8.021   1.884   5.892  0.1646 -0.1997  0.2031
  222POPC   C2B 3215   8.163   2.027   6.266  0.0082 -0.0623 -0.0615
  222POPC   C3B 3216   8.321   1.803   6.551 -0.1891  0.2281  0.3019
  222POPC   C4B 3217   8.334   1.611   7.058  0.0236  0.3296 -0.4966
  223POPC   NC3 3218   6.645   0.096   4.857  0.0953 -0.0755 -0.0119
  223POPC   PO4 3219   6.468   0.328   5.028  0.1850 -0.1652  0.0921
  223POPC   GL1 3220   6.521   0.005   5.441  0.1001  0.0151 -0.1610
  223POPC   GL2 3221   6.448  -0.274   5.356 -0.0492 -0.0481 -0.0157
  223POPC   C1A 3222   6.478   0.102   5.783  0.2708 -0.2671 -0.2279
  223POPC   D2A 3223   6.677   0.361   6.100 -0.2424  0.0183  0.1356
  223POPC   C3A 3224   6.756   0.873   6.113  0.2461  0.0780 -0.2427
  223POPC   C4A 3225   7.084   1.072   6.009 -0.2262 -0.3178  0.1758
  223POPC   C1B 3226   6.572  -0.391   5.804 -0.1664 -0.0112 -0.3456
  223POPC   C2B 3227   6.728  -0.126   6.129  0.1693  0.2218 -0.0705
  223POPC   C3B 3228   6.905   0.106   6.520  0.0387 -0.1134 -0.0146
  223POPC   C4B 3229   6.595   0.323   6.748 -0.1195  0.0197  0.0251
  224POPC   NC3 3230   1.661   8.999   3.769  0.0943 -0.1665  0.0947
  224POPC   PO4 3231   1.585   8.664   4.148 -0.0142 -0.2999  0.0646
  224POPC   GL1 3232   1.397   8.263   4.499 -0.0536 -0.0046 -0.0140
  224POPC   GL2 3233   1.576   8.203   4.750  0.3821  0.0365 -0.3034
  224POPC   C1A 3234   1.000   7.982   4.477  0.2635  0.0377 -0.1469
  224POPC   D2A 3235   0.673   7.966   4.833 -0.2896  0.2507  0.1548
  224POPC   C3A 3236   0.382   7.712   5.071  0.1587 -0.0491  0.1757
  224POPC   C4A 3237   0.250   7.588   5.461  0.1098 -0.1561 -0.0755
  224POPC   C1B 3238   1.242   8.043   4.985  0.4017  0.0723  0.0010
  224POPC   C2B 3239   0.973   7.940   5.217 -0.2513  0.4127 -0.1841
  224POPC   C3B 3240   0.825   8.350   5.371 -0.1941 -0.0835 -0.1640
  224POPC   C4B 3241   0.655   8.665   5.432  0.1487 -0.6811 -0.1335
  225POPC   NC3 3242   1.282   6.999   4.366  0.0858  0.1477 -0.0991
  225POPC   PO4 3243   1.634   6.808   4.496  0.0682 -0.0962  0.2733
  225POPC   GL1 3244   1.426   6.830   4.855 -0.0479 -0.1166  0.2376
  225POPC   GL2 3245   1.563   7.111   4.988  0.2438  0.0273  0.1686
  225POPC   C1A 3246   1.397   6.740   5.326 -0.1617 -0.0240 -0.1284
  225POPC   D2A 3247   1.219   6.629   5.765 -0.2562  0.0133  0.1023
  225POPC   C3A 3248   1.023   7.031   5.760  0.0719  0.2032 -0.1404
  225POPC   C4A 3249   1.170   7.446   5.639 -0.2185 -0.1040  0.2023
  225POPC   C1B 3250   1.099   7.160   5.215  0.3327  0.0391  0.0876
  225POPC   C2B 3251   0.610   7.265   5.008  0.3665  0.0649  0.0304
  225POPC   C3B 3252   0.194   7.243   4.973  0.1026 -0.4631  0.2929
  225POPC   C4B 3253  -0.099   7.182   5.317 -0.1248  0.2352 -0.1697
  226POPC   NC3 3254   7.843   8.158   3.791  0.0466  0.1485 -0.0484
  226POPC   PO4 3255   7.843   8.456   3.443 -0.0114  0.0605  0.0404
  226POPC   GL1 3256   8.046   8.582   3.819  0.0982  0.0789  0.0702
  226POPC   GL2 3257   8.283   8.838   3.840  0.0746 -0.0853  0.0590
  226POPC   C1A 3258   8.020   8.770   4.226  0.1307  0.3229 -0.0392
  226POPC   D2A 3259   8.009   8.736   4.703  0.1850 -0.2579  0.3128
  226POPC   C3A 3260   7.558   8.888   4.915 -0.4411  0.0293 -0.1159
  226POPC   C4A 3261   7.127   8.715   4.854 -0.1340 -0.0572 -0.1426
  226POPC   C1B 3262   8.457   9.021   4.222 -0.2094  0.0833  0.0833
  226POPC   C2B 3263   8.666   9.130   4.680  0.3042  0.3135 -0.0552
  226POPC   C3B 3264   8.646   8.881   4.999  0.1700 -0.1390  0.1433
  226POPC   C4B 3265   8.379   8.553   5.142 -0.2175  0.1019  0.0307
  227POPC   NC3 3266   2.532   9.803   4.509 -0.0783  0.2328 -0.2338
  227POPC   PO4 3267   2.314   9.692   4.889 -0.1968 -0.1839  0.1576
  227POPC   GL1 3268   2.235   9.675   5.342 -0.3597 -0.0837 -0.1294
  227POPC   GL2 3269   2.019   9.484   5.431 -0.0416  0.1637  0.0507
  227POPC   C1A 3270   2.247   9.660   5.811 -0.0115  0.1837 -0.2690
  227POPC   D2A 3271   2.387   9.334   6.176  0.3603 -0.1061 -0.1354
  227POPC   C3A 3272   2.705   9.494   6.488 -0.0041 -0.1056  0.0961
  227POPC   C4A 3273   3.049   9.777   6.423  0.1216  0.3538 -0.0479
  227POPC   C1B 3274   1.783   9.508   5.799  0.1487  0.2412  0.1225
  227POPC   C2B 3275   1.677   9.210   6.116 -0.0593 -0.1255 -0.0397
  227POPC   C3B 3276   1.489   8.843   6.087 -0.2913  0.0855  0.1729
  227POPC   C4B 3277   1.407   8.407   6.178 -0.1148  0.3488  0.1752
  228POPC   NC3 3278   6.693   9.730   4.517  0.4117 -0.1162  0.0696
  228POPC   PO4 3279   6.986  10.076   4.564  0.1652 -0.2118 -0.0319
  228POPC   GL1 3280   7.255   9.938   4.857  0.4005 -0.1408 -0.1919
  228POPC   GL2 3281   6.976   9.802   5.055 -0.0709 -0.1244  0.0473
  228POPC   C1A 3282   7.500   9.876   5.227 -0.1319 -0.3966 -0.0236
  228POPC   D2A 3283   7.430   9.900   5.614  0.1706 -0.1589 -0.1617
  228POPC   C3A 3284   7.273   9.885   6.071  0.2633 -0.2338  0.0162
  228POPC   C4A 3285   7.296   9.965   6.470  0.0546 -0.1228  0.0960
  228POPC   C1B 3286   7.089   9.346   5.092  0.0099 -0.0014 -0.2969
  228POPC   C2B 3287   7.259   9.047   5.356 -0.2227  0.1996 -0.1618
  228POPC   C3B 3288   7.501   8.948   5.698 -0.0067  0.2703 -0.2457
  228POPC   C4B 3289   7.711   8.919   6.065 -0.2869  0.1303 -0.1485
  229POPC   NC3 3290   5.229   1.150   5.399  0.2105  0.2533 -0.2052
  229POPC   PO4 3291   5.622   1.171   5.681  0.4175  0.0030 -0.0650
  229POPC   GL1 3292   5.749   1.217   6.078  0.0687 -0.0293 -0.0184
  229POPC   GL2 3293   5.575   1.509   6.162 -0.1524 -0.2350 -0.1297
  229POPC   C1A 3294   6.190   1.209   6.337  0.2753  0.0357  0.0057
  229POPC   D2A 3295   6.434   0.741   6.531  0.1866 -0.0884 -0.0119
  229POPC   C3A 3296   6.899   0.790   6.667  0.1187  0.2372 -0.0240
  229POPC   C4A 3297   7.323   0.858   6.372 -0.4083  0.3817 -0.2180
  229POPC   C1B 3298   5.376   1.647   6.499  0.2838 -0.3561 -0.4267
  229POPC   C2B 3299   5.171   1.590   6.804 -0.1299 -0.2935  0.1115
  229POPC   C3B 3300   5.184   1.693   7.368 -0.0008  0.0171  0.0844
  229POPC   C4B 3301   5.093   1.853   7.749  0.0573  0.1771 -0.1679
  230POPC   NC3 3302   5.658   8.292   5.152 -0.0583 -0.0520  0.1298
  230POPC   PO4 3303   5.977   8.570   5.071  0.1084 -0.1120  0.1375
  230POPC   GL1 3304   6.026   8.765   5.452 -0.0980 -0.1211 -0.0659
  230POPC   GL2 3305   5.834   8.546   5.636 -0.1876 -0.0970  0.0300
  230POPC   C1A 3306   5.975   9.067   5.714 -0.1330 -0.1041  0.1935
  230POPC   D2A 3307   5.936   9.444   5.965 -0.2094 -0.0353  0.0179
  230POPC   C3A 3308   5.755   9.547   6.326  0.0578  0.0365 -0.1306
  230POPC   C4A 3309   5.441   9.761   6.594  0.1739  0.3863  0.0450
  230POPC   C1B 3310   5.925   8.628   6.058  0.0182  0.0267  0.2790
  230POPC   C2B 3311   6.359   8.785   6.240 -0.0797 -0.1424 -0.3586
  230POPC   C3B 3312   6.713   8.929   6.211  0.0980  0.0115  0.0796
  230POPC   C4B 3313   6.954   9.237   6.481 -0.2009  0.1460 -0.0753
  231POPC   NC3 3314   6.380   8.905   4.421  0.0785 -0.0421 -0.1289
  231POPC   PO4 3315   6.303   9.300   4.616 -0.0357  0.1826  0.0152
  231POPC   GL1 3316   6.617   9.404   4.924 -0.3258  0.1099 -0.0687
  231POPC   GL2 3317   6.809   9.102   4.735  0.1699 -0.0362  0.0173
  231POPC   C1A 3318   6.672   9.471   5.400  0.1152 -0.0460  0.1305
  231POPC   D2A 3319   6.996   9.574   5.608  0.2175 -0.0193  0.2262
  231POPC   C3A 3320   6.917   9.517   6.043 -0.1422  0.1058  0.2163
  231POPC   C4A 3321   6.869   9.724   6.494  0.2026  0.2394 -0.1927
  231POPC   C1B 3322   6.789   8.997   5.203  0.0641  0.0368  0.0439
  231POPC   C2B 3323   6.523   8.944   5.534  0.0868  0.1679  0.2386
  231POPC   C3B 3324   6.446   9.344   5.859  0.4565  0.1224 -0.2166
  231POPC   C4B 3325   6.369   9.316   6.315 -0.0343 -0.3536  0.0518
  232POPC   NC3 3326   2.709   7.130   5.211 -0.1077 -0.1860  0.1940
  232POPC   PO4 3327   2.881   6.685   5.112 -0.1269 -0.2061 -0.2449
  232POPC   GL1 3328   2.946   6.832   5.652  0.0149  0.3518  0.1350
  232POPC   GL2 3329   3.099   7.198   5.741  0.4763  0.0525 -0.2615
  232POPC   C1A 3330   2.936   6.772   6.047 -0.3821 -0.0034 -0.1122
  232POPC   D2A 3331   2.931   6.757   6.515 -0.1619 -0.2608 -0.0588
  232POPC   C3A 3332   2.990   6.318   6.718  0.1238  0.2174  0.1348
  232POPC   C4A 3333   3.264   6.034   6.611  0.1361 -0.0892  0.1242
  232POPC   C1B 3334   3.310   7.527   6.043  0.0629 -0.0955 -0.2671
  232POPC   C2B 3335   3.473   7.734   6.460  0.0130 -0.0046 -0.1795
  232POPC   C3B 3336   3.727   7.897   6.861  0.2169  0.1824  0.0766
  232POPC   C4B 3337   4.039   8.168   7.084 -0.0941 -0.0065 -0.1882
  233POPC   NC3 3338   5.491   5.419   4.823 -0.1469 -0.1583  0.2266
  233POPC   PO4 3339   5.223   5.566   5.191  0.5662 -0.0512  0.4056
  233POPC   GL1 3340   5.245   5.660   5.687  0.0326  0.0372  0.1971
  233POPC   GL2 3341   5.254   5.961   5.703  0.1586  0.0030 -0.1413
  233POPC   C1A 3342   5.137   5.503   6.082  0.0883 -0.1066  0.0875
  233POPC   D2A 3343   5.288   5.433   6.477  0.0002  0.2000 -0.0160
  233POPC   C3A 3344   5.065   5.297   6.786 -0.0700  0.3488 -0.1032
  233POPC   C4A 3345   5.087   4.887   7.022  0.0981 -0.1537  0.1302
  233POPC   C1B 3346   5.498   5.889   6.097  0.0707 -0.0169 -0.0841
  233POPC   C2B 3347   5.848   5.640   6.371  0.1965  0.1835 -0.0083
  233POPC   C3B 3348   6.092   5.405   6.669  0.1995  0.0385 -0.3499
  233POPC   C4B 3349   6.574   5.515   6.785 -0.3151  0.3022  0.0558
  234POPC   NC3 3350   0.836   8.519   3.879 -0.1640  0.2135  0.0713
  234POPC   PO4 3351   0.683   8.982   4.010 -0.2604 -0.0278 -0.0989
  234POPC   GL1 3352   0.701   8.829   4.406 -0.1505 -0.0030  0.0250
  234POPC   GL2 3353   0.963   8.572   4.491  0.0510 -0.0346 -0.1352
  234POPC   C1A 3354   0.405   8.945   4.718 -0.2634 -0.1448  0.0235
  234POPC   D2A 3355  -0.001   9.053   4.858 -0.1281  0.0621  0.2342
  234POPC   C3A 3356  -0.103   9.020   5.236 -0.0685  0.0456  0.2680
  234POPC   C4A 3357  -0.142   8.924   5.663  0.1991  0.0974  0.0026
  234POPC   C1B 3358   0.930   8.940   4.846  0.2776 -0.2241  0.0014
  234POPC   C2B 3359   0.951   9.088   5.245  0.0320  0.4964  0.0288
  234POPC   C3B 3360   0.848   9.129   5.679  0.1611 -0.2490 -0.0061
  234POPC   C4B 3361   0.582   9.293   6.054 -0.2664 -0.2150  0.0012
  235POPC   NC3 3362  10.119   5.340   4.090  0.1041 -0.1158 -0.1183
  235POPC   PO4 3363  10.085   5.750   4.273 -0.2486 -0.0829  0.0644
  235POPC   GL1 3364   9.867   5.994   4.554 -0.1440 -0.2242  0.1000
  235POPC   GL2 3365   9.755   5.918   4.850 -0.0039 -0.3097  0.0873
  235POPC   C1A 3366   9.845   6.405   4.764 -0.3976  0.4073  0.2518
  235POPC   D2A 3367   9.971   6.676   5.057 -0.1071 -0.0997  0.2226
  235POPC   C3A 3368  10.088   6.493   5.411  0.1828  0.0942 -0.2669
  235POPC   C4A 3369   9.944   6.119   5.581  0.3275 -0.2838 -0.2816
  235POPC   C1B 3370   9.522   6.075   5.155 -0.4349  0.0150  0.2640
  235POPC   C2B 3371   9.407   6.245   5.479  0.1580 -0.1059 -0.1883
  235POPC   C3B 3372   9.386   6.159   5.932  0.0691  0.0418  0.0394
  235POPC   C4B 3373   9.486   5.724   6.184  0.0352  0.0003  0.3319
  236POPC   NC3 3374   3.885   1.388   5.170  0.0677 -0.1786 -0.0399
  236POPC   PO4 3375   3.877   1.796   5.353  0.3448  0.1098 -0.1016
  236POPC   GL1 3376   3.860   1.891   5.749 -0.0246 -0.0883 -0.1635
  236POPC   GL2 3377   3.593   1.856   5.883 -0.0819 -0.3297  0.3788
  236POPC   C1A 3378   4.220   1.969   6.003  0.0507 -0.0535  0.0826
  236POPC   D2A 3379   4.629   1.863   5.990 -0.0814  0.0092  0.1162
  236POPC   C3A 3380   4.872   1.554   6.330 -0.0024  0.1415  0.1783
  236POPC   C4A 3381   4.707   1.449   6.739  0.1171 -0.0733  0.2027
  236POPC   C1B 3382   3.737   1.867   6.365  0.1138 -0.2928  0.0321
  236POPC   C2B 3383   3.978   2.164   6.507  0.1124  0.3962 -0.0576
  236POPC   C3B 3384   4.032   2.263   6.892  0.1012  0.0984 -0.0731
  236POPC   C4B 3385   3.998   2.412   7.272  0.1831 -0.0945  0.0805
  237POPC   NC3 3386   7.372   3.608   4.995  0.1728  0.0142  0.1615
  237POPC   PO4 3387   7.437   3.176   5.027 -0.0627 -0.0660  0.0254
  237POPC   GL1 3388   7.555   3.180   5.479 -0.1136  0.1579 -0.1970
  237POPC   GL2 3389   7.882   2.850   5.594  0.0744 -0.4137 -0.1248
  237POPC   C1A 3390   7.396   3.148   5.896 -0.1979  0.0842 -0.2671
  237POPC   D2A 3391   7.268   3.293   6.279 -0.0167  0.1492  0.0653
  237POPC   C3A 3392   7.296   2.992   6.632  0.2195 -0.2303 -0.4125
  237POPC   C4A 3393   7.245   2.617   6.927  0.0846 -0.0851 -0.1195
  237POPC   C1B 3394   7.997   3.180   5.848  0.0899  0.1582  0.2361
  237POPC   C2B 3395   7.768   3.383   6.182 -0.1294  0.4665 -0.0756
  237POPC   C3B 3396   7.457   3.661   6.025 -0.0139  0.2306 -0.1319
  237POPC   C4B 3397   7.092   3.966   5.855 -0.2858  0.1049  0.0369
  238POPC   NC3 3398   0.035   2.148   4.838 -0.0512  0.0245 -0.1825
  238POPC   PO4 3399  -0.325   2.289   5.025  0.0974  0.1648  0.1117
  238POPC   GL1 3400  -0.325   2.187   5.412  0.1685 -0.4031  0.3579
  238POPC   GL2 3401  -0.331   2.421   5.546  0.1291 -0.0808  0.1464
  238POPC   C1A 3402  -0.207   2.029   5.891 -0.1534  0.2310 -0.1999
  238POPC   D2A 3403  -0.181   1.784   6.246  0.0513 -0.0086 -0.2115
  238POPC   C3A 3404  -0.245   1.972   6.746  0.0977  0.2778  0.0247
  238POPC   C4A 3405  -0.414   1.889   7.144  0.0496  0.3871  0.0699
  238POPC   C1B 3406   0.110   2.171   5.543 -0.0012 -0.0230 -0.0731
  238POPC   C2B 3407   0.272   1.964   5.862  0.1113  0.3914  0.1211
  238POPC   C3B 3408   0.332   1.568   5.925 -0.1153  0.0651  0.1468
  238POPC   C4B 3409   0.253   1.066   6.091  0.0902 -0.1996  0.3700
  239POPC   NC3 3410   7.661   2.178   5.434 -0.0397 -0.5203 -0.1638
  239POPC   PO4 3411   7.983   2.421   5.128  0.3307 -0.0121 -0.0540
  239POPC   GL1 3412   8.154   2.352   5.590  0.0716 -0.1300  0.0066
  239POPC   GL2 3413   7.980   2.402   5.865  0.0051 -0.1656 -0.1916
  239POPC   C1A 3414   8.548   2.154   5.874  0.3003  0.1988 -0.2095
  239POPC   D2A 3415   8.606   2.180   6.443  0.1445  0.0376  0.0300
  239POPC   C3A 3416   8.788   1.955   6.729 -0.0227  0.0774  0.2768
  239POPC   C4A 3417   8.933   1.862   6.997  0.1740  0.1190  0.0571
  239POPC   C1B 3418   7.792   2.339   6.240  0.2532 -0.0168 -0.0266
  239POPC   C2B 3419   7.846   2.153   6.616  0.1234  0.0572 -0.0873
  239POPC   C3B 3420   8.157   2.138   6.957  0.0402  0.0782 -0.0888
  239POPC   C4B 3421   8.513   2.085   7.157  0.0757  0.0811  0.1194
  240POPC   NC3 3422   2.809   0.804   5.294 -0.0467 -0.0905 -0.2645
  240POPC   PO4 3423   2.703   1.035   5.722 -0.0901  0.3413  0.1766
  240POPC   GL1 3424   2.981   0.702   5.753  0.3614  0.0044 -0.1000
  240POPC   GL2 3425   3.082   0.865   6.132  0.0771 -0.2441 -0.1540
  240POPC   C1A 3426   3.186   0.373   5.977 -0.0519 -0.1546 -0.1974
  240POPC   D2A 3427   3.300   0.054   6.319  0.4139 -0.0290 -0.1562
  240POPC   C3A 3428   3.182   0.088   6.723 -0.0007  0.0112 -0.1608
  240POPC   C4A 3429   3.169  -0.174   7.078 -0.0248 -0.0516  0.2212
  240POPC   C1B 3430   2.915   0.975   6.530  0.0966 -0.3180 -0.0142
  240POPC   C2B 3431   2.912   1.015   7.018 -0.1578 -0.2084  0.2673
  240POPC   C3B 3432   3.235   1.165   7.426 -0.1237 -0.0901 -0.0422
  240POPC   C4B 3433   3.292   1.293   7.875 -0.2873 -0.0187 -0.2677
  241POPC   NC3 3434   4.087   0.019   5.132  0.0671 -0.1013  0.2428
  241POPC   PO4 3435   4.290  -0.351   5.396  0.1570 -0.0510 -0.1376
  241POPC   GL1 3436   4.138  -0.389   5.788  0.2231  0.1382  0.0860
  241POPC   GL2 3437   4.271  -0.688   5.923 -0.0317  0.1787 -0.1636
  241POPC   C1A 3438   4.053  -0.182   6.099 -0.1981  0.2416  0.2540
  241POPC   D2A 3439   4.217   0.130   6.331  0.0600 -0.1260  0.1406
  241POPC   C3A 3440   4.160   0.371   6.780 -0.0002  0.1556 -0.3518
  241POPC   C4A 3441   3.899   0.638   7.160  0.0167  0.1185 -0.2962
  241POPC   C1B 3442   4.366  -0.422   6.394 -0.0045 -0.0543  0.1682
  241POPC   C2B 3443   4.131  -0.214   6.665 -0.1439  0.1072  0.0632
  241POPC   C3B 3444   3.906  -0.121   6.986  0.0912 -0.0021  0.0227
  241POPC   C4B 3445   3.990   0.163   7.294 -0.2204 -0.0402 -0.1814
  242POPC   NC3 3446   5.882   6.562   5.246 -0.0423  0.0118 -0.0218
  242POPC   PO4 3447   6.042   6.791   4.867  0.1382  0.1518 -0.2040
  242POPC   GL1 3448   6.082   6.997   5.353 -0.1064 -0.0381 -0.1807
  242POPC   GL2 3449   5.867   6.935   5.610  0.1110 -0.0215 -0.1486
  242POPC   C1A 3450   6.334   6.848   5.742  0.3525 -0.2380  0.1424
  242POPC   D2A 3451   6.674   6.725   5.954 -0.2755  0.3103 -0.2544
  242POPC   C3A 3452   6.974   6.816   6.187 -0.0514 -0.2939 -0.0742
  242POPC   C4A 3453   7.205   7.161   6.240 -0.2566  0.2940 -0.2923
  242POPC   C1B 3454   5.927   6.851   6.090 -0.0993 -0.1527 -0.2500
  242POPC   C2B 3455   5.992   6.717   6.497  0.0779 -0.0815 -0.0838
  242POPC   C3B 3456   6.151   6.609   6.817  0.1996  0.1233  0.0795
  242POPC   C4B 3457   6.319   6.413   7.175 -0.0313 -0.0321 -0.1323
  243POPC   NC3 3458   2.654   4.829   5.096 -0.1750 -0.1781  0.0169
  243POPC   PO4 3459   2.924   4.541   5.154  0.1334 -0.1849 -0.1312
  243POPC   GL1 3460   3.095   4.488   5.586  0.3994 -0.1600  0.1183
  243POPC   GL2 3461   3.044   4.749   5.764  0.0446 -0.1579  0.3878
  243POPC   C1A 3462   3.189   4.297   5.984  0.2553  0.0079  0.1320
  243POPC   D2A 3463   3.298   4.184   6.362 -0.3473  0.1078  0.0627
  243POPC   C3A 3464   3.053   4.200   6.697 -0.2556 -0.1477  0.0237
  243POPC   C4A 3465   3.086   4.369   7.181 -0.1196  0.1791 -0.3046
  243POPC   C1B 3466   3.079   5.019   6.151 -0.1961  0.0136  0.0948
  243POPC   C2B 3467   3.321   5.171   6.484 -0.0271 -0.0568  0.0388
  243POPC   C3B 3468   3.290   5.308   7.019 -0.0769  0.0908 -0.1842
  243POPC   C4B 3469   3.413   5.503   7.439 -0.1264  0.1477  0.3475
  244POPC   NC3 3470   8.707   4.689   4.931 -0.0333 -0.3689 -0.0983
  244POPC   PO4 3471   8.551   5.042   4.797 -0.2701 -0.1252  0.0050
  244POPC   GL1 3472   8.594   5.068   5.234 -0.1506 -0.3528  0.2254
  244POPC   GL2 3473   8.296   5.283   5.245  0.1715 -0.1814  0.0341
  244POPC   C1A 3474   8.398   4.868   5.502 -0.2819  0.0679 -0.1409
  244POPC   D2A 3475   8.300   4.626   5.824  0.0298 -0.0594  0.0566
  244POPC   C3A 3476   8.354   4.724   6.251 -0.4316 -0.0045  0.2974
  244POPC   C4A 3477   8.604   4.697   6.705  0.1557  0.0890 -0.3030
  244POPC   C1B 3478   8.177   5.530   5.627  0.0116 -0.1046  0.1501
  244POPC   C2B 3479   8.180   5.575   6.059 -0.2347  0.2343  0.4329
  244POPC   C3B 3480   8.195   5.697   6.582 -0.1814  0.1263  0.0321
  244POPC   C4B 3481   8.402   5.882   6.783  0.1101 -0.0125 -0.0850
  245POPC   NC3 3482   1.834   5.399   4.707 -0.3925  0.3038  0.2311
  245POPC   PO4 3483   1.843   5.799   4.934 -0.3269  0.0049 -0.2300
  245POPC   GL1 3484   1.655   5.831   5.359  0.1414 -0.0739 -0.0303
  245POPC   GL2 3485   1.910   5.939   5.650 -0.1155  0.1818  0.2508
  245POPC   C1A 3486   1.431   5.780   5.760  0.3495  0.0020  0.2170
  245POPC   D2A 3487   1.197   5.693   6.138  0.2186 -0.0127  0.1891
  245POPC   C3A 3488   1.433   5.689   6.489  0.0692  0.0067 -0.0970
  245POPC   C4A 3489   1.382   5.844   6.924  0.0424  0.0145 -0.1343
  245POPC   C1B 3490   1.903   5.948   6.159  0.2551  0.0579  0.3180
  245POPC   C2B 3491   1.768   6.097   6.531 -0.0621  0.0496 -0.1135
  245POPC   C3B 3492   1.678   6.342   6.911 -0.0413  0.0155  0.3488
  245POPC   C4B 3493   1.748   6.593   7.279 -0.0699  0.1482 -0.2318
  246POPC   NC3 3494   2.991   2.324   5.247 -0.2114 -0.1138  0.1801
  246POPC   PO4 3495   2.622   2.506   5.572 -0.0872 -0.0216 -0.1256
  246POPC   GL1 3496   2.852   2.683   5.774 -0.1373  0.1517  0.0145
  246POPC   GL2 3497   2.808   2.952   6.012 -0.1211 -0.1355  0.0226
  246POPC   C1A 3498   3.327   2.638   6.002 -0.1187 -0.0197  0.1420
  246POPC   D2A 3499   3.463   2.312   6.250 -0.1883 -0.1541 -0.1574
  246POPC   C3A 3500   3.527   2.332   6.721  0.0928 -0.1019  0.1446
  246POPC   C4A 3501   3.471   2.375   7.138  0.1435 -0.0917 -0.1444
  246POPC   C1B 3502   2.581   2.937   6.420 -0.1186 -0.0076 -0.3609
  246POPC   C2B 3503   2.523   3.304   6.719 -0.1140  0.0996 -0.2589
  246POPC   C3B 3504   2.546   3.602   7.043 -0.0095  0.0511  0.3717
  246POPC   C4B 3505   2.613   3.605   7.461  0.1892  0.1158  0.4017
  247POPC   NC3 3506   9.061   2.293   4.900  0.0520 -0.2949  0.0980
  247POPC   PO4 3507   9.365   2.203   4.801  0.1629  0.1460  0.1246
  247POPC   GL1 3508   9.389   2.045   5.232  0.3296 -0.0632 -0.0635
  247POPC   GL2 3509   9.045   2.046   5.418  0.0215  0.3473 -0.0724
  247POPC   C1A 3510   9.517   1.768   5.548  0.0316 -0.0929 -0.1226
  247POPC   D2A 3511   9.543   1.581   5.928  0.2136  0.0052 -0.0467
  247POPC   C3A 3512   9.527   1.928   6.197  0.1892 -0.0536 -0.2391
  247POPC   C4A 3513   9.302   1.909   6.638  0.3149  0.0204 -0.1581
  247POPC   C1B 3514   9.018   2.083   5.913  0.2681  0.3567  0.0342
  247POPC   C2B 3515   9.118   2.260   6.258  0.2313 -0.1605  0.0887
  247POPC   C3B 3516   9.265   2.458   6.596 -0.1852 -0.1844 -0.1778
  247POPC   C4B 3517   9.563   2.301   6.840 -0.1298 -0.1881 -0.0583
  248POPC   NC3 3518   9.198   1.676   5.002  0.3880 -0.0004  0.1696
  248POPC   PO4 3519   8.851   1.409   4.845  0.0955 -0.1590 -0.0876
  248POPC   GL1 3520   9.144   1.218   5.074  0.0044  0.0005 -0.0407
  248POPC   GL2 3521   8.986   1.397   5.325  0.1854  0.1438 -0.1132
  248POPC   C1A 3522   9.238   0.897   4.912  0.0953  0.2469 -0.3071
  248POPC   D2A 3523   9.433   0.525   5.007 -0.0932 -0.0695  0.1010
  248POPC   C3A 3524   9.252   0.318   5.380 -0.1757 -0.2060  0.0853
  248POPC   C4A 3525   8.838   0.265   5.274 -0.3778  0.4587 -0.1344
  248POPC   C1B 3526   8.736   1.239   5.659 -0.2176 -0.2951  0.1125
  248POPC   C2B 3527   8.526   1.121   6.068 -0.1141  0.0249 -0.0716
  248POPC   C3B 3528   8.281   0.834   6.405 -0.2696  0.0318 -0.4634
  248POPC   C4B 3529   8.464   0.619   6.613  0.0998 -0.3175 -0.0604
  249POPC   NC3 3530   6.668   7.311   4.496 -0.3148 -0.2537  0.3481
  249POPC   PO4 3531   6.265   7.510   4.616  0.1300 -0.0129 -0.4479
  249POPC   GL1 3532   6.464   7.683   4.976  0.1122  0.0678 -0.1680
  249POPC   GL2 3533   6.341   7.522   5.290  0.0596  0.0222 -0.0909
  249POPC   C1A 3534   6.551   8.067   5.176 -0.2998  0.3820  0.3853
  249POPC   D2A 3535   6.879   8.368   5.236 -0.0620  0.2561  0.2965
  249POPC   C3A 3536   6.967   8.611   5.474  0.1098  0.0752  0.0392
  249POPC   C4A 3537   6.959   9.027   5.766  0.3123  0.2417 -0.0402
  249POPC   C1B 3538   6.444   7.768   5.557 -0.0351 -0.2824  0.0968
  249POPC   C2B 3539   6.307   7.988   5.789  0.3202 -0.1138  0.2365
  249POPC   C3B 3540   6.268   8.172   6.122  0.0078  0.1333  0.0817
  249POPC   C4B 3541   6.052   8.421   6.439 -0.1996  0.2423  0.2915
  250POPC   NC3 3542   9.023   4.294   5.092  0.1464  0.2391 -0.0928
  250POPC   PO4 3543   8.775   4.001   5.318 -0.1478  0.1557 -0.0713
  250POPC   GL1 3544   8.973   4.000   5.641 -0.2259  0.1678 -0.1002
  250POPC   GL2 3545   8.922   3.683   5.779  0.0684  0.0290 -0.0872
  250POPC   C1A 3546   9.217   3.926   6.031  0.2084 -0.0513 -0.0633
  250POPC   D2A 3547   9.279   4.213   6.380 -0.1228 -0.0888 -0.0230
  250POPC   C3A 3548   9.578   4.381   6.759 -0.0199 -0.3681 -0.3784
  250POPC   C4A 3549   9.588   4.557   7.037  0.1289 -0.1281  0.3571
  250POPC   C1B 3550   8.694   3.913   6.133  0.1431 -0.0811 -0.2902
  250POPC   C2B 3551   8.598   3.694   6.517 -0.0560 -0.1458  0.0925
  250POPC   C3B 3552   8.368   3.427   6.959 -0.0339 -0.0799 -0.3081
  250POPC   C4B 3553   8.224   3.017   7.041  0.1824 -0.0878  0.0389
  251POPC   NC3 3554   3.604   5.746   5.118 -0.3432 -0.0737  0.0762
  251POPC   PO4 3555   3.296   5.839   5.299  0.0280  0.1341 -0.0134
  251POPC   GL1 3556   3.017   5.792   5.625  0.2715 -0.1107  0.1635
  251POPC   GL2 3557   3.027   5.513   5.913  0.1913 -0.2461 -0.1095
  251POPC   C1A 3558   2.834   6.000   5.992  0.1746  0.0195 -0.0255
  251POPC   D2A 3559   2.676   6.423   6.287  0.3378 -0.1090  0.1886
  251POPC   C3A 3560   2.524   6.544   6.635  0.0721  0.0714 -0.1824
  251POPC   C4A 3561   2.348   6.704   7.057 -0.2657  0.0763  0.0036
  251POPC   C1B 3562   3.225   5.618   6.263  0.0587 -0.1340  0.3718
  251POPC   C2B 3563   3.566   5.639   6.612 -0.3130 -0.1344 -0.2440
  251POPC   C3B 3564   3.688   5.734   7.048 -0.3275 -0.0353  0.1969
  251POPC   C4B 3565   3.896   6.040   7.366  0.1095  0.0177 -0.0757
  252POPC   NC3 3566   9.752   1.812   4.908  0.1097 -0.0158 -0.1543
  252POPC   PO4 3567   9.749   1.580   4.563 -0.1737 -0.2560  0.0537
  252POPC   GL1 3568   9.699   1.236   4.863  0.1209  0.4636  0.0329
  252POPC   GL2 3569   9.617   1.368   5.141  0.0460  0.0356  0.0932
  252POPC   C1A 3570   9.741   0.895   5.156 -0.0537 -0.3083 -0.1003
  252POPC   D2A 3571   9.865   0.621   5.445  0.1887  0.2374  0.1114
  252POPC   C3A 3572   9.754   0.308   5.558  0.0011  0.2093 -0.1876
  252POPC   C4A 3573   9.472  -0.138   5.480  0.0862  0.0199  0.2403
  252POPC   C1B 3574   9.628   1.202   5.578  0.1182 -0.3568  0.1389
  252POPC   C2B 3575   9.499   1.102   6.033 -0.0868  0.0028 -0.0446
  252POPC   C3B 3576   9.385   0.993   6.511 -0.0911 -0.0443 -0.0003
  252POPC   C4B 3577   9.137   1.058   6.774  0.1001  0.0551 -0.1377
  253POPC   NC3 3578   5.084   9.541   4.507 -0.1713 -0.3122  0.0555
  253POPC   PO4 3579   5.302   9.454   4.963  0.0970 -0.0426 -0.2787
  253POPC   GL1 3580   5.672   9.482   5.304 -0.2773  0.0647  0.0454
  253POPC   GL2 3581   5.649   9.692   5.551  0.0395  0.1833  0.3985
  253POPC   C1A 3582   6.139   9.572   5.536  0.0211  0.3872  0.2044
  253POPC   D2A 3583   6.112   9.908   5.776 -0.1185 -0.0027  0.1684
  253POPC   C3A 3584   6.215   9.828   6.225  0.0249  0.0097 -0.0379
  253POPC   C4A 3585   6.485  10.026   6.676 -0.1776 -0.1513 -0.2276
  253POPC   C1B 3586   5.620   9.976   5.843  0.0615  0.0438 -0.2679
  253POPC   C2B 3587   5.752  10.016   6.262 -0.2730 -0.1011 -0.2216
  253POPC   C3B 3588   5.986   9.878   6.654 -0.0221 -0.1853 -0.0023
  253POPC   C4B 3589   6.148   9.915   6.983  0.2798  0.1386  0.0096
  254POPC   NC3 3590   3.960   6.866   4.674 -0.1690 -0.1409 -0.3299
  254POPC   PO4 3591   4.057   6.951   5.023 -0.0870 -0.0967  0.1216
  254POPC   GL1 3592   3.934   6.997   5.454 -0.1556 -0.1892  0.2406
  254POPC   GL2 3593   4.077   7.158   5.533 -0.2976  0.2091  0.0354
  254POPC   C1A 3594   3.561   6.989   5.765  0.0298  0.0616  0.1487
  254POPC   D2A 3595   3.335   6.973   6.237 -0.3248  0.1015 -0.0326
  254POPC   C3A 3596   3.297   7.114   6.689  0.0804 -0.2600  0.4372
  254POPC   C4A 3597   3.547   7.305   7.044  0.1422  0.1323 -0.0050
  254POPC   C1B 3598   4.026   6.915   5.995  0.0185 -0.0016  0.1269
  254POPC   C2B 3599   3.811   6.797   6.406 -0.3128 -0.0356  0.0315
  254POPC   C3B 3600   3.775   6.839   6.898 -0.3784 -0.0965 -0.0910
  254POPC   C4B 3601   3.782   6.619   7.256 -0.0614  0.0014  0.5076
  255POPC   NC3 3602   4.951   0.365   5.594 -0.1965  0.0728  0.2202
  255POPC   PO4 3603   5.004  -0.037   5.436  0.0192  0.0396 -0.4158
  255POPC   GL1 3604   5.177  -0.069   5.818  0.3214  0.0243 -0.3178
  255POPC   GL2 3605   5.179   0.123   5.949 -0.2647 -0.4094  0.1239
  255POPC   C1A 3606   5.034  -0.361   6.107  0.0339 -0.1344 -0.1257
  255POPC   D2A 3607   4.913  -0.331   6.531 -0.0189 -0.1645  0.0489
  255POPC   C3A 3608   5.138  -0.197   6.934  0.1260 -0.2814 -0.4116
  255POPC   C4A 3609   5.181  -0.308   7.300  0.1902 -0.0530  0.1773
  255POPC   C1B 3610   5.321   0.026   6.354  0.0517  0.2013  0.2601
  255POPC   C2B 3611   5.064   0.293   6.609  0.0308  0.2606  0.1016
  255POPC   C3B 3612   5.101   0.408   6.962  0.0825 -0.0125 -0.3430
  255POPC   C4B 3613   5.034   0.142   7.306 -0.1854 -0.1156  0.0688
  256POPC   NC3 3614   1.791   0.292   4.515 -0.0404 -0.1417 -0.0012
  256POPC   PO4 3615   1.714   0.140   4.952  0.1089 -0.3401 -0.2657
  256POPC   GL1 3616   1.740   0.068   5.435 -0.2171 -0.0624  0.1557
  256POPC   GL2 3617   1.919  -0.178   5.605  0.1227 -0.0667 -0.1474
  256POPC   C1A 3618   1.751   0.214   5.870  0.0611 -0.0329  0.3186
  256POPC   D2A 3619   1.918   0.270   6.389 -0.0007  0.2079  0.1997
  256POPC   C3A 3620   1.786   0.142   6.818  0.0854 -0.1753  0.0930
  256POPC   C4A 3621   1.621  -0.114   7.165  0.5030  0.1242 -0.1064
  256POPC   C1B 3622   1.847  -0.223   6.115 -0.2433  0.0888  0.0576
  256POPC   C2B 3623   1.828  -0.266   6.589 -0.1110 -0.0974  0.1096
  256POPC   C3B 3624   2.070  -0.302   6.966  0.0867 -0.1821 -0.2605
  256POPC   C4B 3625   2.015  -0.611   7.356 -0.0893  0.1112  0.3897
  257POPC   NC3 3626   5.663   5.714   5.445  0.0848 -0.2133  0.3077
  257POPC   PO4 3627   5.994   5.903   5.750 -0.1425 -0.1947  0.0447
  257POPC   GL1 3628   6.218   6.013   6.031 -0.0122 -0.3192 -0.2285
  257POPC   GL2 3629   6.616   6.061   6.010 -0.4824 -0.4188 -0.1690
  257POPC   C1A 3630   6.331   5.734   6.376 -0.2030 -0.0153  0.2659
  257POPC   D2A 3631   6.501   5.209   6.396 -0.1086 -0.1532  0.0786
  257POPC   C3A 3632   6.560   4.992   6.825 -0.2409  0.0079 -0.0456
  257POPC   C4A 3633   7.075   4.836   6.904  0.0794  0.1814  0.3534
  257POPC   C1B 3634   6.684   6.340   6.282 -0.0152  0.2445 -0.1660
  257POPC   C2B 3635   6.618   6.529   6.768 -0.2233  0.4196  0.3661
  257POPC   C3B 3636   6.641   6.928   7.039  0.0724  0.0604 -0.0178
  257POPC   C4B 3637   6.552   7.460   6.897 -0.2046 -0.2110 -0.2159
  258POPC   NC3 3638   1.017   9.432   4.298 -0.0403 -0.1278 -0.1775
  258POPC   PO4 3639   1.394   9.502   4.404 -0.3126  0.0090 -0.1490
  258POPC   GL1 3640   1.176   9.341   4.758 -0.3364 -0.2248  0.1447
  258POPC   GL2 3641   1.223   9.521   5.024  0.4527  0.2329  0.1983
  258POPC   C1A 3642   1.413   9.023   5.098  0.0899  0.0748  0.2330
  258POPC   D2A 3643   1.854   8.959   5.323  0.0240  0.0235 -0.0240
  258POPC   C3A 3644   1.906   9.033   5.714 -0.0052  0.0118 -0.0114
  258POPC   C4A 3645   2.076   8.973   6.178  0.1510 -0.0132 -0.1232
  258POPC   C1B 3646   0.754   9.550   5.069 -0.2398 -0.2866  0.2531
  258POPC   C2B 3647   0.447   9.176   5.149  0.0062  0.2004  0.1120
  258POPC   C3B 3648   0.279   8.781   5.135  0.1352 -0.0598 -0.2361
  258POPC   C4B 3649   0.372   8.368   5.111 -0.1719  0.0799 -0.0694
  259POPC   NC3 3650   0.387   4.589   5.077 -0.1865  0.0219 -0.0828
  259POPC   PO4 3651  -0.073   4.668   5.108  0.2174 -0.0171 -0.1047
  259POPC   GL1 3652  -0.210   4.838   5.415  0.2307 -0.0636 -0.3014
  259POPC   GL2 3653  -0.353   5.150   5.457 -0.0335  0.3809 -0.1237
  259POPC   C1A 3654  -0.006   4.955   5.822 -0.2851  0.1963  0.0712
  259POPC   D2A 3655  -0.055   5.122   6.253  0.1484 -0.1262  0.0498
  259POPC   C3A 3656  -0.199   5.495   6.349 -0.0804 -0.2035 -0.2486
  259POPC   C4A 3657  -0.383   5.865   6.606  0.2715 -0.2871  0.0870
  259POPC   C1B 3658  -0.433   5.266   5.896 -0.1143 -0.1195  0.0345
  259POPC   C2B 3659  -0.606   5.148   6.328 -0.1135 -0.1573  0.4082
  259POPC   C3B 3660  -0.494   5.407   6.746  0.2607 -0.1060  0.1109
  259POPC   C4B 3661  -0.186   5.603   6.974 -0.1104  0.1508 -0.3077
  260POPC   NC3 3662   4.811   6.617   4.560  0.1443 -0.2044  0.1848
  260POPC   PO4 3663   4.717   6.555   5.056  0.2588 -0.0771 -0.0011
  260POPC   GL1 3664   4.829   6.527   5.463 -0.2509  0.0347  0.2654
  260POPC   GL2 3665   4.895   6.908   5.529 -0.0272 -0.1029  0.2214
  260POPC   C1A 3666   5.016   6.418   5.850  0.3825 -0.2423  0.4250
  260POPC   D2A 3667   5.327   6.342   6.074  0.1080  0.0765 -0.0284
  260POPC   C3A 3668   5.526   6.664   6.301 -0.0884 -0.2565 -0.0455
  260POPC   C4A 3669   5.341   6.735   6.617 -0.0085 -0.0508  0.2487
  260POPC   C1B 3670   4.950   6.946   6.010  0.2776 -0.0618  0.0189
  260POPC   C2B 3671   5.225   7.125   6.309  0.1498  0.0534 -0.1537
  260POPC   C3B 3672   5.182   7.254   6.667  0.1306 -0.0737  0.1414
  260POPC   C4B 3673   5.029   7.391   7.043 -0.0861 -0.0342  0.0695
  261POPC   NC3 3674   9.039   5.163   4.864 -0.2967  0.0943  0.0582
  261POPC   PO4 3675   9.103   4.851   5.179 -0.0339 -0.1761 -0.0214
  261POPC   GL1 3676   8.921   4.766   5.526  0.1785 -0.1138 -0.1721
  261POPC   GL2 3677   8.819   4.486   5.484  0.1049 -0.0056  0.1612
  261POPC   C1A 3678   8.857   4.998   5.811  0.1341  0.0409  0.0321
  261POPC   D2A 3679   8.666   5.154   6.228 -0.2564  0.2346 -0.3972
  261POPC   C3A 3680   8.463   5.168   6.587  0.0006 -0.0302  0.3337
  261POPC   C4A 3681   8.218   5.394   6.987  0.0126 -0.2698  0.1096
  261POPC   C1B 3682   8.735   4.448   5.979  0.1955  0.3733  0.0014
  261POPC   C2B 3683   8.745   4.309   6.411  0.2608  0.0680 -0.0317
  261POPC   C3B 3684   8.899   4.043   6.711 -0.3319 -0.0263 -0.0286
  261POPC   C4B 3685   8.728   3.720   7.126 -0.0112  0.2952  0.0906
  262POPC   NC3 3686   2.209  10.141   5.184  0.1345  0.1053  0.2072
  262POPC   PO4 3687   2.513  10.494   5.203  0.0014  0.1600  0.0914
  262POPC   GL1 3688   2.641  10.429   5.629 -0.0835 -0.0134 -0.0485
  262POPC   GL2 3689   2.481  10.085   5.589  0.0284 -0.0824 -0.0736
  262POPC   C1A 3690   2.677  10.554   5.969 -0.1292 -0.1280 -0.2483
  262POPC   D2A 3691   2.899  10.676   6.369 -0.0005  0.3560 -0.1804
  262POPC   C3A 3692   2.755  10.478   6.804  0.0993  0.2047  0.0018
  262POPC   C4A 3693   2.762  10.281   7.280 -0.0018  0.3198 -0.0371
  262POPC   C1B 3694   2.268  10.207   6.009  0.0530 -0.1643 -0.2000
  262POPC   C2B 3695   2.389  10.626   6.347 -0.2694  0.2564 -0.0596
  262POPC   C3B 3696   2.470  10.865   6.629 -0.0622  0.6039 -0.3057
  262POPC   C4B 3697   2.612  10.843   7.109 -0.1232 -0.0180 -0.4118
  263POPC   NC3 3698   6.441   7.931   4.464  0.2062  0.0527  0.1644
  263POPC   PO4 3699   6.847   7.742   4.597 -0.0865 -0.5141 -0.2784
  263POPC   GL1 3700   6.956   7.612   5.008 -0.2536  0.0808  0.0321
  263POPC   GL2 3701   6.906   7.742   5.289  0.4904 -0.4778  0.1688
  263POPC   C1A 3702   6.787   7.316   5.310 -0.2435 -0.1057  0.2143
  263POPC   D2A 3703   6.641   7.271   5.621 -0.0777 -0.0625 -0.3239
  263POPC   C3A 3704   6.697   7.258   6.071  0.4109 -0.1825 -0.4860
  263POPC   C4A 3705   6.920   7.510   6.390  0.2314 -0.0787  0.1675
  263POPC   C1B 3706   6.809   8.064   5.575  0.0559 -0.0415  0.5063
  263POPC   C2B 3707   7.104   8.125   5.949  0.3134  0.1399  0.3338
  263POPC   C3B 3708   7.544   8.222   6.034 -0.0399 -0.1172 -0.1237
  263POPC   C4B 3709   7.926   8.311   6.009 -0.0909  0.2245  0.0809
  264POPC   NC3 3710   9.884   4.215   5.380 -0.1375  0.2156 -0.1528
  264POPC   PO4 3711   9.515   4.352   5.074 -0.1881  0.0197 -0.0079
  264POPC   GL1 3712   9.489   4.519   5.438  0.0437 -0.2629 -0.2065
  264POPC   GL2 3713   9.447   4.846   5.554 -0.2689 -0.3789 -0.2769
  264POPC   C1A 3714   9.236   4.506   5.794 -0.2029 -0.1463  0.1280
  264POPC   D2A 3715   9.120   4.712   6.153  0.1062 -0.3009  0.0251
  264POPC   C3A 3716   9.130   4.640   6.613 -0.2045  0.0784  0.2630
  264POPC   C4A 3717   9.055   4.489   7.051  0.0367 -0.0554 -0.2695
  264POPC   C1B 3718   9.676   4.789   5.959 -0.0020  0.0801  0.4238
  264POPC   C2B 3719   9.728   4.667   6.368 -0.2622 -0.0296  0.0004
  264POPC   C3B 3720   9.830   4.900   6.706  0.0815  0.1309  0.1099
  264POPC   C4B 3721   9.723   5.058   7.069 -0.0389  0.0631 -0.2866
  265POPC   NC3 3722   7.088   2.851   5.262  0.0249 -0.1344 -0.1586
  265POPC   PO4 3723   7.104   2.495   5.515 -0.0182  0.2794 -0.2017
  265POPC   GL1 3724   7.407   2.616   5.806 -0.1333  0.1231 -0.0835
  265POPC   GL2 3725   7.258   2.471   6.059  0.1338  0.1515 -0.0714
  265POPC   C1A 3726   7.676   2.809   6.068  0.1831  0.0629 -0.2314
  265POPC   D2A 3727   8.034   2.768   6.170 -0.1146  0.0280 -0.1983
  265POPC   C3A 3728   8.151   2.601   6.641 -0.2940 -0.0772  0.1111
  265POPC   C4A 3729   8.488   2.523   6.801 -0.0901 -0.0647 -0.1326
  265POPC   C1B 3730   7.333   2.356   6.502  0.1776  0.0060  0.0825
  265POPC   C2B 3731   7.390   1.976   6.712 -0.0570  0.2998 -0.0899
  265POPC   C3B 3732   7.340   1.780   7.075 -0.0204  0.0334  0.0327
  265POPC   C4B 3733   7.503   1.429   7.436  0.0070  0.2974 -0.0765
  266POPC   NC3 3734   0.555   7.298   3.742  0.0901 -0.1250  0.3503
  266POPC   PO4 3735   0.630   7.064   3.931  0.0145  0.0311  0.0173
  266POPC   GL1 3736   0.391   6.888   4.319 -0.2262 -0.3389  0.0971
  266POPC   GL2 3737   0.427   7.047   4.501 -0.1358 -0.2272  0.1931
  266POPC   C1A 3738  -0.063   6.878   4.598 -0.0945 -0.0357 -0.3090
  266POPC   D2A 3739  -0.299   7.164   4.876 -0.0013 -0.1233 -0.1845
  266POPC   C3A 3740  -0.208   7.602   5.029 -0.1741  0.1017 -0.1264
  266POPC   C4A 3741  -0.127   7.853   5.278 -0.1366  0.1002 -0.2309
  266POPC   C1B 3742   0.149   7.401   4.545  0.1919 -0.0972 -0.1764
  266POPC   C2B 3743   0.082   7.839   4.693  0.2183  0.2757  0.4085
  266POPC   C3B 3744  -0.065   8.193   4.673 -0.2059 -0.4951  0.2008
  266POPC   C4B 3745  -0.190   8.598   4.909  0.1017 -0.2666  0.0330
  267POPC   NC3 3746   9.811   2.821   5.234 -0.2503  0.1819 -0.0539
  267POPC   PO4 3747   9.508   2.532   5.244  0.1478 -0.1612  0.2094
  267POPC   GL1 3748   9.343   2.422   5.648 -0.0777  0.1322  0.1247
  267POPC   GL2 3749   9.017   2.511   5.705  0.0194  0.2452 -0.1665
  267POPC   C1A 3750   9.599   2.362   5.996  0.0118  0.2375 -0.3089
  267POPC   D2A 3751   9.792   2.395   6.393  0.2323  0.2095 -0.2496
  267POPC   C3A 3752   9.967   2.774   6.374  0.1376  0.0903  0.2189
  267POPC   C4A 3753  10.046   3.192   6.613  0.3020 -0.0084 -0.0297
  267POPC   C1B 3754   9.236   2.714   6.050 -0.0558 -0.3559  0.2169
  267POPC   C2B 3755   9.369   2.907   6.416 -0.1700  0.0815  0.1922
  267POPC   C3B 3756   9.554   3.141   6.729 -0.0062  0.0909 -0.0009
  267POPC   C4B 3757   9.863   3.097   7.113  0.3188 -0.2724 -0.1962
  268POPC   NC3 3758   8.837   3.570   5.178  0.4226  0.1371 -0.2517
  268POPC   PO4 3759   8.720   3.082   5.020 -0.0189  0.0257  0.0227
  268POPC   GL1 3760   8.763   3.083   5.432 -0.0914 -0.1393  0.0760
  268POPC   GL2 3761   8.960   3.059   5.679 -0.2858  0.1866 -0.1503
  268POPC   C1A 3762   8.464   2.835   5.735 -0.1453  0.1472  0.1552
  268POPC   D2A 3763   8.512   2.633   6.198  0.2333 -0.1383  0.1240
  268POPC   C3A 3764   8.796   2.687   6.466 -0.1379 -0.0158  0.3305
  268POPC   C4A 3765   9.129   2.892   6.874 -0.1459  0.0552 -0.1424
  268POPC   C1B 3766   8.761   3.042   6.047  0.0974  0.2076  0.1131
  268POPC   C2B 3767   8.927   3.199   6.480  0.1567 -0.0780 -0.1047
  268POPC   C3B 3768   9.055   3.394   6.885 -0.4327 -0.1951 -0.1685
  268POPC   C4B 3769   8.909   3.281   7.272  0.0991 -0.1811  0.0337
  269POPC   NC3 3770   6.424   4.608   4.734  0.1105  0.3549  0.1530
  269POPC   PO4 3771   6.206   4.489   5.173  0.3642  0.0116 -0.0543
  269POPC   GL1 3772   6.535   4.709   5.329  0.2084 -0.0626 -0.0424
  269POPC   GL2 3773   6.592   4.357   5.551  0.3567  0.0913  0.0676
  269POPC   C1A 3774   6.509   4.767   5.801 -0.0064 -0.0401  0.0803
  269POPC   D2A 3775   6.306   4.598   6.082 -0.3705  0.2097  0.0013
  269POPC   C3A 3776   6.147   4.846   6.451 -0.0174  0.2800  0.0170
  269POPC   C4A 3777   6.111   4.706   6.859 -0.0387  0.2219 -0.0502
  269POPC   C1B 3778   6.780   4.396   5.987 -0.2089  0.1713 -0.2054
  269POPC   C2B 3779   6.568   4.139   6.316  0.3110 -0.2228 -0.0621
  269POPC   C3B 3780   6.310   4.214   6.719  0.0439 -0.0518  0.3040
  269POPC   C4B 3781   6.205   4.260   7.131 -0.0053 -0.0306  0.0552
  270POPC   NC3 3782   1.889   0.892   4.906 -0.0406  0.1063  0.2985
  270POPC   PO4 3783   1.943   0.633   5.233 -0.1110  0.2013 -0.0612
  270POPC   GL1 3784   1.839   0.734   5.701  0.1340  0.5023  0.0102
  270POPC   GL2 3785   1.616   0.930   5.729  0.1592 -0.0573  0.0543
  270POPC   C1A 3786   2.070   0.696   6.069 -0.2191  0.2234 -0.0482
  270POPC   D2A 3787   2.504   0.857   6.107  0.0017  0.2100  0.1714
  270POPC   C3A 3788   2.393   1.143   6.489  0.1166 -0.2007 -0.1645
  270POPC   C4A 3789   2.447   1.150   6.926  0.0103  0.3822  0.1321
  270POPC   C1B 3790   1.550   0.578   6.131  0.0497  0.0233 -0.0968
  270POPC   C2B 3791   1.386   0.234   6.354  0.2335  0.1059  0.0829
  270POPC   C3B 3792   1.267  -0.169   6.610 -0.1226  0.1453 -0.0234
  270POPC   C4B 3793   1.128  -0.232   6.997 -0.1420 -0.1359  0.1655
  271POPC   NC3 3794   3.741   4.430   4.876 -0.5002 -0.4762 -0.2077
  271POPC   PO4 3795   3.911   4.914   5.030  0.7919  0.2081  0.1734
  271POPC   GL1 3796   3.948   4.960   5.465  0.1231 -0.4758 -0.1008
  271POPC   GL2 3797   4.171   5.111   5.618 -0.0742 -0.0394 -0.2834
  271POPC   C1A 3798   3.758   4.991   5.956 -0.0195 -0.1350 -0.2805
  271POPC   D2A 3799   3.490   4.786   6.083  0.1926 -0.1082  0.0227
  271POPC   C3A 3800   3.463   4.654   6.561 -0.2614 -0.0099  0.1924
  271POPC   C4A 3801   3.562   4.488   6.992 -0.1662 -0.0444 -0.0731
  271POPC   C1B 3802   4.242   5.239   5.983 -0.1238  0.0919  0.0065
  271POPC   C2B 3803   4.222   4.881   6.292 -0.2353 -0.1700  0.1317
  271POPC   C3B 3804   3.947   4.645   6.514 -0.1901  0.0148  0.0021
  271POPC   C4B 3805   4.086   4.343   6.753 -0.0759 -0.0565  0.0730
  272POPC   NC3 3806   4.355   2.565   5.207  0.0606 -0.2044  0.3087
  272POPC   PO4 3807   4.683   2.255   5.204 -0.1149 -0.0057 -0.2657
  272POPC   GL1 3808   4.787   2.372   5.562  0.1916 -0.0045 -0.0964
  272POPC   GL2 3809   4.819   2.731   5.445 -0.1495 -0.1091 -0.0016
  272POPC   C1A 3810   4.627   2.435   5.834 -0.1002 -0.1629 -0.0845
  272POPC   D2A 3811   4.385   2.357   6.294 -0.0839  0.1572  0.0881
  272POPC   C3A 3812   4.442   1.973   6.512  0.0139  0.0317  0.3003
  272POPC   C4A 3813   4.344   1.837   6.965  0.0889  0.1477 -0.1015
  272POPC   C1B 3814   4.845   2.919   5.882  0.3318 -0.2115 -0.3519
  272POPC   C2B 3815   4.880   2.826   6.351 -0.2315 -0.2264  0.0005
  272POPC   C3B 3816   4.723   2.987   6.788  0.1144 -0.0993  0.2874
  272POPC   C4B 3817   4.495   3.145   7.023  0.1356  0.2805 -0.3382
  273POPC   NC3 3818   0.653   4.282   5.396  0.2997 -0.0709  0.2343
  273POPC   PO4 3819   0.924   4.622   5.151 -0.1924 -0.2360  0.4255
  273POPC   GL1 3820   0.732   4.795   5.515 -0.4054  0.0224  0.5544
  273POPC   GL2 3821   0.337   4.669   5.565  0.3802  0.0182  0.1398
  273POPC   C1A 3822   0.656   4.968   5.872 -0.3491  0.2090  0.2974
  273POPC   D2A 3823   0.444   5.000   6.237 -0.0077  0.1602 -0.1487
  273POPC   C3A 3824   0.306   5.404   6.262 -0.3172 -0.1009 -0.1231
  273POPC   C4A 3825   0.613   5.787   6.369  0.0469  0.0647  0.0955
  273POPC   C1B 3826   0.354   4.583   5.985  0.1025 -0.1904 -0.1624
  273POPC   C2B 3827   0.105   4.599   6.376  0.2121  0.3277  0.0481
  273POPC   C3B 3828  -0.048   4.485   6.774  0.2319 -0.0136 -0.3641
  273POPC   C4B 3829  -0.027   4.774   7.101 -0.0597  0.1445 -0.1962
  274POPC   NC3 3830   1.446   4.694   5.548 -0.0538  0.2378 -0.1677
  274POPC   PO4 3831   1.828   4.505   5.657  0.0794 -0.1679  0.0025
  274POPC   GL1 3832   1.823   4.605   5.966  0.0252 -0.0161 -0.2874
  274POPC   GL2 3833   1.768   4.909   5.925  0.0198  0.1533 -0.0302
  274POPC   C1A 3834   2.001   4.446   6.374 -0.1885  0.1600 -0.0198
  274POPC   D2A 3835   1.926   4.155   6.709 -0.1057 -0.0106  0.1409
  274POPC   C3A 3836   1.455   3.971   6.839 -0.3973 -0.0624 -0.2001
  274POPC   C4A 3837   1.239   3.560   6.992 -0.1287  0.0013 -0.1949
  274POPC   C1B 3838   1.823   4.913   6.355 -0.4033  0.0220  0.0882
  274POPC   C2B 3839   1.667   4.923   6.869 -0.1128  0.0581  0.1414
  274POPC   C3B 3840   1.557   5.338   7.086  0.1378  0.6568  0.2555
  274POPC   C4B 3841   1.241   5.538   7.295  0.3069 -0.0788  0.3468
  275POPC   NC3 3842   2.199   9.237   5.006  0.0556  0.1458  0.3781
  275POPC   PO4 3843   2.454   8.911   5.008  0.3970  0.0053  0.1890
  275POPC   GL1 3844   2.413   8.771   5.486  0.1416 -0.1907 -0.0828
  275POPC   GL2 3845   2.401   9.183   5.542  0.3051  0.2154 -0.1542
  275POPC   C1A 3846   2.386   8.466   5.823  0.2271 -0.0780  0.2339
  275POPC   D2A 3847   2.434   8.160   6.133  0.1209 -0.0860  0.1877
  275POPC   C3A 3848   2.047   8.199   6.312  0.2132  0.1983  0.2410
  275POPC   C4A 3849   1.666   8.090   6.556 -0.1438  0.1060  0.1480
  275POPC   C1B 3850   2.686   9.489   5.752  0.2866  0.1854  0.2423
  275POPC   C2B 3851   2.610   9.781   6.063 -0.0751  0.0726 -0.1963
  275POPC   C3B 3852   2.310   9.848   6.424  0.2236  0.0579  0.0453
  275POPC   C4B 3853   2.249  10.222   6.654 -0.1750 -0.3670 -0.0334
  276POPC   NC3 3854   4.410   0.478   5.008  0.2956  0.4283  0.0098
  276POPC   PO4 3855   4.512   0.103   5.396 -0.2005 -0.0629 -0.2581
  276POPC   GL1 3856   4.604   0.073   5.819  0.0657  0.0639 -0.1212
  276POPC   GL2 3857   4.594   0.344   5.956  0.0133 -0.1300  0.0277
  276POPC   C1A 3858   4.651  -0.099   6.200  0.0807 -0.2126 -0.0206
  276POPC   D2A 3859   4.602   0.027   6.661  0.0024 -0.0849 -0.3111
  276POPC   C3A 3860   4.629  -0.314   6.909 -0.2763  0.2554  0.2038
  276POPC   C4A 3861   4.914  -0.724   6.938  0.1084 -0.1928  0.1264
  276POPC   C1B 3862   4.476   0.537   6.380 -0.0415 -0.2524 -0.0139
  276POPC   C2B 3863   4.663   0.536   6.790  0.0168 -0.0034  0.0574
  276POPC   C3B 3864   4.557   0.302   7.118 -0.0685  0.0711  0.0136
  276POPC   C4B 3865   4.421   0.017   7.238 -0.2919  0.1139  0.1846
  277POPC   NC3 3866   2.137   2.598   5.594  0.1091  0.2279  0.1688
  277POPC   PO4 3867   1.667   2.405   5.599  0.3789  0.1291  0.1113
  277POPC   GL1 3868   1.856   2.276   5.940  0.2407 -0.0589 -0.0549
  277POPC   GL2 3869   1.601   2.137   6.236 -0.1383 -0.1826  0.0055
  277POPC   C1A 3870   2.100   2.196   6.372  0.0038  0.1123 -0.1162
  277POPC   D2A 3871   2.085   1.929   6.734  0.0782  0.1742 -0.2293
  277POPC   C3A 3872   2.156   1.550   6.865  0.0986 -0.2781 -0.1109
  277POPC   C4A 3873   1.958   1.122   6.786  0.0772  0.1104  0.0123
  277POPC   C1B 3874   1.560   2.058   6.674  0.0309  0.0928 -0.0136
  277POPC   C2B 3875   1.788   2.223   7.024 -0.3733  0.4038 -0.2627
  277POPC   C3B 3876   2.056   2.306   7.300 -0.0160  0.0759 -0.0741
  277POPC   C4B 3877   2.051   2.785   7.379 -0.0103  0.0128  0.1422
  278POPC   NC3 3878   5.335   7.423   4.950 -0.3020  0.0481 -0.1004
  278POPC   PO4 3879   5.186   7.685   5.186  0.0494  0.0932 -0.1993
  278POPC   GL1 3880   5.202   7.926   5.476  0.0097  0.2822 -0.1314
  278POPC   GL2 3881   5.488   8.154   5.603  0.0899 -0.0064 -0.1275
  278POPC   C1A 3882   5.328   7.811   5.910  0.1026 -0.0915 -0.3980
  278POPC   D2A 3883   5.373   7.577   6.335  0.1309  0.0081  0.0453
  278POPC   C3A 3884   5.445   7.739   6.727  0.1511  0.0225 -0.0287
  278POPC   C4A 3885   5.220   7.813   7.153 -0.0278 -0.0284  0.0308
  278POPC   C1B 3886   5.590   8.186   6.025 -0.0314 -0.0758 -0.3628
  278POPC   C2B 3887   5.724   8.099   6.421  0.1937 -0.1772  0.0323
  278POPC   C3B 3888   5.874   8.007   6.771  0.1590 -0.0582 -0.1059
  278POPC   C4B 3889   6.213   7.811   7.029  0.2731  0.0396 -0.0691
  279POPC   NC3 3890   0.118   3.790   5.171  0.0146  0.1357  0.2786
  279POPC   PO4 3891   0.194   4.134   5.241 -0.1860  0.2322  0.2172
  279POPC   GL1 3892   0.185   4.043   5.722 -0.0492  0.1997 -0.0739
  279POPC   GL2 3893   0.492   4.109   5.776  0.1389  0.0698 -0.2228
  279POPC   C1A 3894   0.133   4.119   6.116 -0.0135 -0.1938  0.1657
  279POPC   D2A 3895   0.213   4.142   6.526  0.0684  0.2804 -0.1758
  279POPC   C3A 3896   0.652   4.091   6.710  0.0076  0.1002  0.2525
  279POPC   C4A 3897   0.962   4.062   6.971  0.1554  0.2507  0.1768
  279POPC   C1B 3898   0.661   4.258   6.245 -0.0442 -0.0406  0.0137
  279POPC   C2B 3899   0.602   4.561   6.563  0.1692 -0.1484  0.0190
  279POPC   C3B 3900   0.374   4.862   6.806 -0.0026  0.0811  0.5218
  279POPC   C4B 3901   0.032   5.230   6.761  0.1525 -0.3416 -0.0203
  280POPC   NC3 3902   7.713   0.909   4.460 -0.0839 -0.0617 -0.0830
  280POPC   PO4 3903   7.743   0.666   4.818 -0.0553  0.4381 -0.3594
  280POPC   GL1 3904   7.853   0.633   5.232 -0.2484  0.3531  0.0079
  280POPC   GL2 3905   7.961   0.909   5.413  0.0503  0.3075  0.0726
  280POPC   C1A 3906   7.973   0.431   5.597 -0.0058 -0.2182  0.0793
  280POPC   D2A 3907   8.010   0.418   5.961  0.1312 -0.1775 -0.2166
  280POPC   C3A 3908   8.217   0.080   6.024 -0.1108  0.1174 -0.0393
  280POPC   C4A 3909   8.376  -0.220   6.228  0.1271  0.1325  0.1601
  280POPC   C1B 3910   8.419   0.853   5.507 -0.0583  0.2670  0.0711
  280POPC   C2B 3911   8.466   0.646   5.955 -0.3284 -0.0477 -0.0208
  280POPC   C3B 3912   8.646   0.371   6.237 -0.1377 -0.3401 -0.0425
  280POPC   C4B 3913   8.837  -0.015   6.197  0.0519  0.0352 -0.1438
  281POPC   NC3 3914   0.620   8.972   3.502 -0.3831 -0.1590  0.0075
  281POPC   PO4 3915   0.484   8.684   3.642  0.2741 -0.2295 -0.1847
  281POPC   GL1 3916   0.386   8.644   4.048 -0.2594  0.1130 -0.0290
  281POPC   GL2 3917   0.501   8.274   4.195 -0.1656  0.1292  0.2502
  281POPC   C1A 3918   0.050   8.616   4.290  0.0793 -0.0791 -0.1383
  281POPC   D2A 3919  -0.265   8.861   4.438  0.0999  0.2898  0.0335
  281POPC   C3A 3920  -0.587   8.669   4.650 -0.0120  0.1585 -0.1373
  281POPC   C4A 3921  -0.862   8.378   4.982  0.0009 -0.0427  0.0475
  281POPC   C1B 3922   0.520   8.449   4.606  0.0386  0.1418  0.1577
  281POPC   C2B 3923   0.772   8.454   4.917  0.2291 -0.2349 -0.0730
  281POPC   C3B 3924   1.163   8.594   5.121  0.1526 -0.0402 -0.2002
  281POPC   C4B 3925   1.602   8.547   5.131  0.1998  0.1265  0.0324
  282POPC   NC3 3926   1.339   2.746   5.617  0.0790  0.1145  0.1405
  282POPC   PO4 3927   1.089   2.928   5.329 -0.0835  0.0255 -0.1492
  282POPC   GL1 3928   0.940   2.922   5.813 -0.2727 -0.2526 -0.0596
  282POPC   GL2 3929   1.276   3.117   5.950  0.1638 -0.1993 -0.2066
  282POPC   C1A 3930   0.937   2.704   6.334 -0.0796  0.1841  0.0506
  282POPC   D2A 3931   1.116   2.372   6.549 -0.1513  0.1075 -0.1695
  282POPC   C3A 3932   0.871   2.203   7.032  0.1380  0.0315  0.4330
  282POPC   C4A 3933   1.074   2.495   7.426 -0.2404  0.2783 -0.0618
  282POPC   C1B 3934   1.533   3.110   6.333  0.0663  0.1931  0.0909
  282POPC   C2B 3935   1.412   3.094   6.769 -0.0893 -0.3512 -0.1653
  282POPC   C3B 3936   1.659   3.207   7.131 -0.3033  0.3432 -0.0825
  282POPC   C4B 3937   1.705   3.667   7.276  0.1885 -0.1514  0.0694
  283POPC   NC3 3938   7.806   9.274   3.856 -0.0081  0.0159  0.2254
  283POPC   PO4 3939   8.075   9.766   3.801  0.1652  0.0646 -0.0365
  283POPC   GL1 3940   8.190   9.610   4.222 -0.0912  0.1759  0.2052
  283POPC   GL2 3941   8.410   9.856   4.503 -0.0247  0.0321  0.1467
  283POPC   C1A 3942   8.157   9.256   4.572 -0.1909  0.0052  0.0469
  283POPC   D2A 3943   8.229   9.201   4.983 -0.0150  0.0994 -0.0992
  283POPC   C3A 3944   7.874   8.996   5.278  0.1350  0.1324 -0.0759
  283POPC   C4A 3945   7.898   8.584   5.500 -0.2648 -0.2047 -0.2552
  283POPC   C1B 3946   8.688   9.443   4.310  0.0316 -0.1657  0.0386
  283POPC   C2B 3947   9.157   9.340   4.442 -0.0993 -0.1339  0.2482
  283POPC   C3B 3948   9.454   9.217   4.653 -0.1268  0.2196  0.0739
  283POPC   C4B 3949   9.629   9.063   5.030  0.1516 -0.0377  0.0049
  284POPC   NC3 3950   1.508   9.903   4.769  0.1692 -0.2317 -0.1032
  284POPC   PO4 3951   1.836   9.832   5.067 -0.0568 -0.0949 -0.2461
  284POPC   GL1 3952   1.514   9.729   5.393 -0.1352  0.1204 -0.3135
  284POPC   GL2 3953   1.522   9.401   5.393  0.1486 -0.0442  0.0760
  284POPC   C1A 3954   1.102   9.712   5.484  0.3018  0.3190 -0.0403
  284POPC   D2A 3955   0.942   9.718   5.932  0.1074  0.3403  0.0509
  284POPC   C3A 3956   0.941   9.624   6.458  0.1146  0.3061 -0.0137
  284POPC   C4A 3957   0.732   9.757   6.860 -0.1108  0.4053 -0.1985
  284POPC   C1B 3958   1.283   9.408   5.826 -0.0406  0.2939  0.2583
  284POPC   C2B 3959   1.085   9.182   6.159  0.0368 -0.1603  0.2665
  284POPC   C3B 3960   0.747   9.158   6.547 -0.0631  0.1203 -0.0246
  284POPC   C4B 3961   0.692   9.194   7.041  0.2812 -0.0801  0.1336
  285POPC   NC3 3962   4.944   6.009   5.259  0.1341  0.1359  0.0067
  285POPC   PO4 3963   5.435   6.119   5.290  0.0438  0.1560  0.0886
  285POPC   GL1 3964   5.570   6.391   5.661  0.1314 -0.1945 -0.2163
  285POPC   GL2 3965   5.781   6.419   5.901  0.2704 -0.0719 -0.0852
  285POPC   C1A 3966   5.427   6.816   5.847  0.0083  0.1321 -0.3153
  285POPC   D2A 3967   5.642   7.220   5.988  0.0881  0.0500  0.2514
  285POPC   C3A 3968   5.710   7.155   6.433  0.0086 -0.4070  0.1928
  285POPC   C4A 3969   5.746   7.013   6.798 -0.1026  0.1928 -0.0080
  285POPC   C1B 3970   5.821   6.249   6.345 -0.1274 -0.0384 -0.1405
  285POPC   C2B 3971   5.661   6.418   6.832  0.1688 -0.0594 -0.2761
  285POPC   C3B 3972   5.788   6.664   7.165 -0.0300  0.0015 -0.1453
  285POPC   C4B 3973   5.955   6.491   7.558 -0.0226  0.0675 -0.2159
  286POPC   NC3 3974   8.262   0.761   4.552  0.1950  0.3771  0.0662
  286POPC   PO4 3975   8.577   0.653   4.310 -0.1366 -0.0099  0.0707
  286POPC   GL1 3976   8.709   0.653   4.789 -0.3633 -0.1445 -0.0048
  286POPC   GL2 3977   8.737   0.889   5.013 -0.0288 -0.1007  0.0263
  286POPC   C1A 3978   8.421   0.522   5.158 -0.0283 -0.0414  0.2427
  286POPC   D2A 3979   8.418   0.286   5.522  0.5270  0.3121 -0.1635
  286POPC   C3A 3980   8.871   0.435   5.739 -0.0258  0.0583 -0.2542
  286POPC   C4A 3981   9.005   0.867   6.017  0.1736 -0.1993  0.1080
  286POPC   C1B 3982   8.932   0.767   5.316 -0.0977  0.0610 -0.2731
  286POPC   C2B 3983   9.353   0.819   5.476  0.3381 -0.1467  0.2866
  286POPC   C3B 3984   9.464   0.602   5.813  0.0568 -0.3213  0.2733
  286POPC   C4B 3985   9.579   0.626   6.224 -0.1226 -0.1978 -0.1467
  287POPC   NC3 3986   6.726   3.834   4.880  0.2789  0.4315  0.0195
  287POPC   PO4 3987   6.858   3.470   5.146 -0.0475  0.0971 -0.0817
  287POPC   GL1 3988   7.061   3.311   5.557 -0.0252  0.0473  0.0638
  287POPC   GL2 3989   6.940   2.997   5.748 -0.0069  0.2924 -0.3176
  287POPC   C1A 3990   6.946   3.496   5.953 -0.1111 -0.0614  0.1322
  287POPC   D2A 3991   6.948   3.755   6.288 -0.1817 -0.0387 -0.0239
  287POPC   C3A 3992   7.059   3.513   6.675  0.1107 -0.0096  0.0196
  287POPC   C4A 3993   7.242   3.457   7.022  0.0020 -0.0487  0.1625
  287POPC   C1B 3994   6.979   2.864   6.158 -0.1310  0.1665 -0.0798
  287POPC   C2B 3995   6.837   2.659   6.520  0.1920  0.1031  0.3090
  287POPC   C3B 3996   6.560   2.506   6.781  0.0424  0.0108 -0.1094
  287POPC   C4B 3997   6.145   2.386   7.043 -0.3010  0.0668 -0.1532
  288POPC   NC3 3998   6.425   2.618   4.972 -0.1572 -0.0621  0.1307
  288POPC   PO4 3999   6.130   2.752   5.204 -0.4893  0.2199 -0.2175
  288POPC   GL1 4000   6.212   2.956   5.647 -0.2234  0.3149  0.1103
  288POPC   GL2 4001   6.485   3.265   5.700 -0.1476 -0.0926 -0.0731
  288POPC   C1A 4002   5.999   3.019   6.145 -0.2608 -0.0328 -0.3156
  288POPC   D2A 4003   5.998   3.345   6.406 -0.0265  0.3443  0.1771
  288POPC   C3A 4004   6.185   3.455   6.778 -0.0088 -0.0861 -0.5775
  288POPC   C4A 4005   6.539   3.474   7.046 -0.2774  0.0333 -0.0876
  288POPC   C1B 4006   6.577   3.239   6.174 -0.2477  0.0414 -0.2632
  288POPC   C2B 4007   6.744   3.172   6.574  0.0088 -0.0606  0.0324
  288POPC   C3B 4008   6.881   3.040   6.984  0.4777  0.2019  0.1057
  288POPC   C4B 4009   7.142   2.951   7.341 -0.2184  0.1467  0.0625
  289POPC   NC3 4010   5.985   0.273   5.137 -0.3014 -0.0236 -0.0496
  289POPC   PO4 4011   5.945   0.752   5.161  0.0939  0.1617  0.2167
  289POPC   GL1 4012   6.112   0.624   5.485 -0.3023  0.0286  0.0750
  289POPC   GL2 4013   5.882   0.710   5.741 -0.2912 -0.0609  0.0288
  289POPC   C1A 4014   6.441   0.593   5.774  0.0534 -0.0485  0.1396
  289POPC   D2A 4015   6.828   0.491   5.585  0.2006  0.0545 -0.0887
  289POPC   C3A 4016   7.177   0.641   5.861 -0.0951 -0.0271 -0.1866
  289POPC   C4A 4017   7.563   0.671   5.951  0.2636  0.1726 -0.1156
  289POPC   C1B 4018   5.834   0.746   6.224  0.1147 -0.2444 -0.0546
  289POPC   C2B 4019   5.958   0.737   6.681  0.0852  0.1693  0.2655
  289POPC   C3B 4020   6.176   0.933   7.012 -0.0137  0.3254  0.1356
  289POPC   C4B 4021   6.611   0.690   7.096  0.3248 -0.2325  0.0674
  290POPC   NC3 4022   5.496   7.043   4.638  0.1637 -0.3401 -0.1739
  290POPC   PO4 4023   5.601   6.931   5.072 -0.0797 -0.0221 -0.3456
  290POPC   GL1 4024   5.440   7.176   5.398  0.0975  0.0368 -0.1697
  290POPC   GL2 4025   5.587   7.487   5.433 -0.1124  0.1022 -0.1915
  290POPC   C1A 4026   5.179   7.301   5.783 -0.0622 -0.0759  0.0272
  290POPC   D2A 4027   4.900   7.441   6.094 -0.0636  0.2327  0.3032
  290POPC   C3A 4028   4.726   7.483   6.491 -0.1240 -0.0867  0.0185
  290POPC   C4A 4029   4.854   7.928   6.769 -0.0138 -0.3103 -0.1087
  290POPC   C1B 4030   5.980   7.445   5.664 -0.0115 -0.1197  0.0249
  290POPC   C2B 4031   6.276   7.326   5.939  0.5284  0.1029  0.0138
  290POPC   C3B 4032   6.229   7.208   6.309 -0.1039 -0.2875 -0.2084
  290POPC   C4B 4033   6.245   7.112   6.781  0.1422  0.6788  0.0596
  291POPC   NC3 4034   4.628   8.517   5.241  0.0129  0.0536  0.4600
  291POPC   PO4 4035   4.788   8.214   5.580  0.3341 -0.2495  0.3638
  291POPC   GL1 4036   5.019   8.225   5.875 -0.1040  0.0779  0.1142
  291POPC   GL2 4037   5.255   8.561   5.917  0.3526  0.2459 -0.2418
  291POPC   C1A 4038   5.153   8.091   6.343 -0.0138 -0.0515  0.2728
  291POPC   D2A 4039   5.379   8.279   6.711  0.1361  0.3951 -0.3277
  291POPC   C3A 4040   5.275   8.339   7.220 -0.0343  0.1865 -0.1109
  291POPC   C4A 4041   5.386   8.071   7.563 -0.2493  0.1493 -0.1355
  291POPC   C1B 4042   5.314   8.574   6.240 -0.0633  0.0579  0.2446
  291POPC   C2B 4043   5.614   8.666   6.533  0.1790 -0.1242  0.0067
  291POPC   C3B 4044   5.781   8.479   6.912 -0.0263 -0.0121 -0.1624
  291POPC   C4B 4045   5.755   8.257   7.249  0.1725 -0.1231 -0.0047
  292POPC   NC3 4046   2.233   5.753   5.290  0.0316 -0.0234 -0.0517
  292POPC   PO4 4047   2.392   5.270   5.229  0.1369 -0.0951  0.0718
  292POPC   GL1 4048   2.658   5.106   5.567  0.1348 -0.0111 -0.1633
  292POPC   GL2 4049   2.553   5.478   5.671  0.0074 -0.0291  0.1380
  292POPC   C1A 4050   2.616   4.872   5.947  0.0214 -0.0550 -0.1136
  292POPC   D2A 4051   2.398   4.827   6.367  0.2902  0.0232  0.0109
  292POPC   C3A 4052   2.213   5.178   6.649  0.1458  0.1599  0.0110
  292POPC   C4A 4053   2.295   5.634   6.686 -0.1316 -0.2050 -0.1976
  292POPC   C1B 4054   2.556   5.431   6.004  0.3392  0.0344 -0.0417
  292POPC   C2B 4055   2.678   5.218   6.376  0.1955  0.0035 -0.4307
  292POPC   C3B 4056   2.830   4.988   6.588  0.2390  0.1154  0.1831
  292POPC   C4B 4057   2.852   4.641   6.401  0.1831 -0.1826 -0.1155
  293POPC   NC3 4058   0.472   0.201   4.174  0.5227  0.1278 -0.0535
  293POPC   PO4 4059   0.377   0.482   4.407 -0.0917  0.3101 -0.2553
  293POPC   GL1 4060   0.366   0.169   4.722 -0.0373  0.0726 -0.0138
  293POPC   GL2 4061   0.627   0.085   4.813 -0.0186 -0.0951  0.0451
  293POPC   C1A 4062   0.252   0.137   5.112 -0.3609  0.1126  0.0045
  293POPC   D2A 4063   0.107   0.379   5.520  0.0566  0.0324  0.0451
  293POPC   C3A 4064  -0.025   0.184   5.835  0.0475 -0.1735  0.0594
  293POPC   C4A 4065  -0.181   0.276   6.322 -0.3043  0.1767  0.0927
  293POPC   C1B 4066   0.445  -0.289   4.864  0.2289  0.0847  0.1571
  293POPC   C2B 4067   0.140  -0.572   5.082 -0.2328 -0.2047  0.1635
  293POPC   C3B 4068  -0.139  -0.720   5.419  0.1404  0.0625 -0.2127
  293POPC   C4B 4069  -0.541  -0.991   5.521  0.0817 -0.0859  0.0799
  294POPC   NC3 4070   0.147   3.395   5.615  0.0488  0.2202 -0.3365
  294POPC   PO4 4071  -0.164   3.699   5.613  0.1705  0.2836  0.3542
  294POPC   GL1 4072   0.030   3.659   6.005  0.1634  0.1011 -0.2075
  294POPC   GL2 4073   0.353   3.719   6.084 -0.1440 -0.0105  0.0769
  294POPC   C1A 4074  -0.063   3.707   6.417  0.1697  0.0977 -0.2685
  294POPC   D2A 4075   0.135   3.590   6.804  0.1014 -0.2234 -0.0872
  294POPC   C3A 4076   0.216   3.936   7.097 -0.0709 -0.1743  0.0866
  294POPC   C4A 4077   0.326   4.318   7.086  0.0980  0.0028 -0.1565
  294POPC   C1B 4078   0.550   3.742   6.381 -0.1974  0.0485 -0.0264
  294POPC   C2B 4079   0.986   3.683   6.571  0.0603 -0.1675  0.2226
  294POPC   C3B 4080   1.397   3.516   6.513 -0.2409  0.1290 -0.1564
  294POPC   C4B 4081   1.808   3.539   6.810  0.0003 -0.0387  0.1429
  295POPC   NC3 4082   4.914   8.759   5.610  0.0217  0.2371 -0.1426
  295POPC   PO4 4083   4.866   9.197   5.359 -0.2656 -0.1986  0.2334
  295POPC   GL1 4084   4.837   9.208   5.778 -0.1052  0.1036  0.2791
  295POPC   GL2 4085   5.010   9.037   5.996 -0.0942 -0.1486 -0.1568
  295POPC   C1A 4086   4.677   9.387   6.177  0.1225  0.1019  0.1788
  295POPC   D2A 4087   4.670   9.392   6.523  0.3802  0.2016  0.2515
  295POPC   C3A 4088   4.392   9.477   6.798  0.0504  0.2289  0.0440
  295POPC   C4A 4089   4.258   9.603   7.172  0.1006 -0.0772 -0.0413
  295POPC   C1B 4090   4.964   8.879   6.455  0.2212  0.1282  0.0121
  295POPC   C2B 4091   4.573   8.996   6.814  0.2451 -0.1215  0.0056
  295POPC   C3B 4092   4.206   9.029   7.135 -0.0593  0.0407  0.1896
  295POPC   C4B 4093   3.859   9.202   7.320 -0.1055  0.4748 -0.1870
  296POPC   NC3 4094   8.719   5.412   4.445 -0.0392 -0.1379  0.1825
  296POPC   PO4 4095   9.222   5.619   4.732  0.1946 -0.1360  0.3636
  296POPC   GL1 4096   9.219   5.643   5.103 -0.0236 -0.0394 -0.1527
  296POPC   GL2 4097   9.280   5.331   5.299 -0.0826 -0.0586 -0.1272
  296POPC   C1A 4098   8.909   5.958   5.438 -0.0406 -0.0713  0.0896
  296POPC   D2A 4099   8.507   5.920   5.715  0.0245  0.0045  0.0468
  296POPC   C3A 4100   8.522   5.923   6.196 -0.1809  0.2093  0.0093
  296POPC   C4A 4101   8.712   5.650   6.424 -0.1311  0.3179 -0.1517
  296POPC   C1B 4102   9.237   5.307   5.758 -0.0102  0.2532 -0.1284
  296POPC   C2B 4103   9.075   5.427   6.137 -0.0735  0.2355 -0.0406
  296POPC   C3B 4104   9.074   5.150   6.557 -0.0161 -0.1137 -0.0664
  296POPC   C4B 4105   9.336   5.130   6.777  0.1914 -0.3404 -0.0309
  297POPC   NC3 4106   1.666   4.030   5.787  0.0743 -0.1861 -0.0101
  297POPC   PO4 4107   1.484   3.613   5.900 -0.1627 -0.1750  0.1837
  297POPC   GL1 4108   1.362   3.920   6.201 -0.0970  0.2075 -0.1276
  297POPC   GL2 4109   1.611   4.134   6.341  0.2221 -0.2219  0.0190
  297POPC   C1A 4110   1.065   4.144   6.468  0.1323  0.0428  0.2946
  297POPC   D2A 4111   1.068   4.457   6.660 -0.3536 -0.2640  0.1130
  297POPC   C3A 4112   0.787   4.542   7.044 -0.1047 -0.2245  0.0974
  297POPC   C4A 4113   0.541   4.791   7.244 -0.3007  0.0886 -0.4127
  297POPC   C1B 4114   1.558   4.426   6.576 -0.1668  0.1738 -0.1893
  297POPC   C2B 4115   1.452   4.447   7.031  0.3075 -0.1187 -0.0117
  297POPC   C3B 4116   1.228   4.483   7.304 -0.1152  0.0861 -0.1545
  297POPC   C4B 4117   0.833   4.330   7.582 -0.2053 -0.1215  0.4798
  298POPC   NC3 4118   3.047   3.093   4.799 -0.1832 -0.1022  0.2469
  298POPC   PO4 4119   3.305   2.705   5.118 -0.3083 -0.0008  0.1645
  298POPC   GL1 4120   3.531   2.655   5.492 -0.1312  0.1098  0.2254
  298POPC   GL2 4121   3.860   2.467   5.470 -0.0739 -0.1191  0.1095
  298POPC   C1A 4122   3.760   2.933   5.651 -0.1059 -0.0335 -0.4216
  298POPC   D2A 4123   3.795   3.180   6.105 -0.1157 -0.0191 -0.2299
  298POPC   C3A 4124   4.053   3.178   6.532  0.2908 -0.0193 -0.0532
  298POPC   C4A 4125   4.429   3.344   6.572 -0.0472 -0.0654  0.0727
  298POPC   C1B 4126   3.934   2.389   5.830 -0.0613 -0.2290 -0.0514
  298POPC   C2B 4127   3.860   2.654   6.266 -0.1579  0.0981  0.0461
  298POPC   C3B 4128   3.569   2.897   6.570  0.1408  0.1096 -0.0524
  298POPC   C4B 4129   3.576   3.282   6.793 -0.1150  0.1033  0.0504
  299POPC   NC3 4130   9.582   4.885   5.048  0.1353  0.0507  0.1480
  299POPC   PO4 4131   9.895   5.154   4.982  0.1233  0.1101 -0.0581
  299POPC   GL1 4132  10.156   5.548   5.022 -0.2766  0.2502  0.2316
  299POPC   GL2 4133  10.199   5.662   5.333 -0.4093 -0.2826 -0.1825
  299POPC   C1A 4134  10.200   6.080   4.957  0.1113  0.1169 -0.1398
  299POPC   D2A 4135  10.580   6.351   5.208  0.2148  0.1714 -0.0010
  299POPC   C3A 4136  11.040   6.197   5.348 -0.2180 -0.1696  0.1220
  299POPC   C4A 4137  11.465   6.208   5.519 -0.0437 -0.1232 -0.1818
  299POPC   C1B 4138   9.682   5.682   5.352  0.1346  0.1114 -0.0641
  299POPC   C2B 4139   9.358   5.742   5.595  0.0964  0.2266 -0.1327
  299POPC   C3B 4140   8.986   5.837   5.882  0.0037  0.0968 -0.1755
  299POPC   C4B 4141   9.062   6.063   6.293 -0.1851  0.0340 -0.4284
  300POPC   NC3 4142   2.429   8.142   4.782  0.4990 -0.0094  0.1948
  300POPC   PO4 4143   2.029   7.946   4.798  0.1216  0.0932  0.0280
  300POPC   GL1 4144   2.005   7.598   5.120 -0.2023 -0.0678  0.2247
  300POPC   GL2 4145   1.838   7.480   5.260 -0.0221  0.6055 -0.0007
  300POPC   C1A 4146   2.196   7.654   5.614 -0.0858  0.0543 -0.1115
  300POPC   D2A 4147   1.960   7.470   5.884  0.1791  0.0126 -0.0533
  300POPC   C3A 4148   1.971   7.703   6.257  0.1247  0.3916 -0.0383
  300POPC   C4A 4149   2.066   7.846   6.740 -0.0258 -0.0526 -0.0087
  300POPC   C1B 4150   1.579   7.168   5.530  0.1263  0.1876  0.4110
  300POPC   C2B 4151   1.484   7.057   5.907 -0.0507  0.0125 -0.0507
  300POPC   C3B 4152   1.417   7.215   6.406 -0.0977  0.0388  0.2491
  300POPC   C4B 4153   1.641   7.518   6.711 -0.2794  0.1784  0.1279
  301POPC   NC3 4154  10.147   6.584   4.037  0.2135  0.2370 -0.1071
  301POPC   PO4 4155   9.728   6.553   3.856  0.0533 -0.1567 -0.0274
  301POPC   GL1 4156   9.584   6.602   4.280 -0.2043 -0.0349  0.3183
  301POPC   GL2 4157   9.287   6.639   4.289  0.2672  0.0550  0.2254
  301POPC   C1A 4158   9.578   6.869   4.646 -0.0294  0.0522  0.0080
  301POPC   D2A 4159   9.324   7.054   4.921  0.0814 -0.0261 -0.2605
  301POPC   C3A 4160   9.533   7.243   5.325  0.0640 -0.1107 -0.1830
  301POPC   C4A 4161   9.564   7.689   5.467 -0.4026  0.0515 -0.0762
  301POPC   C1B 4162   9.038   6.792   4.618 -0.2493  0.1375 -0.0325
  301POPC   C2B 4163   8.844   6.796   5.064  0.1088  0.2541  0.0303
  301POPC   C3B 4164   8.760   6.929   5.491 -0.0549 -0.0924  0.2479
  301POPC   C4B 4165   8.499   6.872   5.785  0.4437  0.2275 -0.1736
  302POPC   NC3 4166   2.581   3.217   5.374  0.1849 -0.1138 -0.0016
  302POPC   PO4 4167   2.444   2.986   5.685  0.2037 -0.0814  0.2816
  302POPC   GL1 4168   2.224   2.799   6.051  0.0908 -0.0836 -0.2751
  302POPC   GL2 4169   2.377   2.483   6.002  0.1373 -0.0221 -0.0318
  302POPC   C1A 4170   1.801   2.662   6.286  0.1719 -0.1048 -0.0067
  302POPC   D2A 4171   1.514   2.541   6.626 -0.1580 -0.1195  0.0970
  302POPC   C3A 4172   1.609   2.642   7.051 -0.4304  0.3217  0.1714
  302POPC   C4A 4173   1.575   2.468   7.426 -0.3630  0.1365  0.2382
  302POPC   C1B 4174   2.567   2.461   6.504 -0.0084  0.2273 -0.2988
  302POPC   C2B 4175   2.351   2.285   6.875 -0.3701 -0.0606 -0.0291
  302POPC   C3B 4176   2.521   2.217   7.301  0.2435 -0.2550  0.1154
  302POPC   C4B 4177   2.767   1.935   7.394  0.1181  0.0620  0.0359
  303POPC   NC3 4178   1.274   5.925   4.861 -0.0991  0.3069  0.2258
  303POPC   PO4 4179   1.409   5.513   4.977  0.0379 -0.1286 -0.1483
  303POPC   GL1 4180   1.205   5.574   5.412 -0.1216 -0.0199  0.0385
  303POPC   GL2 4181   1.034   5.758   5.365  0.1715  0.0860 -0.0687
  303POPC   C1A 4182   1.079   5.354   5.684  0.2030 -0.0584 -0.0131
  303POPC   D2A 4183   1.253   5.201   5.971  0.0979 -0.0734  0.2820
  303POPC   C3A 4184   1.625   5.393   6.083 -0.2169 -0.1025  0.0193
  303POPC   C4A 4185   2.127   5.358   6.159  0.2159 -0.1648  0.0668
  303POPC   C1B 4186   0.931   5.911   5.752 -0.0949  0.0388  0.1402
  303POPC   C2B 4187   1.146   6.170   6.070  0.0029  0.0248 -0.1126
  303POPC   C3B 4188   1.221   6.274   6.493  0.2391 -0.2285 -0.0701
  303POPC   C4B 4189   1.138   6.343   6.990 -0.0278  0.0866 -0.2374
  304POPC   NC3 4190   6.532   5.050   4.566  0.0291  0.1339 -0.0864
  304POPC   PO4 4191   6.718   5.111   4.986 -0.0905  0.0859  0.3870
  304POPC   GL1 4192   6.921   5.063   5.387 -0.0730 -0.0137 -0.1628
  304POPC   GL2 4193   6.976   5.289   5.698 -0.0702 -0.3241  0.4118
  304POPC   C1A 4194   7.075   4.819   5.734 -0.1737  0.0863  0.1286
  304POPC   D2A 4195   7.256   4.613   6.154 -0.0558 -0.0313  0.0768
  304POPC   C3A 4196   7.233   4.712   6.463  0.0477  0.0846  0.1537
  304POPC   C4A 4197   7.513   4.954   6.767  0.1105 -0.0374  0.1552
  304POPC   C1B 4198   6.975   5.024   6.138  0.0663 -0.0957  0.0299
  304POPC   C2B 4199   6.723   4.692   6.432 -0.0741 -0.0574 -0.4374
  304POPC   C3B 4200   6.898   4.318   6.641 -0.2683  0.4421 -0.1582
  304POPC   C4B 4201   7.205   3.971   6.914  0.1752 -0.0292 -0.0976
  305POPC   NC3 4202   5.906   1.572   5.769 -0.0807  0.1286 -0.4678
  305POPC   PO4 4203   5.818   1.980   5.554  0.1718 -0.0798  0.2088
  305POPC   GL1 4204   5.616   2.006   5.907 -0.0570 -0.0738 -0.1959
  305POPC   GL2 4205   5.832   1.921   6.166 -0.1379 -0.2542 -0.0998
  305POPC   C1A 4206   5.420   2.160   6.337 -0.2494  0.1699 -0.0950
  305POPC   D2A 4207   5.288   2.489   6.609  0.7420  0.1295 -0.3600
  305POPC   C3A 4208   4.764   2.479   6.700  0.4186  0.1659 -0.2202
  305POPC   C4A 4209   4.521   2.273   6.939  0.2974  0.2251  0.0355
  305POPC   C1B 4210   5.938   1.609   6.507  0.0963 -0.0437 -0.2630
  305POPC   C2B 4211   6.069   1.376   6.833  0.1250  0.1917 -0.2412
  305POPC   C3B 4212   6.097   1.320   7.317  0.2293 -0.2384 -0.1413
  305POPC   C4B 4213   5.919   1.228   7.718 -0.1474 -0.1977  0.3737
  306POPC   NC3 4214   1.916   7.286   4.682 -0.1764  0.1728 -0.2270
  306POPC   PO4 4215   2.066   6.783   4.768 -0.0215 -0.0882 -0.0980
  306POPC   GL1 4216   1.906   6.657   5.174 -0.3305  0.1006 -0.0170
  306POPC   GL2 4217   1.885   6.840   5.422  0.0418  0.0346  0.0501
  306POPC   C1A 4218   1.698   6.473   5.622  0.3632  0.3059 -0.1449
  306POPC   D2A 4219   1.600   6.404   6.046 -0.3185 -0.0701 -0.2319
  306POPC   C3A 4220   1.711   6.695   6.366 -0.1622  0.1221  0.1736
  306POPC   C4A 4221   2.102   6.760   6.598 -0.1000 -0.2380 -0.2801
  306POPC   C1B 4222   1.930   6.796   5.917 -0.2908 -0.1779 -0.0106
  306POPC   C2B 4223   1.901   7.160   6.208  0.1634 -0.1250 -0.0754
  306POPC   C3B 4224   2.094   7.274   6.556 -0.1904 -0.0588 -0.1812
  306POPC   C4B 4225   2.301   7.184   6.936 -0.0627 -0.1753  0.1013
  307POPC   NC3 4226   6.227   2.463   5.549  0.1530 -0.1766  0.1228
  307POPC   PO4 4227   6.613   2.777   5.366 -0.0612  0.1341 -0.0548
  307POPC   GL1 4228   6.662   2.611   5.841  0.0727  0.0778 -0.0060
  307POPC   GL2 4229   6.721   2.370   5.944 -0.0765 -0.1593 -0.1511
  307POPC   C1A 4230   6.409   2.756   6.123  0.3903 -0.0012 -0.0973
  307POPC   D2A 4231   6.314   2.926   6.533 -0.1376 -0.1837  0.0719
  307POPC   C3A 4232   6.397   2.957   6.913 -0.0103  0.0088 -0.3620
  307POPC   C4A 4233   6.402   2.726   7.332 -0.0989 -0.0338 -0.0021
  307POPC   C1B 4234   6.760   2.191   6.268 -0.2446  0.0281  0.0222
  307POPC   C2B 4235   6.855   2.072   6.675  0.0679  0.3649  0.0563
  307POPC   C3B 4236   6.886   2.274   7.127  0.0841 -0.0796  0.1684
  307POPC   C4B 4237   6.849   2.565   7.540  0.0792  0.0457 -0.1062
  308POPC   NC3 4238   8.487   6.796   3.755  0.0498  0.0372  0.1271
  308POPC   PO4 4239   8.257   6.639   3.933  0.0858 -0.2094  0.2539
  308POPC   GL1 4240   8.334   6.801   4.354 -0.0880  0.0381  0.3355
  308POPC   GL2 4241   8.480   7.072   4.212  0.0435 -0.0360 -0.3098
  308POPC   C1A 4242   8.424   6.875   4.730  0.1594  0.0689  0.1735
  308POPC   D2A 4243   8.061   6.718   5.094  0.2246  0.0216  0.0512
  308POPC   C3A 4244   8.294   6.540   5.433  0.0369  0.2303  0.0526
  308POPC   C4A 4245   8.502   6.387   5.734  0.1348 -0.1278  0.0866
  308POPC   C1B 4246   8.310   7.345   4.555  0.0521  0.3327 -0.2636
  308POPC   C2B 4247   8.413   7.518   4.881 -0.0748  0.4800 -0.1237
  308POPC   C3B 4248   8.516   8.033   4.977 -0.1591  0.1514  0.0304
  308POPC   C4B 4249   8.775   8.367   4.865 -0.2613 -0.1136  0.2388
  309POPC   NC3 4250   5.289   9.877   5.201 -0.4044  0.1834  0.1272
  309POPC   PO4 4251   5.482  10.253   5.128  0.1377 -0.1409 -0.0905
  309POPC   GL1 4252   5.621  10.390   5.551 -0.0776  0.0607 -0.1043
  309POPC   GL2 4253   5.954  10.315   5.663  0.4297  0.2421  0.1528
  309POPC   C1A 4254   5.640  10.453   6.086 -0.3020 -0.1649  0.1989
  309POPC   D2A 4255   5.663  10.509   6.540  0.2866  0.3213 -0.0624
  309POPC   C3A 4256   5.621  10.199   6.755  0.0903 -0.2170 -0.2646
  309POPC   C4A 4257   5.730  10.051   7.251  0.1598 -0.0806 -0.1062
  309POPC   C1B 4258   6.096  10.481   6.008 -0.0561  0.0580  0.0046
  309POPC   C2B 4259   6.140  10.440   6.537  0.0024  0.2513 -0.1503
  309POPC   C3B 4260   6.129  10.444   6.983 -0.1456 -0.2493  0.1525
  309POPC   C4B 4261   5.976  10.514   7.351  0.4914  0.0698 -0.2257
  310POPC   NC3 4262   4.031   9.054   5.277  0.3321  0.3143 -0.1532
  310POPC   PO4 4263   4.097   8.618   5.313 -0.2972 -0.1300 -0.0574
  310POPC   GL1 4264   3.919   8.453   5.705  0.0428  0.0452  0.1598
  310POPC   GL2 4265   3.656   8.416   5.709 -0.3334  0.0023 -0.1705
  310POPC   C1A 4266   3.954   8.287   6.179 -0.0482  0.1781  0.1174
  310POPC   D2A 4267   3.935   8.297   6.584  0.3440 -0.0432  0.0849
  310POPC   C3A 4268   3.583   8.362   6.938 -0.0766 -0.2737  0.1566
  310POPC   C4A 4269   3.576   8.328   7.357  0.2641  0.2306  0.2673
  310POPC   C1B 4270   3.280   8.415   5.972 -0.0365  0.0522 -0.0935
  310POPC   C2B 4271   3.069   8.013   6.204 -0.2867  0.1247  0.1885
  310POPC   C3B 4272   2.737   7.928   6.482 -0.0933  0.1763 -0.0871
  310POPC   C4B 4273   2.412   8.243   6.609  0.3888  0.0487 -0.2163
  311POPC   NC3 4274   4.769   1.861   5.531 -0.1782  0.1280 -0.1672
  311POPC   PO4 4275   4.890   1.507   5.311  0.0619  0.1663 -0.0162
  311POPC   GL1 4276   4.860   1.443   5.774  0.1258 -0.0795  0.0886
  311POPC   GL2 4277   5.145   1.304   5.896  0.1054 -0.0621 -0.2464
  311POPC   C1A 4278   4.542   1.238   5.989  0.1897 -0.0337  0.1868
  311POPC   D2A 4279   4.159   0.951   6.124  0.0243 -0.0590 -0.0375
  311POPC   C3A 4280   3.886   1.116   6.366  0.0454  0.2458  0.0053
  311POPC   C4A 4281   3.690   1.438   6.615 -0.0716 -0.1601  0.1912
  311POPC   C1B 4282   5.247   1.097   6.251 -0.4569 -0.3447 -0.2410
  311POPC   C2B 4283   5.642   1.152   6.539  0.1092 -0.2536  0.1591
  311POPC   C3B 4284   5.692   1.047   7.004 -0.0711 -0.2679  0.0270
  311POPC   C4B 4285   5.834   0.870   7.326  0.0623 -0.0233 -0.1591
  312POPC   NC3 4286   9.404   6.954   3.888 -0.0792 -0.0109  0.0523
  312POPC   PO4 4287   8.959   7.132   3.832 -0.0224 -0.0376 -0.0710
  312POPC   GL1 4288   8.989   7.180   4.235 -0.0643  0.1733 -0.1998
  312POPC   GL2 4289   8.805   7.471   4.239  0.1372 -0.1484  0.1505
  312POPC   C1A 4290   9.260   7.413   4.545  0.0909  0.0138 -0.2175
  312POPC   D2A 4291   9.426   7.510   4.935  0.0838 -0.3665 -0.0649
  312POPC   C3A 4292   9.552   7.918   5.046 -0.2823  0.0385  0.2479
  312POPC   C4A 4293   9.779   8.188   5.019  0.0300 -0.0546  0.2372
  312POPC   C1B 4294   8.784   7.191   4.665  0.3594 -0.1967 -0.1014
  312POPC   C2B 4295   8.863   7.335   5.049 -0.1244  0.0325  0.0573
  312POPC   C3B 4296   9.040   7.402   5.438 -0.0250 -0.1929 -0.2173
  312POPC   C4B 4297   9.291   7.482   5.814 -0.0754  0.0122 -0.0497
  313POPC   NC3 4298   4.509   6.974   5.214  0.0384  0.4094 -0.2140
  313POPC   PO4 4299   4.340   6.699   5.466 -0.0612  0.2721 -0.1715
  313POPC   GL1 4300   4.504   6.883   5.743 -0.1518  0.1891 -0.2215
  313POPC   GL2 4301   4.549   7.237   5.735  0.3181  0.1259  0.2140
  313POPC   C1A 4302   4.497   6.939   6.215  0.1617 -0.4460  0.1507
  313POPC   D2A 4303   4.755   6.993   6.515 -0.1722 -0.1558 -0.2088
  313POPC   C3A 4304   4.785   6.898   6.976 -0.1268  0.1487  0.1261
  313POPC   C4A 4305   4.612   6.875   7.425 -0.0734 -0.2211 -0.3533
  313POPC   C1B 4306   4.294   7.369   6.042  0.0752 -0.0439  0.0233
  313POPC   C2B 4307   4.216   7.322   6.365 -0.3196 -0.0198 -0.2784
  313POPC   C3B 4308   4.325   7.193   6.690 -0.0406 -0.0441  0.1674
  313POPC   C4B 4309   4.545   7.308   7.040  0.5340  0.0952  0.2051
  314POPC   NC3 4310   3.149   9.327   4.871  0.0233  0.1098 -0.1398
  314POPC   PO4 4311   3.150   9.654   5.263  0.0818  0.0137  0.2485
  314POPC   GL1 4312   3.065   9.887   5.618  0.1219  0.2688  0.1049
  314POPC   GL2 4313   3.182  10.267   5.524  0.1623  0.0500  0.0061
  314POPC   C1A 4314   2.971  10.102   6.004 -0.0650  0.1386  0.1828
  314POPC   D2A 4315   2.679  10.188   6.384  0.1188 -0.2868 -0.0205
  314POPC   C3A 4316   2.666   9.934   6.729  0.1754 -0.0768  0.0055
  314POPC   C4A 4317   2.558   9.896   7.165 -0.1927  0.3154  0.1478
  314POPC   C1B 4318   3.465  10.129   5.856 -0.2145  0.1173 -0.2351
  314POPC   C2B 4319   3.672   9.757   6.203 -0.0397 -0.1542  0.1598
  314POPC   C3B 4320   3.846   9.566   6.500 -0.0486  0.2719 -0.1165
  314POPC   C4B 4321   3.820   9.336   6.837  0.3126 -0.2698  0.0619
  315POPC   NC3 4322   1.198   1.352   5.091  0.3266  0.5327  0.1090
  315POPC   PO4 4323   1.101   0.890   5.008  0.1388 -0.1172 -0.0022
  315POPC   GL1 4324   1.036   0.833   5.444  0.1129 -0.0693  0.0449
  315POPC   GL2 4325   0.812   0.741   5.417  0.1900  0.0514  0.1458
  315POPC   C1A 4326   0.935   0.862   5.927 -0.0964 -0.1370  0.0926
  315POPC   D2A 4327   0.871   0.779   6.301 -0.0275 -0.0320  0.0106
  315POPC   C3A 4328   0.820   0.310   6.358 -0.1330 -0.1350 -0.2396
  315POPC   C4A 4329   0.941  -0.002   6.144 -0.2254  0.0678 -0.1696
  315POPC   C1B 4330   0.320   0.842   5.410 -0.0234  0.1877 -0.0262
  315POPC   C2B 4331   0.104   0.644   5.057 -0.1428 -0.0397 -0.0146
  315POPC   C3B 4332  -0.222   0.235   5.071 -0.1220  0.1900  0.2587
  315POPC   C4B 4333  -0.129  -0.195   4.861 -0.2323 -0.2139  0.3576
  316POPC   NC3 4334   4.917   4.692   4.919 -0.0293 -0.1082 -0.2271
  316POPC   PO4 4335   5.309   5.039   5.120  0.2913 -0.0938  0.3428
  316POPC   GL1 4336   5.037   5.133   5.466 -0.1954 -0.0433  0.0375
  316POPC   GL2 4337   4.728   5.060   5.528  0.1543 -0.1060  0.3629
  316POPC   C1A 4338   4.781   5.452   5.743 -0.0255  0.1532  0.2453
  316POPC   D2A 4339   4.657   5.506   6.196 -0.0471 -0.0953 -0.2161
  316POPC   C3A 4340   4.446   5.229   6.516 -0.1049  0.0582  0.0320
  316POPC   C4A 4341   4.295   4.925   6.781  0.1479  0.2060  0.0554
  316POPC   C1B 4342   4.884   4.716   5.752  0.1747 -0.4004  0.1949
  316POPC   C2B 4343   4.599   4.612   6.125  0.1135  0.0043  0.1473
  316POPC   C3B 4344   4.325   4.309   6.295  0.1653  0.1784 -0.0150
  316POPC   C4B 4345   3.900   4.195   6.349 -0.2026 -0.0016 -0.1633
  317POPC   NC3 4346   0.740   5.979   3.987 -0.0745  0.1159  0.1050
  317POPC   PO4 4347   0.631   6.187   4.387 -0.2466  0.0879  0.2131
  317POPC   GL1 4348   0.515   6.585   4.726 -0.2638 -0.2211  0.2991
  317POPC   GL2 4349   0.860   6.800   4.795  0.1965 -0.2717  0.2269
  317POPC   C1A 4350   0.355   6.807   4.953  0.1712 -0.1306 -0.2107
  317POPC   D2A 4351   0.289   6.900   5.432  0.0461 -0.5416 -0.2696
  317POPC   C3A 4352   0.576   7.219   5.572  0.2479  0.0173  0.0584
  317POPC   C4A 4353   0.734   7.571   5.424  0.0704  0.2904  0.0899
  317POPC   C1B 4354   0.723   6.769   5.257 -0.1017  0.3139 -0.1502
  317POPC   C2B 4355   0.629   6.530   5.641 -0.0655  0.1180  0.0103
  317POPC   C3B 4356   0.648   6.276   6.011  0.2202 -0.3020 -0.0234
  317POPC   C4B 4357   0.731   6.353   6.495 -0.3450 -0.1802  0.0235
  318POPC   NC3 4358   6.156   1.139   5.393  0.2716  0.3300  0.0883
  318POPC   PO4 4359   6.583   1.246   5.523 -0.2231 -0.1611 -0.2666
  318POPC   GL1 4360   6.408   1.483   5.897 -0.2721  0.0821 -0.0945
  318POPC   GL2 4361   6.653   1.411   6.077  0.0585 -0.1331  0.0667
  318POPC   C1A 4362   6.429   1.753   6.322  0.2456 -0.0233  0.2306
  318POPC   D2A 4363   6.457   1.786   6.735 -0.0919  0.3681 -0.0531
  318POPC   C3A 4364   6.111   1.862   7.032  0.2327 -0.1405  0.0382
  318POPC   C4A 4365   5.624   1.661   6.966 -0.0053  0.4677  0.1189
  318POPC   C1B 4366   6.640   1.197   6.472  0.2688 -0.0381  0.0614
  318POPC   C2B 4367   6.630   1.177   6.901 -0.1708  0.3448 -0.1458
  318POPC   C3B 4368   6.562   1.368   7.265  0.0359 -0.1261  0.2732
  318POPC   C4B 4369   6.368   1.586   7.643 -0.1600 -0.1111 -0.3291
  319W        W 4370   4.036   1.335   1.211  0.0804  0.1434  0.2255
  320W        W 4371   9.914   9.849   0.892  0.1334 -0.2220  0.0449
  321W        W 4372   4.615   6.655  12.057 -0.2037  0.0979 -0.1430
  322W        W 4373   2.414   7.723   1.962  0.0586  0.0330  0.2102
  323W        W 4374   9.845   4.901  12.457 -0.3569 -0.2519 -0.1039
  324W        W 4375   7.238   5.288   0.678 -0.0165  0.0159  0.1446
  325W        W 4376   8.520   3.528  12.252 -0.3977  0.1482  0.2067
  326W        W 4377   2.680   8.637  12.300  0.0536  0.3737 -0.2269
  327W        W 4378   1.642   6.256   5.158 -0.2396 -0.2532 -0.0749
  328W        W 4379   3.720   2.487  13.022 -0.2868 -0.0918  0.2144
  329W        W 4380   5.764   4.833   1.160  0.0612  0.0396 -0.1336
  330W        W 4381   5.460   9.930   0.070  0.0658  0.2872 -0.0746
  331W        W 4382   6.190   9.791   4.912 -0.0280  0.1921 -0.1590
  332W        W 4383   6.603   4.309  10.199  0.2140  0.1892  0.1005
  333W        W 4384  10.094   1.434   1.924  0.1432 -0.1467  0.0425
  334W        W 4385   6.111   8.446  10.211  0.2844  0.2446 -0.2545
  335W        W 4386   0.402   5.262   2.117  0.0874  0.0805 -0.1279
  336W        W 4387   1.726   5.772   0.130 -0.0657 -0.1297 -0.1708
  337W        W 4388   2.233   9.401   4.485  0.1787  0.0779 -0.0913
  338W        W 4389   1.430   1.356   0.190 -0.2041  0.0508 -0.0301
  339W        W 4390   9.203   5.527  10.606 -0.2361 -0.0203  0.1794
  340W        W 4391   1.734   1.510   9.434  0.5931 -0.1332 -0.1482
  341W        W 4392   2.888   3.499   4.449 -0.1034 -0.1188 -0.1786
  342W        W 4393   1.527   4.470   0.504  0.1832  0.0247  0.1030
  343W        W 4394   0.783   8.589   0.094 -0.4019 -0.1027 -0.0194
  344W        W 4395   0.164   2.205   2.345 -0.0414  0.0037 -0.0356
  345W        W 4396   1.022   2.312  13.364 -0.2328  0.0175  0.0995
  346W        W 4397   8.000   1.429   8.993 -0.3136  0.0963 -0.0396
  347W        W 4398   8.868   0.784   0.064 -0.2531  0.3050 -0.2780
  348W        W 4399   8.137   2.269   2.861  0.1300 -0.0078 -0.1773
  349W        W 4400   6.194   1.624   0.718 -0.1473 -0.7111  0.1563
  350W        W 4401   8.268   6.052  10.535  0.3303  0.0373  0.1977
  351W        W 4402   5.452   4.384  13.437 -0.0658 -0.1673 -0.3355
  352W        W 4403   5.825   2.627   4.807  0.0096  0.2303  0.0351
  353W        W 4404   2.421   7.220  12.189  0.0211 -0.1344  0.2082
  354W        W 4405   7.428   4.220  10.410 -0.1482  0.2589 -0.2166
  355W        W 4406   9.519   9.833  13.082 -0.1444 -0.1964  0.0656
  356W        W 4407   5.816   3.578   2.813  0.4089 -0.5205 -0.4479
  357W        W 4408   7.502   3.659   3.431  0.0783  0.3338 -0.2560
  358W        W 4409   0.194   6.522   0.429 -0.3057 -0.0782 -0.1278
  359W        W 4410   7.419   0.824   9.434 -0.2446  0.1192 -0.1021
  360W        W 4411   1.229   5.462   4.500 -0.3664 -0.2707 -0.0497
  361W        W 4412   0.164   5.962  10.103  0.2481  0.1063 -0.0526
  362W        W 4413   1.300   6.047  12.739 -0.0417  0.1118 -0.0358
  363W        W 4414   9.597   3.934  12.968  0.3971 -0.2749  0.0373
  364W        W 4415   9.584   6.378  11.046  0.1810  0.0116 -0.2880
  365W        W 4416   6.500   1.327   0.425  0.0435  0.4261  0.3886
  366W        W 4417   2.249   7.529   3.499  0.0780 -0.0391 -0.0928
  367W        W 4418   5.594   0.220  11.320 -0.2477 -0.5004 -0.2810
  368W        W 4419   5.571   8.950   3.899 -0.0620  0.0938  0.0054
  369W        W 4420   4.140   2.857   9.954  0.1326 -0.0774 -0.3268
  370W        W 4421   1.476   3.025  10.997 -0.2196 -0.2946 -0.0651
  371W        W 4422   4.098   0.779   1.621 -0.2609  0.1194  0.5205
  372W        W 4423   5.495   5.218  11.410  0.0233  0.3241 -0.1454
  373W        W 4424   1.376   6.312  13.586  0.0711  0.1896  0.1143
  374W        W 4425   0.756   7.041   2.616  0.1317 -0.0744  0.0030
  375W        W 4426   3.174  10.038  12.307  0.2467 -0.3124 -0.1198
  376W        W 4427   1.735   0.250  13.526  0.1799 -0.2641  0.1460
  377W        W 4428   4.224  10.164  11.520  0.3462 -0.2189  0.1094
  378W        W 4429   8.644   6.926   1.837 -0.1617  0.1293  0.1556
  379W        W 4430   0.807   4.820   0.520 -0.2009 -0.1205  0.1105
  380W        W 4431   7.396   6.035  10.302  0.1348 -0.1865  0.1161
  381W        W 4432   7.458   8.840  13.605 -0.2860 -0.1159  0.2081
  382W        W 4433   3.831   8.549  13.532 -0.1604  0.1338  0.2343
  383W        W 4434   9.148   9.092   0.392 -0.0269 -0.0327 -0.3195
  384W        W 4435   0.467   9.198   1.875  0.1679 -0.0145 -0.0636
  385W        W 4436   4.632   8.591   4.671  0.0479 -0.1080 -0.0213
  386W        W 4437   9.781   9.585   0.486  0.0676 -0.1866 -0.1397
  387W        W 4438   2.682   8.433   0.064 -0.0202 -0.0523 -0.1108
  388W        W 4439   0.381   4.287   1.734 -0.3083  0.0723  0.0863
  389W        W 4440   8.778   3.068  13.539 -0.1950 -0.2598 -0.0296
  390W        W 4441   4.265   4.297   0.823  0.1525  0.2555 -0.0136
  391W        W 4442   2.636   5.752   1.342 -0.0524 -0.1739 -0.0070
  392W        W 4443   5.523   9.600  12.248  0.0619  0.1775 -0.0410
  393W        W 4444   0.019   7.556   1.423  0.0500 -0.0884  0.1273
  394W        W 4445   9.468   3.001  10.628 -0.2869 -0.0018  0.0719
  395W        W 4446   7.365   8.168  10.147  0.1448  0.0956 -0.2248
  396W        W 4447   3.129   1.204   2.705  0.0797 -0.3846 -0.2056
  397W        W 4448   4.918   3.881   2.304  0.0191 -0.2273 -0.2273
  398W        W 4449   0.748   1.880  12.763  0.0194 -0.1685  0.1905
  399W        W 4450   0.949   9.775  10.934 -0.0213  0.1421  0.0240
  400W        W 4451   3.940   0.754   2.126  0.1442  0.0375  0.1068
  401W        W 4452   0.771   5.632   1.524  0.0506 -0.0742  0.3209
  402W        W 4453   3.698   6.258  13.025  0.4461  0.0241  0.0183
  403W        W 4454   6.848   7.819  11.824  0.0870 -0.1643  0.3702
  404W        W 4455   2.708   3.289  11.767 -0.4573  0.1381  0.1466
  405W        W 4456   8.138   2.485   9.958 -0.0499  0.0866 -0.1504
  406W        W 4457   2.357   9.569   3.658  0.0793 -0.2312  0.2072
  407W        W 4458  10.108   0.153   4.080 -0.0265  0.5361  0.0467
  408W        W 4459   6.997   5.711  13.835 -0.4705 -0.0548  0.1325
  409W        W 4460   4.065   8.460   1.959 -0.0270 -0.2359  0.0050
  410W        W 4461   1.366   9.042  12.319  0.0479  0.1835  0.2722
  411W        W 4462   6.522   5.227  12.089  0.1400  0.0219  0.1738
  412W        W 4463   4.291   7.521   2.177  0.1026 -0.0381  0.1249
  413W        W 4464   8.624   6.249   1.772 -0.1796 -0.3564 -0.0300
  414W        W 4465   3.799  10.092   9.664  0.1208  0.0164 -0.5317
  415W        W 4466   5.238   2.700   1.316 -0.2980 -0.2371 -0.0206
  416W        W 4467   8.206   2.406  11.213  0.1020  0.0847 -0.1258
  417W        W 4468   2.649   8.854   1.853 -0.1889  0.3633 -0.0025
  418W        W 4469   2.471   1.771   2.188  0.1078 -0.0283 -0.1724
  419W        W 4470   5.252   0.824   4.110  0.0662 -0.3450  0.0771
  420W        W 4471   9.344   2.931  12.276 -0.0318 -0.1473  0.1009
  421W        W 4472   7.351   6.138   0.233  0.1546 -0.1520  0.0424
  422W        W 4473   0.295   8.148   1.836 -0.3290  0.0851  0.0313
  423W        W 4474   4.394   5.613   4.788  0.0312  0.0606 -0.0582
  424W        W 4475   4.670   6.245   4.170  0.1647  0.2341 -0.1788
  425W        W 4476   2.158   5.127   2.487 -0.0062 -0.6784  0.4795
  426W        W 4477   1.043   4.061   9.134 -0.0491 -0.1425  0.1462
  427W        W 4478   3.655   0.871   3.591  0.4237  0.4899  0.1579
  428W        W 4479   3.683   8.095   2.419  0.0819  0.2735 -0.1244
  429W        W 4480   5.485   6.664   2.408  0.1161  0.0995  0.1793
  430W        W 4481   1.510   2.001  11.318 -0.1300  0.0385  0.2860
  431W        W 4482   1.865   9.681   4.337 -0.2081 -0.4759 -0.2286
  432W        W 4483   5.008   8.942   3.134 -0.0513 -0.1022  0.0860
  433W        W 4484   1.782   8.561   0.152 -0.0476 -0.0425 -0.3892
  434W        W 4485   4.361   3.232  10.878  0.1214 -0.0163  0.0591
  435W        W 4486   0.841   7.938  10.508  0.0866  0.2365 -0.0695
  436W        W 4487   6.467   9.345   2.314 -0.2083 -0.2160  0.1107
  437W        W 4488   0.330   1.873  12.445  0.0548 -0.1093 -0.1306
  438W        W 4489   5.873   8.398   2.626  0.0960  0.2322 -0.0940
  439W        W 4490   7.560   1.016   3.981  0.2207 -0.1139  0.1606
  440W        W 4491   9.585   4.584   8.480 -0.2614  0.2030 -0.1578
  441W        W 4492   3.200   2.221   3.803  0.3970 -0.2543 -0.2970
  442W        W 4493   0.312   3.552  13.197 -0.0787 -0.0826  0.2445
  443W        W 4494   5.166   3.754   4.487  0.1219  0.1555 -0.0761
  444W        W 4495   3.620   9.676   1.441  0.1258  0.2388  0.1482
  445W        W 4496   8.422   4.473   5.227  0.2115  0.0639  0.0814
  446W        W 4497   5.338   2.155   9.886  0.1292  0.0876  0.0145
  447W        W 4498   5.516   9.280   1.715  0.2288  0.2968 -0.1124
  448W        W 4499   8.143   4.283  10.245  0.1634 -0.1542 -0.0171
  449W        W 4500   4.289   9.762  13.159  0.0200 -0.0384  0.1064
  450W        W 4501   1.968   2.991   9.960 -0.0470  0.0737 -0.4012
  451W        W 4502   5.041   0.424  12.142  0.1159  0.0063 -0.1707
  452W        W 4503   7.115   8.513   9.815 -0.1346  0.0109  0.3585
  453W        W 4504   3.759   7.414   2.114  0.3495  0.2604  0.0343
  454W        W 4505   0.602   9.655   2.145 -0.1081 -0.1375 -0.1318
  455W        W 4506   1.716   3.621   3.101  0.1462 -0.2062 -0.1943
  456W        W 4507   5.520   5.363   2.432 -0.3502 -0.0755 -0.1115
  457W        W 4508   2.261   8.378   0.478  0.1953 -0.1869  0.0029
  458W        W 4509   6.608   1.110   3.696 -0.2303 -0.0500 -0.0066
  459W        W 4510   4.229   4.650   2.169 -0.1548 -0.0795 -0.0612
  460W        W 4511   8.032   5.629   2.752  0.1938 -0.2869 -0.1424
  461W        W 4512   1.170   3.309  12.953  0.0574 -0.1291 -0.0180
  462W        W 4513   0.390   5.602   4.192  0.0113  0.3460 -0.0966
  463W        W 4514   9.644   2.649  11.011 -0.2892  0.1716  0.1263
  464W        W 4515   4.387   7.040   1.955 -0.1813 -0.0438 -0.2071
  465W        W 4516   6.886   4.047  10.539  0.3003  0.4117 -0.0763
  466W        W 4517   6.706   7.798   3.451 -0.0277 -0.0149  0.0714
  467W        W 4518   4.981   7.645   1.190  0.4334 -0.0647  0.1660
  468W        W 4519   5.833   9.662   4.007  0.1992  0.4488 -0.3168
  469W        W 4520   8.888   3.937   1.994 -0.5079 -0.2623 -0.2428
  470W        W 4521   9.326   6.053  11.820 -0.1398 -0.3622  0.0253
  471W        W 4522   7.646   3.516   0.904 -0.2196  0.0356 -0.0429
  472W        W 4523   0.298   6.304  13.835 -0.1878 -0.0977  0.2309
  473W        W 4524   4.828   2.731   2.242  0.0162 -0.2739 -0.1422
  474W        W 4525   0.806   5.804   3.234 -0.1515  0.1207 -0.1044
  475W        W 4526   4.267   2.281  13.010 -0.0215  0.1173 -0.1130
  476W        W 4527   1.850   4.112   3.201  0.3695  0.1147 -0.0919
  477W        W 4528   9.395   2.078   3.205 -0.1513 -0.1177 -0.0327
  478W        W 4529   9.456   6.391   2.999  0.3091 -0.4221 -0.0100
  479W        W 4530   0.869   1.541   0.878  0.3510  0.1223 -0.1603
  480W        W 4531   7.363   9.169   0.826  0.0957  0.1282  0.0598
  481W        W 4532   1.573   1.904   1.329  0.0489  0.1982  0.0235
  482W        W 4533   0.534   8.109   1.090  0.2527 -0.2524  0.1039
  483W        W 4534   0.110   7.541  10.952 -0.2821  0.0102 -0.1665
  484W        W 4535   1.408  10.048  12.825  0.2447  0.0875  0.5575
  485W        W 4536   4.052   3.383   0.421  0.2200 -0.1714  0.0016
  486W        W 4537   4.118   9.374  10.887 -0.1708  0.1567 -0.0969
  487W        W 4538   6.458   6.143  12.960  0.0945 -0.0766  0.0765
  488W        W 4539   4.167   0.819   3.241  0.2230  0.0590  0.3471
  489W        W 4540   3.720   9.317   3.033 -0.0703  0.0067 -0.0126
  490W        W 4541   8.292   1.612  10.828 -0.3455  0.2900 -0.2706
  491W        W 4542   8.372   0.039  13.442  0.0897 -0.2795  0.2969
  492W        W 4543   0.959   6.450   1.753  0.0617 -0.1182 -0.4748
  493W        W 4544   9.338   8.318  11.752  0.1481  0.0962  0.0120
  494W        W 4545   8.269   6.093   0.833 -0.0033  0.1836 -0.2328
  495W        W 4546   7.974   0.488   3.349  0.4815 -0.2325  0.0947
  496W        W 4547   1.191   3.777   9.965 -0.0664  0.0256  0.0897
  497W        W 4548   3.443   0.782   4.079  0.1267 -0.3624 -0.0776
  498W        W 4549   1.335   2.277   3.074 -0.1741 -0.1089 -0.2194
  499W        W 4550   2.305   8.244   9.830  0.1030  0.1397  0.1431
  500W        W 4551   7.026   9.439  11.983  0.1852  0.1439  0.0464
  501W        W 4552   3.965   2.528  11.330 -0.1068  0.1514 -0.0636
  502W        W 4553   0.953   3.564  11.688 -0.0879 -0.0684 -0.1796
  503W        W 4554   0.417   9.326  12.064  0.0859 -0.0093 -0.0934
  504W        W 4555   2.505   4.545   1.476 -0.2409 -0.3586  0.1043
  505W        W 4556   1.969   2.979  11.042  0.0241  0.4030 -0.1658
  506W        W 4557   2.172   2.126   5.612 -0.0396 -0.0890 -0.3014
  507W        W 4558   6.352   0.290  12.974 -0.1104 -0.1335 -0.0257
  508W        W 4559   2.891   3.040   2.420  0.3048 -0.1709  0.0303
  509W        W 4560   0.919   2.439   4.589 -0.0121  0.0917  0.1381
  510W        W 4561   3.758   6.775   1.417 -0.0034  0.1158 -0.1434
  511W        W 4562   6.392   1.009   4.167  0.4018 -0.0707  0.2443
  512W        W 4563   2.551   9.924   1.467  0.4432  0.2423 -0.1851
  513W        W 4564   4.990   9.407  11.495  0.0021  0.0289  0.1665
  514W        W 4565   4.265   4.319   4.231  0.0139  0.4087 -0.1008
  515W        W 4566   6.188   1.437  12.698  0.3339 -0.0534  0.3466
  516W        W 4567   3.198   6.380  13.332  0.2735  0.2049 -0.4846
  517W        W 4568   6.894   0.556  10.442  0.0191 -0.2301  0.1975
  518W        W 4569   8.266   1.296  13.639  0.1044  0.1859 -0.3801
  519W        W 4570   3.359   7.408   2.463 -0.4529 -0.1444  0.0455
  520W        W 4571   8.043   8.558   1.655  0.1364 -0.1955  0.1762
  521W        W 4572   5.462   2.837   5.167 -0.1599 -0.1665  0.0953
  522W        W 4573   6.671   3.210  13.657 -0.1522 -0.4550  0.1362
  523W        W 4574   8.122   0.398   1.813 -0.3372 -0.0357  0.0603
  524W        W 4575   4.925   6.668  12.524  0.1896 -0.0141  0.0292
  525W        W 4576   5.181   5.824  12.484  0.0241  0.0576  0.1280
  526W        W 4577   9.584   8.917  11.913 -0.0083 -0.0440  0.0033
  527W        W 4578   7.796   6.096   3.529 -0.0178 -0.1152  0.2479
  528W        W 4579   8.737   5.299  10.217 -0.1799 -0.0645  0.1913
  529W        W 4580   3.231   5.950  12.573  0.4577  0.2019  0.0199
  530W        W 4581   8.856   6.633   4.105 -0.2785  0.0723  0.2847
  531W        W 4582   8.399   9.757   3.427  0.0049 -0.3283 -0.3522
  532W        W 4583   2.657   5.684   9.658 -0.0266  0.0279 -0.0671
  533W        W 4584   3.249   9.049  11.261 -0.0563  0.0735 -0.1931
  534W        W 4585   1.556   3.152   3.124 -0.1712 -0.3668  0.1154
  535W        W 4586   0.970   9.550  13.598  0.2706  0.0126 -0.0162
  536W        W 4587   6.833   8.249   2.627 -0.1244 -0.2767 -0.1524
  537W        W 4588   8.475   3.054  12.044 -0.0475  0.1561 -0.1261
  538W        W 4589   5.087   6.584   1.868  0.1588 -0.2273  0.1157
  539W        W 4590   2.657   8.009   2.337  0.0162 -0.1378 -0.0767
  540W        W 4591   5.700   7.836  12.751 -0.0820  0.4520  0.2532
  541W        W 4592   5.029   0.208  12.643 -0.2127  0.1539  0.1162
  542W        W 4593   1.257   0.687   2.025  0.0743 -0.2590  0.3088
  543W        W 4594   7.009   7.209  10.714  0.2580  0.3044  0.2406
  544W        W 4595   8.397   0.005  11.337  0.1334 -0.2684 -0.0765
  545W        W 4596   4.655   7.367  10.041 -0.2440  0.0238  0.0141
  546W        W 4597   2.755   1.032   1.623  0.3717  0.0952 -0.2070
  547W        W 4598   3.143   9.558   3.563 -0.3690 -0.1513  0.0852
  548W        W 4599   1.169   5.364   1.676  0.1415  0.0104 -0.1690
  549W        W 4600   3.800   2.952   0.319  0.2581  0.1197  0.3065
  550W        W 4601   9.844   1.772   3.176 -0.0059  0.1372  0.1562
  551W        W 4602   2.647   9.188   0.438  0.1100 -0.4064  0.2969
  552W        W 4603   2.878   9.949   1.839 -0.3027  0.1828 -0.0823
  553W        W 4604   1.693   9.144   4.253  0.0067 -0.1394 -0.0261
  554W        W 4605   9.265   4.294   9.869 -0.2096  0.4227 -0.1601
  555W        W 4606   1.348   2.350   1.242 -0.0093  0.0335 -0.1552
  556W        W 4607   8.329   5.726  12.758  0.0346  0.0772 -0.0624
  557W        W 4608   2.597   1.003  13.370 -0.1419 -0.5147 -0.1812
  558W        W 4609   2.114   8.015   0.829 -0.0684 -0.1633 -0.2367
  559W        W 4610   9.982   4.562  11.044  0.1708 -0.0158 -0.1113
  560W        W 4611   4.484   1.464  12.883 -0.0221  0.0072 -0.2277
  561W        W 4612   4.778   6.928   1.682 -0.0816  0.0508  0.1583
  562W        W 4613   1.191   4.256   9.552  0.1318 -0.0560 -0.0220
  563W        W 4614   9.608   9.097   0.646  0.4335  0.2466 -0.0911
  564W        W 4615   2.229   3.043   0.498  0.1005 -0.1051  0.0826
  565W        W 4616   9.027   0.327   2.931  0.4359  0.0289  0.0801
  566W        W 4617   9.510   9.717   2.721 -0.0651  0.0481  0.0544
  567W        W 4618   8.960   6.106  13.020 -0.3203 -0.2938  0.1763
  568W        W 4619   9.772   0.422   0.708  0.1405  0.1044  0.1069
  569W        W 4620   7.873   2.546  12.217  0.0134  0.1202 -0.1450
  570W        W 4621   0.526   0.659   4.923 -0.1195 -0.1986  0.0374
  571W        W 4622  10.171   2.622   2.957 -0.0238  0.1006 -0.1084
  572W        W 4623   4.914   4.934   3.087  0.0834  0.0287  0.1281
  573W        W 4624   4.781   9.498   0.188 -0.0693  0.5764  0.0472
  574W        W 4625   2.662   8.478   5.215 -0.0293  0.1335 -0.3320
  575W        W 4626   7.647   2.385   9.978  0.2274  0.2137  0.0917
  576W        W 4627   5.963   0.359  10.416 -0.0134  0.1338  0.0382
  577W        W 4628   3.985   7.459   3.211  0.4379 -0.0794  0.1036
  578W        W 4629   3.347   2.701   9.131 -0.3122  0.0503  0.1104
  579W        W 4630   1.573   3.519   4.031  0.0259  0.1484 -0.0485
  580W        W 4631   2.489   3.233   1.942  0.0347 -0.2045  0.0028
  581W        W 4632   4.620   7.183  13.336  0.0789  0.3679 -0.0434
  582W        W 4633   6.884   2.509  12.496  0.0557  0.0642  0.1611
  583W        W 4634   0.761   5.277   9.984  0.1049  0.3783 -0.2836
  584W        W 4635   7.357   0.899  13.177  0.4119 -0.1097  0.3210
  585W        W 4636   6.183   7.131  12.973  0.1279 -0.1708 -0.0283
  586W        W 4637   5.648   9.582  10.903 -0.0529 -0.1071 -0.0655
  587W        W 4638   1.440   7.085  10.364 -0.1639 -0.4059  0.4723
  588W        W 4639   6.494   6.995   3.511 -0.4921  0.2522 -0.0683
  589W        W 4640   3.688   5.718  13.124 -0.4862 -0.2149 -0.2702
  590W        W 4641   1.102   1.053   1.088 -0.2552  0.0094  0.1199
  591W        W 4642   9.984   8.025   3.646  0.1786  0.0526  0.3642
  592W        W 4643   2.729   1.743   1.310 -0.0897 -0.1882 -0.2508
  593W        W 4644   5.288   4.793  10.779  0.0996  0.0326 -0.2166
  594W        W 4645   8.724   3.432   4.121 -0.0505  0.0895  0.0678
  595W        W 4646   3.527   3.327   0.595  0.0504 -0.2433  0.0609
  596W        W 4647   5.503   1.871   1.900  0.6300  0.1349  0.0276
  597W        W 4648   0.670   7.907  13.721  0.0621  0.0621 -0.0417
  598W        W 4649   1.431   4.621   3.342  0.1634  0.0657  0.1052
  599W        W 4650   3.962   2.899   5.111  0.2050 -0.2476 -0.3051
  600W        W 4651   5.835   8.687   3.531 -0.1964  0.1506  0.1857
  601W        W 4652   5.564   0.795   0.698  0.2410 -0.0308  0.4231
  602W        W 4653   7.708   1.540   4.198  0.0869 -0.1904  0.3743
  603W        W 4654   8.560   7.407   1.962 -0.2596  0.4676 -0.1344
  604W        W 4655   0.216   6.671  12.724  0.1623 -0.1894 -0.1466
  605W        W 4656   8.131   8.808  11.943  0.0711 -0.0618  0.1854
  606W        W 4657   7.209   1.512   2.663  0.3317  0.1671  0.0547
  607W        W 4658   6.065   9.159   3.780  0.1100  0.1146 -0.1978
  608W        W 4659   2.541   3.152  13.603  0.2736  0.3527 -0.0662
  609W        W 4660   2.186   9.333  12.776 -0.1835  0.0251 -0.1549
  610W        W 4661   0.410   0.731  10.795  0.0115  0.0304 -0.2195
  611W        W 4662   5.304   5.269  10.444 -0.1669 -0.0261 -0.3564
  612W        W 4663   6.296   3.091   3.309 -0.2089 -0.0019 -0.0248
  613W        W 4664   9.834   1.536  10.967  0.1491 -0.0777 -0.0482
  614W        W 4665   5.812   6.106   2.189 -0.0303 -0.1283 -0.0645
  615W        W 4666   3.927   5.578   4.419  0.0000  0.0299  0.1684
  616W        W 4667   0.282   1.371   0.917  0.0820  0.0461  0.0743
  617W        W 4668   7.714   2.513   4.328  0.1523 -0.0126  0.1455
  618W        W 4669   7.078   6.705  10.846 -0.3339 -0.2099 -0.2702
  619W        W 4670   3.735   8.272   3.869 -0.2081 -0.1869 -0.3556
  620W        W 4671   8.285   3.243   5.395 -0.0821 -0.0307 -0.1437
  621W        W 4672   5.162   9.544   1.292  0.1800 -0.0811 -0.0278
  622W        W 4673   2.805   3.864   2.949  0.3725 -0.1394  0.1620
  623W        W 4674   3.477   8.959   0.037  0.0172 -0.1973 -0.0049
  624W        W 4675   8.038   3.411   2.770  0.0025 -0.0358  0.0936
  625W        W 4676   8.626   5.691  10.448 -0.0797  0.1828 -0.0836
  626W        W 4677   6.152   4.879  12.291 -0.0424 -0.0805  0.2639
  627W        W 4678   0.884   0.387   1.733  0.0967  0.1523  0.0403
  628W        W 4679   6.666   4.685   2.132 -0.1991  0.0601 -0.0058
  629W        W 4680   4.822   8.033   1.536  0.0784  0.1266  0.1278
  630W        W 4681   2.060   4.113   1.831 -0.1690 -0.5510 -0.1609
  631W        W 4682   8.793   4.877  13.599 -0.0804 -0.1440 -0.1095
  632W        W 4683   1.217   7.345   9.511  0.0929 -0.2234 -0.0183
  633W        W 4684   1.042   6.270  11.200  0.1551  0.1337  0.0190
  634W        W 4685   5.916   0.819  13.735  0.2509  0.1927 -0.0071
  635W        W 4686   7.765   3.851  10.321 -0.0602  0.1390 -0.3331
  636W        W 4687   3.453   5.964  10.540 -0.2359  0.2896 -0.1286
  637W        W 4688   0.259   2.227   0.760 -0.4319 -0.1910  0.0630
  638W        W 4689   7.237   5.510  13.078  0.0772  0.0912 -0.0783
  639W        W 4690   8.753   4.818   9.781 -0.0204  0.0048  0.0023
  640W        W 4691   1.205   0.904   2.487  0.1217  0.0183  0.4542
  641W        W 4692   2.886   4.926   4.560  0.0214 -0.0894  0.4488
  642W        W 4693   1.604   0.750  13.288  0.1576  0.4290  0.3106
  643W        W 4694   4.446   5.641   2.752  0.0592  0.0906 -0.2427
  644W        W 4695   4.931   9.561   9.629 -0.3020 -0.1200 -0.0235
  645W        W 4696   0.058   8.399   3.802 -0.0284 -0.0563  0.1096
  646W        W 4697   5.302   7.874   1.492 -0.2397  0.1044  0.0793
  647W        W 4698   2.950   6.782  13.061  0.0028  0.3860  0.1617
  648W        W 4699   9.873   3.923  11.635  0.2149 -0.0383 -0.0115
  649W        W 4700   5.076   1.869  13.474  0.0917  0.0361 -0.1751
  650W        W 4701   9.102   7.551   1.935 -0.1524  0.4202 -0.1518
  651W        W 4702   9.485   0.298  12.443  0.0296 -0.1478 -0.0212
  652W        W 4703   4.788   4.053   2.822 -0.0846  0.0747 -0.4650
  653W        W 4704   7.809  10.052  11.640  0.0890  0.0320 -0.0800
  654W        W 4705   9.956   4.737  10.562 -0.0643  0.2305  0.1364
  655W        W 4706   3.374   7.483  11.688  0.1113 -0.0483 -0.1618
  656W        W 4707   5.473  10.145  10.385 -0.1272  0.1857 -0.0131
  657W        W 4708   8.297   5.644   1.121 -0.0133 -0.1751 -0.1053
  658W        W 4709   1.343   2.691   2.335 -0.0099  0.1963  0.0194
  659W        W 4710   6.056   9.064   9.033 -0.0995  0.0697  0.3785
  660W        W 4711   5.314   6.661  11.235  0.1181  0.0064  0.0250
  661W        W 4712   2.556   1.413  12.361  0.2919  0.2399 -0.2143
  662W        W 4713   4.261   6.679  10.289 -0.0440 -0.0049 -0.0403
  663W        W 4714   9.128   4.766   0.574  0.0785  0.2360 -0.0206
  664W        W 4715   9.639   3.696   9.695  0.2326 -0.1168 -0.0066
  665W        W 4716   5.756   1.834   0.928  0.0116 -0.0276  0.0675
  666W        W 4717   9.204   3.126   3.184 -0.2574  0.2802  0.0045
  667W        W 4718   0.160   3.174   9.724  0.1938 -0.1754  0.3439
  668W        W 4719   9.828   9.935   9.688 -0.2248 -0.1992 -0.0661
  669W        W 4720   2.679   4.837   0.119 -0.3382  0.1483 -0.0460
  670W        W 4721   0.393   8.474  12.590 -0.0817  0.4284 -0.1037
  671W        W 4722   7.577   1.843   9.627  0.0220  0.0716  0.1798
  672W        W 4723   5.703   2.302   9.158  0.2042  0.0089  0.0844
  673W        W 4724   4.489   2.264  13.553  0.0879  0.0848 -0.1755
  674W        W 4725   1.113   7.833  13.216 -0.4282  0.0872 -0.1387
  675W        W 4726   3.293   2.710  12.486 -0.0847  0.1015 -0.1726
  676W        W 4727   8.287   3.354   4.402  0.1753  0.0141 -0.0294
  677W        W 4728   0.411   2.054   0.304 -0.2051 -0.2195 -0.0909
  678W        W 4729   6.971   7.558   9.233  0.1378 -0.2022  0.0654
  679W        W 4730  10.136   4.461   3.090  0.0157 -0.2675 -0.2362
  680W        W 4731   8.212   7.862   0.732 -0.1466 -0.2583 -0.1320
  681W        W 4732   3.483   0.170  12.691 -0.1061 -0.0625 -0.1871
  682W        W 4733   8.624   2.254   2.608  0.1032 -0.2584  0.1231
  683W        W 4734   1.599   1.732  13.064  0.1599 -0.3330 -0.0809
  684W        W 4735   2.488   5.793   4.078  0.1757 -0.0425 -0.4945
  685W        W 4736   8.715   4.479   2.198 -0.4000  0.5184  0.1112
  686W        W 4737   2.610   4.320  13.162  0.2801 -0.1063  0.2919
  687W        W 4738   5.244   3.810  11.055 -0.1726 -0.1622  0.1678
  688W        W 4739   4.845   4.788   9.400 -0.1985  0.1976  0.0524
  689W        W 4740   1.252   1.323   3.208  0.1401  0.2055  0.0674
  690W        W 4741   6.952   3.798   0.539 -0.1585 -0.0832 -0.2047
  691W        W 4742   2.674   2.862   0.434  0.1595  0.2081  0.2412
  692W        W 4743   5.268   4.112   0.860  0.1663 -0.4824  0.3647
  693W        W 4744   6.251  10.058   9.870 -0.3894  0.0377 -0.0112
  694W        W 4745   7.841   3.421   4.631 -0.2181 -0.0525  0.0267
  695W        W 4746   3.651   5.705   9.286 -0.3554 -0.0893 -0.0281
  696W        W 4747   1.460   3.022   4.042 -0.2510  0.0365 -0.1771
  697W        W 4748   2.570   1.064  10.459  0.2356  0.0647 -0.1578
  698W        W 4749   9.039   4.953   2.506 -0.1982  0.3785  0.1749
  699W        W 4750   7.594   5.226  12.860 -0.0720  0.0029 -0.3608
  700W        W 4751   9.487   6.544   9.727  0.0860 -0.1585  0.1355
  701W        W 4752   8.879   3.363  11.388  0.2375 -0.1588  0.0074
  702W        W 4753   6.591  10.023   0.867  0.1681 -0.4478 -0.3477
  703W        W 4754   1.980   4.580   3.161  0.0422  0.0789  0.3394
  704W        W 4755   2.211   9.041   1.609  0.1747  0.2398 -0.0535
  705W        W 4756   6.069   6.126  10.026  0.2724 -0.1716  0.1198
  706W        W 4757   6.114   4.103   3.530 -0.1815 -0.0335 -0.3344
  707W        W 4758   2.653   0.561   4.818 -0.0521 -0.2191  0.0837
  708W        W 4759   5.413   3.981   9.409 -0.0174 -0.2904 -0.2590
  709W        W 4760   7.131   9.009   9.810 -0.3824 -0.2258 -0.1315
  710W        W 4761   1.377   2.608   6.094  0.0072 -0.2386  0.0996
  711W        W 4762   1.656   7.686   1.473 -0.1941  0.2243  0.0172
  712W        W 4763   9.732   8.611  12.961 -0.2428  0.4191 -0.0911
  713W        W 4764   9.377   2.620  11.940 -0.1025  0.0569 -0.0156
  714W        W 4765   4.242   3.139  13.423 -0.2524  0.2901  0.1098
  715W        W 4766   7.724   2.676   4.790 -0.3001 -0.6285 -0.0767
  716W        W 4767   9.393   7.609   0.946 -0.0646  0.0925 -0.0329
  717W        W 4768   8.196   1.917   5.113  0.0155  0.2856 -0.0164
  718W        W 4769   2.779   0.783   3.320 -0.2077  0.1326 -0.0569
  719W        W 4770   1.499   2.375  11.743  0.5340  0.1570 -0.0140
  720W        W 4771   0.175   8.841   2.742  0.0018  0.0099 -0.2011
  721W        W 4772   5.833   2.229   4.214 -0.2453  0.2339  0.6652
  722W        W 4773   5.166   7.869  13.443 -0.2281 -0.2641  0.0919
  723W        W 4774   8.509   5.826  13.195  0.0104 -0.1954  0.2073
  724W        W 4775   0.972   3.565  13.942  0.0344 -0.0237  0.0509
  725W        W 4776   7.168   2.727   0.738 -0.1578 -0.0226 -0.1254
  726W        W 4777   3.915   5.531  12.160  0.2344  0.1805 -0.0618
  727W        W 4778   2.878   6.496   1.031 -0.1149 -0.0034  0.0636
  728W        W 4779   8.286   1.734   3.030 -0.2299 -0.0495 -0.2650
  729W        W 4780   8.337   7.822   1.442  0.0299 -0.0486 -0.0667
  730W        W 4781   7.115   5.286  12.138  0.2028  0.1637 -0.1632
  731W        W 4782   7.312   8.661   0.616  0.1638  0.0161  0.0009
  732W        W 4783   4.400   1.020  12.356  0.5711  0.3972  0.0760
  733W        W 4784   2.801   4.373   4.694 -0.1180 -0.1818 -0.0365
  734W        W 4785   7.694   1.875   5.088  0.0179 -0.1463  0.1856
  735W        W 4786   1.359   3.811   5.420 -0.1107  0.2175 -0.3315
  736W        W 4787   3.100   6.577   2.198 -0.1364  0.2099  0.1768
  737W        W 4788   1.572   0.443   0.126  0.0436 -0.1565 -0.0047
  738W        W 4789   7.600   7.472  13.048 -0.1329 -0.2179 -0.1274
  739W        W 4790   2.022   2.369  10.325 -0.0540  0.1351  0.2024
  740W        W 4791   3.513   3.737  11.729  0.2956 -0.0672  0.2104
  741W        W 4792   5.210   8.301   2.792 -0.0953  0.4355  0.0901
  742W        W 4793   5.435   8.546   3.135 -0.2092 -0.2733 -0.2094
  743W        W 4794   0.034   6.985   3.161  0.2277 -0.1452  0.4490
  744W        W 4795   2.096   6.870   1.998  0.4495  0.1716  0.0712
  745W        W 4796   5.772   0.575   3.806 -0.2064  0.1768 -0.1868
  746W        W 4797   4.507   1.849  11.258 -0.0402  0.0353 -0.0183
  747W        W 4798   5.458   4.543   1.350 -0.1051  0.4051 -0.2652
  748W        W 4799   1.614   6.336  13.120 -0.3063 -0.0465  0.0926
  749W        W 4800   5.083   8.684  13.905  0.0507  0.1489 -0.0156
  750W        W 4801   1.355   0.398  11.097  0.0919 -0.1970 -0.0387
  751W        W 4802   9.825   2.895  11.423 -0.2396 -0.2456  0.0158
  752W        W 4803   3.725   6.973   3.208 -0.1980 -0.0445 -0.1887
  753W        W 4804   3.212   1.727   4.555 -0.0804 -0.2136 -0.1743
  754W        W 4805   9.919   8.464   1.232  0.4625  0.0301  0.0211
  755W        W 4806   6.701   0.551  12.734  0.2615  0.0193  0.0639
  756W        W 4807   0.039   4.395   3.785  0.0178 -0.1001  0.1115
  757W        W 4808   6.230   5.528   5.162  0.0499 -0.0711  0.1831
  758W        W 4809   6.188   7.355  13.550 -0.1284 -0.1052 -0.2511
  759W        W 4810   2.604   8.529   2.248  0.2980  0.1169 -0.0348
  760W        W 4811   5.777   8.149   9.228  0.1498  0.0043 -0.1279
  761W        W 4812   7.719   0.605   1.512 -0.0965  0.1965  0.0896
  762W        W 4813   3.324   4.093   1.098  0.0806  0.0202 -0.1598
  763W        W 4814   6.720   1.515  11.160 -0.0655 -0.2980  0.0090
  764W        W 4815   3.047   8.495   9.588 -0.1480 -0.1232 -0.0239
  765W        W 4816   4.986   9.906   4.793 -0.1463  0.0676  0.0410
  766W        W 4817   4.712   7.068  13.852  0.1526  0.2874  0.0495
  767W        W 4818   8.941   5.245  11.863 -0.1285  0.3707 -0.0278
  768W        W 4819   4.313   1.139   9.707 -0.0650 -0.0944  0.1399
  769W        W 4820   4.040   1.670   4.787  0.1282  0.0999 -0.1348
  770W        W 4821   4.354   4.380   0.349  0.0876  0.2876  0.0799
  771W        W 4822   5.135   7.621  13.912  0.0895 -0.1160  0.0017
  772W        W 4823   6.192   5.361   4.256  0.2581  0.0708  0.0366
  773W        W 4824   8.227   6.604   1.594  0.0396  0.1601  0.1257
  774W        W 4825   6.938   4.001  13.403 -0.2815  0.2377  0.2501
  775W        W 4826   8.652   9.417  13.263  0.1208  0.4227  0.0119
  776W        W 4827   9.903   3.999  13.779  0.1479  0.0791  0.3601
  777W        W 4828   7.905   0.156   1.386  0.0131  0.0935 -0.0770
  778W        W 4829   0.978   9.681  11.523  0.1607 -0.1720 -0.1267
  779W        W 4830   4.013   4.823  13.631 -0.0878 -0.1122 -0.2239
  780W        W 4831   5.460   6.441  13.290 -0.1191  0.0981  0.1347
  781W        W 4832   1.062   0.923   1.565  0.0700  0.1195  0.2051
  782W        W 4833   9.121   9.625   1.385 -0.1671 -0.1770  0.2099
  783W        W 4834  10.073   0.538   9.522 -0.0727  0.1431 -0.1251
  784W        W 4835   0.001   5.341  11.705  0.1208 -0.1055 -0.1118
  785W        W 4836   1.721   0.570  10.388 -0.3977 -0.6145  0.0684
  786W        W 4837   6.131   5.439  10.163  0.1187  0.3769  0.0764
  787W        W 4838   5.100   1.666  13.911 -0.0576  0.4336  0.2752
  788W        W 4839   3.243   5.950   2.372 -0.0153  0.0083 -0.4171
  789W        W 4840   9.881   3.355   0.360  0.0379 -0.0681 -0.0634
  790W        W 4841   2.759   6.556   0.463  0.3497 -0.3577 -0.0292
  791W        W 4842   5.611   7.697  13.566 -0.1559 -0.0220 -0.1807
  792W        W 4843   3.200   3.264   1.473  0.0215  0.1664  0.2217
  793W        W 4844   1.331   2.760   9.602  0.1566 -0.0468  0.2745
  794W        W 4845   4.659   6.961   4.224  0.2144 -0.2014 -0.1578
  795W        W 4846   1.307   7.514   3.371  0.2155  0.0351  0.0074
  796W        W 4847   4.469   8.565   1.028 -0.2322  0.0724 -0.0499
  797W        W 4848   0.294   6.739  11.764 -0.4007 -0.0293  0.0681
  798W        W 4849   1.120   5.261   2.575  0.2632  0.0242  0.0246
  799W        W 4850   6.200   3.251   2.761  0.0952  0.3342 -0.0137
  800W        W 4851   1.460   5.995  11.644 -0.0111 -0.0295  0.0401
  801W        W 4852   8.966   9.618  12.307 -0.1937  0.1071  0.3115
  802W        W 4853   5.603   1.567  11.603  0.1300  0.0684 -0.0518
  803W        W 4854   7.049   2.796   1.272  0.3609 -0.2254 -0.1462
  804W        W 4855   6.646   3.522   2.844 -0.1696 -0.0842  0.3913
  805W        W 4856   8.020   0.666   0.538 -0.0111  0.4166 -0.4852
  806W        W 4857   7.206   4.711   0.039 -0.1422  0.2136 -0.2564
  807W        W 4858   2.230   1.887   8.572 -0.2853 -0.1648  0.2460
  808W        W 4859   2.428   2.299  12.019 -0.0252 -0.0743 -0.0820
  809W        W 4860   9.282   4.529  11.471  0.0801 -0.1992  0.3048
  810W        W 4861   4.788   8.478  13.503  0.1968  0.2912 -0.1531
  811W        W 4862   8.419   3.190  10.243  0.2448  0.2784  0.0814
  812W        W 4863   3.127   5.097   0.276  0.0053  0.1296 -0.3365
  813W        W 4864   7.106   5.721   0.386 -0.0995 -0.2047 -0.0344
  814W        W 4865   8.830   6.130  10.476  0.0498 -0.0013 -0.0233
  815W        W 4866   7.874   5.060   9.570  0.0177  0.0739  0.0989
  816W        W 4867   9.499   0.685  13.345 -0.0499 -0.1884 -0.0149
  817W        W 4868   1.736   6.609   0.729 -0.0019 -0.3521  0.4076
  818W        W 4869   0.936   8.013  11.380  0.1904  0.1439 -0.1502
  819W        W 4870   1.121   3.310   9.657  0.1282 -0.0799 -0.0695
  820W        W 4871   8.557   1.946   0.604 -0.1828  0.0197 -0.2384
  821W        W 4872  10.011   0.054   3.624  0.1544 -0.0916  0.2297
  822W        W 4873   6.467   2.365  11.204  0.0417 -0.2022  0.2644
  823W        W 4874   8.413   9.729  13.559 -0.1275  0.1718  0.0323
  824W        W 4875   7.457   7.071  12.784 -0.4306  0.1057  0.5036
  825W        W 4876   0.378   1.195   2.849  0.2907  0.0465  0.1379
  826W        W 4877   9.725   8.427  12.077  0.2937 -0.1240  0.1162
  827W        W 4878   1.064   3.236   3.288  0.2743 -0.3602  0.2127
  828W        W 4879   5.379   6.489   4.503 -0.2672 -0.1097 -0.1232
  829W        W 4880   8.314   5.593  11.714 -0.2573 -0.1842  0.0126
  830W        W 4881   4.038   5.438   5.179  0.1139  0.0544  0.1508
  831W        W 4882   4.612   5.564   1.104  0.0012 -0.1271  0.0730
  832W        W 4883   1.393   9.700  10.486  0.1819  0.2791  0.0697
  833W        W 4884   8.096   5.359   4.136  0.2617 -0.0688  0.1619
  834W        W 4885   0.217   6.844  13.634 -0.0040  0.0774  0.1447
  835W        W 4886   8.829   5.274  10.876  0.0586  0.1644 -0.1560
  836W        W 4887   9.955   1.519  10.147 -0.0296 -0.0356  0.1604
  837W        W 4888   1.474   1.536  10.901 -0.3044 -0.1309  0.1325
  838W        W 4889   9.379   7.896   2.788  0.0739  0.0536 -0.1940
  839W        W 4890   0.541   5.913  13.106 -0.1251  0.0297 -0.0281
  840W        W 4891   9.665   4.445   2.890  0.1695  0.1463  0.0099
  841W        W 4892   6.767   5.808   3.698  0.0745  0.1327  0.3592
  842W        W 4893   8.756   4.412  13.303  0.1338  0.1564 -0.0181
  843W        W 4894   0.305   4.040   9.791  0.0155  0.0983 -0.1157
  844W        W 4895   9.184   8.403  13.870  0.1400 -0.1398  0.2611
  845W        W 4896   4.359   8.310   1.440  0.2739  0.1672  0.0335
  846W        W 4897   3.225   9.111   9.256 -0.0967 -0.1014  0.2478
  847W        W 4898   2.603   1.515   9.138 -0.2402 -0.0633  0.1670
  848W        W 4899   6.984   8.593  13.401  0.1481  0.2998 -0.1926
  849W        W 4900   2.656   9.871  13.715  0.0257  0.1993 -0.0020
  850W        W 4901   4.801   7.147   9.664 -0.1950 -0.0339  0.4713
  851W        W 4902   5.438   9.610   0.904  0.4004 -0.2474  0.0991
  852W        W 4903   9.134   6.222   3.343 -0.0026 -0.0759 -0.0397
  853W        W 4904   6.369   0.719  11.592  0.1540  0.0503  0.0552
  854W        W 4905   3.359   5.205   2.398  0.0773  0.1145 -0.0596
  855W        W 4906   8.262   9.113  12.908 -0.0495  0.2752  0.2746
  856W        W 4907   7.612   0.993   1.858  0.1621 -0.1477  0.2206
  857W        W 4908   4.675   2.874   1.356 -0.2933  0.2336 -0.6110
  858W        W 4909   8.966   2.416   1.783  0.0181 -0.3227 -0.0139
  859W        W 4910   7.373   2.733   3.150  0.0559  0.0259 -0.0532
  860W        W 4911   6.163   3.451   1.725  0.2646  0.0468 -0.0791
  861W        W 4912   6.898   2.102  13.998 -0.0289 -0.1021  0.0103
  862W        W 4913   2.127   3.933   4.158  0.0381  0.0692  0.1246
  863W        W 4914   5.975   6.602   2.274 -0.3586  0.1138 -0.0516
  864W        W 4915   2.009   1.873  11.143 -0.0903  0.3934  0.0382
  865W        W 4916   9.417   1.049  12.073 -0.2220 -0.0284  0.0994
  866W        W 4917   7.285   1.533  11.144 -0.1295 -0.1049 -0.2697
  867W        W 4918   5.164   9.587  13.792  0.2762 -0.1242 -0.1692
  868W        W 4919   1.622   2.691  10.298  0.0131  0.1519  0.0323
  869W        W 4920   2.933   1.491   0.918 -0.1701  0.0680 -0.0714
  870W        W 4921   3.072   9.364   9.833 -0.0321  0.2542  0.1010
  871W        W 4922   9.964   2.278   3.797 -0.2174  0.0869 -0.1848
  872W        W 4923   0.733   2.862  10.381 -0.4082  0.1207 -0.0251
  873W        W 4924   2.094   9.356   4.041 -0.3288  0.0799 -0.0460
  874W        W 4925   2.039   5.824   3.896  0.0132 -0.2508 -0.3661
  875W        W 4926   9.565   1.366   3.164  0.0498  0.0253  0.0930
  876W        W 4927   6.837   1.290   4.102  0.4467 -0.4588 -0.0165
  877W        W 4928   7.194   5.394  10.096 -0.1914 -0.1545 -0.1954
  878W        W 4929   8.809   5.056  12.295  0.4639 -0.2419  0.2679
  879W        W 4930   4.604   8.835   4.181 -0.0107  0.1801 -0.3375
  880W        W 4931   3.771   2.876   3.305  0.1381  0.2313 -0.0687
  881W        W 4932   6.877   0.438   9.557  0.3770  0.0370 -0.2114
  882W        W 4933   2.901   8.356   3.723  0.1546 -0.0696 -0.2324
  883W        W 4934   9.753   0.437   2.081  0.0546 -0.0670  0.2213
  884W        W 4935   4.833   3.847   8.456 -0.2541  0.0993 -0.2898
  885W        W 4936   2.097   2.797  12.268 -0.3274 -0.3159 -0.2256
  886W        W 4937   3.508   9.036  12.268 -0.0169  0.1115  0.3925
  887W        W 4938   4.942   5.743   4.810  0.0823 -0.3790 -0.1927
  888W        W 4939   5.698   0.702  11.059  0.0237 -0.0502 -0.0733
  889W        W 4940   4.229   8.945   2.247 -0.2631  0.2125  0.1323
  890W        W 4941   6.784   7.258   2.682  0.3975  0.0048  0.3972
  891W        W 4942   8.108   9.759  11.156 -0.0262  0.0321 -0.2428
  892W        W 4943   6.368   9.305  10.624  0.0006  0.2916  0.2490
  893W        W 4944   2.260   0.030  13.607  0.1426  0.1072  0.0817
  894W        W 4945   1.199   9.209  10.745  0.2158  0.1385 -0.2336
  895W        W 4946   7.643   6.219  13.221 -0.1967  0.0334 -0.0073
  896W        W 4947   7.555   8.703   3.879 -0.2724 -0.1087  0.0844
  897W        W 4948   1.165   1.197   2.055  0.4583 -0.1079  0.0131
  898W        W 4949   2.027   8.412   1.752  0.0992  0.0580 -0.0544
  899W        W 4950   8.207   2.217   1.668 -0.3142  0.0003  0.3425
  900W        W 4951   1.663   7.826   0.618 -0.1530 -0.0606  0.1606
  901W        W 4952   3.595   0.613  11.767 -0.0499  0.0991  0.0372
  902W        W 4953   4.618   1.939  13.168  0.0597  0.0361  0.2086
  903W        W 4954   5.596   0.780  12.782 -0.3596 -0.1674  0.1147
  904W        W 4955   0.521   7.073  12.934 -0.1334 -0.0745 -0.4153
  905W        W 4956   7.697   9.607   4.193  0.0572 -0.1876 -0.0311
  906W        W 4957   2.816   9.485   1.625 -0.0190  0.1913  0.0425
  907W        W 4958   6.121   6.502   4.373  0.0452 -0.0945  0.2740
  908W        W 4959   4.944   2.782   0.897  0.1043 -0.2719 -0.1596
  909W        W 4960  10.036   9.190  12.165 -0.2883  0.0472 -0.0513
  910W        W 4961   4.054   3.169   3.095  0.1859 -0.0831 -0.0772
  911W        W 4962   4.200   0.813   4.658  0.2413  0.0380  0.1312
  912W        W 4963   9.195   7.262  11.718 -0.0221 -0.0212 -0.3473
  913W        W 4964   5.018   8.261   4.599  0.1211  0.2261  0.0367
  914W        W 4965   7.787   9.092  10.408  0.2453 -0.3325  0.5242
  915W        W 4966   0.856   0.616   1.232 -0.4447  0.0415  0.0305
  916W        W 4967   9.066   2.900   9.893  0.0951 -0.1254 -0.1062
  917W        W 4968   0.325   0.869   2.488 -0.0554 -0.0861 -0.1612
  918W        W 4969   7.210   8.942  12.065 -0.0791  0.5006  0.2282
  919W        W 4970   5.924   0.804   2.643 -0.1611  0.0780 -0.5307
  920W        W 4971   3.379   7.036   8.973 -0.2108  0.0474  0.0412
  921W        W 4972   4.438   2.782  13.672  0.1733  0.1310  0.0575
  922W        W 4973   6.091   7.639   2.365 -0.1549  0.5760 -0.0292
  923W        W 4974   5.879   4.288   2.169  0.0899 -0.2359 -0.2776
  924W        W 4975   3.984   1.126  13.963  0.0201 -0.2346  0.0209
  925W        W 4976   0.758   1.670   3.848 -0.0383 -0.1439  0.0875
  926W        W 4977   9.388  10.072  10.470 -0.2019  0.0833  0.0659
  927W        W 4978   4.318   5.502   0.034  0.1004 -0.1976 -0.0563
  928W        W 4979   1.724   0.388   3.027 -0.2876  0.1106 -0.0798
  929W        W 4980   2.364  10.147   0.206  0.0854 -0.1795 -0.2025
  930W        W 4981   5.268   3.637   3.963 -0.0213 -0.3307 -0.0592
  931W        W 4982   4.538   1.286  11.947 -0.2165 -0.2079 -0.1485
  932W        W 4983   9.740   4.407  11.485 -0.1214  0.2423 -0.0959
  933W        W 4984   9.384   4.076  13.799 -0.4537 -0.1920  0.0133
  934W        W 4985   2.873   2.700  10.342 -0.0395  0.0760 -0.2304
  935W        W 4986   3.792   8.230   5.228  0.2949  0.0447 -0.2256
  936W        W 4987   9.422  10.070   3.615  0.0117  0.1053 -0.0278
  937W        W 4988   5.871   1.269  13.400  0.0356  0.1458  0.1244
  938W        W 4989   6.094   1.590  11.697 -0.2510 -0.0021 -0.1011
  939W        W 4990  10.153   2.486   9.222 -0.2157 -0.0392  0.0961
  940W        W 4991   6.844   9.272   0.526  0.1295  0.1591 -0.3937
  941W        W 4992   0.356   7.569  11.647  0.1090 -0.0991  0.0761
  942W        W 4993   8.233   8.134  12.763  0.1295 -0.0975  0.0390
  943W        W 4994   0.852   1.767  11.040  0.0048 -0.0006  0.1283
  944W        W 4995   3.530  10.045   3.593 -0.5104  0.3822 -0.1010
  945W        W 4996   5.779   3.721   4.213 -0.1522 -0.1491  0.0692
  946W        W 4997   0.969   9.015  13.101  0.1130 -0.3075  0.1320
  947W        W 4998   6.495   4.274   4.104  0.1990  0.4612 -0.1104
  948W        W 4999   0.587   4.148   8.696  0.0907  0.0707 -0.0732
  949W        W 5000   3.687   3.073   2.755  0.1321 -0.1372  0.2951
  950W        W 5001   4.053   8.966   1.779 -0.1524 -0.3631 -0.2919
  951W        W 5002   4.915   7.952  11.063 -0.2319  0.0471  0.2113
  952W        W 5003   1.419   0.431  10.035 -0.0510  0.3103 -0.2797
  953W        W 5004   5.992   2.068  10.852 -0.1073 -0.1678 -0.2211
  954W        W 5005   5.426   2.205  13.709 -0.0862  0.0131 -0.0761
  955W        W 5006   4.981   6.320  13.451  0.0824 -0.0371 -0.1390
  956W        W 5007   9.903  10.153  12.166  0.0891  0.1869  0.0623
  957W        W 5008   2.651   7.755  10.412  0.5091  0.0998 -0.1858
  958W        W 5009   3.215   5.343   3.671 -0.2372  0.1834 -0.0835
  959W        W 5010   1.678   4.634   9.354 -0.0444  0.1166 -0.1586
  960W        W 5011   3.227   2.316  13.805  0.2037  0.0239 -0.1249
  961W        W 5012   4.133   0.711  12.645  0.0750  0.1959  0.0029
  962W        W 5013   1.545   2.084   5.096  0.0469 -0.1335 -0.0784
  963W        W 5014   2.156   4.093   5.495  0.2906 -0.0635  0.0079
  964W        W 5015   7.559   2.712  10.398  0.2484 -0.1975 -0.0769
  965W        W 5016   2.273   7.658  11.413  0.2313 -0.0012  0.1555
  966W        W 5017   3.523   1.900   3.475 -0.2327 -0.1740  0.0722
  967W        W 5018   5.656   7.638  10.820  0.1509 -0.1762 -0.0187
  968W        W 5019   5.790  10.062  12.191 -0.2594 -0.2796  0.1018
  969W        W 5020   7.011   1.433   0.158 -0.1052 -0.2143 -0.0468
  970W        W 5021   2.044   8.423  12.894  0.2436 -0.1637 -0.1914
  971W        W 5022   2.576   2.044  10.232 -0.0899 -0.0087 -0.1280
  972W        W 5023   0.649   2.410   1.045 -0.0192 -0.2502 -0.3324
  973W        W 5024   2.189   6.399   1.726 -0.0142  0.1627  0.0554
  974W        W 5025   3.399   7.826  13.165 -0.2354  0.1047 -0.1423
  975W        W 5026   4.891   6.656   9.794  0.3771 -0.1249  0.1629
  976W        W 5027   7.898   5.735   2.180 -0.1269  0.1740  0.1462
  977W        W 5028   0.531   3.356   0.171 -0.2713 -0.1446 -0.1004
  978W        W 5029   6.531   0.996  13.035  0.0961 -0.0597  0.0707
  979W        W 5030   2.583   3.393   0.679  0.0219  0.2537  0.4050
  980W        W 5031   7.261   3.203   3.043  0.0067  0.4582 -0.3167
  981W        W 5032   1.163   6.414   5.021  0.2022  0.1750 -0.1469
  982W        W 5033   7.861   7.151   2.510  0.0955 -0.0589 -0.1605
  983W        W 5034   0.877   9.931   3.913 -0.0139 -0.0011 -0.0331
  984W        W 5035   8.342   5.351   0.658 -0.1364 -0.2474 -0.1150
  985W        W 5036   0.262   4.706  11.224 -0.2691 -0.0529  0.2897
  986W        W 5037   3.674   3.262  12.032  0.1370  0.0494 -0.0016
  987W        W 5038   6.946   1.070  10.338  0.2249  0.1460 -0.0004
  988W        W 5039   0.829   1.994   1.713 -0.1493  0.0838  0.0908
  989W        W 5040   4.169   9.427   4.092  0.0921 -0.1813  0.4037
  990W        W 5041   1.574   2.916  13.542 -0.2787  0.3303  0.1150
  991W        W 5042   5.583   0.537   2.250 -0.1207  0.1807  0.1620
  992W        W 5043   2.584   7.220   1.907 -0.3371 -0.0344  0.2134
  993W        W 5044   9.372   6.144  10.033  0.6166 -0.2403  0.1033
  994W        W 5045   6.470   2.075   3.668  0.0793 -0.1383  0.1302
  995W        W 5046   4.396   5.052   5.085  0.1105  0.1563  0.2133
  996W        W 5047   2.612   1.661   9.628 -0.0720  0.3313 -0.2018
  997W        W 5048   4.656   3.154   2.413 -0.1245 -0.1324  0.1199
  998W        W 5049   8.910   2.375  10.583  0.2596  0.1265 -0.1150
  999W        W 5050   1.324   9.734   0.055 -0.1289 -0.1417 -0.2601
 1000W        W 5051   9.366   2.574   0.008 -0.3493  0.1011  0.2925
 1001W        W 5052   3.189   6.100   4.377 -0.0677  0.2819 -0.1451
 1002W        W 5053   5.199   2.595  12.470  0.0723 -0.0918 -0.2078
 1003W        W 5054   5.590   0.844  13.332  0.0362  0.1098  0.3752
 1004W        W 5055   8.998   4.170  12.182  0.0265  0.1268 -0.4314
 1005W        W 5056   0.928  10.088  10.547  0.0536  0.1006  0.0460
 1006W        W 5057   4.722   4.229  11.762  0.1809  0.1138  0.0878
 1007W        W 5058   6.649   2.983   1.017 -0.1995  0.0090  0.0356
 1008W        W 5059   5.669   9.426   3.597 -0.1530 -0.1025 -0.1296
 1009W        W 5060   1.318   0.292   8.995  0.0468 -0.0796  0.0176
 1010W        W 5061   6.256   7.067   2.898 -0.1667  0.0369 -0.0119
 1011W        W 5062   4.600   3.448  13.689  0.0397 -0.1498  0.2435
 1012W        W 5063   8.348   4.193  11.565 -0.0689  0.2203 -0.1058
 1013W        W 5064   3.225   7.066  12.600 -0.0143 -0.0333  0.0765
 1014W        W 5065   7.417   9.475  12.400  0.1963 -0.0272  0.2853
 1015W        W 5066   4.594   9.069  11.198  0.3665  0.2219  0.1295
 1016W        W 5067   8.581   3.023   3.845  0.1574 -0.1830  0.1153
 1017W        W 5068   1.252   3.868  13.564  0.0930  0.0948  0.0852
 1018W        W 5069   1.273   7.664  11.793 -0.2535  0.2821  0.1304
 1019W        W 5070   9.612   1.833   9.924 -0.1422  0.0124  0.0929
 1020W        W 5071   2.925   7.625   2.224 -0.2303 -0.3580  0.0203
 1021W        W 5072   1.957   6.264   0.464 -0.1707 -0.1627 -0.0463
 1022W        W 5073   5.972   8.030  12.368 -0.0114 -0.2033  0.0730
 1023W        W 5074   2.957   3.815  10.491  0.3388 -0.1044  0.0286
 1024W        W 5075   3.286   2.919  12.994  0.3733 -0.2727 -0.0306
 1025W        W 5076   2.976   7.986   0.829  0.0697  0.0859 -0.3904
 1026W        W 5077   4.753   3.501  11.201 -0.0699  0.0718  0.1611
 1027W        W 5078   1.359   2.803   9.108 -0.1717  0.1381 -0.2120
 1028W        W 5079   2.272   0.421  10.690  0.0635 -0.4138 -0.0903
 1029W        W 5080   3.256   1.840   1.063  0.0463 -0.2842 -0.4007
 1030W        W 5081   5.320   1.759   4.573 -0.2127 -0.3369 -0.0154
 1031W        W 5082   3.203   1.376  13.951  0.1932 -0.1126 -0.4105
 1032W        W 5083   3.878   9.003   4.310 -0.0976  0.1382 -0.0134
 1033W        W 5084   0.279   1.224   4.134  0.0853  0.2071  0.3990
 1034W        W 5085   1.718   4.959   9.024 -0.0042  0.1540  0.1490
 1035W        W 5086   7.499   8.009   4.535 -0.1132  0.0380 -0.2601
 1036W        W 5087   2.984   0.335   5.122  0.0021  0.0983  0.0734
 1037W        W 5088   8.336   3.147  12.566 -0.0098 -0.1719  0.1977
 1038W        W 5089   4.527  10.073   4.958 -0.0756  0.2056  0.0610
 1039W        W 5090   5.929   8.042  10.989 -0.2877  0.1608  0.1997
 1040W        W 5091   0.468   2.191  13.088 -0.2356 -0.1316 -0.2109
 1041W        W 5092   6.339   6.583   0.866 -0.3944 -0.0655  0.0687
 1042W        W 5093   4.149   7.952  10.740  0.1551 -0.2625  0.1056
 1043W        W 5094   0.640   1.287   1.284  0.3809  0.1901 -0.1263
 1044W        W 5095   4.627   4.034   0.585  0.1882  0.1250 -0.1769
 1045W        W 5096   4.644   2.791   8.771  0.1555 -0.0609 -0.0254
 1046W        W 5097   8.370   4.095  13.975  0.1394 -0.0363 -0.0208
 1047W        W 5098   7.229   5.589   2.002 -0.1577 -0.0658 -0.1559
 1048W        W 5099   4.878   7.586  13.111 -0.2936 -0.0692 -0.0750
 1049W        W 5100   2.522   8.975   0.930 -0.0160  0.0847 -0.2524
 1050W        W 5101   6.861   7.295  10.225  0.2857 -0.1063  0.0443
 1051W        W 5102   0.013   0.940  12.169  0.1134  0.1051  0.3833
 1052W        W 5103   3.443   1.851  12.188  0.2355  0.1283 -0.0190
 1053W        W 5104   0.997   9.523  12.242 -0.1378 -0.2321 -0.0080
 1054W        W 5105   1.006   2.115  10.300 -0.0467  0.0665  0.1092
 1055W        W 5106   0.178   3.837   1.433  0.1515  0.0973 -0.1093
 1056W        W 5107   2.013   6.187   0.988 -0.0264 -0.0773  0.0878
 1057W        W 5108   7.085   6.355  12.866 -0.3419 -0.3192 -0.1325
 1058W        W 5109   2.921   4.505   9.819 -0.3271  0.3115  0.2383
 1059W        W 5110   5.548   0.844   1.662  0.4200 -0.2436 -0.1782
 1060W        W 5111   8.840   7.628  13.350 -0.1452  0.0791  0.0494
 1061W        W 5112   3.477   1.565   5.389 -0.1013 -0.0164  0.2650
 1062W        W 5113   6.297   7.585   4.148 -0.1537 -0.0169  0.2962
 1063W        W 5114   1.787   5.947   2.363 -0.2027 -0.0006  0.0030
 1064W        W 5115   1.922   2.712  13.184  0.0694  0.0506 -0.2548
 1065W        W 5116   9.482   0.619  11.667  0.0538  0.0150  0.0691
 1066W        W 5117   3.906   8.084   4.653  0.2631  0.0568  0.0914
 1067W        W 5118   5.695   5.088  10.111  0.1797  0.2044  0.1876
 1068W        W 5119   4.948   5.135   1.603  0.2089 -0.3194  0.2215
 1069W        W 5120   2.138   7.953   3.813 -0.0630 -0.0822 -0.1421
 1070W        W 5121   6.280   4.063   9.467  0.1648  0.0472  0.3022
 1071W        W 5122   6.856   6.294   5.192 -0.0582 -0.0658  0.1681
 1072W        W 5123   9.913   8.668   9.993 -0.1616  0.0230  0.1362
 1073W        W 5124   1.103   6.937  12.279 -0.1375  0.1075 -0.0684
 1074W        W 5125   9.870   8.823  10.863 -0.2110  0.0101 -0.1718
 1075W        W 5126   5.844   6.711  11.155 -0.0473 -0.0293 -0.1576
 1076W        W 5127   4.340   0.321   3.415  0.3280 -0.0616  0.1457
 1077W        W 5128   0.238   9.360  13.684  0.2871 -0.1529  0.1187
 1078W        W 5129  10.139   9.582  10.516  0.2127  0.1510 -0.2338
 1079W        W 5130   3.734   9.267  11.639  0.3894 -0.0720  0.1972
 1080W        W 5131   6.047   7.406   9.696 -0.2027 -0.2118 -0.1643
 1081W        W 5132   1.557   2.185  10.320  0.3302 -0.0237 -0.1460
 1082W        W 5133   2.303   8.068  10.320 -0.0745  0.0466  0.4103
 1083W        W 5134   2.546   5.523  12.329 -0.1909  0.3278  0.1286
 1084W        W 5135   0.806   1.259   9.197  0.0569 -0.0453  0.0614
 1085W        W 5136   8.681   2.525   3.729 -0.2098 -0.3655 -0.0139
 1086W        W 5137   7.435   8.294   1.286 -0.1242  0.0120  0.3921
 1087W        W 5138   3.078   2.940  11.506  0.0891 -0.1163 -0.0359
 1088W        W 5139   3.812   8.191   1.433  0.0439  0.2596  0.3448
 1089W        W 5140   0.814   6.851   0.845 -0.1147 -0.3662  0.3505
 1090W        W 5141   6.228   7.077   0.965 -0.1041  0.0836  0.1782
 1091W        W 5142   4.674   7.040   3.035  0.2096  0.0324  0.1244
 1092W        W 5143   9.337   5.442   0.805 -0.1535  0.2985  0.0119
 1093W        W 5144   9.822   4.325   3.419  0.0626 -0.3021  0.2137
 1094W        W 5145   1.690   8.778   2.778  0.0872  0.0438  0.2171
 1095W        W 5146   5.823   9.363   4.791 -0.1185  0.0815 -0.1031
 1096W        W 5147   7.895   4.470   5.398  0.2190 -0.1207  0.1517
 1097W        W 5148   0.460   8.606   0.564  0.1405 -0.0330 -0.2898
 1098W        W 5149   5.515   3.585   5.523  0.0887 -0.0415  0.0683
 1099W        W 5150   6.492   2.234   0.265 -0.0683 -0.1012 -0.3419
 1100W        W 5151   2.635   7.813   4.082 -0.0962  0.1028 -0.3337
 1101W        W 5152   5.750   1.550   3.566 -0.0207  0.2126 -0.1553
 1102W        W 5153   1.221   1.664   4.059  0.1608  0.0537 -0.0139
 1103W        W 5154   2.725   8.285  10.113 -0.1804  0.1511 -0.0041
 1104W        W 5155   6.394   8.096  11.353 -0.3368 -0.2372  0.0342
 1105W        W 5156   4.852   9.291  12.769  0.0642  0.0019 -0.0773
 1106W        W 5157   8.087   5.198   1.128 -0.2585  0.0310  0.0029
 1107W        W 5158   0.056   3.445   4.288  0.1505 -0.1024  0.2136
 1108W        W 5159   8.094   1.907   2.485 -0.2091 -0.2544 -0.0199
 1109W        W 5160   5.652   0.347  11.968  0.3883 -0.3180  0.1830
 1110W        W 5161   2.731   1.339  12.855  0.1194  0.1024 -0.1819
 1111W        W 5162   6.415   7.874   2.030 -0.1124 -0.0714  0.3501
 1112W        W 5163   5.701   5.690  10.236  0.0975  0.2723  0.1209
 1113W        W 5164   7.364   4.377  11.523  0.1685  0.1141  0.1690
 1114W        W 5165   8.880   0.065  13.574 -0.1640  0.0792 -0.0898
 1115W        W 5166   5.924   1.865   9.054 -0.0920 -0.0426 -0.1654
 1116W        W 5167   2.958   1.802   3.578  0.0695  0.1977  0.0017
 1117W        W 5168   7.880   0.108  13.609 -0.1385  0.1100  0.0845
 1118W        W 5169   6.999   4.265   4.003 -0.2026  0.1486 -0.0429
 1119W        W 5170   2.835   8.679   4.090  0.0152  0.0851 -0.0294
 1120W        W 5171   8.602   3.062   0.963  0.1648 -0.0740 -0.0864
 1121W        W 5172   1.984   2.437  11.294 -0.0999 -0.1570 -0.2255
 1122W        W 5173   0.601   2.392  11.594  0.0767  0.3667 -0.0376
 1123W        W 5174   8.114   3.127   1.234 -0.1366  0.2775  0.0218
 1124W        W 5175   3.473   8.626  12.642  0.0417 -0.0359  0.4129
 1125W        W 5176   6.380   1.191  13.499  0.0965 -0.1444  0.0168
 1126W        W 5177   9.543   5.657   4.196 -0.3710  0.1421  0.3507
 1127W        W 5178   6.991   2.007  10.391 -0.0110 -0.2651  0.0572
 1128W        W 5179   9.632   4.779   0.224  0.2132 -0.1269 -0.1732
 1129W        W 5180   6.819   5.862  12.781 -0.0803  0.2428  0.2738
 1130W        W 5181   9.452   4.099   4.307 -0.2887 -0.2650  0.0754
 1131W        W 5182  10.120   4.154  10.751 -0.3405  0.0041 -0.1662
 1132W        W 5183   6.333   1.272  10.867 -0.1541 -0.1352 -0.0878
 1133W        W 5184   1.381   9.283   0.384  0.0700 -0.1506 -0.3173
 1134W        W 5185   7.890   7.447   0.759 -0.2585  0.0980 -0.0469
 1135W        W 5186   3.312   9.539  10.629 -0.0153 -0.1170 -0.2043
 1136W        W 5187   5.586   7.108   2.694 -0.2467  0.2526 -0.1671
 1137W        W 5188   7.419   2.299   4.956 -0.0611 -0.0508  0.2394
 1138W        W 5189   7.387   0.114  10.796 -0.2668 -0.2400 -0.0412
 1139W        W 5190   4.974   7.597  11.742  0.0045 -0.1821  0.0507
 1140W        W 5191   1.172   9.463   1.156  0.1913  0.1657  0.0736
 1141W        W 5192   3.527   6.649   1.827 -0.0988  0.2888  0.0807
 1142W        W 5193   8.269   5.139  10.732  0.1571  0.1513 -0.3996
 1143W        W 5194   9.026   6.545  10.180  0.0960  0.0851 -0.2125
 1144W        W 5195   2.741   6.728   2.459 -0.0286 -0.0904 -0.1310
 1145W        W 5196   3.441   4.034   4.541  0.1089  0.0921  0.1128
 1146W        W 5197   8.597   0.854  12.800  0.6195  0.0660  0.1590
 1147W        W 5198   3.624   1.894   8.730  0.0742  0.3158 -0.2682
 1148W        W 5199   8.418   8.886  13.342 -0.1662  0.2524  0.0577
 1149W        W 5200   0.681   2.690  13.359  0.2781 -0.1529  0.2057
 1150W        W 5201   6.243   3.473  13.648 -0.1774 -0.3394  0.2292
 1151W        W 5202   8.983   9.859  10.836 -0.1225 -0.2312  0.0443
 1152W        W 5203   4.855   8.736   1.929 -0.0136 -0.1668 -0.0390
 1153W        W 5204   3.103   5.144  11.931  0.0286 -0.2607 -0.2541
 1154W        W 5205   0.560   8.404   1.486  0.1532  0.1564  0.0623
 1155W        W 5206   0.375   1.898   9.723  0.4866  0.3549 -0.2323
 1156W        W 5207   5.081   9.699  12.497  0.4279 -0.0242  0.0704
 1157W        W 5208   8.074   7.503   2.165 -0.0450  0.0408 -0.1005
 1158W        W 5209   6.510   2.494   3.087 -0.2839  0.0053 -0.0569
 1159W        W 5210   6.598   1.298   9.915 -0.0678 -0.0435  0.0445
 1160W        W 5211   5.073   6.217   9.839  0.0758 -0.0098  0.1050
 1161W        W 5212   5.748   4.207  13.945  0.2009  0.1964 -0.0544
 1162W        W 5213   7.082   7.455  12.838  0.0929  0.0570  0.0188
 1163W        W 5214   2.786   8.093   9.651 -0.2807 -0.4605  0.5356
 1164W        W 5215   8.485   2.353   4.903 -0.1746 -0.1734 -0.0436
 1165W        W 5216   1.724   3.407   1.704 -0.0745 -0.1759  0.0037
 1166W        W 5217   0.893   8.771  10.838 -0.0659  0.1913  0.0695
 1167W        W 5218   8.430   8.484  11.750 -0.0057  0.0683  0.1177
 1168W        W 5219   5.483   9.228  11.313 -0.0742  0.0448  0.0261
 1169W        W 5220   9.398   0.427   1.528  0.0844  0.2630  0.2311
 1170W        W 5221   1.137   2.313   5.438 -0.2837 -0.0845  0.1186
 1171W        W 5222   5.989   6.388  13.153  0.1593  0.1099  0.2870
 1172W        W 5223   7.469   7.061   9.436  0.3959  0.0760 -0.0115
 1173W        W 5224   6.943   4.713  12.290 -0.3433 -0.4187 -0.3698
 1174W        W 5225   7.484   6.841   3.384 -0.0498 -0.3618  0.1438
 1175W        W 5226   9.131   7.222  10.369 -0.1527 -0.1347 -0.0418
 1176W        W 5227   0.610   6.418  12.866 -0.0430 -0.0371 -0.5628
 1177W        W 5228   1.990   7.267   1.623 -0.2182 -0.1982 -0.0352
 1178W        W 5229   9.781   5.646  13.427 -0.0097 -0.1391 -0.2363
 1179W        W 5230   3.861   6.319   4.702  0.3143 -0.0105 -0.0261
 1180W        W 5231   1.561   4.151  10.462 -0.1290 -0.0678 -0.1016
 1181W        W 5232   4.995   2.893   9.473  0.1034 -0.1053 -0.2174
 1182W        W 5233   7.098   2.395   1.489  0.0213 -0.1078  0.1794
 1183W        W 5234   8.990   1.831  12.477 -0.0526  0.2065 -0.0550
 1184W        W 5235   6.808   4.275   4.555 -0.0178  0.1795 -0.0347
 1185W        W 5236   4.026   6.724  13.128 -0.2211 -0.1538 -0.1961
 1186W        W 5237   7.010   1.603   3.668 -0.1054  0.2500 -0.1694
 1187W        W 5238   5.334   3.054   0.015  0.2361 -0.3792 -0.1070
 1188W        W 5239   5.220   1.009   4.894  0.2761 -0.1983 -0.0890
 1189W        W 5240   7.320   8.385   2.074 -0.1496  0.0522 -0.0358
 1190W        W 5241   6.778   1.662   2.428  0.1076 -0.1454 -0.1434
 1191W        W 5242   7.827   1.621   0.570  0.0772 -0.1616  0.0909
 1192W        W 5243   5.481   4.525  12.148  0.0566 -0.1159  0.1315
 1193W        W 5244   8.303   9.556  10.226  0.0325 -0.1901  0.0041
 1194W        W 5245   9.981   9.550   2.727  0.0449  0.0708  0.3520
 1195W        W 5246   3.414   9.479  13.403 -0.0680 -0.1126  0.0160
 1196W        W 5247   0.937   5.577   9.556  0.0614  0.2376 -0.1923
 1197W        W 5248   6.637   5.938  10.739  0.0281 -0.1230  0.0231
 1198W        W 5249   0.479   0.207  13.708  0.3271  0.3522  0.0813
 1199W        W 5250   5.123   7.158   3.427  0.1022  0.0786 -0.1835
 1200W        W 5251   3.688   4.809   0.427  0.1480 -0.5103 -0.1737
 1201W        W 5252   6.289   8.577   2.832  0.0047 -0.0190 -0.1521
 1202W        W 5253   4.177   4.607   2.757 -0.1837 -0.0677  0.2125
 1203W        W 5254   5.276   3.610   1.222 -0.0599 -0.2056  0.3002
 1204W        W 5255   7.583   8.734  11.746 -0.2929  0.2305 -0.0592
 1205W        W 5256   9.716   3.503  11.347 -0.2823 -0.1716 -0.0684
 1206W        W 5257   5.449   2.324  13.205  0.0188 -0.1060 -0.0951
 1207W        W 5258   6.837   6.886  11.685 -0.1574 -0.0423  0.0988
 1208W        W 5259   4.821   7.135   9.169 -0.0153  0.1986 -0.2057
 1209W        W 5260   4.048   5.566  11.224 -0.1609  0.0455 -0.0686
 1210W        W 5261   0.550   1.557   0.326  0.1543 -0.0632  0.0570
 1211W        W 5262   0.546   0.066  12.491  0.1725  0.0356 -0.1012
 1212W        W 5263   1.812   7.565  12.705 -0.1159 -0.0299 -0.0672
 1213W        W 5264   2.882   5.166   1.854  0.0195 -0.1085  0.1139
 1214W        W 5265   8.293   9.136   0.314  0.0285 -0.1867  0.0323
 1215W        W 5266   3.301   4.894   0.719  0.1401  0.0891 -0.1409
 1216W        W 5267   5.758   4.439  10.874  0.0617  0.0330  0.0282
 1217W        W 5268   9.067  10.019   2.794 -0.1637  0.1248  0.0960
 1218W        W 5269   4.963   8.780   5.021  0.1693 -0.1147  0.1104
 1219W        W 5270   7.708   4.841   2.846 -0.3404 -0.0888 -0.3033
 1220W        W 5271   9.594   1.064  11.313  0.0436 -0.3466  0.1857
 1221W        W 5272   3.766   3.640   4.597  0.1470 -0.2981  0.0933
 1222W        W 5273   9.686   5.989   1.499  0.0455  0.2493 -0.0271
 1223W        W 5274   4.555   0.979   3.619 -0.0321  0.3120  0.1996
 1224W        W 5275   0.703   5.124   2.747  0.1097 -0.0399  0.1209
 1225W        W 5276   7.388   4.794   2.385 -0.1639  0.1142 -0.2034
 1226W        W 5277   6.732   9.775   0.466 -0.0326 -0.0824  0.0384
 1227W        W 5278   1.290   4.868   0.175  0.0696  0.2733 -0.0458
 1228W        W 5279   0.966   3.360  10.181 -0.2691  0.4182  0.0636
 1229W        W 5280   4.405   9.413   2.505 -0.2945  0.1578  0.0809
 1230W        W 5281   1.512   9.224  11.478 -0.1690 -0.1189  0.1224
 1231W        W 5282   3.735   0.683   0.283 -0.0634 -0.3746 -0.2790
 1232W        W 5283   2.127   8.935  13.105  0.0244  0.2861  0.0499
 1233W        W 5284   1.006   4.974  11.686 -0.0901 -0.4086  0.1636
 1234W        W 5285   2.520   3.144  12.232 -0.2667 -0.0628  0.1589
 1235W        W 5286   5.637   9.672   1.357  0.1364  0.2426  0.3425
 1236W        W 5287   2.776   6.292  13.040 -0.0495  0.1699  0.1102
 1237W        W 5288   9.902   5.299  13.076 -0.3224  0.0765 -0.2107
 1238W        W 5289   0.388   1.119   0.505 -0.2560  0.1587  0.0591
 1239W        W 5290   1.401   4.671   9.889  0.1150 -0.1879 -0.3138
 1240W        W 5291   0.229   8.736   1.737 -0.0423  0.1143 -0.0895
 1241W        W 5292   3.200   8.580   4.454 -0.2220 -0.0772 -0.0967
 1242W        W 5293   6.851   2.344   9.711 -0.1626  0.0990  0.0767
 1243W        W 5294   2.970   5.817  12.149 -0.2871  0.0346  0.1578
 1244W        W 5295   1.872   2.355  12.259  0.1500 -0.0877  0.0980
 1245W        W 5296   8.712   7.292   0.267  0.2229  0.3736 -0.1546
 1246W        W 5297   4.522   5.450   1.620 -0.2259 -0.2902  0.1901
 1247W        W 5298   3.901   3.697   1.940  0.4320 -0.2638  0.3989
 1248W        W 5299   0.742   3.849   0.372  0.0390  0.1450 -0.1605
 1249W        W 5300   2.106  10.174  11.628 -0.2803 -0.1147 -0.0716
 1250W        W 5301   6.403   7.933  10.937  0.1097  0.1895 -0.0979
 1251W        W 5302   3.609   3.354  12.911  0.0556  0.1009  0.1967
 1252W        W 5303   6.080   0.869  13.249 -0.2340 -0.2735  0.0602
 1253W        W 5304   6.834   6.951  11.185  0.3530  0.3091 -0.2205
 1254W        W 5305   8.300   8.334  13.873 -0.3173  0.2080  0.2112
 1255W        W 5306   0.280   7.265  13.290 -0.1282  0.0156 -0.2079
 1256W        W 5307   0.742   6.025   2.675 -0.1173 -0.0756 -0.1558
 1257W        W 5308   8.541   2.185   0.114 -0.2586 -0.0622 -0.0615
 1258W        W 5309   5.704   5.656   1.554  0.1611 -0.0079 -0.1806
 1259W        W 5310   3.565   2.413   3.521  0.1242  0.3523 -0.1750
 1260W        W 5311   9.469   8.175  13.060 -0.0371 -0.1602  0.2952
 1261W        W 5312   5.546   6.428   8.752  0.1285 -0.0461 -0.0755
 1262W        W 5313   1.728   3.422  10.923 -0.1469 -0.3463  0.1021
 1263W        W 5314   8.956   3.067   9.290  0.1122  0.0333  0.1212
 1264W        W 5315   6.250   8.699  13.569 -0.0325 -0.1392  0.3289
 1265W        W 5316   4.830   0.742   2.712 -0.0324 -0.1975 -0.2030
 1266W        W 5317   3.827   0.174   2.901  0.1267 -0.3208  0.1691
 1267W        W 5318   1.090   9.528   3.807 -0.1733 -0.0786 -0.0266
 1268W        W 5319  10.058   7.425  11.425 -0.1591 -0.3743  0.1074
 1269W        W 5320   7.108   3.104   9.895  0.0702 -0.2677  0.1880
 1270W        W 5321   0.430   1.730  10.756 -0.2951  0.1980 -0.1069
 1271W        W 5322   8.973   4.890   0.111 -0.3779 -0.0476 -0.0964
 1272W        W 5323   0.848   7.520  11.624  0.1547 -0.3405  0.0675
 1273W        W 5324   4.367   8.479  11.882 -0.1993  0.2212 -0.0462
 1274W        W 5325   6.085   3.078   1.059  0.0202 -0.1309 -0.0578
 1275W        W 5326   7.604   5.941   1.758  0.1469  0.0593  0.0965
 1276W        W 5327   3.951   7.652  13.028  0.3271  0.1593 -0.0023
 1277W        W 5328   4.628   9.564  12.388 -0.0271 -0.2220 -0.1101
 1278W        W 5329   9.847  10.023  13.793  0.3458  0.0921  0.0544
 1279W        W 5330   7.360   4.435   4.556 -0.0017  0.2009 -0.3527
 1280W        W 5331   3.587   3.786  10.648 -0.0494  0.0823 -0.0017
 1281W        W 5332   2.802   4.644   1.838  0.1039  0.2310  0.0891
 1282W        W 5333   4.930   4.309   9.210 -0.0246  0.1430 -0.0078
 1283W        W 5334   5.224   5.126   9.529  0.2240 -0.0253 -0.0981
 1284W        W 5335   1.322   6.012   9.591 -0.1312 -0.0637  0.3152
 1285W        W 5336   6.690   7.236   1.797 -0.2639 -0.0636 -0.2380
 1286W        W 5337   8.583   8.944   2.309 -0.0191 -0.3370  0.2341
 1287W        W 5338   0.444   7.473  12.128  0.0480 -0.0441  0.1733
 1288W        W 5339   6.554   7.402   3.146  0.0300  0.0412 -0.2283
 1289W        W 5340   5.903   5.714   2.508  0.0148  0.0491  0.1117
 1290W        W 5341   6.054   2.913  10.761  0.2913 -0.2725  0.0356
 1291W        W 5342   8.430   5.838   2.007  0.0504 -0.0886  0.3220
 1292W        W 5343   0.009   7.257  13.951  0.1429  0.0760  0.0524
 1293W        W 5344   4.410   6.711   3.336 -0.1668 -0.3543 -0.0900
 1294W        W 5345   7.198   0.870   2.905  0.0503  0.0532 -0.2114
 1295W        W 5346   8.294   0.328  10.952 -0.0997 -0.1849 -0.0278
 1296W        W 5347   5.860   5.774   4.894  0.1246  0.1437  0.0293
 1297W        W 5348   8.474   8.202  11.311  0.1127 -0.2331  0.1651
 1298W        W 5349   8.157   0.431  11.423 -0.0305  0.1204 -0.0467
 1299W        W 5350   5.242   4.967  12.507  0.0331 -0.0063  0.2271
 1300W        W 5351   9.278   4.960   1.578  0.0099  0.1564 -0.0705
 1301W        W 5352   0.497   4.792   3.756 -0.0625 -0.0665 -0.2021
 1302W        W 5353   6.018   2.159   4.717 -0.0879 -0.1087 -0.4512
 1303W        W 5354   9.122   0.472  11.195 -0.0978  0.0680 -0.0321
 1304W        W 5355   3.463   6.629   3.946  0.0407 -0.1807  0.0893
 1305W        W 5356   4.946   9.331   1.839  0.1839  0.0634 -0.1244
 1306W        W 5357   0.640   3.182  13.245  0.0660 -0.1210 -0.1065
 1307W        W 5358   7.446   0.423   1.882  0.2375 -0.0556 -0.1402
 1308W        W 5359   7.532   6.116   2.232  0.1988 -0.2113  0.2852
 1309W        W 5360   0.796   4.720   4.169 -0.5448  0.1421  0.2242
 1310W        W 5361   7.016   5.936   4.323 -0.2031  0.4066  0.0876
 1311W        W 5362   2.240   0.736   4.567 -0.2342 -0.0518 -0.0933
 1312W        W 5363   7.874   9.725   1.756  0.2129  0.2308  0.3185
 1313W        W 5364   1.453   3.028   0.448  0.1488 -0.0020  0.1278
 1314W        W 5365   3.664   1.000   8.583 -0.1844 -0.0884 -0.2219
 1315W        W 5366   3.200   6.502   0.643 -0.0226  0.1210 -0.1176
 1316W        W 5367   1.149   8.812  11.648 -0.0641 -0.0980 -0.1852
 1317W        W 5368   8.118   9.157   2.921 -0.0378  0.3999 -0.0738
 1318W        W 5369   7.178   8.523  10.965 -0.2428  0.1938  0.0748
 1319W        W 5370   9.042   8.731   2.630 -0.1327 -0.0539 -0.0255
 1320W        W 5371   0.976   3.404   0.430 -0.0490 -0.1177  0.2232
 1321W        W 5372   4.271   8.783   2.765 -0.1527  0.0276  0.1358
 1322W        W 5373   7.127   6.585  13.483 -0.0706  0.1710 -0.2006
 1323W        W 5374   8.266   4.035  10.672 -0.3081  0.0695 -0.0093
 1324W        W 5375   8.396   3.835  13.466 -0.4799 -0.0898 -0.1551
 1325W        W 5376   3.692  10.161   4.085 -0.2188  0.2173  0.1598
 1326W        W 5377   3.840   6.076   0.648  0.2420  0.0496  0.1355
 1327W        W 5378   2.557   1.435   0.118  0.0182 -0.2319  0.0250
 1328W        W 5379   0.043   7.952  11.394 -0.0096  0.0383  0.0274
 1329W        W 5380   8.875   3.571   9.191 -0.0065  0.2602 -0.1260
 1330W        W 5381   5.361   7.049  13.111  0.2143  0.0654  0.1065
 1331W        W 5382   8.688   0.309   2.122  0.1519  0.1249  0.0974
 1332W        W 5383   8.166   6.943   1.994  0.0969  0.1933 -0.1813
 1333W        W 5384  10.053   4.289   2.102  0.1174 -0.2392  0.0692
 1334W        W 5385   1.218   9.272  13.905  0.0268 -0.0012 -0.0252
 1335W        W 5386   8.236   3.429   3.923 -0.0697 -0.1395  0.0528
 1336W        W 5387   2.638   6.464  12.091  0.1034 -0.1709  0.0520
 1337W        W 5388   5.664   4.621   4.365  0.1250 -0.1010  0.1674
 1338W        W 5389   8.467   0.956   0.199  0.2284  0.0214 -0.3746
 1339W        W 5390   6.057   1.487  12.208 -0.1668 -0.2657 -0.1350
 1340W        W 5391   8.781   6.976  11.436  0.2234 -0.1323 -0.2301
 1341W        W 5392   0.835   4.802   9.610  0.3601 -0.1658 -0.1318
 1342W        W 5393   6.679   9.319  10.214 -0.0301  0.3591 -0.1440
 1343W        W 5394   2.626   2.632  12.385  0.1277  0.4250  0.1992
 1344W        W 5395   6.694   8.853   9.822  0.0885 -0.3341 -0.0614
 1345W        W 5396   2.742   7.465   1.409 -0.1571  0.0610  0.0158
 1346W        W 5397   3.066   5.928   1.864 -0.1573 -0.1484  0.2018
 1347W        W 5398   2.152   8.504  12.311 -0.0190 -0.1126  0.1647
 1348W        W 5399   3.950   0.562  10.825  0.0917 -0.0780 -0.2206
 1349W        W 5400   7.389   8.915   2.135  0.0534 -0.2393  0.2773
 1350W        W 5401   6.271   2.021   5.788 -0.1572  0.2538  0.1742
 1351W        W 5402   1.310   5.271   9.163  0.0612  0.3313 -0.1055
 1352W        W 5403   0.957   2.608   3.267 -0.1305  0.1926  0.2567
 1353W        W 5404   2.260   1.894  13.218 -0.0362  0.0553 -0.3422
 1354W        W 5405   3.909   7.323   0.766  0.3641 -0.0660 -0.3119
 1355W        W 5406   3.915   8.938  11.116  0.2575  0.1958  0.0292
 1356W        W 5407   6.847   5.762  12.206  0.3066  0.2510 -0.1121
 1357W        W 5408   4.654   8.031  13.293  0.1346 -0.2315 -0.3043
 1358W        W 5409   8.629   5.918   2.710 -0.1668 -0.2806 -0.0081
 1359W        W 5410   4.545   4.721   0.829  0.1233 -0.0971  0.0106
 1360W        W 5411   9.753   9.811  10.239  0.0654  0.1621  0.1432
 1361W        W 5412   0.899   8.533   3.366 -0.0467 -0.1164 -0.1118
 1362W        W 5413   7.550   2.632   1.465 -0.2649 -0.0062 -0.2499
 1363W        W 5414   9.074   9.425   0.038  0.0979  0.2012  0.3887
 1364W        W 5415   9.159   0.565  12.074  0.1291  0.2574 -0.0306
 1365W        W 5416   3.832   1.983   9.205 -0.0003  0.1763  0.0584
 1366W        W 5417   8.857   5.356   0.736 -0.0241 -0.2785  0.1555
 1367W        W 5418   0.068   5.499   0.836 -0.3507 -0.1692 -0.3032
 1368W        W 5419   4.894   8.425   3.297 -0.0104  0.0411  0.1354
 1369W        W 5420   7.549   7.893  13.377  0.1828 -0.0187  0.2584
 1370W        W 5421   5.194   9.660   3.934  0.1296  0.0752 -0.1175
 1371W        W 5422   1.784   4.006   4.590  0.2192 -0.0087  0.0449
 1372W        W 5423   6.943   6.990   3.121  0.0539 -0.0563  0.0528
 1373W        W 5424   4.847   5.206   4.944 -0.1937  0.1895  0.2480
 1374W        W 5425   2.508   5.684   2.998  0.2701 -0.0880 -0.3207
 1375W        W 5426   6.881   9.506   1.762  0.1028  0.2161  0.1415
 1376W        W 5427   3.168   1.208   4.171 -0.0194 -0.1917  0.3479
 1377W        W 5428   6.935   0.426   5.094  0.0324 -0.3053 -0.2570
 1378W        W 5429   5.970   8.390  12.752 -0.1390  0.0964  0.1234
 1379W        W 5430   5.497   0.407  10.157 -0.3294  0.1255  0.2035
 1380W        W 5431   3.963   7.364  11.462  0.2288 -0.1354 -0.3127
 1381W        W 5432   1.518   7.833   9.749 -0.1994 -0.1550  0.2862
 1382W        W 5433   2.420   4.229  12.545  0.0145  0.1242 -0.3128
 1383W        W 5434   1.799   3.929   0.417  0.1458 -0.1973 -0.0266
 1384W        W 5435   9.840   1.982  11.606 -0.0176  0.2391 -0.0656
 1385W        W 5436   5.342   5.280  13.131 -0.0202 -0.0814  0.1699
 1386W        W 5437   0.905  10.019  13.856  0.0652  0.3951 -0.5302
 1387W        W 5438   5.162   3.315  10.971 -0.1751 -0.1250 -0.1487
 1388W        W 5439   6.191   5.380  13.234 -0.2323  0.3208  0.1434
 1389W        W 5440   0.687   9.023  10.003  0.0832 -0.0136 -0.0198
 1390W        W 5441   3.614   5.609   2.204  0.1706  0.3361  0.1733
 1391W        W 5442   4.535   8.205  11.178 -0.0891  0.0861  0.3650
 1392W        W 5443   0.471   9.489  11.247  0.2733 -0.2298  0.2044
 1393W        W 5444   2.259   8.880  12.606  0.0928 -0.1207  0.3324
 1394W        W 5445   6.580   6.206   4.611  0.1710  0.1806 -0.1035
 1395W        W 5446  10.097   5.903   1.063 -0.0361 -0.1600  0.1797
 1396W        W 5447   6.341   5.551   1.488  0.0542  0.2047  0.0890
 1397W        W 5448   4.717   6.135  12.335 -0.1952  0.0487  0.1121
 1398W        W 5449   7.508   4.222  13.976 -0.2698 -0.2450 -0.3439
 1399W        W 5450   7.798   4.454   2.504  0.0912  0.1122  0.1463
 1400W        W 5451   6.075   4.484  13.591 -0.0770  0.0967  0.1508
 1401W        W 5452   0.822   9.220   9.529  0.2380  0.0659 -0.1657
 1402W        W 5453   5.005   2.758   1.798 -0.0755  0.0902 -0.1011
 1403W        W 5454   3.451   4.485   9.975  0.1245 -0.0102  0.1082
 1404W        W 5455   6.260   0.745  11.136  0.2529  0.2295  0.1491
 1405W        W 5456   4.139   8.700  10.337 -0.0163  0.1371  0.3157
 1406W        W 5457   5.845   0.212  10.880  0.0610  0.1757 -0.2473
 1407W        W 5458   8.390   0.946  12.302  0.0528 -0.0393  0.3171
 1408W        W 5459   2.369   2.848   3.421 -0.1709  0.1004 -0.1166
 1409W        W 5460   3.215   3.864  12.641  0.1394  0.0461 -0.2949
 1410W        W 5461   8.619   1.972  10.698  0.3749 -0.1342  0.1482
 1411W        W 5462  10.043   3.526   1.233 -0.0239  0.0442 -0.1493
 1412W        W 5463   2.326   2.948   4.012  0.2051  0.1041  0.3238
 1413W        W 5464   7.281   0.924   1.433 -0.0095 -0.0609  0.0490
 1414W        W 5465   0.608   9.084  13.911 -0.1298  0.2511  0.1035
 1415W        W 5466   3.785   0.544  13.094  0.0131 -0.0141  0.0492
 1416W        W 5467   5.467   5.314   0.465  0.1621 -0.4253 -0.1505
 1417W        W 5468   0.766   1.487   9.702 -0.1433  0.1518  0.1436
 1418W        W 5469   0.277   4.530  12.091 -0.0483  0.0104 -0.0980
 1419W        W 5470   4.095   2.516   9.588  0.2770 -0.0512 -0.3397
 1420W        W 5471   7.969   4.379  12.391 -0.2322 -0.0406  0.0460
 1421W        W 5472   5.336   0.086   2.782  0.0353  0.0361  0.2657
 1422W        W 5473   2.065   5.940  12.504  0.1188 -0.1370 -0.0541
 1423W        W 5474   3.602   1.374   1.460  0.0656  0.2428 -0.1012
 1424W        W 5475   8.227   2.704  13.773 -0.2080 -0.0408 -0.3464
 1425W        W 5476   1.684   6.922   0.278  0.2192  0.0293 -0.2494
 1426W        W 5477   5.003   8.289  12.572  0.1411 -0.0387  0.0296
 1427W        W 5478   6.919   8.484  12.846 -0.2727  0.3925 -0.2005
 1428W        W 5479   2.326   4.773  12.408 -0.2490  0.0013  0.0484
 1429W        W 5480   2.441   3.313   3.667 -0.4252  0.2462 -0.1393
 1430W        W 5481   2.357   0.648   1.677  0.0915 -0.3784  0.0466
 1431W        W 5482   2.830   8.134  13.003 -0.1219 -0.2184  0.1499
 1432W        W 5483   4.807   2.703   4.943 -0.0865  0.1233  0.1753
 1433W        W 5484   1.197   3.254  12.431  0.2416 -0.1810  0.2660
 1434W        W 5485   7.264   0.893  11.668 -0.1599 -0.0251  0.1200
 1435W        W 5486   6.324   3.829  12.119 -0.1319 -0.1338  0.2005
 1436W        W 5487   1.225   0.787  10.333 -0.5155 -0.4407 -0.1080
 1437W        W 5488   8.773   1.525  11.034  0.0495 -0.2549  0.4943
 1438W        W 5489   4.715   2.762   9.879 -0.2894  0.2722 -0.3407
 1439W        W 5490   5.322   8.264   0.121 -0.1966  0.0852  0.1120
 1440W        W 5491   8.991   9.877   0.905 -0.3401  0.2500  0.0434
 1441W        W 5492   4.222   8.577  13.928 -0.0294 -0.0771  0.1457
 1442W        W 5493   3.980   2.351   0.851  0.0596  0.0582  0.2281
 1443W        W 5494   6.296   5.585  11.504  0.0094  0.4595  0.1458
 1444W        W 5495   9.602   0.869   2.296  0.1780 -0.0558  0.0227
 1445W        W 5496   3.338   8.343  10.002  0.1151 -0.0333  0.0101
 1446W        W 5497   4.482   9.954  10.727 -0.1417 -0.2907 -0.1561
 1447W        W 5498   3.569   6.914   0.918 -0.1725 -0.0098  0.1702
 1448W        W 5499   1.332   1.822   0.879 -0.0177  0.1502  0.2624
 1449W        W 5500   3.038   2.008   0.611  0.1537 -0.1936  0.0020
 1450W        W 5501   8.544   5.684  11.268  0.3191  0.0564  0.0427
 1451W        W 5502   4.752   2.533   3.100 -0.2874 -0.2277 -0.1098
 1452W        W 5503   3.878   8.049   9.788 -0.0914  0.1502  0.1339
 1453W        W 5504   5.645   2.338   2.168 -0.3341  0.0527 -0.3487
 1454W        W 5505   5.905   9.396  11.937 -0.2330 -0.1954 -0.3942
 1455W        W 5506   9.041   7.828   0.178 -0.1719 -0.0772  0.4656
 1456W        W 5507   4.846   0.939   2.206 -0.1155 -0.1655  0.0021
 1457W        W 5508   2.537   6.462   9.022 -0.0220  0.1258  0.1722
 1458W        W 5509   1.757   4.015  13.671  0.0054  0.2553  0.0254
 1459W        W 5510   4.225   5.382  13.594 -0.2108  0.0249 -0.4159
 1460W        W 5511   6.258   2.250   2.525 -0.0166  0.0334  0.1106
 1461W        W 5512   9.463   4.327  12.040  0.1709 -0.0147 -0.1128
 1462W        W 5513   1.118   7.772   1.465  0.2134 -0.0761 -0.2250
 1463W        W 5514   7.955   0.967  10.193 -0.2422  0.0936  0.0769
 1464W        W 5515   3.702   8.467   0.044  0.0687  0.0388  0.0256
 1465W        W 5516   6.538   6.657   2.956 -0.1342  0.1333 -0.1135
 1466W        W 5517   0.800   1.861  13.253 -0.2082  0.1501  0.0994
 1467W        W 5518   8.124   8.675   0.340  0.1233 -0.2064 -0.0486
 1468W        W 5519   4.145   8.144  11.525  0.1338 -0.0227 -0.1674
 1469W        W 5520   5.318   5.288   1.934 -0.1507 -0.2307  0.2633
 1470W        W 5521   4.594   6.752   1.124  0.0844  0.0451  0.0808
 1471W        W 5522   7.416   1.656  13.968  0.2183  0.4473 -0.4580
 1472W        W 5523   3.944   0.200   0.354  0.2510 -0.0607  0.2606
 1473W        W 5524   7.535   5.852   4.200 -0.0064  0.0026  0.0904
 1474W        W 5525   9.699   1.488  11.513  0.1739  0.1425  0.0994
 1475W        W 5526   5.664   3.855   3.732 -0.0391 -0.1249 -0.3838
 1476W        W 5527   5.968   6.747   1.701 -0.0156  0.0005 -0.0071
 1477W        W 5528   1.994   7.072  13.925 -0.1569  0.0841 -0.0082
 1478W        W 5529   2.205   9.048  11.217 -0.1447 -0.0917 -0.0087
 1479W        W 5530   6.569   6.945  10.514  0.2493  0.2000  0.1964
 1480W        W 5531   6.032   1.031  12.366  0.1210  0.0098 -0.3272
 1481W        W 5532   8.386   4.741   0.862 -0.0880 -0.0275  0.4531
 1482W        W 5533   2.868   8.008   2.876  0.0870  0.2940 -0.1386
 1483W        W 5534  10.021   6.130  10.955  0.0240 -0.1217  0.2063
 1484W        W 5535   2.616   1.153   9.558 -0.1370 -0.0792 -0.0314
 1485W        W 5536   8.177   4.649  12.844 -0.1648  0.1635  0.1277
 1486W        W 5537   9.632   0.857   0.854 -0.3064  0.1623  0.2730
 1487W        W 5538   2.337   5.625  10.535 -0.2008  0.0554 -0.0324
 1488W        W 5539   7.932   3.126  13.718 -0.0235  0.0349 -0.2237
 1489W        W 5540   9.236   8.129  10.824  0.0910  0.0489  0.0387
 1490W        W 5541   4.442   1.362  10.573 -0.1605 -0.1353  0.4643
 1491W        W 5542   2.661   8.978  13.218  0.4134  0.1554  0.1623
 1492W        W 5543   9.116   0.162   2.416 -0.0229  0.0908 -0.2322
 1493W        W 5544   4.607   7.121   2.465 -0.4160 -0.1546  0.1101
 1494W        W 5545   4.819   8.847  13.171 -0.3439 -0.0073 -0.5141
 1495W        W 5546   9.319   5.786  12.756  0.1389  0.1054  0.2949
 1496W        W 5547   6.716   6.132   1.760 -0.1927  0.0797  0.2081
 1497W        W 5548   3.048   0.945  10.348 -0.1459  0.0393  0.2269
 1498W        W 5549   2.211   4.120   1.395  0.0244 -0.1543 -0.1733
 1499W        W 5550   5.087   0.844   3.575 -0.1655  0.2595 -0.4269
 1500W        W 5551   4.510   4.321  12.552  0.2267 -0.0966 -0.0803
 1501W        W 5552   9.702   7.229   3.196 -0.0892 -0.1641  0.2191
 1502W        W 5553   2.491   7.769   9.916  0.0215  0.2795 -0.1208
 1503W        W 5554   3.796   8.650  11.467  0.2135  0.3175 -0.0282
 1504W        W 5555   2.929   9.066  12.099 -0.2773  0.0918 -0.3462
 1505W        W 5556   7.367  10.101  11.265  0.0380 -0.2014 -0.0084
 1506W        W 5557   0.696   4.206   3.879 -0.1101 -0.1487 -0.0933
 1507W        W 5558   5.385   5.936   4.799 -0.2229  0.0730  0.1811
 1508W        W 5559   1.134   1.742   3.530  0.2755  0.0319  0.1430
 1509W        W 5560   0.704   4.547   2.100  0.2571 -0.0166  0.1489
 1510W        W 5561   7.247   1.228   4.332 -0.2433 -0.3673 -0.0623
 1511W        W 5562   7.915   2.298  10.415 -0.3305 -0.2725  0.1618
 1512W        W 5563   3.432   9.765   9.706  0.0777 -0.1895 -0.2088
 1513W        W 5564   8.725   3.558  10.913  0.4655  0.1408 -0.0639
 1514W        W 5565   1.043   7.094  11.817  0.3397  0.1357 -0.0595
 1515W        W 5566   8.314   2.680   3.383  0.1844  0.2487 -0.2423
 1516W        W 5567   5.429   3.692   0.742  0.0160 -0.0732 -0.0029
 1517W        W 5568   1.010   1.667   2.014 -0.0553  0.4861 -0.1412
 1518W        W 5569   0.976   5.553  13.031  0.0243  0.1817  0.2246
 1519W        W 5570   9.946   4.965   9.798 -0.2821  0.4851 -0.0675
 1520W        W 5571   7.611   6.710  13.628 -0.0884 -0.0656  0.2235
 1521W        W 5572   2.771   4.814  10.837 -0.1596  0.1309  0.2996
 1522W        W 5573   1.643   5.782  13.633  0.0434  0.2623  0.2331
 1523W        W 5574   3.140   6.106  11.241 -0.0874  0.0854 -0.0662
 1524W        W 5575   0.295   1.718   4.018  0.0898  0.2566 -0.0697
 1525W        W 5576   7.617   4.627  13.027  0.0395 -0.1289  0.0024
 1526W        W 5577   6.667   8.060  13.104  0.0140  0.1121  0.0997
 1527W        W 5578   2.196   3.190  13.219  0.0303 -0.1261 -0.0487
 1528W        W 5579   3.288   7.130   3.039  0.2542 -0.1091  0.0025
 1529W        W 5580  10.063   6.728   0.040 -0.0243 -0.1913 -0.1044
 1530W        W 5581   7.645   4.809  11.648 -0.1747 -0.0092 -0.1733
 1531W        W 5582   8.017   4.781  13.324 -0.0578 -0.1566  0.0146
 1532W        W 5583   3.854   3.425  13.427 -0.0791 -0.2852  0.0775
 1533W        W 5584  10.146   5.812  13.774 -0.1490 -0.4704 -0.0039
 1534W        W 5585   3.808   4.934   2.516 -0.2550  0.3840 -0.1858
 1535W        W 5586   7.755   6.351   1.501  0.6129  0.0083  0.1350
 1536W        W 5587   2.561   0.037  10.998  0.3224  0.2818  0.1497
 1537W        W 5588   9.057   5.531  11.218 -0.2574  0.2465 -0.1870
 1538W        W 5589   4.515   8.902  13.623  0.0295  0.4557  0.0924
 1539W        W 5590   0.597   5.261   3.219 -0.1043 -0.1440 -0.0752
 1540W        W 5591   7.349   7.710   0.736  0.0726 -0.1011  0.2090
 1541W        W 5592   9.429   1.290   3.652 -0.1068  0.1434  0.1575
 1542W        W 5593   5.769   4.916  11.956  0.0392  0.3710  0.2417
 1543W        W 5594   2.864   2.429   0.164 -0.1085  0.0455 -0.0812
 1544W        W 5595   9.082   5.990   2.891  0.1087 -0.1028 -0.0703
 1545W        W 5596   5.826   6.137   1.599  0.1410 -0.2064 -0.2194
 1546W        W 5597   6.624   7.189  12.730  0.0387  0.1543  0.0974
 1547W        W 5598   6.947   8.850   0.347  0.1204  0.0671 -0.3871
 1548W        W 5599   1.390   1.421   1.285  0.0366  0.0822  0.1358
 1549W        W 5600   5.326   0.114   4.688 -0.3043 -0.2466  0.0180
 1550W        W 5601   5.015   2.946  11.841  0.3154  0.1369 -0.0784
 1551W        W 5602   8.705   4.564  12.146  0.0811 -0.0142 -0.2215
 1552W        W 5603   7.901   8.121   1.440  0.0985 -0.1437  0.4093
 1553W        W 5604   2.402   0.757  11.036 -0.3599  0.3629  0.0557
 1554W        W 5605   4.291   6.832   3.890 -0.2347  0.2217 -0.2590
 1555W        W 5606   9.893   4.305  10.354  0.0005 -0.0935 -0.0674
 1556W        W 5607   1.558   1.198  13.123  0.1965  0.0711  0.1740
 1557W        W 5608   0.279   3.265   4.693 -0.0132  0.2495 -0.2348
 1558W        W 5609   7.546   4.658  10.219 -0.2798  0.0926  0.0258
 1559W        W 5610   3.866   0.797  13.611 -0.0389  0.1236 -0.2990
 1560W        W 5611   6.220   3.885   4.004 -0.0195 -0.2419  0.2030
 1561W        W 5612   8.617   5.792   0.692  0.3777 -0.0208  0.2645
 1562W        W 5613   3.975   3.474   0.970 -0.2731  0.0948 -0.0963
 1563W        W 5614   1.112   5.610   3.876 -0.0047 -0.1126  0.1161
 1564W        W 5615   2.701   1.080   1.109  0.0314  0.2095  0.3533
 1565W        W 5616   4.673   2.675  12.654 -0.2168 -0.0783  0.0756
 1566W        W 5617   2.093   1.681   4.478 -0.4083  0.4383 -0.4663
 1567W        W 5618   5.349   4.159   3.892 -0.0623 -0.3120  0.0091
 1568W        W 5619   9.760   7.442   1.243  0.1186 -0.1905 -0.0516
 1569W        W 5620   1.180   5.144   9.735  0.0117  0.1250 -0.0429
 1570W        W 5621   6.570   6.348   3.608  0.1351 -0.1736  0.1703
 1571W        W 5622   5.108   7.682   2.351  0.1017 -0.1959  0.0884
 1572W        W 5623   6.565   2.356  13.019  0.0759  0.0356  0.0419
 1573W        W 5624   3.507   5.434   9.676  0.3330 -0.4249  0.2492
 1574W        W 5625   4.394   5.126  10.383 -0.2332  0.1882 -0.1259
 1575W        W 5626   1.231   3.162  11.384 -0.1764 -0.1715  0.0442
 1576W        W 5627   2.333   5.330   3.980 -0.2010 -0.0198  0.1436
 1577W        W 5628   6.200   2.415   1.504  0.0033 -0.0379 -0.0056
 1578W        W 5629   1.866   2.610   0.415  0.1264 -0.3449  0.0909
 1579W        W 5630   2.145   8.574   2.520  0.1423  0.1509  0.0107
 1580W        W 5631   2.919   0.700  12.133  0.0608 -0.1780 -0.2787
 1581W        W 5632   9.580   9.190   1.282 -0.4477 -0.1935 -0.1616
 1582W        W 5633   9.481   3.727   0.624  0.1211  0.0034  0.0698
 1583W        W 5634   7.835   7.736  12.108 -0.2348 -0.1358  0.0472
 1584W        W 5635   1.598   3.192   3.617  0.4629  0.0273 -0.0130
 1585W        W 5636   5.470   0.308  12.444 -0.1337 -0.0403 -0.1597
 1586W        W 5637   5.853   4.631  13.149  0.0565 -0.1592 -0.3505
 1587W        W 5638   3.976   1.315   2.888  0.1108 -0.1749 -0.1081
 1588W        W 5639   7.102   6.693   4.768 -0.0062  0.1524 -0.4353
 1589W        W 5640   2.803   7.760   4.553 -0.1470 -0.0122 -0.0509
 1590W        W 5641   1.965   0.602   3.544  0.2784 -0.3758  0.0372
 1591W        W 5642   6.642   6.834   4.563  0.0945 -0.1862  0.1482
 1592W        W 5643   7.552   5.177   3.328 -0.1048  0.1918  0.2826
 1593W        W 5644   5.056   6.654  13.042 -0.2845 -0.2101 -0.2307
 1594W        W 5645   2.657   5.217  10.493  0.1042 -0.1554  0.1097
 1595W        W 5646   1.245   3.076  10.526  0.0522  0.0537  0.4478
 1596W        W 5647   0.608   0.382  12.095  0.2258 -0.2429 -0.2443
 1597W        W 5648   7.383   1.384   0.482 -0.0950  0.1644 -0.1985
 1598W        W 5649   3.458   7.058   3.706 -0.0106  0.0457  0.3531
 1599W        W 5650   7.956   4.620   9.146 -0.1877  0.1015 -0.1254
 1600W        W 5651   1.330   0.259   2.676  0.0238  0.2455 -0.0154
 1601W        W 5652   4.390   8.184   9.732 -0.1482  0.0806 -0.0017
 1602W        W 5653   4.409   6.651   2.593  0.6171 -0.2132 -0.3715
 1603W        W 5654   4.103   2.360   4.101  0.2807  0.1170  0.2595
 1604W        W 5655   4.939  10.152   9.497  0.0092 -0.1491 -0.3219
 1605W        W 5656   7.511   6.732  13.145  0.2404 -0.0627 -0.2434
 1606W        W 5657   4.801   0.722   1.135 -0.2505 -0.1839 -0.3302
 1607W        W 5658   8.491   8.207   9.604 -0.0482 -0.0070 -0.0379
 1608W        W 5659   1.599   8.725   4.676 -0.0146 -0.0455 -0.2347
 1609W        W 5660   5.354   1.198   4.438 -0.0579  0.3167  0.1433
 1610W        W 5661   9.886   6.541   0.465  0.1020  0.0266  0.0520
 1611W        W 5662   6.846   2.654  13.459  0.0299  0.0665 -0.0437
 1612W        W 5663   5.896   7.427   1.073  0.0316 -0.0065  0.0540
 1613W        W 5664   1.461   0.678   3.385  0.0371  0.5130  0.2114
 1614W        W 5665   1.393   8.456   3.105  0.1678 -0.4541  0.2088
 1615W        W 5666   0.630   2.987   3.495  0.0439  0.0057  0.0839
 1616W        W 5667   4.138   0.567  10.336  0.0896 -0.0030 -0.2675
 1617W        W 5668   9.095   0.888   0.983  0.1945 -0.0769 -0.1436
 1618W        W 5669   4.013   9.646   1.774  0.1038  0.2051 -0.2636
 1619W        W 5670   2.483   8.929  11.920 -0.1671  0.2486 -0.3606
 1620W        W 5671   4.171   1.703   2.572  0.0897  0.1290 -0.1225
 1621W        W 5672   4.962   8.025   9.796  0.0265  0.1734 -0.0229
 1622W        W 5673   7.278   6.425   2.563  0.2155 -0.2574  0.1666
 1623W        W 5674   7.334   9.535   3.912  0.3141  0.0331  0.1446
 1624W        W 5675   1.217   3.413   5.144  0.4343  0.2585 -0.0631
 1625W        W 5676   7.663   2.095  12.503  0.0955 -0.0623  0.1739
 1626W        W 5677   9.753   1.946   4.111  0.1063  0.1950  0.2491
 1627W        W 5678   8.927   9.001  13.390 -0.1130 -0.0419  0.0268
 1628W        W 5679   3.380   7.034   9.491 -0.1818 -0.2470 -0.2585
 1629W        W 5680   9.729   5.782   0.699 -0.1026  0.0624  0.3090
 1630W        W 5681   2.098   5.275   5.681  0.0364  0.0857 -0.1042
 1631W        W 5682   6.365   6.572  12.264  0.0797 -0.1005  0.2409
 1632W        W 5683   1.444   8.418  11.639  0.0816  0.1872  0.2277
 1633W        W 5684   6.726   4.386   1.600  0.1894  0.1615 -0.4329
 1634W        W 5685   3.795   3.932   5.047 -0.3419  0.1527  0.4553
 1635W        W 5686   5.375   3.415   5.093 -0.3428  0.1657  0.1936
 1636W        W 5687   0.076   6.588  10.912 -0.0322 -0.1360  0.0731
 1637W        W 5688   3.022   5.414   1.473  0.3297 -0.3292  0.2132
 1638W        W 5689   3.860   3.514   1.448 -0.0044  0.1204 -0.0700
 1639W        W 5690   0.559   3.761  13.657 -0.1128 -0.2509 -0.2821
 1640W        W 5691   7.955  10.066  10.219 -0.1808  0.2770 -0.1874
 1641W        W 5692   7.838   6.569   0.101  0.3167  0.1815 -0.0861
 1642W        W 5693   6.043   9.757   3.447  0.0095  0.1464  0.0046
 1643W        W 5694   1.822   8.316  11.160 -0.0422 -0.2299  0.2590
 1644W        W 5695   1.237   8.974   4.340  0.1680  0.0829 -0.4439
 1645W        W 5696   5.267   9.761   1.793  0.0376  0.1682  0.0034
 1646W        W 5697   6.350   5.725  12.474 -0.2336  0.0772  0.0333
 1647W        W 5698   6.948   1.514  12.598 -0.0194  0.2177 -0.1747
 1648W        W 5699   3.832   7.373  11.951  0.0082 -0.2943  0.1052
 1649W        W 5700   9.512   9.276   3.105  0.0701 -0.0327 -0.0278
 1650W        W 5701   8.880   7.121  13.808  0.0684 -0.0176 -0.0205
 1651W        W 5702   8.495   3.926   1.515  0.5292 -0.1965 -0.0353
 1652W        W 5703   6.837   0.930  11.250  0.1203  0.1983 -0.2184
 1653W        W 5704   4.604   3.031   1.892  0.0555  0.0660 -0.1078
 1654W        W 5705   3.603   4.831  12.737  0.4623 -0.1371 -0.0532
 1655W        W 5706   3.851   6.706   8.951 -0.1448 -0.0793  0.1899
 1656W        W 5707   3.841   0.975   9.970 -0.0360 -0.2246 -0.1106
 1657W        W 5708   1.621   1.956   2.790 -0.0870 -0.4405  0.3680
 1658W        W 5709   6.486   2.056  10.811  0.2236  0.1000  0.3769
 1659W        W 5710   5.118   4.896  11.992 -0.2305  0.0384 -0.2003
 1660W        W 5711   6.506   0.721   3.305  0.0997 -0.1244 -0.0988
 1661W        W 5712   5.419   5.788   2.746  0.1230  0.0369  0.1759
 1662W        W 5713   7.376   2.375   1.981 -0.0315  0.3354  0.0597
 1663W        W 5714   8.421  10.023   3.033 -0.1420 -0.1962 -0.1231
 1664W        W 5715   3.477   4.695  11.919  0.2504 -0.0748 -0.0040
 1665W        W 5716   8.834   3.928  13.660  0.1189  0.0864  0.2329
 1666W        W 5717   6.894   3.073  12.367 -0.0585  0.2191 -0.1107
 1667W        W 5718   7.752   3.308   3.175 -0.1470 -0.1678 -0.1415
 1668W        W 5719   7.741   1.205  12.940  0.0400 -0.0415 -0.1820
 1669W        W 5720   6.105   8.843  10.676 -0.0165  0.1438  0.1701
 1670W        W 5721   6.965   7.038   9.345  0.2401 -0.1579  0.0556
 1671W        W 5722   2.802   6.506   3.606 -0.0695  0.1267 -0.2339
 1672W        W 5723   3.702  10.161  11.343 -0.0144  0.0502  0.0478
 1673W        W 5724   4.646   5.902   3.236 -0.1498  0.0916  0.1876
 1674W        W 5725   1.944   9.644   0.906 -0.4573  0.0118  0.0361
 1675W        W 5726   1.693   9.744   9.386 -0.0019 -0.0711 -0.0158
 1676W        W 5727   7.923   7.580  12.605  0.0659 -0.1293  0.1005
 1677W        W 5728   8.962   8.881  13.992  0.1517  0.1003 -0.0345
 1678W        W 5729  10.099   0.839   0.654 -0.3488 -0.2180  0.0739
 1679W        W 5730   5.482   0.676   2.832  0.1248 -0.0024  0.1641
 1680W        W 5731   0.371   6.615   3.245  0.1526 -0.0352  0.2923
 1681W        W 5732   6.671   5.671   1.928 -0.0220 -0.1017 -0.1767
 1682W        W 5733   8.624   0.218   3.293  0.2209  0.1893  0.0200
 1683W        W 5734   2.988   2.030  11.257  0.0599  0.1447 -0.2008
 1684W        W 5735   0.968   4.980  10.737  0.0163  0.0482 -0.4081
 1685W        W 5736   2.732   0.213  11.972  0.1752  0.0701 -0.0540
 1686W        W 5737   8.945   2.117   3.543  0.0414 -0.1303 -0.1471
 1687W        W 5738   8.185   6.121   2.408 -0.3750 -0.1432  0.0019
 1688W        W 5739   2.140   4.269   2.356  0.0500  0.1689  0.2352
 1689W        W 5740   2.936   4.001   2.093  0.1532  0.2791  0.1436
 1690W        W 5741   4.864   3.763   0.935 -0.0647 -0.1692 -0.2188
 1691W        W 5742   5.393   9.142   8.834 -0.0810  0.1669  0.1970
 1692W        W 5743   9.565   3.350  13.158  0.0498  0.1327  0.0014
 1693W        W 5744  10.097   7.894  13.626  0.2872  0.3899 -0.2587
 1694W        W 5745   5.498   2.907  12.165  0.0793  0.0406  0.0815
 1695W        W 5746   8.089   1.851   1.396  0.2168  0.4137 -0.1635
 1696W        W 5747   0.540   9.011  10.483  0.1794 -0.2197 -0.0535
 1697W        W 5748   4.142   9.210  13.659 -0.1329 -0.0303  0.2639
 1698W        W 5749   6.240   7.005   4.365 -0.1759 -0.1069  0.1356
 1699W        W 5750   4.052   7.396   1.650 -0.2448 -0.2613 -0.2545
 1700W        W 5751   4.218   7.037  13.769 -0.1695 -0.0706  0.2364
 1701W        W 5752   4.043   0.292   9.417 -0.0837 -0.0109  0.0098
 1702W        W 5753   8.373   6.947  11.037 -0.0172  0.3488 -0.2115
 1703W        W 5754   8.247   3.674  12.892 -0.0808 -0.1334 -0.0893
 1704W        W 5755   6.369   9.688  11.336 -0.3642  0.1795 -0.0029
 1705W        W 5756   4.775   5.229  12.970  0.1082  0.1752 -0.0636
 1706W        W 5757   5.076   7.664  12.188  0.2552  0.1205 -0.0211
 1707W        W 5758   9.989   2.107  12.972  0.0410  0.1304  0.0276
 1708W        W 5759   2.797   4.507   2.390 -0.0996  0.1118 -0.0676
 1709W        W 5760   5.731   0.464   1.408 -0.1379  0.0417 -0.0123
 1710W        W 5761  10.025   1.551   9.127 -0.3138 -0.2719  0.2295
 1711W        W 5762   3.094   1.680   3.151 -0.4289 -0.0010  0.0584
 1712W        W 5763   7.631   3.001   1.046 -0.3181  0.0445  0.8042
 1713W        W 5764   7.772   2.097  13.422  0.0116 -0.0592  0.0594
 1714W        W 5765   2.526   2.418   0.575  0.1162  0.2011  0.0826
 1715W        W 5766   8.288   7.956  10.940 -0.1169 -0.2745 -0.0536
 1716W        W 5767   2.988   0.014  11.302 -0.1014 -0.0907 -0.1633
 1717W        W 5768   5.777   8.913  12.768  0.0004  0.1613 -0.3342
 1718W        W 5769   3.359   5.420  13.954  0.1608  0.1375 -0.1138
 1719W        W 5770   9.576   3.494  10.592 -0.2037 -0.1076  0.2130
 1720W        W 5771   3.419   9.715   0.436 -0.0356 -0.0298  0.0295
 1721W        W 5772   6.338   3.120   8.682  0.0614 -0.2007 -0.0021
 1722W        W 5773   7.741   7.992  10.896 -0.1788 -0.1418 -0.1224
 1723W        W 5774   0.382   1.390  11.301 -0.1622  0.2041 -0.3633
 1724W        W 5775   3.914   1.892  10.246  0.0190  0.0337  0.1874
 1725W        W 5776   0.981   5.072  13.747 -0.2608  0.2217  0.0343
 1726W        W 5777   4.481   2.600   2.650  0.2688 -0.2347 -0.2209
 1727W        W 5778   6.334   8.804   3.463 -0.3583 -0.0958 -0.3349
 1728W        W 5779   1.958   2.828   3.674 -0.2056 -0.0328  0.2270
 1729W        W 5780   5.545   2.182   4.648 -0.2115 -0.2502 -0.0768
 1730W        W 5781   7.934   9.829  12.035 -0.1612 -0.3491  0.1809
 1731W        W 5782   9.956   1.139   4.394 -0.0476  0.1127  0.0194
 1732W        W 5783   0.134   7.261   4.037  0.0227  0.0866 -0.0026
 1733W        W 5784   4.215   7.722   0.719 -0.1806 -0.1745  0.0097
 1734W        W 5785   0.736   3.958   4.346  0.2782  0.1596  0.2004
 1735W        W 5786   2.268   3.358   8.878  0.0398 -0.2780  0.0063
 1736W        W 5787   5.006   5.488  11.143 -0.0468  0.0872 -0.0247
 1737W        W 5788   2.791   4.213  10.224  0.2778 -0.0512  0.0126
 1738W        W 5789   1.936   1.456  13.999  0.1574 -0.1474  0.1322
 1739W        W 5790   3.376   7.399  12.217 -0.1886  0.1779 -0.1752
 1740W        W 5791   5.168   9.462   3.200  0.1182 -0.0728  0.2890
 1741W        W 5792   1.712   8.059   5.175 -0.1598 -0.1993  0.0083
 1742W        W 5793   9.437   4.903  10.755  0.1321  0.3840 -0.0191
 1743W        W 5794   8.875   1.559  11.758  0.0437  0.3561 -0.0596
 1744W        W 5795   6.968   9.036  11.154 -0.3148  0.0178 -0.1290
 1745W        W 5796   2.923   8.256   4.787 -0.0947 -0.1411 -0.0628
 1746W        W 5797   3.537   8.445   4.825 -0.2360 -0.0733  0.1778
 1747W        W 5798   7.337   3.932   9.601  0.1743 -0.0448 -0.1108
 1748W        W 5799   4.335   5.473   3.658 -0.4589 -0.0174 -0.1704
 1749W        W 5800   6.307   0.612   0.993 -0.2149 -0.2354 -0.0694
 1750W        W 5801   1.827   8.389  10.487 -0.1108  0.0206  0.0415
 1751W        W 5802   0.481   0.588   3.374  0.1032 -0.3276  0.2266
 1752W        W 5803   2.135   2.830  13.643  0.2171 -0.0533 -0.0850
 1753W        W 5804   8.251   0.896   2.604  0.0925 -0.0328 -0.0679
 1754W        W 5805   9.716   6.065   2.037 -0.1679  0.1076  0.1050
 1755W        W 5806   2.323   7.609  11.879 -0.4379 -0.2591  0.0292
 1756W        W 5807   0.405   4.150   2.228  0.2402  0.0130  0.1304
 1757W        W 5808   1.536   4.241  12.785  0.0116 -0.2828 -0.0718
 1758W        W 5809   8.190   5.215  13.513  0.0208 -0.0946  0.0838
 1759W        W 5810   5.169   5.655  10.672 -0.4029  0.0247 -0.2612
 1760W        W 5811   6.223   9.735   0.554  0.0963  0.4301 -0.0603
 1761W        W 5812   7.055   4.441   2.445  0.1648  0.0030 -0.2784
 1762W        W 5813   5.932   0.782   4.238  0.2279 -0.2174 -0.0057
 1763W        W 5814   1.725   0.595   2.028  0.0801  0.4093 -0.3216
 1764W        W 5815   8.561   2.065  11.199  0.1271 -0.0376 -0.1489
 1765W        W 5816   4.852   2.059  11.813  0.1156  0.1885  0.1115
 1766W        W 5817   3.013   1.059   0.724  0.2243 -0.1028  0.2790
 1767W        W 5818   3.021   4.733   9.284  0.0466  0.0053 -0.0666
 1768W        W 5819   6.775   3.645   1.025 -0.1900 -0.0104  0.1900
 1769W        W 5820   2.208   7.749   1.489  0.1447  0.1644 -0.0327
 1770W        W 5821   5.368   2.674  10.045 -0.0446  0.1132  0.0757
 1771W        W 5822   5.645   3.224  11.707 -0.3126  0.1620 -0.0542
 1772W        W 5823   0.891   4.589  12.469  0.0505  0.1679  0.0629
 1773W        W 5824   7.072   0.012   0.646  0.2922 -0.0189  0.0111
 1774W        W 5825   1.214   3.181   0.895 -0.0070  0.0537  0.1492
 1775W        W 5826   2.840   7.224   4.287 -0.1891 -0.0468 -0.0060
 1776W        W 5827   5.695   8.320   1.365 -0.0753  0.5025  0.0167
 1777W        W 5828   9.657   2.719   1.950  0.0018  0.1711 -0.0126
 1778W        W 5829   2.493   4.631  10.470  0.1569 -0.2306  0.1136
 1779W        W 5830   1.001   6.163   0.389 -0.0269 -0.0734  0.0804
 1780W        W 5831   8.768   1.693   0.241  0.1791 -0.0311 -0.0288
 1781W        W 5832   7.051   9.980   1.252 -0.1322 -0.1354  0.0272
 1782W        W 5833   4.587   5.959  13.100 -0.1303 -0.2396  0.0485
 1783W        W 5834   5.942   0.441   4.697  0.2070 -0.0435  0.1965
 1784W        W 5835   0.882   2.189   0.159 -0.1842  0.0810 -0.4782
 1785W        W 5836   5.977   4.790   3.559  0.0996  0.3052 -0.3472
 1786W        W 5837   2.225   6.080   4.372  0.2825  0.3907 -0.4395
 1787W        W 5838   4.703   9.804   1.769 -0.2116  0.0517 -0.1279
 1788W        W 5839   6.190   1.017   5.873  0.0034 -0.3108  0.1245
 1789W        W 5840   5.605   7.864   1.080 -0.2903  0.0814 -0.3699
 1790W        W 5841   7.880   8.842   2.055 -0.1148 -0.1047  0.2239
 1791W        W 5842   4.721   0.437   2.176 -0.2693  0.1006  0.0748
 1792W        W 5843   4.322   1.299   3.330 -0.0110  0.0370  0.1582
 1793W        W 5844  10.170   9.289  13.232 -0.0668 -0.1538 -0.0823
 1794W        W 5845   7.140   0.360   9.977 -0.0845 -0.3748 -0.1106
 1795W        W 5846   9.344   9.545  10.652 -0.0197  0.1702  0.3261
 1796W        W 5847   5.409   3.001   0.538  0.1227 -0.2332 -0.1062
 1797W        W 5848   4.230   9.611   0.063 -0.0586 -0.0211 -0.0044
 1798W        W 5849   2.784   3.699   3.931  0.1869  0.1602 -0.0520
 1799W        W 5850   9.857   7.630   4.038 -0.1379 -0.0414  0.0235
 1800W        W 5851   1.624   5.556  11.950  0.3336 -0.0361  0.0339
 1801W        W 5852   2.282   9.503  10.883 -0.1223  0.0151  0.1790
 1802W        W 5853   5.038   2.229   3.350 -0.2695 -0.0655  0.1049
 1803W        W 5854   3.920   7.924  13.841 -0.0853 -0.1041 -0.1091
 1804W        W 5855   6.919   5.773   4.773 -0.1586 -0.1036 -0.1131
 1805W        W 5856   7.741   5.587  11.021  0.2189  0.0637 -0.2758
 1806W        W 5857   2.549   0.318  11.527  0.1629  0.0219 -0.1467
 1807W        W 5858   5.152   8.502   2.355 -0.1954  0.0378  0.1349
 1808W        W 5859   9.356   9.769   4.065  0.2525  0.0133  0.1880
 1809W        W 5860   0.487   2.838   2.903 -0.0752  0.0851  0.0316
 1810W        W 5861   4.330   1.860   9.763  0.3693  0.2274 -0.0402
 1811W        W 5862   0.729   8.886  12.678  0.1176  0.1753  0.1120
 1812W        W 5863   4.626   2.825  12.204  0.2763  0.0992  0.1619
 1813W        W 5864   0.595   6.690  13.971 -0.1144  0.3618 -0.1332
 1814W        W 5865   1.868   3.349   0.260  0.3272 -0.2358 -0.0984
 1815W        W 5866   6.736   5.586   5.207 -0.0267 -0.1196  0.2252
 1816W        W 5867   5.342  10.153  10.872 -0.3398  0.0357 -0.5180
 1817W        W 5868   8.420   9.026  11.560  0.1641  0.1428  0.0024
 1818W        W 5869   8.486  10.115  13.977  0.1341 -0.3919 -0.1287
 1819W        W 5870   0.762   4.452  13.237 -0.1418  0.1515  0.0801
 1820W        W 5871   8.492   2.610   1.858  0.0465 -0.1261  0.1742
 1821W        W 5872   3.799   7.258   1.261  0.1269 -0.1450  0.1075
 1822W        W 5873   3.537   2.614  13.489 -0.0048  0.2506 -0.1552
 1823W        W 5874   4.848   4.738  12.737  0.1270 -0.0420  0.3292
 1824W        W 5875   2.181   7.230  11.100 -0.0623 -0.0453 -0.0023
 1825W        W 5876   6.589   3.475  11.151  0.0005  0.0831 -0.1147
 1826W        W 5877   1.194   4.407   3.974  0.0175 -0.0976 -0.2264
 1827W        W 5878   1.931   3.933   0.982  0.1684  0.0871 -0.1271
 1828W        W 5879   6.647   7.808  12.668 -0.2990 -0.2013 -0.2445
 1829W        W 5880   3.703   2.248  13.770  0.2611 -0.0132  0.2975
 1830W        W 5881  10.066   3.586   4.775  0.0279  0.2399 -0.0006
 1831W        W 5882   5.797   5.551   0.207  0.2144  0.0471  0.1456
 1832W        W 5883   3.706   5.640   0.879  0.3811 -0.1077  0.2061
 1833W        W 5884   5.428   4.019  12.475 -0.1082  0.0400  0.1741
 1834W        W 5885   2.303   0.322  10.102  0.1810 -0.0234  0.1094
 1835W        W 5886   9.095   0.276   3.596  0.4970 -0.2788  0.0757
 1836W        W 5887   7.895   3.361  11.209 -0.2939  0.1383 -0.0756
 1837W        W 5888   8.559   5.638   9.875 -0.0546  0.1241 -0.4052
 1838W        W 5889   8.661   5.947   0.157 -0.0046  0.0293 -0.1734
 1839W        W 5890   6.968   3.459  10.268 -0.1563  0.2088  0.1172
 1840W        W 5891   3.027   9.860   2.320  0.2385 -0.0775  0.1840
 1841W        W 5892   6.857   8.733   4.422  0.1931  0.1745 -0.0993
 1842W        W 5893   7.117   8.639   1.172  0.0273  0.0226 -0.0284
 1843W        W 5894   7.742   0.506   3.907 -0.0244  0.1591  0.2136
 1844W        W 5895   0.806   1.383   3.405  0.3054  0.0156 -0.0117
 1845W        W 5896   0.573   9.633  13.889 -0.3695 -0.0209  0.2057
 1846W        W 5897   8.853   6.001  12.201 -0.2171  0.0334 -0.0040
 1847W        W 5898   6.141   4.496  10.396 -0.0848  0.1945 -0.0282
 1848W        W 5899   9.575   3.121   3.559  0.1792 -0.0739 -0.0773
 1849W        W 5900   1.543   3.181   5.508 -0.2581  0.0312 -0.0213
 1850W        W 5901   6.827   6.959   2.180 -0.1055  0.2732  0.2907
 1851W        W 5902   6.998   0.588   0.716 -0.0475  0.0963  0.1419
 1852W        W 5903   8.540   7.450  10.954  0.2360 -0.2068  0.0363
 1853W        W 5904   2.700   0.164  13.319  0.0026 -0.1095 -0.1452
 1854W        W 5905   4.144   4.024  10.514 -0.0813 -0.0297  0.3374
 1855W        W 5906   6.200   8.446   4.520 -0.3353 -0.1204  0.2648
 1856W        W 5907   5.573   3.301  13.228 -0.1798 -0.0926 -0.1056
 1857W        W 5908   9.895   8.339  11.594  0.2050 -0.1460 -0.2078
 1858W        W 5909   5.188   1.530  11.273 -0.0710 -0.1568 -0.3139
 1859W        W 5910   2.510  10.056   3.415  0.1770  0.1129  0.1954
 1860W        W 5911   2.356   3.823  11.088  0.0624 -0.1411 -0.0551
 1861W        W 5912   5.077   2.564  12.951 -0.0037  0.1510 -0.1456
 1862W        W 5913   3.748   1.603   4.385  0.2226 -0.0047  0.2814
 1863W        W 5914   8.135   0.646   1.242 -0.0580 -0.4108  0.1263
 1864W        W 5915   4.211   4.892  10.853  0.2528 -0.0832 -0.1045
 1865W        W 5916   0.071   3.713  13.572  0.0996 -0.2530  0.2653
 1866W        W 5917  10.125   2.211   3.338 -0.1044  0.2888 -0.0409
 1867W        W 5918   1.993   9.088   1.025 -0.0918 -0.0137  0.1349
 1868W        W 5919   2.257   1.346   4.856  0.4198 -0.3693 -0.0311
 1869W        W 5920   3.208   6.935  13.508 -0.0914 -0.2846 -0.2955
 1870W        W 5921   8.284  10.147  11.799  0.2871 -0.1091  0.1087
 1871W        W 5922   5.614   6.496   0.964  0.0277  0.2039  0.1391
 1872W        W 5923   3.032   4.371  12.684 -0.2088  0.1144 -0.2374
 1873W        W 5924   4.517   2.674   3.856 -0.0031 -0.0894  0.2523
 1874W        W 5925   6.116   1.868   0.212 -0.4473  0.1994  0.0660
 1875W        W 5926   5.264   0.434   3.792 -0.1685 -0.0258 -0.1815
 1876W        W 5927   8.537  10.137   1.026 -0.1458 -0.0137 -0.3030
 1877W        W 5928   0.039   3.606  11.349 -0.0733 -0.2290  0.1163
 1878W        W 5929   5.743   8.171  13.849 -0.1202  0.0260  0.1762
 1879W        W 5930   3.182   8.504  11.343 -0.0860 -0.1356 -0.0010
 1880W        W 5931   6.451   0.776  12.150 -0.1355 -0.2783 -0.0421
 1881W        W 5932   5.482   8.124  11.022  0.1008 -0.3320 -0.0867
 1882W        W 5933   3.228   1.181   9.867 -0.1296 -0.1972 -0.1806
 1883W        W 5934   6.719   5.721   9.345 -0.1375  0.0260  0.1867
 1884W        W 5935   8.182   2.751  12.914 -0.0047  0.0021 -0.1706
 1885W        W 5936   9.993   1.324   3.479  0.0891 -0.0728  0.0407
 1886W        W 5937   5.593   1.211  12.498 -0.1259  0.2117 -0.0424
 1887W        W 5938   7.642   1.499   1.984  0.0464  0.0956  0.1584
 1888W        W 5939   5.705   1.924  11.242  0.0108  0.1064  0.0120
 1889W        W 5940   0.111   9.275  11.633  0.0987 -0.1555 -0.2664
 1890W        W 5941   7.637   9.629   3.545  0.0760  0.1852  0.3818
 1891W        W 5942   6.140   0.021   0.713 -0.1960  0.2141 -0.2212
 1892W        W 5943   4.074   0.646   3.707 -0.1294 -0.1483  0.0562
 1893W        W 5944   5.756   2.265   0.075  0.2634 -0.1541  0.0866
 1894W        W 5945   7.066   1.222   3.226  0.2312  0.1094 -0.1712
 1895W        W 5946   7.127   2.377   2.846  0.3802 -0.2580 -0.4149
 1896W        W 5947   6.511   2.922  13.274 -0.0465 -0.0435  0.4201
 1897W        W 5948   3.217   7.932   2.536 -0.0675 -0.2582 -0.0654
 1898W        W 5949   6.939   9.230  10.634 -0.3545  0.3126 -0.0143
 1899W        W 5950   1.408   6.555  12.692 -0.4044 -0.2648 -0.1940
 1900W        W 5951   0.518   3.523   5.058  0.0241 -0.2096  0.1558
 1901W        W 5952   7.645   0.489  11.089  0.0116  0.0015 -0.3707
 1902W        W 5953   0.936   5.162   1.305 -0.0442  0.0405 -0.0928
 1903W        W 5954   5.220   4.970  10.011 -0.1383  0.1849  0.1280
 1904W        W 5955   5.603   8.274  10.120  0.0187 -0.0956 -0.1675
 1905W        W 5956   8.966   4.516  10.766  0.0568 -0.0848 -0.1011
 1906W        W 5957   0.439   5.069   1.056  0.0928  0.0604 -0.0963
 1907W        W 5958   5.954   5.073   0.199 -0.2640 -0.0083  0.1771
 1908W        W 5959   7.516   0.272  13.918  0.2486 -0.3387 -0.0578
 1909W        W 5960   0.912   2.103   3.230 -0.1616 -0.1669  0.1402
 1910W        W 5961   6.352   3.643   2.483 -0.0992  0.2573  0.1043
 1911W        W 5962   5.414   0.115   0.402 -0.3134 -0.1928 -0.1131
 1912W        W 5963   7.364   0.823  10.293 -0.0310 -0.2593  0.2146
 1913W        W 5964   9.334   3.407   1.757 -0.2595  0.2981 -0.0997
 1914W        W 5965   9.112   9.547   1.924  0.0787  0.1104 -0.0296
 1915W        W 5966   4.196   1.798  10.766 -0.2823  0.1222 -0.0264
 1916W        W 5967   0.567   3.333   3.106 -0.2029  0.1933  0.0241
 1917W        W 5968   2.373   5.716   4.739  0.5881 -0.2588 -0.0679
 1918W        W 5969   2.326   6.368   2.341  0.0001 -0.1044 -0.0438
 1919W        W 5970   7.743   0.364   4.416  0.0996 -0.1243 -0.0080
 1920W        W 5971   5.394   3.904  13.337 -0.0094 -0.3032 -0.0346
 1921W        W 5972   5.293   5.633   9.377 -0.0815 -0.0845  0.2914
 1922W        W 5973   4.452   1.508  10.114  0.0577 -0.0438 -0.0869
 1923W        W 5974   8.250   8.319   4.208  0.1471  0.0858  0.4810
 1924W        W 5975   5.638   2.254   1.205 -0.0923  0.0826  0.0661
 1925W        W 5976   7.546   9.791  13.972  0.2345  0.2834  0.1035
 1926W        W 5977   2.154   7.489   4.027 -0.4333 -0.0405  0.1858
 1927W        W 5978   4.011   1.528  12.097 -0.0998  0.1258  0.1007
 1928W        W 5979   3.605   6.059  13.486 -0.2380  0.1049 -0.1186
 1929W        W 5980   4.588   6.180   4.699  0.3012 -0.2168  0.2154
 1930W        W 5981   0.680   5.049   5.060 -0.2522 -0.0614  0.1747
 1931W        W 5982   0.749   4.519  10.609 -0.0586  0.1087  0.0295
 1932W        W 5983   2.863   9.194   2.101 -0.0254 -0.0182  0.1199
 1933W        W 5984   9.815   7.402   0.700  0.1032  0.0783  0.0900
 1934W        W 5985   7.245   1.745   4.191 -0.3274  0.0239 -0.0442
 1935W        W 5986   4.584   2.495   1.821  0.1268 -0.3580  0.1391
 1936W        W 5987   0.474   0.204  10.482 -0.2635  0.1146  0.0904
 1937W        W 5988   0.852   6.164  13.858  0.1403  0.1785 -0.0278
 1938W        W 5989   7.864   4.212   3.191 -0.2390 -0.1574 -0.1556
 1939W        W 5990   3.411   7.479   5.467  0.2227 -0.2648 -0.2606
 1940W        W 5991   5.304   3.910   2.770 -0.1876 -0.1360 -0.0045
 1941W        W 5992  10.105   7.488   3.135  0.1252  0.0436 -0.1274
 1942W        W 5993   3.233   7.569   4.921  0.1051  0.0229 -0.0743
 1943W        W 5994   8.755   0.920   9.719 -0.2024 -0.3106  0.0582
 1944W        W 5995   9.083   9.093  11.987 -0.1916 -0.0790  0.2300
 1945W        W 5996   9.217   9.121  12.897 -0.1164 -0.0638 -0.0426
 1946W        W 5997  10.115   4.296   1.545 -0.2268  0.0676  0.2074
 1947W        W 5998   1.691  10.034  11.164  0.2176  0.0559  0.0121
 1948W        W 5999   6.049   0.998   0.716 -0.1874  0.0661 -0.3872
 1949W        W 6000   4.275   9.830  12.590 -0.2427 -0.0059 -0.1271
 1950W        W 6001   7.355  10.073  11.951 -0.3321 -0.3120  0.1765
 1951W        W 6002   7.640   4.209   3.646  0.2146 -0.0727 -0.1432
 1952W        W 6003   4.052   0.443  11.712  0.2340 -0.2155  0.0530
 1953W        W 6004   4.041   5.401   0.545  0.1248  0.1349  0.2452
 1954W        W 6005   2.776   9.693   1.069 -0.1960 -0.1202 -0.1239
 1955W        W 6006   8.542   6.234  13.595  0.0490  0.1474 -0.2265
 1956W        W 6007   4.274   7.230   9.679  0.2251 -0.0809 -0.1033
 1957W        W 6008   5.295   6.865   0.066  0.1654 -0.0492  0.1096
 1958W        W 6009   9.747   4.863   3.234 -0.1738  0.0105 -0.3015
 1959W        W 6010   6.366   9.388   4.105 -0.0476  0.0758  0.1212
 1960W        W 6011   2.154   0.055   2.943 -0.1879  0.0361 -0.1779
 1961W        W 6012   4.277   2.092   5.507 -0.3344 -0.2566  0.0224
 1962W        W 6013   5.286  10.053  12.201 -0.0050  0.1477 -0.3026
 1963W        W 6014   0.966  10.034   0.484  0.2823  0.0470 -0.2731
 1964W        W 6015   6.950   1.440   0.710  0.0616  0.1144  0.0250
 1965W        W 6016   8.087   0.923   1.677  0.0567 -0.0434 -0.1291
 1966W        W 6017   2.990   5.736   3.956  0.0560  0.2900 -0.0231
 1967W        W 6018   2.014   5.608  10.120 -0.2052 -0.1225  0.2554
 1968W        W 6019  10.165   2.169  13.824 -0.0054 -0.0957 -0.1207
 1969W        W 6020   1.969   7.637  13.889  0.1722 -0.2919 -0.0734
 1970W        W 6021   7.404   4.121   3.059 -0.2338 -0.0256 -0.2222
 1971W        W 6022   4.973   1.196   4.002 -0.0628 -0.2693 -0.0169
 1972W        W 6023   6.271   2.018   3.051  0.0864 -0.1657 -0.2274
 1973W        W 6024   3.559   1.593   9.688 -0.1383  0.2011  0.0285
 1974W        W 6025   9.911   9.842   1.848 -0.4237 -0.1666 -0.1829
 1975W        W 6026   1.843   6.473   2.236  0.2153 -0.0801  0.0975
 1976W        W 6027   5.403  10.007  12.700 -0.4490 -0.0714  0.0142
 1977W        W 6028   7.597   1.378  10.103  0.0655  0.1806  0.4449
 1978W        W 6029   6.661   7.097  13.262  0.0270  0.2361 -0.0702
 1979W        W 6030   4.833   6.117   2.038  0.0817 -0.1424 -0.1001
 1980W        W 6031   5.759   3.964  11.068 -0.1732  0.0098  0.3214
 1981W        W 6032   1.977   7.317   2.657  0.5708 -0.4285 -0.1447
 1982W        W 6033   5.249   1.880  10.313 -0.0468  0.1438  0.1631
 1983W        W 6034   9.985   6.597  13.045 -0.1548 -0.0659 -0.2700
 1984W        W 6035   4.707   6.605  10.625 -0.2424 -0.1857  0.0285
 1985W        W 6036   2.081   3.606   4.531  0.0820  0.0387 -0.1611
 1986W        W 6037   6.038   8.488  11.791  0.0714  0.3457  0.1553
 1987W        W 6038   7.052   5.936  11.569 -0.2488 -0.2640  0.3116
 1988W        W 6039   7.206   0.996   9.837 -0.1277  0.1287 -0.2678
 1989W        W 6040   2.926   9.773  11.862  0.0610  0.0122  0.2226
 1990W        W 6041   6.340   9.152  11.518  0.1067 -0.4311 -0.0580
 1991W        W 6042   0.028   1.691   1.383 -0.0832 -0.1140 -0.1532
 1992W        W 6043   4.898   5.932   9.311 -0.0272 -0.0930 -0.0263
 1993W        W 6044   9.992   4.806  11.506  0.0373 -0.1222 -0.0426
 1994W        W 6045   4.115   5.583   1.963 -0.0350 -0.1885 -0.0130
 1995W        W 6046   2.440   2.912   2.290  0.1099 -0.0944  0.0149
 1996W        W 6047   9.199   8.867   0.871 -0.0185  0.1598  0.0374
 1997W        W 6048   7.055   0.413  13.692 -0.0207  0.2877  0.0652
 1998W        W 6049   2.847  10.109  12.859  0.2224 -0.2346  0.1508
 1999W        W 6050   5.036   1.320   1.032  0.0511 -0.1468 -0.3144
 2000W        W 6051   5.990   1.446   2.139 -0.0806 -0.1082  0.0495
 2001W        W 6052   1.803   4.870   5.207 -0.1241 -0.2124  0.0554
 2002W        W 6053   1.363  10.156  13.695 -0.1141  0.3451  0.0597
 2003W        W 6054   6.164   7.588  12.551 -0.1655  0.1511  0.0613
 2004W        W 6055   7.426   1.971  13.031 -0.1372  0.1912  0.1596
 2005W        W 6056   7.667   3.692   2.390  0.2529 -0.0474  0.0915
 2006W        W 6057   3.401   9.709   3.982  0.2050 -0.2300 -0.0087
 2007W        W 6058   0.083   2.537   5.220 -0.3927 -0.1499 -0.2022
 2008W        W 6059   7.017  10.131   9.783  0.2046 -0.0065  0.0985
 2009W        W 6060   4.332   1.181   9.214  0.0383 -0.2568  0.1207
 2010W        W 6061   8.344   2.141   1.050 -0.1289 -0.1312  0.0083
 2011W        W 6062   0.191   1.201  11.738 -0.0196 -0.1070 -0.3272
 2012W        W 6063   7.605   9.656   0.845  0.1007  0.0139  0.0975
 2013W        W 6064   8.896   2.638  12.055  0.0309  0.2410  0.1062
 2014W        W 6065   2.418   3.989   9.959 -0.2817  0.3414 -0.1050
 2015W        W 6066   4.803   0.680   3.945  0.1703 -0.0199 -0.2593
 2016W        W 6067   2.383  10.028   1.914  0.1971  0.2645 -0.4263
 2017W        W 6068   5.741   2.837   2.334 -0.2350 -0.0986  0.0784
 2018W        W 6069   7.312   6.064   1.231 -0.2858  0.0281 -0.2337
 2019W        W 6070   6.460   4.516   9.763  0.0927 -0.1977  0.0850
 2020W        W 6071   1.031   1.335  10.141  0.0535  0.2609 -0.0849
 2021W        W 6072   0.255   0.139  13.205  0.2267 -0.2809 -0.0823
 2022W        W 6073   6.436   9.407   3.581 -0.1393 -0.2360  0.1817
 2023W        W 6074   3.922  10.174   3.317 -0.1913 -0.1446 -0.0690
 2024W        W 6075   6.644   9.352  12.905  0.0001 -0.2838  0.1369
 2025W        W 6076   6.172   5.865  13.317  0.2334 -0.2881 -0.0801
 2026W        W 6077   6.368   5.967   2.287 -0.1172  0.0364 -0.0684
 2027W        W 6078   4.768   6.534   2.990  0.1805 -0.0036  0.0762
 2028W        W 6079   5.802   2.401   9.990  0.0773 -0.0775  0.3427
 2029W        W 6080   6.469   5.499   4.721  0.1385 -0.1887 -0.1385
 2030W        W 6081   5.956   7.597  13.136  0.2720 -0.2527  0.0253
 2031W        W 6082   5.383   0.947  10.765  0.3004 -0.1017  0.0369
 2032W        W 6083   1.509   3.356  13.878 -0.1055  0.0622  0.0707
 2033W        W 6084   5.885   9.914   3.007 -0.1426  0.3608 -0.0072
 2034W        W 6085   4.376   2.695   0.974  0.1647 -0.0375 -0.0332
 2035W        W 6086   4.517   2.262   3.522  0.2612  0.2280  0.1626
 2036W        W 6087   7.907   1.478   9.511  0.0458 -0.0751  0.0931
 2037W        W 6088   5.764   8.184  11.449  0.2817  0.1661  0.0654
 2038W        W 6089   7.950   6.394  11.364 -0.4372 -0.1048  0.2275
 2039W        W 6090   0.139   2.900   4.279 -0.0585 -0.0980 -0.1496
 2040W        W 6091   1.632   9.440  11.998 -0.0703  0.4156  0.0453
 2041W        W 6092   9.932   6.934  13.492 -0.0931 -0.1235  0.0270
 2042W        W 6093   7.731   0.840   0.975  0.0667  0.2027  0.0962
 2043W        W 6094   6.420   3.593   9.631  0.1355  0.0032 -0.0180
 2044W        W 6095   8.102   0.673   9.833 -0.1079 -0.2081  0.1833
 2045W        W 6096   4.702   4.039  10.465 -0.1098  0.1403  0.0155
 2046W        W 6097   6.390   8.559   0.317  0.0291 -0.0557  0.0446
 2047W        W 6098   5.270   3.062   3.885 -0.1694 -0.1553 -0.0895
 2048W        W 6099   1.558   7.118   1.821  0.0377 -0.0280  0.2420
 2049W        W 6100   4.090   6.398   9.898  0.2040 -0.1612  0.0088
 2050W        W 6101   1.203   9.261  11.847  0.0888  0.2205 -0.2259
 2051W        W 6102   5.385   9.412   0.412  0.2738 -0.0997 -0.0025
 2052W        W 6103   3.477   3.621  13.703 -0.3124 -0.1317  0.2992
 2053W        W 6104   1.262   2.308   3.560  0.1729 -0.2455 -0.0873
 2054W        W 6105   2.729   9.160  10.149  0.0529  0.0325 -0.0624
 2055W        W 6106   7.773   9.821   9.810 -0.0313  0.0036 -0.0878
 2056W        W 6107   0.697   4.813  12.961 -0.0165 -0.0566  0.2159
 2057W        W 6108   2.940   2.510  11.395 -0.0793 -0.1234 -0.1509
 2058W        W 6109   4.092   9.877   4.757  0.2692  0.0474  0.1910
 2059W        W 6110   6.934   4.964   9.905  0.0391  0.1580 -0.2032
 2060W        W 6111   1.021   1.476   1.570  0.2148  0.1192 -0.0327
 2061W        W 6112   9.665   7.965   1.308 -0.0874  0.2178 -0.0086
 2062W        W 6113   1.876   1.469  13.426 -0.0049 -0.0780 -0.2546
 2063W        W 6114   2.217   1.121  13.749 -0.4121 -0.3509 -0.1267
 2064W        W 6115   4.992   8.115  13.808  0.0323  0.4222 -0.0150
 2065W        W 6116   9.490   7.825  12.706  0.2251 -0.1603  0.0463
 2066W        W 6117   8.194   5.391  10.294 -0.1726  0.1473 -0.3056
 2067W        W 6118   0.529   8.036  12.868  0.0897  0.0449 -0.1024
 2068W        W 6119   1.956   7.364  12.238  0.0822 -0.0465 -0.4595
 2069W        W 6120   2.120   3.417  10.496  0.4386  0.0443 -0.0643
 2070W        W 6121   4.575   8.534  12.414  0.2348 -0.1520 -0.1804
 2071W        W 6122   9.947   2.510   2.521  0.1275  0.0647  0.1817
 2072W        W 6123   9.033   0.515  13.540  0.5302  0.0482  0.0658
 2073W        W 6124   8.295   5.921  12.234 -0.0037 -0.1712 -0.2234
 2074W        W 6125   8.345   5.321   1.576 -0.2579  0.0280  0.2696
 2075W        W 6126   4.404   0.225  11.968  0.1732  0.1111  0.3970
 2076W        W 6127   8.075   0.828  11.030 -0.3024 -0.0097  0.0404
 2077W        W 6128   6.703   4.775  10.402 -0.5083  0.2713  0.1099
 2078W        W 6129   3.679   8.492   4.359 -0.0301  0.1202 -0.2908
 2079W        W 6130   7.847   5.855  11.917  0.0936  0.0259  0.0967
 2080W        W 6131   9.409   0.749  12.611 -0.0787 -0.0435 -0.0280
 2081W        W 6132   4.484   3.772  10.836  0.0353  0.1611  0.2211
 2082W        W 6133   5.742   0.255   3.037  0.1369  0.1993 -0.0845
 2083W        W 6134   1.253   1.434   9.621 -0.2989  0.1174 -0.0764
 2084W        W 6135   4.036   5.796   3.968  0.3872  0.2828  0.0657
 2085W        W 6136   2.838   3.911  10.960  0.1564 -0.1959 -0.3063
 2086W        W 6137   2.961   0.600   2.907 -0.1408  0.0913 -0.0527
 2087W        W 6138   2.586  10.083   0.654 -0.3245  0.2052 -0.0323
 2088W        W 6139   4.156   7.033   2.938 -0.2899 -0.1110 -0.2996
 2089W        W 6140   3.897   2.291   3.151  0.2975  0.1622  0.2133
 2090W        W 6141   6.251   4.995   0.960 -0.0217 -0.3413 -0.3913
 2091W        W 6142   8.616   6.964   2.377 -0.0058  0.1941  0.1383
 2092W        W 6143   9.763   7.836   2.353 -0.2992 -0.0518  0.0657
 2093W        W 6144   4.535   8.134   0.630 -0.0862  0.2018  0.0057
 2094W        W 6145   4.318   2.232  11.602 -0.0518  0.1990  0.1204
 2095W        W 6146   2.035   9.064  11.716 -0.0446  0.3044  0.1079
 2096W        W 6147   0.188   8.319   2.665 -0.5931  0.0798 -0.1706
 2097W        W 6148   3.830   0.237   2.183  0.0436 -0.0215 -0.2569
 2098W        W 6149   6.211   2.743  11.400 -0.1550  0.0300 -0.1579
 2099W        W 6150   6.697   7.976   1.537  0.3423 -0.1141  0.0512
 2100W        W 6151   1.887   4.628   2.623  0.1141 -0.3507 -0.3662
 2101W        W 6152   5.893   4.592   0.447  0.0041  0.1274 -0.1119
 2102W        W 6153   2.563   8.814   3.226 -0.2233  0.0080 -0.1312
 2103W        W 6154   7.646   9.843  10.942 -0.1937  0.1885  0.3964
 2104W        W 6155   3.875   6.705   4.178  0.2976 -0.3143  0.1207
 2105W        W 6156   1.302   2.267   9.925  0.2321 -0.0706 -0.1656
 2106W        W 6157   7.959   4.991   4.492 -0.3347 -0.2587  0.0690
 2107W        W 6158   1.867   0.104  10.351 -0.2330 -0.1426  0.1759
 2108W        W 6159   7.118   5.607   3.886 -0.4041 -0.0532 -0.2834
 2109W        W 6160   8.743   9.967   0.495 -0.2321  0.0954 -0.1049
 2110W        W 6161   7.926   6.656   3.563  0.0017  0.2022 -0.1544
 2111W        W 6162   6.247   8.905  11.973 -0.0508  0.2417 -0.0490
 2112W        W 6163   0.954   1.881   1.229 -0.2929  0.0954 -0.3008
 2113W        W 6164   4.234   6.523  13.859  0.0048 -0.3276 -0.3533
 2114W        W 6165   8.031   9.385   0.783 -0.2947  0.0448 -0.0881
 2115W        W 6166   6.037   7.355   3.293 -0.1183 -0.0177  0.0569
 2116W        W 6167   0.648   3.137   5.382 -0.1455  0.4324  0.3246
 2117W        W 6168   0.334   9.397  10.746 -0.0295 -0.4403 -0.0660
 2118W        W 6169   7.811   2.750   9.533  0.1203 -0.0253  0.5776
 2119W        W 6170   7.076   0.489  11.337  0.1630  0.0069  0.3160
 2120W        W 6171   3.116   8.686   2.977  0.0119  0.2799 -0.3352
 2121W        W 6172   8.026   1.388   3.351 -0.0902 -0.2295  0.0520
 2122W        W 6173   8.448   3.280   2.430 -0.1281 -0.0874 -0.0537
 2123W        W 6174   8.247   4.218   0.541 -0.1098  0.1961 -0.5007
 2124W        W 6175   2.125   0.507   2.707  0.2387 -0.0905 -0.0846
 2125W        W 6176   4.123   4.923   8.804  0.1524 -0.0892 -0.0713
 2126W        W 6177   2.113   4.959   4.808 -0.0486  0.2850  0.0041
 2127W        W 6178   3.548   2.741   0.686 -0.2461  0.1468  0.2781
 2128W        W 6179   6.228   9.976  13.672 -0.0365  0.2623 -0.0818
 2129W        W 6180   6.246   2.961  13.650  0.1429  0.1231  0.2455
 2130W        W 6181   9.284   6.846  13.667  0.1583 -0.1633 -0.0079
 2131W        W 6182   7.621   2.220   3.845  0.0703 -0.0369  0.1284
 2132W        W 6183   8.904   5.072   3.531  0.0242  0.0919 -0.1490
 2133W        W 6184   6.114   6.668  10.445  0.1270 -0.0376 -0.3200
 2134W        W 6185   7.893   2.637   2.508  0.1301  0.1072 -0.1235
 2135W        W 6186   7.625   9.311   2.002  0.1741 -0.0750  0.0418
 2136W        W 6187   3.370   5.100   2.963  0.0973  0.0084  0.0109
 2137W        W 6188   1.262   5.912   0.004  0.1575 -0.0691  0.1531
 2138W        W 6189   4.415   9.967   1.395 -0.0603  0.0924 -0.1531
 2139W        W 6190   6.399   9.367  11.962  0.2063 -0.3577  0.2689
 2140W        W 6191   6.993   7.465   9.723 -0.2459 -0.0849  0.1126
 2141W        W 6192   2.074   7.911  12.132  0.0660  0.3281 -0.5696
 2142W        W 6193   2.442   7.821  13.944 -0.0577  0.1872  0.0537
 2143W        W 6194   6.685   3.498  13.201  0.4084 -0.1203 -0.1053
 2144W        W 6195   6.371   4.153   2.321 -0.0219 -0.1083 -0.0511
 2145W        W 6196   7.900   9.344   2.393 -0.0881 -0.1824 -0.1567
 2146W        W 6197   9.210   3.343  10.108  0.0879 -0.3930  0.0489
 2147W        W 6198   4.515   8.903   1.556 -0.0753  0.3288  0.3379
 2148W        W 6199   8.847   2.573   0.011 -0.1074  0.1341  0.0534
 2149W        W 6200   6.469   1.210  11.452  0.1720 -0.0681  0.3598
 2150W        W 6201   0.014   0.185  13.749  0.1910  0.3559  0.0851
 2151W        W 6202   8.146   2.948   0.727  0.1520 -0.2400 -0.0383
 2152W        W 6203   1.715   1.036   9.577  0.0968  0.3640  0.1548
 2153W        W 6204   6.777   4.778  13.694  0.3164  0.0545  0.0141
 2154W        W 6205   6.117   1.502   3.023 -0.0949 -0.0108 -0.1469
 2155W        W 6206   1.694   1.205  12.115  0.2705  0.1274  0.0787
 2156W        W 6207   1.191   8.583  13.270  0.2887  0.1262  0.1281
 2157W        W 6208   3.597   3.730   3.799 -0.2475  0.0090 -0.3342
 2158W        W 6209   8.276   7.423  10.258  0.2895  0.2547 -0.1481
 2159W        W 6210   9.560   1.302   0.636  0.1749  0.1832  0.1416
 2160W        W 6211   3.595   7.998   0.984  0.2391  0.0083 -0.0073
 2161W        W 6212   1.561   9.345   0.863 -0.1571 -0.0229 -0.1320
 2162W        W 6213   9.173   2.785  10.391  0.3282  0.1661 -0.1371
 2163W        W 6214   3.985   8.965   0.057  0.0629  0.1465 -0.3492
 2164W        W 6215   9.723   5.707   3.774  0.2044  0.0834  0.3463
 2165W        W 6216   4.232   0.307   4.514  0.0438 -0.1461 -0.0251
 2166W        W 6217   3.074   5.026  12.821 -0.4057  0.0114 -0.0049
 2167W        W 6218   7.794   5.514   4.481  0.0581 -0.1614  0.2426
 2168W        W 6219   7.526   4.906  12.152  0.1518 -0.3229  0.0591
 2169W        W 6220   4.962   9.082   1.357  0.1804 -0.1752 -0.1898
 2170W        W 6221   1.642   6.948  12.478 -0.1260  0.4508 -0.0367
 2171W        W 6222   4.813   7.378   5.386  0.1914 -0.2005  0.3011
 2172W        W 6223   2.775   3.870  12.855  0.0911  0.0421  0.0845
 2173W        W 6224   0.800   4.769   1.033  0.1122  0.5446 -0.1095
 2174W        W 6225   5.426   9.309  11.808 -0.1152  0.1779  0.0866
 2175W        W 6226   3.609   9.634  12.016 -0.1001  0.2102  0.0416
 2176W        W 6227   5.695  10.059   1.089 -0.0563 -0.1067 -0.0455
 2177W        W 6228   3.621   2.879   9.683 -0.0561 -0.2616 -0.1135
 2178W        W 6229   3.203   3.876  11.252  0.0624  0.0636 -0.0464
 2179W        W 6230   1.584   2.539   3.839 -0.0179  0.1549  0.1249
 2180W        W 6231   7.658   7.069   1.022 -0.2411 -0.1217  0.2440
 2181W        W 6232   2.978   6.070   9.712 -0.0180 -0.2499 -0.0292
 2182W        W 6233   1.694   2.041  10.816  0.0003 -0.0485 -0.0472
 2183W        W 6234   2.029   6.286   3.980  0.2747  0.0833  0.2306
 2184W        W 6235   0.297   9.489   1.002 -0.0665  0.0366  0.0411
 2185W        W 6236   2.015   0.823  10.771 -0.0605 -0.2259 -0.0917
 2186W        W 6237   2.646   1.064   2.484  0.1968 -0.1005  0.0403
 2187W        W 6238   5.090   7.626  10.035 -0.1873  0.2224  0.0369
 2188W        W 6239   7.355   9.419  13.730  0.5462 -0.0888  0.0526
 2189W        W 6240   1.182  10.023   0.905  0.1664 -0.1111 -0.1727
 2190W        W 6241   2.293   0.017   2.484  0.0922  0.1313 -0.3111
 2191W        W 6242   2.876   0.574  13.509  0.4622 -0.0082 -0.1903
 2192W        W 6243   5.593   0.453  13.927 -0.1073 -0.0004 -0.2006
 2193W        W 6244   4.318   6.570   4.449  0.1730 -0.2697 -0.2770
 2194W        W 6245   1.797   5.901  10.595  0.1707  0.3763 -0.1383
 2195W        W 6246   9.368   6.208  12.396  0.0916  0.2324 -0.2862
 2196W        W 6247   3.037   0.498   1.932 -0.0559  0.3392 -0.2205
 2197W        W 6248   4.741   6.214  11.805  0.1921 -0.1479  0.1023
 2198W        W 6249   0.929   5.127  12.540  0.2369  0.1207  0.0501
 2199W        W 6250   9.566   9.218   0.131 -0.1011  0.2387 -0.2665
 2200W        W 6251   1.086   4.348   0.813  0.2008 -0.3081  0.0527
 2201W        W 6252   7.223   9.214  11.601 -0.0349 -0.2313  0.0298
 2202W        W 6253   2.992   5.286   0.704 -0.0007 -0.0331 -0.1360
 2203W        W 6254   4.587  10.122   2.183 -0.1860 -0.1253 -0.0345
 2204W        W 6255   3.362   7.795   0.590 -0.0223 -0.0663  0.0041
 2205W        W 6256   3.296   7.030   4.242  0.3134  0.5132  0.0904
 2206W        W 6257   9.892   2.721  10.599  0.0507  0.0026 -0.0281
 2207W        W 6258   7.229   0.279   4.257  0.1679 -0.0460 -0.1274
 2208W        W 6259   9.185   9.741  11.369  0.1857  0.0247 -0.0073
 2209W        W 6260   5.532   2.358   3.354 -0.0485  0.1787  0.1338
 2210W        W 6261   3.937   3.948  10.939  0.1451  0.0012  0.4020
 2211W        W 6262   8.950   9.000   9.693 -0.0916 -0.2846  0.2934
 2212W        W 6263   6.971   6.530   4.323  0.1802 -0.1457  0.1727
 2213W        W 6264   8.034   8.516   9.545 -0.0158 -0.0697  0.2036
 2214W        W 6265   7.006   5.266   4.606 -0.3647 -0.0469 -0.1975
 2215W        W 6266   5.428   7.596   4.477  0.1004  0.2743  0.2707
 2216W        W 6267   4.321   9.710   9.024  0.0615  0.2262 -0.0401
 2217W        W 6268   0.154   2.571  12.141 -0.2000 -0.0201  0.0566
 2218W        W 6269   7.398   7.582  11.910  0.2319  0.1861  0.5220
 2219W        W 6270   0.590   1.344  10.430  0.1174  0.2591 -0.0700
 2220W        W 6271   7.333   7.970  11.653 -0.2179  0.1145  0.2715
 2221W        W 6272   0.454   7.981  12.364 -0.1767  0.1345  0.0706
 2222W        W 6273   7.924   7.554  13.585 -0.0559 -0.1073  0.0757
 2223W        W 6274   3.600   3.135  10.632 -0.2485 -0.1039  0.0165
 2224W        W 6275   2.323   9.966   1.074 -0.2867 -0.1318 -0.2597
 2225W        W 6276   5.444   5.843   0.579 -0.1648 -0.1479 -0.0918
 2226W        W 6277   0.978   5.314  12.017  0.1610 -0.0116  0.0574
 2227W        W 6278   0.164   6.915   3.684 -0.1972  0.0509  0.0121
 2228W        W 6279   8.502   6.188  11.610  0.2625 -0.1661  0.2111
 2229W        W 6280   2.357   6.887   1.598 -0.0427 -0.1790  0.1012
 2230W        W 6281   7.461   5.465   1.554  0.1772  0.2745  0.2067
 2231W        W 6282   4.371   8.379   5.885  0.1367  0.0754 -0.1639
 2232W        W 6283   3.369   9.041   3.235 -0.0982  0.1181  0.0522
 2233W        W 6284   4.078   3.244   4.570  0.0942 -0.1517 -0.4680
 2234W        W 6285   4.552   2.213  10.698  0.1280  0.0762 -0.0238
 2235W        W 6286   1.991   0.987   1.852  0.0677 -0.4426 -0.3231
 2236W        W 6287   9.653   5.791  10.808  0.4110  0.4057  0.1241
 2237W        W 6288   9.007   9.899  13.163 -0.3546  0.1238 -0.0992
 2238W        W 6289   2.172   5.027  12.812 -0.1073  0.0933  0.0102
 2239W        W 6290   2.670   2.797   0.906  0.1637  0.0473  0.0657
 2240W        W 6291   4.388   1.522  12.432  0.3760  0.1235  0.3270
 2241W        W 6292   6.290   3.479  12.445  0.2707  0.2564  0.0054
 2242W        W 6293   2.166   8.150  11.494 -0.2449  0.3169 -0.0510
 2243W        W 6294   3.366   8.358  11.819  0.0120 -0.3843  0.0884
 2244W        W 6295   6.979   1.042  12.825 -0.0390 -0.0444 -0.0691
 2245W        W 6296   9.967   4.192   4.879 -0.1896  0.2016 -0.2699
 2246W        W 6297   1.173   8.188   4.013 -0.0597  0.2147  0.0561
 2247W        W 6298   2.985   7.122   2.254 -0.2891  0.0506 -0.0711
 2248W        W 6299   7.981   4.382  13.997  0.0958 -0.2436  0.1850
 2249W        W 6300   4.024   2.572  13.938 -0.1999 -0.3575 -0.0709
 2250W        W 6301   4.370   1.041   1.987 -0.0852 -0.0495  0.1251
 2251W        W 6302   4.267   7.081  11.808  0.1549 -0.0047  0.4128
 2252W        W 6303   3.065   2.192   4.283 -0.0189  0.0627  0.2348
 2253W        W 6304   6.808   3.287   1.397 -0.0234  0.1262  0.1354
 2254W        W 6305   8.694   8.417   0.152  0.0715  0.0610 -0.0243
 2255W        W 6306   3.787   0.355   9.928 -0.0428  0.2902 -0.0243
 2256W        W 6307   5.697   1.277  13.839  0.0891  0.1263  0.2990
 2257W        W 6308   7.789   7.437   9.752 -0.4061 -0.2181 -0.0749
 2258W        W 6309   2.720   5.346   4.872  0.2685 -0.0683 -0.1324
 2259W        W 6310   8.270   1.455   1.714 -0.1252 -0.0151  0.1736
 2260W        W 6311   5.184   4.419  11.706 -0.4307 -0.1113  0.0860
 2261W        W 6312   3.544   0.866   0.866 -0.1598  0.0912 -0.0521
 2262W        W 6313   6.368   3.947   2.865 -0.1660 -0.0511  0.4588
 2263W        W 6314   4.783   3.152   3.846  0.1549 -0.2368 -0.1610
 2264W        W 6315   7.008   8.625   2.330  0.0998  0.1988 -0.2563
 2265W        W 6316   7.383   5.270  11.503 -0.0168 -0.1160  0.0605
 2266W        W 6317   2.483   6.028   9.285 -0.2801 -0.0411  0.0989
 2267W        W 6318   0.041   4.133  11.307  0.0652  0.4046 -0.1467
 2268W        W 6319   7.378   4.207   2.156  0.2597  0.4914 -0.1081
 2269W        W 6320   0.891   3.877   5.323  0.0449 -0.0747 -0.1935
 2270W        W 6321   2.238   4.791   5.739 -0.1012 -0.0081  0.3855
 2271W        W 6322   3.102   2.630   4.063  0.1554 -0.3313  0.1612
 2272W        W 6323   3.934   8.496   3.425  0.1552 -0.2735  0.0681
 2273W        W 6324   9.130   8.389  10.390 -0.2235  0.0228  0.1493
 2274W        W 6325   8.951   0.276   0.185  0.0895  0.0854 -0.2978
 2275W        W 6326   8.161   4.968   9.952  0.2980  0.0593  0.0167
 2276W        W 6327   5.670   0.394  13.467 -0.4127  0.0354  0.0961
 2277W        W 6328   2.756   9.750  10.974 -0.0555 -0.1090  0.2542
 2278W        W 6329   2.997   1.171  12.277 -0.1926 -0.0535 -0.1189
 2279W        W 6330   0.065   0.131   0.771 -0.1202 -0.2209  0.1813
 2280W        W 6331  10.147   4.935   0.445  0.0700  0.0015 -0.2018
 2281W        W 6332   3.163   6.186   3.834  0.0964  0.0866  0.0039
 2282W        W 6333   2.094   0.159  12.118  0.0771  0.1070  0.1665
 2283W        W 6334   0.881   2.933  12.817  0.0612  0.2254  0.0556
 2284W        W 6335   0.597   1.431  13.136  0.2677 -0.2710 -0.2218
 2285W        W 6336   8.556   1.676   3.576  0.2673 -0.1264  0.0100
 2286W        W 6337   9.919   0.664  12.826  0.2111  0.0496 -0.0139
 2287W        W 6338  10.176   5.268   1.719 -0.2648  0.3370 -0.1563
 2288W        W 6339   8.367   3.864   2.927  0.1536 -0.0270  0.1350
 2289W        W 6340   3.727   3.181  10.081 -0.2143 -0.4656 -0.2360
 2290W        W 6341   4.970   3.305   0.767  0.1437  0.1093  0.0032
 2291W        W 6342   0.821   5.948  12.675 -0.1739  0.2765  0.2836
 2292W        W 6343   3.037   8.153   4.208  0.2760 -0.2536  0.1422
 2293W        W 6344   6.986   8.566   1.761 -0.0069 -0.1683  0.0473
 2294W        W 6345   5.747   8.055   3.595  0.1357 -0.3634  0.0814
 2295W        W 6346   2.792   3.131   3.314 -0.1066  0.0151 -0.3436
 2296W        W 6347   6.764   1.658   2.936 -0.0922  0.4528  0.3859
 2297W        W 6348   3.720   5.344   4.775 -0.0876  0.4764  0.2616
 2298W        W 6349   4.462   8.537   2.367  0.1281  0.1287 -0.5323
 2299W        W 6350   1.517   4.476   1.090 -0.0586  0.0293  0.3110
 2300W        W 6351   9.322   0.118  13.819 -0.1073  0.0229 -0.3501
 2301W        W 6352   4.399   7.337   3.425  0.0629 -0.0678  0.3926
 2302W        W 6353   2.278   4.432   4.742 -0.1382  0.2163 -0.1585
 2303W        W 6354   8.562   9.212  12.462 -0.1130  0.1229  0.2580
 2304W        W 6355   3.834   2.369   0.340 -0.2512 -0.2001 -0.3462
 2305W        W 6356   5.884   2.675  13.290  0.3718  0.0677 -0.3094
 2306W        W 6357   0.764   3.335  10.681  0.1802 -0.0939 -0.1738
 2307W        W 6358   1.555   7.594  10.241 -0.0442 -0.1076  0.0426
 2308W        W 6359   4.786   4.957   4.422 -0.2749  0.1202  0.0453
 2309W        W 6360   5.906   2.013   9.559 -0.1016 -0.0726  0.3132
 2310W        W 6361   0.921   1.221   0.490  0.0286 -0.2327 -0.2023
 2311W        W 6362   8.768  10.010   1.485  0.0128  0.1746  0.1164
 2312W        W 6363   8.896   3.538   1.678 -0.1339 -0.0028  0.0112
 2313W        W 6364   3.700   2.596   4.286 -0.2747  0.0905  0.2769
 2314W        W 6365   4.331   3.349   9.977  0.1861 -0.0329  0.0726
 2315W        W 6366   0.525   2.700  11.257 -0.1787  0.0524  0.0526
 2316W        W 6367   4.935   2.328  10.102  0.0100  0.0133 -0.2205
 2317W        W 6368   0.474   4.402   0.270  0.3021 -0.0507  0.0744
 2318W        W 6369   9.334   5.838   2.423  0.1400  0.1701 -0.0417
 2319W        W 6370   1.003   6.322  12.378  0.0385 -0.0019  0.0268
 2320W        W 6371   1.184   5.999   4.367 -0.0063  0.1620 -0.1705
 2321W        W 6372   7.318   3.680  10.588 -0.0015  0.2431 -0.0336
 2322W        W 6373   4.217   2.725   0.420  0.0895  0.2465 -0.2772
 2323W        W 6374   2.475   7.098   4.696  0.3277  0.2434 -0.0022
 2324W        W 6375   8.597   2.246   5.403  0.0203  0.0652  0.1232
 2325W        W 6376   4.689   1.891   8.992  0.2771  0.1008  0.3294
 2326W        W 6377   9.487   6.434  10.463 -0.0104  0.3094  0.0444
 2327W        W 6378   3.902   6.840   0.523  0.2195  0.0821 -0.0638
 2328W        W 6379   1.949   9.667  12.302 -0.1207 -0.3182 -0.0416
 2329W        W 6380   8.694   7.320  11.792  0.0480 -0.0498 -0.2366
 2330W        W 6381   1.461   0.719   3.941 -0.1927 -0.0444  0.2605
 2331W        W 6382   5.731   6.275  11.918  0.1816  0.1293  0.2215
 2332W        W 6383   9.871   6.336  12.591 -0.0854 -0.0359  0.1797
 2333W        W 6384   5.716   5.433  13.486  0.1750  0.2224  0.0786
 2334W        W 6385   8.207   5.769   0.316  0.4794  0.0999  0.4086
 2335W        W 6386   3.279   1.303  11.389 -0.1143  0.0364  0.1481
 2336W        W 6387   5.785   6.832  13.081  0.0480  0.1008  0.1287
 2337W        W 6388   7.331   6.490   9.628  0.1881  0.0604  0.0600
 2338W        W 6389   3.632   6.674   4.946  0.2017 -0.1820  0.0193
 2339W        W 6390   1.621   5.510  10.920  0.3590  0.1470 -0.3985
 2340W        W 6391   1.570   5.465   4.165 -0.1079 -0.1664 -0.1414
 2341W        W 6392   2.599   4.541  11.600 -0.0133 -0.1315 -0.1653
 2342W        W 6393   0.229   0.998   1.948 -0.1779 -0.1083  0.0090
 2343W        W 6394   8.604   5.321  13.166  0.0580 -0.1666 -0.0808
 2344W        W 6395   4.447   2.301   0.537  0.1727 -0.3999  0.0709
 2345W        W 6396   5.159   4.525   4.412 -0.0713 -0.1669  0.1557
 2346W        W 6397   9.921   3.664   9.106 -0.1054 -0.2277  0.0825
 2347W        W 6398   3.042   8.755  10.042  0.0255  0.0748 -0.0506
 2348W        W 6399   3.994   1.472   9.899 -0.2286 -0.1704  0.1904
 2349W        W 6400   7.263   4.957  13.161  0.1501 -0.0861 -0.0070
 2350W        W 6401   7.671   6.881   9.936 -0.0752  0.2457 -0.1651
 2351W        W 6402   1.566   5.921   3.922 -0.1052 -0.0543 -0.0831
 2352W        W 6403   8.208   9.604  11.678 -0.0032  0.0649 -0.0885
 2353W        W 6404   4.918   1.206  13.716 -0.1726  0.1265  0.1007
 2354W        W 6405   6.109   8.532  11.325 -0.0114 -0.3251  0.1334
 2355W        W 6406   6.250   2.431  12.580  0.0087  0.1441  0.0959
 2356W        W 6407   9.421   1.213  12.909  0.2360 -0.0853  0.2865
 2357W        W 6408   1.719   1.961   9.797  0.3681 -0.1476 -0.1755
 2358W        W 6409   8.438   5.030   4.276 -0.0684  0.1376 -0.0389
 2359W        W 6410   2.578   5.847  13.994  0.4523  0.2056  0.1138
 2360W        W 6411   8.199   1.169   1.256  0.0982 -0.2708 -0.1507
 2361W        W 6412   5.618   8.983   0.690  0.1409 -0.1155 -0.1609
 2362W        W 6413   9.136   1.594   0.598  0.1135  0.3067 -0.0793
 2363W        W 6414   8.371   8.828  13.931 -0.1185  0.0278 -0.1229
 2364W        W 6415   9.103   6.470  12.048 -0.0894 -0.2962 -0.1770
 2365W        W 6416   6.430   6.723  11.370  0.1365  0.1494  0.1531
 2366W        W 6417   1.655   0.223   3.807  0.1463  0.2835 -0.1099
 2367W        W 6418   8.246   6.898  12.009  0.2006  0.1932 -0.2457
 2368W        W 6419   6.423   2.917  12.438  0.3922  0.0726 -0.2076
 2369W        W 6420   5.790   3.273   3.228  0.0522  0.4327  0.0121
 2370W        W 6421   3.519   1.404   2.392 -0.1637 -0.1472  0.1045
 2371W        W 6422   8.481   4.448  10.610  0.1509  0.2110  0.2427
 2372W        W 6423   7.593   4.207   9.965 -0.0835  0.1522  0.3242
 2373W        W 6424   5.161   9.654   5.635  0.0335 -0.0308  0.1832
 2374W        W 6425   8.979   9.463   3.905  0.2208  0.4398  0.1747
 2375W        W 6426   1.896   2.711   1.334  0.1360  0.1509  0.3064
 2376W        W 6427   5.358   1.161   2.693  0.0161  0.0545 -0.0222
 2377W        W 6428  10.144   5.603   0.343 -0.1826  0.1495 -0.4255
 2378W        W 6429   2.219   5.997   9.810  0.2782 -0.1717 -0.1782
 2379W        W 6430   7.100   7.029   0.340 -0.1628  0.0757  0.2805
 2380W        W 6431   9.058   5.703   4.206 -0.0669 -0.0346 -0.0728
 2381W        W 6432   4.287   8.255   3.709 -0.1260  0.0176  0.3366
 2382W        W 6433   6.803   3.606  12.325 -0.1419 -0.1022  0.0226
 2383W        W 6434   3.557   7.288  13.135 -0.2275 -0.0040 -0.0510
 2384W        W 6435   3.138   3.040   5.519 -0.1517  0.2450  0.3661
 2385W        W 6436   3.261   4.533   4.665  0.4201  0.0779 -0.2101
 2386W        W 6437   6.191   5.359   2.231 -0.2473 -0.1772 -0.4213
 2387W        W 6438   8.673   2.635   2.979  0.0272  0.0434  0.0971
 2388W        W 6439   8.065   6.113  13.431  0.1153  0.2534 -0.3612
 2389W        W 6440   1.859   2.602  12.734 -0.2207 -0.2618 -0.0859
 2390W        W 6441   7.221   4.809  11.296  0.1461  0.1475 -0.0633
 2391W        W 6442   4.521   3.040   2.995 -0.3445  0.2882  0.0390
 2392W        W 6443   6.384   0.432   9.768  0.1908 -0.0532  0.0898
 2393W        W 6444   4.899   5.615   9.657 -0.4093  0.3718  0.1324
 2394W        W 6445   0.984   0.408   0.652 -0.2560  0.0302 -0.0832
 2395W        W 6446   6.261   2.356  11.680 -0.0543  0.2507  0.0119
 2396W        W 6447   4.516   6.460  13.015 -0.0804  0.1168 -0.2974
 2397W        W 6448  10.022   3.665  12.175  0.3867  0.1211 -0.0478
 2398W        W 6449   7.707   4.715   3.694  0.1884 -0.0449 -0.0956
 2399W        W 6450   2.456   8.670   1.402  0.1760  0.1909  0.2031
 2400W        W 6451   8.044   3.228  13.010  0.1440 -0.3811  0.1724
 2401W        W 6452   7.932   5.754   3.919  0.1717 -0.1767 -0.1343
 2402W        W 6453   1.613   1.985   3.384  0.4718 -0.0531 -0.1787
 2403W        W 6454   5.450   5.941   4.099  0.4107  0.1047  0.4188
 2404W        W 6455   6.768   1.220   2.166  0.2539 -0.0458 -0.0293
 2405W        W 6456   4.500   6.191  13.485  0.1617  0.1409  0.1752
 2406W        W 6457   6.695   2.657   1.629 -0.2232  0.2524  0.1641
 2407W        W 6458   2.303   5.001  10.834 -0.1109 -0.0267  0.2320
 2408W        W 6459   1.438   0.728  12.399  0.1274  0.0334  0.0245
 2409W        W 6460   8.910   2.652   5.260 -0.0404 -0.2390 -0.3135
 2410W        W 6461   0.074   9.847   0.524  0.1563 -0.0269 -0.0541
 2411W        W 6462   8.824   5.712  12.609  0.0198 -0.0079 -0.3334
 2412W        W 6463   7.217   2.759  10.797 -0.2215  0.0466 -0.0859
 2413W        W 6464   6.459   8.371   1.774 -0.1406 -0.1920 -0.1020
 2414W        W 6465   5.159   0.457   2.462  0.1180  0.2266 -0.1846
 2415W        W 6466   8.914   7.727   2.606 -0.0702 -0.0804 -0.1239
 2416W        W 6467   9.874   0.571   3.788  0.2417  0.0624  0.0685
 2417W        W 6468   4.561   8.314   4.239 -0.0737  0.1012  0.0945
 2418W        W 6469   8.042  10.067   2.501  0.0846 -0.0512 -0.2687
 2419W        W 6470   9.091   1.056   2.705  0.1518  0.1666  0.0950
 2420W        W 6471   2.561   5.395  10.057  0.1159 -0.2347 -0.2992
 2421W        W 6472   1.817   7.430  10.707  0.3502  0.0114  0.0758
 2422W        W 6473   1.128   7.031   3.279 -0.0549 -0.1815 -0.0178
 2423W        W 6474   7.994   3.531   1.559  0.1557  0.0271 -0.1379
 2424W        W 6475   3.737   5.564  11.660  0.0520 -0.1482  0.0903
 2425W        W 6476   5.568   6.502   1.944  0.1240  0.1593 -0.0493
 2426W        W 6477   6.530   5.165   1.910  0.0105 -0.3489 -0.2150
 2427W        W 6478   8.053   2.927   3.905  0.0242 -0.0868 -0.0578
 2428W        W 6479   0.445   5.688   0.595 -0.0118  0.0623 -0.1345
 2429W        W 6480   0.104   6.357   0.903 -0.2164  0.1490  0.0415
 2430W        W 6481   4.154   2.339  10.086 -0.1665 -0.1847  0.1786
 2431W        W 6482   7.765   2.510  10.915  0.6737 -0.2011  0.0584
 2432W        W 6483   4.842   6.899  11.054 -0.2692 -0.2539  0.2868
 2433W        W 6484   8.737   7.811   9.816  0.0090 -0.0835 -0.0748
 2434W        W 6485   4.559   7.402   1.616  0.0715  0.0115 -0.5094
 2435W        W 6486   5.785   0.010  13.799  0.0772  0.1479 -0.3141
 2436W        W 6487   1.550   0.525  11.943 -0.0085  0.0461  0.2208
 2437W        W 6488   8.323   2.226  13.671  0.0424  0.0499  0.1318
 2438W        W 6489   9.948   0.109   3.123  0.3429  0.1213  0.0392
 2439W        W 6490   8.323   4.744   9.460  0.1698 -0.0180  0.0778
 2440W        W 6491   8.439   3.735   0.385 -0.2587 -0.1324 -0.0197
 2441W        W 6492   3.915  10.133   1.054  0.1351 -0.0765 -0.0130
 2442W        W 6493   4.162   4.666  12.467  0.2660  0.1288  0.1847
 2443W        W 6494   6.676   0.086   4.109 -0.0284 -0.1279 -0.0221
 2444W        W 6495   8.056   5.334   0.211  0.1176  0.0107 -0.1939
 2445W        W 6496   6.806   4.347   5.048 -0.1888  0.0158  0.0904
 2446W        W 6497   2.254   0.785   0.907 -0.5393  0.0466  0.1599
 2447W        W 6498   5.774  10.075   4.414  0.1618  0.2803  0.0174
 2448W        W 6499   2.149   7.619  10.314  0.0718  0.2738  0.0022
 2449W        W 6500   8.798   9.142   1.802  0.3101 -0.1135 -0.0633
 2450W        W 6501   4.250   6.923   1.490 -0.0884  0.1888 -0.5772
 2451W        W 6502   5.125   7.294   0.288 -0.0230 -0.1744  0.1357
 2452W        W 6503   7.708   6.670  11.775  0.2932 -0.0521  0.2642
 2453W        W 6504   0.589   2.587   4.173  0.0922  0.3142 -0.0338
 2454W        W 6505   7.656   7.751   1.657 -0.4486 -0.2401  0.0560
 2455W        W 6506   8.849   9.543   3.435 -0.1503 -0.3609 -0.0284
 2456W        W 6507   6.771   1.419  13.121  0.1106  0.0286  0.0127
 2457W        W 6508   6.569   0.848  10.727 -0.0842 -0.2477  0.0234
 2458W        W 6509   2.931   6.456  10.066 -0.2279  0.2495  0.3418
 2459W        W 6510   5.576   0.413   4.268 -0.0281 -0.2967  0.3371
 2460W        W 6511   6.509   8.580  11.626  0.4425 -0.1357  0.0425
 2461W        W 6512   0.328   9.963   2.497  0.1268  0.5049  0.2948
 2462W        W 6513   4.569   6.361  10.088 -0.0308  0.2891 -0.2674
 2463W        W 6514   7.129   2.645  13.868  0.0029 -0.3155 -0.1476
 2464W        W 6515   9.652   9.970  11.778  0.2667  0.1911 -0.1289
 2465W        W 6516   1.940   5.059   2.046 -0.2403  0.0746 -0.0102
 2466W        W 6517   3.527   1.369  10.189 -0.1752 -0.1157  0.1745
 2467W        W 6518   0.945   2.504   1.539 -0.1369 -0.2143  0.0044
 2468W        W 6519   1.511   9.763   3.400 -0.1322 -0.0512  0.3000
 2469W        W 6520   4.752   4.656   0.132  0.0390 -0.0753 -0.0668
 2470W        W 6521   3.954   3.007   0.760 -0.4111  0.0611 -0.0150
 2471W        W 6522   7.659   5.782  12.928  0.3438  0.1049 -0.0243
 2472W        W 6523   9.332   5.116  12.229 -0.0024  0.0218 -0.2499
 2473W        W 6524   0.671   8.219   2.871  0.1252  0.2164  0.1276
 2474W        W 6525   1.622   9.503   3.933  0.1130  0.0659 -0.1083
 2475W        W 6526   3.999   9.713   9.403  0.0099 -0.0311 -0.2292
 2476W        W 6527   4.478   8.134  13.727 -0.1288 -0.2747 -0.0376
 2477W        W 6528   5.161   8.062   1.983 -0.2581  0.0202 -0.0026
 2478W        W 6529   8.385   7.911  13.547  0.0799  0.0779 -0.5339
 2479W        W 6530   5.739   6.469  10.733  0.0356 -0.2686  0.0923
 2480W        W 6531   3.920   3.374  12.455  0.2190  0.1268  0.2740
 2481W        W 6532   1.605   2.267   2.188  0.0088 -0.0774 -0.0321
 2482W        W 6533   6.661   0.148  10.055  0.0908 -0.1416 -0.0600
 2483W        W 6534   7.800   3.649  10.771 -0.0215  0.0560 -0.1352
 2484W        W 6535   7.808   9.439   0.310  0.2061  0.1506 -0.0326
 2485W        W 6536   9.008   2.451  11.557 -0.0740 -0.2394 -0.1569
 2486W        W 6537   1.949   9.848   3.765  0.1918  0.2856 -0.1672
 2487W        W 6538   8.668   7.165  10.560 -0.3405  0.0726 -0.0162
 2488W        W 6539   1.104   1.304  11.186 -0.0891  0.2337  0.1259
 2489W        W 6540   6.630   0.404   0.038  0.0064 -0.1191 -0.1125
 2490W        W 6541   1.903   5.077  11.135 -0.0318 -0.0264  0.2790
 2491W        W 6542   8.459   0.501  10.174  0.1601  0.0793 -0.2713
 2492W        W 6543   1.012   8.230   1.186  0.2383  0.3503  0.0951
 2493W        W 6544   8.519   3.562  11.700 -0.1715  0.0895  0.4533
 2494W        W 6545   4.209  10.059   2.959 -0.1355 -0.0731 -0.1368
 2495W        W 6546   9.091   1.288  12.524  0.1080  0.1781  0.1878
 2496W        W 6547   8.594   5.188   1.137 -0.0320 -0.0439 -0.1316
 2497W        W 6548   4.180   6.377   0.839 -0.2398 -0.2914  0.2817
 2498W        W 6549  10.176   0.529  11.889  0.3350 -0.6105  0.3690
 2499W        W 6550   5.711   3.557   1.861  0.2033 -0.1444 -0.0153
 2500W        W 6551   5.294   8.090  11.523  0.0369 -0.4090  0.2915
 2501W        W 6552   5.124   9.481  10.028 -0.1306 -0.0300 -0.2023
 2502W        W 6553   3.282   8.760   0.662 -0.4282 -0.1678 -0.2034
 2503W        W 6554   7.876   5.105   1.522  0.0489 -0.2352 -0.1326
 2504W        W 6555   0.115   7.625  10.108 -0.1624 -0.1654 -0.3470
 2505W        W 6556   7.573   9.203  13.232 -0.0139  0.0952 -0.3567
 2506W        W 6557   4.464   9.363   1.728  0.3424 -0.0263 -0.1349
 2507W        W 6558   0.663   2.941   4.532  0.2256  0.0321 -0.0076
 2508W        W 6559   8.292   1.044  13.222  0.0278 -0.0932  0.0639
 2509W        W 6560   3.728   7.317   2.784 -0.1313  0.1090  0.0771
 2510W        W 6561   9.599   3.026  13.962  0.1593 -0.0432 -0.1203
 2511W        W 6562   8.502   1.632   9.995 -0.0186 -0.1196  0.0125
 2512W        W 6563   3.516   7.247  11.292  0.0678 -0.1780 -0.0001
 2513W        W 6564   0.300   8.092  13.377  0.4778 -0.1101 -0.1181
 2514W        W 6565   6.204   0.143   1.180 -0.2403  0.0045 -0.3872
 2515W        W 6566   1.618   7.326   0.760  0.0915  0.1258  0.0429
 2516W        W 6567   2.675   7.272  11.072 -0.0145  0.0681 -0.1473
 2517W        W 6568   1.926   5.356  10.639  0.1912  0.0758 -0.0720
 2518W        W 6569   8.809   5.381  13.645 -0.0687  0.1683 -0.0380
 2519W        W 6570   4.774   5.137   9.779 -0.3747  0.0051 -0.1448
 2520W        W 6571   4.009   8.932   3.178  0.2305  0.1312 -0.1116
 2521W        W 6572   8.669   9.433   2.164  0.0328  0.0064 -0.0910
 2522W        W 6573   1.920   4.840   0.465  0.3636 -0.0592 -0.1887
 2523W        W 6574   1.666   7.021   2.253  0.3063  0.0530  0.2085
 2524W        W 6575   0.601   9.435  12.673 -0.1072  0.0911 -0.1017
 2525W        W 6576   2.869   4.411   2.893  0.2224 -0.0406 -0.1607
 2526W        W 6577   7.295   7.494  10.399  0.0650  0.0917  0.4800
 2527W        W 6578   1.069   2.115  11.483 -0.1385  0.0318  0.0818
 2528W        W 6579   2.759   7.184  13.325  0.3113 -0.1699  0.1423
 2529W        W 6580   0.970   5.055  13.251  0.2388  0.0074 -0.0734
 2530W        W 6581   4.642   7.538   4.883 -0.1091  0.0896  0.0125
 2531W        W 6582   6.869   7.748   0.940  0.0413  0.4717  0.3635
 2532W        W 6583   2.085   4.484  12.900  0.1364 -0.0298 -0.1499
 2533W        W 6584   6.557   8.380   1.127 -0.1115  0.4839 -0.2129
 2534W        W 6585   1.059  10.108   1.937  0.2050  0.1244  0.1808
 2535W        W 6586   6.968   7.255   3.601 -0.1516  0.0018  0.0198
 2536W        W 6587   0.452   8.577  13.130  0.1216  0.0123  0.0184
 2537W        W 6588   3.496   8.290  13.113  0.1179  0.0916 -0.1341
 2538W        W 6589   9.208   1.194   1.566 -0.1124  0.0406 -0.2226
 2539W        W 6590   4.599   1.568   1.220  0.1294 -0.0446  0.1566
 2540W        W 6591   4.723   7.659  13.684  0.0615  0.0804 -0.0960
 2541W        W 6592   0.515   8.069   2.378 -0.2874 -0.1499  0.1021
 2542W        W 6593   7.198   8.738   2.864  0.0720  0.1577  0.1413
 2543W        W 6594   5.387   7.368   1.207 -0.2037 -0.0210  0.2715
 2544W        W 6595  10.045   6.535   3.390  0.1127  0.1325  0.0631
 2545W        W 6596   4.812   0.374   3.521  0.5281  0.2305 -0.0492
 2546W        W 6597   4.978  10.146  13.106  0.3276 -0.0199 -0.0074
 2547W        W 6598   7.871   7.860  10.184  0.2680  0.2603 -0.1991
 2548W        W 6599   7.154   4.208   8.580  0.0790 -0.1301  0.1791
 2549W        W 6600   5.483   3.009   9.621  0.1128 -0.2044 -0.3862
 2550W        W 6601   3.169   2.134  12.462 -0.2138 -0.0838 -0.1137
 2551W        W 6602   6.885   3.275   0.659  0.2906 -0.1200  0.1395
 2552W        W 6603   4.565   3.302   1.081  0.1565  0.0278  0.1726
 2553W        W 6604   2.950   7.492  11.976 -0.0343  0.1872 -0.0007
 2554W        W 6605   8.468   0.449   0.318 -0.0048 -0.0268  0.0753
 2555W        W 6606   7.626   9.223   3.026 -0.2069  0.0451  0.1666
 2556W        W 6607   0.352   2.837   4.975  0.1049  0.0401  0.1099
 2557W        W 6608   7.534   2.042   4.520  0.2530 -0.1206  0.1100
 2558W        W 6609   1.278   2.124   5.890 -0.2169 -0.0904 -0.0081
 2559W        W 6610   0.488   4.944  10.866  0.2732 -0.4157 -0.2288
 2560W        W 6611   8.922   4.177   3.426 -0.3402 -0.1770 -0.0803
 2561W        W 6612   5.318   5.507   3.811  0.3416 -0.1131 -0.0322
 2562W        W 6613   2.424   1.326   5.356  0.2693  0.2232  0.1161
 2563W        W 6614   1.318   7.663  11.310  0.3901 -0.1901  0.1472
 2564W        W 6615   6.095   2.648   3.996 -0.3806  0.1505  0.0902
 2565W        W 6616   0.335   5.705   1.834  0.1406  0.1473 -0.1764
 2566W        W 6617   9.757   5.306  11.464 -0.0854 -0.3235 -0.3817
 2567W        W 6618   9.569   8.903  12.473 -0.0993 -0.1443 -0.1882
 2568W        W 6619   0.145   1.772   0.590 -0.0045 -0.0793  0.1802
 2569W        W 6620   2.036   7.070   0.746 -0.0468  0.2072 -0.2368
 2570W        W 6621   3.298   0.642  10.786  0.0783 -0.3486 -0.0988
 2571W        W 6622   9.246   4.586   1.038  0.0582  0.1395 -0.1634
 2572W        W 6623   1.416   9.191   2.987 -0.0654  0.1637 -0.2306
 2573W        W 6624   9.691   4.464  12.521 -0.1226 -0.1309  0.0507
 2574W        W 6625   8.889   7.444  11.302 -0.2261  0.2388  0.0353
 2575W        W 6626   6.110   8.075   1.621 -0.1405  0.0423  0.2287
 2576W        W 6627   1.800   4.340  11.654 -0.1514 -0.0228 -0.2355
 2577W        W 6628   2.891   5.520  13.770 -0.1029 -0.0654 -0.0177
 2578W        W 6629   4.278   9.409   0.750  0.2388 -0.1303 -0.2429
 2579W        W 6630   4.844   3.615   1.471  0.0670 -0.0622  0.1268
 2580W        W 6631   5.090   7.349   0.789  0.0798 -0.1589  0.1186
 2581W        W 6632   1.302   0.547   1.030  0.0847  0.2482 -0.1665
 2582W        W 6633   4.495   1.847   4.984 -0.2876 -0.1678 -0.0181
 2583W        W 6634   0.631   2.458   0.541  0.1427  0.4128  0.2615
 2584W        W 6635   2.586   1.891   0.871  0.0171  0.0473  0.1396
 2585W        W 6636   6.507   9.516  13.403 -0.2305  0.1908 -0.2074
 2586W        W 6637   8.167   3.717   9.447 -0.0952  0.0036  0.2001
 2587W        W 6638   4.949   3.908   3.694  0.1272 -0.0893 -0.1316
 2588W        W 6639   5.566   4.309   2.762 -0.1747 -0.2850 -0.0456
 2589W        W 6640   2.483   2.387   1.115  0.0738 -0.1294 -0.0705
 2590W        W 6641   3.461   6.185   9.485 -0.0686  0.2116  0.2511
 2591W        W 6642   4.633   0.438   0.116  0.2582  0.0209 -0.0288
 2592W        W 6643   8.922   7.373   9.611 -0.1743 -0.0150  0.0457
 2593W        W 6644   4.425   5.259  12.354 -0.1335 -0.0570  0.2367
 2594W        W 6645   4.494   3.658   2.578  0.1182 -0.2868 -0.1787
 2595W        W 6646  10.095   1.768   2.287 -0.0746  0.1524 -0.0753
 2596W        W 6647   2.044   6.603  13.794 -0.0268  0.4795 -0.0617
 2597W        W 6648   7.533   4.529  12.482  0.2300  0.1349 -0.3385
 2598W        W 6649   1.161   2.322   0.784 -0.1829 -0.0382 -0.0168
 2599W        W 6650   9.873   0.163   1.187  0.0986 -0.3631  0.2124
 2600W        W 6651   8.662   0.572  12.090 -0.1227 -0.3033 -0.3280
 2601W        W 6652   4.864   7.609   3.263  0.0237 -0.1809  0.1432
 2602W        W 6653   7.457   5.710   2.478  0.0386  0.0667  0.0191
 2603W        W 6654   3.997   4.163  12.352 -0.0138 -0.2648 -0.0272
 2604W        W 6655   8.403   4.877   1.926  0.3012  0.0500 -0.0421
 2605W        W 6656   9.057   7.718   3.679 -0.0947 -0.0423 -0.4395
 2606W        W 6657   0.257   3.975   4.122 -0.1976  0.0187  0.1563
 2607W        W 6658   6.864   0.484   4.612 -0.0391  0.0570 -0.1274
 2608W        W 6659   2.314   9.013  10.620 -0.0793 -0.0931  0.1387
 2609W        W 6660   7.547   2.153  13.866 -0.0563  0.0141  0.0372
 2610W        W 6661   7.381   6.120  11.208 -0.0186 -0.1107  0.2999
 2611W        W 6662   6.714   1.848   5.096 -0.1205 -0.0017 -0.1098
 2612W        W 6663   3.348   4.853   4.281  0.1222 -0.2623 -0.0753
 2613W        W 6664   4.806   9.898  13.934  0.3489  0.1384  0.0963
 2614W        W 6665   4.833   9.365   2.788 -0.0963  0.1894 -0.4135
 2615W        W 6666  10.171   4.338   2.624 -0.1147  0.0082  0.2725
 2616W        W 6667   1.649   0.678   2.528 -0.1083 -0.0999 -0.0859
 2617W        W 6668   7.277   1.513  10.454 -0.0016  0.0186 -0.3981
 2618W        W 6669   0.538   6.208   2.222 -0.0177 -0.0154 -0.1690
 2619W        W 6670   9.222   8.614  12.732  0.1519  0.0028  0.2713
 2620W        W 6671   3.752   5.752   0.261 -0.3290 -0.0462  0.0470
 2621W        W 6672   8.445   2.031   4.545  0.0393 -0.0047 -0.4613
 2622W        W 6673   9.335   7.259  11.007  0.4108 -0.3013  0.0578
 2623W        W 6674   9.195   2.988  11.352 -0.1435 -0.1191 -0.0400
 2624W        W 6675   9.790   0.197  10.341 -0.0064  0.2112  0.0947
 2625W        W 6676   9.053   4.724  12.991  0.1213  0.0549 -0.1230
 2626W        W 6677   1.522   4.687   8.632  0.1492  0.0662  0.0916
 2627W        W 6678   4.311   3.081   0.031  0.0022  0.2830 -0.1391
 2628W        W 6679   4.961   9.794  10.881  0.0280  0.1766 -0.4466
 2629W        W 6680   5.217   0.084   3.366  0.1752  0.4160 -0.0010
 2630W        W 6681   5.490   1.004   2.136  0.0446 -0.1521  0.2153
 2631W        W 6682   8.303   4.621   4.560 -0.1713  0.1993  0.1000
 2632W        W 6683   3.414   8.392   3.465 -0.1698 -0.2026 -0.1085
 2633W        W 6684   2.703   8.181  10.644  0.0042 -0.5226 -0.2150
 2634W        W 6685   5.540   7.109   0.793 -0.0384 -0.1450  0.2084
 2635W        W 6686   1.045   4.748   3.691 -0.0237 -0.0402  0.2244
 2636W        W 6687   8.602   3.956   9.260  0.0038 -0.3024  0.0864
 2637W        W 6688   2.602   1.979   1.711 -0.3444 -0.0701 -0.0629
 2638W        W 6689   5.158   0.153  13.946 -0.3816 -0.0730  0.0176
 2639W        W 6690   0.449   0.465   0.688  0.1011  0.1654  0.0427
 2640W        W 6691   9.108   6.025  11.336  0.0942 -0.1894 -0.0925
 2641W        W 6692   2.248   5.001  10.263 -0.0519 -0.1620  0.0447
 2642W        W 6693   0.031   8.666  12.868  0.1940  0.0397 -0.2931
 2643W        W 6694   8.686   4.043   2.438  0.0661 -0.1264 -0.2089
 2644W        W 6695   2.419   4.741   2.171 -0.2942 -0.0374 -0.0831
 2645W        W 6696   1.746   2.592  10.791 -0.1788 -0.4086 -0.0741
 2646W        W 6697   9.186   1.044   2.170 -0.1934 -0.1592 -0.2811
 2647W        W 6698   9.458   1.735   0.998  0.0352 -0.2338 -0.0165
 2648W        W 6699   0.398   8.883  11.875  0.1734  0.1392  0.1885
 2649W        W 6700   6.169   7.362   0.267 -0.1502  0.1482  0.1472
 2650W        W 6701   2.097   0.478   4.090  0.0429 -0.1660 -0.2429
 2651W        W 6702   1.817   0.925  12.774  0.0508 -0.0786 -0.0553
 2652W        W 6703   7.161   6.568   9.149  0.0642  0.1545 -0.1254
 2653W        W 6704   9.300   4.472   0.099  0.0548  0.3155 -0.2637
 2654W        W 6705   4.148   2.383   2.208  0.1574 -0.3030  0.1311
 2655W        W 6706   9.592   2.642   4.777 -0.2438 -0.0734 -0.2296
 2656W        W 6707   5.794   1.777  13.391 -0.0937  0.1924  0.4570
 2657W        W 6708   5.623   3.757   3.296 -0.0944 -0.2778 -0.0436
 2658W        W 6709   5.162   1.184  12.179 -0.1417  0.1697  0.0253
 2659W        W 6710   5.349  10.034  13.495 -0.1730 -0.2763 -0.4085
 2660W        W 6711   5.729   6.241  11.357  0.2864  0.0676 -0.2205
 2661W        W 6712   3.956   6.937   1.923  0.2635 -0.2402  0.2020
 2662W        W 6713   8.918   5.904  13.668  0.1914 -0.0415  0.0311
 2663W        W 6714   1.406   9.275   3.473 -0.0560  0.0880  0.0545
 2664W        W 6715   2.893   3.396   2.779 -0.1367  0.2431 -0.0061
 2665W        W 6716   5.499   1.977   3.730  0.0388 -0.3009 -0.3121
 2666W        W 6717   8.523   8.254   3.178  0.1483 -0.0452 -0.3545
 2667W        W 6718   3.612   5.400   3.390 -0.1122 -0.0523 -0.1573
 2668W        W 6719   7.482   6.430  10.651 -0.2262 -0.0600  0.0309
 2669W        W 6720   8.265   7.142  11.543 -0.4130 -0.1472 -0.0695
 2670W        W 6721   1.997   9.356   9.151  0.2048  0.0796  0.1299
 2671W        W 6722   6.209   1.651  13.676 -0.0028  0.0124  0.0972
 2672W        W 6723   1.929   5.032   1.530 -0.2730 -0.1266 -0.3495
 2673W        W 6724   8.647   8.635  11.225 -0.1154 -0.1057  0.0889
 2674W        W 6725   5.724   4.710  11.344 -0.0756  0.0600 -0.1938
 2675W        W 6726   4.539   6.519   2.038 -0.2260 -0.1081 -0.3333
 2676W        W 6727   0.558   3.919   3.399  0.1695  0.1005 -0.1467
 2677W        W 6728   7.406   6.240  13.738  0.1162  0.2101 -0.1564
 2678W        W 6729   7.366   8.289   3.701  0.3545 -0.1612 -0.1255
 2679W        W 6730   0.752   5.987   4.865 -0.1051 -0.0600 -0.1527
 2680W        W 6731   3.986   7.709   1.217  0.2605 -0.3177  0.0848
 2681W        W 6732   7.737   7.996   0.968 -0.1807  0.3811 -0.0192
 2682W        W 6733   2.494   8.304  12.673 -0.3537  0.0786 -0.2425
 2683W        W 6734   4.707   4.561   4.095  0.1172  0.2076 -0.0547
 2684W        W 6735   1.491   8.567  13.730 -0.2694 -0.1029 -0.1813
 2685W        W 6736   8.612   4.074  10.280 -0.0277 -0.0538  0.3992
 2686W        W 6737   2.871   5.182   9.544 -0.1382 -0.1528 -0.0821
 2687W        W 6738   2.475   0.092  12.487 -0.0013  0.3921  0.2138
 2688W        W 6739   6.909   9.761  13.635 -0.0196 -0.0266 -0.0433
 2689W        W 6740   0.759   7.388   1.373 -0.1850 -0.1097  0.0105
 2690W        W 6741   2.659   0.603   4.268  0.1955 -0.1567  0.2096
 2691W        W 6742   4.168   0.528  13.899 -0.2155  0.0020 -0.1416
 2692W        W 6743   9.358   0.423   0.496 -0.0744  0.6058  0.0498
 2693W        W 6744   3.970   1.804   3.030  0.0037 -0.0092 -0.0944
 2694W        W 6745   2.184   4.601   5.222  0.2602  0.3112  0.1915
 2695W        W 6746   4.431   7.353   3.914 -0.2103 -0.2849 -0.2296
 2696W        W 6747   9.311   7.721  11.266 -0.0009  0.0299 -0.2966
 2697W        W 6748   3.499   6.236   4.993 -0.0971  0.3380 -0.3852
 2698W        W 6749   2.581   3.064  10.213 -0.0817 -0.4848  0.1890
 2699W        W 6750   9.365   3.213   4.048  0.1752 -0.0949  0.3909
 2700W        W 6751  10.165   4.272  13.473 -0.2614 -0.0808 -0.1843
 2701W        W 6752   3.708   0.948   1.299 -0.1105  0.1782 -0.1454
 2702W        W 6753   1.574   3.059   1.326 -0.1400 -0.1138 -0.0269
 2703W        W 6754   3.831   7.857   2.963 -0.3520  0.2041 -0.2858
 2704W        W 6755   9.773   3.742   5.157  0.1690  0.0258  0.0970
 2705W        W 6756  10.084   1.231  11.280 -0.4440  0.2886 -0.0796
 2706W        W 6757   2.920   1.472   5.403 -0.3462 -0.0606  0.0129
 2707W        W 6758   9.886   4.320   9.058  0.1654 -0.1964 -0.2456
 2708W        W 6759   7.283   4.540  13.515  0.0093 -0.1885  0.1432
 2709W        W 6760   9.156   5.233   4.258 -0.2130  0.2236  0.1552
 2710W        W 6761   1.190   4.293  12.225 -0.1686  0.1333 -0.0387
 2711W        W 6762   3.022   0.517  11.648  0.0358  0.1948 -0.1109
 2712W        W 6763   6.552   3.733   2.038 -0.2134  0.2962 -0.1508
 2713W        W 6764   4.309   6.232  12.047  0.0201  0.1568  0.1580
 2714W        W 6765   4.483   5.701  10.456  0.0638  0.1710  0.0324
 2715W        W 6766   9.289   0.122  13.340  0.2675  0.0422  0.3756
 2716W        W 6767   3.238   1.391  13.260 -0.1859 -0.0059 -0.1770
 2717W        W 6768   4.738   0.784   3.202 -0.3014  0.0957  0.2790
 2718W        W 6769   6.766   7.726  11.329  0.0164  0.3900 -0.1910
 2719W        W 6770   2.625   1.849   5.606 -0.1169  0.1484  0.0764
 2720W        W 6771   4.127   3.937   0.503  0.1313 -0.1244  0.4613
 2721W        W 6772   7.349   0.629   2.317  0.2119  0.0672  0.5432
 2722W        W 6773   0.983   9.292   1.761  0.2091 -0.0663  0.1530
 2723W        W 6774   6.389   4.534   3.722 -0.0132  0.0873  0.0166
 2724W        W 6775   5.706   8.693  10.394  0.0668 -0.2396  0.1701
 2725W        W 6776   6.578   4.326  13.578  0.3187  0.0254 -0.1123
 2726W        W 6777   1.078   8.905  13.619 -0.2651  0.0694 -0.2247
 2727W        W 6778   6.141   7.011  12.441 -0.1440  0.0085 -0.0073
 2728W        W 6779   5.806   4.683  12.549  0.0813  0.0665  0.0723
 2729W        W 6780   2.111   9.626  11.854 -0.0023 -0.0574  0.5104
 2730W        W 6781   3.225   9.155   3.824 -0.0296  0.2320 -0.1867
 2731W        W 6782   3.511   1.891   1.912 -0.0714 -0.0313  0.1367
 2732W        W 6783   0.226   2.664   3.783 -0.0269 -0.0760 -0.0421
 2733W        W 6784   2.270   7.365  12.638 -0.1578  0.2106 -0.3006
 2734W        W 6785   3.131   5.632  10.972 -0.0961  0.2298  0.0187
 2735W        W 6786   3.831   9.906   2.247 -0.1857 -0.1372  0.3522
 2736W        W 6787   3.690   9.015  13.525 -0.0455 -0.1735  0.0263
 2737W        W 6788   5.686   1.274  11.983  0.5097 -0.0742  0.2174
 2738W        W 6789   5.937   6.839   0.634 -0.0372  0.2283 -0.0349
 2739W        W 6790   9.445   6.719   3.446 -0.0934 -0.1305  0.0782
 2740W        W 6791   9.156   1.856  10.824  0.3110  0.0896  0.1874
 2741W        W 6792   2.546   5.448   9.189  0.1428  0.1992 -0.1836
 2742W        W 6793   9.949   2.929  12.010  0.1872  0.0738 -0.1867
 2743W        W 6794   7.203   8.055   4.979 -0.3968  0.0905 -0.1833
 2744W        W 6795   1.401   9.557  12.955 -0.1367  0.1207 -0.1364
 2745W        W 6796   3.980   9.936   0.511 -0.2604  0.5704  0.1523
 2746W        W 6797   1.438   4.955  13.477  0.3002  0.2818 -0.1198
 2747W        W 6798   0.420   4.912   4.548  0.0746 -0.0925 -0.1322
 2748W        W 6799   5.688   1.800  13.882 -0.2309  0.4822 -0.0909
 2749W        W 6800   8.775   9.804   9.881 -0.5592  0.0131 -0.1277
 2750W        W 6801   2.452   8.539  13.204  0.1349 -0.1343  0.0772
 2751W        W 6802   8.030   5.505   8.823 -0.0292 -0.0119  0.0438
 2752W        W 6803   1.992   8.364  13.454  0.2283  0.1407 -0.1969
 2753W        W 6804   2.334   9.969   4.032  0.0386 -0.1754 -0.3504
 2754W        W 6805   9.100   5.158   1.153 -0.1384 -0.2292 -0.0307
 2755W        W 6806   4.822   8.149   1.029 -0.0399  0.1198 -0.1543
 2756W        W 6807   7.572   9.045   2.539 -0.2994 -0.1934 -0.0291
 2757W        W 6808   0.064   2.807  12.564 -0.1140  0.2817 -0.0448
 2758W        W 6809   3.500   6.403   9.934 -0.3874  0.2010  0.3159
 2759W        W 6810   4.213   6.198   3.397  0.3590  0.3872 -0.2007
 2760W        W 6811   6.133   0.392   2.255 -0.2057 -0.0131  0.3089
 2761W        W 6812   3.063   7.539  10.829 -0.0828 -0.1694 -0.0623
 2762W        W 6813   3.418   0.732  12.802 -0.4789  0.0080  0.1046
 2763W        W 6814   2.443   3.647  11.574  0.0979  0.1521  0.1168
 2764W        W 6815   9.894   7.840  11.040 -0.1672  0.0211 -0.2270
 2765W        W 6816   9.468   2.289  13.204  0.0514 -0.1459 -0.3058
 2766W        W 6817   3.756   9.890  10.176 -0.3679 -0.1420 -0.1779
 2767W        W 6818   3.765   7.611  13.514  0.0369 -0.0705  0.0459
 2768W        W 6819   7.348   6.972  11.588 -0.0662 -0.1948 -0.3552
 2769W        W 6820   1.097   1.567  12.931  0.3745 -0.0870  0.1093
 2770W        W 6821   6.555   4.364  10.830  0.2567 -0.2341  0.0921
 2771W        W 6822   1.990   7.947  10.637 -0.0603  0.2502  0.1081
 2772W        W 6823   1.486   9.430   9.104  0.0329 -0.0439 -0.3604
 2773W        W 6824   6.280   0.436   2.895  0.1399 -0.0469  0.0871
 2774W        W 6825   8.200   4.753  11.502  0.0241  0.1526  0.1187
 2775W        W 6826   3.330   9.891  11.020 -0.0036  0.3504 -0.1531
 2776W        W 6827   6.483   0.489   4.295 -0.1523 -0.0744 -0.2930
 2777W        W 6828   2.001  10.040   4.650 -0.0066 -0.1997  0.3395
 2778W        W 6829   3.944   4.291   3.825 -0.0905  0.3474  0.0832
 2779W        W 6830   4.931   2.756   4.094 -0.0683  0.5694 -0.1732
 2780W        W 6831   3.963   8.364  11.071  0.3596  0.0379  0.3184
 2781W        W 6832   6.110   0.914   9.933  0.2626  0.0558 -0.0425
 2782W        W 6833   3.772   7.777  12.267  0.2520 -0.0224 -0.1266
 2783W        W 6834   1.335   7.334  10.819  0.1450  0.3384 -0.2224
 2784W        W 6835   6.835   1.170   1.504 -0.0710  0.0123 -0.0532
 2785W        W 6836   2.880   3.294   0.196 -0.0687 -0.0217 -0.0545
 2786W        W 6837   1.430   4.570   4.418  0.0322 -0.1092  0.0129
 2787W        W 6838   5.588   3.775   8.902 -0.0335  0.0845  0.1814
 2788W        W 6839   2.290   6.934  13.433 -0.0338  0.0533  0.0916
 2789W        W 6840   3.923   3.585  10.263 -0.0881 -0.2036  0.0930
 2790W        W 6841   2.896   4.464   3.469  0.2138  0.1434  0.1338
 2791W        W 6842   0.068   7.703  13.175 -0.1867  0.0758 -0.1553
 2792W        W 6843   3.128   2.023   1.545  0.1818 -0.1436  0.1331
 2793W        W 6844   1.812   9.347  13.135  0.1035  0.0625 -0.2101
 2794W        W 6845   6.059   4.520   2.592 -0.0055  0.2586 -0.3325
 2795W        W 6846   5.470   5.703  11.356 -0.1063  0.0024  0.2456
 2796W        W 6847   0.646   2.072   4.079  0.2220 -0.4718 -0.1201
 2797W        W 6848   2.012   1.537  11.922  0.1066  0.0694 -0.0765
 2798W        W 6849   4.566   3.554   3.639 -0.1088  0.0795 -0.2504
 2799W        W 6850   9.796   5.366  10.605 -0.0761  0.0282 -0.0109
 2800W        W 6851   2.832   6.140  11.711  0.2056 -0.1752 -0.1624
 2801W        W 6852   2.407   0.179   4.403  0.1026  0.2003 -0.0351
 2802W        W 6853   8.462   5.028  11.825 -0.0941 -0.0292 -0.0602
 2803W        W 6854   7.485   8.340  13.664  0.1353  0.2500 -0.1465
 2804W        W 6855   7.729   7.624   3.663 -0.0657 -0.1561  0.1119
 2805W        W 6856   2.717   2.093  11.647 -0.0229  0.1682 -0.0455
 2806W        W 6857   7.854   0.280   0.869 -0.1520  0.1637  0.1090
 2807W        W 6858   3.981   1.874  11.702  0.1102  0.2115  0.1141
 2808W        W 6859   7.803   0.954   2.563 -0.0598 -0.1465 -0.0440
 2809W        W 6860   6.550   1.151  12.537 -0.0605  0.0466 -0.2015
 2810W        W 6861   3.931   8.204   0.534  0.1032  0.2764 -0.0281
 2811W        W 6862   6.878   7.349  11.932  0.1469  0.1626  0.1498
 2812W        W 6863   4.169   6.082  12.837 -0.0131 -0.0987 -0.1488
 2813W        W 6864   5.452   5.334  12.128  0.0900 -0.0225 -0.0535
 2814W        W 6865   4.557   7.132   0.702 -0.1243 -0.1931 -0.2359
 2815W        W 6866   5.246   4.471  12.567 -0.2149 -0.0647 -0.0716
 2816W        W 6867   0.817   5.889  10.711  0.0176  0.3389 -0.4200
 2817W        W 6868   0.608   2.310   9.347  0.2328 -0.0507 -0.3081
 2818W        W 6869   5.357   9.322   2.647  0.0970 -0.1023  0.0084
 2819W        W 6870   0.387   6.110   3.128  0.1451 -0.0944 -0.1552
 2820W        W 6871   4.875   6.604   2.446 -0.0005  0.0799 -0.0832
 2821W        W 6872   7.080   1.359  13.611 -0.0767 -0.1604  0.2882
 2822W        W 6873   4.485   1.297  13.921  0.2822 -0.0411 -0.0089
 2823W        W 6874   2.964   0.548   9.240 -0.3393 -0.1327 -0.0646
 2824W        W 6875   0.714   2.370  13.746  0.2652  0.0652 -0.0124
 2825W        W 6876   2.833   0.615   1.300  0.3160  0.4203  0.1324
 2826W        W 6877   0.163   7.538   0.528 -0.1159  0.0333 -0.1991
 2827W        W 6878   2.064   7.066   3.593 -0.1395 -0.1335  0.1510
 2828W        W 6879   2.794   7.351  13.791 -0.2529  0.2181  0.0646
 2829W        W 6880   6.086   5.864   2.979 -0.1671  0.3416  0.1706
 2830W        W 6881   8.075   8.667  10.441  0.1797 -0.3529  0.0840
 2831W        W 6882   4.807   8.170   2.372 -0.1826 -0.2714  0.3391
 2832W        W 6883   9.394   5.982  13.257  0.0237  0.2683  0.0773
 2833W        W 6884   4.425   1.982  10.267  0.3056 -0.1706  0.0200
 2834W        W 6885   7.307   2.790  12.907  0.1748 -0.3419 -0.0992
 2835W        W 6886   9.534   2.196  13.686  0.2245  0.1801  0.2015
 2836W        W 6887   4.850   0.990  10.521  0.3572 -0.1254  0.2406
 2837W        W 6888   2.519   0.561   3.679  0.0479 -0.2257  0.1317
 2838W        W 6889   4.594   0.235   3.982 -0.0970  0.2398 -0.2056
 2839W        W 6890   5.735   1.413   9.595 -0.3934  0.0054  0.1120
 2840W        W 6891   9.945   1.432  13.588  0.1999  0.1790 -0.0073
 2841W        W 6892   9.279   4.560  13.472 -0.1826 -0.1474  0.0366
 2842W        W 6893   0.039   6.097   1.958 -0.1120  0.2341 -0.1955
 2843W        W 6894   7.842   2.029   0.895  0.1994  0.1400 -0.1115
 2844W        W 6895   7.539   9.570   2.637  0.4785  0.0953 -0.0986
 2845W        W 6896   9.455   4.989  12.824  0.0754  0.0939 -0.1800
 2846W        W 6897   0.426   6.559   3.908  0.1567  0.0090  0.3127
 2847W        W 6898   4.273   9.499   5.028 -0.1852  0.2585 -0.1078
 2848W        W 6899   7.789  10.035  13.150  0.1128 -0.0664  0.2932
 2849W        W 6900   7.977   3.841   3.722  0.0771  0.2241 -0.1548
 2850W        W 6901   3.083   6.939   1.744  0.2390  0.0555  0.0016
 2851W        W 6902   7.992   2.277   0.045 -0.3944 -0.0693  0.0940
 2852W        W 6903   0.351   6.828   1.816  0.1666  0.0568 -0.1088
 2853W        W 6904   6.032   8.102   0.312 -0.2492 -0.0316 -0.0428
 2854W        W 6905   3.839   1.111  11.834 -0.0523  0.1511 -0.2439
 2855W        W 6906   6.362   1.332   4.545  0.0662  0.1196 -0.2258
 2856W        W 6907   0.749   6.551  11.540 -0.1103  0.0828 -0.1973
 2857W        W 6908   4.192   3.244   2.622 -0.3035  0.1665 -0.1383
 2858W        W 6909   0.534   6.331  11.049  0.0328 -0.1478  0.3451
 2859W        W 6910   8.086   2.667  11.736  0.0362 -0.1672 -0.2033
 2860W        W 6911   6.824   6.149  13.565 -0.2325  0.2089  0.1783
 2861W        W 6912   6.337   4.946   9.997  0.1360 -0.0386  0.2109
 2862W        W 6913   0.986   0.491   3.504  0.0893  0.1634 -0.0997
 2863W        W 6914   0.183   5.227   3.591 -0.3976 -0.1315 -0.1226
 2864W        W 6915   7.229   1.331   1.763  0.0166 -0.2195 -0.1531
 2865W        W 6916  10.082   1.350   0.558  0.0663  0.1926 -0.4043
 2866W        W 6917   8.768   4.028  10.763 -0.3301  0.0457 -0.0238
 2867W        W 6918   6.596   6.397   2.223 -0.0605  0.0714  0.1687
 2868W        W 6919   6.843   4.263   0.731 -0.0684 -0.2911  0.1803
 2869W        W 6920   0.556   0.557  13.324 -0.3902  0.0031 -0.0419
 2870W        W 6921   7.729   9.140  12.182 -0.0181 -0.0146 -0.1826
 2871W        W 6922   1.352   8.220  11.148 -0.0662  0.0553  0.1172
 2872W        W 6923   6.399   7.643   9.891 -0.1954  0.1099 -0.1373
 2873W        W 6924   6.076   4.195   4.438  0.3526 -0.2604  0.0139
 2874W        W 6925   5.522   4.649   3.857  0.0807  0.1487 -0.0332
 2875W        W 6926   7.048   4.473   9.694 -0.0043 -0.0247 -0.2806
 2876W        W 6927   6.422   0.623   9.283 -0.1876  0.1340 -0.2144
 2877W        W 6928   4.892   3.685  13.346  0.1398  0.1029  0.1858
 2878W        W 6929   5.459   1.075  11.262  0.0417 -0.0629 -0.0940
 2879W        W 6930   0.314   3.215   2.594  0.0131  0.1494 -0.3445
 2880W        W 6931   0.199   5.130  13.174  0.1500 -0.0387 -0.0664
 2881W        W 6932   1.537   9.035   1.287  0.0730 -0.0607  0.0081
 2882W        W 6933   3.882   4.652   9.813 -0.3232 -0.1208  0.2072
 2883W        W 6934   6.596   3.140  11.527  0.2224  0.3352  0.2289
 2884W        W 6935   4.596   6.259   9.627 -0.0601  0.0291  0.0830
 2885W        W 6936   1.192   2.054  12.990  0.2614 -0.0775 -0.1967
 2886W        W 6937   9.427   8.850  13.751 -0.0776 -0.0390  0.1229
 2887W        W 6938   5.486   9.080   4.540  0.0007 -0.0549  0.0535
 2888W        W 6939   2.290   1.135   1.445  0.0306  0.1170 -0.1676
 2889W        W 6940   7.578   3.565  13.887  0.1525  0.1610  0.1608
 2890W        W 6941   7.378   7.134  12.044 -0.2956 -0.2141 -0.0243
 2891W        W 6942   4.684   0.709   1.752  0.2158  0.0794  0.1319
 2892W        W 6943   4.164   9.256   9.250  0.0960  0.3823 -0.0710
 2893W        W 6944   8.181   3.577  13.889 -0.1407  0.0309 -0.1934
 2894W        W 6945   0.728   3.973   2.565 -0.2716 -0.0706 -0.3297
 2895W        W 6946   7.329   1.786   0.864 -0.0023 -0.0993 -0.7095
 2896W        W 6947   3.444   0.289   0.082  0.0375 -0.2505  0.0049
 2897W        W 6948   0.139   2.153  11.625  0.2376 -0.0235  0.0558
 2898W        W 6949   9.598   3.992  10.690 -0.2681  0.1905 -0.0219
 2899W        W 6950   9.364   7.561   1.481 -0.0587  0.1324  0.1323
 2900W        W 6951   9.933   1.524  12.037 -0.1037 -0.1227  0.0709
 2901W        W 6952   6.158   3.012   4.756 -0.0324 -0.4758  0.0004
 2902W        W 6953   7.205   8.168  13.164 -0.0899  0.1090  0.0294
 2903W        W 6954   4.368   5.987   1.925 -0.2677  0.1530 -0.3123
 2904W        W 6955   9.506   3.592   1.209  0.2209 -0.0616  0.1600
 2905W        W 6956   0.635   1.238   2.350  0.2129 -0.2038  0.1180
 2906W        W 6957   0.439   0.760   9.188  0.0627 -0.3380  0.1969
 2907W        W 6958   5.772   4.023   1.775 -0.0698 -0.1848  0.0855
 2908W        W 6959   1.723   3.165  10.476 -0.1472  0.1006 -0.2826
 2909W        W 6960   2.765   2.284  13.301 -0.0986 -0.0197 -0.0064
 2910W        W 6961   8.850   2.602   2.300 -0.1542 -0.1588 -0.3088
 2911W        W 6962   0.905   9.528   0.266  0.2625  0.2093  0.1956
 2912W        W 6963   2.687   5.975  10.128 -0.1866  0.0012  0.1236
 2913W        W 6964   9.704   9.477  11.870  0.1462  0.0936  0.1300
 2914W        W 6965   7.210   6.608  13.993 -0.1208  0.0546 -0.1449
 2915W        W 6966   9.803   0.421   0.103 -0.0571  0.1124  0.1758
 2916W        W 6967   0.741   5.744  11.241  0.4390 -0.3655 -0.1128
 2917W        W 6968   4.082   6.723  12.078 -0.2364  0.1479 -0.2744
 2918W        W 6969   0.701   1.650   2.987  0.0027 -0.0006 -0.0861
 2919W        W 6970   3.283   6.695   1.295  0.1750  0.1456 -0.0693
 2920W        W 6971   7.042   1.023   5.423 -0.2331 -0.1585  0.3292
 2921W        W 6972   1.044   9.281  12.718  0.1804 -0.2418  0.0253
 2922W        W 6973   3.641   0.322  13.614  0.2198 -0.2252  0.2197
 2923W        W 6974   9.361   5.623   9.729  0.2713 -0.0895 -0.2661
 2924W        W 6975   5.054   2.326  10.596  0.0789  0.3085 -0.2535
 2925W        W 6976   3.385   3.306  12.442  0.0079  0.1400 -0.0398
 2926W        W 6977   9.032   2.305   4.030 -0.3518 -0.4751 -0.0993
 2927W        W 6978   8.377   0.272   1.416 -0.1034 -0.2380  0.1563
 2928W        W 6979   0.241   8.832   2.245  0.0550 -0.0548  0.0875
 2929W        W 6980   1.867   0.702  11.264 -0.4125 -0.0434  0.0027
 2930W        W 6981   0.700   0.030   0.879  0.0483 -0.1402  0.2689
 2931W        W 6982   0.469   1.689   2.131 -0.0592 -0.1281 -0.0816
 2932W        W 6983   2.610   7.944   3.554  0.0307  0.2396 -0.1952
 2933W        W 6984   0.637   0.563   0.232 -0.0257  0.0605  0.1442
 2934W        W 6985  10.040   9.086  12.655 -0.0931  0.1489 -0.1344
 2935W        W 6986   0.812   8.217  13.306  0.0614 -0.1472 -0.0034
 2936W        W 6987   2.995   2.514   2.171 -0.2197 -0.2029  0.1009
 2937W        W 6988   7.271   0.822   4.725 -0.0983 -0.2183 -0.0051
 2938W        W 6989   8.768   6.769  11.882  0.2964  0.0384 -0.0299
 2939W        W 6990   1.461   8.400  12.879  0.1294 -0.1248 -0.1340
 2940W        W 6991   6.965   0.098  12.247  0.4168 -0.1451 -0.1490
 2941W        W 6992   9.493   2.873   2.464 -0.1562  0.2384 -0.1970
 2942W        W 6993   7.742   5.198  10.146  0.0283  0.2854 -0.1397
 2943W        W 6994   4.647   4.827  12.278  0.4344 -0.0189  0.2120
 2944W        W 6995   5.291   7.145  11.315 -0.0462  0.1787 -0.5208
 2945W        W 6996   4.692   1.454  11.046  0.1148  0.2149 -0.0624
 2946W        W 6997   6.717   5.372  12.595  0.0041 -0.3334 -0.0355
 2947W        W 6998   0.394   4.467   4.190  0.2797 -0.2581  0.1416
 2948W        W 6999   2.865   1.313   3.534 -0.1456  0.0058  0.1796
 2949W        W 7000   6.506   4.901   0.517 -0.0959  0.0342  0.1772
 2950W        W 7001   8.066   2.821  10.354  0.1800  0.2190  0.1014
 2951W        W 7002   9.455   8.429   1.187 -0.0633 -0.3464 -0.1447
 2952W        W 7003   9.836   2.075  10.316 -0.0997 -0.1290  0.1351
 2953W        W 7004   4.106   9.682   3.263 -0.2705 -0.0163 -0.0081
 2954W        W 7005   8.240   3.329   4.945 -0.2153 -0.0101 -0.1025
 2955W        W 7006   5.445   9.652   9.585 -0.0966 -0.1253 -0.2008
 2956W        W 7007   8.019   6.586  13.050  0.1880 -0.2147  0.1177
 2957W        W 7008   6.959   1.931  13.102  0.1789 -0.3593  0.1910
 2958W        W 7009   7.989   1.740   9.929 -0.1503  0.1885 -0.2735
 2959W        W 7010   7.833   6.368   3.987  0.0949  0.2853 -0.1708
 2960W        W 7011   2.078   5.299   0.754 -0.1628 -0.2498  0.2372
 2961W        W 7012   0.018   1.049   0.152  0.0940  0.0400 -0.2680
 2962W        W 7013   6.649   1.719  13.522 -0.0636  0.2197  0.2801
 2963W        W 7014   1.028   6.291   3.022  0.1454  0.1088 -0.2126
 2964W        W 7015  10.077   4.907  13.945  0.2643 -0.0372  0.0609
 2965W        W 7016   7.317   7.529   4.402  0.1823  0.1320  0.3270
 2966W        W 7017   3.380   5.941   0.545 -0.2063  0.0100  0.2425
 2967W        W 7018   5.662   5.839  10.864 -0.1312 -0.0452  0.0025
 2968W        W 7019   4.089   5.827  13.403 -0.0364 -0.3190 -0.2487
 2969W        W 7020   5.847   0.093  12.654 -0.1023 -0.0968  0.0311
 2970W        W 7021   5.426   5.111   1.428 -0.2018 -0.0353  0.2653
 2971W        W 7022   9.756   0.123   1.684  0.1549  0.1884  0.0687
 2972W        W 7023   8.139   8.868   2.492 -0.3506 -0.0605 -0.1422
 2973W        W 7024   6.302   7.085  10.120 -0.1654 -0.1446 -0.2927
 2974W        W 7025   3.414   9.905   4.441 -0.0168 -0.3335  0.0124
 2975W        W 7026   3.365   8.165   1.661  0.0284  0.0973 -0.3022
 2976W        W 7027   4.346   6.120   2.375 -0.3132 -0.0048 -0.0220
 2977W        W 7028   9.422   1.741  11.880  0.0896  0.0419  0.0590
 2978W        W 7029   0.246   5.536   1.349  0.0446  0.1879  0.0814
 2979W        W 7030   9.203   6.236   2.011 -0.0643 -0.0716 -0.0441
 2980W        W 7031   9.373   1.771   0.248  0.0858  0.0661  0.1122
 2981W        W 7032   8.668   8.172  10.133 -0.0882  0.0918 -0.3979
 2982W        W 7033   7.070   1.049   3.773 -0.3996  0.0445  0.2762
 2983W        W 7034   5.084   6.778  13.597 -0.2352 -0.0891 -0.4176
 2984W        W 7035   0.828   0.270  10.882 -0.0380 -0.1962  0.0512
 2985W        W 7036   4.111   6.472   1.349 -0.3051 -0.0136  0.1073
 2986W        W 7037   9.892   1.004   1.922 -0.0023 -0.2109  0.0560
 2987W        W 7038   8.526   8.284   0.641  0.2094 -0.2132  0.0518
 2988W        W 7039   7.949   3.236   9.415  0.0206  0.2687  0.0271
 2989W        W 7040   5.996   7.010  13.840  0.0566  0.0892 -0.2217
 2990W        W 7041   7.954   7.139  12.816  0.3954  0.4900  0.0108
 2991W        W 7042   9.456   1.228   1.110 -0.0798 -0.1332 -0.0091
 2992W        W 7043   8.835   0.625   3.278 -0.3192  0.0729 -0.2151
 2993W        W 7044   7.994   0.960  13.932  0.1769 -0.0510 -0.1576
 2994W        W 7045   0.772   7.759   2.030 -0.2274  0.1245 -0.1173
 2995W        W 7046   7.409   9.397  10.677 -0.0853 -0.1159 -0.3106
 2996W        W 7047   7.064   3.347  11.987 -0.0087  0.1614 -0.0466
 2997W        W 7048   0.569   5.492  10.802  0.0928  0.0746 -0.2101
 2998W        W 7049   9.182   1.203   0.096  0.2498 -0.0419  0.0803
 2999W        W 7050   2.703   5.392   3.620 -0.3995  0.0298  0.2194
 3000W        W 7051   9.247   6.828  11.194 -0.2085  0.1514 -0.0954
 3001W        W 7052   0.520   3.607   3.948  0.0753 -0.0964 -0.2981
 3002W        W 7053   7.009   0.884  13.883 -0.2167 -0.4070  0.1949
 3003W        W 7054   5.165   0.760  10.168  0.1098  0.0019  0.2168
 3004W        W 7055   9.547   7.074   0.383  0.1330  0.1144  0.1835
 3005W        W 7056   7.461   0.768   3.561 -0.1409 -0.0224 -0.2595
 3006W        W 7057   6.121   8.704   4.061  0.0039  0.1125 -0.0713
 3007W        W 7058   7.547   3.619   2.883  0.2715  0.0660 -0.0423
 3008W        W 7059   9.339  10.027   1.759  0.2493  0.0710 -0.0393
 3009W        W 7060   0.076   8.079   1.367  0.3382  0.3345  0.1865
 3010W        W 7061   9.560   2.209   0.228 -0.0425 -0.2274 -0.2474
 3011W        W 7062   5.370   8.747   1.402 -0.4455 -0.1171 -0.4549
 3012W        W 7063   1.290   5.542   3.307 -0.1922 -0.0546  0.0896
 3013W        W 7064   1.468   3.214  10.070  0.2369  0.0068  0.1267
 3014W        W 7065   0.150   4.470   4.623  0.0455 -0.4138  0.1301
 3015W        W 7066   4.216   7.771  11.961  0.1057 -0.1485  0.1132
 3016W        W 7067   4.790   5.280  10.700  0.0369 -0.3722  0.0777
 3017W        W 7068   8.337   8.436   9.997  0.1492 -0.0530 -0.0102
 3018W        W 7069   5.106   0.533  11.560 -0.1370 -0.1981 -0.0645
 3019W        W 7070   4.969   7.013  10.491 -0.2239 -0.3182  0.0443
 3020W        W 7071   4.054   2.918   4.138 -0.0192 -0.0869  0.1982
 3021W        W 7072   7.974   2.872   0.225 -0.1193  0.1412  0.1733
 3022W        W 7073   6.158   6.360   0.029 -0.4101  0.2484  0.2158
 3023W        W 7074   5.340   0.970  13.908 -0.0716  0.1653 -0.0067
 3024W        W 7075   6.797   4.225   2.068  0.1320 -0.1978  0.2065
 3025W        W 7076   8.449   1.867  12.578 -0.1066 -0.2303 -0.2843
 3026W        W 7077   3.278   2.038   9.566 -0.1822 -0.2343 -0.1646
 3027W        W 7078   7.345   6.331   0.704 -0.1115  0.3063 -0.0279
 3028W        W 7079   6.867   3.875   8.781 -0.0455  0.1152  0.0386
 3029W        W 7080   0.108   2.168   4.180  0.2504  0.2544 -0.1860
 3030W        W 7081   0.782   5.164   0.205  0.1417 -0.1501  0.1393
 3031W        W 7082   9.506   3.872  10.143 -0.1339  0.1355 -0.1868
 3032W        W 7083   4.460   6.165  11.357 -0.0668 -0.2926  0.0143
 3033W        W 7084   3.884   3.726   9.758  0.0374 -0.0660 -0.1665
 3034W        W 7085   7.171   9.947   2.542  0.1343 -0.0266  0.1041
 3035W        W 7086   9.857   2.246   9.800  0.1888 -0.1803  0.0308
 3036W        W 7087   3.682   6.215   3.236 -0.0099  0.4005  0.1217
 3037W        W 7088   6.038   2.442   1.010 -0.0923 -0.1005 -0.4274
 3038W        W 7089   0.922   9.591  13.101  0.1500 -0.0383 -0.1384
 3039W        W 7090   2.746   9.217  12.606  0.1367 -0.0353 -0.1239
 3040W        W 7091   6.284   0.078   4.532  0.1815 -0.2496 -0.1786
 3041W        W 7092   6.988   7.411   0.585  0.0271 -0.0970 -0.2519
 3042W        W 7093   3.807   6.025   1.211  0.1326 -0.2949 -0.3882
 3043W        W 7094   2.011   6.838   2.555  0.1438  0.0826  0.0859
 3044W        W 7095   6.263   6.607   9.966  0.2534 -0.0648 -0.0048
 3045W        W 7096   6.818   9.531   2.629 -0.1567 -0.1352  0.1771
 3046W        W 7097   2.311   1.670  13.697  0.2988  0.1440  0.3808
 3047W        W 7098   6.164   5.416  13.825 -0.2284  0.1300  0.3965
 3048W        W 7099   6.385   1.786   2.083 -0.1378 -0.0687 -0.0882
 3049W        W 7100  10.150   1.626  11.631  0.0888 -0.1007  0.2358
 3050W        W 7101   7.546   7.954   3.381  0.1640  0.2132  0.0481
 3051W        W 7102   1.122   3.752  12.151  0.1446  0.2983  0.6389
 3052W        W 7103   1.501   4.907   1.747  0.3334 -0.0290 -0.0837
 3053W        W 7104   6.740   1.208   2.762  0.1099  0.3109 -0.1697
 3054W        W 7105   8.123   2.359  12.599 -0.1802  0.1167  0.0747
 3055W        W 7106   4.738   6.961   3.674 -0.1495  0.1632  0.0333
 3056W        W 7107   4.678   6.873  10.155  0.2615  0.4453 -0.2701
 3057W        W 7108   5.000   9.305  13.380  0.2894 -0.1582  0.2104
 3058W        W 7109  10.082   2.978   0.153 -0.1681  0.1026 -0.1460
 3059W        W 7110   8.631   7.147   2.870 -0.0777 -0.1770  0.0523
 3060W        W 7111   2.747   9.738  12.394  0.2077  0.0846  0.2903
 3061W        W 7112   6.639   9.626   1.297 -0.0070  0.0721 -0.1046
 3062W        W 7113   1.829  10.129   0.828  0.1498 -0.2268 -0.1928
 3063W        W 7114   7.811   4.796   2.028  0.0460 -0.1221  0.4072
 3064W        W 7115   4.262   8.036  12.980 -0.0345  0.2694 -0.3246
 3065W        W 7116   5.510   0.189  13.054  0.0321  0.2137 -0.1683
 3066W        W 7117   8.578   2.578  13.390  0.0727 -0.0569  0.0679
 3067W        W 7118   0.293   5.840  11.945 -0.0692 -0.4043 -0.3192
 3068W        W 7119   0.962   7.577  12.157 -0.0661  0.0322 -0.0238
 3069W        W 7120   2.182   1.145   5.767  0.3095  0.0573 -0.1787
 3070W        W 7121   6.888   0.119   3.561 -0.0497  0.3179 -0.2456
 3071W        W 7122   2.610   3.655  13.784  0.1365 -0.1710  0.1471
 3072W        W 7123   9.126   7.940   1.216 -0.0202 -0.2552  0.2624
 3073W        W 7124   5.301   3.551   2.347 -0.0210  0.0616  0.0011
 3074W        W 7125   9.225   1.068   3.990  0.0695  0.0040 -0.0952
 3075W        W 7126   9.230   6.914  12.724 -0.1316 -0.1134 -0.1041
 3076W        W 7127   8.512   6.390  12.194 -0.2126  0.1829 -0.0443
 3077W        W 7128   5.539  10.124   2.092  0.2480 -0.0774 -0.0721
 3078W        W 7129   9.225   6.012  10.809 -0.0407  0.3474 -0.2689
 3079W        W 7130   8.142   1.944  12.215  0.0250 -0.0842  0.1054
 3080W        W 7131   8.690   6.712  12.910 -0.2825 -0.0650 -0.5315
 3081W        W 7132   4.129   1.815  12.939 -0.0610 -0.0214 -0.1645
 3082W        W 7133   5.218   5.010   4.065 -0.2424  0.0723  0.1547
 3083W        W 7134   0.586   4.032   4.931 -0.1598 -0.0843 -0.0257
 3084W        W 7135   3.539   6.083   2.767  0.0889 -0.0458 -0.0949
 3085W        W 7136   5.121   0.598   4.637  0.1506  0.1531  0.3119
 3086W        W 7137   2.008   1.694   5.259  0.1935  0.0971 -0.2297
 3087W        W 7138  10.024   3.960   4.369 -0.0105 -0.4581  0.2534
 3088W        W 7139   0.744   6.621   0.459 -0.2970 -0.1810  0.1407
 3089W        W 7140   2.843   2.602  12.869 -0.0626 -0.0638 -0.0512
 3090W        W 7141   8.674   3.889   4.386 -0.0805 -0.2521 -0.2469
 3091W        W 7142   9.471   1.614  12.452 -0.0290  0.1618  0.1143
 3092W        W 7143   3.330   8.036   4.616  0.1817 -0.2540 -0.0578
 3093W        W 7144   6.932   3.853  11.935  0.1997  0.0429  0.3067
 3094W        W 7145   0.623   3.764   1.693 -0.4354 -0.0805 -0.0924
 3095W        W 7146   4.220  10.133   1.858 -0.2089 -0.0422 -0.0714
 3096W        W 7147   1.573   1.135  13.634  0.3566  0.0013 -0.0200
 3097W        W 7148   8.070   1.649  11.800  0.1452 -0.0304 -0.1232
 3098W        W 7149   3.177   9.159  13.142  0.0423  0.1953 -0.2002
 3099W        W 7150   6.945   8.195  11.467  0.0768  0.0604 -0.0127
 3100W        W 7151   7.007   4.847   9.337  0.2647  0.2599 -0.1590
 3101W        W 7152   2.776   3.736   0.364 -0.1262 -0.0516 -0.3198
 3102W        W 7153   3.893   7.200  12.789 -0.3784 -0.0341 -0.1633
 3103W        W 7154   8.715   1.169   1.388  0.0399  0.2629  0.2681
 3104W        W 7155   7.229   5.988  10.772  0.2829 -0.1285 -0.2399
 3105W        W 7156   3.606   8.859   3.602 -0.0595 -0.2020 -0.1099
 3106W        W 7157   3.612   8.119  10.849  0.0176 -0.0656  0.0251
 3107W        W 7158   1.294   7.346  12.516  0.2416 -0.1770 -0.0833
 3108W        W 7159   9.839   7.005   3.658 -0.2812  0.0044 -0.0114
 3109W        W 7160  10.130   5.204   3.113 -0.0681 -0.1443 -0.0668
 3110W        W 7161   1.762   2.899  11.916 -0.0231  0.2275  0.0208
 3111W        W 7162   2.613   3.637   9.562 -0.0713 -0.1110  0.0876
 3112W        W 7163   0.679   5.497   1.033 -0.3274 -0.0910 -0.1076
 3113W        W 7164   3.204   4.726  12.392 -0.0861 -0.4386 -0.0627
 3114W        W 7165   8.790   6.682  10.630  0.0489  0.0884  0.0892
 3115W        W 7166   6.275   5.229  12.707 -0.3121  0.1550  0.2696
 3116W        W 7167   7.393   8.784  12.512 -0.0629 -0.1394 -0.1473
 3117W        W 7168   3.750   0.834   9.073  0.2001  0.1209 -0.0791
 3118W        W 7169   0.969   4.908   1.832  0.0410 -0.1579  0.0856
 3119W        W 7170   5.926   7.727   1.955  0.0351  0.0041 -0.1632
 3120W        W 7171   0.303   5.413  11.272 -0.0272 -0.2248  0.3245
 3121W        W 7172   2.916   0.294   3.425  0.3779  0.0858 -0.1132
 3122W        W 7173   6.914   5.969   5.531 -0.0364 -0.2210  0.2027
 3123W        W 7174   0.381   5.412  10.370 -0.1803 -0.1727 -0.2315
 3124W        W 7175   1.969   7.549   0.999 -0.1009 -0.0895 -0.1443
 3125W        W 7176   2.185   6.398   9.498  0.0474  0.2900  0.1123
 3126W        W 7177   2.374   4.489  10.045 -0.2076  0.2202  0.2040
 3127W        W 7178   0.731   6.265   3.495  0.0039  0.0526  0.2325
 3128W        W 7179   3.689   4.157  13.219  0.1508 -0.0650  0.1023
 3129W        W 7180   5.389   5.076   0.901  0.1664 -0.1514  0.3428
 3130W        W 7181   3.050   0.965  13.104  0.0434 -0.1083  0.1759
 3131W        W 7182   4.665   9.310   4.094 -0.0490  0.0851 -0.1591
 3132W        W 7183   6.969   9.485   0.101 -0.0573  0.1702 -0.0018
 3133W        W 7184   8.393   5.477   2.387 -0.2810  0.0750 -0.2576
 3134W        W 7185   8.762   4.605   1.223 -0.0323  0.1469  0.1834
 3135W        W 7186   9.429   1.446   2.003 -0.2268 -0.3143 -0.2291
 3136W        W 7187   1.021   2.780   4.179 -0.2204  0.1581  0.1163
 3137W        W 7188   2.955   6.318  12.479 -0.2340  0.2292 -0.0917
 3138W        W 7189   1.973   3.899  12.179  0.0683 -0.2994  0.1965
 3139W        W 7190   7.320   2.439  12.172 -0.1044  0.0027  0.1063
 3140W        W 7191   8.525   1.901  11.644  0.0965 -0.1092 -0.2305
 3141W        W 7192   8.290   6.769  13.960 -0.1043 -0.2416  0.1272
 3142W        W 7193   9.680   0.800   1.379  0.0635  0.2218 -0.4037
 3143W        W 7194   5.307   6.661   5.350  0.1624 -0.0100 -0.1214
 3144W        W 7195   0.288   3.646   0.488  0.0308 -0.0876  0.1017
 3145W        W 7196   4.404   8.467   3.265  0.0239  0.0933  0.0881
 3146W        W 7197   1.960   5.425  12.387 -0.3406  0.0545  0.0525
 3147W        W 7198   4.581   7.699   2.529 -0.1250 -0.2554 -0.0850
 3148W        W 7199   2.320   8.195   1.256 -0.2503  0.0724 -0.3159
 3149W        W 7200   0.178   1.211   1.473  0.0710 -0.0229  0.1432
 3150W        W 7201   0.151   0.987  13.549 -0.1476 -0.0829 -0.1702
 3151W        W 7202   7.413   3.906  11.833  0.1135 -0.0302  0.2575
 3152W        W 7203   4.716   9.086   2.268 -0.0001  0.0422 -0.0520
 3153W        W 7204   5.358   0.031  11.717 -0.3224  0.0174  0.0758
 3154W        W 7205   6.189   9.805   1.145  0.0334 -0.2993  0.3723
 3155W        W 7206   0.803   9.623   2.691 -0.1234 -0.3129  0.0742
 3156W        W 7207   2.027   6.433   3.352 -0.2191 -0.1279 -0.0836
 3157W        W 7208   1.583   0.050  11.948 -0.1020 -0.0914  0.5943
 3158W        W 7209   1.741   2.848   5.852  0.1410 -0.0755 -0.0394
 3159W        W 7210   3.390   3.475   9.739  0.4284 -0.1456  0.0380
 3160W        W 7211   6.008   2.446   3.114 -0.1631 -0.0493  0.1018
 3161W        W 7212   4.274   8.028   2.273  0.0008  0.2334  0.0066
 3162W        W 7213   7.311   7.998  11.135  0.0530  0.0870 -0.1535
 3163W        W 7214   2.251   8.120   2.679  0.1032 -0.1637  0.0386
 3164W        W 7215   3.007   5.186   5.272  0.0237 -0.0591  0.2673
 3165W        W 7216   1.090   8.665   2.767 -0.0941  0.1708 -0.0802
 3166W        W 7217   4.481   4.525   1.314 -0.2126  0.1224 -0.1982
 3167W        W 7218   8.660   2.745   9.583  0.3443 -0.2454 -0.3076
 3168W        W 7219   4.173   5.424  10.801 -0.0493 -0.0778  0.4192
 3169W        W 7220   0.942   1.478  11.672  0.2382  0.0116  0.0237
 3170W        W 7221   8.823   2.981  11.678  0.2055  0.2080 -0.0613
 3171W        W 7222   0.246   3.520   9.276  0.1898  0.0834 -0.1519
 3172W        W 7223   5.606   7.550   2.432  0.0385  0.1275  0.2721
 3173W        W 7224   5.632   2.787  10.469  0.2186 -0.0035 -0.2455
 3174W        W 7225   0.897   3.138   4.957 -0.1179 -0.0808 -0.0446
 3175W        W 7226   9.364   7.753   3.268  0.0118  0.0867  0.1395
 3176W        W 7227   6.673   1.764   0.507  0.2554  0.0405 -0.2310
 3177W        W 7228   1.778   8.813   1.725  0.0672 -0.0899  0.0641
 3178W        W 7229   8.506   8.484   2.677  0.1005  0.0740  0.0571
 3179W        W 7230   2.844   6.982   1.337  0.0354 -0.1338 -0.1868
 3180W        W 7231   1.145   6.097  10.319 -0.0744 -0.1822 -0.0429
 3181W        W 7232   7.954   1.746   4.667  0.0551 -0.1495  0.0458
 3182W        W 7233   8.707   9.012  10.854  0.0848 -0.3618  0.0470
 3183W        W 7234   5.814   7.703   1.486 -0.1392  0.0661  0.1108
 3184W        W 7235  10.023   7.403   2.287 -0.1645  0.3458  0.1889
 3185W        W 7236   2.594   2.934  11.259 -0.1054  0.2429  0.0678
 3186W        W 7237   2.760   5.251  11.519  0.1893  0.0277  0.1764
 3187W        W 7238   7.808   0.315  11.937 -0.0815 -0.0877  0.0823
 3188W        W 7239   6.875   8.068  10.885  0.0336  0.1246 -0.0415
 3189W        W 7240   3.508   2.905   3.878  0.1783 -0.0206  0.0636
 3190W        W 7241   6.735   2.582   4.581 -0.0667  0.1768  0.0721
 3191W        W 7242   1.025   0.830  10.978  0.1580 -0.1341 -0.2075
 3192W        W 7243   7.302   6.989   8.910  0.3855  0.3731  0.0544
 3193W        W 7244   6.800   9.920  11.254  0.4551 -0.1618  0.0132
 3194W        W 7245   8.507   2.990   0.049  0.1543 -0.1596 -0.0619
 3195W        W 7246   6.226   4.713  12.765  0.0059 -0.0418  0.0043
 3196W        W 7247   1.849   9.451   1.345 -0.0694 -0.1794 -0.1195
 3197W        W 7248   0.109   6.385   4.532  0.1025 -0.0924 -0.1664
 3198W        W 7249   6.414   9.296   9.769 -0.0763  0.0643  0.0322
 3199W        W 7250   2.216   2.322  13.540 -0.2355  0.1420 -0.3757
 3200W        W 7251   8.741   8.952  12.892 -0.0989 -0.0696  0.2012
 3201W        W 7252   1.496   7.258  12.075  0.1726 -0.0290 -0.2943
 3202W        W 7253   4.816   9.797  10.386  0.0897  0.3775 -0.1239
 3203W        W 7254   6.161   1.070   3.406  0.1264  0.0986  0.5283
 3204W        W 7255   5.006   4.917  13.776  0.0324  0.0770  0.3367
 3205W        W 7256   3.278   0.474   0.978 -0.1152  0.0208 -0.0361
 3206W        W 7257   5.402   4.266  11.198  0.3430  0.1748  0.0214
 3207W        W 7258   6.419   5.622   3.399  0.1449 -0.0627 -0.1858
 3208W        W 7259   3.504   4.609  13.284  0.0326 -0.1396  0.0612
 3209W        W 7260   7.405   5.263   0.072 -0.1380 -0.4309 -0.2521
 3210W        W 7261   4.474   8.905  12.767  0.2233 -0.0873  0.1094
 3211W        W 7262   4.047   8.477  12.911  0.2402 -0.1901  0.0111
 3212W        W 7263   0.355   2.298   8.797  0.2444 -0.3749 -0.0844
 3213W        W 7264   4.547   7.038  12.348 -0.3202  0.3625 -0.0229
 3214W        W 7265   7.024   7.126  12.446 -0.0723 -0.2477 -0.3834
 3215W        W 7266   8.214   4.563   2.249  0.0145  0.1678 -0.1588
 3216W        W 7267   5.646   7.292   1.655 -0.1443 -0.0627  0.1767
 3217W        W 7268   5.284  10.115   0.826  0.0508 -0.2147 -0.1117
 3218W        W 7269   8.455   9.081  10.422 -0.2599 -0.4061  0.1377
 3219W        W 7270   6.387   6.052   1.444  0.0271  0.2893  0.0332
 3220W        W 7271   5.750   3.286   0.146  0.0213  0.1202 -0.0792
 3221W        W 7272   0.397   0.059   0.344 -0.2409 -0.0198 -0.0162
 3222W        W 7273   4.047   2.187   5.048  0.0341  0.0825 -0.3215
 3223W        W 7274   0.472   8.132   3.376 -0.2147  0.2070 -0.0055
 3224W        W 7275   6.339   6.835   2.014 -0.5015  0.1562 -0.1350
 3225W        W 7276   3.768   6.190   3.728 -0.0815 -0.1071 -0.0044
 3226W        W 7277   2.607   6.632   4.682  0.2089 -0.1079  0.0952
 3227W        W 7278   5.266   8.649   0.451 -0.0483 -0.2443  0.1094
 3228W        W 7279   4.128   5.887  11.592  0.3382 -0.3099 -0.4535
 3229W        W 7280  10.109   9.815  13.020 -0.0526 -0.2617  0.1599
 3230W        W 7281   2.991   3.058  10.754 -0.2160  0.0672 -0.0133
 3231W        W 7282   0.996   4.844   4.713 -0.3142  0.4005  0.2387
 3232W        W 7283   9.980   0.758  13.796 -0.3812 -0.0945 -0.0143
 3233W        W 7284   6.183   1.686   4.935 -0.2862  0.4114  0.0820
 3234W        W 7285   0.666   3.319  11.203  0.2095 -0.0427  0.2165
 3235W        W 7286   5.856   6.560   9.663  0.0254  0.0388 -0.1201
 3236W        W 7287   7.422   8.808  13.024  0.2065 -0.1422 -0.1257
 3237W        W 7288  10.139   3.965   3.184  0.2684  0.3622  0.1740
 3238W        W 7289   4.795   9.765  13.384 -0.1912 -0.0775  0.7287
 3239W        W 7290   6.736  10.069   2.755  0.0415 -0.2474 -0.4679
 3240W        W 7291   7.194   2.917   1.719  0.0526  0.0115 -0.0982
 3241W        W 7292   4.801   7.149  11.756 -0.0998  0.0572  0.0789
 3242W        W 7293   3.558   9.333  12.869  0.2651 -0.2638 -0.1077
 3243W        W 7294   1.237   7.284   1.318 -0.0323 -0.0031 -0.1164
 3244W        W 7295   3.759   0.435   1.189 -0.0893  0.0927 -0.0791
 3245W        W 7296   8.883   7.356   1.091  0.2277 -0.2397  0.2809
 3246W        W 7297   5.099   1.144  11.646  0.2222 -0.2063  0.1767
 3247W        W 7298   2.925   7.929   1.835 -0.0294  0.1467  0.2440
 3248W        W 7299   9.853   6.279  11.427  0.1574  0.0392 -0.2434
 3249W        W 7300   7.971   1.822  13.774 -0.2717 -0.1474  0.0460
 3250W        W 7301   7.871   0.191  10.678 -0.2311 -0.3443  0.3438
 3251W        W 7302   8.690   2.206   1.420  0.3075  0.1229 -0.0871
 3252W        W 7303   3.661   7.164  10.204  0.1849  0.0854 -0.0880
 3253W        W 7304   8.939   8.244   2.527  0.2778  0.0209  0.0878
 3254W        W 7305   2.748   4.566  13.611 -0.3894  0.2273  0.0475
 3255W        W 7306   6.506   3.357   4.718  0.2269 -0.3573  0.1472
 3256W        W 7307   3.986   4.125   0.090  0.0274 -0.3175  0.1484
 3257W        W 7308   2.341   4.212   8.769  0.0298 -0.1246 -0.1209
 3258W        W 7309   8.711   9.823  10.385  0.1075 -0.3936  0.0440
 3259W        W 7310   4.200   8.133   0.144 -0.1590  0.2351  0.0660
 3260W        W 7311   0.418   4.309   2.971  0.1658 -0.0998  0.0299
 3261W        W 7312   5.349   1.413   1.832  0.0628  0.3458 -0.3208
 3262W        W 7313   0.305   6.834   0.848  0.5052  0.0672  0.0779
 3263W        W 7314   1.714   3.660   9.759 -0.1150  0.0685  0.2204
 3264W        W 7315   5.801   1.554   5.275  0.1525  0.0953 -0.2803
 3265W        W 7316   4.516   6.218   1.131 -0.1058 -0.1857 -0.1099
 3266W        W 7317   4.286   4.664   3.791 -0.0458 -0.0322  0.0136
 3267W        W 7318   6.335   8.186   9.854  0.1831 -0.3367  0.1858
 3268W        W 7319   7.918   7.042   0.402  0.0321  0.1347  0.0251
 3269W        W 7320   0.411   0.554   9.658  0.2964 -0.1738 -0.3996
 3270W        W 7321   1.967   7.072  12.931  0.2025 -0.0199  0.0376
 3271W        W 7322   3.407   0.764  10.065  0.1525 -0.3825 -0.1252
 3272W        W 7323   3.870   9.283   4.762  0.3153 -0.2913 -0.1426
 3273W        W 7324   9.335   2.639   1.413  0.0876 -0.0195  0.1340
 3274W        W 7325   4.909   5.800  12.057  0.1568 -0.0261  0.2834
 3275W        W 7326   7.716   7.837   0.444 -0.2070  0.0152  0.3124
 3276W        W 7327   1.385   4.588   4.974 -0.1915  0.1747  0.0941
 3277W        W 7328   9.422   5.482  13.106  0.2566  0.3265 -0.0599
 3278W        W 7329   4.049   7.611   9.902  0.0080 -0.1098 -0.1155
 3279W        W 7330   5.070   3.890  11.560  0.2321  0.0673 -0.0948
 3280W        W 7331   7.896   0.065  11.180  0.1610  0.0830  0.2325
 3281W        W 7332   4.526   5.656  12.624  0.2347  0.0106  0.3158
 3282W        W 7333   5.301   4.990   4.583  0.1472 -0.0453  0.0089
 3283W        W 7334   9.847   4.728   3.746 -0.0101  0.1246  0.0067
 3284W        W 7335   1.123   8.001   9.515 -0.1519  0.1335  0.0895
 3285W        W 7336   1.756   8.149  12.541  0.2235  0.1436 -0.2016
 3286W        W 7337   3.760   4.081   2.901  0.2769 -0.3526  0.3475
 3287W        W 7338   8.086   4.675   3.297  0.0840  0.0353 -0.0101
 3288W        W 7339   6.996   1.847  10.844 -0.0294  0.1943  0.3574
 3289W        W 7340   4.774   8.560   9.823  0.3209  0.1313  0.0748
 3290W        W 7341   9.503   9.476   9.324 -0.1256  0.1929 -0.1687
 3291W        W 7342   7.738   4.356   0.454  0.1278 -0.0382  0.1888
 3292W        W 7343   2.690   1.836  10.703  0.0500 -0.1000 -0.5478
 3293W        W 7344   9.590   0.260   2.657 -0.0304 -0.0666  0.2435
 3294W        W 7345   5.719   8.740  13.260  0.0202  0.2339 -0.4330
 3295W        W 7346   4.173   2.209  11.066  0.1186  0.4827 -0.2972
 3296W        W 7347   8.291   7.168  12.478  0.0449  0.0225 -0.0697
 3297W        W 7348   3.153   3.777   0.041  0.1007 -0.1172 -0.1231
 3298W        W 7349   2.620   3.493   1.554 -0.0893  0.0271 -0.2879
 3299W        W 7350   8.234   3.201   3.484 -0.2160  0.0710  0.2152
 3300W        W 7351   8.147   8.734   0.853 -0.5966  0.1204  0.1822
 3301W        W 7352   7.797   7.580   3.129 -0.0260  0.0987 -0.3760
 3302W        W 7353   7.200   1.683   3.194 -0.0426  0.2385 -0.1041
 3303W        W 7354   5.016   7.759   4.719  0.1410 -0.1279  0.0699
 3304W        W 7355   4.854   9.741   9.129 -0.0085 -0.0029  0.1461
 3305W        W 7356   2.953   1.664   4.132  0.0685  0.0825  0.2727
 3306W        W 7357   6.672   2.150  11.657  0.0550  0.3601  0.1041
 3307W        W 7358   3.094   5.063  11.175 -0.0947  0.2062 -0.0686
 3308W        W 7359   6.251   0.850   0.101 -0.0346  0.3284  0.2134
 3309W        W 7360   9.651   2.284   1.169  0.3111 -0.2646  0.0275
 3310W        W 7361   9.980   0.153  11.650 -0.3522  0.0168 -0.2105
 3311W        W 7362   1.440   0.425   5.271  0.0263 -0.1047 -0.0694
 3312W        W 7363   1.524   3.540   0.579 -0.1420 -0.0364  0.1099
 3313W        W 7364   2.276   7.275   3.028  0.0389  0.0545  0.0263
 3314W        W 7365   4.892   5.760   4.084  0.0282 -0.0863 -0.0668
 3315W        W 7366   5.800   1.269   1.701  0.3906 -0.0332 -0.2045
 3316W        W 7367   8.947   8.681  11.676  0.0207 -0.1893 -0.1448
 3317W        W 7368   6.941   9.538   3.556  0.0693 -0.0532  0.0003
 3318W        W 7369   9.996   6.708  11.647 -0.1427  0.0257 -0.3593
 3319W        W 7370   8.200   0.604  11.900  0.0098 -0.1540  0.0316
 3320W        W 7371   3.030   0.073  13.672 -0.1583 -0.0918 -0.1865
 3321W        W 7372   0.803   2.499   3.720 -0.0769 -0.0335 -0.2667
 3322W        W 7373   2.474   6.874   3.327  0.1524  0.0549  0.0247
 3323W        W 7374   2.669   1.974  12.302 -0.2689 -0.1712 -0.0403
 3324W        W 7375   2.725   2.030   2.509 -0.0537 -0.1625 -0.1950
 3325W        W 7376   0.782   4.986   2.299  0.0417  0.2112  0.0184
 3326W        W 7377   9.584   7.105  11.441  0.0638 -0.1002 -0.0785
 3327W        W 7378   0.295   7.587  12.642  0.3463 -0.1938  0.1752
 3328W        W 7379   1.222   2.344   4.142  0.2929  0.4837 -0.1997
 3329W        W 7380   2.109   8.829   4.092  0.1070 -0.0646  0.1655
 3330W        W 7381   3.418   5.166  11.508  0.0047 -0.1346 -0.2582
 3331W        W 7382   6.841   6.692   1.023 -0.2340 -0.3460  0.2246
 3332W        W 7383   3.567   3.156  11.460 -0.0179 -0.0823  0.1336
 3333W        W 7384   6.828   0.040  12.759 -0.1274  0.1632 -0.1465
 3334W        W 7385   4.898   0.040  11.823  0.4893  0.1946 -0.0049
 3335W        W 7386   8.928   0.830  12.428 -0.0853 -0.3134  0.0572
 3336W        W 7387   9.875   8.924   1.602 -0.0572 -0.4651 -0.0327
 3337W        W 7388   2.114   2.765   0.877 -0.4513 -0.0173 -0.3367
 3338W        W 7389   6.630   7.105   9.733 -0.0568  0.1886 -0.0432
 3339W        W 7390   7.937   5.472   9.319  0.2589  0.3861  0.1321
 3340W        W 7391   6.282   6.331   2.634  0.2422 -0.1524 -0.0330
 3341W        W 7392   0.786   1.959   0.646 -0.1215  0.1503  0.0463
 3342W        W 7393   6.752   1.604   1.790 -0.2514 -0.1319 -0.0733
 3343W        W 7394   4.480   3.228  11.534  0.0172  0.1737  0.0506
 3344W        W 7395   7.987   4.845  10.424  0.1395  0.0143 -0.0416
 3345W        W 7396   5.508   2.010  12.603 -0.4426 -0.1323  0.0870
 3346W        W 7397   7.573   7.838   2.805 -0.0906 -0.0882  0.0694
 3347W        W 7398   9.578   2.928   4.445  0.1691  0.1471  0.1394
 3348W        W 7399   0.772   4.051  12.358 -0.0079 -0.0757 -0.0865
 3349W        W 7400   5.494   2.310  10.386  0.0242 -0.1020 -0.1245
 3350W        W 7401   7.989   9.999   0.011 -0.1254 -0.2217 -0.0494
 3351W        W 7402   1.531   6.413   4.163 -0.2060 -0.0465  0.0280
 3352W        W 7403   0.110   3.186   0.666  0.1152  0.0247 -0.0914
 3353W        W 7404   8.108   4.906   5.057  0.2252  0.1441 -0.1340
 3354W        W 7405   2.038   7.908   0.330  0.2197  0.1805  0.2864
 3355W        W 7406   7.702   2.335  11.431  0.0468  0.2376  0.1200
 3356W        W 7407   9.303   3.406  11.065 -0.0561  0.1841  0.0363
 3357W        W 7408   3.096   7.947   3.311  0.0928  0.1032 -0.0392
 3358W        W 7409   4.039   1.235  12.794  0.2656 -0.2235 -0.1672
 3359W        W 7410   8.608   9.780   2.564 -0.1992 -0.0444 -0.1781
 3360W        W 7411   9.731   4.000  11.205  0.0297  0.3195  0.3040
 3361W        W 7412   8.062   4.282   4.907  0.0503  0.3084 -0.0054
 3362W        W 7413   0.555   9.636   3.496 -0.4822  0.1805 -0.0553
 3363W        W 7414   4.256   9.314   2.958  0.0418 -0.2434  0.1136
 3364W        W 7415   4.321   8.905  10.809  0.3249  0.0834 -0.0511
 3365W        W 7416   7.374   1.152   2.224  0.0467 -0.2454 -0.1473
 3366W        W 7417   6.439   8.422   2.317 -0.2807  0.2549 -0.3188
 3367W        W 7418   1.392   7.709   1.031  0.2507  0.2890  0.1277
 3368W        W 7419   7.846   8.730   2.946  0.0892 -0.4243 -0.2503
 3369W        W 7420   6.775   0.979   4.584 -0.2022  0.1414 -0.0897
 3370W        W 7421   7.544   4.789  10.746 -0.2118  0.3524  0.0299
 3371W        W 7422   3.789   6.218  13.946  0.4119  0.1670 -0.0782
 3372W        W 7423   4.397   0.866  10.745 -0.1765 -0.0907 -0.2677
 3373W        W 7424   6.886   6.771   2.637 -0.0595 -0.3159  0.0810
 3374W        W 7425   5.758   3.649   1.172 -0.1853 -0.0775  0.1054
 3375W        W 7426   7.304   7.590   0.203 -0.1474 -0.0983  0.2134
 3376W        W 7427   2.760   7.059   2.864 -0.1228 -0.1528  0.1992
 3377W        W 7428   7.833   0.186   0.306  0.2069 -0.3587  0.0535
 3378W        W 7429   3.235   9.557   3.049  0.2490  0.2798  0.2883
 3379W        W 7430   3.005   5.538   9.950  0.0077 -0.0920  0.1163
 3380W        W 7431   0.307   9.998   3.840 -0.2358  0.1579 -0.0129
 3381W        W 7432   3.197   1.754   2.689  0.0902 -0.2637 -0.3602
 3382W        W 7433   1.220   1.772   2.967 -0.0065  0.1478  0.1922
 3383W        W 7434  10.026   3.804  13.119  0.1390 -0.2955 -0.2220
 3384W        W 7435   1.922   4.809  10.565 -0.1279 -0.1360  0.0698
 3385W        W 7436   3.055   1.049   2.082  0.3857 -0.2794 -0.0193
 3386W        W 7437   6.766   7.432  13.690 -0.0397  0.2508  0.2388
 3387W        W 7438   2.716   1.159  10.028  0.0635 -0.0881 -0.0787
 3388W        W 7439   0.738   8.522  11.788 -0.1136  0.0573  0.3212
 3389W        W 7440   9.058   3.264  10.675  0.0961  0.3922 -0.0124
 3390W        W 7441   0.499   3.632  12.302  0.0682  0.2522  0.0946
 3391W        W 7442   5.335   1.288   0.346 -0.2019 -0.1539 -0.0686
 3392W        W 7443   6.028   7.427  12.068  0.0515  0.0280 -0.0597
 3393W        W 7444   9.215   5.201   0.382  0.1206  0.1136  0.3659
 3394W        W 7445   5.205   4.602   2.814  0.0305  0.0514  0.1858
 3395W        W 7446   8.701   3.051  11.011 -0.1568  0.0620 -0.2984
 3396W        W 7447   0.463   1.676  11.964 -0.2560  0.2714  0.1683
 3397W        W 7448   8.695   5.489   4.939 -0.4019  0.1006 -0.1188
 3398W        W 7449   3.104   6.419   4.756 -0.1066 -0.0840  0.0573
 3399W        W 7450   1.807   2.472  13.710  0.0979 -0.1349 -0.0672
 3400W        W 7451   5.358   3.462   3.041 -0.1097  0.0779  0.1399
 3401W        W 7452   6.588   9.762   0.003 -0.2822 -0.1660 -0.1778
 3402W        W 7453   6.028   9.401   1.432  0.2786  0.0129  0.4853
 3403W        W 7454   7.944   3.974  13.684 -0.0978 -0.1420  0.1486
 3404W        W 7455   0.969   3.827  11.095  0.5040 -0.1521  0.1912
 3405W        W 7456   6.839   1.625   4.524  0.0619 -0.1663  0.3398
 3406W        W 7457   2.700   3.442  11.180 -0.2558  0.1418  0.0190
 3407W        W 7458   7.026   5.071   4.157 -0.1905 -0.2340  0.2741
 3408W        W 7459   9.760   7.798  11.621  0.3568  0.2632  0.3026
 3409W        W 7460   2.881   5.636   4.457 -0.2399 -0.0926  0.2067
 3410W        W 7461   0.018   3.120   1.607  0.0496  0.1112  0.2461
 3411W        W 7462   3.202   7.778   1.265  0.2794 -0.1469  0.1426
 3412W        W 7463   4.482   8.960   3.257 -0.1424 -0.1406  0.0783
 3413W        W 7464   7.740   8.225   1.926  0.0441 -0.2436  0.0795
 3414W        W 7465   1.960   6.134   9.066 -0.1976 -0.3053 -0.0857
 3415W        W 7466   6.756   6.674  12.613 -0.0467  0.0457 -0.2767
 3416W        W 7467   9.758   7.587   2.756  0.0059 -0.2266 -0.1662
 3417W        W 7468   1.961   9.478  11.323 -0.1797 -0.1948  0.1632
 3418W        W 7469   2.077   3.965   4.966  0.0969 -0.1057  0.1612
 3419W        W 7470   3.369   9.193   2.735  0.1827 -0.3126  0.1196
 3420W        W 7471   3.083   4.372   1.566 -0.0818  0.1402 -0.0492
 3421W        W 7472   5.651   2.702  13.717  0.1908  0.2055 -0.0123
 3422W        W 7473   2.375   7.096   2.391 -0.1104  0.0578 -0.1957
 3423W        W 7474   3.458   4.726  10.784  0.3550 -0.1153 -0.4073
 3424W        W 7475   8.622   0.624  13.302 -0.2793  0.2063 -0.0560
 3425W        W 7476   3.142  10.036   0.688 -0.3871  0.3604 -0.1801
 3426W        W 7477   1.636   7.686  13.503 -0.1353  0.0668 -0.1481
 3427W        W 7478   8.095   3.492  13.412  0.0707  0.0649 -0.1755
 3428W        W 7479   0.238   8.037   0.631  0.1404  0.2287 -0.0680
 3429W        W 7480   3.752  10.159  11.850 -0.5430 -0.0652  0.3131
 3430W        W 7481   8.666   4.550   2.721  0.2276 -0.2032 -0.3059
 3431W        W 7482   9.407  10.070  11.028 -0.1147  0.0524  0.0754
 3432W        W 7483   6.948   8.340  10.473 -0.0691  0.1062  0.2239
 3433W        W 7484   0.710   3.919   1.181 -0.0682  0.1626 -0.1288
 3434W        W 7485   5.642   5.051   9.156 -0.1022 -0.1017 -0.0028
 3435W        W 7486   3.938   9.393   2.274  0.0661  0.2620 -0.1761
 3436W        W 7487   9.972   8.664  13.929 -0.1845  0.0602  0.1662
 3437W        W 7488   9.484   7.419   2.371  0.0692 -0.0093  0.2595
 3438W        W 7489   0.187   2.383   9.692 -0.1811 -0.2877 -0.2333
 3439W        W 7490   1.840   4.926   1.007 -0.0803 -0.2096 -0.1423
 3440W        W 7491   3.554   1.027   2.032 -0.1243  0.1043 -0.0817
 3441W        W 7492   3.964   7.307   3.766  0.2078 -0.1803  0.2699
 3442W        W 7493   5.659   6.035   3.115  0.0480 -0.0181  0.1567
 3443W        W 7494   6.039   1.744   4.461 -0.2477 -0.3186 -0.2618
 3444W        W 7495   3.388   3.624  10.190  0.2397 -0.1415 -0.1663
 3445W        W 7496   8.175   3.460   0.830  0.1558 -0.0680 -0.0010
 3446W        W 7497   2.389   9.896  10.417 -0.2239  0.0468 -0.0841
 3447W        W 7498   9.575   2.549  10.222 -0.0155 -0.0082 -0.0696
 3448W        W 7499   0.177   9.068   4.289 -0.2194 -0.1013  0.1516
 3449W        W 7500  10.112   2.467  10.145  0.0796 -0.1891  0.0883
 3450W        W 7501   2.919   1.013   0.193 -0.2042  0.1858 -0.0110
 3451W        W 7502   3.107   5.479  12.589 -0.0430  0.0726 -0.1488
 3452W        W 7503   1.876   4.892  12.246 -0.0660 -0.3160  0.0657
 3453W        W 7504   6.117   0.271  12.013 -0.2057  0.1212 -0.1864
 3454W        W 7505   3.957   9.808   3.810  0.2564 -0.0116  0.1732
 3455W        W 7506   4.942   2.867   2.735  0.1479 -0.1125  0.1361
 3456W        W 7507   5.764  10.155   9.975 -0.0675  0.1271 -0.0774
 3457W        W 7508   4.693   0.967  12.837  0.2415 -0.2727 -0.1529
 3458W        W 7509   6.135   0.711   1.656  0.1599  0.2963  0.0924
 3459W        W 7510   2.203   5.558  12.815  0.1611 -0.1904  0.0568
 3460W        W 7511   1.451   1.362   0.732 -0.1927 -0.1037  0.2961
 3461W        W 7512   1.273   8.860   1.821  0.2552  0.1578  0.0583
 3462W        W 7513   0.092   6.289  11.806  0.2964 -0.0956  0.3763
 3463W        W 7514   6.974   5.727  10.379 -0.2093 -0.1247  0.2093
 3464W        W 7515   4.609   6.432   1.536 -0.1445 -0.2191  0.0411
 3465W        W 7516   8.222   8.942  10.922 -0.0346  0.1528 -0.0269
 3466W        W 7517   4.178   9.279  12.078  0.1202  0.0497 -0.4185
 3467W        W 7518   9.020   5.003  10.484 -0.0102  0.1777  0.1307
 3468W        W 7519   2.185   5.976   1.404  0.1903 -0.0117  0.1411
 3469W        W 7520   3.251   6.886   2.625 -0.3892  0.3970 -0.3738
 3470W        W 7521   3.956   0.319  12.345  0.1421  0.1517 -0.0101
 3471W        W 7522   3.758   4.369  13.673 -0.2697  0.1143 -0.4007
 3472W        W 7523   6.622   8.776   1.424  0.1855 -0.2055 -0.1476
 3473W        W 7524   1.680   5.911   4.420 -0.0651 -0.1101  0.0536
 3474W        W 7525   6.481   6.136   3.071 -0.2700 -0.0246 -0.0288
 3475W        W 7526   0.997   1.568   0.087 -0.0738  0.3152 -0.4735
 3476W        W 7527   4.267   5.600   5.677 -0.1442 -0.5177  0.0245
 3477W        W 7528   7.051   9.292  13.335  0.0142 -0.0497 -0.1093
 3478W        W 7529   5.631   7.682  12.294  0.1754 -0.3488  0.3022
 3479W        W 7530   3.661   2.980   4.657  0.1066 -0.1371 -0.0436
 3480W        W 7531   3.791   0.931  10.506  0.1290  0.2453  0.1169
 3481W        W 7532   4.665   5.851   9.999 -0.0434 -0.1839  0.1571
 3482W        W 7533   9.546   7.865  13.712  0.2182  0.2221  0.0557
 3483W        W 7534   2.351   7.471   0.671 -0.2961 -0.1847 -0.1965
 3484W        W 7535   2.745   9.086   1.345 -0.0326 -0.0404 -0.2500
 3485W        W 7536   3.654   5.352   1.445  0.3246  0.1801 -0.2024
 3486W        W 7537   6.178   6.328   1.876  0.0105  0.0546  0.1114
 3487W        W 7538   6.989   9.274  12.442  0.2129 -0.1160  0.0875
 3488W        W 7539   7.658   2.401   2.909 -0.1259  0.0383  0.4567
 3489W        W 7540   1.447  10.152   0.268  0.0966 -0.0352 -0.3576
 3490W        W 7541   0.601   9.525   4.055  0.1119 -0.1707 -0.1682
 3491W        W 7542   7.703   0.778  10.644  0.0453  0.3721  0.1073
 3492W        W 7543   3.307   3.657   4.198  0.0949 -0.0658 -0.0221
 3493W        W 7544   2.462   9.651   0.311  0.2306 -0.1801 -0.1902
 3494W        W 7545   7.235   6.913  10.337  0.1325  0.0179 -0.2663
 3495W        W 7546   8.550   0.884  13.706 -0.1246  0.2717 -0.0532
 3496W        W 7547   5.408   8.377  13.545 -0.4576 -0.0445 -0.2948
 3497W        W 7548   8.156   9.688   2.794  0.3099 -0.1877  0.0999
 3498W        W 7549   0.661   0.974  13.517  0.1729  0.0424 -0.0639
 3499W        W 7550   4.075   5.190   1.605  0.1762  0.1082  0.1632
 3500W        W 7551   7.436   7.857  12.753  0.2478 -0.2058  0.1815
 3501W        W 7552   6.112   2.579  13.987  0.2223  0.0947 -0.1226
 3502W        W 7553   0.844   9.396   3.087  0.0166  0.4329 -0.2310
 3503W        W 7554   3.175   7.334   9.989 -0.0028  0.2100  0.3859
 3504W        W 7555   8.918   0.701   1.974 -0.0347  0.1419  0.0229
 3505W        W 7556   9.438   9.879  12.238 -0.2725 -0.2288  0.0035
 3506W        W 7557   2.952   8.916   2.533 -0.0254  0.2596 -0.1247
 3507W        W 7558   1.891   1.910   1.753 -0.3715 -0.0803  0.2037
 3508W        W 7559   9.565   1.924  11.143 -0.4268 -0.3709  0.1090
 3509W        W 7560   7.767   1.633  10.979 -0.3113  0.2942  0.0179
 3510W        W 7561   5.791   3.487   2.358  0.4023 -0.0653  0.0705
 3511W        W 7562   2.033   9.740  13.407  0.0570 -0.1150 -0.0783
 3512W        W 7563   6.593   1.001   0.808 -0.1701  0.1991  0.2723
 3513W        W 7564   9.867   2.690   1.512 -0.1508  0.0262  0.1950
 3514W        W 7565  10.081   8.887   3.808  0.2197  0.0474 -0.0445
 3515W        W 7566   4.542   1.151  13.311  0.1987  0.5608 -0.2035
 3516W        W 7567  10.017   0.827   2.511 -0.0225 -0.2867  0.0376
 3517W        W 7568   3.554   0.376   3.748 -0.0331 -0.1743  0.3696
 3518W        W 7569   3.796   2.627   1.835 -0.1221 -0.2274 -0.1032
 3519W        W 7570   7.638   6.417  12.689  0.0297 -0.0644  0.1906
 3520W        W 7571   1.511   2.691   3.388  0.0668  0.1068 -0.0365
 3521W        W 7572   6.339   6.867   0.243 -0.0927 -0.2204  0.1103
 3522W        W 7573   7.812   1.166  12.395  0.0221  0.1187  0.0811
 3523W        W 7574   7.232   6.077  12.435 -0.2288 -0.2954 -0.1774
 3524W        W 7575   7.048   1.177  10.796 -0.0490 -0.2568 -0.1194
 3525W        W 7576   4.548   7.687   0.148 -0.1151  0.1372  0.3079
 3526W        W 7577   9.085   2.174   0.176  0.3602  0.0367  0.0261
 3527W        W 7578   8.942   7.998  11.639  0.4372  0.0219  0.1884
 3528W        W 7579   1.404   9.855  12.375  0.2583 -0.1660 -0.0251
 3529W        W 7580  10.055   9.721  11.520 -0.1070  0.0322  0.2195
 3530W        W 7581   5.755   7.227  12.756 -0.0002 -0.0062  0.0040
 3531W        W 7582  10.038   3.312  13.285  0.0951 -0.0399  0.3829
 3532W        W 7583   0.483   7.811   1.520 -0.1660  0.1648  0.0486
 3533W        W 7584   6.657   8.477  10.095  0.1794 -0.0056 -0.1038
 3534W        W 7585   5.239   1.598  11.944  0.0492  0.0661  0.2573
 3535W        W 7586   0.517   2.399  12.488 -0.1004 -0.0433  0.0371
 3536W        W 7587   9.644   1.083  10.741  0.0173  0.0652 -0.0159
 3537W        W 7588   2.170   7.607  13.076 -0.3237 -0.0034  0.1649
 3538W        W 7589   2.298   9.985   9.941  0.0531  0.1476  0.1495
 3539W        W 7590   5.073   5.874  13.377 -0.2514  0.1928  0.1160
 3540W        W 7591   7.314   1.442  13.117 -0.1742 -0.2085 -0.1346
 3541W        W 7592   5.449   6.742  12.149  0.1706 -0.1409 -0.0789
 3542W        W 7593   1.192   0.795   0.207  0.3242 -0.0997 -0.1372
 3543W        W 7594   3.123   3.514  10.808  0.2126 -0.2291 -0.1527
 3544W        W 7595   1.896   3.909  12.707 -0.0520  0.2181  0.1326
 3545W        W 7596   8.979   9.399  11.024 -0.0833 -0.0567 -0.0819
 3546W        W 7597   7.112   2.424  10.109 -0.2288  0.1090  0.3274
 3547W        W 7598   8.467  10.160  10.056  0.0442 -0.1302  0.1987
 3548W        W 7599   9.872   8.993   2.816  0.1496 -0.2624 -0.0948
 3549W        W 7600   7.880   3.374  10.376  0.6283  0.1841  0.1075
 3550W        W 7601   0.711   6.818   1.380  0.0077 -0.1934  0.1102
 3551W        W 7602   3.340   2.304  10.950  0.0114  0.0238  0.3007
 3552W        W 7603   2.848   5.783   8.992 -0.1903 -0.2855 -0.1532
 3553W        W 7604   7.470   6.753   0.413 -0.2539 -0.0111 -0.0757
 3554W        W 7605   9.917   7.310  12.459  0.1175  0.0829 -0.2752
 3555W        W 7606   5.125   3.519   8.830 -0.2058  0.2398 -0.0445
 3556W        W 7607   9.392   0.820   1.810  0.0394  0.1055 -0.2394
 3557W        W 7608   5.035   3.882   0.434 -0.4560 -0.3340  0.0393
 3558W        W 7609   0.520   2.601  10.771 -0.1083  0.0230  0.0058
 3559W        W 7610   1.804   8.797  11.390 -0.0745  0.0766 -0.0472
 3560W        W 7611   4.438   9.205   0.312  0.2351 -0.0354 -0.3132
 3561W        W 7612   5.749   3.189  13.670 -0.0763  0.0319  0.2183
 3562W        W 7613   1.301   5.097  10.302 -0.3083  0.1943 -0.0779
 3563W        W 7614   2.341   1.040  12.787 -0.0100  0.1686  0.3468
 3564W        W 7615   3.508   7.589  12.712 -0.2558  0.1285  0.1200
 3565W        W 7616   6.149   5.738   9.765  0.0026 -0.0906  0.2001
 3566W        W 7617   7.720   8.376   4.228 -0.0215 -0.2279  0.1194
 3567W        W 7618   1.356   6.176   2.663 -0.1197 -0.3033 -0.0000
 3568W        W 7619   2.741   8.821  10.515  0.2065  0.0266 -0.4216
 3569W        W 7620   5.090   7.123  12.259 -0.2484  0.0620  0.1470
 3570W        W 7621   8.610   2.937  12.980 -0.0879  0.0850  0.0186
 3571W        W 7622   1.298   5.135  12.864  0.2208  0.1732  0.0562
 3572W        W 7623   2.860   2.878   9.876 -0.3960  0.0163  0.1082
 3573W        W 7624   7.219   3.994   9.137 -0.1403  0.0559  0.2223
 3574W        W 7625   7.146   0.493   0.237  0.2376  0.1591  0.1339
 3575W        W 7626   5.426   1.312   1.345 -0.0054  0.2617 -0.1455
 3576W        W 7627   6.947   6.160   9.431 -0.1285 -0.1437 -0.0654
 3577W        W 7628   5.147   0.797   9.653 -0.2546 -0.1326  0.3309
 3578W        W 7629   0.196   0.999   4.649 -0.0962  0.0912  0.0745
 3579W        W 7630   1.113   0.084   1.355  0.2268 -0.3242  0.3099
 3580W        W 7631   4.978   0.989  11.067  0.1557 -0.2360 -0.1165
 3581W        W 7632   3.097   1.318   9.417 -0.0797  0.0724 -0.1778
 3582W        W 7633   8.651   8.680  12.446  0.1306 -0.0486 -0.1111
 3583W        W 7634   3.575   2.103  11.295 -0.1994 -0.2501  0.2091
 3584W        W 7635   4.370   4.917   9.494 -0.2357 -0.1876 -0.2351
 3585W        W 7636   3.124   6.184   3.190 -0.0465 -0.3824  0.0463
 3586W        W 7637   4.892   9.830   3.456  0.0081  0.0808  0.0407
 3587W        W 7638   9.198  10.153   1.278 -0.2620 -0.1037 -0.1522
 3588W        W 7639   9.679   4.984  10.212  0.2062  0.3637 -0.0796
 3589W        W 7640   1.265  10.071  11.424  0.2165  0.1766 -0.0194
 3590W        W 7641   8.878   9.494  12.789  0.1972 -0.2109 -0.2838
 3591W        W 7642   6.113   1.381   0.067 -0.2205 -0.0763  0.0724
 3592W        W 7643   7.689   9.678   4.683  0.1586 -0.2446 -0.1900
 3593W        W 7644   3.509   4.880  13.984  0.1267  0.3446 -0.1233
 3594W        W 7645   1.564   4.655  11.326 -0.0296  0.0481 -0.4635
 3595W        W 7646  10.071   0.545  13.346 -0.1388  0.1599 -0.2671
 3596W        W 7647   6.243   4.969   5.036 -0.0839 -0.0107  0.1336
 3597W        W 7648   3.977   6.927  11.075  0.2297  0.2098 -0.1293
 3598W        W 7649   3.009   6.142   1.353  0.0277  0.0727 -0.1028
 3599W        W 7650   6.579   0.732   1.821  0.0152  0.1751 -0.4018
 3600W        W 7651   2.010   2.874   2.942  0.1992 -0.2451 -0.5514
 3601W        W 7652   1.334   5.111  11.209 -0.0941 -0.0270 -0.0341
 3602W        W 7653   3.857   8.062   1.884  0.0883  0.1285 -0.1911
 3603W        W 7654  10.045   2.942  10.113  0.3416  0.0636 -0.1431
 3604W        W 7655   7.837   7.144   3.525  0.2094 -0.1935 -0.0337
 3605W        W 7656   9.078   3.073   0.011 -0.1002  0.1342  0.0753
 3606W        W 7657   1.559   7.078   2.816 -0.0362  0.2511 -0.2062
 3607W        W 7658   1.623   9.377   2.477 -0.0754 -0.0922 -0.1404
 3608W        W 7659   3.842   5.080   9.505  0.0798 -0.0411  0.0184
 3609W        W 7660   7.095   7.692   3.185  0.1629 -0.2291  0.0097
 3610W        W 7661   7.940   1.687  12.712  0.0575 -0.1558  0.1540
 3611W        W 7662   9.127   3.572  12.364  0.1141 -0.0228  0.2264
 3612W        W 7663   9.479   0.897   4.427  0.1845 -0.0432 -0.1244
 3613W        W 7664   1.851   9.770  10.280 -0.0669  0.1427  0.3087
 3614W        W 7665   1.046   1.393   4.431 -0.0559  0.3843 -0.3005
 3615W        W 7666   5.254   3.244  10.454 -0.2021 -0.0328  0.0308
 3616W        W 7667   7.952   8.128  13.577  0.3097  0.1322 -0.1617
 3617W        W 7668   3.685   3.783  12.616  0.2179 -0.1148  0.0488
 3618W        W 7669   9.451   2.359   4.241 -0.0463  0.0024  0.0452
 3619W        W 7670   9.969   1.216   1.055 -0.1454 -0.0790  0.0475
 3620W        W 7671   1.601   6.588   2.704 -0.1020 -0.1245  0.0684
 3621W        W 7672   2.597   0.828  13.863 -0.1272 -0.2152  0.0172
 3622W        W 7673   9.296   1.351   4.586 -0.1524  0.0131 -0.2614
 3623W        W 7674   7.589   7.026  10.708  0.1434 -0.1728 -0.1589
 3624W        W 7675   0.570   7.194  13.858  0.3173  0.1747 -0.1416
 3625W        W 7676   7.168   0.419  12.865 -0.0706 -0.2829  0.1146
 3626W        W 7677   4.205   9.348   1.276  0.3362  0.0862  0.3027
 3627W        W 7678   3.585   3.797   3.315  0.0736 -0.1462  0.0155
 3628W        W 7679   2.941   1.748  10.032  0.5106 -0.0121  0.1374
 3629W        W 7680   2.727   2.176   9.603  0.2208 -0.1018 -0.3209
 3630W        W 7681   0.855   2.512   9.845  0.0519  0.1546  0.0419
 3631W        W 7682   0.459   1.911  13.824 -0.1978 -0.1062  0.2160
 3632W        W 7683   1.997   4.351   0.714  0.0582  0.1793 -0.4058
 3633W        W 7684   4.496   1.755  13.614 -0.3892 -0.2859  0.1678
 3634W        W 7685   2.334   9.221   2.047 -0.1649  0.1092  0.0578
 3635W        W 7686   7.697   8.266  10.488 -0.1349  0.0798 -0.0759
 3636W        W 7687   7.683   2.957  13.213 -0.1622 -0.4617 -0.0613
 3637W        W 7688   6.619   4.417  12.658  0.0947 -0.3511  0.1944
 3638W        W 7689   2.182   1.919   0.127 -0.1276  0.1100 -0.1098
 3639W        W 7690   2.931   9.823   4.792 -0.3575 -0.0435 -0.1081
 3640W        W 7691   5.062   6.637  11.733 -0.2214 -0.1593  0.0339
 3641W        W 7692   6.115   0.305  11.272  0.0075  0.3746 -0.1108
 3642W        W 7693   8.104   1.425  10.272  0.1741  0.0919 -0.3867
 3643W        W 7694   6.039   5.012  13.539 -0.2780  0.1650  0.0956
 3644W        W 7695   1.711   8.801  13.251 -0.1327 -0.0900  0.1441
 3645W        W 7696   1.032   5.912  13.429 -0.1036 -0.0848  0.1092
 3646W        W 7697   0.991   9.846   3.416 -0.0990 -0.3633 -0.0074
 3647W        W 7698   4.227   4.645   4.763  0.0597  0.2346  0.0272
 3648W        W 7699   0.424   4.924   9.888  0.0509  0.2463 -0.1948
 3649W        W 7700   6.028   6.387   3.172  0.1931  0.1389  0.2626
 3650W        W 7701   6.511   6.068   9.736  0.4161 -0.1142 -0.3007
 3651W        W 7702   4.053   4.709   0.681 -0.3222  0.1220 -0.0375
 3652W        W 7703   5.751   9.738   1.804  0.0099  0.1796  0.0576
 3653W        W 7704   6.327   9.994  12.725 -0.0023  0.1695 -0.3217
 3654W        W 7705   1.603   8.565  12.262  0.1499 -0.2024  0.3455
 3655W        W 7706   8.869   0.058   9.651 -0.1213 -0.2192  0.0201
 3656W        W 7707   3.637   1.003  11.023 -0.1639  0.1200 -0.0780
 3657W        W 7708   1.691   3.502   5.085  0.0624 -0.1485  0.0789
 3658W        W 7709   1.319   4.201  11.302  0.0581 -0.2357 -0.2251
 3659W        W 7710   9.595   3.030   9.916  0.1191  0.2614  0.0793
 3660W        W 7711   1.219   1.014   3.594  0.1982  0.0214  0.1252
 3661W        W 7712   6.878   4.921   2.607 -0.0367  0.2478  0.0600
 3662W        W 7713   5.879   7.056  10.625 -0.0457  0.2713  0.1909
 3663W        W 7714   2.466   2.472   3.026 -0.0271  0.0446 -0.1486
 3664W        W 7715   1.292   8.129   0.744  0.0670 -0.1633  0.2036
 3665W        W 7716   0.089   7.831   0.104 -0.2931  0.0662  0.0967
 3666W        W 7717   4.142   4.065  11.813 -0.3687  0.3521  0.3736
 3667W        W 7718   0.492   6.143  12.394 -0.0880  0.1062 -0.0601
 3668W        W 7719   7.676   3.981   4.681 -0.3596  0.1448 -0.0997
 3669W        W 7720   4.966   4.340  12.992  0.1165 -0.0848  0.0024
 3670W        W 7721   2.233   6.034  10.303  0.4040  0.1856  0.1240
 3671W        W 7722   7.947   1.474   0.121  0.3272  0.5459  0.0970
 3672W        W 7723   9.499   4.486  12.958 -0.0303 -0.0120 -0.1580
 3673W        W 7724   1.090   8.908   3.214  0.0791 -0.0484 -0.1551
 3674W        W 7725   1.321   6.848   0.969  0.2443 -0.4576  0.0460
 3675W        W 7726   5.912   1.244   4.389 -0.0199  0.0192  0.2051
 3676W        W 7727   5.249   7.357   4.039  0.1289 -0.0750 -0.0285
 3677W        W 7728   6.586   0.365   0.620  0.1509  0.0618 -0.1757
 3678W        W 7729   4.906   1.037   4.482  0.1064  0.0476 -0.0770
 3679W        W 7730   3.216   4.635   0.279 -0.0318 -0.0319  0.3617
 3680W        W 7731   3.483   6.645   4.461 -0.0486  0.4634  0.1093
 3681W        W 7732   6.701   3.846   9.286  0.4493 -0.1873 -0.0803
 3682W        W 7733   4.565   3.725  11.666 -0.1972  0.3659 -0.0629
 3683W        W 7734   4.268   6.127  10.431 -0.2099 -0.3321 -0.0923
 3684W        W 7735   2.881   9.590  12.881  0.2206  0.0084  0.3139
 3685W        W 7736   5.500   1.685   9.937  0.1590 -0.2548  0.0908
 3686W        W 7737   0.451   2.260   5.059  0.0430 -0.2735  0.1238
 3687W        W 7738   9.777   2.986  12.617 -0.1562 -0.0454  0.3186
 3688W        W 7739   1.488   3.615   2.102 -0.1251  0.0842  0.0246
 3689W        W 7740   2.810   6.745  10.838 -0.2117 -0.0567 -0.0025
 3690W        W 7741   5.207   1.433   3.602 -0.2300 -0.1204 -0.1249
 3691W        W 7742   6.603   2.099   1.522  0.3307  0.2971 -0.0833
 3692W        W 7743   9.859   3.443  10.087  0.1795 -0.1315  0.1660
 3693W        W 7744   6.420   5.441  10.575  0.0739 -0.2137  0.2841
 3694W        W 7745   5.203   2.323   1.944  0.2234 -0.1541  0.0570
 3695W        W 7746   3.059   5.917   4.840 -0.0532 -0.0515  0.1772
 3696W        W 7747   4.975   0.702   5.217 -0.2011  0.0418 -0.0645
 3697W        W 7748   3.331   1.806  10.629  0.1820  0.0207  0.1783
 3698W        W 7749   2.241   0.352   2.109  0.2605 -0.1590 -0.1736
 3699W        W 7750   2.134   3.512  10.049 -0.0374 -0.0715  0.2008
 3700W        W 7751   2.534   2.382   2.099 -0.0878 -0.0398  0.1448
 3701W        W 7752   9.497   5.148   9.702 -0.0244 -0.0728 -0.2758
 3702W        W 7753   6.582   4.469   2.701  0.1059  0.1304  0.4629
 3703W        W 7754   5.878   9.910  10.576 -0.2410 -0.2929  0.4424
 3704W        W 7755   5.979   3.989  11.729  0.0714  0.1601 -0.0928
 3705W        W 7756   0.035   1.778   8.725  0.3294  0.1221 -0.0361
 3706W        W 7757   6.309   8.032   2.602  0.1928 -0.2229 -0.1812
 3707W        W 7758   0.536   5.191   1.617 -0.1861  0.0478 -0.1112
 3708W        W 7759   2.067  10.138  10.758  0.1054 -0.1054  0.3090
 3709W        W 7760   8.381   0.744   2.112  0.0630  0.1444 -0.0888
 3710W        W 7761   4.593   9.715   3.087 -0.0389 -0.0179 -0.0842
 3711W        W 7762   5.231  10.011   9.899 -0.0490  0.3266 -0.2522
 3712W        W 7763   6.868   8.220   3.666 -0.2329  0.0921  0.0330
 3713W        W 7764   7.543   4.077   1.272 -0.2634  0.1585  0.0410
 3714W        W 7765   7.401   2.253   3.310  0.1731 -0.2233  0.1931
 3715W        W 7766   2.352   8.246   3.237 -0.0499  0.1600  0.1750
 3716W        W 7767   1.856   4.432   3.624  0.1120  0.0846 -0.0863
 3717W        W 7768   3.012   8.799   3.492  0.2444 -0.1174 -0.2733
 3718W        W 7769   6.395   4.594  11.385 -0.1154 -0.5510  0.3374
 3719W        W 7770   2.254   5.173   3.485  0.0223  0.3494  0.2261
 3720W        W 7771   8.081   5.613  13.190  0.0725 -0.1196 -0.0987
 3721W        W 7772   2.151   6.018   3.079 -0.0843  0.0356  0.0420
 3722W        W 7773   4.664   4.791   2.383  0.1177  0.5104  0.1152
 3723W        W 7774   5.733   6.609   0.102 -0.0562 -0.0380 -0.0732
 3724W        W 7775   8.487   6.394   5.034 -0.3238 -0.2595 -0.3582
 3725W        W 7776   3.947   6.982  10.595  0.1166 -0.0183  0.0620
 3726W        W 7777   0.342   2.534   3.338 -0.1770 -0.0443  0.1491
 3727W        W 7778   6.579   1.634   1.076 -0.1212  0.0463  0.0730
 3728W        W 7779   1.050   5.037   3.287  0.0252  0.0671  0.1362
 3729W        W 7780   5.252   3.483   0.241 -0.0751 -0.1090 -0.3378
 3730W        W 7781   9.018   5.018   3.023 -0.1465  0.2836 -0.5187
 3731W        W 7782   8.534   0.401   9.608 -0.2052  0.0715  0.0322
 3732W        W 7783   3.322   2.877  10.097  0.0856  0.1634  0.1592
 3733W        W 7784   4.440   4.569  12.958  0.0442  0.3969  0.2450
 3734W        W 7785   3.824   5.029   3.080 -0.1835  0.2463 -0.0032
 3735W        W 7786   6.107   4.101  10.748 -0.1725 -0.0815 -0.3476
 3736W        W 7787   1.756   2.183   0.191  0.0700 -0.0403 -0.0283
 3737W        W 7788   9.021   2.541   3.293  0.0373 -0.1546 -0.1925
 3738W        W 7789   2.285   6.629   3.747 -0.2731  0.0103  0.2234
 3739W        W 7790   2.242   1.023   0.233 -0.0673 -0.1465 -0.0763
 3740W        W 7791   7.454   0.368   0.608  0.0340  0.3746  0.2278
 3741W        W 7792   4.793   9.694   5.236 -0.3093 -0.1746 -0.1856
 3742W        W 7793   8.035   1.227   2.220 -0.1835  0.1240  0.1540
 3743W        W 7794   9.112   0.542  13.017  0.1310  0.0259 -0.0402
 3744W        W 7795   1.901   3.035   4.256  0.1521  0.0843 -0.1325
 3745W        W 7796   2.315   0.525  12.698  0.2343 -0.0777 -0.1742
 3746W        W 7797   5.126   4.566   5.370 -0.2984 -0.2101 -0.0901
 3747W        W 7798   1.818   6.040  11.946 -0.1162 -0.0870  0.3434
 3748W        W 7799   0.317   2.158   3.731  0.3298  0.0010  0.2185
 3749W        W 7800   9.854   9.618  12.474  0.2951 -0.2023  0.1726
 3750W        W 7801   7.423   5.814   0.727 -0.3033 -0.2421  0.1378
 3751W        W 7802   1.911   6.946   9.422 -0.0330  0.4385 -0.2899
 3752W        W 7803   1.254   5.806  11.210 -0.1102  0.1203  0.0006
 3753W        W 7804   7.898   3.835   0.597 -0.4157  0.0838  0.0472
 3754W        W 7805   6.432   4.202   8.954 -0.1042  0.0799 -0.1430
 3755W        W 7806   2.551   3.147   4.871  0.2962  0.0718  0.2266
 3756W        W 7807   4.553   0.046  11.146  0.1181 -0.2343 -0.2549
 3757W        W 7808   0.451   9.911  12.905  0.2271 -0.1414 -0.0836
 3758W        W 7809   6.730   4.226   3.570  0.1535  0.0017  0.1230
 3759W        W 7810   7.226   5.959   3.514  0.0547  0.1561  0.3740
 3760W        W 7811   0.922   0.654  11.835  0.1279 -0.0875  0.1008
 3761W        W 7812   2.771   7.271  12.552 -0.1065  0.1048 -0.1134
 3762W        W 7813   7.585   4.657   3.256  0.2383 -0.1278  0.1758
 3763W        W 7814   2.753   3.261   1.104 -0.0012  0.0278 -0.1457
 3764W        W 7815   1.045   2.700  11.508 -0.2072 -0.0530 -0.0630
 3765W        W 7816   7.827   4.441   4.457  0.4347  0.1049  0.1867
 3766W        W 7817   1.902   1.413   1.412 -0.0540 -0.2558  0.0289
 3767W        W 7818   2.761   1.193   3.055 -0.1217 -0.0901  0.0231
 3768W        W 7819   7.298   7.843   2.089 -0.1850  0.1991 -0.5402
 3769W        W 7820   7.618   6.544   2.015 -0.2721  0.1609 -0.1209
 3770W        W 7821   4.719   0.057   3.088 -0.0117  0.1537 -0.1398
 3771W        W 7822   2.543   7.977   0.513  0.1077 -0.0492  0.0062
 3772W        W 7823   4.812   5.941   1.494  0.0293 -0.1134  0.1341
 3773W        W 7824   6.673   9.831  11.760  0.1952  0.1573 -0.3631
 3774W        W 7825   6.917   5.782   3.190  0.3622 -0.0406 -0.1508
 3775W        W 7826   2.052   7.428   2.169  0.4574  0.1486  0.0040
 3776W        W 7827   9.339   9.305  11.560 -0.0840 -0.1156 -0.2956
 3777W        W 7828   8.141   6.587  13.533 -0.1532  0.0964 -0.1091
 3778W        W 7829   3.280   4.549  13.726  0.0095 -0.2219  0.1115
 3779W        W 7830   0.160   2.997   3.325  0.1846  0.0843 -0.1163
 3780W        W 7831   3.273   6.440  12.818 -0.2863 -0.1858  0.2710
 3781W        W 7832   9.181   3.901   9.485  0.0618 -0.0077 -0.2779
 3782W        W 7833   4.078   2.312  10.573  0.0258 -0.0220 -0.1068
 3783W        W 7834   4.572   5.591  11.500  0.0640  0.1408  0.2063
 3784W        W 7835   5.265   8.451   9.764  0.1552  0.4957  0.1778
 3785W        W 7836   8.945   0.179   0.743  0.0387  0.2093  0.1571
 3786W        W 7837   6.471   8.237   3.146  0.0703  0.1997  0.1256
 3787W        W 7838   9.389   1.407  13.427  0.1347 -0.0076  0.1069
 3788W        W 7839   0.593   8.485   2.021 -0.0601 -0.1006 -0.1477
 3789W        W 7840   9.782   4.031   1.279 -0.0607  0.0440 -0.1082
 3790W        W 7841   5.924   7.952  10.519 -0.1018 -0.1469 -0.0571
 3791W        W 7842   6.750   0.728   9.989  0.3827 -0.1768 -0.3552
 3792W        W 7843   3.450   8.955   4.618  0.0062  0.0249  0.1997
 3793W        W 7844   7.534   5.555   8.921 -0.2251 -0.0095 -0.0142
 3794W        W 7845   1.442   1.325  11.703 -0.0790 -0.1288  0.0207
 3795W        W 7846   3.532   5.808   4.587  0.0668  0.0225  0.2615
 3796W        W 7847   0.908   2.885  10.921 -0.0338  0.0990 -0.1837
 3797W        W 7848   0.178   3.131  11.430 -0.2518  0.3219 -0.0149
 3798W        W 7849   8.955   1.675   1.607 -0.3182  0.4305  0.3678
 3799W        W 7850   7.928   2.086   4.203  0.0422  0.3198 -0.2247
 3800W        W 7851   6.241   4.667   1.968  0.4470 -0.0922 -0.2554
 3801W        W 7852   0.543   0.876   3.772 -0.2083 -0.1829 -0.1735
 3802W        W 7853   7.318   8.203   0.192  0.1350  0.0075  0.0853
 3803W        W 7854   5.380   6.345  13.778  0.2671  0.0161  0.0222
 3804W        W 7855   9.347   2.395   2.247 -0.0392 -0.0445 -0.2824
 3805W        W 7856   2.733   0.187   2.948 -0.0527 -0.1480  0.2345
 3806W        W 7857   8.269   6.880  10.414 -0.1282 -0.3692  0.1278
 3807W        W 7858   7.276   2.579   3.742 -0.0962 -0.0564 -0.0080
 3808W        W 7859   2.341   1.388  13.210  0.1846  0.0171  0.0128
 3809W        W 7860   6.242   1.638  10.564 -0.2124  0.0419  0.0405
 3810W        W 7861   8.190   0.912   3.109 -0.2308 -0.2670  0.0999
 3811W        W 7862   8.038   5.857  11.400  0.3549 -0.0625 -0.3279
 3812W        W 7863   9.534   3.086  11.749 -0.0556 -0.1023 -0.0744
 3813W        W 7864   6.075   4.063   0.340  0.0204 -0.2711  0.3383
 3814W        W 7865   9.936   8.681   1.995  0.1558 -0.3115 -0.1857
 3815W        W 7866   2.764   0.595  10.098 -0.2096 -0.0051 -0.3120
 3816W        W 7867   2.165   3.715  13.497 -0.1488  0.0811 -0.0172
 3817W        W 7868   5.359   0.427  10.624  0.2470  0.0473 -0.0982
 3818W        W 7869   4.309   8.189   5.399 -0.4115 -0.1245  0.3076
 3819W        W 7870   8.856   1.802   4.575  0.0326 -0.0603  0.0071
 3820W        W 7871   5.134   9.223   0.826 -0.0426 -0.1771  0.0704
 3821W        W 7872  10.012   9.305   9.981 -0.0156 -0.1458  0.1322
 3822W        W 7873   8.473   3.982  12.085  0.1752 -0.0312  0.2809
 3823W        W 7874   4.687   1.477   9.668  0.2422 -0.2313  0.3041
 3824W        W 7875   7.519   3.137   2.641 -0.2087 -0.1158 -0.0163
 3825W        W 7876   4.106   3.525  11.245  0.1050 -0.0099 -0.4348
 3826W        W 7877   7.379   1.949   2.814  0.1540 -0.2395  0.1809
 3827W        W 7878   0.013   0.741   4.180 -0.0388  0.2327  0.0039
 3828W        W 7879   5.438   9.289  12.629  0.0352  0.0467 -0.0692
 3829W        W 7880   3.616   6.532  11.368 -0.0427  0.2705  0.0698
 3830W        W 7881   7.659   0.059   3.401  0.2040  0.2451 -0.0773
 3831W        W 7882   3.390   7.750  11.182  0.1842  0.2968  0.0555
 3832W        W 7883   8.098   1.375   2.783 -0.1809  0.1869 -0.0638
 3833W        W 7884   5.241   2.482  11.881  0.0413  0.1032 -0.0411
 3834W        W 7885   0.861   4.210   1.652  0.1440 -0.0407  0.2392
 3835W        W 7886   1.162   6.527   4.497 -0.1361  0.1058 -0.0397
 3836W        W 7887   0.559   5.254   9.478  0.0957  0.1499 -0.1053
 3837W        W 7888   0.950   1.218   2.807  0.2666 -0.4744 -0.0849
 3838W        W 7889   8.784   8.088  12.526 -0.2392  0.1049 -0.0741
 3839W        W 7890   5.927   1.123  11.498 -0.0349  0.0445 -0.1355
 3840W        W 7891   3.777   8.489   1.009 -0.1182 -0.2017 -0.0517
 3841W        W 7892   9.780   9.302   3.682  0.0062  0.0062  0.2395
 3842W        W 7893   3.706   9.340  10.386 -0.0191 -0.0514 -0.2131
 3843W        W 7894   0.795   3.078  13.677 -0.2869 -0.1841 -0.2440
 3844W        W 7895   3.776   2.752  10.363  0.2251 -0.2408  0.4080
 3845W        W 7896   4.215   5.200   4.617  0.1711  0.0799 -0.1760
 3846W        W 7897  10.138   8.052  10.281 -0.3216  0.0132 -0.2433
 3847W        W 7898   6.685   8.528   3.967  0.0661  0.1557  0.1925
 3848W        W 7899   3.727   7.217   4.230  0.1737 -0.1609 -0.1777
 3849W        W 7900   1.249   7.792  13.737 -0.0614  0.0611 -0.1284
 3850W        W 7901   4.892   0.207   4.921  0.0442  0.0845  0.2519
 3851W        W 7902   1.931   3.182   2.077 -0.0248 -0.0337 -0.1057
 3852W        W 7903   8.033   2.412   2.054 -0.0068  0.3013 -0.4362
 3853W        W 7904   5.033   9.676  11.937  0.1616 -0.1904 -0.3155
 3854W        W 7905   4.555   7.448  12.062 -0.1005 -0.3082  0.2829
 3855W        W 7906   0.198   6.615   1.361  0.2775 -0.0689  0.0994
 3856W        W 7907   7.635   1.358   0.939  0.0481  0.0643  0.0036
 3857W        W 7908   3.211   8.649  12.198  0.3812  0.0510  0.0564
 3858W        W 7909   2.926   9.173   3.035  0.2030  0.0040 -0.1252
 3859W        W 7910   3.368   8.829   1.182 -0.2033  0.3312  0.0866
 3860W        W 7911   3.360   1.321  10.677  0.2928  0.3601 -0.2524
 3861W        W 7912   2.044   7.242  11.608  0.0131 -0.0976 -0.0943
 3862W        W 7913   4.679   8.795   0.131 -0.0382  0.0240 -0.1648
 3863W        W 7914   3.501   7.620  13.919  0.1373 -0.0170  0.0630
 3864W        W 7915   1.476   7.687   0.141 -0.0721 -0.1803 -0.0834
 3865W        W 7916   9.812   9.849  10.785 -0.1406 -0.0988  0.2557
 3866W        W 7917   4.076   8.277  12.386  0.0266 -0.0169  0.3302
 3867W        W 7918   9.033   0.012  12.209 -0.1897  0.5782 -0.0648
 3868W        W 7919   9.558   2.155  12.089  0.1770 -0.1128  0.0500
 3869W        W 7920   4.791   7.993   2.936 -0.1292  0.0047  0.0487
 3870W        W 7921   8.479   9.387   3.857  0.1836 -0.2474  0.1456
 3871W        W 7922   5.500   6.486   1.436  0.0899 -0.3462 -0.1928
 3872W        W 7923   8.604   4.969   0.454  0.0578  0.1346 -0.1381
 3873W        W 7924   8.978   1.080  13.005 -0.0906 -0.1405 -0.3513
 3874W        W 7925   3.129   6.604  11.172 -0.0194 -0.0894 -0.1724
 3875W        W 7926   9.138   3.663  12.910 -0.0011 -0.0019  0.1085
 3876W        W 7927   8.425   7.632  11.485  0.0051  0.2540  0.0330
 3877W        W 7928   5.493   0.979   9.366 -0.4043 -0.2128 -0.3248
 3878W        W 7929   2.038   5.047  13.636 -0.0718  0.2566  0.0766
 3879W        W 7930   6.843   4.641   3.179  0.2553 -0.5066  0.1497
 3880W        W 7931  10.088   2.468   1.072  0.0931 -0.1456 -0.0936
 3881W        W 7932   7.585   0.713   0.197 -0.2696  0.2479 -0.0382
 3882W        W 7933   6.487   8.010  10.287  0.0430  0.1008 -0.3399
 3883W        W 7934   1.461   7.017  12.943  0.0456 -0.0960  0.0472
 3884W        W 7935   4.005   3.178   1.845 -0.3566 -0.0551  0.1597
 3885W        W 7936   0.786   9.750   1.177 -0.0594  0.1572 -0.0008
 3886W        W 7937   4.017   6.544   2.271 -0.0861 -0.0709  0.0822
 3887W        W 7938   5.768   4.062  10.268 -0.0785 -0.0282 -0.4990
 3888W        W 7939   4.026   1.639  13.762  0.0682 -0.1462  0.2886
 3889W        W 7940   0.391   8.391  11.082 -0.1235  0.0920 -0.1473
 3890W        W 7941   0.211   4.699   2.339  0.0647 -0.0136  0.0349
 3891W        W 7942   3.097   5.061  13.737 -0.0767 -0.1384  0.2908
 3892W        W 7943   6.502   9.183  12.417 -0.0854 -0.1431  0.2107
 3893W        W 7944   2.445   1.214   1.949 -0.1855 -0.3128 -0.3423
 3894W        W 7945   4.033   8.713   3.881  0.1091  0.1131  0.2763
 3895W        W 7946   7.745   2.390  12.927  0.0818  0.2422  0.0515
 3896W        W 7947   3.697   1.937   2.430 -0.0357 -0.2462 -0.1984
 3897W        W 7948   3.407   4.280  10.454  0.2197 -0.2117 -0.1173
 3898W        W 7949   3.206   7.298   1.306  0.2011 -0.1163  0.1463
 3899W        W 7950   5.188   6.581   3.478  0.1445 -0.0716  0.0280
 3900W        W 7951   8.163  10.161   3.503  0.1125 -0.0193  0.0151
 3901W        W 7952   3.087   2.322  10.009 -0.0013  0.1127 -0.1596
 3902W        W 7953   0.641   5.439  13.395  0.0431  0.0252  0.0053
 3903W        W 7954   5.427   7.944   4.829  0.1826 -0.1046  0.0463
 3904W        W 7955   4.436   5.782  11.972  0.1288  0.2142 -0.0393
 3905W        W 7956   4.137   9.777  12.141  0.1251  0.4199  0.4099
 3906W        W 7957   1.820   6.915  10.630 -0.4560  0.0610 -0.2915
 3907W        W 7958   6.044   8.619   1.865  0.0004  0.2280 -0.0533
 3908W        W 7959   2.786   4.464   0.444  0.2970  0.3176 -0.0003
 3909W        W 7960   0.011   4.791  13.488 -0.3379  0.0204  0.0639
 3910W        W 7961   0.382   2.466   4.626 -0.0226  0.0998  0.0703
 3911W        W 7962   5.482   0.788  12.258 -0.2288 -0.1296  0.2389
 3912W        W 7963   4.888   3.638  10.206 -0.0285  0.1327  0.2119
 3913W        W 7964   7.447   8.888  11.256  0.1125  0.2931  0.2305
 3914W        W 7965   4.361   9.915   0.876 -0.1508 -0.1193 -0.1820
 3915W        W 7966   3.141   3.382  11.301  0.1018 -0.0898  0.5580
 3916W        W 7967   6.028   8.177   2.203  0.1802  0.2080  0.3428
 3917W        W 7968   2.351   4.732  13.369  0.2490 -0.2297  0.1330
 3918W        W 7969   6.845   5.392  10.769 -0.1105  0.1129  0.1042
 3919W        W 7970   2.225   2.462   0.142 -0.2045  0.0949  0.1494
 3920W        W 7971   5.837   0.051   3.546 -0.1151  0.0726  0.2004
 3921W        W 7972   7.103   5.067  10.469 -0.2857 -0.2898 -0.0464
 3922W        W 7973   1.548   7.066  11.631  0.0990  0.0460 -0.0882
 3923W        W 7974   1.044   2.223   2.105  0.3873 -0.0714  0.3047
 3924W        W 7975   7.858   4.545   9.669  0.0943 -0.0878 -0.2918
 3925W        W 7976   6.730   8.362   4.732  0.1279  0.1315  0.4155
 3926W        W 7977   3.921   8.781   4.816  0.1086 -0.0420 -0.1381
 3927W        W 7978   4.341   1.576   5.715 -0.1522 -0.1725  0.3300
 3928W        W 7979   0.745   6.753   3.541  0.0642  0.2563  0.0622
 3929W        W 7980   3.663   3.582   5.568 -0.1322 -0.1818  0.2673
 3930W        W 7981   5.851   5.214   0.742  0.0411 -0.1845 -0.0319
 3931W        W 7982   1.151   4.623  12.995  0.2438  0.2518  0.2467
 3932W        W 7983   3.640   8.966  10.695 -0.1410 -0.1376  0.0150
 3933W        W 7984   7.210   3.309   4.074 -0.1836  0.2147  0.2796
 3934W        W 7985   2.173   5.690  12.046  0.3371  0.1330  0.2510
 3935W        W 7986   9.747   3.244   2.038  0.2141 -0.1186 -0.2562
 3936W        W 7987   0.001   5.757  10.653 -0.2074 -0.0931 -0.1481
 3937W        W 7988   1.708   7.692   3.772  0.0719  0.1784  0.1939
 3938W        W 7989   8.657   9.737  11.224  0.0205 -0.1194 -0.2046
 3939W        W 7990   0.986   2.101   4.938 -0.0182 -0.4212  0.3599
 3940W        W 7991   2.182   5.480  13.844  0.2436  0.0906 -0.1956
 3941W        W 7992   2.355   2.301  13.006  0.0464 -0.0392 -0.3205
 3942W        W 7993   6.673   2.646  11.547  0.1577 -0.1342 -0.3899
 3943W        W 7994   1.845   5.910  11.088  0.2384  0.2459  0.4090
 3944W        W 7995   1.912   2.360   2.873  0.1402  0.1589 -0.0024
 3945W        W 7996   0.593   9.937  10.247  0.2694 -0.0078 -0.0817
 3946W        W 7997   8.429   2.370  12.124  0.2544 -0.0418  0.0904
 3947W        W 7998   9.228   0.865  10.443  0.0737  0.2518  0.0108
 3948W        W 7999  10.153   1.762  10.523 -0.0153 -0.0512 -0.0793
 3949W        W 8000   0.763   9.745   1.691 -0.3423 -0.3069  0.1128
 3950W        W 8001   5.720   3.699  12.025  0.0370 -0.0231  0.0366
 3951W        W 8002   6.135   7.964  11.773 -0.2020  0.0892 -0.1498
 3952W        W 8003   1.913   5.371   3.760  0.3074 -0.1044  0.1601
 3953W        W 8004   0.703   0.019  11.731 -0.0465  0.0666  0.1201
 3954W        W 8005   6.323   4.167   1.761  0.1922  0.2984 -0.0781
 3955W        W 8006   7.999   3.656   2.008  0.3391  0.0198  0.0098
 3956W        W 8007   7.930   3.801   4.248  0.2322  0.1044 -0.0009
 3957W        W 8008   5.104   9.334  10.989 -0.2010  0.2205 -0.0204
 3958W        W 8009   5.514   1.221   3.976  0.3035 -0.1760 -0.1366
 3959W        W 8010   2.864   4.046   0.735 -0.1644 -0.2073 -0.0670
 3960W        W 8011   0.283   5.761  12.594 -0.1099  0.0711 -0.0013
 3961W        W 8012   8.163   6.574   0.501  0.3511 -0.0367 -0.1015
 3962W        W 8013   4.641   6.359   3.633  0.2286 -0.0395 -0.1636
 3963W        W 8014   6.852   4.723   3.775  0.1829  0.0726  0.0481
 3964W        W 8015   4.185   4.916  12.049  0.1300 -0.2453  0.0458
 3965W        W 8016   3.731   8.951   2.139  0.1752 -0.0411 -0.0089
 3966W        W 8017   9.767   4.593   0.652  0.0345 -0.0747 -0.2290
 3967W        W 8018   5.161   0.329  13.423 -0.0889 -0.0040 -0.2606
 3968W        W 8019   1.787   8.136  13.822 -0.1112 -0.1691  0.0144
 3969W        W 8020   2.244   4.248  13.513 -0.1398  0.4402  0.0302
 3970W        W 8021   0.708   7.311   2.249  0.1965 -0.3403  0.0963
 3971W        W 8022   7.169   0.478  11.940 -0.2215  0.1560 -0.0426
 3972W        W 8023   2.782   1.060  11.403  0.0739 -0.0798 -0.1127
 3973W        W 8024   1.899   0.664  13.667 -0.1554  0.3268 -0.2755
 3974W        W 8025   6.222   2.149   5.143 -0.0086 -0.1544  0.1687
 3975W        W 8026   3.177   0.973   3.705  0.1766  0.0629 -0.0572
 3976W        W 8027   1.579   8.868   0.594  0.0515  0.0205 -0.0672
 3977W        W 8028   2.461   3.076   9.675  0.2605 -0.0652 -0.2692
 3978W        W 8029   6.340   4.966   1.543  0.4234 -0.0618  0.2151
 3979W        W 8030   4.428   4.940  13.307 -0.0793  0.2760  0.1653
 3980W        W 8031   7.502   6.605  11.250 -0.0595 -0.4623  0.1490
 3981W        W 8032   8.412   0.634   3.487 -0.0314 -0.0353  0.0473
 3982W        W 8033   4.135   3.144  10.425  0.2659 -0.0599  0.1194
 3983W        W 8034   2.876   4.929   1.398  0.2047  0.1842  0.0747
 3984W        W 8035   9.337   3.532  11.626  0.2245  0.1974 -0.1504
 3985W        W 8036   6.108   1.960  12.568 -0.0663  0.0228  0.1461
 3986W        W 8037   1.133   5.678   2.839  0.3544 -0.1937  0.0178
 3987W        W 8038   9.436   4.404  11.017 -0.0479 -0.1896 -0.2009
 3988W        W 8039   7.408   2.407  13.443  0.2563 -0.0482 -0.0321
 3989W        W 8040   2.280   0.273   9.409  0.0307 -0.0413  0.5889
 3990W        W 8041   4.062   7.633   2.586 -0.0476 -0.1761  0.2803
 3991W        W 8042   5.631   6.051   3.615  0.1593  0.0222  0.3225
 3992W        W 8043   2.608   0.016   4.807  0.0957 -0.1477  0.0028
 3993W        W 8044   9.987   0.598   1.098 -0.2785  0.0262 -0.2698
 3994W        W 8045   0.628   8.562  13.631  0.1888  0.0211  0.2724
 3995W        W 8046   5.599   7.997  13.192  0.0860 -0.2063  0.3141
 3996W        W 8047   7.779  10.120   9.311 -0.3570 -0.0103  0.1564
 3997W        W 8048   1.030   1.189  12.584  0.2095  0.1112  0.1488
 3998W        W 8049   9.055   6.632   1.665  0.2161 -0.2830  0.0537
 3999W        W 8050   3.721   8.600  12.246  0.0697  0.0027  0.2178
 4000W        W 8051   5.977   4.368   3.973 -0.0243 -0.1707 -0.0372
 4001W        W 8052   7.987   8.836   9.940 -0.0499  0.1630 -0.0792
 4002W        W 8053   6.477   8.885  11.143 -0.1373  0.0068 -0.0595
 4003W        W 8054   5.649   8.728   9.767  0.2349  0.1627  0.1594
 4004W        W 8055   7.897   0.954   9.183  0.1443  0.0233  0.1687
 4005W        W 8056   2.110   4.844   3.864 -0.1972 -0.0302 -0.4215
 4006W        W 8057   9.619   3.456   3.119  0.1353 -0.2606 -0.0426
 4007W        W 8058   9.087   4.712  11.893  0.1000  0.2214  0.0015
 4008W        W 8059  10.127   8.480  10.507  0.1871 -0.0016  0.0294
 4009W        W 8060   9.685   5.420   4.603  0.1145 -0.5967  0.5764
 4010W        W 8061   7.061   2.374  13.043  0.1896 -0.0349  0.1469
 4011W        W 8062   3.358   0.291   4.296  0.2253  0.0307 -0.0884
 4012W        W 8063   1.572   4.814   3.992 -0.3936  0.0507  0.1336
 4013W        W 8064   8.225   6.816   2.599  0.1095  0.3746 -0.1786
 4014W        W 8065   7.400  10.128   0.268  0.1994  0.0353 -0.1265
 4015W        W 8066   8.621   1.319  10.469  0.3448 -0.0854 -0.1195
 4016W        W 8067   4.768   4.305   0.980  0.3106  0.3917 -0.0395
 4017W        W 8068   0.087   8.079   3.100 -0.3039  0.1731 -0.0785
 4018W        W 8069   4.275   2.998  12.515  0.2349  0.0372 -0.1621
 4019W        W 8070   4.520   0.071  10.318 -0.4558 -0.1608  0.2926
 4020W        W 8071   5.014   1.931   4.991  0.0955 -0.0346 -0.0493
 4021W        W 8072   7.348   2.584   2.475  0.0030 -0.0355 -0.0457
 4022W        W 8073   1.902   9.435   3.514  0.0620  0.1882  0.3268
 4023W        W 8074   6.792   9.393  11.545  0.2143  0.1245  0.1572
 4024W        W 8075   4.376   1.105   0.430 -0.0800 -0.2345  0.1445
 4025W        W 8076   6.222   8.798  12.448  0.2480  0.2490 -0.3609
 4026W        W 8077   2.549   5.161   0.531  0.2412  0.0582 -0.1010
 4027W        W 8078   6.157   9.667  10.257 -0.0455 -0.2084  0.1033
 4028W        W 8079   7.112   0.768   4.254 -0.3353 -0.0230 -0.0915
 4029W        W 8080   7.553   3.223   1.507 -0.0836  0.0246 -0.0377
 4030W        W 8081   8.880   7.063  10.960  0.1654 -0.0487 -0.3158
 4031W        W 8082   7.051   1.664  12.068 -0.0716  0.0792  0.0645
 4032W        W 8083   7.805   3.432   8.442  0.3029  0.1880  0.0402
 4033W        W 8084   5.528   3.113   2.717  0.3085  0.0027  0.4486
 4034W        W 8085   3.334   6.448  13.842  0.5292 -0.3497  0.4639
 4035W        W 8086   6.645   1.138   9.083 -0.3647 -0.0750  0.0558
 4036W        W 8087   2.985   8.222   0.392  0.2536 -0.0404  0.1194
 4037W        W 8088   8.227   7.924  12.274 -0.1859  0.1235  0.1218
 4038W        W 8089   6.438   2.123   0.763  0.0795 -0.0047 -0.0051
 4039W        W 8090   1.554   5.577   2.547 -0.2499  0.1320 -0.3844
 4040W        W 8091   0.608   1.844  10.230  0.0283 -0.0190  0.0862
 4041W        W 8092   6.246   7.949  13.459 -0.0425  0.0741  0.1995
 4042W        W 8093   9.159   7.001  12.182 -0.0493 -0.1169 -0.1136
 4043W        W 8094   5.536   0.014   3.978 -0.0757  0.0331  0.0800
 4044W        W 8095   9.465   7.098   1.011  0.3246 -0.5263  0.0010
 4045W        W 8096   3.880   8.045  13.305  0.1012 -0.2429  0.3559
 4046W        W 8097   8.748   3.306   9.879 -0.1475  0.1416  0.1235
 4047W        W 8098   2.281   4.334   2.826 -0.3619  0.0545  0.0745
 4048W        W 8099   4.818   8.540  11.626 -0.0199 -0.1347  0.0167
 4049W        W 8100   0.264  10.130  12.035  0.0157  0.3359  0.3426
 4050W        W 8101   1.203   1.496  12.150 -0.0926  0.1553  0.1537
 4051W        W 8102   8.570   1.100   3.410  0.1567  0.0625 -0.2184
 4052W        W 8103   9.436   4.558   9.013  0.0733 -0.2272  0.0260
 4053W        W 8104   0.686   1.159  12.050 -0.0956 -0.1344  0.2140
 4054W        W 8105   7.380   9.649   1.762 -0.0660  0.0392  0.2199
 4055W        W 8106   2.051   2.008   3.182  0.0542 -0.0153  0.1211
 4056W        W 8107   3.338   3.472   4.664  0.0164  0.1505 -0.0257
 4057W        W 8108   1.756   0.313  10.835  0.0617 -0.2075 -0.2448
 4058W        W 8109   3.411   4.271   2.153 -0.1587 -0.3220 -0.2178
 4059W        W 8110   2.902   2.097   4.765 -0.1514 -0.0005  0.2631
 4060W        W 8111   2.662   0.138   3.892  0.0342 -0.1056 -0.1709
 4061W        W 8112   5.520   8.614  11.304 -0.0325 -0.1571 -0.0251
 4062W        W 8113   6.236   6.799  13.366  0.1375  0.0370 -0.0945
 4063W        W 8114   4.675   4.541   2.889 -0.1045  0.0860  0.4484
 4064W        W 8115   4.820   4.211   0.038  0.3020  0.3454 -0.0558
 4065W        W 8116   2.499   1.671   3.749  0.5600 -0.0808 -0.3556
 4066W        W 8117   7.189   1.868  13.547  0.0510 -0.2655  0.1587
 4067W        W 8118   2.231   2.426   3.822  0.0604 -0.0003  0.0189
 4068W        W 8119   3.479   3.619   1.119  0.1260  0.2410 -0.0725
 4069W        W 8120   3.357   6.819   0.285  0.2062 -0.1493 -0.2799
 4070W        W 8121   8.199   0.346  13.051  0.2944  0.0254 -0.0442
 4071W        W 8122   1.254   4.834   2.246  0.0255 -0.0563 -0.1205
 4072W        W 8123   6.512   7.894   0.085  0.1204 -0.1075 -0.2412
 4073W        W 8124   0.633   7.964  11.845  0.0761 -0.0666 -0.0019
 4074W        W 8125   9.092   4.431   2.942  0.1231  0.1492 -0.1690
 4075W        W 8126   5.578   7.670  11.287  0.2195  0.1973 -0.2080
 4076W        W 8127   6.694   7.853   2.943 -0.2200  0.0336 -0.0731
 4077W        W 8128   7.189   6.014  13.198 -0.0012 -0.0199  0.0703
 4078W        W 8129   4.363   9.670   2.105  0.0010 -0.2107 -0.0621
 4079W        W 8130   9.034   3.121  13.085 -0.1156  0.1155  0.1175
 4080W        W 8131   9.913   0.113   9.263  0.4250 -0.3970 -0.1699
 4081W        W 8132   6.880   6.284   1.299 -0.0389 -0.1436 -0.3031
 4082W        W 8133   8.270   7.461  13.061  0.0006  0.0525  0.1241
 4083W        W 8134   5.098   1.859   5.999 -0.3840 -0.1472  0.3438
 4084W        W 8135   1.785   6.738  13.374 -0.3703  0.0582 -0.3333
 4085W        W 8136   3.102   1.373   1.391  0.1574 -0.1415 -0.2194
 4086W        W 8137   7.086   4.470  10.257  0.4339 -0.1982  0.4283
 4087W        W 8138   2.396   2.002   9.275 -0.0194  0.1628  0.0941
 4088W        W 8139   7.381   8.886  10.692  0.1787  0.1477  0.2986
 4089W        W 8140   9.661   9.801   3.268 -0.1142  0.1596 -0.0832
 4090W        W 8141   1.024   9.239  11.257  0.1781 -0.0390 -0.0381
 4091W        W 8142   0.444   2.187  12.047 -0.4687  0.2103 -0.2124
 4092W        W 8143   5.260   1.562  12.548  0.3072 -0.0054 -0.0397
 4093W        W 8144   1.507   5.132   1.314  0.0236  0.0548 -0.0887
 4094W        W 8145   2.759   8.679   0.493 -0.0849 -0.1402 -0.0347
 4095W        W 8146   9.949   2.057   9.340  0.0601 -0.0256  0.1709
 4096W        W 8147   7.978   6.389  10.410  0.0690  0.0484  0.1920
 4097W        W 8148   1.110   7.278   0.794  0.0648  0.1923 -0.0551
 4098W        W 8149   0.228  10.010  11.365 -0.1227  0.0632  0.0276
 4099W        W 8150   9.296   5.570  11.797 -0.1174  0.0076  0.0605
 4100W        W 8151   6.545   3.594  10.690  0.2212 -0.0888 -0.1399
 4101W        W 8152   4.537   0.803  13.689  0.0172 -0.0311  0.1474
 4102W        W 8153   9.058   3.556  13.363 -0.1325 -0.0191 -0.7460
 4103W        W 8154   0.637   4.946  12.083  0.0278  0.1360 -0.1330
 4104W        W 8155   3.689   9.094   0.884 -0.1143  0.0393 -0.1172
 4105W        W 8156   1.088   2.326   9.433 -0.3516 -0.2187 -0.0230
 4106W        W 8157   6.537   2.154   4.738  0.2000 -0.0819 -0.3147
 4107W        W 8158   4.572   9.488  10.036 -0.3415  0.2890  0.0511
 4108W        W 8159   1.671   3.194   9.581  0.1403  0.1447  0.1750
 4109W        W 8160   1.836   1.026  11.641  0.1158 -0.0842 -0.1787
 4110W        W 8161   5.847   9.629  12.657 -0.1811 -0.1967  0.0623
 4111W        W 8162   7.815   7.233  10.295  0.2997 -0.1970 -0.1707
 4112W        W 8163   1.902   8.481   3.194 -0.1829 -0.0715 -0.2962
 4113W        W 8164   0.634   9.748   0.708  0.1312  0.1634 -0.2235
 4114W        W 8165   0.013   5.583  12.244 -0.0590  0.3661  0.1179
 4115W        W 8166   8.013   9.298   9.895  0.0292 -0.1200  0.0317
 4116W        W 8167   1.095   3.732  12.634  0.0495  0.4010 -0.1472
 4117W        W 8168   5.208   4.451  13.955 -0.1142  0.2418 -0.1557
 4118W        W 8169   9.451   5.340  11.007  0.1025  0.0395  0.0050
 4119W        W 8170   0.744   6.832  13.309 -0.1626  0.2519 -0.3114
 4120W        W 8171   3.425   0.413   4.798 -0.0551 -0.2699 -0.1264
 4121W        W 8172   7.429   8.341  12.692  0.3929  0.0660 -0.1828
 4122W        W 8173   6.942   0.849   2.475  0.1284 -0.1167  0.3264
 4123W        W 8174   1.637   8.135  12.027 -0.0619  0.1953  0.2046
 4124W        W 8175   2.786   6.134   2.206  0.1273  0.0657 -0.4575
 4125W        W 8176   0.647   7.024  12.040 -0.1855  0.1492 -0.1693
 4126W        W 8177   5.865   3.019   4.256 -0.2092  0.0069 -0.1718
 4127W        W 8178   6.779   6.744  10.151 -0.0737 -0.1704 -0.4412
 4128W        W 8179   2.468   3.298  12.794 -0.3024  0.0324 -0.1927
 4129W        W 8180   7.372   7.123  11.102 -0.3337  0.0140 -0.1408
 4130W        W 8181   6.282   3.249   2.178 -0.1346  0.0445 -0.0095
 4131W        W 8182   8.827   7.676   1.525 -0.2715 -0.2537 -0.3244
 4132W        W 8183   5.728   2.856   3.042 -0.4568  0.3821 -0.1933
 4133W        W 8184   7.779   5.905   9.506  0.1437 -0.0460 -0.0427
 4134W        W 8185   7.368   5.845  12.034  0.0615 -0.0993  0.0203
 4135W        W 8186   4.083   2.127   3.609 -0.2232 -0.2059 -0.3411
 4136W        W 8187   4.059   2.187   2.685  0.0449  0.3008  0.0295
 4137W        W 8188   8.951   4.587   3.760 -0.2447  0.1542  0.0712
 4138W        W 8189   8.760   5.335   3.923  0.0852  0.0640 -0.1828
 4139W        W 8190   6.326   1.674   5.409 -0.1951  0.0230  0.0697
 4140W        W 8191   5.843   5.203  12.426 -0.1252  0.0285  0.3422
 4141W        W 8192   6.584   2.227   2.151 -0.0216  0.0907  0.1173
 4142W        W 8193   1.815   6.356  10.764 -0.1128  0.1624 -0.0772
 4143W        W 8194   1.509   5.038  10.770 -0.0191  0.0962  0.0779
 4144W        W 8195   1.369   5.692   0.605 -0.0725 -0.2751 -0.1049
 4145W        W 8196   6.046   6.338   1.187  0.5567 -0.1851  0.0182
 4146W        W 8197   2.073   8.560   0.892 -0.2157  0.0809 -0.2648
 4147W        W 8198   1.608   4.948   4.660  0.0193 -0.1480 -0.0137
 4148W        W 8199   1.559   6.356   3.140  0.4197 -0.0391 -0.1891
 4149W        W 8200   2.699   1.269  11.864  0.4637  0.1205 -0.2303
 4150W        W 8201   9.496  10.161   0.879  0.1065  0.0363  0.0749
 4151W        W 8202   2.551   4.148   9.493 -0.1404  0.2809 -0.2314
 4152W        W 8203   3.322   9.677   1.954 -0.0415 -0.1399  0.4597
 4153W        W 8204   1.874   8.540   3.739  0.0191  0.1478  0.1327
 4154W        W 8205   6.551   2.481   1.156 -0.0128  0.0650  0.2220
 4155W        W 8206   0.117   5.290  13.666  0.1129  0.1480  0.3694
 4156W        W 8207   9.459   8.475   1.651 -0.1055  0.1799 -0.0338
 4157W        W 8208   2.155   3.190   1.572 -0.0156 -0.0595 -0.0535
 4158W        W 8209   0.937   0.082   4.335 -0.1581  0.1257 -0.0346
 4159W        W 8210   5.732   5.641   4.429 -0.0426 -0.1164  0.1207
 4160W        W 8211   9.634   5.350  12.560  0.1231 -0.5475  0.0445
 4161W        W 8212   6.941   2.595   2.094 -0.1469  0.0828  0.1354
 4162W        W 8213   4.192   1.910   8.867 -0.0525 -0.3058  0.1293
 4163W        W 8214   6.066   5.110   9.535 -0.1768 -0.0445  0.3963
 4164W        W 8215   5.006   8.978  11.772 -0.0048 -0.1666  0.0735
 4165W        W 8216   0.812   7.510   3.374  0.0142 -0.1315  0.0881
 4166W        W 8217   8.267   5.464   4.703 -0.1568 -0.0000 -0.0049
 4167W        W 8218   0.987   3.482   2.049  0.2179 -0.2454  0.2589
 4168W        W 8219   6.002   2.262  13.009 -0.1628 -0.0174  0.0433
 4169W        W 8220   8.108   0.114  12.259 -0.1480 -0.2047 -0.2172
 4170W        W 8221   8.371   1.416   0.425 -0.1083 -0.0117 -0.1405
 4171W        W 8222   8.564   0.112  12.174  0.1367 -0.2419  0.2170
 4172W        W 8223   8.057   1.858   1.980 -0.1630  0.0630 -0.0657
 4173W        W 8224   7.301   9.662   0.451 -0.0333 -0.0272 -0.2284
 4174W        W 8225   4.305   9.001   4.498  0.1337  0.1378 -0.2869
 4175W        W 8226   8.735   1.213  11.385 -0.0457  0.4934 -0.2128
 4176W        W 8227   1.167   6.533   3.438 -0.0152 -0.1291  0.0273
 4177W        W 8228   9.552   0.652  11.060  0.1296  0.0790 -0.1142
 4178W        W 8229   0.276   3.301   1.238 -0.0441 -0.1396 -0.1122
 4179W        W 8230   7.721   5.925  12.454 -0.0818 -0.0028  0.0220
 4180W        W 8231   1.401   2.914  12.737 -0.1446  0.0641 -0.3083
 4181W        W 8232   1.500   7.570   2.801 -0.0414 -0.0927 -0.1433
 4182W        W 8233   3.730   6.231   4.244  0.4114  0.0330  0.0814
 4183W        W 8234   4.701   0.033   4.454 -0.2010 -0.0672  0.0078
 4184W        W 8235   6.052   1.182   4.867  0.2271 -0.0453 -0.1755
 4185W        W 8236   4.743   9.792   4.252 -0.2245  0.0756  0.0688
 4186W        W 8237   6.000   2.270   3.616  0.1043 -0.0287 -0.0694
 4187W        W 8238  10.139   0.726   1.594  0.0764  0.6311 -0.0101
 4188W        W 8239   1.829   4.105  11.154 -0.1398  0.4794  0.0728
 4189W        W 8240   3.109   0.737   4.417  0.0774 -0.2360  0.2576
 4190W        W 8241   2.767   1.235   5.044 -0.3785  0.0203 -0.0144
 4191W        W 8242   8.898   1.982   0.956  0.0648  0.3268  0.0190
 4192W        W 8243   1.586   0.124   1.232 -0.3015  0.0229 -0.2463
 4193W        W 8244   8.576   0.397  13.781 -0.1177  0.1407 -0.2866
 4194W        W 8245   4.437   3.056   3.509 -0.1279 -0.1486  0.1923
 4195W        W 8246   9.030   1.830   9.840 -0.2880 -0.0047  0.2069
 4196W        W 8247   3.889   0.003  13.260 -0.2052 -0.0142  0.2180
 4197W        W 8248   5.349   1.332  13.489 -0.0134 -0.1357 -0.2674
 4198W        W 8249   4.608   5.727  13.684 -0.0987  0.0809 -0.1902
 4199W        W 8250   2.629   5.622  11.844  0.5501 -0.0247  0.2160
 4200W        W 8251   2.035   9.551   9.694  0.1383 -0.0229  0.0772
 4201W        W 8252   9.293   0.732   3.070  0.0992 -0.1424  0.1507
 4202W        W 8253   9.078   2.114  12.033  0.1063  0.0570 -0.3490
 4203W        W 8254   1.267   0.845  12.893 -0.3189  0.2639 -0.2629
 4204W        W 8255   7.775   7.894   2.322 -0.0153  0.3347  0.3876
 4205W        W 8256   5.956   6.204   0.552  0.2172  0.1936  0.0917
 4206W        W 8257   2.722   7.845  11.065  0.0137 -0.2296 -0.0563
 4207W        W 8258   3.882   3.050  11.044 -0.0724  0.3113  0.3594
 4208W        W 8259   6.454   7.528  13.073  0.0464  0.1562 -0.1154
 4209W        W 8260  10.077   1.583   9.680 -0.1230 -0.3043  0.3102
 4210W        W 8261   2.914   2.377  12.017 -0.5520  0.2096  0.1985
 4211W        W 8262   0.365   2.856  13.821  0.3585 -0.2674  0.0494
 4212W        W 8263   9.959   4.539   4.215 -0.0218  0.0111  0.2994
 4213W        W 8264   4.891   5.064   0.510 -0.2753 -0.0353  0.5094
 4214W        W 8265   7.566   3.335  12.864  0.3155  0.0143  0.0887
 4215W        W 8266   9.654   4.495   1.373 -0.1155 -0.1280  0.0896
 4216W        W 8267   1.839   4.035  13.182  0.0566 -0.0099  0.0638
 4217W        W 8268   5.666   4.347  11.678  0.4664 -0.1397  0.2598
 4218W        W 8269   5.654   4.187   1.108  0.0731  0.2139 -0.2667
 4219W        W 8270   9.675   1.073  10.213 -0.0203  0.1980 -0.0723
 4220W        W 8271   8.199   0.990   4.988 -0.2362 -0.1372 -0.3406
 4221W        W 8272   7.864   7.058  13.280 -0.3141 -0.2929 -0.1659
 4222W        W 8273   1.841   5.545   1.230  0.1604  0.2027  0.0779
 4223W        W 8274   2.695   7.734  13.402  0.2740 -0.0265  0.0744
 4224W        W 8275   3.851   8.507   9.958  0.0061  0.0965 -0.3030
 4225W        W 8276   3.504   2.214   0.695 -0.2417  0.1267  0.0842
 4226W        W 8277   2.921   6.166   0.096  0.1746  0.1847 -0.2756
 4227W        W 8278   5.882   1.310  10.553 -0.2166 -0.0358  0.1780
 4228W        W 8279   3.245   5.130   1.145 -0.1769  0.1061 -0.1013
 4229W        W 8280   9.409   6.988   2.664 -0.0784  0.1954  0.0301
 4230W        W 8281   6.579   3.690  11.607  0.2027 -0.0133 -0.0762
 4231W        W 8282   6.631   0.238   2.408 -0.0158  0.2582  0.1511
 4232W        W 8283   5.478   3.410   9.323  0.0142 -0.1595 -0.1729
 4233W        W 8284   2.928   1.498   0.434 -0.0558  0.3193  0.1037
 4234W        W 8285   7.406   9.672  13.322 -0.0965 -0.0518 -0.0237
 4235W        W 8286   6.081   6.225  12.557  0.4296 -0.0475 -0.1098
 4236W        W 8287   3.316   3.281  13.372 -0.3001  0.3827 -0.1325
 4237W        W 8288   9.721   1.385   0.154 -0.1073  0.0331  0.2042
 4238W        W 8289   9.010   1.507   1.058  0.1299  0.1543 -0.2288
 4239W        W 8290   7.257   5.036   3.666 -0.0314  0.2718  0.2619
 4240W        W 8291   7.978   3.741  11.552  0.2206  0.0136  0.1605
 4241W        W 8292   2.639   6.347  11.130 -0.0119 -0.0405  0.2354
 4242W        W 8293   4.911   6.169  12.812  0.0001  0.0923  0.1256
 4243W        W 8294   7.354   5.955   9.773  0.1598  0.0874  0.1456
 4244W        W 8295   9.804   4.109   0.777  0.3075  0.0934 -0.1084
 4245W        W 8296   6.312   5.695   3.885 -0.3582  0.0370  0.2457
 4246W        W 8297   9.263   6.845  10.715 -0.1419  0.0375 -0.0524
 4247W        W 8298   0.727   4.413   4.559 -0.0685 -0.0804 -0.1921
 4248W        W 8299   3.193   3.745   1.610  0.1829  0.1826  0.4409
 4249W        W 8300   1.052   1.941   8.848 -0.0230 -0.1304  0.2418
 4250W        W 8301  10.127   8.746  11.345  0.0678 -0.0839 -0.2601
 4251W        W 8302   2.302   0.500  13.410  0.2515  0.0949 -0.0606
 4252W        W 8303   1.007   8.860   2.301 -0.1460 -0.0572  0.1542
 4253W        W 8304   2.114   1.562   9.810 -0.0298  0.0146  0.0965
 4254W        W 8305   4.697   9.772   5.735 -0.3126  0.0320  0.1464
 4255W        W 8306   2.555   9.412   9.650  0.0603  0.0752  0.2004
 4256W        W 8307   9.510   6.822  10.195 -0.1711  0.3851 -0.1635
 4257W        W 8308   2.678   3.987   1.555 -0.1157 -0.2170 -0.2138
 4258W        W 8309   0.937   6.044   9.881  0.0240 -0.5012  0.0791
 4259W        W 8310   2.425   9.947  12.064  0.1598 -0.0122 -0.4259
 4260W        W 8311   4.500   4.559   9.186 -0.0507 -0.0042 -0.2068
 4261W        W 8312   5.988   1.872   3.909  0.0947 -0.2060  0.2091
 4262W        W 8313   3.226   9.217  10.289  0.3057  0.1258  0.2128
 4263W        W 8314   3.848   7.694   0.313  0.2718 -0.0045  0.1151
 4264W        W 8315   1.336   2.256  13.906  0.0691 -0.1306 -0.0990
 4265W        W 8316   1.173   5.597  10.059  0.2017 -0.4223 -0.1993
 4266W        W 8317   4.490   4.517  11.317 -0.2787  0.2608  0.2811
 4267W        W 8318   1.729   3.165   0.854  0.2043 -0.5605 -0.2779
 4268W        W 8319   5.401   7.356  10.422 -0.1446 -0.1867  0.1469
 4269W        W 8320   8.946   5.748   1.981  0.0073 -0.1349  0.0337
 4270W        W 8321   2.668   1.901   0.348  0.1626  0.1576  0.1461
 4271W        W 8322   9.208   7.373  12.910 -0.1762 -0.3637  0.1254
 4272W        W 8323   4.796   5.988   2.527  0.2203  0.0823 -0.3519
 4273W        W 8324   4.407   1.882   2.142 -0.0301 -0.1191 -0.1109
 4274W        W 8325   1.833   6.599  11.675 -0.0501  0.2166 -0.1166
 4275W        W 8326   0.686   3.082  11.676 -0.0330  0.1960 -0.1400
 4276W        W 8327   5.130   8.262   5.137  0.0938  0.2240  0.0090
 4277W        W 8328   6.635   9.829  10.769  0.2254 -0.0572 -0.3275
 4278W        W 8329   8.153   5.126  12.992  0.0598 -0.0727  0.1189
 4279W        W 8330   1.723   0.917  10.038 -0.1094 -0.2717  0.0172
 4280W        W 8331   5.036   1.374   2.278 -0.0871 -0.0244  0.1604
 4281W        W 8332   0.196   6.111  13.388  0.1146 -0.3626  0.1616
 4282W        W 8333   0.489   1.832   1.050 -0.2899 -0.0754 -0.0546
 4283W        W 8334   2.431   5.335   4.461 -0.0193 -0.1062 -0.2543
 4284W        W 8335   0.656   9.381   4.632 -0.3586 -0.1758 -0.0026
 4285W        W 8336   0.600   6.454   1.050 -0.2038  0.2242  0.0123
 4286W        W 8337   8.147   1.897   0.283 -0.3289  0.2203  0.2521
 4287W        W 8338   2.903   0.217   0.341 -0.2176 -0.2512 -0.1185
 4288W        W 8339   6.948   0.687  12.319 -0.1020  0.1835 -0.1065
 4289W        W 8340   3.053   9.807  13.373 -0.0675  0.2224  0.0350
 4290W        W 8341   4.562   6.619   0.657 -0.1123 -0.1243 -0.3099
 4291W        W 8342   1.925   3.268   5.998 -0.0863 -0.1651 -0.1736
 4292W        W 8343   0.079   4.412  13.963 -0.4739  0.0462 -0.0921
 4293W        W 8344   9.967   3.132   4.569 -0.1887 -0.1607 -0.0393
 4294W        W 8345   7.992   3.045  12.188 -0.0378  0.1030 -0.0161
 4295W        W 8346   2.480   2.515   9.941  0.0829 -0.2427 -0.0323
 4296W        W 8347   5.463   9.458  13.440  0.0236 -0.1952  0.0012
 4297W        W 8348   8.090   9.442   1.277  0.0814 -0.4307 -0.0293
 4298W        W 8349   7.540   6.320   3.164 -0.0335  0.0206  0.0054
 4299W        W 8350   8.237   4.294   3.619  0.6266  0.0971 -0.1297
 4300W        W 8351   6.525   4.923   9.440  0.2533  0.1449 -0.2417
 4301W        W 8352   7.582   4.842  13.758 -0.1673  0.1077  0.1801
 4302W        W 8353   4.283   7.759  13.446  0.0919 -0.1068 -0.0885
 4303W        W 8354   2.568   5.553   2.525 -0.3952 -0.2159  0.1241
 4304W        W 8355   5.227   2.064  12.155  0.1536 -0.1594 -0.1584
 4305W        W 8356   2.356   0.127  13.019  0.1991  0.2118  0.1087
 4306W        W 8357   9.935   2.740   3.547  0.1658  0.2108  0.1312
 4307W        W 8358   5.815   9.746  13.629 -0.0364 -0.1483 -0.2876
 4308W        W 8359   6.446   0.036  11.530  0.0673 -0.1400 -0.1570
 4309W        W 8360   6.984   2.082   1.854  0.2807  0.0033  0.0241
 4310W        W 8361   4.410   6.872   0.249  0.0341 -0.0246  0.1406
 4311W        W 8362   2.078   3.145   5.412 -0.4385  0.1934  0.0238
 4312W        W 8363   1.627   6.352   3.671 -0.2130 -0.2780  0.1320
 4313W        W 8364   7.337  10.066  12.955  0.1515  0.3231  0.3137
 4314W        W 8365   5.784   8.579   0.223  0.0135  0.0949 -0.0857
 4315W        W 8366   8.720   7.206  12.797  0.2005 -0.2467 -0.0180
 4316W        W 8367   2.195   0.142   3.698  0.2495 -0.2604  0.2237
 4317W        W 8368   5.283   6.196  11.644 -0.3413  0.0123  0.1604
 4318W        W 8369   6.786   3.952   2.521  0.0202 -0.1800 -0.2660
 4319W        W 8370   5.079   6.079   4.410 -0.1791  0.0529 -0.1529
 4320W        W 8371   4.700   5.332  11.979 -0.0366 -0.0747  0.0513
 4321W        W 8372   2.107   0.245   1.587  0.1258  0.2140  0.2657
 4322W        W 8373   2.677   5.891  12.795 -0.0868 -0.0133 -0.2310
 4323W        W 8374   0.559   2.346  10.271 -0.1685 -0.1461 -0.1397
 4324W        W 8375   4.467   2.095  12.578  0.3838  0.1456 -0.0313
 4325W        W 8376   6.685   3.788   1.504 -0.0827  0.3949  0.0999
 4326W        W 8377   5.405   4.193   0.362 -0.1647 -0.0888  0.0246
 4327W        W 8378   7.799   6.523   2.512  0.0688  0.0822  0.1158
 4328W        W 8379   1.489   7.494  13.079 -0.0366 -0.1764 -0.1493
 4329W        W 8380   3.798   0.493   3.284  0.0734 -0.3492  0.5263
 4330W        W 8381   1.857   3.890   3.696  0.0861 -0.1096 -0.2169
 4331W        W 8382   3.429   1.697   9.207  0.3348 -0.2867 -0.2341
 4332W        W 8383   1.397   4.245  13.299 -0.2964  0.1421 -0.4055
 4333W        W 8384   7.757   7.475   0.097  0.0971 -0.2663 -0.1129
 4334W        W 8385   3.252   6.970  10.528  0.0114  0.1645 -0.0434
 4335W        W 8386   7.736   6.809   1.628  0.1020 -0.1053  0.1101
 4336W        W 8387   6.849   5.505  11.772 -0.4375  0.0924  0.0013
 4337W        W 8388   0.589   5.521  11.672  0.0963 -0.0148 -0.0763
 4338W        W 8389   4.687   8.163   4.910 -0.0018 -0.0277 -0.0546
 4339W        W 8390   7.245   5.284   2.430  0.1041 -0.0063 -0.3465
 4340W        W 8391   0.311   4.584  13.146  0.2870  0.0245 -0.1118
 4341W        W 8392   5.289   7.417  12.650 -0.1431 -0.1681 -0.2646
 4342W        W 8393   5.679   4.293   3.529  0.0657 -0.0822  0.0331
 4343W        W 8394   9.206   2.954   0.826 -0.0760  0.3194 -0.1547
 4344W        W 8395   8.681   9.264   6.381 -0.4516  0.0492 -0.0994
 4345W        W 8396   8.236   2.543   9.433  0.0036 -0.0221  0.2285
 4346W        W 8397   5.600   9.891   4.837 -0.3277  0.1417 -0.0036
 4347W        W 8398   0.263   3.467   3.433  0.0331  0.0488  0.0742
 4348W        W 8399   2.973   8.406   2.608 -0.1109  0.2508  0.4699
 4349W        W 8400  10.038   2.923  13.669  0.1572  0.0662  0.0304
 4350W        W 8401   1.708   4.403  12.143  0.0666  0.2916 -0.1169
 4351W        W 8402   9.636   9.080   9.689 -0.2171  0.1129  0.1400
 4352W        W 8403   4.955   4.388   2.410  0.0631  0.2127  0.1163
 4353W        W 8404   5.951   5.276   4.715  0.0155  0.0739 -0.0359
 4354W        W 8405   0.080   6.178  12.896  0.1995  0.1809  0.0930
 4355W        W 8406   9.344   7.477   3.986 -0.0753 -0.2170  0.5515
 4356W        W 8407   1.438   3.680  11.422 -0.2906 -0.0072  0.2147
 4357W        W 8408   1.355   1.380   2.551  0.1881  0.1372 -0.1665
 4358W        W 8409   8.687   3.939  13.082 -0.0586 -0.3303  0.1343
 4359W        W 8410   0.680   1.035   9.961  0.0682  0.1416 -0.0345
 4360W        W 8411   7.963   0.443  10.256 -0.2192 -0.0397 -0.0493
 4361W        W 8412   5.554   4.926  13.452 -0.0534 -0.1318  0.0098
 4362W        W 8413   9.738   0.683  12.139  0.2095 -0.0088  0.1047
 4363W        W 8414   7.550   5.731  11.527  0.1893  0.0423  0.0645
 4364W        W 8415   4.184   6.046   4.389  0.2699  0.2343  0.0492
 4365W        W 8416   7.877   3.458  12.463  0.1129  0.0107 -0.0772
 4366W        W 8417   2.756   6.876   9.726  0.0669 -0.1968 -0.1148
 4367W        W 8418   4.848   7.105  12.881  0.0584  0.0632  0.2271
 4368W        W 8419   8.816   1.157   0.462 -0.1561 -0.0805 -0.2567
 4369W        W 8420   7.453   1.912  10.132  0.0667  0.3035  0.1922
 4370W        W 8421   4.119   4.914   1.146  0.2937  0.0973 -0.1812
 4371W        W 8422   7.381   7.329   3.353  0.0093 -0.0832  0.1967
 4372W        W 8423   5.797   1.387   0.459 -0.1065  0.1171 -0.1624
 4373W        W 8424   3.533   8.829  10.212  0.0155 -0.1306 -0.1207
 4374W        W 8425   4.577   2.313  12.163 -0.4326 -0.2837  0.1718
 4375W        W 8426   7.786   0.714  13.122 -0.2061  0.0479 -0.0173
 4376W        W 8427   9.693   3.237   0.888 -0.0009 -0.1904  0.0044
 4377W        W 8428   8.865   6.498  13.869 -0.0113 -0.2670 -0.0982
 4378W        W 8429   8.697   2.134  12.990 -0.0652  0.3371 -0.0666
 4379W        W 8430   3.264   9.619  13.870 -0.0298 -0.3392  0.2771
 4380W        W 8431   6.651   3.141   9.599 -0.1923 -0.5890  0.1278
 4381W        W 8432   3.956   1.686   1.996  0.0870 -0.0294  0.0449
 4382W        W 8433   6.236  10.140   2.693 -0.3800 -0.0555 -0.0241
 4383W        W 8434   5.758   1.816   2.747 -0.0651 -0.0735  0.0483
 4384W        W 8435   5.200   3.834  12.886 -0.1089  0.2559  0.0824
 4385W        W 8436   2.553   6.283   3.123  0.1274 -0.1541 -0.0691
 4386W        W 8437   0.102   9.952   4.455  0.3395  0.0672 -0.2098
 4387W        W 8438   3.589   7.691   1.598 -0.1137 -0.3720 -0.2247
 4388W        W 8439  10.060   9.383   1.858 -0.1383  0.2955 -0.1615
 4389W        W 8440   0.869   3.664  13.107 -0.1475 -0.3538 -0.0616
 4390W        W 8441   8.611   5.813   1.448 -0.0353 -0.1999  0.2348
 4391W        W 8442   2.456   0.491  12.225  0.2663 -0.1470 -0.0255
 4392W        W 8443   3.373   0.075  13.226  0.1609 -0.0876  0.0095
 4393W        W 8444   5.021   0.618  13.816  0.1196 -0.0367  0.3141
 4394W        W 8445   9.305   5.462   3.787 -0.0779 -0.1458 -0.3330
 4395W        W 8446   0.013   2.532  13.007  0.0673 -0.0611 -0.0764
 4396W        W 8447   2.014   3.295   3.342 -0.1511  0.0580 -0.2063
 4397W        W 8448   6.663   6.527  13.277 -0.2670 -0.0102  0.4649
 4398W        W 8449   5.828   4.205  12.267  0.2582  0.2222  0.2979
 4399W        W 8450   7.726   5.241  13.315  0.1246  0.0635  0.0953
 4400W        W 8451   6.172   8.278   3.566  0.0803  0.1254  0.2563
 4401W        W 8452   6.166   9.804  12.297 -0.0428  0.1936  0.1654
 4402W        W 8453   7.866   3.836  13.189 -0.0592  0.2065 -0.2761
 4403W        W 8454   7.508   1.950   1.842  0.1224 -0.1342  0.3002
 4404W        W 8455   7.533   2.125  10.677  0.1135 -0.0522 -0.1469
 4405W        W 8456   3.748   1.802   0.916  0.1187 -0.1437 -0.1668
 4406W        W 8457   1.238   0.941   9.796 -0.0491  0.0396  0.2231
 4407W        W 8458   1.757  10.138   9.815 -0.4851 -0.1296 -0.2254
 4408W        W 8459   0.071   0.021   1.437  0.2090  0.0489 -0.0963
 4409W        W 8460   7.259   8.214   0.790  0.0664 -0.4989  0.0218
 4410W        W 8461   4.846   0.906   0.221  0.1179  0.1569  0.1269
 4411W        W 8462   7.927   7.892  13.102  0.0133 -0.2788  0.1904
 4412W        W 8463   6.842   4.505  11.244 -0.0761  0.0651  0.0027
 4413W        W 8464   2.328   9.317  12.307 -0.1771  0.0456  0.1255
 4414W        W 8465   3.323   6.115  12.064  0.1879  0.1374  0.1950
 4415W        W 8466   2.287   1.897   4.871 -0.2988 -0.0860 -0.0843
 4416W        W 8467   3.762   1.108  12.401 -0.1762  0.0120  0.1964
 4417W        W 8468   5.792   5.745  12.365 -0.3734  0.0001  0.2619
 4418W        W 8469   2.799   9.960   9.043 -0.0954  0.0948 -0.1055
 4419W        W 8470   6.622   9.763  10.113 -0.3291 -0.1440  0.1609
 4420W        W 8471   1.295   4.470  11.776  0.1194  0.2346  0.3017
 4421W        W 8472   7.822   4.744   0.888  0.2288 -0.1690  0.2077
 4422W        W 8473   5.560   4.273  12.912  0.0448  0.1040  0.0132
 4423W        W 8474   6.761   5.739   1.183 -0.1057  0.0390 -0.1552
 4424W        W 8475   7.480   5.665   3.135 -0.2045 -0.0269 -0.1104
 4425W        W 8476   1.472   4.290   0.062 -0.4324 -0.5852  0.1099
 4426W        W 8477   1.450   5.195  12.394  0.3072  0.0979  0.1770
 4427W        W 8478   3.366   1.157   4.633 -0.1502 -0.1474 -0.1492
 4428W        W 8479   9.503   3.895   4.778  0.0996  0.1666  0.0850
 4429W        W 8480   9.679   7.313   9.994 -0.0014 -0.1070 -0.2284
 4430W        W 8481   6.889   2.360   0.553  0.1263  0.0601 -0.0566
 4431W        W 8482   3.097   1.918   8.683  0.2582 -0.1422 -0.0709
 4432W        W 8483   0.063   4.861   4.005 -0.0785 -0.0334  0.1598
 4433W        W 8484   9.607  10.140   2.207  0.1630  0.3050 -0.0355
 4434W        W 8485   0.072   1.303  13.156 -0.4106  0.0043 -0.0501
 4435W        W 8486   0.711   7.258  12.466  0.0558 -0.5869  0.0773
 4436W        W 8487   2.066   0.962  13.216 -0.2509  0.0338 -0.1960
 4437W        W 8488   5.900   3.411   0.682  0.3890  0.0336 -0.0691
 4438W        W 8489   0.498   6.873  10.764 -0.2713 -0.2186 -0.0850
 4439W        W 8490   7.065   2.879   2.697  0.1710 -0.2359 -0.0059
 4440W        W 8491   1.185   3.655   4.305 -0.0730  0.1028 -0.0493
 4441W        W 8492   3.322   9.266   2.267  0.2177  0.0440 -0.3783
 4442W        W 8493   4.420   3.063   9.566 -0.3323 -0.0387  0.2253
 4443W        W 8494   2.208   0.806  10.201  0.0257  0.0631  0.1344
 4444W        W 8495   7.460   8.721   3.268 -0.0048 -0.2005  0.0977
 4445W        W 8496   5.326   9.651  10.512 -0.3906 -0.1826 -0.0377
 4446W        W 8497   7.187   4.285  12.191  0.2338  0.1130  0.0470
 4447W        W 8498   6.847   8.398   0.610 -0.0722  0.2806  0.0445
 4448W        W 8499   6.328   1.564   3.616 -0.0030 -0.1290  0.0769
 4449W        W 8500   8.449   3.277   0.481  0.2360  0.0659  0.2563
 4450W        W 8501   0.616   7.099  11.520  0.2876  0.2699 -0.3268
 4451W        W 8502   4.648   4.410   4.611  0.0093  0.0649 -0.3385
 4452W        W 8503   8.199   8.177  10.394 -0.1515  0.1052  0.3194
 4453W        W 8504   2.183   5.461   1.585 -0.0089 -0.1873  0.2875
 4454W        W 8505   8.574   1.751  12.116  0.2592 -0.2066  0.0562
 4455W        W 8506   2.706   1.779   5.111 -0.1247  0.0039 -0.0269
 4456W        W 8507   4.307   0.617   4.135  0.0898  0.3541  0.1820
 4457W        W 8508   9.524   1.842   2.790  0.0038 -0.1253  0.2087
 4458W        W 8509   1.156   2.850  10.034  0.1538  0.0004 -0.0709
 4459W        W 8510   3.288   9.288   1.317  0.0839 -0.3022  0.0818
 4460W        W 8511   3.311   4.190   5.050  0.1428  0.2248  0.3398
 4461W        W 8512   3.169   4.405   0.758 -0.1831  0.2699  0.1282
 4462W        W 8513   3.003   3.320  13.739  0.1426  0.0207  0.1064
 4463W        W 8514   5.549   2.747   1.849 -0.0041 -0.1701 -0.2067
 4464W        W 8515   4.896   3.398   2.051 -0.0803 -0.1462  0.0280
 4465W        W 8516   9.811   5.244   0.647 -0.0309  0.0367 -0.1488
 4466W        W 8517   3.685   7.919  10.267  0.0413 -0.0009 -0.1254
 4467W        W 8518   4.426   5.699   9.558  0.1809 -0.1973  0.1433
 4468W        W 8519   2.502   4.038   4.503 -0.0218 -0.0122 -0.1468
 4469W        W 8520   1.705   7.968  11.509 -0.1797 -0.2763 -0.1536
 4470W        W 8521   5.225   3.077   2.314  0.3069 -0.1716  0.4036
 4471W        W 8522   7.179   9.405  12.874 -0.3424  0.3098  0.0124
 4472W        W 8523   9.080   4.881  11.130  0.2257  0.1611  0.0369
 4473W        W 8524   4.672   4.886   3.496  0.1111 -0.1089 -0.0840
 4474W        W 8525   5.006   1.583   1.480  0.1173 -0.0360 -0.1611
 4475W        W 8526   3.044   1.585  10.990 -0.5039 -0.0211 -0.0564
 4476W        W 8527   5.477   5.435  12.692  0.2741 -0.0600 -0.0114
 4477W        W 8528   4.983   1.929  10.978 -0.0709  0.2936 -0.1545
 4478W        W 8529   7.059   2.172   4.647  0.0543 -0.0593 -0.1620
 4479W        W 8530   2.829   8.169   1.337  0.2028  0.1014  0.1340
 4480W        W 8531   1.260   5.847  12.111  0.1476 -0.0441  0.0769
 4481W        W 8532   7.908   7.628   1.236 -0.0970  0.2321  0.1709
 4482W        W 8533   6.325   2.478  13.465  0.2619 -0.1428  0.0085
 4483W        W 8534   3.838   9.817  12.914  0.0498 -0.1812  0.2477
 4484W        W 8535   6.850   0.240   1.023  0.3206  0.0323  0.1577
 4485W        W 8536   4.191   7.389   4.767 -0.1176 -0.2111 -0.0772
 4486W        W 8537   8.871   0.262   1.689  0.0664  0.1391  0.3931
 4487W        W 8538   4.406   7.498  10.418  0.1816  0.0916 -0.0746
 4488W        W 8539   4.929   4.394   3.393  0.0767  0.0009 -0.0337
 4489W        W 8540   5.481   3.368  12.460  0.0272 -0.0594 -0.0971
 4490W        W 8541   0.735   6.430  10.567 -0.0827 -0.1557  0.1095
 4491W        W 8542   0.349   4.929   0.129 -0.2193  0.0040  0.0447
 4492W        W 8543   8.531  10.051  10.837  0.0532 -0.1188 -0.2023
 4493W        W 8544   5.897   1.338  10.083 -0.3253 -0.0184  0.1632
 4494W        W 8545   3.372   5.126  13.221 -0.2744  0.3570 -0.2671
 4495W        W 8546   7.521   0.850  12.675  0.1553 -0.4853 -0.1993
 4496W        W 8547   2.825   0.460   0.843 -0.0358  0.2891  0.1334
 4497W        W 8548   3.813   6.000  11.980 -0.0898  0.4484  0.0315
 4498W        W 8549   9.235   8.050  12.288  0.0402  0.0708  0.0814
 4499W        W 8550   0.012   0.925   3.695 -0.1120  0.1453 -0.0843
 4500W        W 8551   3.226   1.075   3.191 -0.0803 -0.1304  0.2954
 4501W        W 8552   8.748   1.359  13.881  0.1146 -0.0333  0.1394
 4502W        W 8553   0.970   8.225   1.688  0.1026  0.1952 -0.0680
 4503W        W 8554   9.803   5.314  12.012  0.0619  0.0235  0.0906
 4504W        W 8555   5.029   5.985   8.551 -0.2604 -0.1621  0.0394
 4505W        W 8556   3.025   5.645  10.472 -0.1243 -0.2049  0.3020
 4506W        W 8557  10.115   9.136   0.263 -0.2198 -0.1328 -0.0694
 4507W        W 8558   2.446   5.025  11.839 -0.0386 -0.0204 -0.2569
 4508W        W 8559   2.500   4.222   5.151  0.1152 -0.2466  0.0668
 4509W        W 8560   3.705   5.429   2.784  0.2503  0.0195  0.0068
 4510W        W 8561   1.345   8.492  10.740 -0.1203  0.1083 -0.1880
 4511W        W 8562   4.381   0.119  12.444  0.3010 -0.1184 -0.1642
 4512W        W 8563   3.712   9.385  13.879 -0.2580 -0.2068 -0.0289
 4513W        W 8564   6.429   2.737   2.212 -0.2620 -0.2054  0.2611
 4514W        W 8565   0.127   1.344  10.830 -0.3930 -0.0470  0.3147
 4515W        W 8566   5.913   8.841   1.071  0.0946 -0.2218 -0.1345
 4516W        W 8567   7.821   4.374  10.627 -0.0368 -0.2585 -0.0157
 4517W        W 8568   4.182   5.908   9.983 -0.1883  0.2410  0.1187
 4518W        W 8569   2.192   6.808  12.574 -0.1062  0.1578  0.1575
 4519W        W 8570   1.580   7.551   2.186  0.1108  0.1177  0.1845
 4520W        W 8571   8.847   1.169  12.063  0.1217 -0.0687  0.0772
 4521W        W 8572   3.508   8.591  10.986 -0.1334  0.0440  0.0381
 4522W        W 8573   3.359   7.511  10.386 -0.2554 -0.1323 -0.3289
 4523W        W 8574   4.028   3.766   9.194 -0.1295 -0.2393 -0.0115
 4524W        W 8575   3.110   9.055   4.293 -0.1569  0.1292  0.0937
 4525W        W 8576   9.664   5.562   2.225  0.1830  0.2203 -0.2439
 4526W        W 8577   5.065   7.332  13.480 -0.1307 -0.1433 -0.3827
 4527W        W 8578   4.116   5.424   1.184  0.0698 -0.2313 -0.1358
 4528W        W 8579   8.520   3.576   2.058  0.1331 -0.0899  0.0931
 4529W        W 8580   4.791   3.371   9.687 -0.1035  0.0139 -0.0156
 4530W        W 8581   5.363   2.526   3.826 -0.0256  0.0126 -0.0896
 4531W        W 8582   5.915   0.472  13.008 -0.3497  0.1832 -0.0270
 4532W        W 8583   4.323   4.916   3.136  0.0298 -0.1677  0.0350
 4533W        W 8584   7.883   5.750  10.581  0.0423 -0.1308  0.1915
 4534W        W 8585   7.119   3.491   2.544  0.0644  0.0350 -0.0357
 4535W        W 8586   1.302   7.861   1.916  0.0676  0.2431  0.1671
 4536W        W 8587   4.515   6.704  13.502  0.4943 -0.1488 -0.2126
 4537W        W 8588   2.930   0.815  12.646 -0.0111  0.1978 -0.1910
 4538W        W 8589   4.887   5.631   3.579 -0.3456 -0.0689 -0.1182
 4539W        W 8590   5.889   2.271  13.581 -0.0476  0.1108  0.3429
 4540W        W 8591   0.746   1.493  13.659 -0.0985  0.3828 -0.2702
 4541W        W 8592   6.244   3.406   4.232  0.2197  0.0206 -0.2922
 4542W        W 8593   4.132   1.257  10.949 -0.0175  0.2586 -0.0199
 4543W        W 8594   0.540   7.445  11.187  0.0997  0.0852  0.0352
 4544W        W 8595   2.175   3.746   3.361 -0.2616 -0.2727  0.3310
 4545W        W 8596   1.135   8.998   3.840 -0.1954  0.0364 -0.3474
 4546W        W 8597   8.439   2.160   2.167  0.2172 -0.0575  0.0041
 4547W        W 8598   1.172   1.216  10.658  0.0510  0.0935 -0.0360
 4548W        W 8599   8.160   8.891  12.442 -0.0071 -0.1486 -0.2237
 4549W        W 8600   3.879   1.194   4.681  0.2532  0.0519  0.0157
 4550W        W 8601   9.217   9.647  10.192  0.0394  0.0490  0.2612
 4551W        W 8602   8.747   3.025   3.339  0.1788 -0.0201  0.2878
 4552W        W 8603   1.121   7.732   2.425 -0.2050 -0.1979 -0.1904
 4553W        W 8604   9.282   3.131  13.535  0.0288 -0.0472 -0.0904
 4554W        W 8605   3.495   9.654   2.576  0.0039  0.0916 -0.2080
 4555W        W 8606   4.381   0.809  11.878 -0.1648  0.0996  0.0135
 4556W        W 8607   2.220   8.732   2.068 -0.0440  0.1430 -0.1340
 4557W        W 8608   1.145   0.536   3.003  0.0673  0.1477  0.1321
 4558W        W 8609   3.317   4.351   2.662  0.2169 -0.1481 -0.1410
 4559W        W 8610   6.157   6.032   3.522  0.2692 -0.0748  0.1805
 4560W        W 8611   8.838   7.872  11.110  0.4687  0.2400  0.0371
 4561W        W 8612   2.150   2.864  10.416  0.2105  0.2019 -0.0212
 4562W        W 8613   2.943   5.239   4.158  0.2332  0.0839  0.0117
 4563W        W 8614   3.179   2.832   3.483  0.0961  0.1592 -0.0041
 4564W        W 8615   8.591   1.108   4.136 -0.1181 -0.1706  0.0284
 4565W        W 8616   7.019   1.290  11.559  0.2318 -0.0683 -0.2489
 4566W        W 8617   8.755   5.415   0.237 -0.1385 -0.1050  0.0090
 4567W        W 8618   6.741   2.526   2.567  0.2397 -0.3094  0.2006
 4568W        W 8619   7.999   4.791  10.931  0.1545  0.1017 -0.3103
 4569W        W 8620   3.512   7.510   3.909 -0.1844 -0.3003 -0.0034
 4570W        W 8621   1.444   0.671   4.699 -0.0036  0.0986  0.0664
 4571W        W 8622   7.812   1.136  13.467 -0.0367 -0.2051  0.1815
 4572W        W 8623   5.169   6.602  10.753  0.1977 -0.2677 -0.3111
 4573W        W 8624   1.284   5.362   0.209 -0.0398 -0.3365 -0.0039
 4574W        W 8625   5.940   7.497  10.312  0.1182 -0.0120  0.0786
 4575W        W 8626   0.493   1.985   4.575  0.0516 -0.0999  0.1113
 4576W        W 8627   9.060   6.699   0.724  0.3557  0.1876  0.1523
 4577W        W 8628   0.289   2.703   2.444  0.0964 -0.1202  0.0645
 4578W        W 8629   7.265   9.919   3.529  0.0494 -0.0187 -0.1074
 4579W        W 8630   0.306   7.640   2.270  0.2312  0.2969  0.0190
 4580W        W 8631   5.825   9.397  10.520  0.1216  0.0168 -0.1682
 4581W        W 8632   2.181   5.611   0.317 -0.0899 -0.3003  0.1656
 4582W        W 8633   5.363   9.807  11.281 -0.0489  0.0769  0.1907
 4583W        W 8634   4.174   7.143  10.153  0.2609 -0.2023 -0.0970
 4584W        W 8635   2.830   3.540  12.405  0.0335  0.1350 -0.0020
 4585W        W 8636   1.312   6.667  11.469  0.2549 -0.3271 -0.3544
 4586W        W 8637   6.071   2.365   0.510  0.0430  0.1386 -0.0138
 4587W        W 8638   3.322   8.652  13.635  0.2034 -0.3111  0.0715
 4588W        W 8639   0.921   2.901   0.619 -0.1960  0.2928 -0.0148
 4589W        W 8640   6.590   2.409  10.310  0.0575  0.2304  0.1238
 4590W        W 8641   3.216   8.459   5.444 -0.0812  0.0066 -0.1607
 4591W        W 8642   4.401   1.441   5.199 -0.0082 -0.0051  0.0216
 4592W        W 8643   5.359   5.581   3.309  0.4039  0.2945  0.1720
 4593W        W 8644   8.470   9.161   3.394 -0.0271 -0.1177  0.2557
 4594W        W 8645   5.861   6.368  13.639  0.1226  0.1151  0.2461
 4595W        W 8646   0.126   3.964   0.966 -0.0316  0.0340 -0.0552
 4596W        W 8647   4.870   3.174   0.034 -0.2122 -0.1746 -0.2203
 4597W        W 8648   1.880   6.333   9.892 -0.1974  0.2146  0.0367
 4598W        W 8649   0.312   9.012   0.806  0.2343  0.1438 -0.1221
 4599W        W 8650   3.530   2.526   8.647  0.2299  0.2859 -0.1384
 4600W        W 8651   4.131   4.350  13.348  0.0416  0.1544 -0.1007
 4601W        W 8652   9.640   6.935  11.927 -0.0287 -0.0646 -0.3144
 4602W        W 8653   9.914   7.090   2.673 -0.1524  0.0769 -0.2031
 4603W        W 8654   5.993   7.392   9.155 -0.1461  0.0590  0.0594
 4604W        W 8655   2.020   2.493  11.779 -0.1297  0.1200  0.1248
 4605W        W 8656   4.438   3.129   4.932  0.0107 -0.1491 -0.2892
 4606W        W 8657   7.773   6.192   9.980 -0.0399  0.0193 -0.2954
 4607W        W 8658   0.116   9.893  13.494  0.1936 -0.2553 -0.1838
 4608W        W 8659   9.587   4.988   1.002  0.1406 -0.2520  0.2155
 4609W        W 8660   2.313   1.604   1.644  0.0343 -0.0951  0.2288
 4610W        W 8661   3.965   3.890  13.556  0.0129 -0.2435  0.1639
 4611W        W 8662   6.463   9.253   1.637 -0.2272 -0.1393  0.2942
 4612W        W 8663   0.920   5.558  13.875  0.0968  0.1046  0.0482
 4613W        W 8664   4.341   3.427   2.092 -0.3460  0.0185 -0.5103
 4614W        W 8665   1.584   9.893   2.411 -0.3169 -0.0189  0.2157
 4615W        W 8666   9.575   6.471   0.044 -0.1642 -0.0076  0.0819
 4616W        W 8667   9.901   2.120  10.814  0.0210  0.2623  0.0025
 4617W        W 8668   4.399   4.414   3.328 -0.3009 -0.1505  0.2948
 4618W        W 8669   7.933   4.278   4.033 -0.3560 -0.0606  0.1256
 4619W        W 8670   7.077   6.881   9.839 -0.2184  0.1960  0.0549
 4620W        W 8671   2.741   1.404  13.648  0.2014  0.1163 -0.2038
 4621W        W 8672   5.466   1.906  10.825 -0.3549  0.2225  0.2352
 4622W        W 8673   7.411   3.483  10.006  0.0200  0.1409 -0.3934
 4623W        W 8674   3.913   1.108   0.668 -0.1186 -0.0896  0.2145
 4624W        W 8675   2.511   6.033  12.224  0.1241  0.2255 -0.0588
 4625W        W 8676   6.372   8.417  13.172  0.1527 -0.2597  0.2049
 4626W        W 8677   8.779   6.041   3.734  0.3433 -0.1294  0.0007
 4627W        W 8678   6.224   4.581   9.271 -0.0262 -0.1972  0.2448
 4628W        W 8679   7.854   9.899   0.477  0.1635  0.3970 -0.2561
 4629W        W 8680   5.945   9.208  12.373 -0.1705 -0.3932  0.3146
 4630W        W 8681   0.422   0.372   2.459  0.3140 -0.3764  0.1209
 4631W        W 8682   1.687   2.186   0.709 -0.1880  0.3861 -0.3278
 4632W        W 8683   1.149   3.335   3.838 -0.0214  0.1655 -0.0928
 4633W        W 8684   5.021   0.160  10.253  0.0457 -0.0859 -0.1404
 4634W        W 8685   1.729   5.377  12.865 -0.0579 -0.2246  0.3410
 4635W        W 8686   4.868   7.521   3.744  0.2605  0.0017 -0.3276
 4636W        W 8687   7.517   1.888  11.757 -0.1749 -0.0401  0.1231
 4637W        W 8688   5.994   5.628  12.816  0.1635 -0.1039  0.1424
 4638W        W 8689   7.512   8.365  11.396  0.0185  0.3553 -0.1508
 4639W        W 8690   2.960   3.940   9.770 -0.0336 -0.1324  0.3277
 4640W        W 8691   9.643   8.264  12.537  0.0403  0.3523 -0.2457
 4641W        W 8692   9.498   6.941  13.179  0.0578  0.0016 -0.0889
 4642W        W 8693   0.109   5.705   3.764 -0.3456  0.2781  0.5577
 4643W        W 8694   3.470   2.788  11.911 -0.0031  0.1486  0.2095
 4644W        W 8695   0.862   2.342  11.123 -0.1764  0.0541  0.1205
 4645W        W 8696   6.070   2.953   0.501  0.0349  0.1736  0.4194
 4646W        W 8697   0.050   6.066   1.475 -0.0976 -0.1019 -0.1400
 4647W        W 8698   7.619   5.087   4.089 -0.1347 -0.0384  0.0073
 4648W        W 8699   9.882   7.010   4.170 -0.0125  0.3310  0.2787
 4649W        W 8700   1.507   3.932  12.406 -0.0987 -0.1737  0.0678
 4650W        W 8701   6.323   2.120  13.800 -0.0092 -0.1536  0.1153
 4651W        W 8702   7.140   4.070   1.730  0.4403 -0.1379  0.1416
 4652W        W 8703   7.071   3.664   3.029 -0.0745 -0.0243  0.1474
 4653W        W 8704   5.091   8.249   0.632 -0.1217  0.0897 -0.3311
 4654W        W 8705   8.066   9.440  13.201  0.1231  0.0309  0.4521
 4655W        W 8706  10.058   0.218   4.590  0.1463 -0.0216 -0.3238
 4656W        W 8707   3.218   3.261  11.838 -0.2226 -0.2405  0.2124
 4657W        W 8708   8.553   5.172   2.790  0.0061  0.2503  0.1824
 4658W        W 8709   1.612   8.920  11.872  0.1032  0.0424  0.3456
 4659W        W 8710   4.389   3.789   1.056 -0.0809  0.0265 -0.0138
 4660W        W 8711   5.105   6.332   4.894  0.3288  0.2075 -0.1330
 4661W        W 8712   5.462   5.351  10.948 -0.1711  0.3797 -0.1148
 4662W        W 8713   9.106   7.837  10.370  0.0686  0.4388 -0.1124
 4663W        W 8714   2.512   4.175   3.276 -0.1229 -0.2887  0.1390
 4664W        W 8715   2.507   3.017   2.757 -0.2560  0.0539  0.3868
 4665W        W 8716   3.514   1.444   3.020 -0.0218 -0.1203  0.4528
 4666W        W 8717   8.521   4.885   3.763 -0.1041  0.1228  0.1651
 4667W        W 8718   6.564   5.373   9.726 -0.0698  0.2251 -0.0725
 4668W        W 8719   8.520   5.068  13.948  0.0903  0.0314  0.0938
 4669W        W 8720   4.459   4.301   2.440  0.0399  0.1389 -0.1662
 4670W        W 8721   2.317   9.339  13.334 -0.1879 -0.1297 -0.0175
 4671W        W 8722   2.377   9.430   2.636 -0.0633  0.0886  0.2170
 4672W        W 8723   8.868   1.587  12.880  0.3513 -0.2090  0.3123
 4673W        W 8724   9.778   3.712   1.673 -0.0969  0.0415 -0.0271
 4674W        W 8725   6.187   3.959   1.329  0.0288 -0.0211 -0.2115
 4675W        W 8726   3.012   2.288   3.378 -0.1697 -0.2468  0.1619
 4676W        W 8727   3.705   7.039  12.360  0.0873  0.0185 -0.0300
 4677W        W 8728   7.043   6.901  12.983 -0.1153  0.4199 -0.0778
 4678W        W 8729   1.607   2.019   3.974 -0.1307 -0.1564  0.0030
 4679W        W 8730   3.637   5.712  12.502  0.1008 -0.3471  0.0581
 4680W        W 8731   3.127   6.996  11.525  0.1055  0.2009  0.2030
 4681W        W 8732   1.545   4.964   2.972 -0.0859 -0.2462 -0.2497
 4682W        W 8733   4.260   7.859   4.980  0.3858 -0.2034 -0.0668
 4683W        W 8734  10.041   2.970   2.640 -0.0424  0.0333  0.0797
 4684W        W 8735   9.865   0.598   2.970  0.0255 -0.3906 -0.0464
 4685W        W 8736   1.898   4.572   4.367  0.0555  0.0148  0.1414
 4686W        W 8737   0.314   3.815   4.597 -0.2201 -0.0302 -0.0969
 4687W        W 8738   1.522   1.789  13.901  0.2112  0.0643  0.0313
 4688W        W 8739   7.300   5.431   4.295 -0.2245 -0.0818  0.1078
 4689W        W 8740   6.576   6.502  11.808  0.2685 -0.1371  0.0257
 4690W        W 8741   1.761   4.787  13.945  0.1172 -0.0553  0.0598
 4691W        W 8742   9.005  10.030   3.323 -0.0189 -0.2158 -0.1326
 4692W        W 8743   2.130   6.261   5.351  0.2306 -0.0346 -0.0732
 4693W        W 8744   8.977   5.273   9.708 -0.0590  0.3018 -0.1126
 4694W        W 8745   0.493   4.857  10.388  0.0534 -0.1988  0.0064
 4695W        W 8746   5.105   6.312   8.933  0.1597 -0.1793 -0.3526
 4696W        W 8747   0.914   5.411  10.470  0.2149  0.1945  0.0712
 4697W        W 8748   7.025   7.030   1.413  0.0099  0.1904 -0.2546
 4698W        W 8749   8.475   9.793  12.298 -0.0872 -0.3875 -0.2089
 4699W        W 8750   2.304   8.726   0.034  0.2433 -0.2071  0.0110
 4700W        W 8751   4.956   9.061   0.428  0.2828 -0.0642 -0.1002
 4701W        W 8752   2.837   7.550   2.744  0.2237 -0.2067 -0.1173
 4702W        W 8753   7.399   3.942  13.586 -0.0959  0.0585 -0.0347
 4703W        W 8754   6.440   4.962   3.475  0.3151 -0.2492 -0.0865
 4704W        W 8755   3.078   4.760  11.609  0.0370  0.1992 -0.0526
 4705W        W 8756   6.675   4.916  10.977 -0.0516  0.3032 -0.1383
 4706W        W 8757   6.296   7.192  11.386 -0.2493  0.2470 -0.0394
 4707W        W 8758   0.773   5.708  12.189  0.0394 -0.1543 -0.2221
 4708W        W 8759   5.416   6.241   9.435  0.2249  0.1243  0.1515
 4709W        W 8760   3.667   9.974   0.058 -0.2078  0.0714 -0.0378
 4710W        W 8761   1.922   1.960  13.670  0.2227 -0.0076 -0.0443
 4711W        W 8762   9.620   1.753   3.671 -0.1400 -0.3753 -0.1095
 4712W        W 8763   3.586   2.942   1.558  0.0206 -0.2155 -0.4420
 4713W        W 8764   8.064   4.918   0.497  0.1654 -0.1723  0.0754
 4714W        W 8765   6.954   2.142   1.021  0.1377 -0.0370 -0.1476
 4715W        W 8766   0.561   6.304  10.096 -0.3051 -0.2372  0.0050
 4716W        W 8767   7.844   6.141  10.922 -0.2773  0.1345 -0.1539
 4717W        W 8768   3.232   9.373  11.851  0.0409  0.2797  0.3377
 4718W        W 8769   6.556   0.394   1.431  0.0241 -0.1067  0.1411
 4719W        W 8770   9.706   4.222   0.240 -0.1275  0.3231  0.0045
 4720W        W 8771   7.992   5.998   4.343  0.1203 -0.1237  0.1412
 4721W        W 8772   7.405   8.691   0.088  0.2321 -0.0053 -0.1062
 4722W        W 8773   4.406   0.391   2.932 -0.3574 -0.1431  0.0502
 4723W        W 8774   8.396   5.662   3.144 -0.0477  0.2764  0.1128
 4724W        W 8775   0.906   0.552   9.901  0.0928 -0.2632 -0.1358
 4725W        W 8776   5.624   3.152  10.056  0.2573 -0.0864  0.1308
 4726W        W 8777   1.835   1.114   2.671 -0.3941 -0.1191 -0.5205
 4727W        W 8778   6.951   0.055  13.255 -0.1161 -0.0498  0.0150
 4728W        W 8779   7.756   6.546   0.771 -0.0240  0.2855 -0.2079
 4729W        W 8780   0.203   2.639   1.467 -0.0847 -0.0965 -0.0873
 4730W        W 8781   8.886   0.658   9.289  0.0546 -0.0428 -0.0104
 4731W        W 8782   7.686   1.138   1.367 -0.0463 -0.0275  0.0566
 4732W        W 8783   8.255   2.568   4.278 -0.0437 -0.0108 -0.3842
 4733W        W 8784   8.528   4.450   4.018 -0.1140  0.0113  0.2413
 4734W        W 8785   1.247   2.566   0.326  0.2418 -0.0560 -0.0970
 4735W        W 8786   1.751   8.227   2.759 -0.0186 -0.1699 -0.2360
 4736W        W 8787   3.428   0.556   2.286 -0.1950 -0.2037  0.1195
 4737W        W 8788   8.756   7.868   2.082 -0.1061 -0.0744  0.2284
 4738W        W 8789   1.067   7.347   2.909  0.0026  0.0694  0.2519
 4739W        W 8790   3.764   4.752   3.913  0.1243 -0.3265  0.0676
 4740W        W 8791   9.341   5.433   2.781  0.0416  0.2348  0.0904
 4741W        W 8792   8.101   6.497   1.099 -0.0949  0.1842  0.0002
 4742W        W 8793   5.754   6.847   4.250 -0.1191  0.1302  0.0664
 4743W        W 8794   7.598   1.567  13.511 -0.0519 -0.1720  0.1599
 4744W        W 8795   4.362   0.702   2.385  0.2055  0.1024  0.0608
 4745W        W 8796   2.086   2.917  11.546  0.0326 -0.0143 -0.3019
 4746W        W 8797   7.006   2.995  11.243  0.1220  0.1922 -0.0875
 4747W        W 8798   4.567   5.052   1.283  0.4698 -0.0904  0.0216
 4748W        W 8799   7.460   0.439   3.032  0.0835 -0.4015  0.1141
 4749W        W 8800   6.217   8.097   4.879 -0.1821  0.0947 -0.0558
 4750W        W 8801   6.999   8.243   3.193  0.1067  0.0134 -0.0284
 4751W        W 8802   1.910  10.175   4.142 -0.3694 -0.1976  0.3235
 4752W        W 8803   6.233   4.409  12.321  0.0666  0.1624 -0.1630
 4753W        W 8804   4.350   7.667  11.391 -0.0651  0.0702  0.3463
 4754W        W 8805   5.285   6.135  11.129 -0.1457  0.0845 -0.2367
 4755W        W 8806   2.845   2.528  10.864 -0.0898 -0.3294 -0.0731
 4756W        W 8807   4.908   3.006  11.313  0.0479 -0.1378 -0.2421
 4757W        W 8808   0.804   4.504  11.981 -0.3469 -0.1796  0.1065
 4758W        W 8809   7.684   1.719  12.188  0.1447  0.1526  0.0764
 4759W        W 8810   2.920   1.893   9.221  0.2646 -0.1019  0.1882
 4760W        W 8811   3.502   4.340   3.438 -0.3860 -0.2496 -0.0063
 4761W        W 8812   9.228   4.303   2.117  0.1586 -0.1423  0.0645
 4762W        W 8813   9.337   5.149  13.888  0.3676 -0.0449  0.1667
 4763W        W 8814   5.507   9.181   1.187  0.0098  0.0897  0.2496
 4764W        W 8815   0.784   0.751   2.672  0.0006  0.1022  0.1094
 4765W        W 8816   1.443   3.891  10.898  0.2513 -0.0362 -0.1013
 4766W        W 8817   5.466   9.845   3.487 -0.2424 -0.3664  0.1692
 4767W        W 8818   9.576   5.940  13.773 -0.0623 -0.1678 -0.1318
 4768W        W 8819   9.184   8.438   2.165  0.0130  0.3641  0.0208
 4769W        W 8820   6.252   5.425   0.451 -0.0756 -0.1208 -0.0926
 4770W        W 8821   9.821   1.036  11.719 -0.0545 -0.2549  0.1847
 4771W        W 8822   4.632   2.598  13.219 -0.2027 -0.0519 -0.2103
 4772W        W 8823   5.629   7.731   3.221 -0.0718  0.2188 -0.1633
 4773W        W 8824   1.559   1.135  11.205 -0.0140 -0.0444 -0.0431
 4774W        W 8825   0.945   7.467  13.977 -0.0999 -0.2121  0.2466
 4775W        W 8826   0.275   0.068   2.907 -0.4181  0.2016 -0.0539
 4776W        W 8827   0.785   2.727   0.144 -0.0231  0.1311  0.0479
 4777W        W 8828   0.627   5.584   3.659 -0.2326 -0.0793 -0.0803
 4778W        W 8829   9.616   8.732  10.471 -0.1640  0.1121  0.0830
 4779W        W 8830   5.705   7.127   0.274  0.0248 -0.0767  0.2723
 4780W        W 8831   5.405   7.610   1.952 -0.0448 -0.1658 -0.1432
 4781W        W 8832   9.109   8.569   0.518  0.0551  0.0616  0.4425
 4782W        W 8833   4.983   4.860  13.263 -0.0844  0.1607 -0.0430
 4783W        W 8834   3.537   6.802  10.942  0.1663 -0.2072  0.3870
 4784W        W 8835   4.334   4.806   4.277  0.0046 -0.1766 -0.2655
 4785W        W 8836   6.513   7.480   0.621  0.6653 -0.0645  0.0553
 4786W        W 8837   4.993   0.438   1.514  0.6121  0.0139  0.3196
 4787W        W 8838   4.795   1.281  12.452 -0.2293 -0.2611 -0.3986
 4788W        W 8839   9.391   3.879   3.813  0.1939 -0.0857  0.4254
 4789W        W 8840   9.240   6.442   3.832 -0.2512 -0.0042  0.0996
 4790W        W 8841   3.124   3.556   3.258  0.1788 -0.2486  0.0648
 4791W        W 8842   3.871   9.508   5.343  0.1464  0.0335  0.1681
 4792W        W 8843   9.980   3.805  10.387  0.1019  0.1628 -0.0429
 4793W        W 8844   2.251   5.663   1.045 -0.2232  0.1845  0.0345
 4794W        W 8845   6.964   4.245  13.864  0.0144 -0.0474 -0.2376
 4795W        W 8846   0.207   7.195  10.324 -0.2011 -0.1969 -0.1727
 4796W        W 8847   3.863   7.793  11.151 -0.2631  0.1479  0.0330
 4797W        W 8848   2.333   2.486  10.970  0.1848 -0.0843  0.2714
 4798W        W 8849   2.382   3.725   1.122  0.0423  0.1979 -0.0488
 4799W        W 8850   0.661   6.757  12.444 -0.1388 -0.0816 -0.2970
 4800W        W 8851   7.620   1.145   5.597  0.0452  0.1387 -0.2028
 4801W        W 8852   8.686   6.448   4.622 -0.0197 -0.3536 -0.0309
 4802W        W 8853   8.927   3.137  12.201  0.1941 -0.4273  0.1647
 4803W        W 8854   3.740   2.980  13.245 -0.0923 -0.1909 -0.1014
 4804W        W 8855   7.085   1.442  10.031 -0.0328  0.0873  0.0688
 4805W        W 8856   8.611   3.399  13.208  0.0021 -0.2097  0.1829
 4806W        W 8857   8.590   2.262   9.230  0.1765  0.0390  0.1852
 4807W        W 8858   4.712   9.723  12.912  0.0134 -0.0166  0.2649
 4808W        W 8859   3.697   4.289   0.549 -0.1924 -0.0976 -0.0569
 4809W        W 8860   3.149   8.166   9.261 -0.0418  0.1679 -0.2171
 4810W        W 8861   7.078   1.863   1.417 -0.0461 -0.1772 -0.0328
 4811W        W 8862   0.423   0.788  11.834  0.1011  0.2934  0.0300
 4812W        W 8863   1.840  10.082  13.904  0.2321  0.2475  0.0536
 4813W        W 8864   5.333   3.973  13.855  0.1280  0.3287  0.1116
 4814W        W 8865   9.394   8.360   2.619 -0.0574 -0.1152 -0.3347
 4815W        W 8866   9.993  10.063   2.566 -0.0410  0.0013  0.0673
 4816W        W 8867   1.468   7.965   3.081 -0.2349 -0.0311  0.1008
 4817W        W 8868   2.275   8.650  11.538 -0.0844  0.4001  0.1283
 4818W        W 8869   6.772   3.284   3.302  0.0074 -0.3425  0.2318
 4819W        W 8870   9.295   4.060  11.553  0.0534  0.3486  0.0901
 4820W        W 8871   2.481   6.823  11.225 -0.1825 -0.1900  0.0598
 4821W        W 8872   6.880   0.975  13.339 -0.3386  0.0733  0.1607
 4822W        W 8873   0.648   4.666   1.529 -0.0225 -0.0403 -0.1973
 4823W        W 8874   8.621   0.695  11.243 -0.0163 -0.1831 -0.0179
 4824W        W 8875   8.249   7.874   9.854  0.2742 -0.1082 -0.1038
 4825W        W 8876   3.378   7.806   2.054 -0.1738 -0.2634  0.1668
 4826W        W 8877   2.442   8.220   9.288  0.1164 -0.0541  0.1063
 4827W        W 8878   0.036   3.441   0.024 -0.2795 -0.4438 -0.0649
 4828W        W 8879   0.961   1.673  10.565 -0.1307 -0.0233  0.1550
 4829W        W 8880   5.037   7.496   1.624 -0.0160 -0.2790 -0.0431
 4830W        W 8881   6.467  10.150  12.069  0.0864  0.1338  0.1341
 4831W        W 8882   3.043   7.744  12.514 -0.1664  0.1927  0.1361
 4832W        W 8883   7.563   3.487  13.401  0.2266 -0.1172 -0.2675
 4833W        W 8884   8.526   6.291   1.296 -0.1004  0.0402 -0.1550
 4834W        W 8885   5.797   6.942   1.215  0.2121 -0.2520 -0.3736
 4835W        W 8886   5.440   8.419  12.847 -0.0283 -0.2603  0.0092
 4836W        W 8887   9.619   4.204   1.805  0.2197  0.1114 -0.1509
 4837W        W 8888   7.308   1.201  12.438 -0.0200  0.3502 -0.3132
 4838W        W 8889   3.072   6.978   0.868 -0.0287  0.2650 -0.0276
 4839W        W 8890   3.904   0.470   4.924 -0.0652  0.0065 -0.2251
 4840W        W 8891   3.876   5.080  10.533  0.2276  0.3338  0.1005
 4841W        W 8892   8.858   1.336   3.726 -0.1102  0.0689  0.3578
 4842W        W 8893   0.435   2.169   1.440 -0.1345  0.0379  0.2390
 4843W        W 8894   5.831   5.986   9.481 -0.1285  0.1670 -0.4310
 4844W        W 8895   0.092   3.821   2.479 -0.0661  0.3337 -0.1786
 4845W        W 8896   2.500   4.725   9.600 -0.3331  0.2018 -0.0103
 4846W        W 8897   5.762   4.161   9.735  0.3196  0.0435  0.1677
 4847W        W 8898   4.840   2.213  11.359  0.4007  0.0708  0.0929
 4848W        W 8899   3.236   4.822   1.722 -0.2496 -0.1392 -0.1147
 4849W        W 8900   8.623   4.394   1.686 -0.1032  0.2239  0.1646
 4850W        W 8901   1.079   0.276   0.127  0.0261 -0.1221 -0.0456
 4851W        W 8902   8.404   2.907  11.363  0.0809 -0.0671  0.1320
 4852W        W 8903   1.478   1.223   4.658  0.0162 -0.0135  0.1188
 4853W        W 8904   2.210   2.302   1.515 -0.1172  0.0027 -0.0396
 4854W        W 8905   9.976   6.061   2.492 -0.2360 -0.0084 -0.0377
 4855W        W 8906   5.812   4.320   4.898  0.0739 -0.2412 -0.0660
 4856W        W 8907   6.314   1.967  12.081  0.0425  0.0862 -0.1318
 4857W        W 8908   2.883   8.643  10.943 -0.1258  0.2073  0.1912
 4858W        W 8909   4.109   7.275  13.326 -0.2734 -0.0274  0.0364
 4859W        W 8910   2.265   7.210   1.195 -0.0807  0.1718  0.3102
 4860W        W 8911   8.299   3.401  10.723  0.0126 -0.2077  0.3517
 4861W        W 8912   3.022   5.512  13.107  0.1405 -0.0357 -0.0273
 4862W        W 8913   2.559   9.879  13.238 -0.0485 -0.0448 -0.2876
 4863W        W 8914   2.807   5.109  13.263  0.1255  0.5970  0.2186
 4864W        W 8915   7.209   5.007   3.060  0.0987 -0.3241  0.0455
 4865W        W 8916   3.788   0.075   4.606  0.0793  0.1021 -0.1750
 4866W        W 8917   6.981   7.381   2.199 -0.2438 -0.0160  0.0727
 4867W        W 8918   1.822   8.007  10.156  0.2240  0.2280 -0.1761
 4868W        W 8919   7.558   3.997  12.257 -0.0240  0.2135  0.0815
 4869W        W 8920   1.688   4.095   2.237  0.2404  0.0672  0.3491
 4870W        W 8921   6.426   8.052   0.683 -0.0102  0.3054  0.0893
 4871W        W 8922   8.694   9.255  13.777 -0.0219  0.1504 -0.1001
 4872W        W 8923   7.579   5.745  13.414 -0.0282  0.2123 -0.0999
 4873W        W 8924   6.742   5.267   3.747 -0.1019 -0.3201  0.2469
 4874W        W 8925   8.460   3.900   3.880  0.0577  0.1872  0.0014
 4875W        W 8926   1.136   9.637   9.435  0.4985  0.3566  0.3172
 4876W        W 8927   0.239   2.403  13.489 -0.0811  0.0564  0.2876
 4877W        W 8928   0.744   0.204   3.120 -0.3249 -0.0510  0.2725
 4878W        W 8929   5.702   1.746   1.464  0.0050  0.1250  0.6703
 4879W        W 8930   5.579   7.494   9.940  0.0590 -0.2420 -0.1572
 4880W        W 8931   3.340   2.516   1.198 -0.2900  0.2329 -0.1776
 4881W        W 8932   3.115   4.146  13.118 -0.1337 -0.0448 -0.4604
 4882W        W 8933   3.341   5.322   1.909 -0.1573 -0.1378  0.2115
 4883W        W 8934   9.757   1.025   3.932 -0.0181  0.0582  0.0739
 4884W        W 8935   1.619   9.802  11.684 -0.1902 -0.0416 -0.3003
 4885W        W 8936   8.354   6.373   2.788 -0.3554  0.1757  0.2343
 4886W        W 8937   9.183   9.844   2.354 -0.2919 -0.2425  0.3254
 4887W        W 8938   2.762   6.675  11.617  0.0938 -0.0420  0.1081
 4888W        W 8939   6.022   0.207   4.101  0.0503 -0.0439 -0.1245
 4889W        W 8940   8.917   3.715  11.926  0.0922  0.2856  0.0351
 4890W        W 8941   6.731   9.687   4.023 -0.1410 -0.2716 -0.0959
 4891W        W 8942   6.411   3.828   4.455  0.0567  0.0402  0.2248
 4892W        W 8943   3.334   2.998   2.050  0.2731  0.0732 -0.1475
 4893W        W 8944   0.463   8.878   1.283  0.3445  0.0997  0.1058
 4894W        W 8945   2.255   1.817   2.758  0.0780  0.1265 -0.0644
 4895W        W 8946   5.118   6.912   4.961  0.2805 -0.0033  0.1177
 4896W        W 8947   9.862   5.038   1.422  0.1805  0.3875  0.0332
 4897W        W 8948   0.085   6.434  10.435 -0.3195 -0.1926  0.0651
 4898W        W 8949   6.444   2.932  11.040  0.0653 -0.1150 -0.1683
 4899W        W 8950   1.233   3.824   1.720 -0.0182  0.0184  0.2327
 4900W        W 8951   1.237   7.357  13.485  0.0321  0.1126 -0.1307
 4901W        W 8952   2.606   6.369   4.059 -0.0024  0.1249  0.3492
 4902W        W 8953   0.264   5.909   4.587 -0.2099  0.1881 -0.0295
 4903W        W 8954   8.067   7.669  10.609 -0.1244 -0.1444 -0.1546
 4904W        W 8955   5.066   9.816   0.459 -0.1673  0.2144  0.1742
 4905W        W 8956   6.615   5.968  11.742 -0.1789 -0.0786 -0.3900
 4906W        W 8957   7.217   6.854   0.802 -0.1838 -0.0014 -0.1846
 4907W        W 8958   8.310   6.675  11.534  0.0890  0.0959  0.1113
 4908W        W 8959   0.142   8.936   3.332  0.1903 -0.1637 -0.1216
 4909W        W 8960   4.699   8.584   3.763  0.2717  0.1002 -0.2672
 4910W        W 8961   0.011   9.679  11.028 -0.1405  0.0769  0.2772
 4911W        W 8962   4.408   1.941   3.926 -0.1365 -0.3131 -0.3898
 4912W        W 8963   7.679   5.683  10.112 -0.0745  0.1029 -0.0137
 4913W        W 8964   9.712   7.363   1.898  0.1434  0.3386  0.2330
 4914W        W 8965  10.085   7.761   0.962 -0.0473 -0.2119  0.0426
 4915W        W 8966   8.027   7.594  11.143  0.0855  0.1629  0.2619
 4916W        W 8967   7.386   2.673  11.320  0.0305 -0.0857  0.0943
 4917W        W 8968   4.331   1.783   3.388 -0.0405  0.5065  0.0064
 4918W        W 8969   4.733   9.459   0.678 -0.1998 -0.0810  0.1817
 4919W        W 8970   8.165   7.306   2.884 -0.5277  0.0971 -0.2318
 4920W        W 8971   2.781   7.201  10.534 -0.0943 -0.3063  0.0929
 4921W        W 8972   0.190   1.750  12.945 -0.0182 -0.4705  0.3361
 4922W        W 8973   7.512   1.544   4.714  0.0654  0.3534 -0.0434
 4923W        W 8974   9.152   3.134   1.325 -0.1694 -0.1759  0.2732
 4924W        W 8975   1.842   1.676   0.965 -0.1854  0.0635 -0.2163
 4925W        W 8976   6.724   7.236   1.017  0.0493 -0.1246 -0.1054
 4926W        W 8977   7.827   7.067  11.191 -0.1443  0.3773  0.0696
 4927W        W 8978   1.812   7.752  11.091  0.0553  0.0185  0.2671
 4928W        W 8979   1.237   4.396   1.957 -0.0132 -0.0570 -0.1116
 4929W        W 8980   9.758   8.891   3.389  0.0006  0.0482  0.1622
 4930W        W 8981   7.460   3.654  11.292  0.1275 -0.0941 -0.0173
 4931W        W 8982   7.408   9.169   0.288  0.0940 -0.1142  0.0424
 4932W        W 8983   4.715   9.966   9.890 -0.1991 -0.2014  0.2462
 4933W        W 8984   2.946   8.517   1.643 -0.2329  0.1916 -0.0087
 4934W        W 8985   4.912   7.439   2.768 -0.0148  0.2739  0.0076
 4935W        W 8986   6.477   7.283   2.233  0.1500 -0.1907  0.1585
 4936W        W 8987   0.048   5.670  13.178 -0.1195  0.0672  0.0292
 4937W        W 8988   8.968   1.523   4.194  0.1108 -0.0742  0.0728
 4938W        W 8989   7.295   5.789   9.341  0.1250 -0.2139 -0.1889
 4939W        W 8990   4.855   0.839  11.954 -0.0905  0.0857  0.1063
 4940W        W 8991   5.065   6.555   3.981  0.2071  0.1995  0.2208
 4941W        W 8992   3.236   4.632   1.209 -0.0861  0.0315 -0.2423
 4942W        W 8993   7.377   3.235  10.960  0.0310 -0.0612  0.0311
 4943W        W 8994   4.607   0.519  12.291  0.0216 -0.0415 -0.0616
 4944W        W 8995  10.159   0.952  10.429 -0.1804 -0.2257 -0.1972
 4945W        W 8996   8.988   8.067   0.660 -0.4669 -0.1555 -0.1348
 4946W        W 8997   9.943   1.809  12.488  0.1844  0.2148 -0.1333
 4947W        W 8998   7.911   0.520   2.772  0.0509  0.1734  0.1971
 4948W        W 8999   1.154   5.835   2.378  0.1479  0.0962 -0.1046
 4949W        W 9000   3.279   8.335   1.172 -0.1165  0.1282 -0.0870
 4950W        W 9001   5.010   8.635  12.158 -0.1604 -0.0330 -0.2197
 4951W        W 9002   6.078   6.035  10.551 -0.3133 -0.2005  0.1077
 4952W        W 9003   0.729   3.945  10.654  0.0896  0.0993  0.0355
 4953W        W 9004   2.584   5.764  11.342  0.0018 -0.0243  0.2218
 4954W        W 9005   8.822   2.933   0.451 -0.3849 -0.2529 -0.2329
 4955W        W 9006   9.526   2.658   3.305  0.0474  0.0635  0.1104
 4956W        W 9007   9.878   6.773  11.169 -0.0336 -0.0799 -0.0664
 4957W        W 9008   4.080   8.763   1.284 -0.0822 -0.0410  0.2012
 4958W        W 9009   9.375   5.740   1.792 -0.1586  0.2118  0.0652
 4959W        W 9010   9.306   5.551  13.564 -0.0940 -0.0150 -0.0495
 4960W        W 9011   8.885   0.656  10.776 -0.0893  0.0447  0.0725
 4961W        W 9012   2.246   1.624   0.523  0.0037 -0.1704  0.0034
 4962W        W 9013   1.411   3.150   2.025  0.1515 -0.1650  0.0007
 4963W        W 9014   3.421   3.637   2.892  0.2025 -0.0786  0.0315
 4964W        W 9015   3.895   5.858  10.692  0.1491  0.0323 -0.0202
 4965W        W 9016   2.460   1.578  10.175  0.0938 -0.3952 -0.0215
 4966W        W 9017   2.448   0.836   2.951 -0.3167  0.3137 -0.0789
 4967W        W 9018   7.079   2.032  12.636  0.1833  0.1702 -0.1034
 4968W        W 9019   0.854   0.884   3.217  0.1457  0.1906  0.1376
 4969W        W 9020   9.929   4.151  12.062  0.0366  0.1237  0.2560
 4970W        W 9021   5.332   2.030  11.534  0.1148 -0.1486 -0.0002
 4971W        W 9022   7.698   9.592  12.882 -0.0699 -0.0675 -0.2152
 4972W        W 9023   1.071   1.223  13.332 -0.1626  0.2232 -0.1044
 4973W        W 9024   2.615   5.343   0.104  0.2033  0.1665 -0.3936
 4974W        W 9025   5.415   8.637   4.787  0.0816  0.0401 -0.1960
 4975W        W 9026   5.322   1.243  12.935  0.0266 -0.2913  0.0929
 4976W        W 9027   7.753   5.424  13.782 -0.2511  0.1145 -0.0848
 4977W        W 9028   0.749   2.100  10.681  0.1351 -0.0018 -0.0010
 4978W        W 9029  10.161   5.645   2.252  0.2621 -0.2225  0.0446
 4979W        W 9030   6.627   2.111  12.418 -0.0207 -0.2865 -0.2012
 4980W        W 9031   5.299   8.626  10.843 -0.2579  0.0346  0.2223
 4981W        W 9032   5.883   2.798  12.472  0.1079 -0.3422 -0.0476
 4982W        W 9033   3.810   6.136  10.273  0.0326  0.0728  0.1604
 4983W        W 9034   9.192   5.310   1.994 -0.1739  0.2662 -0.0925
 4984W        W 9035   5.888   2.357  11.349  0.0653  0.0420 -0.0738
 4985W        W 9036   5.884   7.141  11.685  0.1106 -0.0228 -0.1027
 4986W        W 9037   2.956   2.248   1.017  0.0578 -0.1938  0.3777
 4987W        W 9038   5.042   3.604  12.458  0.1590 -0.1495 -0.1610
 4988W        W 9039   4.520   7.827   3.987 -0.0344  0.2196  0.0535
 4989W        W 9040   9.598   0.218  11.370  0.1536 -0.1145 -0.1249
 4990W        W 9041   4.041   5.634   2.481  0.3535 -0.2128  0.0216
 4991W        W 9042   3.547   6.200   5.534 -0.0873 -0.1995  0.2550
 4992W        W 9043   3.484   2.106  13.273 -0.0515  0.2696 -0.2262
 4993W        W 9044   0.383   1.055   3.333  0.3823  0.0696 -0.1152
 4994W        W 9045   6.728   5.312   2.379  0.2149 -0.0963  0.1097
 4995W        W 9046   4.155   1.985   0.082 -0.0846 -0.0334 -0.3932
 4996W        W 9047   3.990   5.928   4.875  0.0968  0.0839 -0.0289
 4997W        W 9048   3.502   0.565   2.845  0.2854  0.3144 -0.0432
 4998W        W 9049   9.729   2.344   2.963 -0.1480  0.0231  0.0714
 4999W        W 9050   5.632   3.166   4.720 -0.0053  0.2504 -0.1589
 5000W        W 9051   2.818   2.458   1.545 -0.1734  0.0417  0.0131
 5001W        W 9052   2.783   9.840   3.774 -0.1563  0.0352  0.1837
 5002W        W 9053   2.708   2.051   2.997 -0.2433  0.2898 -0.0773
 5003W        W 9054   6.726   0.453  13.288  0.1486  0.1458  0.1865
 5004W        W 9055   5.145   3.723  10.581 -0.0962  0.3851  0.0389
 5005W        W 9056   2.788   9.631   3.179  0.0934  0.1929  0.2261
 5006W        W 9057   0.973   6.823  12.855 -0.0684 -0.1665  0.1259
 5007W        W 9058   1.411   5.794  13.162 -0.0577 -0.2022 -0.0062
 5008W        W 9059   7.816   7.773  11.593  0.0569 -0.2721  0.2443
 5009W        W 9060   5.462   6.904   3.791  0.1544  0.0956 -0.1162
 5010W        W 9061   7.601   1.815   3.404 -0.0484  0.2265  0.0651
 5011W        W 9062   1.274   1.703   4.768 -0.1222  0.1266  0.0823
 5012W        W 9063   1.295   6.190  10.829 -0.2614  0.1294 -0.0671
 5013W        W 9064   5.470   8.942   0.100 -0.1962 -0.0192 -0.2346
 5014W        W 9065   9.464   4.690   1.954 -0.0650  0.0567  0.6089
 5015W        W 9066   0.042   2.304  12.543  0.1486  0.0920 -0.1487
 5016W        W 9067   0.122   3.818   1.954 -0.2054  0.2154  0.1509
 5017W        W 9068   1.342   0.398   4.262  0.4449  0.2586 -0.0741
 5018W        W 9069   3.415   5.500  10.189 -0.3785 -0.1133  0.2082
 5019W        W 9070   0.077   9.184   1.373 -0.0062 -0.0649 -0.1915
 5020W        W 9071   8.347   4.345   1.211  0.0477  0.1710 -0.1850
 5021W        W 9072   4.222   0.422   1.942  0.0021  0.0043  0.0104
 5022W        W 9073   4.965   8.821  12.651 -0.0063  0.0753  0.3878
 5023W        W 9074   7.267   5.308  13.547  0.4747 -0.1193 -0.0859
 5024W        W 9075   0.252   4.040  10.305  0.0177  0.0224  0.1184
 5025W        W 9076   5.745   2.618  11.824  0.0004 -0.1795 -0.2773
 5026W        W 9077   5.362   2.862  13.336 -0.0139  0.1364 -0.1780
 5027W        W 9078   3.919   0.730  12.138  0.1394  0.1104  0.1318
 5028W        W 9079   8.163   7.825   3.710  0.1646  0.1408  0.1859
 5029W        W 9080   8.994   3.410   0.769  0.1668 -0.2614  0.3410
 5030W        W 9081   3.784   2.420  11.808  0.2810  0.0118  0.0601
 5031W        W 9082   6.720   5.505   4.254  0.2491 -0.2154 -0.2920
 5032W        W 9083   9.091   8.074   1.721 -0.2681 -0.2708  0.1208
 5033W        W 9084   2.797   9.461  13.972 -0.1581 -0.1316  0.4156
 5034W        W 9085   3.310   2.799   2.543  0.3665  0.1601 -0.4460
 5035W        W 9086   8.875   9.323  11.485  0.1046  0.0608 -0.0189
 5036W        W 9087   9.974   7.737  12.712  0.1385  0.2053 -0.2438
 5037W        W 9088   6.828   1.957   4.080  0.0838 -0.1496 -0.0560
 5038W        W 9089   9.839   1.831   1.788  0.1483  0.0890 -0.0787
 5039W        W 9090   5.129   3.325  12.987  0.1927  0.0891  0.1166
 5040W        W 9091   5.307   9.031  13.017 -0.2588 -0.0453 -0.3521
 5041W        W 9092   1.085  10.044  13.184 -0.3228  0.2388  0.1632
 5042W        W 9093   2.414   3.697  12.102  0.1737  0.0861 -0.0670
 5043W        W 9094   7.699   0.875   3.157 -0.0642  0.0616  0.1301
 5044W        W 9095   4.536   5.523   0.477 -0.0678 -0.0389 -0.3583
 5045W        W 9096   5.549   7.747   0.165 -0.0878  0.3304 -0.0602
 5046W        W 9097   9.688   4.215  13.376  0.0127  0.1850 -0.2587
 5047W        W 9098   9.124   1.553   2.911  0.1405 -0.1923 -0.3509
 5048W        W 9099   7.780   1.729  10.459 -0.4324  0.0175  0.0956
 5049W        W 9100   6.550   1.772  12.803  0.0348 -0.1053  0.1807
 5050W        W 9101   0.629   2.091   2.390 -0.1931 -0.1044  0.0856
 5051W        W 9102   4.076   0.155   3.823 -0.0343 -0.0076  0.0770
 5052W        W 9103   0.023   7.028  10.784 -0.3782 -0.3718 -0.0073
 5053W        W 9104   5.298   2.050   0.189  0.0241 -0.0840 -0.3381
 5054W        W 9105   4.306   8.688   9.851  0.0815 -0.0701  0.2666
 5055W        W 9106   4.680   7.624   0.644  0.1817  0.1523 -0.1360
 5056W        W 9107   2.696   9.910   5.209  0.2806 -0.0702  0.1657
 5057W        W 9108   7.954   9.973   0.937 -0.1435  0.2035  0.2399
 5058W        W 9109   5.851   4.923   2.273  0.1535  0.0703  0.1935
 5059W        W 9110   9.346   1.868   4.407 -0.3007  0.0699  0.0670
 5060W        W 9111   4.163   5.267   4.116 -0.1365 -0.5146  0.2226
 5061W        W 9112   6.416   3.903   0.720  0.0964 -0.0405  0.2578
 5062W        W 9113   2.771   4.015   9.034  0.0093 -0.0945  0.1261
 5063W        W 9114   9.320   4.042   1.016  0.0433  0.1999 -0.0624
 5064W        W 9115   1.549   1.049   1.566 -0.1580 -0.1349  0.1751
 5065W        W 9116   6.568  10.091   1.458  0.2268  0.1041  0.3447
 5066W        W 9117   9.587   5.083   2.326  0.2826 -0.2664  0.1037
 5067W        W 9118   8.633   0.207   9.126 -0.0868  0.1099  0.0645
 5068W        W 9119   5.736   3.652  10.679  0.1243  0.1156 -0.0621
 5069W        W 9120   4.753   1.600  11.559 -0.1013  0.0344 -0.0245
 5070W        W 9121   0.015   4.565  12.513 -0.0193  0.2799  0.0890
 5071W        W 9122   8.912   1.533   2.234  0.1392  0.0161  0.3182
 5072W        W 9123   2.570   7.237   3.773  0.0284 -0.1287  0.2304
 5073W        W 9124   7.755   8.638  12.205 -0.1898  0.0134  0.0600
 5074W        W 9125   3.681   2.074  12.781 -0.0922  0.0692  0.1330
 5075W        W 9126   7.503   0.066   9.935 -0.1146 -0.1053  0.3052
 5076W        W 9127   7.544   5.440   3.738 -0.3331  0.1569  0.1621
 5077W        W 9128   5.834   5.210   1.756  0.1575  0.1026 -0.2066
 5078W        W 9129   0.072   5.296  12.663  0.2231  0.0255  0.4118
 5079W        W 9130   6.132   4.034   5.421  0.1971  0.2921  0.2747
 5080W        W 9131   5.857   8.801   2.998 -0.0420 -0.1643 -0.2579
 5081W        W 9132  10.133   6.089  12.264  0.0096 -0.0128 -0.0127
 5082W        W 9133   1.872   9.369   0.475 -0.2730 -0.1122  0.2433
 5083W        W 9134   5.580   5.950  12.778  0.0459  0.1687  0.0741
 5084W        W 9135   0.771   0.928  12.980  0.3997 -0.3337 -0.0398
 5085W        W 9136   4.008   4.737  13.095 -0.3930  0.0876  0.0436
 5086W        W 9137   2.697   2.650   9.439 -0.0690  0.0399  0.1352
 5087W        W 9138   3.084   8.632  13.152 -0.0281  0.3631  0.1669
 5088W        W 9139   2.989   6.946   4.669 -0.0266  0.1714  0.0304
 5089W        W 9140   5.095   3.072   9.995 -0.2165  0.0040  0.0980
 5090W        W 9141   3.414   2.174   4.642 -0.1099 -0.0636  0.0338
 5091W        W 9142   4.580   3.949   3.311 -0.1058  0.0238  0.1709
 5092W        W 9143   0.195   2.495   0.139 -0.0409 -0.1211 -0.0783
 5093W        W 9144   3.456   2.086   2.991 -0.1012  0.1434  0.1522
 5094W        W 9145   7.254   6.853   1.789 -0.0324 -0.1583 -0.0291
 5095W        W 9146   9.230   7.941   2.233  0.1832  0.0876 -0.1476
 5096W        W 9147   1.654   1.092   2.193 -0.0234 -0.1292 -0.1640
 5097W        W 9148   8.584   9.660   0.027 -0.2209 -0.0095  0.0419
 5098W        W 9149   3.760   6.709   0.031 -0.0746  0.0808 -0.0207
 5099W        W 9150   7.599   5.319   2.779 -0.2113 -0.1406  0.1387
 5100W        W 9151   7.186   5.050  12.653 -0.1521 -0.0450  0.1406
 5101W        W 9152   4.666   3.694   5.233  0.2473 -0.2501  0.0218
 5102W        W 9153   4.901   3.743  13.952 -0.2315  0.2626  0.0931
 5103W        W 9154   2.584   6.763  10.303  0.0413 -0.3564 -0.1718
 5104W        W 9155   2.845   4.011  12.362 -0.2570 -0.2089  0.1645
 5105W        W 9156   2.985   2.229  10.480  0.0246  0.2928  0.2748
 5106W        W 9157   2.707   5.799  10.866  0.0503  0.0354  0.1231
 5107W        W 9158   8.014   3.949   9.900  0.0639 -0.1772 -0.1878
 5108W        W 9159   3.345   7.905  11.910 -0.0567  0.0459  0.0481
 5109W        W 9160   5.841   0.850   1.131  0.0912 -0.3173 -0.2897
 5110W        W 9161   0.878   6.756  11.132 -0.2939 -0.2016  0.0590
 5111W        W 9162   2.920   3.338   9.795 -0.3014  0.1086  0.0520
 5112W        W 9163   2.482   3.368   4.234  0.0155  0.0691  0.2157
 5113W        W 9164   1.846   9.731  10.779 -0.1653 -0.2978  0.1568
 5114W        W 9165   8.695   0.123   4.323 -0.1072  0.2563 -0.3031
 5115W        W 9166   6.684   4.287  12.164 -0.2281 -0.1272  0.2482
 5116W        W 9167   2.749   1.041   4.479 -0.0173  0.1412 -0.0000
 5117W        W 9168   6.038   7.153   2.455  0.0258  0.3320  0.2109
 5118W        W 9169   9.191   4.463   9.440  0.2846 -0.2358  0.1072
 5119W        W 9170   2.793   3.006   3.864  0.0172 -0.2604  0.0116
 5120W        W 9171   1.831   6.812  11.182  0.0469 -0.4942 -0.1743
 5121W        W 9172   1.851   4.914  13.156  0.3057  0.1133  0.0099
 5122W        W 9173   7.841   6.753  12.332 -0.2258 -0.2363  0.2048
 5123W        W 9174   6.057   0.808  10.712  0.2232 -0.1348 -0.3653
 5124W        W 9175   0.348   6.074  10.544 -0.1463  0.3104  0.1058
 5125W        W 9176   3.044   4.842   8.740 -0.0041  0.2510 -0.2934
 5126W        W 9177   4.716   4.590  13.573  0.3551  0.1498  0.1311
 5127W        W 9178   9.009   0.036  10.174  0.1128  0.3316  0.1021
 5128W        W 9179   4.247   0.812   1.035 -0.0235  0.0562  0.2673
 5129W        W 9180   5.513   4.592   0.816  0.0686 -0.1195 -0.2035
 5130W        W 9181   8.218   3.446   9.858  0.0818  0.1320  0.1174
 5131W        W 9182   7.628   4.487  11.153 -0.2134  0.0434  0.1091
 5132W        W 9183   3.558   7.491   9.719 -0.2063  0.1028  0.2153
 5133W        W 9184   7.756   1.114   0.416 -0.1306  0.1756 -0.0583
 5134W        W 9185   6.444   6.367   0.404  0.0814 -0.4076  0.2227
 5135W        W 9186   2.987   7.784  10.065 -0.2162 -0.1296  0.0454
 5136W        W 9187   1.957   4.313   0.125 -0.4685 -0.1211  0.0607
 5137W        W 9188   2.622   6.616   1.926 -0.0758 -0.1077  0.1707
 5138W        W 9189   9.079   9.087   2.187 -0.0851 -0.4450 -0.0310
 5139W        W 9190   6.389   8.301  12.130 -0.1678 -0.1594 -0.0015
 5140W        W 9191   6.311   5.491   0.942  0.1633 -0.0422  0.3024
 5141W        W 9192   4.403   4.996  12.737 -0.2867 -0.1584  0.3035
 5142W        W 9193   3.664   5.167  11.022  0.1571  0.1994  0.0056
 5143W        W 9194   9.227   5.653   0.082 -0.1798  0.0129  0.0505
 5144W        W 9195   2.128   7.872  13.492  0.0652 -0.0327  0.1481
 5145W        W 9196   9.383   4.049  12.523  0.0868  0.0194 -0.0062
 5146W        W 9197   4.545   8.292   1.930 -0.1456 -0.0614 -0.1245
 5147W        W 9198   6.864   7.529   1.414 -0.2245  0.1229 -0.0345
 5148W        W 9199   4.011   1.757  11.219 -0.0414 -0.0680 -0.5148
 5149W        W 9200   7.168   9.739  11.574  0.5553  0.1857  0.3139
 5150W        W 9201  10.091   6.293   2.987  0.1712  0.1586  0.3223
 5151W        W 9202  10.014   3.853   0.305 -0.0519 -0.1257 -0.2896
 5152W        W 9203  10.053   6.960   1.379  0.0538 -0.1717  0.2248
 5153W        W 9204   3.042   8.225  13.428 -0.0533 -0.0160 -0.0375
 5154W        W 9205   9.305   2.786   8.969 -0.1965  0.4046 -0.0723
 5155W        W 9206   1.372   1.812  11.774  0.2955 -0.0329  0.2739
 5156W        W 9207   1.123   2.891   3.682 -0.0474  0.2903  0.5092
 5157W        W 9208   1.757   9.621  13.867  0.2162  0.0957  0.0870
 5158W        W 9209   7.770   4.031  11.079 -0.1753 -0.0880  0.2874
 5159W        W 9210   9.151   1.347  10.643 -0.1758 -0.0900  0.2080
 5160W        W 9211   5.128   3.881   5.291  0.1294  0.1133 -0.3407
 5161W        W 9212   0.746   8.839   1.694  0.2096  0.1770  0.1964
 5162W        W 9213   3.624   9.692   4.873  0.0333 -0.1100 -0.3275
 5163W        W 9214   0.920   0.658  12.457  0.1375 -0.0953  0.1597
 5164W        W 9215   5.480   7.820  10.299  0.0956  0.0860  0.0098
 5165W        W 9216   8.595   1.895   1.821  0.2105 -0.1158 -0.1256
 5166W        W 9217   3.496   9.977  13.585 -0.1383 -0.0537 -0.0970
 5167W        W 9218   1.261   5.033   4.295  0.1357 -0.1998 -0.1169
 5168W        W 9219   5.288   3.528   9.797  0.0631 -0.1280  0.0858
 5169W        W 9220   6.820   4.493   0.311 -0.0018  0.1972  0.1377
 5170W        W 9221   0.001   6.052   0.545  0.1420 -0.2688  0.1517
 5171W        W 9222   5.001   3.117  12.445 -0.0479 -0.1443 -0.0049
 5172W        W 9223   6.160   9.659  10.906  0.1512 -0.2163  0.3004
 5173W        W 9224   0.265   1.421  13.741  0.0478  0.0568 -0.1792
 5174W        W 9225   4.336   3.938  11.303  0.2995  0.0082 -0.2779
 5175W        W 9226   6.088   0.426  13.959 -0.1583  0.1435  0.0477
 5176W        W 9227   0.499   8.948  11.292 -0.2492 -0.0458  0.1461
 5177W        W 9228   6.740   3.832   3.932  0.0842  0.2592 -0.1299
 5178W        W 9229   1.963   3.104  12.791 -0.0090 -0.3377 -0.4070
 5179W        W 9230   4.928   9.538   2.331  0.1642  0.0284  0.1513
 5180W        W 9231   5.100   9.066   4.070 -0.1556 -0.0333  0.1006
 5181W        W 9232   7.324   3.649   1.317  0.1289  0.1578  0.0798
 5182W        W 9233   2.999   1.702  11.960  0.1174  0.1560  0.1586
 5183W        W 9234   8.764   3.572   2.664 -0.2784  0.1650  0.1209
 5184W        W 9235   8.749   4.210   0.309 -0.0655  0.1387 -0.1248
 5185W        W 9236   2.510   4.809   2.629  0.0321  0.0010  0.0890
 5186W        W 9237   4.137   8.941   0.822  0.0262 -0.3323  0.2238
 5187W        W 9238   6.664   3.749  13.758 -0.1226  0.2646  0.0002
 5188W        W 9239   3.952   1.681   3.870  0.1087  0.3609  0.2653
 5189W        W 9240   4.267   7.925   1.690  0.1260  0.0023  0.1493
 5190W        W 9241   2.987   1.658  12.520 -0.2315 -0.0421  0.0045
 5191W        W 9242   2.248   4.195  11.466 -0.3350 -0.0329  0.1287
 5192W        W 9243   2.219   9.726  13.875  0.4117 -0.2517 -0.0323
 5193W        W 9244   3.574   1.740   4.888  0.1063  0.3960 -0.1069
 5194W        W 9245   4.147   5.401   3.167  0.2927 -0.2009 -0.0881
 5195W        W 9246   2.500   9.458  11.323 -0.7426 -0.0861  0.1360
 5196W        W 9247   3.192   4.741   2.206  0.1526  0.2416 -0.0933
 5197W        W 9248   7.527   8.334   2.969  0.0046  0.1815  0.0776
 5198W        W 9249   5.680   7.145  12.271  0.1756 -0.3515 -0.0207
 5199W        W 9250   6.915   9.478   9.817  0.0839  0.1178  0.2330
 5200W        W 9251   9.151   0.057  11.735 -0.0205 -0.2109  0.0463
 5201W        W 9252   8.788   2.190  13.666  0.2312  0.0110  0.5941
 5202W        W 9253   2.584   0.557   2.537  0.1456  0.0038 -0.2652
 5203W        W 9254   2.492   2.833   1.378  0.1379 -0.1147 -0.2737
 5204W        W 9255   1.362   0.298  13.073 -0.0708 -0.1804  0.1151
 5205W        W 9256   6.213   2.608   4.491 -0.2427 -0.1436  0.4023
 5206W        W 9257   2.259   2.439   9.432 -0.1418  0.2830  0.0965
 5207W        W 9258   8.155   6.951   0.828 -0.1600  0.2430 -0.1394
 5208W        W 9259   7.138   4.992   8.828  0.0149 -0.0175  0.2070
 5209W        W 9260   3.376   6.694   5.340 -0.2042  0.0041  0.2800
 5210W        W 9261   7.140   4.023  10.038 -0.0639 -0.1218 -0.0430
 5211W        W 9262   1.819   4.446   4.863  0.0872 -0.0311  0.0826
 5212W        W 9263   4.464   5.069  11.298  0.0119 -0.2497  0.1922
 5213W        W 9264   2.368   5.334  13.249 -0.1605  0.3168 -0.0575
 5214W        W 9265   4.154   8.004  10.217  0.0726  0.4542 -0.0712
 5215W        W 9266   2.000   1.179   4.459  0.0934 -0.0221 -0.0465
 5216W        W 9267   7.771   1.049   9.709  0.5246 -0.3767  0.0662
 5217W        W 9268   2.349   9.459   0.736 -0.0108  0.0866 -0.0521
 5218W        W 9269   0.558   9.401   1.415 -0.1604 -0.2721  0.2231
 5219W        W 9270   6.532   8.984   3.921  0.1396  0.3552 -0.1861
 5220W        W 9271   7.515   4.110   4.163  0.0388  0.2042 -0.0267
 5221W        W 9272   9.324   0.647  13.946 -0.0770 -0.0076 -0.0278
 5222W        W 9273   2.506   2.751  13.244  0.1536  0.0210 -0.0185
 5223W        W 9274   4.147   8.547   4.459 -0.2947 -0.0443  0.2659
 5224W        W 9275   7.805   8.567  10.983 -0.2657 -0.1512 -0.0965
 5225W        W 9276   6.433   7.551  11.749  0.0418  0.2563  0.0080
 5226W        W 9277   0.309   8.728   0.107  0.0238 -0.2497 -0.1896
 5227W        W 9278   3.183   5.159  10.708  0.3302 -0.2062 -0.1026
 5228W        W 9279   4.794   4.053   4.257  0.0158  0.0429  0.0131
 5229W        W 9280   8.712   5.892   4.658  0.0693 -0.1756 -0.3406
 5230W        W 9281   5.827   8.486  12.221 -0.2914 -0.0134 -0.1921
 5231W        W 9282   4.312   0.353   1.215  0.2028  0.0224 -0.0740
 5232W        W 9283   3.600   2.392   2.620  0.0124 -0.2203 -0.1110
 5233W        W 9284   8.699   1.435   3.102 -0.2911 -0.1153  0.1710
 5234W        W 9285   3.413   0.016  10.452  0.4824 -0.3084  0.0620
 5235W        W 9286   6.149   4.118   9.981 -0.4656  0.0209 -0.0031
 5236W        W 9287   4.167   1.626   9.359 -0.1288 -0.0911 -0.1106
 5237W        W 9288   6.085   5.185   3.170 -0.2560  0.0714  0.1939
 5238W        W 9289   3.777   2.567   4.827  0.1271 -0.1780 -0.2731
 5239W        W 9290   7.772   2.405   9.162  0.1060 -0.1217 -0.1377
 5240W        W 9291   4.040   6.418   0.333  0.2210 -0.1985  0.2773
 5241W        W 9292   5.784   5.651   3.907  0.1009 -0.2472 -0.1422
 5242W        W 9293   7.452   3.166  11.508 -0.1101  0.2528 -0.1813
 5243W        W 9294   9.467   6.670  12.405  0.0378 -0.1954 -0.1473
 5244W        W 9295   6.476   2.636   9.528 -0.3827 -0.0204 -0.0559
 5245W        W 9296   2.273   8.163  10.975 -0.0461  0.0722  0.0473
 5246W        W 9297   6.638   7.388  11.017  0.2444 -0.2023  0.1668
 5247W        W 9298   5.519  10.103   1.568 -0.0916 -0.1384  0.0108
 5248W        W 9299   7.585   5.150   1.134  0.0879 -0.1006  0.2641
 5249W        W 9300   3.100   3.550   0.723 -0.2124  0.0794 -0.0469
 5250W        W 9301   3.722   2.612  10.884  0.0461 -0.2751 -0.0954
 5251W        W 9302   1.399   7.837  10.732  0.0999 -0.0038 -0.1552
 5252W        W 9303  10.110   3.337  11.770  0.1065 -0.0464 -0.1587
 5253W        W 9304   8.192   0.435   4.091  0.0407  0.1382  0.0349
 5254W        W 9305   8.544   8.597  10.414 -0.1836  0.1133 -0.2400
 5255W        W 9306   9.746   1.165  12.469 -0.3213  0.0153 -0.1392
 5256W        W 9307   0.010   7.031  12.957 -0.2509  0.0273 -0.1579
 5257W        W 9308   3.080   2.298   2.709 -0.1250  0.0172  0.0815
 5258W        W 9309   4.768   5.189   3.907 -0.1679  0.3402 -0.0039
 5259W        W 9310   1.650   3.664  10.247 -0.0420 -0.2745 -0.1443
 5260W        W 9311   2.732   1.072   3.948  0.1520  0.1415  0.0218
 5261W        W 9312   6.652   1.217  13.891 -0.1767  0.0825  0.0101
 5262W        W 9313   1.078   7.496  10.377  0.2831 -0.0858 -0.2394
 5263W        W 9314   5.072   2.166  12.610 -0.0055 -0.1630 -0.0438
 5264W        W 9315   0.795   3.321  12.100 -0.0571 -0.1574  0.1173
 5265W        W 9316   5.453   2.387   0.516  0.0434 -0.0593  0.0453
 5266W        W 9317   0.715   3.173   4.034  0.1285  0.0120  0.0498
 5267W        W 9318   8.817   3.383  12.685  0.3415 -0.0244 -0.0119
 5268W        W 9319   3.359   3.727   5.226  0.1930  0.3145 -0.1000
 5269W        W 9320   9.742   5.480   3.208 -0.1054 -0.0065 -0.0545
 5270W        W 9321   8.471   3.437   1.379 -0.3239 -0.1483  0.2244
 5271W        W 9322   2.381   1.546  11.404  0.2557 -0.0126  0.0502
 5272W        W 9323   6.703   5.249   3.204 -0.2301  0.0697  0.3134
 5273W        W 9324   7.916   4.135   2.145  0.2168  0.0768 -0.0568
 5274W        W 9325   2.064   3.309  13.781 -0.1132  0.1476 -0.2445
 5275W        W 9326   8.742   1.182   1.905  0.0796  0.2203  0.1612
 5276W        W 9327   8.409   7.250  13.533 -0.2767 -0.1544  0.0277
 5277W        W 9328   8.659   5.290   2.013 -0.1156  0.0326 -0.2849
 5278W        W 9329   2.275   2.397   4.706 -0.2543 -0.0258 -0.3545
 5279W        W 9330   7.834   4.006   2.723  0.2243  0.0189 -0.4038
 5280W        W 9331   8.971   2.883  12.643 -0.1299 -0.1359  0.1006
 5281W        W 9332   2.167   1.318   3.045  0.0755  0.0582  0.2202
 5282W        W 9333   4.671   4.757  10.903  0.1681  0.1327  0.0913
 5283W        W 9334   4.491   9.913  11.861  0.1551  0.2847  0.1480
 5284W        W 9335   7.626   9.815   1.307  0.2388  0.0844 -0.0260
 5285W        W 9336   6.917   4.764   4.690  0.2836  0.0036  0.0977
 5286W        W 9337   2.843   1.572   1.803  0.1034  0.2242  0.1333
 5287W        W 9338   9.392   6.547   1.077  0.0040  0.0635  0.3239
 5288W        W 9339   0.405   2.903   0.357 -0.0560  0.0377 -0.3155
 5289W        W 9340   7.175   5.625  11.201  0.0028 -0.0657  0.1601
 5290W        W 9341   4.033   2.602  13.439  0.1290 -0.5015 -0.0444
 5291W        W 9342   3.496   7.519   0.946  0.2636  0.1022 -0.3101
 5292W        W 9343   2.459   1.142   8.812  0.1337 -0.1600  0.2045
 5293W        W 9344   9.946   5.717   1.780  0.1560  0.1621 -0.1617
 5294W        W 9345   8.671   2.880  10.553 -0.0391 -0.2962  0.0553
 5295W        W 9346   7.840   4.021   5.240 -0.0323 -0.0599 -0.4058
 5296W        W 9347   3.965   6.147  11.199 -0.0269 -0.1807  0.1283
 5297W        W 9348   8.633   4.763   3.253 -0.1227  0.0731 -0.0720
 5298W        W 9349   1.432   2.530  13.234 -0.5055  0.3011 -0.1137
 5299W        W 9350   6.076   3.828   2.086 -0.2811  0.1187  0.0573
 5300W        W 9351   3.342   3.308   2.460  0.0503 -0.0569  0.0053
 5301W        W 9352   9.150   3.755  10.543  0.6686 -0.0681 -0.0172
 5302W        W 9353   5.497   3.616  10.239 -0.2187 -0.0156 -0.0251
 5303W        W 9354   4.953   7.875   4.240  0.1400 -0.5270 -0.0174
 5304W        W 9355   5.044   0.435   3.108 -0.1234 -0.0317  0.0860
 5305W        W 9356   9.979   6.835  12.301 -0.1240  0.0280  0.0347
 5306W        W 9357   0.212   2.815  10.467 -0.1330 -0.1218  0.0566
 5307W        W 9358   2.379   9.400   1.238 -0.3739 -0.1902  0.2919
 5308W        W 9359   0.501   0.479  12.765  0.1788  0.0548 -0.0221
 5309W        W 9360   5.989   6.122   3.976  0.3012  0.1509  0.2345
 5310W        W 9361   8.080   6.290  11.840  0.4659 -0.2377 -0.1888
 5311W        W 9362   9.290   7.588   9.972 -0.1386 -0.0891  0.1507
 5312W        W 9363   5.539   4.484  10.076  0.0343 -0.0072  0.0138
 5313W        W 9364   9.918   2.470  11.831 -0.0548 -0.4859 -0.3666
 5314W        W 9365   7.554   9.197   1.544  0.1805  0.0531 -0.2320
 5315W        W 9366   4.357   5.122   2.001 -0.2693  0.1102 -0.1644
 5316W        W 9367   4.082   6.336   1.830  0.0670  0.1141  0.0317
 5317W        W 9368   0.374   4.991  11.653  0.1869 -0.0690  0.0822
 5318W        W 9369   1.935   5.106   4.235 -0.0126  0.1318 -0.1249
 5319W        W 9370   9.225   9.897   9.470 -0.0073  0.0450 -0.1106
 5320W        W 9371   2.080   3.345  12.383  0.0050 -0.7412 -0.1526
 5321W        W 9372   9.838  10.117   0.457  0.1809  0.1553 -0.1756
 5322W        W 9373   3.067   4.648  10.298  0.0454  0.1079 -0.1335
 5323W        W 9374   8.963   4.118   4.009 -0.0700  0.1885  0.1163
 5324W        W 9375   4.527   3.079   0.644 -0.3070 -0.0223  0.0445
 5325W        W 9376   4.642   5.507   5.227  0.1993  0.0750  0.0051
 5326W        W 9377   5.413   2.991  12.824 -0.4933 -0.1659  0.2803
 5327W        W 9378   4.714   3.697  12.814 -0.0741 -0.2173 -0.0142
 5328W        W 9379   9.280   6.297  13.621  0.0079  0.2852 -0.1415
 5329W        W 9380   4.629   1.076   0.825 -0.0246 -0.2269  0.3578
 5330W        W 9381   8.976   6.480  11.496 -0.1980  0.3351 -0.1331
 5331W        W 9382   0.593   9.142   2.406  0.0779 -0.0358 -0.1143
 5332W        W 9383   0.950   4.084  13.933 -0.3756 -0.3191 -0.2412
 5333W        W 9384   2.888   2.948   1.774 -0.0715 -0.0499  0.0036
 5334W        W 9385   0.675   2.088   5.443 -0.2539 -0.0035  0.0376
 5335W        W 9386   2.280   2.081   9.800 -0.2575  0.1305  0.0428
 5336W        W 9387   7.298   5.573  12.497  0.1500 -0.1929 -0.3214
 5337W        W 9388   6.007  10.127   1.609 -0.0271 -0.0043  0.1586
 5338W        W 9389   4.751   0.168   2.617 -0.2633  0.4191 -0.0208
 5339W        W 9390   3.544   7.109   4.646  0.0947  0.0321  0.0889
 5340W        W 9391   8.405   3.927   0.885 -0.2831  0.0966  0.0356
 5341W        W 9392   5.664   2.732   0.839  0.0812 -0.2295  0.2288
 5342W        W 9393   8.695   0.961   2.956 -0.0822 -0.0030 -0.0012
 5343W        W 9394   1.304   9.857   1.554  0.3257  0.2190 -0.0422
 5344W        W 9395   2.629   9.894   9.588  0.0761  0.3452 -0.0783
 5345W        W 9396   3.423   5.628  12.065 -0.2467  0.1483 -0.2516
 5346W        W 9397   5.240   2.388   4.974 -0.2285 -0.2864  0.0705
 5347W        W 9398   4.239   8.358   4.920 -0.0549  0.0854  0.0235
 5348W        W 9399   0.003   3.335   8.753  0.0415  0.3071 -0.0643
 5349W        W 9400   7.621   2.157   2.384 -0.0359 -0.1682 -0.4453
 5350W        W 9401   3.011   2.657  13.410  0.0757 -0.0777  0.0450
 5351W        W 9402   9.059   7.163   1.550 -0.0439  0.1861  0.2429
 5352W        W 9403   7.912   6.646  10.925  0.1330 -0.1652  0.2614
 5353W        W 9404   8.420   2.617   0.309  0.0707  0.1537 -0.0620
 5354W        W 9405   4.832   5.183   2.664 -0.1970  0.0850 -0.0495
 5355W        W 9406   2.528   8.170  13.584 -0.1156  0.0877 -0.0625
 5356W        W 9407   2.696   4.909  10.061 -0.0163 -0.1715 -0.1705
 5357W        W 9408   9.419   9.360  12.282 -0.0496 -0.1773  0.1402
 5358W        W 9409   2.006   2.018   3.657  0.2143  0.1257 -0.2390
 5359W        W 9410   3.956   1.244   1.776 -0.0475 -0.3450  0.2151
 5360W        W 9411   1.096   6.820  10.560  0.1563 -0.3461 -0.2807
 5361W        W 9412   7.362   7.919  10.592  0.0706  0.0514 -0.0638
 5362W        W 9413   5.884   6.698   2.769  0.1249 -0.0059 -0.2248
 5363W        W 9414   4.005   2.690   2.819 -0.2322 -0.0272  0.1017
 5364W        W 9415   6.350   4.490   0.076 -0.0582  0.1701  0.0676
 5365W        W 9416   5.792   1.965   3.201  0.0801 -0.1058 -0.0715
 5366W        W 9417   5.500   8.277  10.585 -0.4215 -0.3245 -0.3547
 5367W        W 9418   1.507   1.302  12.591 -0.0603 -0.0057 -0.2681
 5368W        W 9419   4.892   4.030   9.673  0.0067  0.2599 -0.0627
 5369W        W 9420   7.755   3.331   4.144 -0.0424 -0.3297 -0.4077
 5370W        W 9421   4.394   6.918  12.885 -0.1000 -0.0435 -0.0386
 5371W        W 9422   1.728   1.153   3.338 -0.0244  0.2921 -0.1278
 5372W        W 9423   9.883   1.036  13.296  0.0482  0.0381  0.2296
 5373W        W 9424   4.940   2.343   2.687 -0.1350  0.1981 -0.0199
 5374W        W 9425   0.044   2.751  11.077  0.1552  0.2986 -0.1405
 5375W        W 9426   6.932   9.752  13.129 -0.0098 -0.0094 -0.2359
 5376W        W 9427   9.181   4.195  10.376  0.4712  0.0789  0.0738
 5377W        W 9428   0.064   8.022  11.867 -0.1104  0.0883  0.0019
 5378W        W 9429   3.405  10.088   1.149 -0.2109  0.0102  0.3495
 5379W        W 9430   3.657   4.849   1.427 -0.0987 -0.0346  0.1708
 5380W        W 9431   2.508   2.878  10.731 -0.0635 -0.2866 -0.0840
 5381W        W 9432   5.192   6.926   4.284  0.3270 -0.2844 -0.1686
 5382W        W 9433   4.617   7.987  10.581  0.0837 -0.0289 -0.1869
 5383W        W 9434   6.079   7.998   1.056  0.2914 -0.1265  0.3960
 5384W        W 9435   1.709   4.622   2.132  0.0253 -0.4695 -0.0436
 5385W        W 9436   3.361   1.433   3.525  0.1577  0.1637  0.1923
 5386W        W 9437   1.444   0.136   2.225  0.0076 -0.3040  0.1840
 5387W        W 9438   1.919   7.394   0.370 -0.0546 -0.2623  0.2991
 5388W        W 9439   5.078   5.586   2.328 -0.0769 -0.3475 -0.0310
 5389W        W 9440   4.589   0.452  12.810  0.1108 -0.2341  0.2291
 5390W        W 9441   2.998   6.616   4.284 -0.1299 -0.0774 -0.1018
 5391W        W 9442   9.599   1.694  10.531  0.4029  0.3018 -0.2097
 5392W        W 9443   8.330   9.650   0.452  0.1605  0.2515  0.2850
 5393W        W 9444   3.589   9.437  11.104  0.0780  0.1868 -0.1471
 5394W        W 9445   5.602   3.141  10.790  0.0692  0.0757 -0.1622
 5395W        W 9446   5.440   4.538   2.251 -0.0536  0.2637  0.1167
 5396W        W 9447  10.055   8.674  12.391  0.0523  0.0361  0.2363
 5397W        W 9448   1.739   3.260  11.556 -0.0153  0.1194 -0.0235
 5398W        W 9449   4.251   5.846   1.469 -0.3306  0.1993  0.1094
 5399W        W 9450   6.376   1.044   1.304  0.1611 -0.0303  0.2264
 5400W        W 9451   8.848   4.469  13.892 -0.3096  0.0167 -0.0099
 5401W        W 9452   2.131   0.483   0.114  0.0015  0.1068 -0.0451
 5402W        W 9453   2.162   1.241   9.364 -0.2331 -0.1730  0.1244
 5403W        W 9454   4.074   1.326  13.373  0.0126  0.0167  0.1193
 5404W        W 9455   9.549   7.909   1.807  0.2169 -0.3126 -0.0886
 5405W        W 9456   0.475   1.227  12.661  0.2135  0.0278  0.0408
 5406W        W 9457   4.888   7.519  10.490 -0.3000 -0.0289  0.0758
 5407W        W 9458   8.398   7.550   1.057 -0.0074  0.0869  0.0098
 5408W        W 9459   4.388   0.302  10.697 -0.1194 -0.1876  0.0810
 5409W        W 9460   8.417   0.019   1.873  0.2068  0.0266  0.0126
 5410W        W 9461   7.943   3.389   0.234  0.1886  0.2547 -0.1070
 5411W        W 9462   4.717   2.255   2.228 -0.1264  0.2875  0.0818
 5412W        W 9463   2.048   5.593   4.324 -0.1396  0.0439  0.0162
 5413W        W 9464   7.402   2.044  11.153  0.2026  0.3059  0.2767
 5414W        W 9465   4.047   3.607   3.317  0.1118 -0.0911 -0.0403
 5415W        W 9466   6.648   8.995  13.412  0.2007 -0.1951 -0.1450
 5416W        W 9467   6.554   8.796   1.983 -0.2511 -0.3915 -0.1019
 5417W        W 9468   2.079   5.501   9.668  0.0120 -0.2779 -0.0534
 5418W        W 9469   3.506   1.803   0.458  0.1643 -0.1198  0.0575
 5419W        W 9470   4.060   5.605  12.806 -0.3755 -0.4259  0.2794
 5420W        W 9471   3.077   8.366  12.608 -0.1268 -0.0078  0.0689
 5421W        W 9472   8.208   7.456   3.332 -0.0904 -0.4200 -0.5848
 5422W        W 9473   2.428   8.381  11.914  0.0986  0.0334 -0.4362
 5423W        W 9474   3.335   8.660   3.997 -0.0210  0.1945  0.1708
 5424W        W 9475   8.019   9.030   1.539 -0.3197 -0.2580 -0.1559
 5425W        W 9476   9.985   5.893   3.371 -0.0795  0.0311  0.0062
 5426W        W 9477   4.796   1.815  10.527 -0.0254  0.1805  0.1545
 5427W        W 9478   1.801   5.464   3.208 -0.1181 -0.2971 -0.4156
 5428W        W 9479   5.811   5.100  12.952 -0.1461  0.3671 -0.0450
 5429W        W 9480   4.413   5.516  13.161  0.2881  0.2458 -0.0508
 5430W        W 9481   0.533   2.734   8.998 -0.2452  0.2753 -0.1190
 5431W        W 9482   9.933   4.646   1.778 -0.0581  0.0540 -0.0734
 5432W        W 9483   6.438   3.068   0.144 -0.1373 -0.1082 -0.0935
 5433W        W 9484   4.938   4.414   0.495  0.0838 -0.2337 -0.1926
 5434W        W 9485   4.684   0.555   4.477  0.1901 -0.1670  0.1978
 5435W        W 9486   6.170   9.790  11.788 -0.4636 -0.0524 -0.2062
 5436W        W 9487   0.167   1.396  12.276  0.2751  0.2056 -0.0709
 5437W        W 9488   6.538   8.780  13.929  0.0716 -0.0529 -0.2762
 5438W        W 9489   4.359   6.449  12.498 -0.0822 -0.0210  0.1909
 5439W        W 9490   5.747   1.789  10.457 -0.0902  0.1635  0.0334
 5440W        W 9491   5.106   0.931   0.641 -0.1102 -0.0246  0.1035
 5441W        W 9492   8.519   7.669   2.947 -0.1493  0.2153 -0.1442
 5442W        W 9493   3.444   0.871  13.882  0.1312  0.1731 -0.0149
 5443W        W 9494   2.435   4.381   4.178  0.1243 -0.0581 -0.0442
 5444W        W 9495   3.629   7.919   4.199 -0.2509  0.2524 -0.2963
 5445W        W 9496   3.261   0.854   1.636 -0.1105 -0.1100  0.4544
 5446W        W 9497  10.115   0.346   2.581  0.1035 -0.0009 -0.1307
 5447W        W 9498   4.960   5.271   1.039 -0.3397 -0.0380 -0.1430
 5448W        W 9499   5.857   0.014  11.703 -0.2885 -0.2270  0.0328
 5449W        W 9500   1.737   4.190   8.430 -0.2821 -0.0258 -0.1087
 5450W        W 9501   9.861   2.872  13.200 -0.0609 -0.1309  0.3740
 5451W        W 9502   9.137   1.737  13.762  0.2031 -0.0699  0.0743
 5452W        W 9503   2.212   5.026   0.112 -0.1565  0.1849  0.1034
 5453W        W 9504   5.005   5.669  12.911  0.3725  0.0506  0.1231
 5454W        W 9505   7.604  10.133   2.869  0.0911  0.1032 -0.2835
 5455W        W 9506   3.304   0.147   3.074  0.1753 -0.2404 -0.2987
 5456W        W 9507   6.721   2.102   2.765 -0.1890  0.1900 -0.1606
 5457W        W 9508   1.888   7.277  13.409  0.1015  0.1048  0.1891
 5458W        W 9509   3.201   5.453   4.797  0.0051 -0.0460  0.2882
 5459W        W 9510   9.220   8.609  12.207  0.0158 -0.2893 -0.1756
 5460W        W 9511   5.969  10.148  13.264 -0.0736  0.0686  0.0034
 5461W        W 9512   0.406   4.377   3.454 -0.2730  0.1224 -0.2131
 5462W        W 9513   5.161   4.757   1.835 -0.1035  0.0373 -0.4564
 5463W        W 9514   3.248   7.511   3.454 -0.0887 -0.2775 -0.0676
 5464W        W 9515   5.583   1.464   3.128 -0.3048 -0.2315 -0.2811
 5465W        W 9516   9.764   2.329   0.681 -0.2725 -0.0150 -0.1337
 5466W        W 9517   3.353   5.349   4.339 -0.1901  0.1044 -0.1496
 5467W        W 9518   7.346   4.437   0.876 -0.0603 -0.3085  0.0172
 5468W        W 9519   1.060   4.251  10.072  0.0910  0.1263  0.3045
 5469W        W 9520   3.997   0.652   2.770  0.0244  0.0677 -0.1204
 5470W        W 9521   6.200   6.964   9.539  0.0814 -0.0854  0.2411
 5471W        W 9522   6.585   3.311   3.760 -0.1350  0.0246 -0.0796
 5472W        W 9523   0.992   8.252  12.892 -0.2069 -0.5155 -0.1132
 5473W        W 9524   1.078   3.141   2.399 -0.0313 -0.0527 -0.0193
 5474W        W 9525   5.293   0.209   1.201 -0.3160 -0.0293 -0.1296
 5475W        W 9526   0.153   1.310   2.342  0.1544 -0.2703 -0.1803
 5476W        W 9527   2.631   4.916   3.895  0.0756 -0.0817 -0.0832
 5477W        W 9528   4.587   4.709   1.865 -0.3314  0.1409 -0.2016
 5478W        W 9529   8.351   8.618  12.868 -0.0701  0.1907  0.0532
 5479W        W 9530   4.495   3.868   9.942 -0.0806  0.0025  0.2968
 5480W        W 9531   1.909   1.967   9.389 -0.1079  0.0475 -0.2404
 5481W        W 9532   1.070   4.830   2.838 -0.0728 -0.0968 -0.1083
 5482W        W 9533   1.901   0.205   0.425  0.1667 -0.2176 -0.3069
 5483W        W 9534   3.889   2.829  12.178 -0.0584 -0.0085 -0.2525
 5484W        W 9535   0.577   3.260   0.844  0.0302 -0.0197 -0.1746
 5485W        W 9536   1.037   4.440   0.289 -0.0964 -0.1881 -0.2476
 5486W        W 9537   2.135   3.880   9.556  0.0787 -0.2056 -0.3482
 5487W        W 9538   9.629   0.797   9.679 -0.0168 -0.0649  0.0806
 5488W        W 9539   3.552   6.459   2.446  0.1650  0.3234 -0.0573
 5489W        W 9540   0.895   1.919  11.957 -0.1686 -0.1287  0.0474
 5490W        W 9541   2.635   0.661   0.371  0.0654 -0.2771  0.2160
 5491W        W 9542   1.143   5.562  12.595 -0.4201 -0.0043  0.0289
 5492W        W 9543   1.475   3.935  11.849 -0.1958  0.2637  0.0592
 5493W        W 9544   0.539   5.819   9.723 -0.1758  0.2568  0.1812
 5494W        W 9545   3.390   3.800   2.101  0.0216  0.0515  0.0308
 5495W        W 9546   7.036   6.433  11.543 -0.1622 -0.0414 -0.0430
 5496W        W 9547   0.936   5.631   0.405 -0.0065 -0.1191  0.2343
 5497W        W 9548   6.779   6.820  12.143  0.0050  0.2150 -0.0810
 5498W        W 9549   2.023   1.903   2.236 -0.1162 -0.2744 -0.0381
 5499W        W 9550   5.249   2.780  10.883 -0.1402 -0.0547  0.0668
 5500W        W 9551   5.510   9.417   2.195 -0.0669 -0.4806  0.1247
 5501W        W 9552   3.031   0.179  10.786  0.0364  0.0784 -0.1574
 5502W        W 9553   7.595   7.299   1.458 -0.0819 -0.1594 -0.1763
 5503W        W 9554   5.183   6.058   3.255 -0.1369 -0.0974  0.1781
 5504W        W 9555   2.494   1.959  11.146 -0.0144  0.0529  0.0685
 5505W        W 9556   3.411   8.705   2.499 -0.3127  0.2144  0.0369
 5506W        W 9557   3.468   4.534   9.480  0.3468 -0.0593 -0.0935
 5507W        W 9558   3.430   9.813  11.601 -0.4431 -0.2057 -0.2492
 5508W        W 9559   0.538   7.107   3.259 -0.0780  0.0842  0.0339
 5509W        W 9560   2.924   3.476   5.102  0.2609 -0.0613  0.2862
 5510W        W 9561   4.688   1.487   4.309 -0.0717  0.2294  0.0744
 5511W        W 9562   9.453   7.622  10.692  0.1296  0.3486 -0.4621
 5512W        W 9563   4.808   6.301  10.955  0.3121 -0.0431  0.1361
 5513W        W 9564   9.837   8.139  13.968 -0.0756  0.2137 -0.0543
 5514W        W 9565   4.422   7.030  10.695 -0.0194  0.2855 -0.1372
 5515W        W 9566   5.265   4.740   0.313 -0.1139  0.2403 -0.1868
 5516W        W 9567   7.163   3.841   0.076  0.0348  0.0458 -0.0601
 5517W        W 9568   7.016   7.674  12.361  0.1271 -0.1741  0.2918
 5518W        W 9569   2.761   4.067  13.574  0.0283  0.0441 -0.0354
 5519W        W 9570   4.566   2.287   9.733  0.1777 -0.1582 -0.2301
 5520W        W 9571   2.060   1.519   3.509  0.2636  0.0311  0.0787
 5521W        W 9572   4.209   1.455   4.234 -0.1973  0.0691 -0.0669
 5522W        W 9573   6.559   2.432  12.065 -0.0661 -0.3944  0.0351
 5523W        W 9574   5.437   5.850  13.730  0.1064  0.0728 -0.0477
 5524W        W 9575   8.797   0.798   3.767 -0.1919  0.0117 -0.2746
 5525W        W 9576   2.062   6.998   4.249 -0.1170 -0.1788 -0.0209
 5526W        W 9577   5.008   3.750   9.228  0.2979 -0.1554  0.2983
 5527W        W 9578   8.918   7.569   3.210 -0.0359  0.3580 -0.2196
 5528W        W 9579   2.262   6.049  10.846 -0.0395  0.0962 -0.0627
 5529W        W 9580   3.966   5.133  12.540 -0.0600  0.0516  0.0068
 5530W        W 9581   7.915   5.621   3.420  0.1714  0.0514  0.2014
 5531W        W 9582   4.245   3.752   4.363  0.1256 -0.1599  0.2134
 5532W        W 9583   3.455   4.059   9.762  0.0484  0.2413 -0.1222
 5533W        W 9584   9.476   8.545  10.940  0.3241 -0.1655  0.1753
 5534W        W 9585   8.800   4.010   2.960  0.2987 -0.0619 -0.5749
 5535W        W 9586   5.220   1.651   2.756 -0.4206  0.0662  0.1795
 5536W        W 9587   6.301   5.671  11.988 -0.2137  0.3075  0.0185
 5537W        W 9588   0.887   7.383   4.257  0.1485  0.3027  0.0299
 5538W        W 9589   1.491   6.395   1.777 -0.0766  0.1339 -0.1608
 5539W        W 9590   8.115   7.469   1.680  0.0506  0.1150  0.0956
 5540W        W 9591   2.101   8.992   3.453  0.0652  0.2516  0.0895
 5541W        W 9592   0.989   6.302   2.317  0.1799 -0.3317 -0.1371
 5542W        W 9593   0.547   4.903  13.521 -0.5510 -0.1321  0.1901
 5543W        W 9594   6.987   9.616   0.853 -0.3837  0.2537 -0.1616
 5544W        W 9595   6.240   6.949  10.948  0.0953  0.1741 -0.1222
 5545W        W 9596   6.258   1.949  11.395  0.0482  0.0408 -0.3476
 5546W        W 9597   9.303   0.295   1.974  0.1955  0.2268  0.0437
 5547W        W 9598   2.833   7.201   0.351 -0.0055  0.2549  0.3215
 5548W        W 9599   4.747   8.584   0.612 -0.2015 -0.1205 -0.4958
 5549W        W 9600   9.779   0.245  10.842 -0.2156 -0.1305 -0.0956
 5550W        W 9601   7.910   8.840  13.179 -0.0689  0.0666  0.2104
 5551W        W 9602   4.377   4.251   1.913 -0.0383  0.1745 -0.2688
 5552W        W 9603   9.356   8.627   9.970 -0.1187  0.1131 -0.1296
 5553W        W 9604   5.857   6.957   9.990  0.1138  0.2482 -0.1452
 5554W        W 9605   6.284   0.772   3.742 -0.0917  0.0265 -0.0364
 5555W        W 9606   3.746   2.028  10.822  0.0539  0.2014  0.2776
 5556W        W 9607   2.052   1.288  10.208  0.2749  0.3960  0.0812
 5557W        W 9608   4.866   5.430  10.213 -0.0660 -0.0252 -0.0709
 5558W        W 9609   3.015   9.544  11.312  0.3123  0.0245  0.0877
 5559W        W 9610   1.366   2.153   4.622  0.0125 -0.2551 -0.1115
 5560W        W 9611   1.423   0.852   0.665 -0.5817  0.0102  0.2607
 5561W        W 9612   4.410   6.188   2.904  0.1104  0.2421  0.0466
 5562W        W 9613   4.247   8.597   0.472  0.0353 -0.1287  0.1421
 5563W        W 9614   3.506   8.168  13.658  0.1028 -0.0940  0.1225
 5564W        W 9615   0.373   1.694   2.640  0.1328 -0.0890  0.0220
 5565W        W 9616   5.574   3.358  11.255  0.0337  0.2729  0.3575
 5566W        W 9617   1.913   8.758  10.841 -0.2696 -0.0387 -0.1255
 5567W        W 9618   9.616   4.895  11.205  0.1585  0.3421 -0.0150
 5568W        W 9619   5.058   0.047  11.247  0.0068  0.0303  0.0099
 5569W        W 9620   2.930   1.445  10.461  0.1685  0.4193 -0.1265
 5570W        W 9621   5.092   8.165  12.019 -0.1128 -0.1134  0.0080
 5571W        W 9622   7.884   6.174   0.387 -0.1112 -0.0212 -0.2612
 5572W        W 9623   9.661   7.157  10.559  0.1751 -0.1398  0.2234
 5573W        W 9624   3.492   4.269  11.011  0.1608  0.2568 -0.0112
 5574W        W 9625   4.804   1.720  12.205  0.0286 -0.1559 -0.1323
 5575W        W 9626   6.880   7.905   0.465 -0.0005  0.0199  0.1332
 5576W        W 9627   9.402   2.842  13.089 -0.1577 -0.0692  0.1271
 5577W        W 9628   1.917   2.476   9.850 -0.1339  0.1029  0.1478
 5578W        W 9629   5.622   7.066   2.153 -0.0632 -0.0902 -0.1875
 5579W        W 9630   5.923   5.333   1.234 -0.3260  0.4468  0.1267
 5580W        W 9631   8.144   2.395   3.731  0.2683  0.1948 -0.1688
 5581W        W 9632   3.033   0.225   2.510 -0.1241 -0.0596  0.0769
 5582W        W 9633   9.808   1.311   2.312  0.3091  0.0654  0.1879
 5583W        W 9634   6.128   3.604   3.581  0.1313  0.0552  0.0057
 5584W        W 9635   0.006   0.462  10.598 -0.0160  0.1133 -0.0468
 5585W        W 9636   7.651   1.590   1.457  0.2233 -0.4881 -0.2573
 5586W        W 9637   3.619   0.432  10.415 -0.0821 -0.0557  0.0810
 5587W        W 9638   5.269   3.266   1.727  0.0262 -0.2232 -0.0582
 5588W        W 9639   6.697   0.769   0.336  0.2389  0.1163  0.0911
 5589W        W 9640   6.573   3.797   3.299  0.1325 -0.2841  0.2471
 5590W        W 9641   2.739   1.720  13.153  0.0697 -0.2510 -0.2790
 5591W        W 9642   2.908   8.518  11.817  0.3695  0.0127 -0.2548
 5592W        W 9643   7.069   1.850  11.576 -0.1683 -0.0484  0.1857
 5593W        W 9644   5.316   2.279  11.098 -0.1499 -0.0896 -0.0467
 5594W        W 9645   3.194   6.052  10.159 -0.3295 -0.0727  0.1875
 5595W        W 9646   9.287   7.241   3.468 -0.0366  0.0787  0.0145
 5596W        W 9647   5.988   4.865   5.493 -0.1062 -0.0247  0.0293
 5597W        W 9648   1.379   8.493   3.661 -0.1597 -0.0067 -0.2400
 5598W        W 9649   2.391   2.720   5.106  0.1022 -0.0171 -0.0664
 5599W        W 9650   5.978   9.349   0.890  0.0639 -0.0520  0.3274
 5600W        W 9651   0.605   8.592   2.524  0.0942 -0.1005 -0.3626
 5601W        W 9652   3.015   0.744   2.466 -0.3834 -0.0407  0.0635
 5602W        W 9653   8.046   9.396   3.404 -0.1216 -0.1148  0.1591
 5603W        W 9654   8.254   9.753   2.118 -0.1795  0.0016 -0.2535
 5604W        W 9655   8.563   9.536  10.762  0.5512 -0.2881  0.0322
 5605W        W 9656   6.832   0.113  10.675  0.1518 -0.0503 -0.2333
 5606W        W 9657   7.052   5.027   2.045 -0.1856  0.1915  0.1161
 5607W        W 9658   3.034   1.552   2.260 -0.0874  0.0292 -0.3013
 5608W        W 9659   7.954   0.162   9.737 -0.1755  0.2686  0.1619
 5609W        W 9660   8.587   1.373  12.453 -0.0036  0.1120 -0.2739
 5610W        W 9661   9.407   6.370   0.576  0.0019  0.0854 -0.0016
 5611W        W 9662   3.037   5.391   2.690 -0.0354 -0.0810 -0.0733
 5612W        W 9663   7.228   7.402   1.758 -0.1846  0.1616 -0.0402
 5613W        W 9664   5.933   6.748  12.029 -0.1990 -0.2754 -0.2602
 5614W        W 9665   1.706   2.889   0.053  0.2951 -0.1033  0.1743
 5615W        W 9666   5.856   9.184   4.240 -0.0815  0.1483  0.1346
 5616W        W 9667   6.453   8.386  12.659 -0.1022 -0.0630 -0.0348
 5617W        W 9668   4.568   4.814  11.741 -0.0686 -0.2560 -0.0419
 5618W        W 9669   6.127   2.876  11.980 -0.0809 -0.2032  0.1660
 5619W        W 9670   2.384   7.630   2.498 -0.0743 -0.2686  0.3577
 5620W        W 9671   1.597   3.438  12.655 -0.0779 -0.0664  0.1325
 5621W        W 9672   0.725   2.341   2.858  0.4326 -0.1352 -0.0467
 5622W        W 9673   8.420   2.400  10.419  0.3110  0.0068 -0.0657
 5623W        W 9674   3.630   8.705   2.996 -0.3096 -0.0957 -0.4317
 5624W        W 9675   0.458   9.828   9.740  0.1130  0.2182 -0.0392
 5625W        W 9676   5.728   1.927   0.447 -0.0136 -0.3418 -0.0274
 5626W        W 9677   0.316   7.933   3.780  0.0289 -0.2647 -0.0342
 5627W        W 9678   8.212   7.955   1.994  0.2792 -0.5881  0.1345
 5628W        W 9679   5.336   2.096   4.190 -0.2341  0.0823 -0.3236
 5629W        W 9680   7.764   9.138  12.699 -0.0647  0.3297  0.2117
 5630W        W 9681   3.225   2.953   0.405  0.2533  0.1970 -0.1842
 5631W        W 9682   7.705   9.579  11.424 -0.2907  0.0633  0.1164
 5632W        W 9683   9.193   1.842   3.897  0.1303  0.0783  0.1580
 5633W        W 9684   6.502   8.860  12.827 -0.2026  0.0036 -0.0318
 5634W        W 9685   1.503   9.331   1.670 -0.0135  0.2810 -0.1664
 5635W        W 9686   4.659   0.552  11.006  0.1300  0.1980 -0.3172
 5636W        W 9687   5.691   5.493   9.675 -0.3296 -0.2870 -0.0060
 5637W        W 9688   6.796   2.810  12.865  0.1789  0.0255 -0.0095
 5638W        W 9689   5.257   3.760   1.760  0.4527  0.2058  0.0205
 5639W        W 9690   7.090   0.868   1.891  0.1707 -0.1174 -0.0915
 5640W        W 9691   6.931   3.830  11.019  0.4710 -0.0865  0.0937
 5641W        W 9692   2.566   7.241  10.079  0.1658  0.1069 -0.0881
 5642W        W 9693   2.343   8.549  10.463  0.1784 -0.1538 -0.0849
 5643W        W 9694   1.659   5.300  11.530 -0.0498 -0.2283  0.1085
 5644W        W 9695   9.586   0.306  13.007 -0.0911  0.0110  0.1534
 5645W        W 9696   5.788   0.199   2.543 -0.2999 -0.3178 -0.1047
 5646W        W 9697   5.924   9.604   9.733  0.2005  0.3246  0.2946
 5647W        W 9698   7.761   9.062   1.050 -0.2124 -0.2685 -0.0783
 5648W        W 9699   0.317   7.609  13.652  0.3966 -0.2460  0.0855
 5649W        W 9700   2.860   3.048  12.610  0.4801  0.2626 -0.2709
 5650W        W 9701   7.246   4.526   2.895  0.0245 -0.1650 -0.0850
 5651W        W 9702   7.047   3.475   3.645 -0.1938  0.2129  0.2930
 5652W        W 9703   5.891   4.105  13.279 -0.0071  0.1684  0.4456
 5653W        W 9704   0.941   3.714   3.112 -0.3587  0.0839  0.2146
 5654W        W 9705   3.065   1.033  13.637 -0.1886  0.0130  0.0762
 5655W        W 9706  10.108   4.313  12.987 -0.2112 -0.2933 -0.0692
 5656W        W 9707   3.179   6.551   9.583 -0.0274 -0.1163 -0.0939
 5657W        W 9708   6.337   2.520  10.738 -0.2433 -0.0388 -0.1185
 5658W        W 9709   2.672   5.273  11.037 -0.1548  0.1269  0.0743
 5659W        W 9710   1.241   2.057  10.836  0.1215  0.0350 -0.0347
 5660W        W 9711   0.734   2.960   1.425 -0.1730 -0.0727 -0.0959
 5661W        W 9712   6.640   1.579  11.733  0.2650  0.0063  0.0077
 5662W        W 9713   0.190   8.828  10.865 -0.1968  0.0445  0.0223
 5663W        W 9714   6.717   4.072   9.795  0.0616  0.1269  0.3953
 5664W        W 9715   4.560   9.394  10.650 -0.1119 -0.1144  0.1418
 5665W        W 9716   9.969   8.584   2.498  0.0017  0.0705  0.0519
 5666W        W 9717   9.092   2.791  10.882  0.0698  0.0739  0.1373
 5667W        W 9718   8.564   0.836   1.006 -0.4274 -0.1255 -0.0864
 5668W        W 9719   1.792   1.573   2.516 -0.1728 -0.2048  0.2370
 5669W        W 9720   4.039   9.284   3.582  0.1324 -0.1001  0.2167
 5670W        W 9721   3.666   0.965   3.097 -0.0310  0.2244 -0.3746
 5671W        W 9722   0.340   8.954  12.352 -0.0495 -0.0754  0.1655
 5672W        W 9723   3.909   4.496  10.707 -0.0280 -0.1544  0.0000
 5673W        W 9724   6.210   0.418  13.435  0.3097  0.0302  0.0768
 5674W        W 9725   1.129   3.171   4.507  0.1602  0.2283 -0.0710
 5675W        W 9726   2.425   6.344  12.674  0.0472  0.1245 -0.2967
 5676W        W 9727   8.891   3.436   0.285 -0.1963  0.2588 -0.1821
 5677W        W 9728   1.748   3.680   9.231  0.0193 -0.0795  0.4211
 5678W        W 9729   8.752   3.853  12.533  0.0408  0.0313 -0.2568
 5679W        W 9730   5.185   9.997   4.335 -0.0001  0.2692 -0.1681
 5680W        W 9731   8.292   3.687  10.273  0.0200  0.0698  0.0558
 5681W        W 9732   8.246   4.798  12.368  0.4755 -0.4020  0.0792
 5682W        W 9733   8.730   9.976  11.702  0.2228 -0.2488 -0.0420
 5683W        W 9734   1.263   1.909   0.358  0.0286 -0.0102 -0.0484
 5684W        W 9735   8.570   7.241   1.486  0.3890 -0.2858  0.1543
 5685W        W 9736   5.737   9.329  13.037  0.0177  0.1788 -0.2668
 5686W        W 9737   5.007   9.850   2.755 -0.0248  0.3680 -0.0860
 5687W        W 9738   3.977   5.537   9.644  0.2040 -0.1699 -0.2201
 5688W        W 9739   5.876   0.467   9.891 -0.0511  0.2173  0.2575
 5689W        W 9740  10.065   5.080  11.095 -0.0800 -0.2143  0.0115
 5690W        W 9741   8.302   8.458  10.825  0.1798 -0.3346 -0.4881
 5691W        W 9742   4.954   2.251   3.862  0.1199  0.1057 -0.2556
 5692W        W 9743   5.419   6.892  12.645  0.1094  0.4116  0.1154
 5693W        W 9744  10.087   2.043  12.055  0.0272 -0.0061 -0.2542
 5694W        W 9745   2.960   3.940   4.849  0.0036  0.2830  0.5230
 5695W        W 9746   9.809   8.143   2.748 -0.1288 -0.0440  0.0576
 5696W        W 9747   1.156   0.162   3.874 -0.4569  0.0257 -0.2209
 5697W        W 9748   3.222   1.816  12.950 -0.0376 -0.0995  0.1796
 5698W        W 9749   4.784   3.398  10.647  0.4215  0.0680  0.0357
 5699W        W 9750   2.629   2.559  13.726  0.1213  0.0694  0.1953
 5700W        W 9751   7.891   5.357  11.614 -0.1073 -0.0881  0.1936
 5701W        W 9752   8.043   0.122   3.021  0.1107 -0.2348 -0.4225
 5702W        W 9753   4.002   4.566  11.707 -0.2691  0.0196  0.1317
 5703W        W 9754   8.710   9.362   1.390 -0.1695  0.0434  0.1045
 5704W        W 9755   7.214   4.588   1.935  0.2756 -0.0492  0.1723
 5705W        W 9756   9.172   4.661   4.711  0.1090  0.1513  0.0441
 5706W        W 9757   9.484   9.594   0.989 -0.1945  0.0280  0.1496
 5707W        W 9758   7.502   4.903   0.417  0.1326 -0.0317  0.0426
 5708W        W 9759   0.282   3.164  10.882  0.0633 -0.1321  0.0169
 5709W        W 9760   1.637   1.440   9.942  0.2124 -0.3895 -0.2648
 5710W        W 9761   9.654   2.539  12.807 -0.3062  0.0637  0.1216
 5711W        W 9762  10.034   6.560   1.796 -0.2175 -0.1591 -0.0716
 5712W        W 9763   6.604   9.759   9.615 -0.0088 -0.2870  0.2815
 5713W        W 9764   7.842   2.881  11.263  0.0182  0.3519 -0.0927
 5714W        W 9765   4.865   6.165  10.465  0.3302 -0.0461  0.1681
 5715W        W 9766   5.904   5.420  11.763  0.3599  0.0885  0.2526
 5716W        W 9767   7.699   2.648  13.771 -0.1879 -0.1274  0.2159
 5717W        W 9768   8.346   0.252   4.630 -0.3553  0.0998  0.1242
 5718W        W 9769   3.484   4.925   3.426 -0.1222  0.1126  0.2612
 5719W        W 9770   5.933   1.396   1.144  0.2387  0.0664 -0.0206
 5720W        W 9771   0.865   7.190   0.322 -0.0719 -0.1602 -0.2521
 5721W        W 9772   9.485   2.256   1.753 -0.0098  0.0884  0.1012
 5722W        W 9773   7.776   7.297  11.679 -0.0194  0.5053 -0.2166
 5723W        W 9774   4.141   1.916   0.633  0.3552  0.0612 -0.1351
 5724W        W 9775   1.583   1.747   4.408  0.1547  0.1344  0.2271
 5725W        W 9776   8.305   3.023   2.882 -0.1790  0.0915  0.0674
 5726W        W 9777   3.331   7.630   2.976 -0.1103 -0.3391  0.1715
 5727W        W 9778   5.697   6.281   2.654  0.1114  0.2978  0.3414
 5728W        W 9779   4.012   9.695  11.688 -0.0329 -0.1258 -0.0082
 5729W        W 9780   6.370   2.123   4.187 -0.0709 -0.1630  0.2212
 5730W        W 9781   6.738   3.114   1.846  0.0156  0.1324 -0.3016
 5731W        W 9782   4.973   4.127  13.562  0.0165 -0.3648  0.1343
 5732W        W 9783   4.392   1.291   4.710  0.1931 -0.0643 -0.2171
 5733W        W 9784   5.725   2.469  10.869  0.1571  0.0386 -0.1318
 5734W        W 9785   0.090   9.656   2.189 -0.1841  0.0069 -0.0895
 5735W        W 9786   9.976   3.634   0.753 -0.1498 -0.2879  0.1581
 5736W        W 9787   0.008   8.129  12.933 -0.0506  0.0641  0.1707
 5737W        W 9788   1.094   9.551   0.686 -0.1521 -0.0033  0.0448
 5738W        W 9789   2.002   1.797  10.255  0.1233  0.0043  0.0869
 5739W        W 9790   7.147   3.745   2.137 -0.0175 -0.1971 -0.0308
 5740W        W 9791   8.028   2.523  13.348  0.0749  0.0929  0.2587
 5741W        W 9792   4.868   2.347   1.473  0.1466 -0.1798  0.0799
 5742W        W 9793   8.852   4.368   0.783  0.2563  0.0425  0.3064
 5743W        W 9794   6.029   5.814   1.201 -0.0177 -0.1103  0.0161
 5744W        W 9795   7.916   2.208   9.609 -0.1923 -0.2256  0.0378
 5745W        W 9796   8.674   4.416   9.332  0.0620 -0.1381 -0.2798
 5746W        W 9797   6.451   5.828   5.557  0.1460  0.1347  0.0709
 5747W        W 9798   1.943   3.872  10.739  0.1815  0.0261  0.0442
 5748W        W 9799   0.230   8.366  11.524 -0.0874  0.0956  0.2594
 5749W        W 9800   9.458   2.250   3.713  0.2293 -0.0508  0.1637
 5750W        W 9801   8.517   8.269   1.699  0.1441  0.0792 -0.0740
 5751W        W 9802   9.436   0.021   3.079  0.0392 -0.2488  0.2109
 5752W        W 9803   3.246   6.826  10.017 -0.0165 -0.3146 -0.0531
 5753W        W 9804   2.285   1.051  11.581  0.2615  0.0703  0.3395
 5754W        W 9805   7.696   8.381   0.508 -0.3362 -0.2469  0.1207
 5755W        W 9806   2.663   8.342  11.409  0.0865 -0.1584 -0.1767
 5756W        W 9807   7.220   5.508   1.097  0.0940 -0.1047 -0.0569
 5757W        W 9808   4.412   3.627  10.400 -0.0971  0.3910  0.0030
 5758W        W 9809   0.040   1.816  11.160 -0.1754 -0.2892  0.1288
 5759W        W 9810   9.597   1.056  13.767 -0.2155 -0.2994 -0.1130
 5760W        W 9811   3.119   9.813   1.411  0.0572  0.0456 -0.0938
 5761W        W 9812   1.084   0.692  13.292 -0.1809 -0.2408  0.0873
 5762W        W 9813   6.422   6.089   0.904 -0.1647  0.3814  0.1341
 5763W        W 9814   6.788   6.299   2.633  0.4934  0.0838  0.1587
 5764W        W 9815   1.355   3.804   4.855  0.0457 -0.0086  0.0120
 5765W        W 9816   9.109   2.648  13.583 -0.0144 -0.0432  0.2183
 5766W        W 9817   1.976   9.015   2.444  0.1970  0.0489  0.2009
 5767W        W 9818   3.032   6.457   1.713 -0.3415 -0.0489 -0.1986
 5768W        W 9819   0.214   2.901   5.499  0.0732  0.0832 -0.0921
 5769W        W 9820   6.344   2.644   3.617  0.2311  0.0356  0.1449
 5770W        W 9821   5.495   0.576   3.337  0.1712  0.1402 -0.2852
 5771W        W 9822   1.012   2.676  12.432  0.1560 -0.1401  0.4663
 5772W        W 9823   9.270   5.138  11.514  0.0673 -0.1048  0.2726
 5773W        W 9824   9.900   6.103  13.226 -0.0042  0.0643  0.0517
 5774W        W 9825   0.830   1.757   9.279  0.0791 -0.0713  0.0258
 5775W        W 9826   0.135   2.011  10.122 -0.0585 -0.1431  0.1420
 5776W        W 9827   3.790   1.361  11.416  0.2760  0.1548 -0.0002
 5777W        W 9828   5.777   0.986   3.068 -0.0557 -0.1414  0.0596
 5778W        W 9829   1.629   1.177  10.436  0.3085  0.2072 -0.0265
 5779W        W 9830   4.045   7.633   4.238  0.2885 -0.3525 -0.0543
 5780W        W 9831   3.140   6.513  11.884  0.3750 -0.0496  0.1448
 5781W        W 9832   6.963   6.296   9.951 -0.2904 -0.2453  0.1003
 5782W        W 9833   8.516   7.862   0.287 -0.3544  0.0134 -0.1188
 5783W        W 9834   1.924   9.312   2.927 -0.1776  0.0436 -0.0337
 5784W        W 9835   8.661   6.993  10.029 -0.3607 -0.0559 -0.0939
 5785W        W 9836   5.160   2.309   0.914 -0.1823 -0.3243  0.0378
 5786W        W 9837   6.342   6.972  11.824  0.2945 -0.1181 -0.1421
 5787W        W 9838   0.499   0.142  10.002 -0.0501 -0.1444 -0.1979
 5788W        W 9839   8.816   2.338   4.448  0.1702 -0.1771  0.0029
 5789W        W 9840   8.193   9.350  12.099 -0.0075  0.1865 -0.2727
 5790W        W 9841   6.591   1.600  12.260  0.0673  0.2251 -0.1820
 5791W        W 9842   1.314   0.128   3.315  0.2704  0.0474  0.2500
 5792W        W 9843   8.766   8.548  13.647 -0.0610 -0.1943  0.0273
 5793W        W 9844   8.381   4.061   2.028  0.1748  0.1224  0.1803
 5794W        W 9845   7.696   4.487  12.010  0.2904  0.3865 -0.1780
 5795W        W 9846   4.851   7.290   2.074 -0.0841 -0.2617  0.0307
 5796W        W 9847   0.730   6.087   1.381  0.2044 -0.2046 -0.2121
 5797W        W 9848   9.483   3.818  12.054 -0.0538 -0.2369 -0.1993
 5798W        W 9849   8.902   3.889   0.705 -0.0405 -0.2083 -0.1971
 5799W        W 9850   1.025   6.975  13.704  0.1612 -0.2058 -0.1104
 5800W        W 9851   1.360   9.267  13.417 -0.2079 -0.0516  0.4306
 5801W        W 9852   1.240   4.640  10.517 -0.3660  0.0684 -0.0773
 5802W        W 9853   9.180   6.738   0.194  0.3925  0.0707  0.2644
 5803W        W 9854   2.282   5.388  11.523  0.2506 -0.0983 -0.0106
 5804W        W 9855   5.063   8.206  13.147  0.2089 -0.1096  0.1344
 5805W        W 9856   4.597   9.469  13.737 -0.1884  0.2837  0.0527
 5806W        W 9857  10.166   8.316   0.325  0.2535 -0.0460 -0.0609
 5807W        W 9858   4.224   2.737   4.623 -0.0137 -0.1498  0.1600
 5808W        W 9859   7.116  10.027   4.028 -0.1928 -0.0524  0.2532
 5809W        W 9860   7.484   7.478   2.335  0.0900  0.1870 -0.0438
 5810W        W 9861   2.622   0.188  10.443 -0.1750  0.2042  0.0216
 5811W        W 9862   0.100   5.761   2.723 -0.2725  0.2620 -0.2601
 5812W        W 9863   7.419   3.611   0.435 -0.1532  0.0420  0.0049
 5813W        W 9864   5.758   1.730  12.912 -0.1439  0.4342 -0.0398
 5814W        W 9865   8.494   1.087  10.886 -0.1501  0.4309  0.0006
 5815W        W 9866   8.164   1.090   0.769 -0.2860 -0.0074 -0.1030
 5816W        W 9867   5.483   1.564   2.326  0.1448 -0.1747 -0.1911
 5817W        W 9868   3.813   6.339  12.301  0.2784  0.1489 -0.0501
 5818W        W 9869   8.529   4.776  11.139  0.0669  0.0712 -0.1236
 5819W        W 9870   4.432   4.747   9.955  0.1416 -0.0585  0.5440
 5820W        W 9871   8.156   2.088  13.032 -0.1227  0.0779 -0.2264
 5821W        W 9872   2.519   3.715   4.865 -0.0393  0.1066  0.1015
 5822W        W 9873   6.174   4.710  10.975  0.1415  0.4521  0.1043
 5823W        W 9874   5.097   3.487   3.514 -0.0043  0.0993 -0.3158
 5824W        W 9875   8.117   4.375   8.569 -0.2674  0.0385  0.1797
 5825W        W 9876   4.558   6.290   0.266  0.0778 -0.1694  0.1350
 5826W        W 9877   5.210   2.888   4.703 -0.4872 -0.0341 -0.1310
 5827W        W 9878   4.209   3.917   2.213 -0.0385  0.0929 -0.0360
 5828W        W 9879   2.289   3.818   9.142  0.4531  0.0576  0.2437
 5829W        W 9880   8.019   6.090  12.883  0.1007 -0.0448 -0.1386
 5830W        W 9881   1.417   2.453  11.152 -0.1267 -0.4149 -0.1614
 5831W        W 9882   8.457   2.574   0.840  0.1084 -0.2341 -0.2399
 5832W        W 9883   2.122   6.053   0.035 -0.0134 -0.0876  0.1554
 5833W        W 9884   8.561   1.798  13.804 -0.1443  0.3570  0.2486
 5834W        W 9885   2.248   4.547  11.955 -0.0891  0.2653  0.1917
 5835W        W 9886   1.164   4.604   1.457  0.1687 -0.1244  0.0145
 5836W        W 9887   4.653   3.100  10.267 -0.0007 -0.0427 -0.1619
 5837W        W 9888   8.069   4.876  13.939  0.1513 -0.0918  0.1158
 5838W        W 9889   3.296   0.038   2.019  0.0086  0.0005 -0.0022
 5839W        W 9890   7.487  10.133   0.995  0.3433 -0.2667  0.0461
 5840W        W 9891   1.579   4.430  10.882  0.1614 -0.0080 -0.1304
 5841W        W 9892   3.645   0.943   2.556 -0.2658 -0.0889 -0.0556
 5842W        W 9893   9.939   0.671  11.430  0.0360  0.0250  0.3829
 5843W        W 9894   1.287   4.814   0.789 -0.0613 -0.0547 -0.0723
 5844W        W 9895   2.951   7.058   3.414  0.0962  0.2318  0.1817
 5845W        W 9896   5.799   1.180  12.951 -0.1813  0.1592 -0.2677
 5846W        W 9897   2.573   1.325  10.942 -0.1660 -0.0627 -0.2058
 5847W        W 9898   9.945   5.490   1.261 -0.0068 -0.3271  0.3608
 5848W        W 9899   8.785   7.466  10.102  0.2316 -0.3408 -0.0265
 5849W        W 9900   5.884   1.300   2.661 -0.1218 -0.1185  0.0836
 5850W        W 9901   9.647   9.927   1.360  0.0610  0.2570 -0.0107
 5851W        W 9902   2.367   8.437   3.980  0.0060  0.1616 -0.1858
 5852W        W 9903   1.216   7.172   2.418  0.1591 -0.0519 -0.0177
 5853W        W 9904   5.448   8.019   2.365  0.0895 -0.0778 -0.3364
 5854W        W 9905   3.567   4.965  10.194  0.0710 -0.1130  0.1765
 5855W        W 9906   9.247   0.947   9.399  0.0880 -0.1868 -0.1955
 5856W        W 9907   3.598   2.364  12.276  0.0522 -0.0660  0.0297
 5857W        W 9908   8.226   4.332  11.095 -0.2336  0.2594 -0.0399
 5858W        W 9909   8.429   6.548   2.231  0.2565  0.2143  0.0155
 5859W        W 9910   0.968   2.849   1.909 -0.0838 -0.4939 -0.0149
 5860W        W 9911   5.172   3.408  11.519 -0.0389  0.0735  0.3477
 5861W        W 9912   7.500   0.120   2.315  0.2739 -0.1935 -0.1197
 5862W        W 9913   7.443   2.984  12.328 -0.0745  0.0259 -0.1542
 5863W        W 9914   4.703   3.515   0.379  0.0286 -0.0979  0.1651
 5864W        W 9915   2.502   2.032   4.431 -0.0433  0.0366  0.3165
 5865W        W 9916   0.527   6.478   2.701 -0.0202 -0.6570 -0.2164
 5866W        W 9917   0.731   3.411  12.723  0.0437 -0.0300  0.2070
 5867W        W 9918   8.021   3.729   3.229 -0.3130 -0.1298 -0.0485
 5868W        W 9919   7.619   7.903  13.914  0.2016  0.2890 -0.1012
 5869W        W 9920   0.449   9.723  11.725  0.0379 -0.0873  0.2851
 5870W        W 9921   0.730   4.409   9.231 -0.1429 -0.0193 -0.0219
 5871W        W 9922   1.845   6.203  13.562  0.0879  0.3959 -0.1669
 5872W        W 9923   1.707   8.140   1.067  0.2064  0.0677  0.1290
 5873W        W 9924   5.493   6.408  12.821  0.0328 -0.5691  0.2590
 5874W        W 9925   9.073   2.002  13.305 -0.0835  0.1534  0.3244
 5875W        W 9926   7.635  10.009   3.887 -0.3675 -0.1151 -0.1273
 5876W        W 9927   4.236   7.344   0.382  0.0930 -0.1524  0.5339
 5877W        W 9928   2.687   1.569   4.645 -0.1879  0.0857 -0.2102
 5878W        W 9929   5.976   0.869   2.125 -0.1148 -0.0245 -0.1382
 5879W        W 9930   6.225   3.992   4.875  0.1619 -0.1368 -0.0799
 5880W        W 9931   0.821   9.031  12.210 -0.1442  0.0808  0.1663
 5881W        W 9932   6.562   4.217   1.129 -0.0457 -0.1219  0.3078
 5882W        W 9933   5.587  10.168   9.524 -0.1039  0.0659 -0.0832
 5883W        W 9934   2.456   7.801   2.983  0.0181 -0.2189 -0.1914
 5884W        W 9935   5.978   8.125   4.023  0.1487  0.1139 -0.1051
 5885W        W 9936   0.208   8.332  13.826  0.2266  0.0181  0.0570
 5886W        W 9937   5.249   5.680   0.157 -0.4062  0.1347  0.1166
 5887W        W 9938   8.771   9.454   0.432  0.1204 -0.0230  0.1515
 5888W        W 9939   8.396   5.701   4.264  0.0680  0.1042 -0.0739
 5889W        W 9940   8.576   7.747  10.513  0.2145 -0.0366  0.3294
 5890W        W 9941   3.438   1.907  10.112  0.5228  0.0366  0.2920
 5891W        W 9942   6.247   1.676   2.561 -0.0111  0.3822  0.0455
 5892W        W 9943   9.219   9.434  13.258  0.0277  0.2407 -0.1831
 5893W        W 9944   7.745   3.013  10.743  0.1483 -0.0313  0.0089
 5894W        W 9945   2.659   2.029  13.874  0.2267 -0.0013  0.0226
 5895W        W 9946   4.876   9.199   3.569  0.1173  0.1077  0.0147
 5896W        W 9947   8.134   4.513   1.766 -0.2248 -0.1876  0.0764
 5897W        W 9948   6.966   6.280  12.099 -0.3566  0.0714 -0.0913
 5898W        W 9949   2.912   6.075   0.626 -0.0819 -0.2186 -0.3405
 5899W        W 9950   1.496   1.521   1.759  0.1394 -0.0238 -0.2161
 5900W        W 9951  10.076   7.762   1.924  0.2619 -0.1342 -0.0725
 5901W        W 9952   9.845   3.266   9.578 -0.1581 -0.0569 -0.1076
 5902W        W 9953   4.836   2.548  11.027 -0.2095 -0.0799  0.0634
 5903W        W 9954   8.266   1.635   4.293 -0.1745  0.0851 -0.0918
 5904W        W 9955   0.921   3.690   4.766  0.2813 -0.1038 -0.2087
 5905W        W 9956   9.257   2.609   0.475 -0.0535  0.0606 -0.1275
 5906W        W 9957   9.754   1.377   1.523  0.1411  0.2283 -0.3731
 5907W        W 9958   3.156   8.998  10.757 -0.1644  0.1187  0.0278
 5908W        W 9959   7.674   5.408  12.162  0.0771  0.0524  0.3831
 5909W        W 9960   0.794   1.556  12.374 -0.0556 -0.0362 -0.2844
 5910W        W 9961   2.497   9.138  13.733  0.0221  0.0069  0.1518
 5911W        W 9962   5.631   1.122   5.129  0.3490 -0.1830 -0.1515
 5912W        W 9963   0.677   7.736   0.567  0.2187  0.0787 -0.1626
 5913W        W 9964   3.771   6.797   2.680  0.2331 -0.0112 -0.0311
 5914W        W 9965   4.692   2.905  10.746 -0.0319 -0.2008  0.0100
 5915W        W 9966   8.643   7.602  13.882  0.0445  0.2589 -0.2109
 5916W        W 9967   4.721   4.097   1.443 -0.1271 -0.1965 -0.1494
 5917W        W 9968   2.901   8.680   1.074 -0.0011  0.1090  0.0198
 5918W        W 9969   6.086   3.454  11.806 -0.0611  0.0563  0.2359
 5919W        W 9970   6.050   9.297   3.263  0.0909  0.1468 -0.0208
 5920W        W 9971   2.095   0.503  11.710 -0.0579 -0.2188 -0.4192
 5921W        W 9972   9.020   0.699   1.463 -0.1318 -0.1370 -0.0124
 5922W        W 9973   5.546   4.153   4.477  0.0601 -0.0825  0.0134
 5923W        W 9974   1.382   7.877  12.768 -0.0704  0.2168  0.1513
 5924W        W 9975   2.161   1.900   1.221 -0.2050  0.0561 -0.0612
 5925W        W 9976   2.936   0.304  12.454  0.0424  0.2281  0.3197
 5926W        W 9977   4.036   3.494  13.886 -0.1136 -0.2186  0.0949
 5927W        W 9978   2.113   5.747  13.404  0.1955  0.0694 -0.0760
 5928W        W 9979   4.516   1.052   4.147 -0.1733  0.1222  0.0577
 5929W        W 9980   7.453   7.240   0.585 -0.0059  0.3317 -0.1455
 5930W        W 9981   1.579   9.963   2.913  0.2224  0.0014  0.1383
 5931W        W 9982   8.390   5.667   3.643  0.0323  0.0555  0.0566
 5932W        W 9983   7.809   5.995  13.905  0.0868  0.1072  0.1184
 5933W        W 9984   6.755   5.268  13.094  0.2983 -0.0884  0.0230
 5934W        W 9985   8.046   5.161   3.004  0.2764 -0.0627 -0.0363
 5935W        W 9986   3.274   8.016   3.824  0.1379  0.3701  0.1446
 5936W        W 9987   4.247   9.776  10.337 -0.1295  0.0645 -0.0315
 5937W        W 9988   1.638   5.873   2.922 -0.3352  0.1531 -0.1034
 5938W        W 9989   7.394   6.344   4.209 -0.3284 -0.2630 -0.1445
 5939W        W 9990   1.878   3.534   1.236 -0.2713 -0.0548  0.0591
 5940W        W 9991   7.575   4.341   1.744  0.2357 -0.0764 -0.1783
 5941W        W 9992   3.838   2.601   1.312 -0.2125  0.2136 -0.1094
 5942W        W 9993   6.884  10.164   0.183 -0.0942 -0.2664  0.0300
 5943W        W 9994   3.572   3.122   1.109 -0.2982  0.4124  0.0865
 5944W        W 9995   6.053   8.432   0.709 -0.1220  0.0882  0.0913
 5945W        W 9996   9.700   1.301   9.753  0.1050  0.3174  0.2246
 5946W        W 9997   9.582   0.364   3.383  0.0025 -0.1476  0.0404
 5947W        W 9998   8.826   0.177  10.596  0.2563 -0.5645  0.0583
 5948W        W 9999   9.807   3.480  13.720 -0.2704 -0.1434 -0.1452
 5949W        W10000   4.190   0.909   8.773 -0.1846  0.2065 -0.2486
 5950W        W10001   1.384   0.615  13.715  0.1261  0.4900  0.0375
 5951W        W10002   2.178   9.609   1.702 -0.2224  0.2984  0.0538
 5952W        W10003   9.674   4.511   4.615 -0.1210  0.1732  0.0215
 5953W        W10004   5.118   6.295   0.244  0.1166 -0.1662  0.0126
 5954W        W10005   4.625   5.646   2.227 -0.0984 -0.0137 -0.1461
 5955W        W10006   2.655   5.282   1.099  0.1356 -0.0985  0.0007
 5956W        W10007   9.430   5.837   3.336  0.1938  0.2564 -0.0306
 5957W        W10008   6.878   4.140   3.004 -0.0168 -0.0271  0.0141
 5958W        W10009   1.681   4.473   1.580  0.1619  0.2420 -0.2960
 5959W        W10010   7.453   1.280  11.994 -0.0833 -0.1537  0.1768
 5960W        W10011   5.168   8.559   4.232  0.0066  0.3025  0.0831
 5961W        W10012   7.102   1.286   4.828  0.4481 -0.0870  0.1436
 5962W        W10013   0.073   1.655   4.452  0.2416  0.2993  0.1020
 5963W        W10014   4.220   5.885   0.369  0.3523 -0.0013 -0.1707
 5964W        W10015   3.398   5.821   3.531 -0.0107 -0.1368  0.4884
 5965W        W10016   9.057   1.014   3.382  0.2067 -0.0012 -0.2233
 5966W        W10017   1.281   0.809  11.496  0.0523 -0.0739 -0.0478
 5967W        W10018   9.115   1.941   2.039 -0.0709 -0.0978 -0.1751
 5968W        W10019   5.405   1.652   5.610  0.0562  0.1215  0.2960
 5969W        W10020   4.865   0.174  10.788  0.1513  0.3100  0.4238
 5970W        W10021   9.238   2.124  10.171 -0.1266  0.1374 -0.2125
 5971W        W10022   5.594   5.673   2.073 -0.0162 -0.2184 -0.0428
 5972W        W10023   5.531   8.462   3.843 -0.0656  0.4116  0.0931
 5973W        W10024   5.174   4.962   2.396  0.0803  0.0539  0.0290
 5974W        W10025   7.169   4.692   5.147 -0.0020 -0.1279  0.1597
 5975W        W10026   0.698   6.389  13.471  0.4217  0.0146 -0.0026
 5976W        W10027   5.934   7.161   3.871 -0.1012  0.4517  0.0860
 5977W        W10028   0.208   0.822  13.024 -0.2236  0.1306  0.2356
 5978W        W10029   3.208   2.345  12.934 -0.3238  0.2242  0.0011
 5979W        W10030   0.237   6.967  11.274  0.0246 -0.2943  0.1566
 5980W        W10031   8.209   8.331   1.095  0.2752 -0.2795 -0.0460
 5981W        W10032   1.761   1.988  12.635  0.5163  0.3029 -0.4241
 5982W        W10033   5.760   8.255   4.653  0.3193 -0.1227  0.2177
 5983W        W10034   1.460   9.931   3.861 -0.1219  0.0811 -0.0828
 5984W        W10035   1.317   1.610  13.498  0.4083 -0.0043  0.1300
 5985W        W10036   7.467   8.721   1.681 -0.1594 -0.1240  0.1770
 5986W        W10037   3.991   5.157  10.004  0.1643 -0.1807  0.4891
 5987W        W10038   3.826   4.920   4.484  0.1460 -0.2710  0.3739
 5988W        W10039   8.516   4.856  13.170 -0.1178 -0.0633  0.1600
 5989W        W10040   2.143   1.083   9.799  0.0061  0.4085 -0.2290
 5990W        W10041   6.219   9.976   3.928 -0.2345  0.1337 -0.0779
 5991W        W10042   5.007   0.320   4.203 -0.0675  0.3013  0.0898
 5992W        W10043   9.193   4.098  13.300  0.1522 -0.2250  0.2370
 5993W        W10044   2.908   7.722   0.255  0.2920  0.1407 -0.1908
 5994W        W10045   9.121   5.811   0.615  0.2339  0.1030 -0.3078
 5995W        W10046   1.927   7.863   2.441  0.2732  0.0745  0.0728
 5996W        W10047   8.129   0.957  12.743  0.0134  0.0262  0.2932
 5997W        W10048   9.286   3.935   5.256 -0.0753  0.0072 -0.0566
 5998W        W10049   3.574   5.317  12.810  0.0338 -0.1141  0.1620
 5999W        W10050   1.437   5.892   1.946  0.0606  0.4116  0.0051
 6000W        W10051   4.803   0.490   9.919 -0.2307 -0.1766 -0.2864
 6001W        W10052   9.207   0.968   9.908  0.2389 -0.0268 -0.4015
 6002W        W10053   0.610   0.969   8.728  0.2808  0.0880  0.2363
 6003W        W10054   8.510   9.641   1.699 -0.1213 -0.1034  0.3335
 6004W        W10055   0.896   7.984   0.199 -0.0309  0.4006 -0.0924
 6005W        W10056   8.907   1.715  10.348  0.0008  0.1792  0.0405
 6006W        W10057   7.490   6.787   3.934  0.2515 -0.1056  0.2289
 6007W        W10058   5.338   8.503   1.847  0.2325  0.3862  0.0702
 6008W        W10059   9.139   0.549   4.109 -0.1401 -0.2509  0.4444
 6009W        W10060   7.037   8.980  13.848  0.3698  0.2299  0.0361
 6010W        W10061   9.749   9.640   2.263  0.1117 -0.0234  0.0073
 6011W        W10062   2.629   0.207   1.604  0.1552  0.2186  0.1499
 6012W        W10063   8.781   1.093   9.122 -0.0320  0.2174 -0.0081
 6013W        W10064   2.403   4.919  11.274 -0.0349  0.1307 -0.2142
 6014W        W10065   5.370   6.156  10.589  0.0131  0.2038 -0.0518
 6015W        W10066   7.454   6.799   2.846  0.2858  0.0580  0.0930
 6016W        W10067   8.638   8.054   1.059 -0.0977  0.1339 -0.2379
 6017W        W10068   7.508   0.332  11.547  0.1057  0.0553 -0.2374
 6018W        W10069   5.553   6.423   4.046 -0.0915 -0.5974  0.3040
 6019W        W10070   9.718   5.084   4.088  0.1552  0.3120  0.0231
 6020W        W10071   6.103   6.245  10.989  0.0291 -0.1669 -0.0222
 6021W        W10072   9.447   2.551   9.757 -0.0703 -0.0831  0.0089
 6022W        W10073   1.982   5.765  11.517 -0.2633 -0.0657  0.2306
 6023W        W10074   1.457   8.112   2.293 -0.0580  0.1022 -0.0722
 6024W        W10075   2.077   1.516  10.669 -0.0582  0.3324 -0.1075
 6025W        W10076   8.082   4.711   4.073 -0.2400  0.0532  0.0214
 6026W        W10077   7.963   5.733   0.733  0.1228 -0.1639  0.0368
 6027W        W10078   2.049   2.456   3.345  0.0742 -0.1741  0.0607
 6028W        W10079   8.838   1.928   3.075 -0.1174  0.0056 -0.2906
 6029W        W10080   1.490   7.759  12.275  0.2934 -0.0164  0.0334
 6030W        W10081   0.575   9.078  13.418  0.0364 -0.0740  0.2555
 6031W        W10082   5.152   6.581  10.222  0.0934 -0.1213 -0.0005
 6032W        W10083   5.139  10.109   2.325  0.1753  0.6211 -0.3235
 6033W        W10084   8.950   1.007   4.501 -0.1178  0.0245  0.1359
 6034W        W10085   6.637   5.721  13.281 -0.1611  0.0142 -0.1563
 6035W        W10086   4.655   9.097   9.604  0.2890  0.0276 -0.1900
 6036W        W10087   3.962   5.294  13.126 -0.2384 -0.0366  0.2598
 6037W        W10088   1.693   3.070  12.369  0.0054  0.4275 -0.2090
 6038W        W10089   1.213   2.201   2.603  0.2352 -0.0560 -0.2811
 6039W        W10090   7.309   4.017   2.596 -0.0055  0.1016 -0.3069
 6040W        W10091   6.905   9.703   3.117 -0.0460 -0.0971  0.0477
 6041W        W10092   1.166   8.700  12.634  0.2217 -0.0989 -0.0306
 6042W        W10093   2.074   6.393  12.187 -0.0794  0.4084 -0.0988
 6043W        W10094   1.446   8.602   0.970  0.2113  0.2253  0.2498
 6044W        W10095   0.035   3.406   2.949  0.1220  0.2203  0.3396
 6045W        W10096   7.450   7.423  12.458 -0.0980 -0.3788 -0.1270
 6046W        W10097   4.003   6.737  12.625 -0.1485 -0.0913  0.1709
 6047W        W10098   2.952   2.883  12.146  0.0699  0.0464 -0.1674
 6048W        W10099   8.934   5.410   1.561 -0.0276  0.0760  0.0029
 6049W        W10100   5.243   8.081   3.226 -0.1664  0.0153  0.0762
 6050W        W10101   2.113   0.902  12.095  0.0033  0.0047 -0.1655
 6051W        W10102   3.423   1.705  11.573 -0.0066 -0.3870  0.1827
 6052W        W10103   4.544   1.479   3.787 -0.1454  0.2295  0.1002
 6053W        W10104   8.906   9.350   2.613  0.0966 -0.0395  0.0397
 6054W        W10105   6.899   8.047   4.209  0.3248 -0.1418 -0.0941
 6055W        W10106   4.837   0.064   0.363  0.0237 -0.3106 -0.3133
 6056W        W10107   0.401   0.376   1.823  0.0123 -0.2108 -0.3096
 6057W        W10108   0.738   7.424  13.491 -0.2161 -0.2334 -0.2392
 6058W        W10109   3.638   3.992   1.506  0.0145 -0.0451 -0.0449
 6059W        W10110   1.627   5.096   9.486 -0.0171 -0.1978 -0.2440
 6060W        W10111   3.227   9.520  12.441  0.1753 -0.1573 -0.1964
 6061W        W10112   7.613   2.127   1.409 -0.1064 -0.3980  0.0121
 6062W        W10113   8.236   4.153   4.365 -0.1003 -0.1828 -0.1921
 6063W        W10114   8.224   0.036   0.550 -0.1074 -0.1710 -0.0368
 6064W        W10115   4.798   8.029   3.518  0.3845  0.1474 -0.4333
 6065W        W10116   4.459   9.300  13.290 -0.0022  0.0068 -0.3064
 6066W        W10117   6.192   8.601   1.387  0.0627  0.0285 -0.1459
 6067W        W10118   3.713   5.094  11.909 -0.2407 -0.1333 -0.0877
 6068W        W10119   7.402   3.655   4.478 -0.0451 -0.0574 -0.0328
 6069W        W10120   8.603   2.716  10.090 -0.0163  0.0377  0.2775
 6070W        W10121   3.580   8.194  11.360 -0.0251  0.0775 -0.1505
 6071W        W10122   1.958   8.850  10.255 -0.0773  0.0156  0.4038
 6072W        W10123   3.046   0.569  13.988  0.2916  0.2797 -0.0319
 6073W        W10124   2.220   2.034  11.567  0.0385  0.2880  0.0876
 6074W        W10125   3.446   9.410   4.497 -0.2454 -0.5228  0.0768
 6075W        W10126   2.060   3.458   3.934  0.1115  0.0757 -0.2455
 6076W        W10127   3.760   2.889  12.689 -0.4148  0.1378 -0.0006
 6077W        W10128  10.073   8.728   0.545 -0.0898  0.1849 -0.2687
 6078W        W10129   3.400   6.653  12.300 -0.2507 -0.2282  0.1799
 6079W        W10130   2.132   3.289   2.521  0.2446  0.2393 -0.0881
 6080W        W10131   0.921   6.745  10.116 -0.0563 -0.2405  0.3872
 6081W        W10132   6.154   9.114   1.987  0.0583 -0.0481 -0.4681
 6082W        W10133   5.815   0.323   1.844  0.0062 -0.2519  0.0719
 6083W        W10134   1.567   6.301   4.693 -0.0893  0.1291 -0.1151
 6084W        W10135   9.501   6.954   1.590 -0.0896  0.2433  0.0275
 6085W        W10136   2.233   0.895   2.327 -0.1830 -0.1834  0.0168
 6086W        W10137   7.855   8.985   0.020 -0.1480  0.0762  0.0110
 6087W        W10138   5.704   9.779   2.561 -0.0943 -0.0405 -0.1976
 6088W        W10139   5.752   0.869  10.339  0.3473 -0.1939  0.1958
 6089W        W10140   5.655   8.633   4.336 -0.3389 -0.0473 -0.0174
 6090W        W10141   3.899   0.636   5.378  0.2706  0.1114  0.0775
 6091W        W10142   3.729   6.560  13.503  0.2602 -0.3295 -0.1415
 6092W        W10143   7.725   4.341  13.399  0.0087  0.0842  0.0921
 6093W        W10144   8.869   4.889   4.138 -0.0532  0.1919 -0.1481
 6094W        W10145   9.542   5.732  11.306  0.2496 -0.0935 -0.0010
 6095W        W10146   3.178   3.346   3.785 -0.1925 -0.1345 -0.3953
 6096W        W10147   5.586   7.418   3.603  0.2883  0.1747 -0.1235
 6097W        W10148   1.450   0.945   2.951  0.1157 -0.2458  0.1588
 6098W        W10149   0.911   2.409  12.860 -0.1080  0.1207  0.1009
 6099W        W10150   6.961   6.794   3.814  0.2421 -0.3008  0.0799
 6100W        W10151   3.043   6.360   2.710  0.0398 -0.0330  0.2125
 6101W        W10152   0.391   2.727  10.010  0.3381 -0.0597  0.2202
 6102W        W10153   5.709   3.768   0.266  0.0924  0.0355  0.3046
 6103W        W10154   4.299  10.165   0.082 -0.4731 -0.2400  0.0157
 6104W        W10155   5.107   1.429  10.722  0.0380 -0.1396 -0.0670
 6105W        W10156   6.377  10.157  10.417  0.2212 -0.1900 -0.2727
 6106W        W10157   5.032   7.282   4.635  0.2130  0.0570  0.0442
 6107W        W10158   2.056   0.838   8.829 -0.1808  0.2368  0.0874
 6108W        W10159   4.089   9.653   9.911  0.0489  0.2393  0.2773
 6109W        W10160   0.238   4.533  10.662  0.0198  0.0873  0.0536
 6110W        W10161   9.732  10.083  12.677  0.0296  0.0262  0.0226
 6111W        W10162   5.275   5.455   4.333 -0.0422 -0.1766  0.1956
 6112W        W10163   1.630   2.793  11.448 -0.0954 -0.1317  0.2021
 6113W        W10164   6.820   4.875   1.624 -0.2375  0.1665  0.2495
 6114W        W10165   8.009   8.662  11.473 -0.1488  0.2634 -0.0153
 6115W        W10166   8.440   9.136   0.908 -0.3290 -0.0051  0.0671
 6116W        W10167   5.903   4.093   3.061 -0.0743  0.2210 -0.2590
 6117W        W10168   2.326   6.822   0.348  0.0919 -0.2257 -0.0584
 6118W        W10169   0.636   9.941  13.416 -0.3414  0.0213 -0.0199
 6119W        W10170   5.858   8.297   9.706  0.0207 -0.3770 -0.2868
 6120W        W10171   1.407   5.325   2.100  0.2643  0.1768  0.1106
 6121W        W10172   3.539   5.491  10.694  0.0701  0.0659  0.0964
 6122W        W10173   5.171   0.626   1.971  0.4585  0.0165  0.3035
 6123W        W10174   6.826   8.152   2.080  0.2124 -0.0874  0.1198
 6124W        W10175   6.059   6.462  11.650 -0.3010 -0.1929 -0.3467
 6125W        W10176   4.845   8.878  10.789  0.1092  0.2079 -0.2030
 6126W        W10177   3.739   5.113   0.863  0.0561  0.0537 -0.1267
 6127W        W10178   2.706   2.100   3.964  0.1171 -0.0723 -0.0908
 6128W        W10179   7.105   9.109   2.606  0.0114 -0.0886  0.3830
 6129W        W10180   5.635   2.849  11.321  0.0101 -0.0181  0.1590
 6130W        W10181   1.417   5.216   3.686 -0.0554  0.0635  0.0201
 6131W        W10182   6.032   5.095   2.709  0.0097 -0.1741  0.2364
 6132W        W10183   5.595   1.907   5.020 -0.3689  0.1863  0.0742
 6133W        W10184   2.758   0.350   9.683 -0.2270  0.5562  0.3279
 6134W        W10185   3.600   0.487   1.769 -0.1533  0.0364 -0.1849
 6135W        W10186   0.502   5.706   2.348  0.1390 -0.4692 -0.0539
 6136W        W10187   1.506   1.682  10.410  0.1639 -0.0970 -0.2736
 6137W        W10188   3.301   0.600   3.345 -0.0533 -0.2662  0.0599
 6138W        W10189   4.289   5.039   0.351 -0.0077  0.0359 -0.2575
 6139W        W10190   1.541   6.251  12.329 -0.1529 -0.3301  0.4077
 6140W        W10191   2.354   0.333   0.618  0.1391  0.0629  0.0755
 6141W        W10192   0.532   3.883  12.755 -0.0335 -0.2942 -0.1932
 6142W        W10193   9.490   8.706  11.464 -0.2497  0.1928  0.0164
 6143W        W10194   7.946   2.257   3.300  0.0823 -0.2822  0.1206
 6144W        W10195   3.004   3.673  13.365  0.1694 -0.0416 -0.3604
 6145W        W10196   8.646   3.878  11.346 -0.0487 -0.2491 -0.1057
 6146W        W10197   0.114   1.965   1.889  0.2176 -0.0487  0.1689
 6147W        W10198   1.381   8.799  11.201 -0.0965  0.1643  0.3816
 6148W        W10199   2.866  10.124  10.009  0.0823 -0.0613  0.4405
 6149W        W10200   6.687   8.179  13.617  0.3565 -0.1690  0.2068
 6150W        W10201   0.581   6.180   0.615  0.1455 -0.2619 -0.0485
 6151W        W10202   6.653   6.949   0.606  0.1061 -0.0480  0.0479
 6152W        W10203   1.804   0.154   2.592  0.0895  0.0086 -0.1836
 6153W        W10204   7.269   7.134  13.339  0.0793 -0.0976 -0.0170
 6154W        W10205   2.124   3.401  11.293  0.0450  0.1923  0.1382
 6155W        W10206   8.299   6.181   3.781  0.2492  0.3823  0.5283
 6156W        W10207   4.151   8.157   1.005 -0.0639  0.3212 -0.2702
 6157W        W10208   4.495   8.949  11.693  0.0490 -0.1554 -0.1432
 6158W        W10209   1.136   0.266  12.075  0.0197  0.3123  0.3527
 6159W        W10210   6.936   0.480   3.935  0.1208  0.0888  0.0001
 6160W        W10211   8.504   2.438  11.641 -0.2271  0.2269  0.0422
 6161W        W10212   0.907   0.356  10.368 -0.5192 -0.2137  0.1072
 6162W        W10213   6.751   1.885   5.903 -0.1894  0.1146 -0.0871
 6163W        W10214   2.615   0.281  13.817 -0.0722  0.0187 -0.0759
 6164W        W10215   8.895   3.654   1.215 -0.0080  0.1827  0.0175
 6165W        W10216   3.974   5.114   3.574  0.2560  0.3067 -0.1667
 6166W        W10217   8.565   7.772   3.485 -0.1216  0.3219 -0.3730
 6167W        W10218   0.433   3.485  11.660  0.1503  0.0115 -0.2710
 6168W        W10219   5.420   5.869  11.999  0.0253  0.1647  0.3022
 6169W        W10220   4.760  10.037  12.308 -0.2848 -0.0724 -0.0759
 6170W        W10221   2.299   4.272   5.922  0.0303 -0.0544  0.1662
 6171W        W10222   0.163   8.814  13.578 -0.2054  0.0788 -0.2875
 6172W        W10223   5.695   1.483   4.765 -0.0248 -0.1537  0.0165
 6173W        W10224  10.090   0.457  12.378 -0.0284  0.1143 -0.3300
 6174W        W10225   9.891   6.414   1.354 -0.0748 -0.3226  0.1582
 6175W        W10226   5.975   9.054   9.614  0.0882  0.3598  0.0447
 6176W        W10227   7.316   6.923   2.316 -0.1741  0.0197 -0.0698
 6177W        W10228   0.248   5.454   9.937  0.3599  0.1146 -0.1289
 6178W        W10229   2.126   8.810  13.592 -0.0715 -0.0881 -0.0082
 6179W        W10230   0.562   4.189   0.709 -0.0953  0.1149  0.4864
 6180W        W10231   1.536   2.671   2.841  0.2358  0.0365  0.0876
 6181W        W10232   1.985   5.242  11.931 -0.1527 -0.0565  0.0891
 6182W        W10233   2.027   1.329  12.466  0.1614 -0.2293 -0.2599
 6183W        W10234   8.441   9.794  12.954 -0.0719 -0.0929 -0.0489
 6184W        W10235   0.181   6.447  11.354  0.0712  0.0245 -0.2280
 6185W        W10236   6.762   2.998   4.938 -0.0550  0.0528  0.1315
 6186W        W10237   9.417   7.740   0.469  0.3721 -0.2307  0.0749
 6187W        W10238   2.665   9.342   4.731 -0.1399  0.1033  0.0920
 6188W        W10239   1.683   0.937   0.063  0.0093  0.2929  0.1263
 6189W        W10240   6.730   1.488  10.506  0.0453  0.0345  0.0231
 6190W        W10241   1.369   8.585   2.403 -0.1121  0.2703 -0.2368
 6191W        W10242   9.614   2.701   0.967  0.1059 -0.1407  0.3757
 6192W        W10243   7.522   1.193  13.948  0.0047  0.1052 -0.1777
 6193W        W10244   5.638   5.136   3.768 -0.1732 -0.1194  0.4808
 6194W        W10245   0.449   6.368   1.735  0.0866  0.1485 -0.0578
 6195W        W10246   7.696   5.035  11.209 -0.4490  0.1478 -0.1706
 6196W        W10247   7.512   9.610  11.910  0.2550 -0.1972 -0.2339
 6197W        W10248   2.552   7.053   0.817  0.0075 -0.1223  0.4090
 6198W        W10249   8.812   0.663   0.583 -0.1522  0.4359 -0.2146
 6199W        W10250   9.824   1.896  13.380 -0.0096  0.0702 -0.0421
 6200W        W10251   6.742   2.194  13.453 -0.0921  0.0166 -0.3852
 6201W        W10252   0.687   0.879   0.833 -0.1882  0.0069 -0.0815
 6202W        W10253   1.195   5.988   1.498  0.0234  0.0607  0.1417
 6203W        W10254   7.090   7.613  10.963  0.1917  0.0797  0.2024
 6204W        W10255   5.723   3.208   1.521 -0.1151  0.3475  0.2951
 6205W        W10256   4.459   4.983  13.871  0.0880  0.1872 -0.0061
 6206W        W10257   2.706   6.666  13.487 -0.0278 -0.0393  0.1290
 6207W        W10258   3.851   9.069   2.624 -0.2825 -0.0520 -0.2936
 6208W        W10259   8.515   2.674  12.515 -0.0437 -0.2279  0.0736
 6209W        W10260   4.597   8.467  13.009 -0.3403 -0.2625  0.0248
 6210W        W10261   4.597   5.709  10.977 -0.0741 -0.2279 -0.2597
 6211W        W10262   2.958   9.197   0.870 -0.4307  0.0647  0.2136
 6212W        W10263   9.678   5.216   1.853 -0.2215 -0.3814 -0.0232
 6213W        W10264   7.112   2.490   4.175  0.1931 -0.2431 -0.0393
 6214W        W10265   9.857   3.741   2.157 -0.1559 -0.0055  0.1229
 6215W        W10266   9.553   6.590   2.127 -0.2796  0.0999  0.0318
 6216W        W10267   6.610   2.963   2.856 -0.3257  0.0438  0.0588
 6217W        W10268   9.824   7.285  11.005 -0.3539 -0.0738 -0.1395
 6218W        W10269   2.803   4.160  11.424 -0.1060  0.0624  0.0389
 6219W        W10270   9.846   2.536  12.312  0.2302  0.0729 -0.0581
 6220W        W10271   9.955   9.398   3.220  0.0350  0.1927  0.0358
 6221W        W10272   6.908   5.132   0.260 -0.1551 -0.0712 -0.1767
 6222W        W10273  10.120   1.806   3.615 -0.2312  0.1097 -0.1268
 6223W        W10274   3.524   6.245  10.951 -0.2248  0.0733 -0.3205
 6224W        W10275   7.542   9.957  10.452 -0.0413  0.0256  0.0823
 6225W        W10276   0.336   3.792  10.996  0.2263  0.1415  0.3085
 6226W        W10277   0.068   0.505   0.240  0.2632 -0.0137  0.2581
 6227W        W10278   2.302   9.850  12.764  0.1891  0.0859  0.0427
 6228W        W10279   5.425   7.060  10.848 -0.2085  0.1466  0.1280
 6229W        W10280   8.469   1.180   4.591 -0.0740  0.0428 -0.1140
 6230W        W10281   8.376   0.001  12.711 -0.0852 -0.3749 -0.4463
 6231W        W10282   1.975   6.869  12.055  0.0641  0.2148  0.1510
 6232W        W10283   1.805   5.945   9.498 -0.2112  0.0750  0.1182
 6233W        W10284   6.529   2.947  10.546 -0.0806 -0.1514  0.0875
 6234W        W10285   8.270   2.754  10.822 -0.2194 -0.0859 -0.1664
 6235W        W10286   7.722   5.627   1.186 -0.0163 -0.1522 -0.2754
 6236W        W10287   1.188   4.024   0.447 -0.2236 -0.2453 -0.2374
 6237W        W10288   5.530   3.838  11.546 -0.2043  0.1268 -0.1309
 6238W        W10289   2.382   2.815  12.753 -0.0434 -0.1051 -0.1937
 6239W        W10290   6.545   3.345  11.966 -0.0995  0.1721 -0.0241
 6240W        W10291   0.615   3.126   2.209  0.3076 -0.3180 -0.1135
 6241W        W10292   8.331   4.791   1.381  0.1216  0.2269 -0.4911
 6242W        W10293   5.381   7.362   3.029  0.0324  0.1035 -0.1665
 6243W        W10294   8.942   4.871   2.016  0.4551 -0.1167 -0.0598
 6244W        W10295   2.116   1.885  12.315 -0.2484  0.0293 -0.2031
 6245W        W10296   6.133   3.107   3.836  0.1561 -0.0195  0.0973
 6246W        W10297   7.220   8.104   1.653  0.3145  0.0591 -0.0194
 6247W        W10298   1.128   2.867  13.218  0.2917 -0.1360  0.2097
 6248W        W10299   5.278   6.070   1.682  0.1477  0.0457 -0.1561
 6249W        W10300   0.161   3.566  12.649  0.1576  0.0457 -0.1446
 6250W        W10301   7.484   1.088  11.082  0.1449  0.1756 -0.2788
 6251W        W10302   6.369   7.618   1.099  0.4551 -0.0090  0.1041
 6252W        W10303   8.767   2.278  12.476 -0.0765  0.1461  0.1174
 6253W        W10304   8.012   4.002   1.647 -0.1831 -0.1837  0.1523
 6254W        W10305   8.870   5.497   2.993  0.1112  0.1721  0.0398
 6255W        W10306   0.439   7.406   1.824 -0.0207 -0.2159  0.1186
 6256W        W10307   3.649   4.227  11.878  0.0934 -0.1536 -0.3784
 6257W        W10308   3.274   4.625   3.111  0.0367 -0.0141  0.1233
 6258W        W10309   2.938   5.986  13.609 -0.0614  0.0758 -0.2156
 6259W        W10310   7.610   0.785  12.083  0.3459 -0.4687 -0.2129
 6260W        W10311   2.580   3.463   2.440  0.2810  0.0558 -0.0919
 6261W        W10312   8.327   6.120  11.017 -0.0464 -0.0868  0.1306
 6262W        W10313   5.062   6.401   1.237  0.2897 -0.0690  0.1706
 6263W        W10314   9.558   9.085  11.111 -0.1556 -0.0498 -0.0567
 6264W        W10315   6.120   4.990  11.567  0.1326  0.1729 -0.3065
 6265W        W10316  10.137   2.514   2.001 -0.1170 -0.0467  0.0927
 6266W        W10317   5.892   1.913   2.233  0.1996 -0.2576 -0.1193
 6267W        W10318   8.136   3.911  12.482 -0.0469  0.0078  0.0562
 6268W        W10319   8.584   1.661   2.638  0.2356  0.0076 -0.1743
 6269W        W10320   0.910   7.792  12.672  0.0098 -0.3309 -0.2262
 6270W        W10321   9.439   5.384   1.403  0.1583 -0.0592  0.0831
 6271W        W10322   5.481   9.077  10.677  0.0083 -0.2361  0.3284
 6272W        W10323   7.694   7.180   2.011  0.3095  0.1350  0.4872
 6273W        W10324   6.878   9.190   1.045 -0.2339  0.0180  0.0998
 6274W        W10325   7.771   4.582   1.367  0.1627  0.1003 -0.0293
 6275W        W10326   4.470   2.676   9.271  0.2262  0.2131  0.0682
 6276W        W10327   5.176   4.111   1.382 -0.3341  0.2711 -0.0009
 6277W        W10328   2.262   6.124  11.752 -0.1154 -0.2789  0.0609
 6278W        W10329   8.388   3.384  11.268  0.0173  0.5562 -0.0920
 6279W        W10330   9.462   4.550  10.420 -0.2585 -0.1934 -0.2392
 6280W        W10331   5.166   2.616  11.380 -0.0434 -0.3421 -0.1268
 6281W        W10332   9.007   2.551  13.022  0.0336  0.1265  0.2630
 6282W        W10333   6.658   8.434  11.113  0.1061  0.1013 -0.1882
 6283W        W10334   9.046   7.667  12.570  0.3376 -0.2241  0.0894
 6284W        W10335   1.953   1.452   1.961  0.1817 -0.0021  0.3928
 6285W        W10336   1.407   3.759  13.023 -0.2761 -0.1906  0.4155
 6286W        W10337   9.587   6.491  13.332  0.1132  0.1570 -0.0838
 6287W        W10338   4.532   1.946   1.679  0.0123 -0.0318 -0.0216
 6288W        W10339   5.095   8.230  10.209 -0.0549  0.1366 -0.1472
 6289W        W10340   3.882   4.236   1.903 -0.0528  0.0043  0.1961
 6290W        W10341   3.833   1.446   3.421 -0.0803 -0.1206  0.0438
 6291W        W10342   5.431   3.325   4.319 -0.1628 -0.2087 -0.0972
 6292W        W10343   1.894   6.246   2.698  0.1683  0.3638  0.0817
 6293W        W10344   8.504   9.646   1.016 -0.1581  0.1419 -0.1432
 6294W        W10345   6.643   4.031  13.036  0.2586 -0.0659  0.3445
 6295W        W10346   2.365   1.738  12.712  0.0689  0.0563 -0.1320
 6296W        W10347   7.996   1.637  13.224  0.1053 -0.1147  0.0447
 6297W        W10348   1.397   1.213   4.037 -0.0727 -0.3727  0.0373
 6298W        W10349   9.878   2.554   0.010 -0.1379 -0.0885 -0.0271
 6299W        W10350   2.592   6.122   1.009  0.1108  0.1403  0.1950
 6300W        W10351   7.099   5.864   1.594 -0.0470 -0.0270  0.1542
 6301W        W10352   4.938   9.143  13.887 -0.0170 -0.2438  0.2381
 6302W        W10353   5.866   5.359  10.661  0.1464 -0.0691  0.1244
 6303W        W10354   4.499   3.966  13.647  0.1859 -0.1899  0.4936
 6304W        W10355   6.394   9.809   3.092  0.2695 -0.0914 -0.1391
 6305W        W10356   4.783   3.391  11.951 -0.2367  0.0098 -0.1138
 6306W        W10357   6.773   0.908  11.758 -0.0638  0.1644 -0.0681
 6307W        W10358   7.943   5.600   1.693 -0.0122 -0.2350  0.0391
 6308W        W10359   2.807   5.042  12.377  0.1387 -0.0798 -0.0301
 6309W        W10360   9.734   5.155   9.297  0.1639  0.0232  0.4716
 6310W        W10361   2.793   9.677  10.155 -0.0523 -0.0332 -0.0097
 6311W        W10362   9.067   1.875  11.395  0.2568  0.0339  0.0019
 6312W        W10363   1.510   8.874   9.960  0.1772 -0.2021 -0.0268
 6313W        W10364   7.530   6.199  11.662 -0.2369  0.3206 -0.0533
 6314W        W10365   7.878   4.214  12.870 -0.0089  0.2458 -0.0257
 6315W        W10366   6.685   5.263  10.238  0.0858 -0.0193  0.0546
 6316W        W10367   5.461   4.102  10.668 -0.1330  0.1153 -0.1633
 6317W        W10368   3.326   2.281   0.277 -0.0976  0.2915  0.2412
 6318W        W10369   2.494   3.720   2.020 -0.0861 -0.0689 -0.2300
 6319W        W10370   1.849   2.135   4.647  0.2675  0.2546  0.0356
 6320W        W10371   1.158   8.173   2.748 -0.0065  0.3579 -0.0765
 6321W        W10372   0.420   3.780   2.895  0.2706  0.4128 -0.0518
 6322W        W10373   3.211   7.518  13.535 -0.0351 -0.0795  0.0787
 6323W        W10374   4.185   6.334   3.967  0.0492 -0.1554  0.1815
 6324W        W10375   2.977   5.541   2.182  0.4150 -0.2980 -0.0142
 6325W        W10376   3.037   3.316  10.318  0.0467 -0.0854 -0.0989
 6326W        W10377   7.850   8.332  10.002  0.0906 -0.1133  0.2928
 6327W        W10378   4.651   6.660  11.487 -0.0773  0.0416 -0.1453
 6328W        W10379   4.260  10.001   4.179  0.1946  0.1243  0.1815
 6329W        W10380   1.386   1.586   8.536  0.0031  0.1801 -0.1595
 6330W        W10381   5.145   4.458  10.358 -0.0405  0.1252  0.0691
 6331W        W10382   3.564   3.311   3.425 -0.0119  0.3522 -0.0861
 6332W        W10383   0.258   9.989   1.059  0.2388  0.0383  0.1194
 6333W        W10384   9.577   2.730  13.547 -0.4833  0.1675 -0.4405
 6334W        W10385   6.522   7.444   3.745 -0.1496  0.1299  0.1616
 6335W        W10386   7.578   1.361   2.971 -0.0974 -0.1089 -0.0625
 6336W        W10387   2.029   9.784   2.670  0.0588 -0.0455 -0.0353
 6337W        W10388   5.932   5.914  13.765  0.0323 -0.2724 -0.2825
 6338W        W10389   2.099   2.055   4.192 -0.0241 -0.0328  0.1160
 6339W        W10390   5.418   5.160  14.000 -0.0013  0.4340  0.0497
 6340W        W10391   8.039   5.090   3.630  0.0354 -0.1164 -0.0132
 6341W        W10392   2.390   3.983   3.746 -0.2833 -0.1372  0.2271
 6342W        W10393   2.704   1.579   8.545  0.4020  0.0146 -0.1568
 6343W        W10394   6.199   8.666   9.836 -0.1845  0.1045  0.0047
 6344W        W10395   0.286   5.911  11.043 -0.0479 -0.1459  0.2268
 6345W        W10396   3.629   0.917   5.066 -0.1166 -0.0406 -0.2265
 6346W        W10397   4.995   0.809  12.501  0.0044  0.0962 -0.0645
 6347W        W10398   2.250   5.661   3.469 -0.0028  0.1694 -0.0424
 6348W        W10399   2.149   5.653   8.913 -0.0065  0.3603  0.2198
 6349W        W10400   6.082   9.182   5.163  0.0023 -0.3101 -0.2719
 6350W        W10401   2.986   4.079   4.330 -0.0704 -0.0539 -0.1075
 6351W        W10402   4.410   4.260  10.889  0.2863 -0.1509  0.0992
 6352W        W10403   7.621   5.650   0.284 -0.2449  0.0067 -0.0373
 6353W        W10404   3.634   8.771  13.108  0.0045  0.0712 -0.0947
 6354W        W10405   1.787   5.376  13.378 -0.1751  0.1141  0.0721
 6355W        W10406   0.460   2.665  12.883  0.1114  0.0030  0.0408
 6356W        W10407   1.121   7.391   1.932  0.2097  0.1949  0.0826
 6357W        W10408   8.715   6.684   3.121 -0.1041  0.0841 -0.3370
 6358W        W10409   5.848   8.953  11.520  0.1985 -0.2670 -0.2326
 6359W        W10410   6.996   6.307  10.478  0.0469  0.1273 -0.0583
 6360W        W10411   7.288   5.259   5.029 -0.0904 -0.1105  0.0640
 6361W        W10412   6.220   5.878   0.199  0.2200  0.0289 -0.0579
 6362W        W10413   1.985   0.074  12.589  0.2641 -0.4278  0.2391
 6363W        W10414   5.292   2.655   3.071 -0.0892 -0.2674 -0.5124
 6364W        W10415   4.904   4.052  12.505 -0.1280 -0.2059 -0.0387
 6365W        W10416   8.233   7.460  11.975  0.1493 -0.0676  0.0807
 6366W        W10417   3.703   4.594  12.316  0.0030  0.1385 -0.2963
 6367W        W10418   4.442  10.164  12.963 -0.1864  0.0245 -0.1633
 6368W        W10419   0.047   6.697   2.719 -0.3263  0.0656  0.1923
 6369W        W10420   2.708   9.408   5.210 -0.0067 -0.4272 -0.2875
 6370W        W10421   5.319   9.571   9.091 -0.0983 -0.1730 -0.2756
 6371W        W10422   0.384   7.756  10.502  0.3012  0.0521 -0.0578
 6372W        W10423   9.344   4.232   0.562  0.0001 -0.0373  0.0594
 6373W        W10424   5.037   8.430  11.194  0.0197  0.0401 -0.3531
 6374W        W10425   1.287   5.470  13.525 -0.0727  0.1146 -0.1950
 6375W        W10426   2.991   9.929   0.157  0.2088  0.2447  0.4534
 6376W        W10427   8.660   2.002   4.008 -0.0306  0.0391 -0.0563
 6377W        W10428   2.236   5.535  11.009 -0.0568  0.1912  0.0393
 6378W        W10429   6.221   2.229   9.242 -0.0377 -0.0106 -0.2474
 6379W        W10430   8.750   4.988   1.570 -0.1208  0.1940  0.3027
 6380W        W10431   8.054   6.293  12.434 -0.2402  0.0105  0.2025
 6381W        W10432   8.331   6.406   3.364 -0.1600 -0.2841 -0.0660
 6382W        W10433   9.731   7.905  12.155  0.2621 -0.2770 -0.0306
 6383W        W10434   4.431   0.624   5.549 -0.0266  0.3898  0.3777
 6384W        W10435   1.856   1.111   3.831 -0.1215 -0.0912  0.1041
 6385W        W10436   1.927   6.352  12.744  0.3309  0.1450  0.0804
 6386W        W10437   8.646   5.562  12.099  0.2982  0.2724  0.1506
 6387W        W10438   5.014   2.750  10.391 -0.0181 -0.3788  0.0252
 6388W        W10439   2.344   3.732  12.568 -0.1323 -0.0864 -0.3130
 6389W        W10440   6.036  10.087   2.126  0.1833 -0.3804  0.0588
 6390W        W10441   0.181   8.921  10.009 -0.2402  0.3421  0.0393
 6391W        W10442   2.115   9.781   3.206  0.2285 -0.0375  0.1751
 6392W        W10443   0.322   3.589  10.577 -0.2463  0.0513  0.3764
 6393W        W10444   1.462   3.972   0.909 -0.1846  0.0790 -0.1553
 6394W        W10445   3.199   9.044  12.616  0.1868 -0.0956  0.2714
 6395W        W10446   4.914   2.732  13.788  0.2180 -0.3272  0.3372
 6396W        W10447   8.407   8.702   1.370 -0.0760 -0.2119 -0.2738
 6397W        W10448   2.468   4.733   3.169  0.2002 -0.0307 -0.3174
 6398W        W10449   0.604   1.873  11.478  0.2205  0.2209 -0.0119
 6399W        W10450   7.418   5.522  10.510 -0.0609  0.1302 -0.0006
 6400W        W10451   7.012   4.048   1.204 -0.3965  0.1345 -0.3878
 6401W        W10452   0.901   5.171   3.903 -0.0718  0.2551  0.2792
 6402W        W10453   6.374   7.151   4.926 -0.2515  0.2294  0.0843
 6403W        W10454   0.200   4.052  12.304  0.0386  0.1727  0.3357
 6404W        W10455   3.386   1.389   0.802  0.3074  0.1545 -0.1258
 6405W        W10456   6.394   4.411   3.142 -0.1507  0.2067  0.1131
 6406W        W10457  10.174   9.054  10.480  0.0881  0.0298  0.2484
 6407W        W10458   4.909   2.199  13.909 -0.2699  0.1980 -0.2614
 6408W        W10459   6.500  10.006  13.219  0.2823  0.1454  0.3972
 6409W        W10460   6.334   1.574   1.581  0.3008  0.0556 -0.0178
 6410W        W10461   0.827   9.478  10.511 -0.1139  0.1217  0.1749
 6411W        W10462   9.131   3.638   4.317  0.1994 -0.1194 -0.1736
 6412W        W10463   9.909   4.640  12.047 -0.0015 -0.0735  0.1798
 6413W        W10464   2.582   7.723  12.344 -0.2127 -0.1560  0.0745
 6414W        W10465   7.947   2.948   4.434  0.3038 -0.1966  0.2088
 6415W        W10466   3.579   1.627  11.024 -0.0341  0.1567  0.0749
 6416W        W10467   6.765   8.772  10.754  0.1307 -0.1786  0.4505
 6417W        W10468   2.210   1.624   5.717 -0.1885 -0.0314  0.5430
 6418W        W10469   2.988   5.528   3.204  0.0182 -0.1151 -0.0983
 6419W        W10470   1.672   6.749   9.929 -0.2959 -0.2998  0.1761
 6420W        W10471   9.093   6.600  13.190 -0.2129 -0.0167 -0.0822
 6421W        W10472   1.782   7.595  11.783 -0.1385 -0.0243  0.2335
 6422W        W10473   7.817   8.381   0.001  0.2485 -0.1186  0.0385
 6423W        W10474   7.443   5.212   9.281 -0.0190  0.0922 -0.3537
 6424W        W10475   3.744   5.826   1.707  0.3554 -0.0473 -0.3923
 6425W        W10476   9.748   6.924  12.749  0.0144  0.1150 -0.2827
 6426W        W10477   7.317   8.208   2.556  0.3006  0.2738  0.4193
 6427W        W10478   3.027   4.833   2.727  0.0656  0.0326 -0.0143
 6428W        W10479   1.487   2.085  13.469  0.2931 -0.3564  0.2700
 6429W        W10480   9.584   8.663   0.225 -0.1181  0.0051 -0.1652
 6430W        W10481   8.637   8.645   0.948  0.1095 -0.1523 -0.0528
 6431W        W10482   7.547   3.793  12.727 -0.0777  0.0421 -0.1734
 6432W        W10483   0.552   4.249  11.038 -0.1390  0.0127  0.1263
 6433W        W10484   0.868   1.665   2.497  0.0099 -0.1862  0.2787
 6434W        W10485   9.701   8.088  10.685 -0.2153 -0.0756  0.0531
 6435W        W10486   9.748   6.510   2.612 -0.0959  0.1110  0.2691
 6436W        W10487   6.013   9.625   2.218 -0.0817 -0.0238  0.2397
 6437W        W10488   5.802   9.172   2.477  0.2298 -0.0258 -0.1497
 6438W        W10489   1.285   5.566   1.183 -0.0797 -0.1738  0.0187
 6439W        W10490   4.334   5.133   2.539  0.0480  0.0483 -0.4158
 6440W        W10491   0.001   4.378  11.706  0.1073 -0.1255  0.1440
 6441W        W10492   8.933   5.640   3.475  0.1912  0.1796 -0.1001
 6442W        W10493   9.191   7.365   0.196 -0.0399  0.2216  0.2792
 6443W        W10494   7.309   6.361   1.664  0.0510 -0.3730 -0.0122
 6444W        W10495   6.069   4.831   4.424 -0.0393 -0.0313 -0.2927
 6445W        W10496   5.620   5.356   8.697 -0.1256 -0.0883  0.3277
 6446W        W10497   1.153   6.696   2.632  0.1921 -0.1582  0.4034
 6447W        W10498   0.024   9.986  12.523 -0.1408 -0.1802  0.1699
 6448W        W10499   5.634   7.711   4.007 -0.2058  0.2045 -0.2350
 6449W        W10500   9.617   6.254   3.478 -0.1091  0.0842  0.2067
 6450W        W10501   5.619   5.158   3.281 -0.1044 -0.0269  0.1582
 6451W        W10502   5.167   5.504  11.711  0.0409 -0.3015  0.1195
 6452W        W10503   5.145   7.617   9.524 -0.0013 -0.0230  0.2958
 6453W        W10504   0.716   1.238  10.902 -0.0314 -0.2207  0.2063
 6454W        W10505   3.091  10.149   9.565 -0.0342  0.1949  0.0602
 6455W        W10506   5.560   7.614  11.777 -0.0793  0.0005  0.0006
 6456W        W10507   6.054   6.855   3.363 -0.0468  0.1710 -0.0132
 6457W        W10508   9.183   1.242  11.574  0.0374 -0.0579 -0.0667
 6458W        W10509   5.945   9.803   0.118  0.2246 -0.3698  0.2678
 6459W        W10510   1.195   9.421   2.187  0.4898  0.1894 -0.2437
 6460W        W10511   7.534   5.220   2.057 -0.1098 -0.0034  0.0836
 6461W        W10512   8.360   1.170   9.874 -0.1929 -0.0775 -0.2350
 6462W        W10513   8.792   8.329  12.088  0.1867 -0.0917 -0.1162
 6463W        W10514   3.750   9.164   1.379 -0.1091  0.3896  0.1351
 6464W        W10515   9.591   3.320  12.227 -0.2173 -0.2665 -0.1206
 6465W        W10516   6.648   9.391  11.005  0.0620  0.0456 -0.1513
 6466W        W10517   5.717   9.433   2.959 -0.1449  0.0803  0.2030
 6467W        W10518   5.952   9.954  11.303  0.0597  0.0584  0.1337
 6468W        W10519   4.805   3.091  13.364 -0.1229  0.2058 -0.0436
 6469W        W10520   3.757   8.059  12.735 -0.0023 -0.0917 -0.2370
 6470W        W10521   7.147   7.702   2.630  0.1669  0.1151 -0.0594
 6471W        W10522   9.380   8.980   1.742 -0.0698 -0.2961 -0.2169
 6472W        W10523   0.392   7.673   3.137 -0.0409 -0.2741 -0.0717
 6473W        W10524   6.840   2.411  10.786  0.1099  0.0031 -0.0573
 6474W        W10525   1.410   9.611  11.168  0.0945 -0.1264  0.0801
 6475W        W10526   9.174   3.473   3.651 -0.0687 -0.0235 -0.3025
 6476W        W10527   6.501   3.232  12.830  0.0292  0.0840 -0.1091
 6477W        W10528   4.747   6.109   0.729  0.1240  0.0522 -0.1566
 6478W        W10529   9.773   3.822   3.493  0.2327  0.0407  0.1221
 6479W        W10530   3.654   1.625  13.220 -0.2127  0.1862  0.0548
 6480W        W10531   0.977   3.686   0.806 -0.0210  0.0642  0.2044
 6481W        W10532   8.246   0.680  10.580 -0.0576  0.3942  0.1447
 6482W        W10533   2.332   2.263  12.508  0.1012 -0.0886 -0.0254
 6483W        W10534   5.161   8.761   3.629  0.0012 -0.2077 -0.0716
 6484W        W10535   7.902   2.513   1.118 -0.0526 -0.1150  0.1310
 6485W        W10536   1.067   7.254   3.744  0.2064  0.0027 -0.1636
 6486W        W10537   8.142   0.485  13.963  0.0906  0.2051  0.3036
 6487W        W10538   0.436   4.096  13.208 -0.0638 -0.2116  0.1344
 6488W        W10539   2.754   7.560   3.329 -0.1845  0.2911  0.4708
 6489W        W10540   8.799   5.793  10.893 -0.1051 -0.2886 -0.0935
 6490W        W10541   8.302   7.407   0.535 -0.1742  0.3111 -0.0678
 6491W        W10542   5.687   8.138   1.841 -0.4107 -0.0421 -0.2429
 6492W        W10543   9.152   6.169   1.468  0.2255 -0.1149  0.0475
 6493W        W10544   8.315   0.114  10.500  0.0333  0.0789  0.0077
 6494W        W10545   3.143   3.028   0.899  0.3075 -0.1180  0.2660
 6495W        W10546   2.223   2.005  10.695 -0.0287 -0.0478  0.2633
 6496W        W10547   5.293   3.052   9.019  0.0497 -0.0393  0.0699
 6497W        W10548   6.569   1.273   3.241 -0.4925 -0.1691  0.1248
 6498W        W10549   1.533   5.554   9.704 -0.0402  0.1094 -0.0480
 6499W        W10550   7.932   3.201   2.345 -0.1163  0.0067  0.4480
 6500W        W10551   7.357  10.089  13.564 -0.0737  0.0426 -0.1726
 6501W        W10552   9.637   6.018   0.297 -0.2998 -0.0498  0.1500
 6502W        W10553   5.661   6.118   0.153 -0.2905  0.3089 -0.2217
 6503W        W10554   4.207   1.925   1.085 -0.0258 -0.3035 -0.1496
 6504W        W10555   6.263   1.497  13.148 -0.0171  0.3622 -0.0708
 6505W        W10556   8.225   4.254   2.642  0.1887 -0.0477  0.0212
 6506W        W10557   8.514   1.351   5.240 -0.3446  0.1722 -0.0950
 6507W        W10558   6.143   3.389  10.838  0.0503 -0.3961  0.1149
 6508W        W10559   8.669   6.816   0.258  0.1582  0.1616  0.2570
 6509W        W10560   9.362   1.435  10.140  0.0476 -0.0889 -0.0997
 6510W        W10561   0.197   2.930  13.316  0.3485  0.1649 -0.3840
 6511W        W10562   9.494   2.359  11.541 -0.0488  0.0602  0.0098
 6512W        W10563   6.589   4.032   0.192 -0.0587 -0.0647 -0.2756
 6513W        W10564   5.933   8.858   4.685 -0.0083 -0.1636 -0.0998
 6514W        W10565   6.083   9.074  10.178  0.0827  0.1013  0.3680
 6515W        W10566   6.413   6.788   2.503 -0.0472 -0.1621 -0.0876
 6516W        W10567   2.585   9.632   2.232  0.4788  0.0274  0.1091
 6517W        W10568   8.672   0.594   2.558  0.3054  0.2466  0.3915
 6518W        W10569   8.839   2.725   1.216 -0.1123  0.0219  0.0773
 6519W        W10570   0.932   9.881  12.630  0.0992 -0.1524  0.1938
 6520W        W10571   6.372   0.385  10.730 -0.0690  0.0112  0.2769
 6521W        W10572   9.297   0.364  10.726  0.0793  0.0738 -0.0796
 6522W        W10573   8.804   4.167  11.747 -0.0420 -0.0581 -0.0771
 6523W        W10574   9.712   5.812  12.246 -0.0884 -0.0567 -0.0812
 6524W        W10575   7.518   0.345  10.396 -0.0739 -0.1758 -0.0892
 6525W        W10576   1.375   2.718   1.667 -0.0931  0.0804  0.1087
 6526W        W10577   2.784   2.998   4.388  0.0054 -0.1784 -0.2172
 6527W        W10578   7.569   9.797   2.212 -0.2205 -0.3405 -0.0331
 6528W        W10579   1.315   5.710  10.539  0.2340  0.1952  0.0659
 6529W        W10580   3.794   3.360   2.300  0.2065 -0.0439  0.0923
 6530W        W10581   3.475   5.177  12.317 -0.0502  0.2557 -0.0946
 6531W        W10582   8.204   3.757   2.465  0.1803 -0.4290  0.1993
 6532W        W10583   1.806   8.528   2.199  0.2129 -0.0182 -0.0569
 6533W        W10584  10.098   1.415   4.975  0.1399  0.0376 -0.1091
 6534W        W10585   1.098   9.932  11.943  0.0489 -0.1113 -0.2428
 6535W        W10586   6.445   3.958  12.559  0.0736 -0.1659 -0.0261
 6536W        W10587   8.895   6.633   3.562 -0.0101  0.2336  0.1058
 6537W        W10588   1.418   3.043   4.922  0.0536 -0.0487 -0.0016
 6538W        W10589   2.444   4.105   0.035 -0.0422 -0.0204  0.0754
 6539W        W10590   4.317   8.061   2.756  0.0395  0.0115 -0.4498
 6540W        W10591   2.134   3.285  11.844  0.1397 -0.0851  0.1421
 6541W        W10592   7.812   8.086  12.504 -0.1171 -0.1378  0.3242
 6542W        W10593   5.738   2.303   2.660  0.1474  0.2556 -0.1859
 6543W        W10594   0.470   3.217  10.170 -0.0884  0.0301  0.0342
 6544W        W10595   5.868   7.437   2.875 -0.2173 -0.1399  0.0730
 6545W        W10596   0.396   0.678  13.843  0.1511 -0.0558  0.1679
 6546W        W10597   4.048   4.290  12.849 -0.1535  0.0283  0.0143
 6547W        W10598   6.995   3.509  11.413 -0.2853 -0.0679 -0.1497
 6548W        W10599   8.628   6.489  11.180 -0.0055  0.0892 -0.0339
 6549W        W10600   6.981   0.324   2.046 -0.0667 -0.4107  0.0038
 6550W        W10601   9.225   2.452  12.418  0.1536 -0.1836  0.1315
 6551W        W10602   5.579   9.592   4.402 -0.3106  0.2864 -0.3493
 6552W        W10603   0.409   9.533  13.181  0.1005  0.0856  0.1848
 6553W        W10604   7.693   8.375  13.195  0.0919  0.0092  0.2880
 6554W        W10605   4.578   0.222   1.632 -0.2337 -0.4222  0.2091
 6555W        W10606   6.631   9.227   2.976  0.2094 -0.0361 -0.0355
 6556W        W10607   2.235   7.262   9.652  0.3554 -0.2771 -0.3431
 6557W        W10608   1.983   4.033  10.240 -0.0493  0.2171 -0.0495
 6558W        W10609   2.052   4.607  11.074  0.2676 -0.2295  0.0538
 6559W        W10610   5.058   2.421   9.605 -0.1549  0.0708 -0.1539
 6560W        W10611   5.933   9.461  11.477  0.2280 -0.0615  0.1083
 6561W        W10612   7.413   7.979  12.220  0.1130 -0.2160 -0.1321
 6562W        W10613   0.025   5.074  10.197  0.1640 -0.0991  0.1873
 6563W        W10614   1.285   8.012  10.240  0.1191  0.1040 -0.0950
 6564W        W10615   9.332   2.062   0.633 -0.2816 -0.1486 -0.1216
 6565W        W10616   6.525   5.849  13.766  0.1114 -0.0981 -0.0674
 6566W        W10617   3.669   9.864   3.055  0.0130 -0.2394  0.3058
 6567W        W10618   2.793   9.407  13.404  0.0304  0.0093 -0.3494
 6568W        W10619   0.785   5.248   4.408  0.0269  0.0088  0.2686
 6569W        W10620   4.115   7.052   2.386 -0.1351  0.0546  0.0434
 6570W        W10621   3.356   0.334  11.368  0.1563  0.0513  0.0127
 6571W        W10622   4.858   5.123   2.079  0.5890  0.2263 -0.2217
 6572W        W10623   7.498   1.301   3.472 -0.2915 -0.0154  0.1174
 6573W        W10624   8.050   8.069   3.207  0.2274  0.0765  0.0961
 6574W        W10625   1.674   6.045   1.465  0.0759 -0.2190 -0.1063
 6575W        W10626   6.895   7.805  10.441  0.0263 -0.0734  0.1466
 6576W        W10627   7.987   5.065   2.429 -0.0106  0.1283 -0.1850
 6577W        W10628   2.473   2.117   3.462  0.0722  0.0543  0.0202
 6578W        W10629   2.013   2.558   4.269 -0.0116  0.3661 -0.2129
 6579W        W10630   6.676   0.250   3.133  0.1374  0.2024  0.1473
 6580W        W10631   3.116   6.354   5.817  0.4217 -0.0639 -0.0271
 6581W        W10632   7.559   0.256  13.223  0.3328 -0.3786 -0.2955
 6582W        W10633   4.610   7.534  10.936 -0.4225  0.1942 -0.0783
 6583W        W10634   5.220   5.562   1.453 -0.2781 -0.0836  0.1232
 6584W        W10635   0.263   3.895   0.028  0.1511  0.1184 -0.0901
 6585W        W10636   0.159   3.584  10.144  0.2467  0.0340  0.0330
 6586W        W10637   4.855   1.766  12.717 -0.0133 -0.1433 -0.0340
 6587W        W10638   6.105   7.647  11.359  0.0272 -0.0775 -0.3106
 6588W        W10639   0.975   4.230   3.440  0.0257 -0.0140 -0.0766
 6589W        W10640   7.885   4.216   0.957  0.0382 -0.2912  0.2122
 6590W        W10641   8.423   0.454  12.559  0.1685  0.1588  0.0204
 6591W        W10642   0.602   9.900   4.401  0.0319  0.1630  0.3594
 6592W        W10643   5.681   0.863   4.688  0.0434  0.1137 -0.2873
 6593W        W10644   8.490   4.967   2.353  0.0469 -0.1444 -0.0673
 6594W        W10645   8.236   4.499  11.951  0.1543  0.0338  0.0528
 6595W        W10646   7.789   7.069   3.064  0.2915  0.1600 -0.0497
 6596W        W10647   3.964   9.353  13.137  0.2544 -0.3971  0.0061
 6597W        W10648   0.931   4.803  10.135 -0.1246 -0.1419  0.0750
 6598W        W10649   3.293   2.140  11.762  0.1655 -0.0522  0.0409
 6599W        W10650   6.593   7.058   4.078  0.0281  0.0797  0.1477
 6600W        W10651   7.050   6.521   2.090 -0.3099  0.1428  0.1233
 6601W        W10652   3.367   0.786  12.274 -0.2423 -0.1323 -0.1092
 6602W        W10653   5.489   1.280   0.855 -0.2098  0.1337 -0.1991
 6603W        W10654   3.336   9.843  12.829 -0.1276  0.0214 -0.1383
 6604W        W10655   5.254   0.868   1.124  0.2609 -0.2987 -0.0165
 6605W        W10656   2.140   4.614   1.802  0.0057 -0.3077 -0.0947
 6606W        W10657   8.107   8.426   2.198  0.0424  0.2760  0.2129
 6607W        W10658   3.324   6.125   0.979  0.0084  0.0518 -0.0875
 6608W        W10659   9.983   4.841   2.704 -0.0998  0.0536  0.4009
 6609W        W10660   6.711   5.806  11.217 -0.0414  0.2466  0.0480
 6610W        W10661   4.286   7.354   1.080  0.2562 -0.2435  0.0060
 6611W        W10662   5.870   3.770  12.507 -0.1255  0.0345  0.2495
 6612W        W10663   1.708   5.204  10.057 -0.0906 -0.0111  0.3929
 6613W        W10664   5.436   8.087   4.285  0.2055 -0.2201  0.0739
 6614W        W10665   6.212   9.596   2.637 -0.0013 -0.2661  0.0318
 6615W        W10666   9.812   6.705  10.700  0.2065  0.1786 -0.0783
 6616W        W10667   4.512   1.338   2.387 -0.0180  0.2303  0.1655
 6617W        W10668   7.207   3.683  13.147 -0.1954 -0.0533  0.1460
 6618W        W10669   2.381   4.472   3.615  0.0250 -0.3849  0.1146
 6619W        W10670   8.460   7.984   2.467  0.0064 -0.1032  0.1835
 6620W        W10671   4.465   2.481   0.094  0.0016  0.0291  0.0395
 6621W        W10672   9.621   8.594   0.744  0.1391 -0.0070 -0.1263
 6622W        W10673   0.983   5.243   0.735 -0.1283  0.0749 -0.0152
 6623W        W10674   7.398   6.490  10.102 -0.1873  0.1916 -0.2942
 6624W        W10675   1.091   5.464  10.920 -0.1319 -0.0282 -0.0270
 6625W        W10676   1.450   2.644  12.161  0.1150 -0.0194 -0.0951
 6626W        W10677   8.450   7.437   2.486 -0.2505 -0.0616 -0.2533
 6627W        W10678   2.620   4.007   2.481 -0.2479  0.1821  0.0430
 6628W        W10679   3.486   0.261  12.175  0.3214  0.0913  0.0120
 6629W        W10680   9.339   4.633   4.217  0.3331  0.0671  0.4397
 6630W        W10681   7.795   0.019   1.969 -0.1999  0.1007 -0.9522
 6631W        W10682   8.881   4.316  11.210  0.1336  0.0421 -0.2505
 6632W        W10683   0.214   6.561  12.205  0.0649 -0.0825  0.2336
 6633W        W10684   3.131   8.964   1.722  0.2026 -0.0253  0.0286
 6634W        W10685   8.850   6.211   0.531  0.0065  0.3272 -0.2194
 6635W        W10686   2.163   8.867   2.900  0.0818 -0.1242 -0.1175
 6636W        W10687   8.828   2.407   0.540  0.0172  0.2681  0.0448
 6637W        W10688   8.591   9.471   3.001  0.4110  0.0101  0.1155
 6638W        W10689   2.501   8.840   3.709 -0.0928 -0.3609 -0.2326
 6639W        W10690   2.479   2.418  10.535 -0.2938 -0.1710  0.2044
 6640W        W10691   7.871   9.171  11.685 -0.2980  0.1849 -0.3715
 6641W        W10692   1.276   8.685   0.128  0.3626  0.1585 -0.0566
 6642W        W10693   0.314   4.798   1.906  0.5120  0.3710 -0.1236
 6643W        W10694   2.064   1.237  11.120  0.2035  0.3831 -0.2155
 6644W        W10695   3.038   2.577   0.684  0.1714  0.0912  0.1178
 6645W        W10696   4.627   7.460   4.372 -0.1913 -0.2926 -0.4023
 6646W        W10697   7.039   7.027  13.746  0.0149 -0.1252  0.0370
 6647W        W10698   0.348   0.330  11.653 -0.0647  0.1247  0.2979
 6648W        W10699   7.039   0.480   1.527  0.1342  0.0913 -0.1667
 6649W        W10700   6.552   1.716   0.041  0.1284 -0.0859  0.2335
 6650W        W10701   3.185   7.090   5.128  0.0431 -0.1027  0.0677
 6651W        W10702   0.545   5.575   2.833  0.1860  0.1167  0.0974
 6652W        W10703   6.970   2.143  12.031 -0.0793  0.1868 -0.0599
 6653W        W10704   5.002   6.833   0.527 -0.0866 -0.0190  0.0364
 6654W        W10705   6.021   4.485   0.935  0.0767  0.1516 -0.1206
 6655W        W10706   3.080   0.495   3.973 -0.0522 -0.0546  0.2999
 6656W        W10707  10.061   1.983   2.774 -0.0885  0.1748  0.3748
 6657W        W10708   9.113   7.572  13.740 -0.4137  0.4076  0.2216
 6658W        W10709   8.666   3.468  13.743  0.0011  0.1668 -0.3214
 6659W        W10710   3.522   3.426   1.821  0.1298 -0.0991 -0.0142
 6660W        W10711   4.422   7.611   2.969 -0.0832  0.0324 -0.1165
 6661W        W10712   5.462   6.678   0.531  0.0026  0.2051 -0.1052
 6662W        W10713   1.465   6.206   0.528  0.0280 -0.1743  0.2266
 6663W        W10714   7.135   0.338   2.706  0.2510 -0.0572  0.2938
 6664W        W10715   1.889   2.668   4.753  0.2997  0.0970 -0.1340
 6665W        W10716   2.770   2.641   4.773 -0.0688  0.1994 -0.0754
 6666W        W10717   9.587   8.161  11.238 -0.0825 -0.3192 -0.1395
 6667W        W10718   7.117   9.835  10.867  0.0472  0.1006 -0.0100
 6668W        W10719   3.464   4.174   0.071  0.0515 -0.2996  0.1117
 6669W        W10720   3.835   5.231   0.128  0.0807  0.3044  0.3482
 6670W        W10721   4.439   8.949   4.985 -0.0608  0.0097  0.3957
 6671W        W10722   5.563   3.729   4.732  0.0430 -0.0880 -0.1193
 6672W        W10723   5.342   7.803   2.804  0.0608 -0.0609 -0.2887
 6673W        W10724   4.558   9.877   0.404  0.0355  0.4171  0.0946
 6674W        W10725   3.001   9.964   2.824 -0.1503 -0.0161  0.0321
 6675W        W10726   1.331   2.569   5.017  0.0060 -0.2677  0.2036
 6676W        W10727   5.877   3.221  12.216 -0.0812 -0.2426  0.0309
 6677W        W10728   7.755   0.297  12.726 -0.0913 -0.1391 -0.1197
 6678W        W10729   2.564   1.199   0.583  0.0294  0.0570 -0.0274
 6679W        W10730   2.183   0.259  11.201  0.0452  0.1489  0.0430
 6680W        W10731   2.755   2.102  12.795  0.1386 -0.2584  0.2210
 6681W        W10732   1.838   3.749   6.336 -0.1698  0.1106 -0.1730
 6682W        W10733   0.350   6.234   9.540 -0.0998 -0.2508  0.3725
 6683W        W10734   4.039   4.550   9.348  0.1866 -0.0233 -0.2166
 6684W        W10735   7.210   2.679   4.727  0.0473 -0.0528 -0.5588
 6685W        W10736   5.736   4.702   1.807  0.0681 -0.2253  0.0344
 6686W        W10737   5.000   3.769   3.147 -0.1725 -0.0442 -0.1654
 6687W        W10738   8.260   3.006  13.362 -0.2664  0.0830  0.0389
 6688W        W10739   1.562   0.162   1.755  0.0369 -0.0524 -0.0364
 6689W        W10740   0.215   8.499   1.026  0.1329 -0.0390  0.3034
 6690W        W10741   2.250   7.179  10.571 -0.0988  0.3046  0.3659
 6691W        W10742   2.415   2.907   0.036 -0.2954  0.2509 -0.0113
 6692W        W10743   2.001   4.913   9.788 -0.0195  0.2143  0.1096
 6693W        W10744   2.358   0.896   5.053  0.0392  0.3218  0.0566
 6694W        W10745  10.096   2.666   4.745 -0.0921 -0.0488  0.4833
 6695W        W10746   2.237   8.069   4.300  0.4128 -0.1375  0.0006
 6696W        W10747   8.519   6.826   1.229  0.1246  0.3124  0.0830
 6697W        W10748  10.029   3.973  12.618  0.1430 -0.0295  0.0715
 6698W        W10749   5.003   5.393  12.440 -0.1515 -0.0795 -0.0262
 6699W        W10750   3.190   0.673   0.436  0.3810 -0.2121 -0.4421
 6700W        W10751   0.304   3.022  11.960 -0.0525 -0.0753 -0.0196
 6701W        W10752   5.997   0.846  11.923  0.0066  0.1657  0.0171
 6702W        W10753   4.252   7.983   3.248  0.0159  0.1589  0.0090
 6703W        W10754   0.223   7.094  12.406 -0.0747  0.0910  0.0755
 6704W        W10755   4.225   2.792   1.606  0.0507  0.3076 -0.3599
 6705W        W10756   1.376   3.659   3.461 -0.5846 -0.0056 -0.0053
 6706W        W10757   4.658   4.131   8.817  0.4528 -0.3000 -0.0642
 6707W        W10758   5.915   0.095   0.274 -0.3043 -0.1272  0.2749
 6708W        W10759   2.100   4.312  10.668 -0.1023  0.0079  0.1526
 6709W        W10760   3.301   2.507   1.769 -0.5091  0.0652 -0.1033
 6710W        W10761   8.420   7.784   9.308  0.1159 -0.0333 -0.2425
 6711W        W10762   9.539   9.526   1.709 -0.1090  0.1333 -0.0112
 6712W        W10763   1.199   3.329  13.504  0.0922 -0.0708  0.2119
 6713W        W10764   9.940   6.905   2.143  0.0867 -0.0536 -0.0292
 6714W        W10765   9.233   3.729   3.213  0.1626 -0.0410  0.0867
 6715W        W10766   0.963   8.232   2.202  0.1547  0.0333  0.0196
 6716W        W10767   2.255   3.216   1.103  0.0256 -0.3600  0.0703
 6717W        W10768   3.723   8.869   9.296  0.1305 -0.1903 -0.0602
 6718W        W10769   0.136   9.915   0.006 -0.1370  0.2222  0.2435
 6719W        W10770   3.508   6.265   1.512 -0.1826 -0.2740  0.0110
 6720W        W10771   2.868   1.552  11.483 -0.1530 -0.5402  0.1314
 6721W        W10772   1.020   1.930  13.729  0.0884  0.0743  0.0302
 6722W        W10773   0.455   0.800  12.332  0.1611 -0.0218 -0.1692
 6723W        W10774   2.388   3.418   0.177  0.1195  0.0836  0.0465
 6724W        W10775   7.931   7.053  13.794  0.0360  0.2447 -0.0524
 6725W        W10776   0.084   7.507   3.635  0.0677 -0.0650 -0.2255
 6726W        W10777   4.032   4.072   3.352 -0.2243  0.1388  0.0327
 6727W        W10778   7.482   7.080   0.036 -0.0700 -0.0494 -0.3220
 6728W        W10779   9.416   5.967   1.026 -0.0102 -0.2252 -0.1947
 6729W        W10780   6.094   6.282   4.835 -0.2120 -0.1518 -0.2088
 6730W        W10781   0.612   1.144   0.039 -0.3813  0.2098  0.0981
 6731W        W10782   8.274   8.018  11.769  0.0614 -0.0203  0.3753
 6732W        W10783   1.216   7.071   9.936  0.0731  0.0261  0.1846
 6733W        W10784   3.132   7.434   1.783  0.4853 -0.1060 -0.2993
 6734W        W10785   3.359   6.437  10.450 -0.1071 -0.1074 -0.0701
 6735W        W10786   6.718   6.560  13.829 -0.0189  0.2002 -0.1349
 6736W        W10787   3.122   1.872   0.080  0.2235  0.1474 -0.0658
 6737W        W10788   1.220   3.436  10.927  0.2229  0.0336 -0.3100
 6738W        W10789   9.858   5.694  11.721 -0.0509  0.0559 -0.0512
 6739W        W10790   7.879   7.225  12.221 -0.0121 -0.0434  0.0437
 6740W        W10791   5.606   8.081  11.937 -0.0375 -0.0389 -0.0155
 6741W        W10792   3.490   5.806   3.999  0.2789  0.0940 -0.0204
 6742W        W10793   2.335   7.394  13.600  0.1820 -0.2058 -0.0570
 6743W        W10794   0.327   2.221  11.152  0.2305  0.0871  0.2595
 6744W        W10795   2.443   3.936  10.536 -0.4179 -0.1057  0.1922
 6745W        W10796   4.333   1.452   0.800 -0.0360 -0.0767  0.0871
 6746W        W10797   2.648   5.659   0.744 -0.1339  0.3203  0.3972
 6747W        W10798   0.516   7.586   0.134 -0.2725  0.0312 -0.2755
 6748W        W10799   0.298   4.849   2.913 -0.0239  0.0947 -0.0729
 6749W        W10800   8.583   8.982   2.851 -0.3007 -0.1370  0.0902
 6750W        W10801   5.881   5.385  11.244 -0.1533 -0.0341 -0.1158
 6751W        W10802   9.780   4.639   2.330 -0.1007  0.1225  0.0644
 6752W        W10803   0.731   3.440   2.657 -0.1458 -0.2738  0.3301
 6753W        W10804   4.832   1.398   3.270 -0.0428  0.2499  0.1666
 6754W        W10805   1.681   0.237  11.438 -0.1380 -0.3501 -0.3747
 6755W        W10806   7.110   4.891   1.176  0.1328  0.2333  0.0904
 6756W        W10807   0.351   2.041   3.082 -0.0845  0.2001 -0.0287
 6757W        W10808   0.919   5.474   2.064  0.0131  0.0475  0.0772
 6758W        W10809   1.793   2.010  11.855  0.0619 -0.2879 -0.1247
 6759W        W10810   2.990   7.497   0.846 -0.1995  0.3690 -0.1260
 6760W        W10811   6.436   6.509   5.151 -0.2537  0.2275 -0.0866
 6761W        W10812   6.689   5.141   1.175  0.2665 -0.4877  0.2751
 6762W        W10813   4.999   5.661   1.842  0.0648  0.1033  0.2012
 6763W        W10814   1.656   2.388   9.407 -0.1494 -0.0657 -0.3014
 6764W        W10815   1.543   4.647  12.527  0.3572  0.0767 -0.2669
 6765W        W10816   7.996   1.793   3.757  0.0388 -0.0544  0.3487
 6766W        W10817   8.139   5.479  12.157 -0.1651  0.3794 -0.1736
 6767W        W10818   2.465   6.462  13.992  0.2003  0.4709 -0.0362
 6768W        W10819   8.355   9.345  11.184  0.0851 -0.1610  0.3174
 6769W        W10820   7.404   0.427   1.198 -0.0052  0.0104 -0.0814
 6770W        W10821   5.815   8.923   1.573 -0.1768  0.2044  0.1831
 6771W        W10822   6.298   0.970   2.933  0.2223 -0.3675 -0.0318
 6772W        W10823   3.436   8.848  11.741 -0.0644 -0.1339 -0.3003
 6773W        W10824   8.092   9.401  10.719  0.5215  0.2207  0.0156
 6774W        W10825   6.500   5.825  10.161 -0.1744  0.1107  0.1720
 6775W        W10826   1.467   8.218  13.387 -0.1825  0.0570 -0.5323
 6776W        W10827   5.556   6.037   9.884  0.0953  0.2076  0.1214
 6777W        W10828  10.005   9.602   1.439  0.0781  0.0162  0.0311
 6778W        W10829   7.370   5.692   4.704  0.1366  0.0412  0.2568
 6779W        W10830   1.385   8.396   1.932  0.1751 -0.1420 -0.0930
 6780W        W10831   2.815   5.075   2.331 -0.3950 -0.1138 -0.2225
 6781W        W10832   0.716   2.784  12.052  0.0608  0.1056 -0.3274
 6782W        W10833   9.956   9.357   0.962 -0.0959 -0.0294 -0.0442
 6783W        W10834   4.091   1.515   0.341 -0.1035 -0.0790  0.2861
 6784W        W10835   3.724   4.047  10.201  0.0435  0.1619 -0.1317
 6785W        W10836   1.267   9.585   2.777 -0.0265  0.0378  0.1961
 6786W        W10837   1.937   8.488  11.844  0.2642  0.1666  0.2019
 6787W        W10838   8.028   5.441   9.811  0.1686 -0.0472 -0.0565
 6788W        W10839   2.989   8.157  12.166 -0.1038 -0.0313 -0.0203
 6789W        W10840   3.322   5.122   5.642  0.2571 -0.0116 -0.0155
 6790W        W10841   1.704   1.183   9.085  0.0806 -0.2073 -0.1025
 6791W        W10842   5.374   7.523  13.131 -0.7621  0.0495  0.0823
 6792W        W10843   8.010   3.822   1.163 -0.0396  0.0586  0.3184
 6793W        W10844   3.955   8.989   9.737  0.1089 -0.0274 -0.0071
 6794W        W10845   7.360   4.934   1.623  0.0409  0.1154 -0.0189
 6795W        W10846   1.648   9.197  10.950  0.1379 -0.3723 -0.0335
 6796W        W10847   3.458   2.590  11.428  0.0787 -0.1290  0.0365
 6797W        W10848   2.594   1.614   3.268  0.0840  0.0933 -0.0659
 6798W        W10849   0.061   4.553  10.080  0.0400 -0.1565  0.0624
 6799W        W10850   2.193   8.203   2.172  0.0309  0.0470 -0.2636
 6800W        W10851   8.822   4.555  10.220  0.1169  0.0357 -0.3840
 6801W        W10852   3.122   8.067  11.496  0.3234  0.1703  0.0730
 6802W        W10853   9.853   2.169   4.524 -0.1296  0.1196 -0.3028
 6803W        W10854   1.101   4.345   2.423  0.1255  0.0190 -0.2492
 6804W        W10855   0.671   1.228   1.803  0.3796 -0.1354 -0.4141
 6805W        W10856   3.829   5.173   2.068  0.0621 -0.1352  0.1085
 6806W        W10857  10.050   5.580  11.126  0.1095 -0.0098 -0.2574
 6807W        W10858   2.290   4.591  13.839 -0.1708 -0.1833  0.2062
 6808W        W10859   2.571   7.784   1.028  0.1188 -0.2566  0.1020
 6809W        W10860   2.445   9.694   9.182 -0.1319 -0.1912 -0.1241
 6810W        W10861   0.038   5.928  11.474 -0.2170  0.2343 -0.2292
 6811W        W10862   2.225   6.648  10.826  0.3788  0.1715  0.1713
 6812W        W10863   4.187   4.294  10.051  0.0121  0.2919 -0.1097
 6813W        W10864   0.397   5.431   0.069 -0.0971  0.2572 -0.3081
 6814W        W10865   8.471   4.299  12.543  0.1271  0.1801  0.0837
 6815W        W10866   9.066   3.381   2.176 -0.4141  0.4190  0.1816
 6816W        W10867   5.610   7.010   3.227 -0.2357  0.0959 -0.3207
 6817W        W10868   1.852   2.230   1.144 -0.0488 -0.0209  0.1009
 6818W        W10869   4.605   3.765   1.862 -0.3375  0.1875  0.0585
 6819W        W10870   0.357   7.124   1.368 -0.2126 -0.1126  0.1001
 6820W        W10871   9.405  10.005   9.927 -0.0441  0.0403 -0.0267
 6821W        W10872   9.257   4.722   3.388  0.3572  0.0698  0.0696
 6822W        W10873   1.989   3.755  13.991 -0.3036  0.1184  0.2110
 6823W        W10874   0.794   2.743   2.448 -0.1141 -0.2579  0.2207
 6824W        W10875   9.282   6.323   2.508 -0.5041  0.0143 -0.0731
 6825W        W10876   7.221   3.058   2.196  0.2900 -0.2131  0.3320
 6826W        W10877   9.882  10.157  13.281 -0.0249 -0.0996  0.0372
 6827W        W10878   0.414   5.134   4.134 -0.0231 -0.0554 -0.0520
 6828W        W10879   8.619   1.354   0.865 -0.0682 -0.1526  0.0830
 6829W        W10880   3.683  10.069   1.706 -0.1920  0.0056  0.2229
 6830W        W10881   1.947   1.468  12.929 -0.1511 -0.1631  0.1463
 6831W        W10882  10.123   8.187  12.299  0.0429  0.0234 -0.1214
 6832W        W10883   1.192   0.991  12.037 -0.0978 -0.1597  0.1834
 6833W        W10884   4.265   2.790  12.946 -0.1837 -0.2486  0.0378
 6834W        W10885   0.412   2.740   9.475 -0.1943 -0.2687  0.1274
 6835W        W10886   3.514   1.762  13.707  0.3620 -0.1885 -0.1096
 6836W        W10887   0.059   7.293   0.953 -0.0779 -0.4938 -0.3123
 6837W        W10888   4.563   2.328   4.722  0.1849 -0.0362 -0.0589
 6838W        W10889   3.067   5.673   1.013  0.1727  0.0562  0.0245
 6839W        W10890   6.125   2.742  10.246  0.1860 -0.1942 -0.1942
 6840W        W10891   2.406   0.358   1.176  0.1824 -0.2503 -0.1021
 6841W        W10892   6.264   2.297   9.854  0.1176 -0.1073  0.0108
 6842W        W10893   2.656   5.600   1.802 -0.0200  0.1274  0.1290
 6843W        W10894   4.062   4.727   1.692  0.2588  0.3630  0.3175
 6844W        W10895   1.328   1.950   1.779 -0.3660  0.0576 -0.1374
 6845W        W10896   9.211   2.926   1.834  0.0322 -0.3600 -0.3326
 6846W        W10897   1.535   9.743  13.415 -0.2952  0.0578 -0.0227
 6847W        W10898   5.010   4.304  10.828  0.0473  0.1954  0.0659
 6848W        W10899   6.610   5.555   0.135  0.1120  0.2311  0.1704
 6849W        W10900   1.060   6.328  13.076  0.1261  0.0890  0.1987
 6850W        W10901   9.820   7.878  13.191  0.2442  0.0232 -0.2891
 6851W        W10902   1.979   6.860   3.102 -0.1326 -0.1600  0.0833
 6852W        W10903   7.248   9.282   9.260  0.3674  0.1581  0.0776
 6853W        W10904   2.451   2.487  11.490 -0.1275 -0.1104 -0.0923
 6854W        W10905   4.865   1.471  13.207  0.2268 -0.1465 -0.1067
 6855W        W10906   5.020   8.735   0.997  0.2047 -0.3129 -0.0951
 6856W        W10907   3.649   3.757   0.220  0.0710  0.1312 -0.3546
 6857W        W10908   9.537   3.755  13.406  0.3399 -0.0216 -0.0105
 6858W        W10909   2.571   6.096   1.732 -0.0640 -0.1576 -0.3291
 6859W        W10910   8.572   3.439   3.080  0.0543 -0.0783 -0.0561
 6860W        W10911   1.527   0.948   5.253  0.1685 -0.3710 -0.0424
 6861W        W10912   6.470   4.889   2.931  0.3451  0.0681 -0.2815
 6862W        W10913   1.144   3.292   1.612 -0.0847  0.3800 -0.2885
 6863W        W10914   0.546   5.309  12.868 -0.0591 -0.0230  0.1518
 6864W        W10915   3.921   5.091  11.434 -0.2254 -0.3343  0.2533
 6865W        W10916   3.653   1.053  13.102  0.2804  0.0377 -0.0998
 6866W        W10917   5.267   3.404  12.000  0.1843 -0.2167  0.0477
 6867W        W10918   9.884   5.428   2.740  0.1993  0.0360 -0.3186
 6868W        W10919   1.270   6.741   0.505  0.2574 -0.3135  0.3600
 6869W        W10920   0.558   7.577  13.050 -0.0780 -0.0161  0.1390
 6870W        W10921   2.411   0.663   9.725  0.0287 -0.0287 -0.0146
 6871W        W10922   7.339   4.691   4.089  0.2310 -0.1492 -0.2740
 6872W        W10923   7.251   6.685  11.958  0.0220  0.1463 -0.1932
 6873W        W10924   0.037   9.180  11.156 -0.0603  0.1536  0.1700
 6874W        W10925   8.486   2.168   3.350  0.1793  0.1461  0.0026
 6875W        W10926   6.996   8.364  11.978 -0.1158 -0.1002 -0.0023
 6876W        W10927   7.802   9.153  11.125  0.0496  0.0783 -0.0254
 6877W        W10928   3.320   7.296   0.476 -0.3052 -0.1196 -0.1078
 6878W        W10929   9.905   3.044   4.019 -0.0398 -0.3322  0.0453
 6879W        W10930   8.226   9.930   1.377  0.2960  0.1329  0.0592
 6880W        W10931   4.004   2.629   3.668  0.2703  0.0488 -0.1135
 6881W        W10932   5.212   1.028   3.156  0.2430 -0.1556 -0.1287
 6882W        W10933   5.636   9.764  11.745  0.3353 -0.1320  0.0105
 6883W        W10934   0.272   3.171  12.882 -0.0803 -0.0301 -0.0313
 6884W        W10935   4.238   2.682  10.881  0.0088  0.2386  0.0552
 6885W        W10936   8.912   5.780   9.526 -0.1435 -0.0913  0.0889
 6886W        W10937   4.016   1.915  12.434  0.0814  0.1455  0.1726
 6887W        W10938   6.321   3.898  13.350  0.1480  0.3358 -0.3294
 6888W        W10939   7.267   6.650  12.476 -0.0256  0.6916  0.0527
 6889W        W10940   5.942   4.659   3.086 -0.0324 -0.2387 -0.0850
 6890W        W10941   9.618   4.177   9.499  0.2038 -0.1417  0.2011
 6891W        W10942   0.284   6.621  13.215  0.2183 -0.1957 -0.5869
 6892W        W10943   3.851   0.436   4.166  0.0567  0.1802  0.0095
 6893W        W10944   1.683   3.539  13.470  0.1413  0.0952  0.0804
 6894W        W10945   3.689   6.486  11.884 -0.0485  0.0916  0.1282
 6895W        W10946   2.029   3.658   2.143  0.1283 -0.0351 -0.1399
 6896W        W10947   4.325   6.585  11.015 -0.0594 -0.4359  0.0706
 6897W        W10948   4.851   1.862   3.564 -0.0526 -0.0245 -0.3136
 6898W        W10949   3.924   8.599   2.443 -0.0539 -0.1550 -0.1401
 6899W        W10950   9.702   6.388  12.072 -0.3872 -0.3083  0.2426
 6900W        W10951   1.734   0.768   4.335 -0.2063 -0.0684 -0.0363
 6901W        W10952   2.534   9.029   4.295  0.0739 -0.1550 -0.2145
 6902W        W10953   7.766   0.777  11.494 -0.0586  0.1908  0.2995
 6903W        W10954   6.253   3.662  12.920  0.2330 -0.2666  0.0090
 6904W        W10955   2.141   9.913  11.216 -0.2723 -0.1599 -0.0654
 6905W        W10956   9.048   8.987  12.456  0.0080 -0.0622  0.0673
 6906W        W10957   3.034   4.484  11.131  0.0507 -0.1353 -0.4414
 6907W        W10958   7.843   0.663   2.166 -0.0697  0.0276  0.2969
 6908W        W10959   8.627   3.758   9.675  0.0037  0.0230 -0.1282
 6909W        W10960   9.167   2.293  11.131  0.3098  0.1648 -0.0950
 6910W        W10961   1.959   4.362   9.774 -0.1013  0.3290  0.0673
 6911W        W10962   5.559   6.422   4.921  0.2902 -0.1335 -0.0280
 6912W        W10963   2.236   0.969   4.090 -0.4067 -0.1126 -0.1270
 6913W        W10964   9.034   5.681   1.128  0.0906 -0.0093  0.2583
 6914W        W10965   4.478   8.357  10.211 -0.4917  0.1064  0.1409
 6915W        W10966   2.016   9.828   0.371  0.2629  0.2809 -0.0019
 6916W        W10967   2.950   5.018   3.331 -0.1951  0.0732  0.2917
 6917W        W10968   4.257   2.891   2.234  0.3405 -0.0940 -0.2817
 6918W        W10969   3.998   0.104  12.805  0.0548  0.4102  0.3713
 6919W        W10970   3.912   0.361   8.934 -0.1672  0.2769 -0.0553
 6920W        W10971   2.441   6.071   0.503  0.1800  0.1792 -0.1411
 6921W        W10972   1.979   3.761  11.653  0.0044  0.0384  0.3256
 6922W        W10973   8.429   5.211   9.639  0.3344 -0.2215 -0.0509
 6923W        W10974   7.071   7.060   4.221  0.1536  0.1663  0.1825
 6924W        W10975   9.646   9.275  10.342 -0.0252  0.0514  0.4863
 6925W        W10976   3.898   9.672   0.967  0.2234  0.0915  0.1462
 6926W        W10977   3.810   6.902  11.613  0.1102 -0.1277 -0.2218
 6927W        W10978   9.374   1.711  12.936  0.1708 -0.2276  0.0448
 6928W        W10979   1.755   2.788   5.231 -0.2308 -0.0238 -0.1145
 6929W        W10980   1.835   9.737  12.833  0.1936 -0.0167  0.1654
 6930W        W10981   2.350   4.591   0.403  0.1259  0.2192 -0.0744
 6931W        W10982   9.949   7.849   0.479  0.0183 -0.1552 -0.3113
 6932W        W10983   2.156   0.264   5.619  0.1072 -0.2446  0.1670
 6933W        W10984   9.661   7.416  11.925  0.0311 -0.3271 -0.1171
 6934W        W10985   3.607   2.134   4.062  0.1101  0.0450 -0.1236
 6935W        W10986   8.543   3.869   3.399 -0.1464  0.2127 -0.1800
 6936W        W10987  10.034   4.476   1.046 -0.3486  0.1806 -0.2074
 6937W        W10988   3.143   8.169  10.975  0.1952  0.0192 -0.0596
 6938W        W10989   4.886   2.702   3.561  0.0011 -0.3551  0.0338
 6939W        W10990   5.192   6.899   2.874 -0.1775  0.1584  0.0375
 6940W        W10991   7.778   8.267  11.850 -0.3027  0.0887  0.2099
 6941W        W10992   3.263   3.979   0.493 -0.0835  0.0671  0.2061
 6942W        W10993   8.220   4.731   2.733  0.2531  0.1879 -0.1067
 6943W        W10994   4.441   7.943   4.508 -0.0639 -0.0963 -0.2284
 6944W        W10995   2.927   6.747   0.018 -0.1413  0.0462  0.1608
 6945W        W10996   5.415   9.846   3.006  0.1081 -0.2388  0.1013
 6946W        W10997   8.339   6.514  10.754  0.0006 -0.0689  0.1611
 6947W        W10998   2.551   5.106  13.701 -0.4131 -0.0579  0.2392
 6948W        W10999   0.130   3.936  11.812 -0.1702 -0.1089  0.0177
 6949W        W11000   3.676   3.786   0.724  0.3896  0.4302 -0.1728
 6950W        W11001   5.367   7.167  11.834  0.1625 -0.2758 -0.0040
 6951W        W11002   2.777   8.745  12.762 -0.1507  0.0693 -0.2234
 6952W        W11003   8.397   8.823   1.860 -0.1037  0.2343 -0.2428
 6953W        W11004   8.357   2.725   2.335  0.3600  0.3268 -0.1274
 6954W        W11005   1.445   8.206   0.238  0.1091  0.1656  0.2081
 6955W        W11006   6.822   0.726   1.152 -0.1643  0.1881  0.3747
 6956W        W11007   0.550  10.133   1.987  0.0355 -0.0269 -0.1551
 6957W        W11008   0.320   2.780   0.988 -0.1360  0.1385  0.5317
 6958W        W11009   7.178   8.439   4.155  0.5048  0.0526 -0.0881
 6959W        W11010   0.390   4.880  12.548 -0.0541 -0.2027  0.2491
 6960W        W11011   1.086  10.029   2.938  0.2844 -0.1855 -0.0496
 6961W        W11012   3.558   7.133   1.697  0.0101  0.0692  0.0005
 6962W        W11013   5.647   1.788  12.192  0.0732 -0.0290  0.3753
 6963W        W11014  10.043   4.942   4.497 -0.1574  0.1722  0.0207
 6964W        W11015   8.758   0.911  10.267  0.2532 -0.1703  0.4263
 6965W        W11016   6.167   5.702  10.972 -0.2618  0.0958  0.0108
 6966W        W11017   1.118   1.137  13.837  0.0800  0.5550  0.0943
 6967W        W11018   5.306   4.187   3.208 -0.3853 -0.1284  0.1493
 6968W        W11019   5.021   5.616   0.663  0.1750  0.0555 -0.1033
 6969W        W11020   6.223   0.077   3.229  0.3421 -0.1994 -0.1660
 6970W        W11021   0.463   4.465   9.656  0.0920  0.0540  0.0167
 6971W        W11022   4.341   3.592   9.511 -0.2891 -0.0437  0.0747
 6972W        W11023   5.947   3.305   9.563 -0.0687 -0.0185  0.1020
 6973W        W11024   9.923   0.713   4.683 -0.2472 -0.0820  0.0276
 6974W        W11025   8.054   8.249   2.719 -0.0199 -0.2435 -0.3020
 6975W        W11026   0.751   2.997   9.788  0.1822 -0.0175 -0.0754
 6976W        W11027   4.899   2.255   0.485  0.1657  0.1082  0.1898
 6977W        W11028   2.894   4.582   4.206 -0.0064  0.1015 -0.2296
 6978W        W11029   5.342   4.754   3.289  0.0418 -0.2204  0.0274
 6979W        W11030   7.583   7.322   4.037 -0.1041  0.1357 -0.1293
 6980W        W11031   6.140   2.146  10.394  0.0221 -0.2076  0.1170
 6981W        W11032   8.218   3.159   1.929  0.2585 -0.0748 -0.0752
 6982W        W11033   0.705   0.030   2.656 -0.0577  0.0320 -0.2328
 6983W        W11034   1.559   1.519   3.717  0.0523 -0.4569  0.0286
 6984W        W11035   0.664   4.888   9.123 -0.3746  0.2926 -0.0789
 6985W        W11036   1.068   3.837   3.805  0.1044 -0.0669  0.1328
 6986W        W11037   4.667   5.378   3.232  0.3554  0.2291 -0.0040
 6987W        W11038   2.425   7.517   4.960 -0.3942 -0.1155  0.3438
 6988W        W11039   1.776   1.595   3.034  0.1921  0.0274 -0.1234
 6989W        W11040   6.635   4.702   4.280 -0.0587  0.0024  0.2455
 6990W        W11041   6.509   9.500   0.831  0.3003  0.0683 -0.2268
 6991W        W11042   1.790   2.203  13.098 -0.2240 -0.1772  0.3171
 6992W        W11043   8.399   5.344  12.526  0.0659  0.4368 -0.2238
 6993W        W11044   4.982   5.110  11.444 -0.1656  0.0021  0.0083
 6994W        W11045   9.030   8.136  13.423 -0.1304 -0.0923 -0.0383
 6995W        W11046   6.495   3.997  11.149 -0.0639  0.1125 -0.1758
 6996W        W11047   5.270   2.053   2.371 -0.1061  0.1029 -0.0066
 6997W        W11048   9.184   2.159  12.842 -0.2704  0.0859  0.3170
 6998W        W11049   5.619   9.696  10.114  0.3609  0.0609  0.1243
 6999W        W11050   7.079   3.079  13.220  0.2384  0.1457 -0.0769
 7000W        W11051   7.722   5.322   0.693 -0.1438  0.3274  0.1383
 7001W        W11052   6.594   0.395  11.182  0.0658  0.1168 -0.0200
 7002W        W11053   0.658   7.378  10.693  0.2501 -0.5980 -0.3481
 7003W        W11054   2.905   6.991  12.120 -0.0930  0.0784  0.2345
 7004W        W11055   3.338   0.668  13.397 -0.1402  0.3591 -0.2694
 7005W        W11056   2.481   3.436   3.027  0.3262 -0.1110 -0.3097
 7006W        W11057   1.583   5.910  10.061 -0.0121 -0.2508 -0.0817
 7007W        W11058   4.225   9.308  12.666  0.1428 -0.0855 -0.2192
 7008W        W11059   3.691   9.286   3.933  0.0425 -0.0768  0.0287
 7009W        W11060   1.581   4.845  11.805 -0.2117  0.2287  0.4459
 7010W        W11061   8.804   0.395   1.137  0.0317 -0.2384 -0.0354
 7011W        W11062   2.431   4.269   0.915  0.3228  0.1986  0.1061
 7012W        W11063   5.428   4.027   2.215 -0.1808 -0.0083  0.1774
 7013W        W11064   0.952   0.246  13.544  0.1317  0.2107  0.0806
 7014W        W11065   3.452   8.175  12.338 -0.0929 -0.1742 -0.1323
 7015W        W11066   9.278   5.290  10.145  0.1774 -0.0738  0.0284
 7016W        W11067   3.070   0.411  12.940  0.4206  0.1896 -0.2094
 7017W        W11068   9.533   8.769   2.294  0.1434 -0.1732 -0.3076
 7018W        W11069   1.398   2.130  12.201  0.2975 -0.0396  0.1875
 7019W        W11070   8.991   2.748   4.721  0.1035  0.1486 -0.0804
 7020W        W11071  10.014   8.370  11.060  0.0245 -0.0962 -0.1272
 7021W        W11072   5.927   5.744   0.727  0.0316 -0.2716 -0.0517
 7022W        W11073   7.440   1.662  12.637 -0.0371 -0.3878  0.1359
 7023W        W11074   6.938   2.801   3.267  0.1479  0.1156  0.0569
 7024W        W11075   4.440   4.559   8.667 -0.1002 -0.3028 -0.0388
 7025W        W11076   6.128   8.975   0.551 -0.0171 -0.1907  0.2528
 7026W        W11077   8.664   3.465   3.632 -0.1082  0.1349  0.1259
 7027W        W11078   6.982   3.366  12.767 -0.2610 -0.1654  0.0226
 7028W        W11079   1.419   4.147   3.597 -0.1560 -0.0356 -0.1653
 7029W        W11080   1.953   1.571   3.985 -0.0163 -0.0820 -0.1152
 7030W        W11081   1.611   9.742   1.961  0.0678  0.0204  0.1209
 7031W        W11082   5.656   4.721  13.997 -0.2160 -0.2449 -0.2632
 7032W        W11083   7.566   3.295  11.970  0.0106  0.0686  0.1171
 7033W        W11084   7.460   3.715   5.544 -0.1051  0.1875 -0.1874
 7034W        W11085   9.371   3.792   2.096  0.0909  0.0848 -0.1070
 7035W        W11086   4.155   7.521  13.904 -0.0756 -0.0733  0.2996
 7036W        W11087   4.253   0.615   9.829  0.0513 -0.2358  0.4263
 7037W        W11088   5.185   0.444   0.769 -0.2485 -0.0202  0.0062
 7038W        W11089   6.735   4.414   9.297 -0.2913  0.0440  0.1156
 7039W        W11090   5.285   0.607   0.281 -0.2923  0.0180 -0.0903
 7040W        W11091   5.044   4.671   3.768 -0.2865 -0.0318 -0.3562
 7041W        W11092   7.468   2.352   0.955  0.1263 -0.3040  0.1249
 7042W        W11093   1.642   6.270   0.069  0.0984 -0.0555  0.2885
 7043W        W11094   4.238   0.465  11.252 -0.0207 -0.1598  0.0457
 7044W        W11095   4.461   7.784   1.211  0.2101  0.0625  0.3045
 7045W        W11096   1.120   2.710  13.728 -0.0293 -0.2662 -0.0663
 7046W        W11097   8.648   2.936   4.366  0.2062  0.1776  0.0234
 7047W        W11098   4.132   7.344  12.362 -0.2826  0.0547  0.1457
 7048W        W11099   7.971   0.945   3.620  0.2264 -0.3562 -0.1118
 7049W        W11100   3.306   0.815  11.371  0.2325 -0.0478 -0.0908
 7050W        W11101   2.364   8.625  11.036  0.1891  0.0983 -0.1897
 7051W        W11102   7.182   9.467   1.311 -0.2221 -0.1159  0.1518
 7052W        W11103   3.987   0.072  10.447 -0.1538  0.0485 -0.1000
 7053W        W11104   8.788   4.222   9.809  0.0220 -0.2432  0.0299
 7054W        W11105   5.554   8.525   0.885 -0.0099  0.2466  0.5536
 7055W        W11106   1.225   6.717   2.105  0.1743 -0.1642  0.2415
 7056W        W11107   1.687   9.343  12.620  0.0544 -0.1819 -0.0876
 7057W        W11108   4.926   2.737   0.367  0.0726 -0.0052  0.2565
 7058W        W11109   8.083   1.558   0.972 -0.2765 -0.1282 -0.2239
 7059W        W11110   8.346   0.436   0.834 -0.2039  0.0536  0.0873
 7060W        W11111   0.102   6.535   2.244  0.0013  0.3588  0.0648
 7061W        W11112   1.774   5.323   0.373  0.0365  0.0156 -0.5131
 7062W        W11113   1.631   2.315   1.650  0.1561 -0.2933  0.1255
 7063W        W11114   4.440   2.127   3.008 -0.0766 -0.3507 -0.2362
 7064W        W11115   3.548   6.069  11.556  0.0474 -0.3595  0.0827
 7065W        W11116   9.952   2.416  13.423  0.1812 -0.1453 -0.1008
 7066W        W11117   3.219   3.094   4.240 -0.1322  0.1463 -0.1172
 7067W        W11118   3.223   2.648   4.568  0.1363 -0.3021  0.0634
 7068W        W11119   9.026   3.913   4.754  0.0294  0.1018 -0.0859
 7069W        W11120   9.141   1.680   3.401  0.0449  0.3564  0.2453
 7070W        W11121   4.402   1.028   2.829 -0.0964  0.0318 -0.2224
 7071W        W11122   6.896   6.239  11.071 -0.0502  0.1500 -0.1155
 7072W        W11123   1.947   3.563  13.018  0.0924  0.1152 -0.0697
 7073W        W11124   1.823   5.882  12.965 -0.0759  0.2030 -0.1849
 7074W        W11125   7.427   0.032   1.590  0.1345  0.2206  0.0171
 7075W        W11126   8.055   1.922  11.370 -0.1902 -0.0178  0.0166
 7076W        W11127   4.027   4.110   4.615  0.2642  0.2639  0.2280
 7077W        W11128   9.509   7.312  13.519  0.1773 -0.2137  0.1789
 7078W        W11129   5.205   6.279   0.757 -0.1839  0.6114  0.0432
 7079W        W11130   7.180   1.881   0.363  0.3030  0.1791 -0.0016
 7080W        W11131   1.503   9.020   2.209 -0.2858  0.0347  0.0877
 7081W        W11132   1.142   3.134   0.072 -0.0930  0.1565 -0.1345
 7082W        W11133   7.587   3.640   9.201 -0.3382 -0.1023  0.0617
 7083W        W11134   6.397   3.323   0.681  0.2447 -0.2118 -0.0936
 7084W        W11135   7.990   5.038  11.966 -0.3163  0.0964  0.0952
 7085W        W11136   9.725   0.310  13.588  0.0488  0.0978  0.1381
 7086W        W11137   7.318   3.890   0.843 -0.1218  0.4729  0.5043
 7087W        W11138   7.971   4.071  11.972 -0.1011 -0.0255  0.1589
 7088W        W11139   1.245   4.133   1.327 -0.0201  0.1737  0.1157
 7089W        W11140   2.672   7.188  11.610 -0.2529  0.2600  0.1393
 7090W        W11141   3.263   3.726  12.181  0.2572  0.0914 -0.2479
 7091W        W11142   3.640   1.241   3.901 -0.1513 -0.3131  0.3162
 7092W        W11143   5.498   9.051   3.265  0.1950 -0.0612 -0.1209
 7093W        W11144   0.803   5.189  11.280  0.3105 -0.1328 -0.1662
 7094W        W11145   9.306   4.956   3.819  0.0043  0.2958  0.0205
 7095W        W11146   1.849   5.820   0.668 -0.0052  0.3161  0.0312
 7096W        W11147   5.653   4.756  10.428 -0.1937 -0.3415 -0.1294
 7097W        W11148   4.870   1.882   3.044  0.0002 -0.0904 -0.0958
 7098W        W11149   4.540   9.573  11.094  0.2795  0.0998 -0.0902
 7099W        W11150   4.718   0.539  10.390 -0.0256 -0.0031  0.0572
 7100W        W11151   3.137   3.934   3.597  0.0354 -0.0748  0.0936
 7101W        W11152   9.093   0.970  11.150 -0.0145 -0.1788  0.2893
 7102W        W11153   0.709   4.691   3.229  0.1050  0.2065 -0.0884
 7103W        W11154   4.278   4.138   2.860  0.2009  0.0144  0.3372
 7104W        W11155  10.137   1.040   3.056  0.1006 -0.1967 -0.3086
 7105W        W11156   7.030   2.150   2.403  0.0382  0.2146  0.0865
 7106W        W11157   5.220   3.420  13.692  0.1245 -0.0593  0.0147
 7107W        W11158   7.150   0.002   3.084 -0.0144  0.0033 -0.0202
 7108W        W11159   0.856   8.258  10.906 -0.0689  0.0138 -0.0609
 7109W        W11160   1.645   5.475   1.680 -0.2852 -0.2030 -0.0555
 7110W        W11161   8.262   7.317   0.068  0.3092  0.0487  0.2854
 7111W        W11162   1.947   0.556   9.750 -0.2278  0.0335  0.1322
 7112W        W11163   8.205   1.410  11.356 -0.1001  0.2744 -0.0673
 7113W        W11164   1.863   7.986  13.044 -0.0706 -0.0870  0.0734
 7114W        W11165   2.965   9.899  10.536  0.2239 -0.1783 -0.2504
 7115W        W11166   0.564   1.827   3.449 -0.1870 -0.1162  0.1767
 7116W        W11167   8.116   9.519  13.957  0.5026  0.1646  0.2343
 7117W        W11168   1.441   4.463   2.883  0.2269  0.0315  0.4451
 7118W        W11169   9.269   8.115  10.007  0.0112  0.0003  0.2274
 7119W        W11170   3.311   9.694  10.165  0.0417  0.3543 -0.0303
 7120W        W11171   7.247   4.219   0.449 -0.1346  0.1391 -0.0438
 7121W        W11172   3.214   8.561   0.109 -0.0122  0.0565 -0.0916
 7122W        W11173   8.261   2.968   9.815 -0.2041 -0.6721 -0.1023
 7123W        W11174   4.281   8.662  11.339 -0.0050 -0.2870 -0.1709
 7124W        W11175   2.007   2.275   5.133 -0.0767 -0.1867 -0.2150
 7125W        W11176   4.413   1.836  11.893 -0.0631  0.2077  0.1226
 7126W        W11177   3.181   0.048  11.808  0.0660  0.1906 -0.1004
 7127W        W11178   8.976   8.897   1.331  0.0789 -0.0023 -0.0861
 7128W        W11179   5.544   6.250  12.349 -0.1793 -0.0221  0.0839
 7129W        W11180   9.160   7.699  11.942 -0.1538 -0.1327  0.1814
 7130W        W11181   2.526   6.879   4.210  0.3247  0.1456 -0.0305
 7131W        W11182   5.757   0.902   0.209  0.4352 -0.0952 -0.1514
 7132W        W11183   0.759   5.713   4.463 -0.3304  0.1192  0.0906
 7133W        W11184   9.274   5.941   3.774 -0.3462 -0.0306 -0.0470
 7134W        W11185   3.393   4.977   4.818 -0.1311 -0.1052  0.1030
 7135W        W11186   4.239   3.910   1.532  0.1786 -0.2351 -0.1361
 7136W        W11187   6.204   3.968  13.835  0.1317 -0.0353  0.0978
 7137W        W11188   7.453   3.210   9.555 -0.0079  0.0916  0.2653
 7138W        W11189   3.746   2.127   1.332  0.0126 -0.1394  0.1200
 7139W        W11190   5.732   6.174   4.512 -0.0037  0.1045 -0.1479
 7140W        W11191   3.965   3.241   9.576 -0.0611  0.0879  0.0747
 7141W        W11192   8.575   8.942  12.057  0.3097  0.0517 -0.0937
 7142W        W11193   6.086   7.723   3.707 -0.1758 -0.1728 -0.2238
 7143W        W11194   6.282   8.300  13.891 -0.2277  0.1146 -0.1757
 7144W        W11195   9.697  10.125   4.386 -0.2111 -0.0704  0.0001
 7145W        W11196   4.598   9.071  12.224  0.1266 -0.1528 -0.1754
 7146W        W11197   5.314   4.284   1.799 -0.0811  0.0884  0.1950
 7147W        W11198   3.792   3.806  12.106 -0.0445  0.0642 -0.0575
 7148W        W11199   0.475   9.924  10.725  0.0941 -0.2840 -0.0614
 7149W        W11200   4.128   1.139   3.798  0.4505 -0.2203 -0.1222
 7150W        W11201   9.708   4.794  13.265  0.2115 -0.1938 -0.1252
 7151W        W11202   6.895   3.207  10.743 -0.0071 -0.1754 -0.0766
 7152W        W11203   8.226   6.231   0.032 -0.0942  0.0180 -0.0397
 7153W        W11204   9.271   8.579  13.255 -0.2932  0.0359  0.1137
 7154W        W11205   5.989   3.539   4.652  0.1002  0.1156  0.1708
 7155W        W11206   6.799   7.446   0.151 -0.1721 -0.0891  0.2008
 7156W        W11207   4.426   3.844   0.107  0.0569 -0.2414  0.3393
 7157W        W11208   6.364   0.219  12.484  0.0697  0.0856 -0.1772
 7158W        W11209   4.430   1.871   4.499  0.2341  0.0031  0.0655
 7159W        W11210   3.461   8.069   0.173  0.1046  0.0019 -0.2327
 7160W        W11211   4.045   3.698   2.789  0.1033 -0.0017  0.0090
 7161W        W11212   7.566   4.346   5.016  0.2108 -0.0043 -0.0895
 7162W        W11213   3.406   1.100   0.370  0.0377  0.0734 -0.2007
 7163W        W11214   5.338   2.133   2.937  0.0704 -0.0906  0.2318
 7164W        W11215   0.153   3.358   2.145  0.0654  0.0017  0.0660
 7165W        W11216   6.352   6.270  13.559  0.5460  0.0237  0.1342
 7166W        W11217   9.059   3.800   8.777 -0.0424  0.3182 -0.2458
 7167W        W11218   5.879   9.364   0.337 -0.0628 -0.2673  0.0670
 7168W        W11219   2.937   5.850   2.779  0.2699 -0.2448  0.3536
 7169W        W11220   1.274   8.170  12.380 -0.0067 -0.2569 -0.0658
 7170W        W11221   4.170   0.020   9.986 -0.1461 -0.0574 -0.2394
 7171W        W11222   9.447   8.070   0.817  0.2445 -0.2371 -0.0989
 7172W        W11223   5.493   6.894  10.341 -0.0560 -0.3032  0.0228
 7173W        W11224   6.351   1.192  11.932  0.0115 -0.3014 -0.4559
 7174W        W11225   1.944   7.925   3.339 -0.2329 -0.0229  0.1488
 7175W        W11226   4.979   6.046  13.865  0.1381  0.6455  0.0379
 7176W        W11227   4.524   3.522   3.135  0.3123  0.1217  0.2603
 7177W        W11228   1.946   9.338  10.548  0.0625 -0.3393  0.0003
 7178W        W11229   1.074   8.227  13.818  0.0353  0.0620 -0.2291
 7179W        W11230   1.908   0.414  12.958 -0.0860 -0.1331  0.0950
 7180W        W11231   7.780   5.251  10.666 -0.0135  0.3245 -0.0087
 7181W        W11232   2.030   3.156   4.862 -0.0770  0.3703 -0.2845
 7182W        W11233   3.560   8.470   2.086 -0.1039 -0.0117  0.0047
 7183W        W11234   1.340   9.290  10.228  0.5108  0.2335  0.1455
 7184W        W11235   8.488   6.217  12.657  0.2652  0.2849 -0.2627
 7185W        W11236   9.361   8.822   3.029 -0.2873  0.2231 -0.2086
 7186W        W11237   1.537   9.783   1.150 -0.1388  0.2870 -0.0772
 7187W        W11238   6.775   6.695   1.681 -0.0957 -0.1378 -0.0076
 7188W        W11239   0.268   7.293   2.784 -0.0712 -0.0650 -0.1058
 7189W        W11240   8.937   2.999   2.653  0.1264 -0.3376 -0.1417
 7190W        W11241   0.282   0.119   3.383 -0.0835 -0.1698  0.0126
 7191W        W11242   5.292   0.637   8.952 -0.3630  0.1742  0.0878
 7192W        W11243   5.668   8.551   2.185  0.0353  0.0396 -0.0770
 7193W        W11244   4.036   2.035  13.407 -0.0506 -0.0896  0.1700
 7194W        W11245   2.355   0.729   5.525 -0.1274 -0.2700 -0.0604
 7195W        W11246   6.950   4.051  12.584  0.0686 -0.0501  0.2242
 7196W        W11247   1.843   6.725   1.591  0.0487  0.0502  0.2657
 7197W        W11248   5.862   6.667  12.596  0.2839  0.0495 -0.0215
 7198W        W11249   6.331   7.528   2.751  0.3177 -0.3768 -0.0223
 7199W        W11250   5.307   2.607   2.439 -0.1093  0.1766  0.1571
 7200W        W11251   8.194   3.781  11.075 -0.3919 -0.2247 -0.2957
 7201W        W11252   4.105   8.109   4.194  0.0336  0.1137 -0.2026
 7202W        W11253   2.477   8.964   2.446  0.0467  0.1178 -0.0761
 7203W        W11254   0.947   7.924   3.162  0.2760 -0.0633  0.1336
 7204W        W11255   1.111   1.045   8.833 -0.3153 -0.0770 -0.2327
 7205W        W11256   3.948   5.538  10.314  0.1857  0.0146 -0.1632
 7206W        W11257   9.299   9.062  10.674 -0.0358  0.1282  0.2729
 7207W        W11258   5.629   2.495  12.757 -0.2574 -0.3237 -0.2764
 7208W        W11259   4.629   1.451   1.804 -0.0351  0.0078 -0.0232
 7209W        W11260   1.144   0.868   4.259  0.1868 -0.0734  0.1278
 7210W        W11261   9.561   4.837  11.762 -0.0450  0.1669  0.2680
 7211W        W11262   9.760   1.773   0.538  0.1803 -0.1602  0.1941
 7212W        W11263   3.011   8.052  13.912  0.1254 -0.0851  0.0308
 7213W        W11264   4.989   9.254  10.466 -0.0113 -0.1283  0.0392
 7214W        W11265   0.172   5.235   2.610 -0.2630 -0.0748 -0.1301
 7215W        W11266   9.573   1.945   2.247  0.3354 -0.1824 -0.1176
 7216W        W11267   1.149   3.714  10.501 -0.1375 -0.2351  0.4418
 7217W        W11268   5.133   5.127   3.568 -0.0554 -0.0024 -0.1493
 7218W        W11269   2.632   6.308  10.504  0.2236  0.1069  0.0120
 7219W        W11270   1.204   1.788  10.005 -0.2188 -0.0151  0.0080
 7220W        W11271   9.375   2.112   9.591  0.3423 -0.1040 -0.2416
 7221W        W11272   6.571   3.788  10.147 -0.1216  0.0556  0.0028
 7222W        W11273   1.354   7.948   3.559 -0.0273 -0.1909  0.1701
 7223W        W11274   1.364   4.015   3.097  0.2727 -0.0059  0.1217
 7224W        W11275   2.436   5.295   2.092 -0.0741  0.0025 -0.1152
 7225W        W11276   3.641   1.488   0.085 -0.1993 -0.1331  0.1154
 7226W        W11277   1.236   2.580  10.686  0.0615  0.1510 -0.1343
 7227W        W11278   8.384   4.495   9.884  0.1567 -0.1557 -0.1890
 7228W        W11279   7.285   5.974   5.138  0.0103  0.3592  0.1238
 7229W        W11280   4.273   2.630   3.220  0.4755  0.0594  0.0048
 7230W        W11281   1.020   4.093  11.644 -0.0191  0.0344 -0.1154
 7231W        W11282   2.317   3.931   0.536 -0.2994 -0.0639  0.0245
 7232W        W11283   1.851   0.006   3.367 -0.0795 -0.2881  0.2742
 7233W        W11284   1.113   5.483  11.537 -0.3058 -0.0013 -0.2698
 7234W        W11285   7.498   7.556  11.288  0.1146 -0.0273  0.0792
 7235W        W11286   0.802   6.981   1.861  0.2445 -0.0402 -0.1289
 7236W        W11287   1.929  10.130   2.017  0.0599 -0.4920  0.2508
 7237W        W11288   1.617   8.863   3.295 -0.1407  0.1532  0.1679
 7238W        W11289   6.350   0.259   3.667  0.1600 -0.2016 -0.1395
 7239W        W11290   7.029   9.647  10.434  0.0799  0.1796  0.0722
 7240W        W11291   3.523   6.347   0.319 -0.1318 -0.2035 -0.0363
 7241W        W11292   7.998   8.693  13.660 -0.1002  0.2676 -0.1529
 7242W        W11293   8.653   8.860   0.527 -0.0124 -0.3760  0.0497
 7243W        W11294  10.104   7.576  12.140 -0.2473 -0.5710 -0.2372
 7244W        W11295   8.285   8.403  13.307 -0.6122  0.2008 -0.0490
 7245W        W11296   4.199   5.841   0.915 -0.5519  0.1244 -0.1216
 7246W        W11297   4.386   7.486  12.910  0.0057  0.0451 -0.0275
 7247W        W11298   6.040   1.981   1.722 -0.2252 -0.1355 -0.0386
 7248W        W11299   7.430   3.060   4.462 -0.0405  0.2370 -0.1979
 7249W        W11300   0.555   7.286   0.745  0.0342 -0.0576 -0.1299
 7250W        W11301   4.513   2.585  10.370 -0.1428 -0.1344 -0.1311
 7251W        W11302   5.838   2.094  11.776 -0.2096 -0.1950 -0.0693
 7252W        W11303   8.527   7.626  12.615  0.0574 -0.2670  0.1477
 7253W        W11304   1.888   0.723   0.522 -0.0589  0.0985 -0.0622
 7254W        W11305   7.096   3.922   3.461 -0.0712  0.1526  0.1018
 7255W        W11306   3.318   1.423   1.831  0.0420 -0.0359  0.1128
 7256W        W11307   5.848   3.676   9.869  0.1851 -0.1314 -0.0378
 7257W        W11308   4.720   2.575  11.711 -0.2112  0.1672 -0.3683
 7258W        W11309   4.643   1.082  11.438 -0.1897 -0.0069  0.1265
 7259W        W11310   2.445   8.618   9.577 -0.1661 -0.1556  0.1247
 7260W        W11311   7.557   3.732   1.757 -0.2315 -0.0777  0.1001
 7261W        W11312   3.152   1.049  11.810  0.2109  0.3048 -0.1761
 7262W        W11313   4.759   6.626   9.270 -0.2200  0.2901 -0.1678
 7263W        W11314   9.346   7.684  13.264 -0.2336  0.0034  0.0707
 7264W        W11315   8.036   3.549  12.006 -0.0008 -0.0579  0.2500
 7265W        W11316   7.993   8.148  11.309  0.0587 -0.0593  0.1826
 7266W        W11317   4.411  10.012   3.549 -0.1833 -0.0573 -0.0780
 7267W        W11318   7.327   4.177  13.142  0.1773  0.0014 -0.0724
 7268W        W11319   9.801   9.788   3.859 -0.0995 -0.1251  0.1056
 7269W        W11320   7.866   4.989  12.578  0.2877  0.2820 -0.0363
 7270W        W11321   7.514   8.684  10.197 -0.1058  0.0564  0.1256
 7271W        W11322   5.834   9.145  13.535 -0.2442  0.0135 -0.0267
 7272W        W11323   6.424   5.013   3.981  0.1919  0.0490 -0.2024
 7273W        W11324   1.077   4.304  10.872 -0.0617 -0.1250 -0.1779
 7274W        W11325   4.582   2.261   1.007 -0.1017  0.0700 -0.0199
 7275W        W11326   6.174   8.814   2.399 -0.3792  0.1958 -0.0286
 7276W        W11327   1.623   3.496  12.099  0.1793  0.0514  0.3723
 7277W        W11328   7.148   2.063   3.730  0.0912  0.1052  0.2253
 7278W        W11329   4.943   4.668   1.401 -0.0414 -0.1276  0.0808
 7279W        W11330   0.854   7.851   3.713  0.1734 -0.1163 -0.1707
 7280W        W11331   2.514   6.954  13.871 -0.0701 -0.0999 -0.0386
 7281W        W11332   6.667   8.416   9.537 -0.2763  0.0405  0.2886
 7282W        W11333   4.123   8.911  13.241  0.1738 -0.0145  0.1590
 7283W        W11334   7.235   1.010   0.909 -0.3081  0.0901 -0.0801
 7284W        W11335   0.525   5.373  12.363  0.1858 -0.1513 -0.2621
 7285W        W11336   1.577   3.334   4.492 -0.2097  0.5112 -0.1744
 7286W        W11337   3.468  10.155   2.578  0.0809  0.1210 -0.3144
 7287W        W11338   1.751   8.343   0.609  0.0299  0.0938 -0.2804
 7288W        W11339   2.552   6.445   1.380  0.1386  0.1573 -0.2743
 7289W        W11340   6.997   6.540   0.467  0.0012 -0.2299 -0.1166
 7290W        W11341   4.852   5.376  14.000 -0.0789  0.1973  0.2180
 7291W        W11342   8.221   8.437  12.289 -0.0792 -0.1273  0.1039
 7292W        W11343   2.055   3.498   0.718  0.2112 -0.0800 -0.1738
 7293W        W11344   6.861   6.132   0.077 -0.1204  0.2666  0.1744
 7294W        W11345   8.073   3.170  11.681  0.1887 -0.0795  0.1742
 7295W        W11346   3.335   2.998  11.073 -0.1625 -0.0200 -0.1010
 7296W        W11347   8.373   2.789   5.245 -0.0559  0.0097 -0.2116
 7297W        W11348   7.933   6.594   2.976 -0.0635 -0.2163 -0.0992
 7298W        W11349   1.531   0.208  12.463 -0.1526 -0.2158  0.3707
 7299W        W11350   1.631   6.348  11.242 -0.1098 -0.1953  0.1397
 7300W        W11351   2.962   4.284   0.036  0.0439 -0.0086 -0.2576
 7301W        W11352   3.931   9.690  13.520  0.2338  0.0566  0.1265
 7302W        W11353   4.593   9.048   0.979  0.0281 -0.0659 -0.0145
 7303W        W11354   9.517   5.709  10.223 -0.1256  0.1241 -0.0289
 7304W        W11355   8.077   7.085   1.321  0.1536 -0.0580  0.0326
 7305W        W11356   0.035   3.217  12.312 -0.2483  0.0668  0.2174
 7306W        W11357   2.760   9.231   3.498  0.2028 -0.0085 -0.2546
 7307W        W11358   2.992   5.694   0.289  0.2182  0.2097  0.1375
 7308W        W11359   3.324   5.912  13.966  0.5004  0.0681 -0.2963
 7309W        W11360   0.967   4.151  12.834 -0.1497 -0.1408  0.0977
 7310W        W11361   0.953   2.143  12.384  0.0111 -0.1247 -0.1750
 7311W        W11362   8.045   6.225   1.911 -0.0658 -0.0476  0.0094
 7312W        W11363   1.920   0.572  12.427  0.2154  0.0994 -0.1007
 7313W        W11364   6.349   5.476   2.813  0.0584  0.2309 -0.0578
 7314W        W11365   2.974   3.392   2.049 -0.1590  0.1599  0.3424
 7315W        W11366   5.736   5.475   2.914 -0.0516 -0.2385  0.1234
 7316W        W11367   8.070   2.057  10.877 -0.0606  0.0702 -0.3128
 7317W        W11368   0.245   2.888   1.938 -0.0424 -0.1971 -0.0287
 7318W        W11369   5.041   0.992   1.582 -0.0835  0.0164  0.0788
 7319W        W11370   2.766   8.649  13.615 -0.0551 -0.0260  0.1816
 7320W        W11371   9.358   1.420  11.072 -0.3055  0.0229 -0.0244
 7321W        W11372   8.526   1.795  13.284 -0.0321 -0.2996 -0.1146
 7322W        W11373   0.487   8.165   0.207  0.0074  0.0561  0.1393
 7323W        W11374   9.698   5.454   0.143  0.0427 -0.0431 -0.1527
 7324W        W11375   5.497   2.687   4.356  0.1464  0.1307 -0.0810
 7325W        W11376   4.862   1.457   4.810 -0.1412  0.0092 -0.1493
 7326W        W11377   8.519   3.708   8.829  0.0932 -0.0724  0.0800
 7327W        W11378   6.967   5.345   1.543 -0.0777  0.3117  0.1156
 7328W        W11379   4.452   5.655   4.193 -0.0077  0.1542  0.1252
 7329W        W11380   2.371   9.367   3.118 -0.0907 -0.0450  0.0969
 7330W        W11381   9.681   0.906   3.348 -0.5661 -0.1688  0.0928
 7331W        W11382   1.789  10.128  13.169 -0.0194 -0.0400  0.1940
 7332W        W11383   9.661   8.279   2.197  0.3460 -0.1568  0.0780
 7333W        W11384   1.572   8.951  10.515 -0.0909  0.0398  0.2673
 7334W        W11385   4.430   5.221   0.811  0.2275  0.0135 -0.1340
 7335W        W11386  10.102   2.181   0.342  0.0940  0.1630 -0.0868
 7336W        W11387   2.711   9.112  10.988 -0.1563  0.2112 -0.0813
 7337W        W11388   1.473   6.735  12.044 -0.0258  0.1430  0.1699
 7338W        W11389   5.082   0.950  13.321  0.2938  0.3302  0.0747
 7339W        W11390   6.997   6.271   3.187 -0.0449 -0.2607 -0.0180
 7340W        W11391   0.697   4.570   2.586 -0.0693  0.0030 -0.0270
 7341W        W11392   7.371   3.047  13.607 -0.2135  0.0176  0.2277
 7342W        W11393   9.983   7.429  13.545  0.0252 -0.0649 -0.0717
 7343W        W11394   5.109   8.268   3.832  0.4204 -0.3297 -0.3451
 7344W        W11395   2.339   6.590   2.839  0.1186  0.2510  0.1127
 7345W        W11396   3.697   5.186  13.623 -0.2717  0.2275 -0.1163
 7346W        W11397   7.053   8.659   3.529 -0.1460  0.0207  0.0139
 7347W        W11398   2.685   3.687   3.444 -0.0795  0.3193 -0.0609
 7348W        W11399   2.007   2.671   2.397  0.2418  0.0303 -0.2664
 7349W        W11400   9.570   9.000  13.230 -0.0144 -0.0982  0.1767
 7350W        W11401   2.746   5.697   5.216 -0.0076 -0.2267 -0.1778
 7351W        W11402   9.745   6.764   3.018 -0.4521 -0.4882  0.0790
 7352W        W11403   0.151   4.802   1.396  0.1325  0.2636  0.3317
 7353W        W11404   2.416   6.170  13.526  0.2427  0.2570  0.1020
 7354W        W11405   2.226   3.583   5.243 -0.2387 -0.2483  0.0496
 7355W        W11406   7.743   9.540  10.331 -0.3261 -0.2377 -0.0734
 7356W        W11407   3.115   4.300   8.831  0.1206 -0.5030 -0.4764
 7357W        W11408   8.752   3.566  10.400 -0.1720  0.0081 -0.1609
 7358W        W11409   0.657   0.491  11.293 -0.2984 -0.0398  0.1110
 7359W        W11410   2.913   2.702   2.999 -0.2698  0.0756 -0.0716
 7360W        W11411   6.904   5.242  11.269 -0.0076 -0.1785 -0.0910
 7361W        W11412   6.057   4.279  11.301 -0.0354 -0.0703  0.1621
 7362W        W11413   0.312   0.639  10.261  0.0251 -0.0879 -0.0562
 7363W        W11414   1.525   9.702   9.845  0.1228  0.1564 -0.0463
 7364W        W11415   0.458   7.900  10.991  0.1987 -0.0489 -0.1282
 7365W        W11416   5.059  10.145   3.880  0.3741  0.3460  0.0204
 7366W        W11417   7.423   4.966   9.797 -0.1631 -0.0032 -0.1020
 7367W        W11418   0.600   3.435   4.414 -0.3031  0.1050 -0.3607
 7368W        W11419   8.991   9.984   0.051  0.2255  0.2073 -0.2484
 7369W        W11420   0.188   5.098   4.992 -0.2137  0.1855  0.0555
 7370W        W11421   8.960   0.354  12.541  0.2140  0.4474 -0.0608
 7371W        W11422   2.286   2.896   4.523  0.3605 -0.0377 -0.0965
 7372W        W11423   0.191   3.280   3.870 -0.0028 -0.0513  0.2428
 7373W        W11424   6.658   4.691   0.943  0.1405  0.2059  0.1210
 7374W        W11425   9.290   3.904   1.581  0.0408  0.1282  0.3180
 7375W        W11426   6.451   2.669   0.695  0.0112 -0.0852  0.2089
 7376W        W11427   5.739   7.073   9.509  0.0833 -0.0900 -0.0008
 7377W        W11428   4.537   9.523   3.646 -0.0113 -0.2444  0.1449
 7378W        W11429   5.128   7.121  10.016 -0.1792  0.0675 -0.1649
 7379W        W11430   2.680   2.576   2.570 -0.3565 -0.1141  0.3040
 7380W        W11431   7.842   1.843   2.951  0.1714 -0.2052  0.2979
 7381W        W11432   2.810   8.933   0.070  0.1056  0.3552  0.5790
 7382W        W11433  10.113   2.198   1.492  0.1302  0.2377  0.0005
 7383W        W11434   0.342   4.679   0.777  0.0535 -0.2841 -0.0256
 7384W        W11435   7.400   7.494  13.692  0.2804  0.0343 -0.2307
 7385W        W11436   3.916   3.987   1.073 -0.1976 -0.2837  0.2177
 7386W        W11437   7.736   6.119   1.011 -0.2509  0.0628  0.1390
 7387W        W11438   3.604   2.352   2.138 -0.0173 -0.0256  0.2464
 7388W        W11439   0.714  10.166  11.250  0.0777  0.2196 -0.0779
 7389W        W11440   1.829   5.949   3.455  0.5780 -0.3018  0.0405
 7390W        W11441   8.123   6.010   1.423  0.0315 -0.1650  0.2850
 7391W        W11442   8.420   5.596  13.873 -0.1027 -0.1659 -0.1660
 7392W        W11443   8.226   5.246  11.250  0.1076  0.1730  0.0049
 7393W        W11444   7.408   9.755   3.075  0.1923  0.2271 -0.0397
 7394W        W11445   5.571   9.397  13.946 -0.1441  0.2027  0.0747
 7395W        W11446   9.654   1.224   9.213  0.1801 -0.0067  0.0538
 7396W        W11447   5.587   1.082   3.501  0.3412  0.1291  0.2269
 7397W        W11448   1.093   9.951   2.402  0.1697  0.1936  0.2718
 7398W        W11449   8.080   7.358   3.940  0.5809 -0.1441 -0.1763
 7399W        W11450   3.657   9.942   5.443 -0.0208 -0.1128 -0.3570
 7400W        W11451   6.143   1.964   1.237 -0.0002 -0.1913  0.1479
 7401W        W11452   9.848   3.070   3.112  0.0183  0.3820  0.1677
 7402W        W11453   1.684   8.169   3.998 -0.1998 -0.4877  0.1857
 7403W        W11454   6.030   1.221   3.878 -0.0544  0.1771  0.1020
 7404W        W11455   8.392   2.135   9.732  0.0198  0.2300  0.1766
 7405W        W11456   4.439   0.168   0.641  0.6115  0.0828  0.0801
 7406W        W11457   9.676   5.951   2.914 -0.0077 -0.0966  0.1580
 7407W        W11458   6.118   3.695  10.313 -0.1525 -0.0170 -0.0804
 7408W        W11459   1.865   7.878   1.907 -0.2330 -0.0721 -0.2029
 7409W        W11460   8.270   5.644  10.851 -0.0032 -0.0535 -0.1511
 7410W        W11461   3.049   3.558   9.320 -0.0664  0.0358  0.2087
 7411W        W11462   0.147   9.465  12.562 -0.0680 -0.2031  0.3503
 7412W        W11463   4.238   2.335   1.401 -0.1385  0.2069 -0.0923
 7413W        W11464   9.071   2.907   3.673 -0.2504 -0.2066 -0.0161
 7414W        W11465   3.125   9.240   0.352 -0.1220 -0.0735  0.2232
 7415W        W11466   9.336   4.572   2.508  0.0091 -0.0025 -0.1815
 7416W        W11467   1.406   2.366  12.665 -0.2129  0.3165 -0.1623
 7417W        W11468   3.685   5.863   9.866  0.0685 -0.0504 -0.1577
 7418W        W11469   5.974   7.837   4.448 -0.0310  0.0121 -0.1973
 7419W        W11470   1.615   5.086   2.477 -0.0436  0.1969  0.0223
 7420W        W11471   1.444   2.707   4.516 -0.2238 -0.2729  0.0256
 7421W        W11472   5.158   5.879  10.198 -0.2014  0.0499 -0.3670
 7422W        W11473   8.355   4.553  13.683 -0.0265  0.1194  0.1054
 7423W        W11474   1.962   0.828   3.045  0.1073  0.0872  0.0127
 7424W        W11475   2.664   4.738  12.831 -0.1335  0.2362 -0.1306
 7425W        W11476   6.271   4.355  13.113  0.1487  0.2151  0.1377
 7426W        W11477   6.483   8.860  10.380 -0.0134 -0.4387  0.0522
 7427W        W11478   3.235   1.223  12.758  0.2059 -0.1913  0.0241
 7428W        W11479   9.938   0.659  10.102 -0.1832  0.0646 -0.1312
 7429W        W11480   4.816   7.177   1.196  0.1029  0.3207 -0.0460
 7430W        W11481   1.769   4.969   3.459 -0.0023 -0.1095 -0.0950
 7431W        W11482   2.344   6.585   0.783 -0.0709  0.0009 -0.0371
 7432W        W11483   1.155   6.569   0.056 -0.1047  0.3735  0.0262
 7433W        W11484   7.027   6.241   3.898 -0.0037 -0.1306 -0.0659
 7434W        W11485   3.404   3.756  13.101 -0.2435  0.1760 -0.0192
 7435W        W11486   9.560   0.232  11.938 -0.0593  0.0800  0.1151
 7436W        W11487   0.214   9.241   3.766 -0.0020 -0.2722 -0.1140
 7437W        W11488   2.622   5.271  12.795  0.2317 -0.0078  0.1254
 7438W        W11489   9.353   5.224   3.311  0.3625  0.1137  0.1619
 7439W        W11490   7.051   9.061   1.601  0.0763 -0.0329 -0.2400
 7440W        W11491   7.844   8.568  12.763 -0.3143 -0.3845  0.3911
 7441W        W11492   0.041   2.782   8.791  0.0399  0.0320  0.1705
 7442W        W11493   7.122   4.899  11.814  0.0113  0.0436 -0.2202
 7443W        W11494   8.149   8.194   0.313  0.0166  0.1481  0.0002
 7444W        W11495   6.132   5.793   1.883 -0.0130 -0.0594  0.1546
 7445W        W11496   6.157   2.827  12.891 -0.0878  0.2248  0.0811
 7446W        W11497   3.604   9.519   5.750  0.4705  0.0571 -0.1950
 7447W        W11498   8.280   6.669  12.598 -0.2215  0.3702  0.0192
 7448W        W11499   0.906   5.931  11.755  0.1546 -0.0147  0.2730
 7449W        W11500   3.725   4.671   2.054  0.0599  0.1920 -0.1881
 7450W        W11501   1.438   8.508  10.250  0.1958 -0.0763 -0.5368
 7451W        W11502   4.253   2.678  11.845 -0.0338 -0.0924  0.3406
 7452W        W11503   3.260   3.133   3.065  0.2275 -0.0504 -0.1386
 7453W        W11504   3.876   1.496  10.544  0.0198 -0.1315  0.0342
 7454W        W11505   1.341   0.376  10.566 -0.1491 -0.0831  0.0171
 7455W        W11506   0.229   7.028   2.336  0.0159  0.1846  0.0077
 7456W        W11507   4.251   8.357  13.368 -0.1445 -0.0746  0.0099
 7457W        W11508  10.142   0.126   2.114  0.2911 -0.0994  0.0526
 7458W        W11509   6.864   2.924   3.879  0.1362 -0.1796  0.1120
 7459W        W11510   7.041   9.774  12.553 -0.1181  0.1447  0.1759
 7460W        W11511   4.408   3.903  12.181 -0.0911  0.1145  0.0821
 7461W        W11512   0.585   3.637   5.604  0.0687  0.3669 -0.1826
 7462W        W11513   7.519   2.559   0.210  0.2260  0.0391  0.0211
 7463W        W11514   0.301   9.462   2.653  0.3322 -0.2838  0.2786
 7464W        W11515   2.631   5.790  13.291 -0.2461 -0.0542 -0.3221
 7465W        W11516   8.771   0.167  13.012 -0.3239 -0.1675 -0.2319
 7466W        W11517   7.720   6.055   2.719 -0.0698 -0.0592  0.2403
 7467W        W11518   6.319   1.154   2.447 -0.0643  0.0368  0.1151
 7468W        W11519   2.104   9.683   2.171  0.0736 -0.0757  0.1841
 7469W        W11520   0.363   9.094  12.877  0.3401 -0.1765 -0.1707
 7470W        W11521   8.107   9.080   9.488 -0.4114 -0.2650  0.0806
 7471W        W11522   5.069   8.942  11.286  0.2912  0.0498  0.0675
 7472W        W11523   8.563   0.695   1.600  0.3187 -0.1674  0.0218
 7473W        W11524   9.032   6.476  12.617  0.0348 -0.3069 -0.1756
 7474W        W11525   9.855   9.594  13.462 -0.1537  0.0386  0.3078
 7475W        W11526   3.366   9.577   0.903  0.0949  0.0317 -0.0501
 7476W        W11527   6.939   9.086   2.130  0.4835  0.1069 -0.1856
 7477W        W11528   0.022   7.777   2.714 -0.2056 -0.0292 -0.1303
 7478W        W11529   6.765   5.768   2.570 -0.1292  0.1572 -0.0740
 7479W        W11530   1.695   3.607   2.542 -0.4632  0.1672 -0.2430
 7480W        W11531   9.805   9.426  12.931  0.1543  0.0375  0.1145
 7481W        W11532   0.398   9.483   0.335  0.0343 -0.1578 -0.2979
 7482W        W11533   8.057   7.199  10.751  0.1417  0.0955  0.0550
 7483W        W11534   0.474   6.000   0.196 -0.1561 -0.0687  0.2814
 7484W        W11535   2.424   6.854   9.304 -0.0698 -0.0170  0.0611
 7485W        W11536   5.701   9.852   0.568 -0.1230  0.2769  0.1465
 7486W        W11537   5.623   1.660   4.204 -0.3354 -0.0422  0.2714
 7487W        W11538   1.445   0.337   0.625  0.3627 -0.0844  0.3888
 7488W        W11539   4.940   3.095   3.259  0.3025  0.0331  0.2478
 7489W        W11540   8.369   8.248   3.681 -0.3396  0.0069 -0.1618
 7490W        W11541   5.627   6.705  11.649  0.0394 -0.0991 -0.0739
 7491W        W11542   5.688   6.471  10.208  0.0598 -0.5030 -0.0788
 7492W        W11543   7.059   2.919  11.720  0.0342  0.0055 -0.2887
 7493W        W11544   6.477   2.966   4.262  0.0125 -0.2013  0.2086
 7494W        W11545   1.947   2.798   9.470 -0.0431 -0.0167  0.2228
 7495W        W11546   4.168   9.305  11.415 -0.0699  0.4925 -0.1729
 7496W        W11547   7.269   2.398  11.691 -0.1631  0.1321  0.2547
 7497W        W11548   9.786   3.506  12.717 -0.2068 -0.1695 -0.2257
 7498W        W11549   3.283   6.627   3.492  0.2064 -0.0534 -0.0575
 7499W        W11550   9.749   5.175  13.647 -0.1143  0.1936 -0.0100
 7500W        W11551   2.971   3.736   1.169  0.2327  0.2163  0.1102
 7501W        W11552   4.779   3.600   4.133 -0.1238  0.3793  0.0399
 7502W        W11553   4.511   4.544  10.439  0.3550 -0.0226  0.2284
 7503W        W11554   5.994   5.415   5.672 -0.1706 -0.0610  0.1651
 7504W        W11555   3.928   6.420  10.702 -0.3903 -0.1811  0.0706
 7505W        W11556   2.928   4.321  10.698  0.0043 -0.2027 -0.0545
 7506W        W11557   6.381   2.995   1.502  0.1084 -0.0950 -0.2964
 7507W        W11558   8.815   9.987   2.063 -0.0338  0.1018 -0.1437
 7508W        W11559   3.341   4.942   9.733 -0.2935 -0.4998 -0.0472
 7509W        W11560   0.373   7.021   0.269 -0.2534  0.3025  0.0185
 7510W        W11561   9.850   6.076  10.452 -0.3580  0.1135  0.2428
 7511W        W11562   5.838   2.731   1.390  0.2151  0.0216  0.2404
 7512W        W11563   5.155   7.922  10.616 -0.0537  0.0053 -0.0768
 7513W        W11564   0.269   0.852  11.296  0.4810  0.0480  0.1100
 7514W        W11565   8.930   6.751   2.666  0.0682  0.1114 -0.2288
 7515W        W11566   9.328   3.256  12.680  0.2399 -0.0692  0.3080
 7516W        W11567   8.160   0.611  13.468  0.0336 -0.0859 -0.0648
 7517W        W11568   6.090   4.471  11.845 -0.1068  0.1159  0.0198
 7518W        W11569   8.944   8.615  10.787 -0.1312 -0.2406 -0.0530
 7519W        W11570   7.051   7.662  13.282  0.0614 -0.0737 -0.1019
 7520W        W11571   3.586   4.755  11.297 -0.0677 -0.2992  0.2804
 7521W        W11572   2.043   8.541   4.935  0.1632 -0.1690 -0.0586
 7522W        W11573   2.653   3.619  10.134 -0.0382  0.1270 -0.1932
 7523W        W11574   6.090   3.203  11.325  0.2085  0.1138 -0.0246
 7524W        W11575   6.940   5.796   9.841 -0.1038  0.0324 -0.1889
 7525W        W11576   5.337   8.584  11.783 -0.0826  0.1720 -0.4188
 7526W        W11577   5.980   2.552   9.478 -0.1496  0.4112 -0.3660
 7527W        W11578   3.168   4.821   3.827  0.0667 -0.3162  0.1003
 7528W        W11579  10.056   6.213   0.091  0.0374 -0.3025 -0.1976
 7529W        W11580   3.695   0.723   4.554 -0.0540 -0.3736 -0.1431
 7530W        W11581   4.739   0.258   1.012  0.0136 -0.0394  0.3185
 7531W        W11582   9.490   9.366  13.662  0.0544 -0.0322  0.1897
 7532W        W11583   1.711   4.212   5.258 -0.1759 -0.1372 -0.0626
 7533W        W11584   6.313   6.636  12.849 -0.0813 -0.2051  0.0640
 7534W        W11585   3.992   4.447   5.381 -0.1528 -0.0616  0.2429
 7535W        W11586   7.750   8.534   1.009 -0.2554 -0.0332  0.0523
 7536W        W11587   3.181   5.653   9.323  0.2927 -0.0367  0.0940
 7537W        W11588   8.700   0.313  11.661  0.1978 -0.0726 -0.1758
 7538W        W11589   1.203   8.604   1.433 -0.1003 -0.1506  0.4230
 7539W        W11590   6.302   9.726   1.830  0.0220  0.1296  0.3101
 7540W        W11591   3.718   2.816   2.327 -0.2310 -0.0460  0.4480
 7541W        W11592   0.918   9.629   9.915  0.2650 -0.0264  0.2286
 7542W        W11593   9.811   9.138  11.505  0.0706  0.4086 -0.1638
 7543W        W11594   8.992   7.251   2.458 -0.1325  0.0516  0.0718
 7544W        W11595   7.169   9.595   4.396  0.0087  0.0301 -0.5669
 7545W        W11596   6.448   1.657   4.121  0.2531 -0.0260  0.1986
 7546W        W11597   8.999   6.801   1.205  0.0129 -0.1638 -0.1570
 7547W        W11598   6.732   8.742   3.086 -0.2976 -0.0223  0.2162
 7548W        W11599   9.871   5.203   3.634 -0.1897 -0.0204  0.0036
 7549W        W11600   5.192   8.685  10.331  0.0519  0.0240  0.0311
 7550W        W11601   8.037   9.878  10.686 -0.1500 -0.1736 -0.1869
 7551W        W11602   3.965   4.630   3.356  0.1425 -0.1189 -0.0181
 7552W        W11603   9.981   1.941   0.968 -0.0823 -0.1299 -0.2647
 7553W        W11604   1.008   9.859   4.675 -0.1335  0.1886 -0.0592
 7554W        W11605   5.883  10.003   5.253 -0.0001  0.2041 -0.2491
 7555W        W11606   4.697   8.524   2.850 -0.2328 -0.1789  0.0756
 7556W        W11607   0.066   3.243   5.139 -0.2543 -0.3175 -0.2301
 7557W        W11608   7.576   6.339  12.183 -0.0020  0.3730 -0.2668
 7558W        W11609   9.461   6.364  12.858  0.1556 -0.1811 -0.2411
 7559W        W11610   2.441   2.823  11.878  0.0535  0.0425 -0.1504
 7560W        W11611   1.643   9.035   0.009 -0.1788 -0.0215 -0.2969
 7561W        W11612   3.726   6.475   1.020 -0.1632 -0.0597 -0.1575
 7562W        W11613   9.078   7.216   0.657 -0.1324 -0.0428  0.0232
 7563W        W11614   7.029   1.903   9.786  0.0351 -0.2397  0.0686
 7564W        W11615   7.895   1.101  11.891 -0.1106 -0.2924  0.0093
 7565W        W11616   6.980   0.064  11.605 -0.0001  0.0160 -0.1386
 7566W        W11617   0.811   1.668   4.904 -0.1878 -0.0889  0.0287
 7567W        W11618   3.802   1.292   9.370 -0.0415 -0.2634 -0.2078
 7568W        W11619   7.857   3.935   0.162 -0.0490  0.1047  0.0309
 7569W        W11620   6.270   1.961  13.270  0.1036 -0.1361 -0.0104
 7570W        W11621   1.055   0.090   9.952  0.0845  0.0889 -0.0021
 7571W        W11622   1.438   9.027  12.924  0.0288  0.1400 -0.0573
 7572W        W11623   6.396   8.385  10.643  0.0207 -0.1964 -0.0943
 7573W        W11624   8.933   8.397   1.267 -0.0715 -0.0230 -0.0891
 7574W        W11625   1.003   1.937   4.435 -0.0875  0.1143  0.0695
 7575W        W11626   7.035   4.618  10.755  0.3401 -0.0354 -0.0680
 7576W        W11627   8.646   0.283   3.835  0.0686 -0.0068 -0.1444
 7577W        W11628   4.050   0.024  10.951  0.2355 -0.2231 -0.0610
 7578W        W11629   8.251   4.280  13.268 -0.0997  0.1050  0.0178
 7579W        W11630   4.431   2.721  11.365  0.1235 -0.2355 -0.2852
 7580W        W11631   0.306   3.293  13.640  0.4895 -0.1177 -0.1753
 7581W        W11632   7.281   5.178  10.956 -0.0393 -0.0066 -0.0392
 7582W        W11633   7.729   2.667   0.648  0.0761  0.3547 -0.0872
 7583W        W11634   2.251   3.738   2.660  0.0413 -0.0081  0.0247
 7584W        W11635   1.317   3.932   2.554  0.1876  0.0366 -0.4367
 7585W        W11636   4.313   7.812  12.523  0.4159  0.0201 -0.1858
 7586W        W11637   9.201   3.915  11.085 -0.1518  0.0633  0.0115
 7587W        W11638   4.048   3.043   1.262  0.0873  0.1172 -0.0649
 7588W        W11639   0.384   7.651   1.009  0.0477  0.2123 -0.0135
 7589W        W11640   5.155   6.836   0.996 -0.0813 -0.2918 -0.1557
 7590W        W11641   6.002   1.500  11.211  0.2190 -0.1657  0.3383
 7591W        W11642   8.703   3.003   2.091  0.0126  0.0441 -0.3232
 7592W        W11643   8.693   4.601  11.565  0.0550  0.0929  0.1221
 7593W        W11644   3.997   2.129   1.827 -0.1790 -0.1577  0.0649
 7594W        W11645   9.240   0.006  12.793  0.0639  0.1637  0.0818
 7595W        W11646   4.034   1.693   1.494  0.0924 -0.5566 -0.0364
 7596W        W11647   6.221   5.866   4.376  0.0991  0.0427 -0.2141
 7597W        W11648   0.567   1.514   4.392  0.0917 -0.2274  0.2230
 7598W        W11649   0.337   9.328   3.119 -0.0654  0.1197 -0.1624
 7599W        W11650  10.127   8.137   2.251  0.0873 -0.4427 -0.2318
 7600W        W11651   2.610   9.388  11.854  0.1487 -0.0480  0.1874
 7601W        W11652   7.349   6.640   1.204  0.1878  0.1176 -0.0408
 7602W        W11653   2.807   4.176   3.883 -0.1867  0.4572 -0.0184
 7603W        W11654   0.547   3.064  12.464  0.1548  0.0381 -0.0658
 7604W        W11655   8.056   2.158  11.790  0.1756 -0.0696  0.0117
 7605W        W11656   4.753   1.807   2.531 -0.2257 -0.0112 -0.1157
 7606W        W11657   8.247   0.355   2.440  0.2031  0.1362 -0.2387
 7607W        W11658   1.795   8.545   1.340 -0.1496  0.0500 -0.1688
 7608W        W11659   6.724   3.394   4.218 -0.0459 -0.0411 -0.1793
 7609W        W11660   6.848   2.410   3.592  0.1031  0.1122 -0.3439
 7610W        W11661   7.417   7.757   9.930  0.0089  0.0796  0.0610
 7611W        W11662   0.486   4.365  11.550 -0.1219 -0.0116 -0.2807
 7612W        W11663   6.325   7.088   1.510 -0.0803 -0.3610 -0.2882
 7613W        W11664   9.842   4.117   3.931  0.2994  0.2765 -0.2077
 7614W        W11665   3.047   2.002   2.014 -0.3703  0.1772  0.0156
 7615W        W11666   6.668   3.499   0.186 -0.1905  0.0790 -0.3006
 7616W        W11667   8.037   7.712   2.679 -0.1398 -0.0495 -0.2334
 7617W        W11668   2.580   0.748  11.802 -0.2434 -0.1821  0.3890
 7618W        W11669   5.849   2.783   3.560 -0.1261  0.1084 -0.1104
 7619W        W11670   1.067   6.415   0.794 -0.1763  0.2438 -0.4102
 7620W        W11671   6.087   9.707  13.164 -0.0403 -0.0593  0.1039
 7621W        W11672   3.930   4.379   1.327 -0.1798 -0.1376  0.0411
 7622W        W11673   9.931   2.751   9.619 -0.0371  0.3218  0.2369
 7623W        W11674   9.769   1.887  13.956 -0.1657 -0.1538  0.1424
 7624W        W11675   0.902   8.512  11.309 -0.4211  0.0213 -0.0736
 7625W        W11676   6.823   1.999   3.341  0.1858  0.0470  0.3275
 7626W        W11677   6.245   5.900   9.236 -0.0589  0.1704 -0.4472
 7627W        W11678   1.535   0.869  10.800  0.2008  0.0606 -0.0617
 7628W        W11679   3.120   8.222   2.159 -0.0587 -0.1010 -0.3111
 7629W        W11680   8.091   5.277   2.006  0.2155 -0.2297 -0.4804
 7630W        W11681   0.867   6.759   3.002  0.0750  0.1782 -0.0424
 7631W        W11682   7.338   0.251   3.742 -0.0047  0.2312 -0.0046
 7632W        W11683   8.770   8.155  10.691  0.3868  0.0431 -0.0665
 7633W        W11684   6.164   7.837   3.199  0.1323  0.0021 -0.1931
 7634W        W11685   0.821   1.234   4.028 -0.0404  0.1677 -0.1174
 7635W        W11686   1.775   1.542  11.415  0.2775 -0.0342  0.0313
 7636W        W11687   2.877   8.982   9.578  0.4636 -0.1998  0.0052
 7637W        W11688   0.239   9.738   1.729  0.1993  0.1668  0.0562
 7638W        W11689   5.444   8.192  12.394 -0.1814 -0.3233 -0.1617
 7639W        W11690   8.721   1.051   2.387  0.0658 -0.4624  0.1170
 7640W        W11691   9.892   2.582   4.240  0.3663 -0.0785  0.1586
 7641W        W11692   1.764   4.535  10.207 -0.2974 -0.0270  0.0653
 7642W        W11693   5.304   6.132   2.280 -0.3194 -0.2490  0.1132
 7643W        W11694   5.399   8.955   2.060  0.2384 -0.3890 -0.0376
 7644W        W11695   0.859   0.535   4.514 -0.1330  0.1549 -0.4894
 7645W        W11696   7.672   2.127   0.462 -0.0111 -0.0572 -0.2680
 7646W        W11697   3.500   2.683   0.037 -0.2441 -0.1773  0.1312
 7647W        W11698   0.003   7.156  11.892 -0.0742 -0.1317 -0.0166
 7648W        W11699   3.225   5.952  13.051 -0.1827 -0.0783 -0.4464
 7649W        W11700   0.657   6.710   2.241  0.0974 -0.0544 -0.1007
 7650W        W11701   3.943   3.451  10.758  0.0079 -0.1385  0.0856
 7651W        W11702   4.528   0.321   9.498 -0.2658 -0.1590  0.0149
 7652W        W11703   4.912   8.382  10.639 -0.1399 -0.0581 -0.2142
 7653W        W11704   7.102   3.343   4.696  0.2442  0.1643 -0.3067
 7654W        W11705   2.797   9.365  10.580 -0.0370 -0.3344 -0.0948
 7655W        W11706   3.704   4.594   2.933 -0.1066  0.0426  0.2917
 7656W        W11707   1.201   7.642   3.983 -0.1256  0.0805  0.0710
 7657W        W11708   7.162   3.444   1.762 -0.1533  0.0904  0.1218
 7658W        W11709   9.126   8.361  11.268 -0.1410  0.0533  0.0119
 7659W        W11710   2.010   4.498   1.203 -0.0702 -0.1746 -0.0311
 7660W        W11711   9.200   2.021   1.322 -0.0312 -0.2695 -0.3389
 7661W        W11712   4.362   9.881  13.674 -0.1659  0.2425  0.3916
 7662W        W11713   3.317   4.236   4.024 -0.0632  0.3033  0.0816
 7663W        W11714   3.610   3.511  11.099 -0.4701  0.2455  0.0339
 7664W        W11715   7.067   7.344  11.467 -0.1086 -0.0030 -0.0624
 7665W        W11716   2.341   0.394   3.249 -0.0591 -0.1121  0.0514
 7666W        W11717   5.721   6.550   3.550 -0.2114  0.0736  0.2936
 7667W        W11718   1.548   7.219   3.706  0.1116 -0.0848  0.1673
 7668W        W11719   3.577   9.293   9.917 -0.1026  0.1733 -0.0387
 7669W        W11720   9.762   7.352  13.030 -0.0568  0.0071 -0.0076
 7670W        W11721   3.152   9.124  13.714 -0.1831 -0.2019 -0.0376
 7671W        W11722   7.616   1.433  11.542  0.1217 -0.1364 -0.0136
 7672W        W11723   0.288   5.658   3.269  0.1711 -0.0550 -0.1110
 7673W        W11724   1.611   6.452   1.208  0.0221  0.3966  0.1352
 7674W        W11725   9.214   0.630   2.532  0.1576 -0.0329  0.0826
 7675W        W11726   2.109   8.879   0.491  0.2023 -0.3572  0.0860
 7676W        W11727   6.587   2.612  13.875 -0.1964 -0.0919  0.0097
 7677W        W11728   2.838   4.311   1.173 -0.0188  0.0520 -0.0863
 7678W        W11729   7.927   9.229  13.571 -0.1443 -0.1450 -0.1270
 7679W        W11730   7.186   3.236   1.030 -0.3254 -0.1771  0.1550
 7680W        W11731   2.403   6.376   9.963  0.0917  0.1261  0.1727
 7681W        W11732   0.815   8.632   1.020 -0.0974 -0.1180  0.1280
 7682W        W11733   2.587   4.552   5.527 -0.1658 -0.0965  0.2023
 7683W        W11734   0.713   0.824  10.432  0.0564 -0.3398 -0.1830
 7684W        W11735   8.429   1.333  11.853 -0.1066  0.1027 -0.0934
 7685W        W11736   1.935   1.240   0.554  0.0163  0.2580 -0.1067
 7686W        W11737   3.850   9.725   4.352 -0.2935 -0.0533 -0.0098
 7687W        W11738   2.546   0.931  12.357  0.0437  0.3047 -0.1528
 7688W        W11739   9.482   2.735   3.875  0.1602  0.1215 -0.1394
 7689W        W11740   8.650   7.802  12.055 -0.0223 -0.1829 -0.1014
 7690W        W11741   4.064   3.568  11.764  0.0961  0.0810 -0.2138
 7691W        W11742   9.353   0.474   1.005  0.0065 -0.0700 -0.0841
 7692W        W11743   9.616   9.210   2.093  0.0871 -0.0116 -0.0425
 7693W        W11744   1.839   2.799   1.791  0.0959 -0.0954  0.0067
 7694W        W11745   1.264   1.800  12.535 -0.1930 -0.0518  0.0820
 7695W        W11746   4.941   8.897   2.654 -0.0413 -0.0537 -0.0340
 7696W        W11747   3.182   2.539   9.568  0.1619 -0.1479 -0.0067
 7697W        W11748   8.776   7.634   0.687  0.0019 -0.0516  0.0339
 7698W        W11749   4.326   4.423  12.039 -0.2870 -0.0789  0.0448
 7699W        W11750   1.339   7.273   0.352 -0.0552 -0.0347 -0.1456
 7700W        W11751   0.303   0.385   1.160  0.1271  0.1154  0.1017
 7701W        W11752   2.188   3.663   1.592 -0.1425 -0.1661 -0.5443
 7702W        W11753   9.299   9.095   3.651 -0.1619  0.3114 -0.1653
 7703W        W11754   9.631   4.127   2.379 -0.1186  0.0972  0.2557
 7704W        W11755   1.501   6.554  10.350 -0.0914  0.1565  0.1258
 7705W        W11756   5.720   3.758  12.960 -0.0858  0.2397  0.1147
 7706W        W11757   9.966   3.392   3.507 -0.0875 -0.1520 -0.1439
 7707W        W11758   9.940   3.174  11.016  0.0052 -0.0990 -0.1617
 7708W        W11759   4.182   5.362  11.734  0.0328  0.3735  0.0817
 7709W        W11760   7.425   0.356  12.316 -0.0158  0.0315  0.1643
 7710W        W11761   9.844   1.447   2.790  0.2963 -0.0870 -0.1296
 7711W        W11762   6.441   7.818  12.208 -0.1173 -0.0943 -0.0466
 7712W        W11763   0.068   4.353   0.492  0.2118 -0.0658 -0.1273
 7713W        W11764   3.407   0.021   9.947 -0.1659  0.4080 -0.2384
 7714W        W11765   1.397  10.127  10.290  0.3159 -0.2563  0.1598
 7715W        W11766   1.235   4.566  13.721 -0.0111 -0.2754 -0.1259
 7716W        W11767   5.290   5.479   9.968 -0.1895 -0.0294  0.0053
 7717W        W11768   2.692   6.135   4.537 -0.0452 -0.0943 -0.0824
 7718W        W11769   6.381   5.245  11.118  0.1250 -0.0871  0.0824
 7719W        W11770   8.522   7.378   3.793  0.0028 -0.3364  0.1860
 7720W        W11771   6.567   0.136  13.618 -0.1248  0.1892 -0.3700
 7721W        W11772   2.160   0.320   4.842 -0.2415  0.0473 -0.1598
 7722W        W11773   5.613   6.838  13.581  0.1054 -0.3277  0.0394
 7723W        W11774   0.300   8.433  12.098 -0.4731 -0.4106 -0.1094
 7724W        W11775   5.301   1.793  13.042  0.4017  0.1373 -0.0142
 7725W        W11776   4.263   1.455  11.577 -0.1188  0.0126 -0.0680
 7726W        W11777   6.291   6.377   9.421  0.2178  0.0707 -0.1023
 7727W        W11778   0.894   7.740   1.017  0.0413  0.0283 -0.1363
 7728W        W11779   4.950   8.964   4.537  0.1530 -0.1376 -0.2744
 7729W        W11780   7.004   0.679   3.410 -0.3991 -0.0402  0.2488
 7730W        W11781   6.119   6.590   3.841 -0.0059 -0.0092 -0.2597
 7731W        W11782   0.575  10.156   1.402 -0.3645  0.0255  0.4466
 7732W        W11783   3.538   0.186  10.910  0.0426 -0.2031  0.1973
 7733W        W11784   0.708   9.265   0.927 -0.0453 -0.1123  0.2184
 7734W        W11785   7.799   3.281   3.667  0.1538  0.1895 -0.4048
 7735W        W11786   9.407   9.197   2.590 -0.2075 -0.0541 -0.2114
 7736W        W11787   3.650   5.310   3.910 -0.1383  0.0156 -0.0182
 7737W        W11788   6.632   5.893   0.497  0.0247  0.0094 -0.4404
 7738W        W11789   5.471   6.550   3.058  0.0580  0.0215 -0.4439
 7739W        W11790   3.013   3.037   9.438  0.0825  0.0261  0.3677
 7740W        W11791   1.562   9.750   0.579 -0.0569 -0.1306  0.5053
 7741W        W11792   2.321   4.857   0.982  0.1166  0.0743  0.2495
 7742W        W11793   6.333   1.178  10.378 -0.0505  0.1733 -0.2415
 7743W        W11794   5.694   3.326   3.822  0.2814  0.2067  0.3006
 7744W        W11795   4.975   5.674   2.941  0.0661 -0.1451  0.3222
 7745W        W11796   2.287   3.962  13.029  0.0647  0.3505 -0.1691
 7746W        W11797   6.515   0.723  13.691 -0.2661  0.2726  0.3681
 7747W        W11798   4.739   7.517  12.498 -0.2335  0.4241  0.0329
 7748W        W11799   9.183   4.452   1.585 -0.3612  0.0533 -0.4123
 7749W        W11800   9.341   9.567   3.555 -0.2960  0.1100 -0.4402
 7750W        W11801   3.940   5.758   3.466  0.3001 -0.3412  0.0033
 7751W        W11802   8.664   6.059   3.193 -0.1943  0.2035  0.2306
 7752W        W11803   9.972   3.662  10.892  0.2747  0.1957  0.0894
 7753W        W11804   8.733   3.512   4.682  0.0247 -0.3005 -0.1641
 7754W        W11805   9.934   8.232   1.783 -0.1937  0.1483  0.3013
 7755W        W11806   1.021   9.165   2.700  0.0789  0.0132  0.3674
 7756W        W11807   7.750   4.129   9.313 -0.2405  0.0300 -0.0585
 7757W        W11808   7.895   5.505  12.626  0.0945  0.0156  0.0717
 7758W        W11809   9.621   7.066  13.937 -0.1432  0.0629 -0.2065
 7759W        W11810   9.173   6.146   0.136 -0.1557  0.3095 -0.0657
 7760W        W11811   6.453   4.176  11.737  0.2552 -0.2241 -0.1063
 7761W        W11812   2.264   6.129  13.067  0.0513  0.0135 -0.2328
 7762W        W11813   3.447   1.378  12.037  0.2115 -0.1391 -0.2343
 7763W        W11814   2.574  10.005  11.576  0.1784  0.0465  0.1437
 7764W        W11815   8.929   8.581   1.758  0.0784 -0.0721 -0.2030
 7765W        W11816   0.815   4.682  11.180  0.1691  0.0344 -0.1228
 7766W        W11817   6.668   0.421  11.923 -0.0070  0.2270 -0.1338
 7767W        W11818   4.096   2.468  12.538 -0.2254 -0.1636 -0.4118
 7768W        W11819   7.489   3.682   3.923  0.0577 -0.2065 -0.1259
 7769W        W11820   2.460   6.019   2.662 -0.0832  0.2775 -0.1180
 7770W        W11821   1.756   1.642   4.867 -0.1093  0.1109 -0.2428
 7771W        W11822   3.195   0.963   1.159  0.0945  0.0076 -0.3262
 7772W        W11823   1.603   5.716  12.431  0.1544 -0.0015  0.2626
 7773W        W11824   4.656   9.562   1.213 -0.2577  0.0428  0.1946
 7774W        W11825   6.485   6.251  11.352  0.0408 -0.0665  0.0734
 7775W        W11826   6.043   0.510   3.375  0.0039  0.1212  0.0628
 7776W        W11827   9.013   9.719  13.648  0.4093 -0.2606  0.2686
 7777W        W11828   9.843   9.308  10.789 -0.0250 -0.2155 -0.1232
 7778W        W11829   6.016   1.849  10.035 -0.1408  0.0475 -0.1242
 7779W        W11830   5.681   3.005   5.674 -0.1155  0.0848 -0.2504
 7780W        W11831   4.880   4.181   1.938 -0.1484 -0.0489  0.1156
 7781W        W11832   3.430   3.223   0.028 -0.1510  0.1237  0.1445
 7782W        W11833   1.839   3.569   5.555 -0.2327  0.0931  0.0410
 7783W        W11834   7.822   3.015  10.001 -0.1020  0.1417 -0.0199
 7784W        W11835   6.063   7.711   0.632  0.1241  0.1418  0.3889
 7785W        W11836   9.190   2.414   0.984 -0.2053 -0.1217 -0.0483
 7786W        W11837   2.374   7.357   0.122  0.1858 -0.3664 -0.0597
 7787W        W11838   2.033   4.827  11.597  0.1887 -0.0324  0.0365
 7788W        W11839   1.180   7.730   0.518  0.0568 -0.1426  0.0932
 7789W        W11840   5.867   7.898   2.725  0.2037 -0.0925  0.2380
 7790W        W11841   8.594   7.968  13.012 -0.0965 -0.1986 -0.1065
 7791W        W11842   6.139   2.951   9.805  0.0143 -0.1146  0.0577
 7792W        W11843   5.047   2.390  13.462  0.0612  0.5041 -0.1863
 7793W        W11844   9.518   4.971   4.547 -0.3503 -0.1488 -0.2697
 7794W        W11845   6.185   9.126   2.803 -0.1015  0.1588 -0.1643
 7795W        W11846   0.939   7.711  10.945  0.1876 -0.0523 -0.1744
 7796W        W11847   4.865   9.916   0.885 -0.0370  0.1790  0.1860
 7797W        W11848   3.177   0.299   1.516 -0.0644  0.1071 -0.2284
 7798W        W11849   1.554   6.733  13.820 -0.0434 -0.2707  0.1722
 7799W        W11850   6.035   7.269   1.941 -0.2299 -0.0270  0.0883
 7800W        W11851   9.952   2.434  11.344 -0.3466  0.4370  0.0347
 7801W        W11852   2.638   0.738   2.062 -0.0082 -0.2729 -0.2824
 7802W        W11853  10.095   3.258  10.526 -0.3094 -0.1241  0.0712
 7803W        W11854   7.132   5.403   3.388 -0.4353  0.1225 -0.0402
 7804W        W11855   3.512   4.214   5.514 -0.0667 -0.2983  0.0542
 7805W        W11856   2.558   9.524   4.095  0.0655 -0.0040  0.0327
 7806W        W11857   9.474   4.953   2.826  0.2303 -0.1743  0.2732
 7807W        W11858   1.121   0.339  11.530 -0.3009 -0.0059  0.0341
 7808W        W11859   4.389   5.435   9.931 -0.1259  0.0843 -0.0115
 7809W        W11860   5.940   8.309   3.137  0.1251 -0.1059 -0.1409
 7810W        W11861   3.497   2.644   3.022 -0.1464  0.2676 -0.0136
 7811W        W11862   0.894   4.302   2.941 -0.1040 -0.0649  0.2585
 7812W        W11863   2.558   2.525   4.247  0.0417  0.0047 -0.1827
 7813W        W11864   6.763   0.656   2.898 -0.0026  0.1155  0.4160
 7814W        W11865  10.059   4.421   5.806  0.0487  0.1791  0.0897
 7815W        W11866   4.549   4.142   3.795 -0.3225  0.2622  0.1830
 7816W        W11867   2.264   1.421   2.443  0.0838 -0.0599 -0.0666
 7817W        W11868   6.652   9.281  13.823 -0.0570  0.0381 -0.0626
 7818W        W11869   6.532   9.905   3.579 -0.1437  0.2650  0.0283
 7819W        W11870   4.375   9.516   4.530 -0.1783  0.3200  0.2838
 7820W        W11871   4.934   4.907  10.410 -0.1257 -0.6217 -0.0413
 7821W        W11872   9.246  10.052   0.420 -0.0248  0.0440  0.0548
 7822W        W11873   3.818   9.400   0.395 -0.1562  0.1259 -0.0811
 7823W        W11874   3.054   7.358  13.011 -0.4616  0.1741 -0.1121
 7824W        W11875   1.609   3.102   2.485  0.5137  0.0442  0.1336
 7825W        W11876   9.148   6.980   9.865  0.4061  0.4389 -0.0959
 7826W        W11877   3.962   6.281   2.712 -0.0632  0.0228 -0.1575
 7827W        W11878   3.917   4.300   2.444  0.2124  0.1844 -0.1207
 7828W        W11879   8.759   8.071  13.817  0.0290 -0.2840 -0.0478
 7829W        W11880   2.824   2.802   5.263  0.0514 -0.1841  0.1379
 7830W        W11881   5.152   7.093   2.397 -0.0684  0.1446 -0.0732
 7831W        W11882   2.904   9.465   2.595 -0.1228 -0.0205  0.0089
 7832W        W11883   6.931   6.092   0.865  0.1497  0.2245 -0.0305
 7833W        W11884   7.373   7.252   9.928  0.0875  0.2350  0.1777
 7834W        W11885   2.795   0.613  10.660  0.1038 -0.0770  0.0769
 7835W        W11886   9.715   3.192   1.498 -0.0473 -0.2666 -0.0044
 7836W        W11887   7.818   9.752  13.580 -0.0789 -0.0791  0.0324
 7837W        W11888   2.390   6.117   3.672  0.0211 -0.1812 -0.0869
 7838W        W11889   8.623   0.097   2.565 -0.3259  0.1962  0.2030
 7839W        W11890   7.787   8.950   0.538 -0.2106 -0.2345 -0.1401
 7840W        W11891   9.057   7.970  12.936 -0.3254  0.0162 -0.0706
 7841W        W11892   6.076   9.168  11.037 -0.1961 -0.4168  0.1290
 7842W        W11893   1.775   9.290  10.056 -0.3114  0.2651 -0.3683
 7843W        W11894   3.631   9.343   9.427 -0.0728 -0.0051 -0.1512
 7844W        W11895  10.168   0.234  12.831 -0.1276  0.0890  0.2715
 7845W        W11896   9.113   2.357   2.790  0.0811  0.1069  0.1444
 7846W        W11897   4.875   1.234   2.768 -0.2026 -0.0491  0.2050
 7847W        W11898   8.992   6.680   2.178 -0.0617  0.1618 -0.2210
 7848W        W11899   8.999   9.328   0.917 -0.1691  0.2858  0.1816
 7849W        W11900   2.182   2.092   0.726  0.0640  0.1367 -0.0791
 7850W        W11901   2.515   4.398  11.006 -0.0885 -0.1854 -0.3276
 7851W        W11902   9.196   5.619  12.277  0.2686  0.2603 -0.1352
 7852W        W11903   3.488   6.201   1.999  0.1448 -0.2075  0.3345
 7853W        W11904   3.679   8.678   1.621  0.1080 -0.1904  0.1602
 7854W        W11905   6.882   8.052   9.995  0.1670 -0.1609  0.0827
 7855W        W11906   8.120   7.835  13.980 -0.0724 -0.0124 -0.0329
 7856W        W11907   5.902   2.253  12.234 -0.0177 -0.2033 -0.0772
 7857W        W11908   9.290   9.570   0.511  0.0036  0.1803  0.0164
 7858W        W11909   5.271   7.821   3.684 -0.1683  0.0998  0.1586
 7859W        W11910   3.696   7.062  13.674 -0.1706  0.2472  0.1703
 7860W        W11911   7.089   3.458  13.582 -0.1462 -0.3169 -0.0550
 7861W        W11912   0.695   9.037   0.411  0.1380 -0.0286  0.1321
 7862W        W11913   4.756   0.589   0.612  0.1042  0.1085  0.3139
 7863W        W11914   7.446   7.320   2.808 -0.2089  0.1129 -0.0889
 7864W        W11915   1.934   8.436   4.435  0.0761  0.3912 -0.0428
 7865W        W11916   1.771   7.409   3.269 -0.2603 -0.4602  0.3792
 7866W        W11917   2.687   2.530   3.677  0.0937 -0.2361 -0.1638
 7867W        W11918  10.055   8.826  11.825  0.1945  0.1824  0.0857
 7868W        W11919   6.018   9.019   0.019  0.0261 -0.1608 -0.5062
 7869W        W11920   4.164   9.234  10.363 -0.3221  0.1646 -0.0561
 7870W        W11921   2.716   0.116   2.133  0.2156  0.2350  0.2116
 7871W        W11922   5.151   0.650  12.939 -0.0547  0.0793  0.2921
 7872W        W11923   6.931   8.416  13.985  0.1841  0.2640  0.2247
 7873W        W11924   7.523   2.917   4.022 -0.0004  0.2207 -0.3800
 7874W        W11925   6.840   7.689   1.887  0.1187  0.0579 -0.3745
 7875W        W11926   6.715   5.396   0.680 -0.0089  0.2376 -0.0026
 7876W        W11927   7.109   7.998  13.706  0.0712  0.2695 -0.1388
 7877W        W11928   4.312   6.091  10.886 -0.0680  0.2600  0.0282
 7878W        W11929   5.146   6.290   2.765  0.1362  0.1694  0.0439
 7879W        W11930   8.391   4.344   3.097  0.1425 -0.0179 -0.3496
 7880W        W11931   3.219   4.099   3.076 -0.0399 -0.1214  0.1160
 7881W        W11932   3.275   7.908   9.709  0.1024 -0.4090  0.0227
 7882W        W11933   4.134   7.430  10.886  0.1890 -0.2048  0.1767
 7883W        W11934   9.023   3.846  10.004 -0.3375  0.0688 -0.4169
 7884W        W11935   9.728   0.912   0.313  0.0339  0.1941  0.0452
 7885W        W11936   4.741   5.338   9.296 -0.2785 -0.0217  0.0854
 7886W        W11937   6.171   8.014  12.929  0.2778  0.1235 -0.0259
 7887W        W11938   4.237   3.183  12.052 -0.3128  0.2351  0.1870
 7888W        W11939   8.716   2.538  11.171  0.1671 -0.0702  0.1077
 7889W        W11940   5.105   6.357  12.153  0.2672 -0.2582  0.2611
 7890W        W11941   1.892   9.262   1.950  0.0493  0.1734  0.1209
 7891W        W11942   6.685   3.172   2.389 -0.0165  0.2464 -0.2599
 7892W        W11943   9.162   4.606  12.448 -0.0282 -0.1951 -0.1581
 7893W        W11944   8.003   1.289   4.552 -0.1008  0.1185  0.2870
 7894W        W11945   7.528   0.752  13.697  0.0532  0.0392 -0.1402
 7895W        W11946   6.216   9.776   4.395 -0.1783 -0.0711  0.3503
 7896W        W11947   0.756   4.664  13.907  0.2665  0.2607  0.0926
 7897W        W11948   0.505   4.389  12.701 -0.0474 -0.3853 -0.0330
 7898W        W11949   3.565   0.165   0.642 -0.1413  0.0302 -0.0000
 7899W        W11950   8.972   5.680  13.202 -0.0615  0.1515  0.0286
 7900W        W11951   0.731   3.900  10.122 -0.1585  0.1392 -0.0474
 7901W        W11952   7.134   1.692   2.105 -0.4810  0.0521  0.0425
 7902W        W11953   3.541   6.956   2.177 -0.0638 -0.0680  0.0544
 7903W        W11954   2.657   0.628  13.033  0.0032  0.5516  0.0308
 7904W        W11955   1.568   6.826   3.357  0.2324  0.3364  0.0150
 7905W        W11956   5.128   7.820   0.392 -0.1968 -0.2183  0.1155
 7906W        W11957   5.304   1.475   5.031  0.1660 -0.2210 -0.2047
 7907W        W11958   1.925   5.949   1.834 -0.1727 -0.0809 -0.0450
 7908W        W11959   0.167   1.543   3.085 -0.0559 -0.2325  0.0919
 7909W        W11960   9.017   4.207  12.785  0.0573 -0.0650 -0.1439
 7910W        W11961   1.987   7.760   2.903  0.0888 -0.3592  0.3642
 7911W        W11962   5.414   3.087   3.447 -0.0256  0.0043 -0.1266
 7912W        W11963   3.932   0.963   4.196  0.0582 -0.1842 -0.1812
 7913W        W11964   2.689   6.462   9.514  0.3515  0.2108  0.0143
 7914W        W11965   4.120   6.906   1.009  0.0411  0.3348  0.1295
 7915W        W11966   1.102   7.229  11.310 -0.0930 -0.4131  0.1425
 7916W        W11967   4.543   9.427  11.789 -0.0376  0.1233  0.0384
 7917W        W11968   0.158   1.868  13.456 -0.0441  0.0817  0.3144
 7918W        W11969   3.610   7.417  10.791 -0.2324 -0.0617 -0.0608
 7919W        W11970   0.156   2.249  10.587 -0.1392  0.4098 -0.3116
 7920W        W11971   6.793   8.765  12.382  0.1579 -0.0033 -0.0584
 7921W        W11972   5.407   8.720  12.392 -0.2809  0.0243  0.0969
 7922W        W11973   7.593   0.613   9.881 -0.0866 -0.2745 -0.0584
 7923W        W11974   2.912   0.812   9.705 -0.1494 -0.1999  0.0760
 7924W        W11975   7.202   4.443   3.526 -0.1096 -0.0250 -0.0662
 7925W        W11976   2.547   3.544  13.218  0.1089  0.2252 -0.0598
 7926W        W11977   5.973   3.007   1.866  0.2211  0.0241  0.2272
 7927W        W11978   4.164   5.896  12.372  0.1209  0.0953 -0.2004
 7928W        W11979  10.031   2.984   1.110  0.2253 -0.0748 -0.0262
 7929W        W11980   4.947   1.440  10.224  0.1526  0.0264 -0.1598
 7930W        W11981   6.580   6.562   4.049  0.1401 -0.3338  0.1085
 7931W        W11982   4.514   2.953   4.312 -0.1413  0.0700  0.0514
 7932W        W11983   3.189   5.571  11.565  0.1070 -0.0611 -0.2008
 7933W        W11984   6.177   3.555   0.176 -0.1761  0.1327 -0.1743
 7934W        W11985   5.858   7.374   4.320 -0.0475 -0.0888  0.3408
 7935W        W11986   2.181   6.437  11.324 -0.1591 -0.0165 -0.1002
 7936W        W11987   0.522   5.852  13.687 -0.1421  0.1387 -0.0349
 7937W        W11988   0.950   9.045   1.317  0.0537  0.0121  0.0037
 7938W        W11989   3.161   8.062  10.493  0.2381 -0.1040  0.1882
 7939W        W11990   2.134   3.371   9.486 -0.0144 -0.1545 -0.2340
 7940W        W11991   9.972   8.256   0.832 -0.0984  0.1592 -0.3402
 7941W        W11992   5.288   2.029   1.509  0.1424 -0.0487  0.0750
 7942W        W11993   9.779   3.614   4.031  0.1143  0.0545  0.0022
 7943W        W11994   4.748   9.391   4.828 -0.2134 -0.1246  0.2363
 7944W        W11995   2.296   7.622  10.889  0.1398 -0.1510 -0.0434
 7945W        W11996   6.462   8.077   3.966 -0.2741 -0.1336 -0.0928
 7946W        W11997   0.099   5.063  12.117 -0.4030  0.0305  0.1913
 7947W        W11998   1.092   6.314   3.901  0.0235 -0.1678 -0.4513
 7948W        W11999   2.957   2.846  13.878 -0.2993 -0.1186 -0.0076
 7949W        W12000  10.114   4.929   0.936  0.1573 -0.1310  0.2419
 7950W        W12001   4.022   6.573   3.058 -0.2477 -0.0643 -0.0218
 7951W        W12002   5.285   5.235   2.907 -0.2844 -0.1164  0.2157
 7952W        W12003   6.236   0.721  12.726 -0.2382 -0.0424 -0.0001
 7953W        W12004   6.959   8.961  12.912 -0.1671  0.1041 -0.1963
 7954W        W12005   3.965   3.152   3.700  0.1846  0.0822 -0.3205
 7955W        W12006   8.594   8.467   2.174  0.0057  0.1667 -0.0995
 7956W        W12007   9.813   3.426   2.518 -0.2586  0.3934 -0.2488
 7957W        W12008   0.122   2.680  11.631 -0.2480  0.1867  0.1373
 7958W        W12009   3.863   6.021   2.232 -0.2410 -0.2980  0.0967
 7959W        W12010   1.837   4.094   2.716 -0.0431 -0.2905 -0.0071
 7960W        W12011   3.786   0.580  11.316 -0.0334  0.2212  0.2095
 7961W        W12012   5.617   0.920   9.883 -0.2146 -0.1372  0.0518
 7962W        W12013   0.718   9.225  11.686 -0.1111  0.2235  0.1601
 7963W        W12014   9.353   3.307   0.412 -0.1785  0.0694 -0.0362
 7964W        W12015   1.394   3.798   0.079 -0.0771 -0.2911 -0.3017
 7965W        W12016   1.439   1.794   2.273  0.0162 -0.0109  0.1264
 7966W        W12017   1.061   0.190  12.626  0.0964  0.3075  0.1681
 7967W        W12018   9.659   0.976   2.829  0.3895 -0.0180 -0.1391
 7968W        W12019   4.901   5.943  11.417  0.2959  0.1182  0.2438
 7969W        W12020   3.059   6.230  10.770 -0.0762  0.3252  0.0216
 7970W        W12021   4.137   0.965  11.411  0.1394 -0.1980 -0.2254
 7971W        W12022   2.188   9.264   0.113 -0.0574 -0.3123  0.2969
 7972W        W12023   2.964   9.522   4.381 -0.1368 -0.0732  0.1126
 7973W        W12024   7.604   7.512  10.800 -0.0807  0.2758  0.0602
 7974W        W12025   8.812   8.471  13.051  0.0217 -0.1791  0.0515
 7975W        W12026   3.102   4.181  11.927 -0.0162 -0.1992 -0.0609
 7976W        W12027   9.360   0.711   3.651 -0.0181 -0.3797 -0.2000
 7977W        W12028   5.242   7.023   1.504  0.1112 -0.2169 -0.1907
 7978W        W12029   3.759   8.716   0.524  0.0649 -0.2786 -0.1251
 7979W        W12030   9.850   1.524  12.922  0.0394 -0.1701 -0.2414
 7980W        W12031   0.331   4.391   1.225 -0.2636 -0.2675  0.0323
 7981W        W12032   4.811   6.583  13.961 -0.0276 -0.1921  0.0079
 7982W        W12033   4.003   8.376   2.951  0.3190  0.1073  0.0374
 7983W        W12034   3.641   4.583   0.958  0.1134 -0.0052  0.1584
 7984W        W12035   8.697   9.432  11.939  0.0683 -0.1509  0.1296
 7985W        W12036   9.719   4.531   9.941  0.0706  0.2650 -0.0387
 7986W        W12037   1.843   0.493   0.956 -0.0773  0.0099  0.0866
 7987W        W12038   1.426   6.046   1.033 -0.2079  0.2093 -0.1101
 7988W        W12039   8.500   6.406  10.237  0.2278  0.1116  0.0007
 7989W        W12040   7.254   9.479  11.176 -0.0540  0.1067  0.0608
 7990W        W12041   1.790   8.777  12.649  0.0901  0.0198  0.0028
 7991W        W12042   2.833   4.802   0.910  0.4532 -0.0621  0.1016
 7992W        W12043   0.595   9.884   3.096  0.0487  0.0128  0.1674
 7993W        W12044   5.053   8.973   9.928  0.5731 -0.0600  0.2170
 7994W        W12045   9.231   3.474   2.758  0.0621 -0.0711  0.0465
 7995W        W12046   8.265   2.762   4.760 -0.1785  0.2515 -0.3083
 7996W        W12047   3.640   9.544   3.475 -0.0502 -0.0940 -0.0460
 7997W        W12048   7.409   1.405   9.617  0.1633  0.0994 -0.1308
 7998W        W12049   7.228   4.236  11.008  0.2758 -0.0685  0.2001
 7999W        W12050   1.207   5.081   5.201 -0.0543  0.0262 -0.0721
 8000W        W12051   3.943   2.078   4.540 -0.0509  0.2073  0.1471
 8001W        W12052   5.304   2.556   0.056  0.0209  0.1220  0.0071
 8002W        W12053   1.655   7.331  11.246  0.1979  0.0323  0.0997
 8003W        W12054   3.771   5.711  13.790  0.2255  0.0402  0.2602
 8004W        W12055   5.698   8.935  11.986 -0.1396  0.0566  0.1800
 8005W        W12056   1.566   7.303  13.854  0.1394  0.4492 -0.1477
 8006W        W12057   8.313   1.934  10.307 -0.2852  0.2554 -0.0627
 8007W        W12058   6.457   8.688   5.046  0.0728  0.4244 -0.0454
 8008W        W12059   6.099   5.294   3.674 -0.0316  0.2033  0.2272
 8009W        W12060   1.607   3.145  13.123 -0.0993 -0.1185  0.0899
 8010W        W12061   0.494   3.300   1.702 -0.0284 -0.0240  0.1516
 8011W        W12062   2.494   2.235   5.169  0.1369  0.4511 -0.0315
 8012W        W12063   8.043   6.088   3.092 -0.2604 -0.2253  0.1347
 8013W        W12064   1.675   3.921   1.569  0.3093 -0.1132 -0.3364
 8014W        W12065   3.916   6.629   3.562  0.1817 -0.0085 -0.0255
 8015W        W12066   8.980   7.536  10.774 -0.0528  0.2887 -0.2527
 8016W        W12067   2.790   5.873   3.509  0.2651  0.1125 -0.0739
 8017W        W12068   2.340   1.074   3.567 -0.0313  0.2998 -0.0924
 8018W        W12069   7.474   3.102   0.588 -0.2360  0.0307  0.1426
 8019W        W12070   8.925   7.145  13.284 -0.1592  0.2295  0.0825
 8020W        W12071   2.054   6.559  10.327 -0.0794 -0.1175 -0.2194
 8021W        W12072   3.952   5.839   2.973 -0.1066  0.0082  0.0816
 8022W        W12073   3.651   7.941   3.465 -0.0623  0.1182 -0.1218
 8023W        W12074   4.679   9.263   9.143  0.2549  0.0823 -0.0264
 8024W        W12075   5.548   4.814   9.589 -0.0506  0.1829 -0.0456
 8025W        W12076   3.443   8.322   0.628  0.2415  0.2295 -0.2035
 8026W        W12077   7.802   2.741   3.472  0.1933  0.1026 -0.0966
 8027W        W12078   2.880   0.009   1.144  0.1043 -0.0493 -0.2382
 8028W        W12079   1.960   5.530   2.212  0.2074  0.0831  0.0875
 8029W        W12080   3.135   7.089  11.006  0.1171  0.0519  0.0551
 8030W        W12081   9.080   8.893  11.179  0.1266 -0.2773 -0.2658
 8031W        W12082   6.351   7.580   1.607  0.0394 -0.1841  0.0438
 8032W        W12083   7.533   2.711   5.267  0.1097  0.3480 -0.2020
 8033W        W12084   8.943   9.348  10.484  0.0507 -0.0426 -0.0224
 8034W        W12085   0.222   6.185   3.584  0.2465 -0.0731  0.0199
 8035W        W12086   0.944   8.391  10.430 -0.0306 -0.3210  0.0342
 8036W        W12087   5.287   1.817   3.315  0.2013  0.4452 -0.0673
 8037W        W12088   2.317   6.655  11.745 -0.0799  0.1691  0.2656
 8038W        W12089   4.539   5.943   3.815 -0.0965 -0.0340 -0.0996
 8039W        W12090   5.031   3.187   1.242  0.0806  0.0719 -0.0521
 8040W        W12091   8.342   6.944  13.200 -0.1486 -0.1202 -0.1843
 8041W        W12092   5.932   5.917  11.683  0.0314  0.3133  0.0735
 8042W        W12093   5.812   7.240  11.151  0.1538  0.0633  0.0934
 8043W        W12094   5.372   4.042  11.983  0.1731  0.1577 -0.0527
 8044W        W12095   5.028   4.755   0.923 -0.0769  0.1693 -0.1103
 8045W        W12096   1.881   9.998   1.506 -0.1338  0.0336 -0.0973
 8046W        W12097   0.536   3.450   9.725  0.0408 -0.3108 -0.1186
 8047W        W12098   6.664   2.779  10.022 -0.2545 -0.1828  0.1484
 8048W        W12099   9.586   8.410  13.589  0.0056  0.2197  0.1736
 8049W        W12100   0.762   0.986  11.400  0.1084 -0.1261 -0.1859
 8050W        W12101   4.988   2.507   4.487  0.2141  0.0208 -0.1424
 8051W        W12102   5.129   1.678   4.051 -0.0741  0.0537 -0.2555
 8052W        W12103   1.192   2.968  11.922  0.0159  0.0913  0.1727
 8053W        W12104   0.862   2.023   9.760 -0.1020  0.0322 -0.0083
 8054W        W12105  10.118   4.480   9.595  0.0544 -0.3450 -0.0699
 8055W        W12106   9.451   2.256  10.621 -0.1029 -0.2483  0.2554
 8056W        W12107   4.362   2.088   9.299  0.0338 -0.0718 -0.0542
 8057W        W12108   6.983   8.152   1.204 -0.0437  0.2898  0.1873
 8058W        W12109   3.068   8.712   2.112  0.1639  0.1949 -0.1411
 8059W        W12110   0.026   7.205   1.819  0.0198 -0.1380 -0.3229
 8060W        W12111   9.332   1.445   2.493  0.1428 -0.2656  0.1064
 8061W        W12112   6.499   7.323  12.233  0.3870 -0.0579  0.0843
 8062W        W12113   5.279   8.203   1.090 -0.1226  0.1410  0.1673
 8063W        W12114   3.008   4.628  13.152 -0.0403 -0.1781 -0.0193
 8064W        W12115   1.778   4.535  13.508 -0.1793  0.2063 -0.1125
 8065W        W12116   0.445   5.133   0.571 -0.2091 -0.2527 -0.1550
 8066W        W12117   8.993   1.985   9.249 -0.3113  0.6136  0.1104
 8067W        W12118   3.241   7.196  13.959 -0.0444  0.1518 -0.2356
 8068W        W12119   3.935   3.800  13.043 -0.2142  0.0272  0.0796
 8069W        W12120   6.126   0.564   0.499 -0.1505 -0.0496 -0.1605
 8070W        W12121   7.698   1.642   2.476  0.1092  0.2088  0.0646
 8071W        W12122   3.399   4.238  12.363  0.2498  0.2606 -0.2046
 8072W        W12123   8.623   6.775  13.562  0.1137 -0.1892  0.2164
 8073W        W12124   4.618   0.481  11.567  0.3385  0.0286  0.1987
 8074W        W12125   8.280   1.330   3.804  0.2009 -0.2041 -0.3115
 8075W        W12126   8.734   1.326  13.383  0.0153  0.0450 -0.0366
 8076W        W12127   5.208   7.872  12.812 -0.2376 -0.3495  0.1441
 8077W        W12128   9.425   4.355   3.802  0.1196  0.2784  0.2374
 8078W        W12129   6.962   8.218  12.467 -0.2438 -0.1939 -0.1156
 8079W        W12130   6.997   2.303  11.249 -0.0376  0.1025  0.1007
 8080W        W12131   0.431   5.974   1.018 -0.1553 -0.1923 -0.0680
 8081W        W12132   5.617   4.866   2.702  0.2384  0.2528  0.3763
 8082W        W12133   7.150   9.545   2.216  0.0107  0.1006 -0.3798
 8083W        W12134   5.888   3.924   0.744 -0.2700  0.1816 -0.1402
 8084W        W12135   5.235   1.769   1.094 -0.2074  0.3060  0.1077
 8085W        W12136   6.571   4.665  11.945  0.2244 -0.1292  0.2432
 8086W        W12137   6.311  10.115  11.009 -0.0919 -0.1694 -0.2965
 8087W        W12138   2.508   8.304   1.762 -0.2959  0.0988  0.1476
 8088W        W12139   0.818   8.356  12.415 -0.1881  0.3290 -0.2000
 8089W        W12140   9.174   9.622   3.092 -0.3206  0.0276 -0.1918
 8090W        W12141   1.974   0.730   1.358 -0.3613  0.0322 -0.0060
 8091W        W12142   4.016   4.674  10.307 -0.6284 -0.3417 -0.0234
 8092W        W12143   7.038   6.060   2.258  0.2643 -0.0286  0.0654
 8093W        W12144   6.829   9.249   4.240  0.1543 -0.1113 -0.0440
 8094W        W12145   3.408   1.670   3.994 -0.1574 -0.2065  0.0309
 8095W        W12146   5.464   5.529   0.978 -0.0638  0.2736 -0.0090
 8096W        W12147   3.412   5.722   3.062  0.0362  0.1340  0.2785
 8097W        W12148   9.098   0.989  13.562  0.1882 -0.1483  0.0838
 8098W        W12149   6.120   8.929  13.142  0.3207 -0.0481  0.3144
 8099W        W12150   6.230   4.965  10.504  0.1140 -0.1387 -0.0517
 8100W        W12151   5.784   8.708  13.766 -0.0978 -0.0075  0.1988
 8101W        W12152   0.988   3.147   9.010  0.0400  0.0410 -0.1763
 8102W        W12153   6.140   7.480  10.885  0.1099  0.0779 -0.1088
 8103W        W12154  10.061   6.479  13.571 -0.0518  0.0236 -0.2468
 8104W        W12155   0.432   6.730  10.280 -0.0875 -0.0830  0.4399
 8105W        W12156   3.805   7.779  11.674  0.2433  0.1976  0.2558
 8106W        W12157   7.333   3.484  12.448 -0.2226  0.1611 -0.0704
 8107W        W12158   5.930   8.310  13.409  0.2265  0.1565  0.0135
 8108W        W12159   0.671   3.921  11.902  0.3377 -0.2332  0.1179
 8109W        W12160   2.355   7.553   4.458 -0.2022 -0.0483 -0.1397
 8110W        W12161   1.052   2.884   2.870  0.0958 -0.4522 -0.0059
 8111W        W12162   3.606   1.271  13.597 -0.0979  0.0307 -0.0705
 8112W        W12163   6.612   8.900   2.603  0.3709  0.2054 -0.0913
 8113W        W12164   7.843   4.359  11.551  0.2424 -0.0196 -0.0129
 8114W        W12165   3.340   4.305  11.497 -0.3700 -0.0661  0.0045
 8115W        W12166   9.479   6.577  11.630  0.1719  0.0300 -0.0046
 8116W        W12167   7.400   3.215  10.416 -0.0760  0.2153 -0.0345
 8117W        W12168   2.361   5.875   2.150 -0.0258  0.0175 -0.0870
 8118W        W12169   3.483   4.305  12.818 -0.2554 -0.1332  0.0494
 8119W        W12170   8.451   5.215   3.318  0.0522  0.3571  0.0850
 8120W        W12171   0.093   4.765   3.442 -0.2542  0.0145 -0.2291
 8121W        W12172   5.098   9.157  12.247  0.3542  0.2410 -0.0556
 8122W        W12173   4.653   1.071   5.433  0.2787 -0.2779  0.2938
 8123W        W12174   5.808   3.249   5.176 -0.2253  0.1810  0.0156
 8124W        W12175   5.768   3.752  13.674 -0.0567 -0.2146 -0.0104
 8125W        W12176   8.996   1.938   2.582 -0.2692 -0.0841 -0.3346
 8126W        W12177   8.465   8.895   9.943 -0.0927 -0.2477  0.3252
 8127W        W12178   5.509   8.874   2.686 -0.2763  0.0407 -0.0224
 8128W        W12179   2.010   4.599   8.805 -0.2665 -0.1978 -0.1646
 8129W        W12180   3.924   0.578   0.770  0.2598  0.0730 -0.0162
 8130W        W12181   9.839   4.495  13.738  0.0770 -0.1211  0.0341
 8131W        W12182   3.643   1.521  12.652  0.1093 -0.2311 -0.2066
 8132W        W12183   4.033   6.050   9.505  0.0559  0.1348  0.0393
 8133W        W12184   1.950   9.055  12.197  0.2098 -0.1384  0.2183
 8134W        W12185   7.574   3.084   0.042 -0.2624  0.2750  0.4801
 8135W        W12186   7.407   6.392   3.633 -0.2828 -0.0450  0.0832
 8136W        W12187   7.904   8.935   3.480 -0.1149  0.1036  0.0101
 8137W        W12188   1.283   3.772   9.452 -0.2358  0.0051  0.0176
 8138W        W12189   4.808   7.344  11.335  0.2601  0.2327  0.2921
 8139W        W12190   6.001   4.254  12.736 -0.0417  0.2694  0.1061
 8140W        W12191   3.488   5.362   0.473 -0.0469  0.2856 -0.0412
 8141W        W12192   9.945  10.081  11.203 -0.1153  0.0796  0.1914
 8142W        W12193   0.828   0.511   4.012 -0.0233 -0.0943 -0.1181
 8143W        W12194   6.218   9.496  13.857 -0.0954 -0.1564  0.2982
 8144W        W12195   6.074   3.682  11.341  0.0265 -0.1858 -0.1374
 8145W        W12196   1.762   9.468   4.784  0.0258  0.1663  0.1780
 8146W        W12197   3.380   5.782   1.418 -0.2470 -0.0746 -0.1781
 8147W        W12198   5.724   4.959  10.951 -0.1199  0.3087  0.3435
 8148W        W12199   6.960   2.976   4.373  0.2400  0.0581 -0.1952
 8149W        W12200   6.531   8.785   0.783  0.0036  0.3849 -0.4292
 8150W        W12201   6.839   0.992   9.516 -0.1942  0.1582 -0.1505
 8151W        W12202   7.565   3.340   2.030 -0.0991  0.2333 -0.0950
 8152W        W12203   6.470   6.320  10.293 -0.0115 -0.0241  0.1450
 8153W        W12204   6.431   6.565   1.395 -0.0289 -0.4901 -0.2010
 8154W        W12205   9.967   6.826   9.785  0.1257  0.2273 -0.0938
 8155W        W12206   4.892   8.524   1.409  0.1801  0.1594 -0.0428
 8156W        W12207   3.700   3.832   2.454 -0.3581 -0.0418  0.3759
 8157W        W12208   9.156   3.938   2.501  0.2560 -0.1442 -0.0893
 8158W        W12209   0.064   0.623   2.123 -0.2129  0.0910  0.0683
 8159W        W12210   4.605   1.753   0.116 -0.1373  0.0921 -0.1163
 8160W        W12211   1.675   5.324  13.853  0.0846 -0.2192  0.0708
 8161W        W12212   5.546   3.205   1.040 -0.1197  0.0674  0.1853
 8162W        W12213   9.856   6.767   0.923 -0.0711 -0.0890  0.0563
 8163W        W12214   2.083   5.055   2.992 -0.0038  0.2428  0.0231
 8164W        W12215   6.561   6.535  10.768 -0.0424 -0.1488 -0.0679
 8165W        W12216   9.219   9.650  11.874 -0.1198  0.0950  0.0007
 8166W        W12217   0.053   3.813   3.714 -0.1840 -0.0027 -0.1319
 8167W        W12218   4.360   3.591  13.281  0.2944 -0.0732  0.0972
 8168W        W12219   2.040   5.622   2.697 -0.5161  0.3168 -0.1084
 8169W        W12220   1.349   3.577   1.214 -0.0727  0.0185 -0.0118
 8170W        W12221   4.750   1.028   9.907  0.2460 -0.1165 -0.1342
 8171W        W12222   2.430   1.773  11.917  0.0645  0.4531  0.1580
 8172W        W12223   0.215   6.092   4.093 -0.1659 -0.1068  0.2240
 8173W        W12224   1.025   2.395  11.899 -0.2580  0.0185  0.0172
 8174W        W12225   8.436   4.590   0.182 -0.0797  0.2136 -0.2969
 8175W        W12226   4.417   3.413   1.591 -0.0692 -0.1096 -0.0997
 8176W        W12227   2.231   8.261  13.981  0.3769  0.1639 -0.4024
 8177W        W12228   5.427   4.773  12.965 -0.0107 -0.3796  0.0713
 8178W        W12229   8.121   1.008   4.148  0.1472  0.0283  0.0035
 8179W        W12230   7.635   2.831   2.116  0.0593 -0.2639  0.1823
 8180W        W12231   2.401   5.008   1.710  0.3091  0.0378  0.2473
 8181W        W12232   9.443   9.880  13.562 -0.0246  0.1252 -0.1815
 8182W        W12233   4.008   1.199   2.352 -0.3400 -0.0744 -0.1052
 8183W        W12234   6.345   4.424   0.596  0.0773  0.0531  0.1373
 8184W        W12235   9.428   7.414  12.389 -0.2971  0.0463  0.3263
 8185W        W12236   6.226   6.166  12.058  0.4266 -0.1286  0.1760
 8186W        W12237   6.313   1.174   1.866  0.0813 -0.0460  0.2280
 8187W        W12238   9.607   2.150  12.577  0.0130  0.1033  0.1759
 8188W        W12239   3.500   9.975   9.288  0.4333  0.0916  0.0647
 8189W        W12240   5.686   5.953  13.299  0.0909 -0.0648  0.0065
 8190W        W12241   6.993   4.030  11.478  0.0439 -0.1401  0.1863
 8191W        W12242   1.173   4.826  12.139 -0.1131 -0.0288 -0.0189
 8192W        W12243   2.069   8.959   4.589 -0.0169  0.2576 -0.2136
 8193W        W12244   5.044   7.652   9.055 -0.1297  0.1110  0.3118
 8194W        W12245   5.224   0.546  11.089  0.4050  0.2902 -0.3285
 8195W        W12246   2.212   6.554   4.388  0.1593  0.0971 -0.1550
 8196W        W12247   6.698   7.826   2.414  0.0153  0.1098 -0.2062
 8197W        W12248   5.933   0.530  12.397  0.3401 -0.0586 -0.2344
 8198W        W12249   5.232   1.708   0.568 -0.3288 -0.2802  0.0776
 8199W        W12250  10.059   6.994   0.483 -0.1087 -0.0728  0.0488
 8200W        W12251   8.156   1.456  12.256  0.0101  0.0076 -0.1778
 8201W        W12252   0.319   0.554   2.920 -0.0637  0.2343  0.0820
 8202W        W12253   4.291   0.588   0.415  0.0717  0.5155  0.1770
 8203W        W12254   4.139   2.200  12.080  0.1494  0.0379  0.1133
 8204W        W12255   3.743   9.944  12.420 -0.2138 -0.0852  0.1714
 8205W        W12256   8.733   6.854  12.418 -0.0853 -0.0673 -0.0979
 8206W        W12257   9.267   3.505   4.989  0.0301  0.1838  0.1238
 8207W        W12258   6.509   7.013  13.792 -0.1852  0.1387 -0.1346
 8208W        W12259   2.389   2.758   1.826 -0.1685 -0.1761  0.1057
 8209W        W12260   1.170   4.183   4.432  0.0003 -0.1020 -0.2687
 8210W        W12261   9.266   5.101  13.377 -0.0509  0.0276  0.2206
 8211W        W12262   4.534   3.405   4.538 -0.0455  0.1075  0.1636
 8212W        W12263   4.951   3.441   2.759  0.0397  0.2604  0.3637
 8213W        W12264   0.888   6.917   9.469 -0.2751 -0.0895  0.1658
 8214W        W12265   2.885   0.565  11.179  0.1460  0.1168  0.1254
 8215W        W12266   3.341   4.080  13.589 -0.0289  0.1459  0.1014
 8216W        W12267   4.071   9.768  11.183 -0.0706 -0.1034  0.0405
 8217W        W12268   2.741   7.932  11.790 -0.0254  0.0646  0.2069
 8218W        W12269   2.587   4.132  11.995 -0.3155 -0.1351  0.3406
 8219W        W12270   5.494   7.291  13.819  0.1902  0.1700 -0.2506
 8220W        W12271   5.802   5.224   5.178  0.2045  0.0974 -0.0622
 8221W        W12272   3.134   0.024   3.894  0.0889 -0.1686  0.1711
 8222W        W12273   4.898   3.888  12.052 -0.0761  0.0265 -0.0916
 8223W        W12274   6.000   3.233  10.323 -0.2240  0.0460 -0.0770
 8224W        W12275   4.545   7.040   4.743  0.2791 -0.1208 -0.0656
 8225W        W12276   3.841   2.998  13.775  0.0341 -0.3100 -0.1466
 8226W        W12277   5.996   4.572   9.836  0.1546  0.0423  0.1151
 8227W        W12278   3.759   6.656  10.252 -0.2709 -0.0457  0.1966
 8228W        W12279   2.692   1.594   2.765 -0.0353  0.1024  0.0378
 8229W        W12280   3.577   9.284   1.811  0.0132 -0.1760 -0.0045
 8230W        W12281   9.104   2.807   4.174  0.1040  0.1753 -0.1280
 8231W        W12282   3.399   6.970  11.931 -0.0744  0.1178  0.0849
 8232W        W12283   1.462   0.562   1.520 -0.2113  0.0595  0.0210
 8233W        W12284   1.657   1.699  12.228 -0.0719  0.1418  0.1124
 8234W        W12285   9.130   3.876   0.228  0.0762  0.1542  0.1317
 8235W        W12286   7.805   2.876  12.648 -0.2120  0.2164  0.0012
 8236W        W12287   7.193   0.967   0.341  0.2088 -0.1020  0.3623
 8237W        W12288   5.855   5.664   3.423 -0.2404 -0.0873  0.0322
 8238W        W12289   7.046   2.978   9.316 -0.0302 -0.1971 -0.2622
 8239W        W12290   7.123   4.554  12.821  0.0878  0.1870  0.0439
 8240W        W12291   2.407   1.397   4.239  0.0738 -0.0363  0.0823
 8241W        W12292   6.051   3.200  13.262 -0.0288 -0.0821 -0.0380
 8242W        W12293   8.414   1.519   2.163 -0.3466 -0.3910 -0.0633
 8243W        W12294   5.681   2.314   1.652 -0.0401 -0.1814  0.1084
 8244W        W12295   9.997   8.910   1.071 -0.2165  0.2378  0.0458
 8245W        W12296   4.767   8.296   0.214  0.7548 -0.1913 -0.1302
 8246W        W12297   4.076   3.268  12.947 -0.1905 -0.0827 -0.1723
 8247W        W12298   1.304  10.104  10.861  0.0119  0.1340 -0.3419
 8248W        W12299   7.126   3.293   0.137  0.0263 -0.1413  0.0318
 8249W        W12300   4.368   7.146  11.228  0.1155  0.2704 -0.0215
 8250W        W12301   6.131   2.752   2.683 -0.1116  0.2191  0.0203
 8251W        W12302   2.038   2.142   8.963  0.0532 -0.3525  0.1796
 8252W        W12303   2.290   1.352   1.005 -0.2087 -0.1344  0.0190
 8253W        W12304   0.798   3.439   1.268  0.1004  0.3982 -0.1954
 8254W        W12305   2.221   7.887  12.636 -0.0956  0.1063  0.1117
 8255W        W12306   0.113   5.137  10.655 -0.1271 -0.0209  0.1992
 8256W        W12307   0.629   0.129   3.711  0.0068 -0.0553  0.4709
 8257W        W12308   8.387   2.638   1.371  0.3160  0.1728  0.2309
 8258W        W12309   8.797   6.224   2.348  0.0321 -0.4248  0.0788
 8259W        W12310   4.403   8.405  10.734  0.0801 -0.0480 -0.1060
 8260W        W12311   2.177   6.806   9.841 -0.4261 -0.0249 -0.1230
 8261W        W12312   2.802   4.654  12.062  0.0856 -0.1188 -0.4038
 8262W        W12313   5.704   2.756   0.217 -0.1019 -0.0547  0.2838
 8263W        W12314   7.019   8.792   9.397  0.0907  0.0272  0.2336
 8264W        W12315   8.843   5.791  11.694  0.1607  0.1294  0.3162
 8265W        W12316   2.099   6.726   1.169 -0.2033  0.2161 -0.0614
 8266W        W12317   7.729   8.580   2.502 -0.0718 -0.2257  0.1749
 8267W        W12318   4.210   3.771  12.637 -0.0607  0.2009 -0.2201
 8268W        W12319   6.602   6.021   4.081 -0.0338 -0.3718  0.2743
 8269W        W12320   7.349   7.765   1.298 -0.1717  0.1365  0.2854
 8270W        W12321   1.392  10.062   4.329 -0.0061  0.2651 -0.1354
 8271W        W12322   5.520   9.157  10.173 -0.0665  0.1862 -0.0596
 8272W        W12323   3.786   3.355   4.165 -0.2198  0.1541 -0.0771
 8273W        W12324   6.914   7.518   4.083  0.0618 -0.0223  0.2690
 8274W        W12325   4.653   3.189  12.866 -0.0957  0.0413 -0.1323
 8275W        W12326   3.148   0.385  10.341  0.3031 -0.3751 -0.0266
 8276W        W12327   4.621   7.975  12.176  0.3727  0.1650 -0.2976
 8277W        W12328   6.707   9.913   2.306 -0.0581  0.2917  0.2209
 8278W        W12329   0.729   0.757   2.154 -0.1119 -0.3642 -0.0575
 8279W        W12330   4.122   6.437  11.622 -0.5701  0.2802 -0.4423
 8280W        W12331   9.030   6.393  10.974 -0.0687  0.0655 -0.4832
 8281W        W12332   4.157   8.825  12.301  0.3032 -0.1742 -0.1050
 8282W        W12333   0.522   3.674   2.229  0.2492  0.0848  0.0872
 8283W        W12334   4.041   3.080  11.619  0.0314 -0.0256  0.0922
 8284W        W12335   3.141   0.879   4.950 -0.0788 -0.0727  0.0207
 8285W        W12336   4.525   1.067   1.385  0.4382 -0.1846 -0.3231
 8286W        W12337   3.183   4.088   9.322 -0.2298 -0.3457 -0.0034
 8287W        W12338   4.052   4.126   9.549  0.1346  0.0483 -0.1117
 8288W        W12339   3.275   8.615   9.083  0.0499 -0.1341 -0.0015
 8289W        W12340   3.441   8.270   2.874  0.0850  0.2604 -0.3413
 8290W        W12341  10.168   1.651   0.153 -0.0603 -0.2278  0.2664
 8291W        W12342   4.699   8.845  10.225  0.0618  0.1318 -0.1436
 8292W        W12343   9.653   7.550   0.087 -0.1456 -0.2251  0.0249
 8293W        W12344   5.244   4.411   9.668  0.0774 -0.1129 -0.0619
 8294W        W12345   3.232   8.535  10.529  0.0273  0.0888  0.1838
 8295W        W12346   6.499   3.259  10.084  0.0643 -0.1678 -0.2384
 8296W        W12347   4.230   6.031  13.906 -0.0278  0.1653  0.0984
 8297W        W12348   2.501   4.273   1.944 -0.0029  0.0619  0.1518
 8298W        W12349   7.241   0.749  10.814  0.1665 -0.0919 -0.1281
 8299W        W12350   0.894   0.625  13.814  0.2393 -0.2471  0.0941
 8300W        W12351   0.300   1.475  10.042  0.1984  0.1094  0.3947
 8301W        W12352   5.605   9.864  13.129 -0.2034  0.2722  0.1194
 8302W        W12353   6.503   1.737  10.130 -0.1036 -0.1760  0.3349
 8303W        W12354   9.711   7.518   3.578 -0.2252  0.1838  0.0210
 8304W        W12355   4.744   5.842   0.203 -0.0891  0.3745 -0.1721
 8305W        W12356   9.070   5.301  12.766 -0.0783 -0.0047  0.0916
 8306W        W12357   4.488   4.095  13.134  0.1571 -0.1572 -0.4082
 8307W        W12358   6.604   2.547   4.029  0.1803  0.0367 -0.1887
 8308W        W12359   0.810   6.648   4.214 -0.0350  0.1070 -0.0397
 8309W        W12360   1.225   6.756  13.328 -0.0809  0.0002  0.0216
 8310W        W12361   7.206   1.414   1.196  0.2959 -0.0484 -0.2614
 8311W        W12362   2.583   8.309   0.863  0.1885 -0.1884 -0.0450
 8312W        W12363   4.647   1.837   0.659 -0.1128  0.4372 -0.2435
 8313W        W12364  10.024   8.396  13.347 -0.4648 -0.1604  0.1439
 8314W        W12365   6.448   0.695   2.475  0.0408 -0.2027  0.1552
 8315W        W12366   8.914   5.562   2.454 -0.0762  0.0793  0.1511
 8316W        W12367   5.510   2.488   9.570 -0.3618  0.1854 -0.4033
 8317W        W12368   6.874   1.188  12.176  0.1074  0.1114  0.0828
 8318W        W12369   0.003   9.691  12.042  0.0155  0.1437 -0.0660
 8319W        W12370   1.815   6.731   3.887  0.0510 -0.3381 -0.3122
 8320W        W12371   4.955   1.834   2.042  0.1428 -0.4526 -0.0585
 8321W        W12372   2.390   4.813   4.428 -0.0123 -0.0339 -0.1011
 8322W        W12373   9.660   9.605  11.261 -0.0310  0.3378  0.1385
 8323W        W12374   7.057  10.000   1.921 -0.0760 -0.1087 -0.1313
 8324W        W12375   1.074   8.825  10.318  0.0430 -0.3141 -0.0359
 8325W        W12376   5.809   0.582  11.560 -0.2827 -0.0324  0.0051
 8326W        W12377   4.808   5.422   4.460  0.0228 -0.3365  0.0013
 8327W        W12378   9.420   9.575  12.714 -0.3002 -0.1115  0.2555
 8328W        W12379   2.993   0.997  10.955  0.2127  0.0569  0.0793
 8329W        W12380   1.133   8.622  12.095 -0.0633  0.3644 -0.4465
 8330W        W12381   4.504   1.529   2.933  0.1069 -0.1938  0.1319
 8331W        W12382   4.723   0.508  13.296  0.1818  0.1846  0.2049
 8332W        W12383   8.526   4.891  10.350  0.1341 -0.1813 -0.0634
 8333W        W12384   2.571   3.460  10.674 -0.1422 -0.0765 -0.0851
 8334W        W12385   5.162   7.505  11.019  0.0418  0.2349 -0.1049
 8335W        W12386  10.172   1.094  12.676 -0.1405 -0.2529 -0.1766
 8336W        W12387   1.271   6.015   3.501 -0.1167 -0.1388 -0.0987
 8337W        W12388  10.065   9.166   2.417  0.1933 -0.1755 -0.0465
 8338W        W12389   5.369   8.978  13.564 -0.4025 -0.0647 -0.0849
 8339W        W12390   5.993   4.445   1.495  0.1884  0.1229  0.1773
 8340W        W12391   9.199   3.425   9.653 -0.0680 -0.0662 -0.0324
 8341W        W12392   3.869   2.065   9.674  0.3189 -0.1888  0.1344
 8342W        W12393   6.657   4.922  12.662 -0.3030 -0.2786  0.2184
 8343W        W12394   7.974   6.475   4.458  0.0188 -0.0594 -0.1379
 8344W        W12395   2.643   5.198   2.910  0.0470  0.5610 -0.0183
 8345W        W12396   3.734   7.214   0.152  0.0990  0.0513  0.1517
 8346W        W12397   9.187   6.911   3.089 -0.0454  0.0557  0.2420
 8347W        W12398   8.670   3.041   1.566 -0.1517  0.1078  0.2376
 8348W        W12399   1.551   5.249   5.600 -0.0181  0.3749 -0.3223
 8349W        W12400   8.311   0.942  11.510 -0.1450  0.1711 -0.1305
 8350W        W12401   4.408   9.004   3.747 -0.0337  0.1477  0.1513
 8351W        W12402   5.180   6.102   3.732  0.3627  0.0296  0.1013
 8352W        W12403   0.902   4.014   2.100 -0.1427  0.0524 -0.0052
 8353W        W12404   5.735   7.256  13.347 -0.0326  0.0610 -0.1204
 8354W        W12405   3.579   5.663  11.209 -0.0385  0.4648 -0.0253
 8355W        W12406   2.939   6.636   3.093 -0.1467  0.1149  0.0777
 8356W        W12407   4.774   9.845  11.432  0.0841  0.0287  0.2760
 8357W        W12408   8.635   7.023   0.735  0.1627 -0.2155  0.1765
 8358W        W12409   6.355   9.108   1.127 -0.0378  0.0191 -0.0306
 8359W        W12410   6.463   5.167   5.509  0.0466  0.1976  0.1452
 8360W        W12411   8.640   4.767  12.674  0.0443 -0.0507  0.1507
 8361W        W12412   1.779   1.711   0.465  0.1573  0.0217 -0.1939
 8362W        W12413   0.632   9.592   9.264 -0.2005 -0.0215  0.1931
 8363W        W12414   0.389   9.445  10.197  0.0845 -0.0150  0.0352
 8364W        W12415   4.573   3.409  12.440  0.0439 -0.2780  0.0444
 8365W        W12416   2.370   8.027  13.133 -0.0753  0.3223 -0.1352
 8366W        W12417   3.118   3.924   2.558  0.3729 -0.0008 -0.1570
 8367W        W12418   2.833   9.045  11.501 -0.3645 -0.1411  0.0186
 8368W        W12419   2.058   2.380   2.032 -0.1436 -0.2627  0.0973
 8369W        W12420   0.983   0.372   2.273  0.0569 -0.0540  0.0759
 8370W        W12421   6.402   9.268   0.280  0.1084 -0.1160  0.1992
 8371W        W12422   3.572   6.839  12.889 -0.0082  0.2836  0.0115
 8372W        W12423   1.671   4.151   4.056 -0.2392  0.1933 -0.1657
 8373W        W12424   9.374   4.188   3.238 -0.1861 -0.1296  0.0228
 8374W        W12425   1.878   5.360   5.217  0.0036 -0.0803  0.2635
 8375W        W12426   3.072   9.997   3.359 -0.3017  0.1012  0.0426
 8376W        W12427   1.526   5.269   0.783 -0.0158  0.0391  0.0215
 8377W        W12428   6.403  10.147   0.269 -0.2569 -0.0475 -0.2034
 8378W        W12429   9.972   6.106   3.853  0.1681  0.2067  0.1331
 8379W        W12430   3.990   9.683   2.748 -0.2278  0.3740 -0.0544
 8380W        W12431   6.738   1.513   9.470  0.1112 -0.5764  0.0438
 8381W        W12432   2.732   6.757  12.549  0.1892 -0.0336 -0.0319
 8382W        W12433   3.855   3.348   8.989  0.1033 -0.4398  0.3559
 8383W        W12434   1.501   3.875   8.849  0.2793 -0.2602 -0.2755
 8384W        W12435   7.340   9.131   3.572  0.1929  0.0982 -0.0468
 8385W        W12436   0.638   7.678   2.702  0.2500  0.0300  0.4495
 8386W        W12437   1.900   9.226  13.625  0.2045 -0.0916  0.0923
 8387W        W12438   6.619   5.273  13.588  0.3312  0.4580  0.2520
 8388W        W12439   2.986   7.510   3.882  0.2205 -0.2259 -0.0216
 8389W        W12440  10.053   8.520   3.099  0.0213 -0.0981  0.1623
 8390W        W12441   6.760   0.259   9.005  0.0196 -0.0733 -0.1542
 8391W        W12442   9.236   4.777   9.933  0.0897 -0.0570  0.0367
 8392W        W12443   8.467   6.306  13.150 -0.1386 -0.4168 -0.0092
 8393W        W12444   6.676   9.669  12.221 -0.1284  0.0218 -0.2220
 8394W        W12445   3.441   6.604   3.024 -0.3019 -0.1194  0.3393
 8395W        W12446   5.740   4.855   4.814  0.0292 -0.0888 -0.5519
 8396W        W12447   1.288   6.829   3.914  0.1705 -0.0730 -0.0429
 8397W        W12448   0.218   0.931   1.080  0.1082 -0.1566 -0.1891
 8398W        W12449   4.737   7.751   1.968  0.1472 -0.1643  0.0360
 8399W        W12450   8.903   4.125   1.375 -0.1085 -0.0963 -0.3049
 8400W        W12451   9.519   8.213   0.337 -0.3003 -0.3921  0.2139
 8401W        W12452   8.827   4.415   4.436  0.0488 -0.2870  0.2021
 8402W        W12453   6.269   0.774   4.635 -0.2896 -0.1838  0.1689
 8403W        W12454   8.388   0.467   2.950 -0.0522 -0.1905 -0.2205
 8404W        W12455   3.072   1.935  13.540  0.0319  0.0574 -0.0864
 8405W        W12456   5.272   3.997   9.992 -0.4377 -0.0392 -0.2408
 8406W        W12457   9.273   7.041   2.038 -0.1821 -0.2150  0.1935
 8407W        W12458   2.985   0.236   4.602  0.0491  0.0881  0.0418
 8408W        W12459   8.000   1.217  10.710  0.1218  0.0038  0.1034
 8409W        W12460   1.352   6.666  10.971 -0.0583  0.0923  0.0887
 8410W        W12461   5.210   9.610  13.005  0.1559  0.3611  0.2844
 8411W        W12462   9.511   9.748   0.087 -0.0139 -0.1222 -0.2582
 8412W        W12463   7.328   3.096   3.564 -0.0615  0.1250 -0.1753
 8413W        W12464   8.730   5.161  11.382 -0.2450  0.1745 -0.1631
 8414W        W12465   1.154   8.106  11.913  0.1113  0.3100  0.1121
 8415W        W12466   0.590   3.901  11.393 -0.2310 -0.0526 -0.1291
 8416W        W12467   4.946   4.379  12.149  0.0193 -0.1745 -0.2830
 8417W        W12468   6.164   9.310  12.843 -0.2815  0.0496  0.1043
 8418W        W12469   6.426   4.956   0.011 -0.3490 -0.1756 -0.1332
 8419W        W12470   3.752   9.881  10.696 -0.0730 -0.0289  0.3017
 8420W        W12471   5.497   0.879  11.729  0.0851  0.1353 -0.2020
 8421W        W12472   2.202   6.624  13.090  0.1444  0.0643  0.2587
 8422W        W12473   6.609   5.035  11.597  0.0795  0.0905  0.0147
 8423W        W12474   2.542   9.870   2.801 -0.4007  0.0750 -0.1308
 8424W        W12475   4.807   1.359   0.363 -0.1501  0.1267 -0.2415
 8425W        W12476   7.255   7.311   1.105 -0.1173  0.1648  0.1078
 8426W        W12477  10.093   5.085   2.168 -0.0408 -0.1062 -0.0934
 8427W        W12478   1.780   1.075   1.008  0.1003  0.0367  0.2022
 8428W        W12479   9.255   0.900   0.492  0.6044  0.2655 -0.2068
 8429W        W12480   6.022   7.714  13.947  0.1585  0.1617 -0.0467
 8430W        W12481   8.593   4.195   4.801 -0.1444  0.1961 -0.0270
 8431W        W12482   4.055   7.813   3.798  0.1345 -0.0389 -0.2091
 8432W        W12483   0.530   9.747  12.214 -0.1742  0.0438 -0.5673
 8433W        W12484   8.112   2.287   0.552 -0.0207  0.1467  0.0690
 8434W        W12485   7.063   4.775   0.589  0.0603 -0.1065  0.1319
 8435W        W12486   1.596   2.683   0.920  0.1863 -0.0580  0.3143
 8436W        W12487   8.532   1.704   1.278  0.1058  0.0250  0.0938
 8437W        W12488   5.911   4.029   2.561 -0.0615 -0.1897  0.1669
 8438W        W12489   9.532   6.448   1.662  0.4175  0.1967  0.0189
 8439W        W12490   4.674   8.011  11.701 -0.4661  0.0782  0.1080
 8440W        W12491   4.343   1.028  10.214  0.0783 -0.1910 -0.0920
 8441W        W12492   3.317   2.706  10.574  0.1624  0.0018  0.0603
 8442W        W12493  10.063   4.845  12.918 -0.1331 -0.2911 -0.0251
 8443W        W12494   0.530   4.269  13.718  0.0421 -0.1289  0.2875
 8444W        W12495   6.329   3.465   1.248 -0.0117 -0.0524  0.2165
 8445W        W12496   0.908   5.979   1.911 -0.1800 -0.0059 -0.0616
 8446W        W12497   5.567   1.461  10.929  0.1591 -0.1558  0.5467
 8447W        W12498   6.122   2.373   1.980 -0.0416  0.2082  0.0955
 8448ION    NA+12499   5.701   0.378   0.933 -0.0054  0.5627  0.1833
 8449ION    NA+12500   5.237   5.399  13.588 -0.1864  0.2394  0.1295
 8450ION    NA+12501   3.839   8.246  11.905  0.2577 -0.0457 -0.0534
 8451ION    NA+12502   6.718   2.173   5.478  0.2268 -0.3721  0.0095
 8452ION    NA+12503   7.623   2.832  11.846  0.1335  0.1418 -0.2157
 8453ION    NA+12504   0.472   1.668   1.578  0.0701 -0.0821  0.1078
 8454ION    NA+12505   0.824   0.240  13.032 -0.0420 -0.2128  0.0862
 8455ION    NA+12506   0.246   1.915   9.216  0.1803  0.2057  0.4221
 8456ION    NA+12507   4.714   7.993  12.756  0.0794  0.3164 -0.2898
 8457ION    NA+12508   0.421   8.580   3.179  0.1650  0.1543  0.1545
 8458ION    NA+12509   4.315   5.438   8.758 -0.0115  0.3198 -0.2143
 8459ION    NA+12510   3.960   4.389  11.248 -0.2058 -0.1799  0.3113
 8460ION    NA+12511   6.753   8.957  11.893 -0.3185  0.0056  0.2932
 8461ION    NA+12512   2.848   2.895   9.002 -0.0982 -0.3567 -0.2218
 8462ION    NA+12513   4.175   0.146   2.499  0.2917  0.0597  0.2729
 8463ION    NA+12514   6.342   0.673  10.280  0.0845 -0.1929  0.0518
 8464ION    NA+12515   2.546   8.482   2.791  0.1556  0.1486 -0.1420
 8465ION    NA+12516   9.649   0.632  10.517 -0.1207  0.2556 -0.0680
 8466ION    NA+12517   8.324   1.450  12.899  0.0181 -0.0876  0.3203
 8467ION    NA+12518   8.274   8.673   3.220 -0.0654 -0.0767 -0.1172
 8468ION    NA+12519   0.955   5.440   4.904 -0.1218  0.0890 -0.2920
 8469ION    NA+12520   9.901   9.098  13.643 -0.0237 -0.4871  0.0255
 8470ION    NA+12521   3.043   3.469  12.893 -0.2037  0.0599  0.1468
 8471ION    NA+12522   8.366   9.331   2.539 -0.0790  0.0467 -0.1068
 8472ION    NA+12523   5.346   7.292   9.192 -0.2746 -0.0107  0.0991
 8473ION    NA+12524   9.084   8.170   3.152  0.0534  0.0194 -0.3372
 8474ION    NA+12525   9.965   7.625  10.535  0.0084 -0.0399 -0.2594
 8475ION    NA+12526   2.472   6.994  12.956 -0.1941  0.0262 -0.3803
 8476ION    NA+12527   4.706   0.198  13.687 -0.1633 -0.1932  0.1138
 8477ION    NA+12528   3.307  10.068   5.035 -0.0381  0.2570 -0.0436
 8478ION    NA+12529   7.895   9.853   3.194  0.0540 -0.0346  0.2481
 8479ION    NA+12530   4.906   1.992   4.451  0.0130  0.0659 -0.0900
 8480ION    NA+12531   8.995   4.181   9.040 -0.0011 -0.1287  0.1978
 8481ION    NA+12532   8.425   4.673   8.968  0.0516 -0.2212 -0.2685
 8482ION    NA+12533   6.537   0.827   5.139  0.1067  0.0353  0.3446
 8483ION    NA+12534   3.681   7.259   5.086 -0.1696 -0.0187  0.2676
 8484ION    NA+12535   4.992   4.584  11.252  0.0821 -0.0087 -0.2039
 8485ION    NA+12536   9.208   3.505  13.842 -0.1898  0.0393 -0.1695
 8486ION    NA+12537   7.149   5.997   2.782 -0.2654  0.1068 -0.1843
 8487ION    NA+12538   7.502  10.094   4.466 -0.0123 -0.0179  0.0600
 8488ION    NA+12539   7.145   7.197   4.749 -0.2259  0.2772 -0.2043
 8489ION    NA+12540   0.920   5.892   0.897  0.1248  0.2109 -0.0506
 8490ION    NA+12541   9.645   2.919   0.490  0.1884  0.1402 -0.1359
 8491ION    NA+12542   3.748   4.423   4.306  0.2452 -0.2291 -0.1063
 8492ION    NA+12543   9.538   6.151   4.137  0.3095  0.3232 -0.0514
 8493ION    NA+12544   5.894   3.251  12.761 -0.1423  0.1055  0.0969
 8494ION    NA+12545   1.053   2.704   1.086  0.2262  0.0623  0.2347
 8495ION    NA+12546   2.951   3.744  11.707  0.2427 -0.2313 -0.1907
 8496ION    NA+12547   7.954   9.899  12.560 -0.0212 -0.2428  0.1468
 8497ION    NA+12548   2.950   7.611  11.407  0.5389  0.2079 -0.1471
 8498ION    NA+12549   5.040   5.885   1.072  0.3784  0.0130 -0.0383
 8499ION    NA+12550   0.121   6.478   9.923 -0.1684  0.1134 -0.3336
 8500ION    NA+12551   5.980   8.644   9.345 -0.1169  0.0757 -0.0540
 8501ION    NA+12552   8.012   2.742   1.712  0.1578 -0.1426  0.0581
 8502ION    NA+12553   0.823   6.109   9.378 -0.0984 -0.0123 -0.4901
 8503ION    NA+12554   1.069   7.630   9.897 -0.0555 -0.1316 -0.3874
 8504ION    NA+12555   5.586   8.117   0.574  0.1413 -0.1833  0.1270
 8505ION    NA+12556   5.440   1.881   9.500  0.0537 -0.0833  0.0539
 8506ION    NA+12557  10.002   4.043   9.914  0.1130 -0.4271  0.1154
 8507ION    NA+12558   4.210   0.801  13.138  0.0909 -0.3247  0.0097
 8508ION    NA+12559   9.780   6.256   0.876  0.1640  0.0473  0.1061
 8509ION    NA+12560   0.761   3.475   3.570  0.1350 -0.2741  0.1298
 8510ION    NA+12561   6.844   2.819   0.319 -0.0517  0.0972 -0.0157
 8511ION    NA+12562   8.574   6.537   0.830 -0.0579 -0.0102  0.2711
 8512ION    NA+12563   1.130   8.558   0.578 -0.1829 -0.1436  0.2009
 8513ION    NA+12564   3.805   8.335  10.440 -0.0845 -0.1455  0.2268
 8514ION    NA+12565   4.095   3.762   3.779 -0.0307  0.1176  0.1644
 8515ION    NA+12566   4.362   4.433  13.837  0.2858 -0.2913  0.0054
 8516ION    NA+12567   7.245   9.216  10.229 -0.2459  0.4530 -0.3910
 8517ION    NA+12568   3.854   8.953  12.724 -0.0205  0.0143 -0.0496
 8518ION    NA+12569   7.927   0.600  12.357  0.3878 -0.0011  0.2969
 8519ION    NA+12570   9.143   3.221   4.588  0.1202 -0.0377 -0.3716
 8520ION    NA+12571   1.336   6.823   1.541  0.1564  0.0448  0.2486
 8521ION    NA+12572  10.147   0.519   3.327  0.0005 -0.0405  0.1450
 8522ION    NA+12573   8.565   6.562   9.783  0.3146 -0.1652  0.2746
 8523ION    NA+12574   7.994   2.277   4.643 -0.1206  0.0150 -0.2645
 8524ION    NA+12575   8.724   7.155   3.342  0.1965 -0.2109 -0.0076
 8525ION    NA+12576   2.172   6.292   4.886 -0.1733 -0.2041  0.2584
 8526ION    NA+12577   0.068   0.341  11.121  0.0440 -0.2727  0.1962
 8527ION    NA+12578  10.026   1.503   4.018  0.0859 -0.2203  0.0995
 8528ION    NA+12579   6.396   4.825  13.244  0.0201  0.0677  0.3108
 8529ION    NA+12580   2.980   6.903   3.863  0.1144 -0.2706 -0.1730
 8530ION    NA+12581   4.996   0.067   1.871  0.0356  0.0734  0.2700
 8531ION    NA+12582   9.280   8.628   3.451  0.1107 -0.1339  0.1849
 8532ION    NA+12583   6.364   4.893   2.431 -0.2478 -0.2399 -0.0025
 8533ION    NA+12584   1.170   6.340  11.885 -0.0511 -0.0320  0.1305
 8534ION    NA+12585   0.509   6.089  11.501 -0.1801 -0.0200 -0.2174
 8535ION    NA+12586   3.401   5.502   8.851 -0.2492  0.0026 -0.2200
 8536ION    NA+12587   2.284   2.260   2.485  0.0914 -0.1089 -0.0908
 8537ION    CL-12588   1.230   3.432   2.790 -0.1802  0.2703 -0.2243
 8538ION    CL-12589   4.897   4.584   9.973 -0.0344  0.1881  0.0556
 8539ION    CL-12590   7.042   8.663  11.538 -0.1334  0.3582 -0.1069
 8540ION    CL-12591   7.024   5.479   2.838 -0.3302  0.1806  0.0272
 8541ION    CL-12592   8.793   7.328  12.265 -0.0862 -0.1369 -0.0214
 8542ION    CL-12593   1.121   9.008   0.788  0.1601 -0.3181  0.2699
 8543ION    CL-12594   1.093   6.474   1.269  0.1606  0.0822  0.1961
 8544ION    CL-12595   8.195   9.488  12.616  0.1244  0.3829 -0.1896
 8545ION    CL-12596   3.548   2.257  10.418 -0.3766 -0.3198 -0.1467
 8546ION    CL-12597   6.611   1.339   5.052  0.0388 -0.0830  0.1967
 8547ION    CL-12598   4.008   8.851  11.837  0.1942 -0.1047  0.0650
 8548ION    CL-12599  10.024   0.766  10.948 -0.2744  0.0975 -0.1894
 8549ION    CL-12600   4.198   7.078   4.323  0.1968  0.1485 -0.2873
 8550ION    CL-12601   0.495   0.790   1.562  0.2422 -0.2830  0.3076
 8551ION    CL-12602   0.628   8.916   2.891 -0.1492 -0.2049  0.1493
 8552ION    CL-12603   4.224   0.728   9.249  0.0189  0.2021  0.3190
 8553ION    CL-12604   8.761   2.147  10.147 -0.0807 -0.0217 -0.0210
 8554ION    CL-12605   8.249   6.939   3.278 -0.0178  0.1372 -0.3576
 8555ION    CL-12606   1.443   8.156   1.489 -0.0400  0.0030 -0.0130
 8556ION    CL-12607   5.523   7.575   0.640  0.3501  0.1441 -0.0196
 8557ION    CL-12608   2.870   9.637   0.617  0.1984 -0.1059 -0.2078
 8558ION    CL-12609   0.984   7.317  13.015 -0.0697  0.0538  0.1721
 8559ION    CL-12610   4.937  10.050   1.359  0.0215  0.0642 -0.2288
 8560ION    CL-12611   9.921   9.553  13.965  0.2300  0.1589  0.0896
 8561ION    CL-12612   0.500   2.358   1.905 -0.1018 -0.0384 -0.0853
 8562ION    CL-12613   4.740   5.270  13.499 -0.0262 -0.1863  0.1248
 8563ION    CL-12614   1.533   4.144   9.887  0.0223  0.0522 -0.0717
 8564ION    CL-12615   2.668   7.617  12.929 -0.0786 -0.1270  0.2314
 8565ION    CL-12616   6.427   0.134   1.864  0.0435 -0.1805  0.0119
 8566ION    CL-12617   9.532   1.458   4.107 -0.0064  0.0008  0.0710
 8567ION    CL-12618   2.328   9.432  10.122  0.1356  0.1315 -0.0037
 8568ION    CL-12619   9.254   3.029   5.044 -0.0984  0.1986 -0.2063
 8569ION    CL-12620   0.819   8.160   0.705 -0.0460 -0.1276 -0.0852
 8570ION    CL-12621   9.428   3.016   9.437  0.0179 -0.1776  0.3846
 8571ION    CL-12622   2.892  10.048   4.284  0.0090  0.0660 -0.2349
 8572ION    CL-12623   0.081   8.063  10.749  0.1473 -0.1561  0.0028
 8573ION    CL-12624   3.353   5.609  13.482  0.0429  0.4540  0.0120
 8574ION    CL-12625   2.857   8.395   3.232 -0.1067  0.4237  0.2958
 8575ION    CL-12626   7.473  10.044  12.438 -0.0477 -0.0227 -0.2753
 8576ION    CL-12627   7.198   4.461   1.405  0.0689  0.0257 -0.1512
 8577ION    CL-12628   9.591   3.701   0.108  0.0136 -0.4176 -0.0180
 8578ION    CL-12629   2.468   8.551   4.506 -0.0693 -0.2299 -0.1169
 8579ION    CL-12630   4.644   2.339   4.214  0.2763  0.0786  0.0903
 8580ION    CL-12631   0.703   5.785  10.219 -0.0662 -0.1700 -0.3754
 8581ION    CL-12632  10.133   2.707   0.596 -0.2639 -0.1463 -0.1093
 8582ION    CL-12633   4.258   3.358   4.057 -0.0130 -0.3801 -0.2416
 8583ION    CL-12634   3.836   3.947   4.162  0.2105 -0.1289  0.1140
 8584ION    CL-12635   6.957   8.843  10.301 -0.0157 -0.3370  0.0739
 8585ION    CL-12636   8.218   4.225   9.507 -0.0789  0.1139 -0.0925
 8586ION    CL-12637   9.647   3.902   2.827  0.0708  0.1442 -0.2242
 8587ION    CL-12638   3.857   3.933  11.433 -0.0300 -0.0462 -0.5177
 8588ION    CL-12639   1.735   7.093   1.217 -0.1951  0.0813 -0.0959
 8589ION    CL-12640   5.546   6.000   1.112  0.0870 -0.2499  0.0391
 8590ION    CL-12641   3.924   7.516  10.444  0.1414 -0.2009  0.0768
 8591ION    CL-12642   7.485   5.483   9.716 -0.1035  0.0908  0.1664
 8592ION    CL-12643   9.339   0.437  10.197 -0.3593 -0.2410 -0.0939
 8593ION    CL-12644   0.277   1.406   3.653 -0.0658  0.2920  0.0372
 8594ION    CL-12645   4.845   4.084  11.192  0.0689  0.0521 -0.0209
 8595ION    CL-12646   5.917   7.882   9.937 -0.2416 -0.2386 -0.1382
 8596ION    CL-12647  10.050   6.862  10.271  0.0913  0.1474  0.1366
 8597ION    CL-12648   7.110   9.222   3.085 -0.1840  0.0102  0.1895
 8598ION    CL-12649   6.886   2.393   5.068  0.0540  0.0074  0.1153
 8599ION    CL-12650   8.211   9.225   2.053  0.4180  0.1351 -0.0086
 8600ION    CL-12651   8.962   0.014  11.225 -0.0583  0.2289 -0.0094
 8601ION    CL-12652   5.796   8.513  10.936 -0.1267  0.1931  0.1625
 8602ION    CL-12653   0.073  10.113  10.819 -0.0461  0.1189 -0.3814
 8603ION    CL-12654   0.195   0.411   3.781  0.1401 -0.0728 -0.1074
 8604ION    CL-12655   0.559   4.399  10.162  0.2454 -0.0915 -0.0895
 8605ION    CL-12656   2.827   3.137  13.209 -0.1372 -0.0276 -0.0488
 8606ION    CL-12657   9.851   5.892  12.769 -0.3699 -0.0673 -0.1072
 8607ION    CL-12658   6.850   4.589  13.221 -0.0223  0.0398  0.0793
 8608ION    CL-12659   5.682   5.149   4.297 -0.2037  0.2043  0.2070
 8609ION    CL-12660   9.587   3.466   4.525  0.1332 -0.0060 -0.0262
 8610ION    CL-12661   3.293   7.576   4.408 -0.1379  0.2026  0.1918
 8611ION    CL-12662   9.250   7.371   2.916  0.3737  0.1245  0.0309
 8612ION    CL-12663   8.904   0.824  11.682 -0.0511  0.2509 -0.0961
 8613ION    CL-12664   7.101  10.160  10.283 -0.0604  0.1803 -0.1413
 8614ION    CL-12665  10.166   3.639   9.664 -0.0570  0.1165  0.2961
 8615ION    CL-12666   7.043   2.890  10.354  0.0852  0.0153 -0.0270
 8616ION    CL-12667   4.521   9.892   2.614  0.1407 -0.3013 -0.2342
 8617ION    CL-12668   6.507   7.511  10.539  0.1457  0.1909  0.4788
 8618ION    CL-12669   3.995   4.644   0.086 -0.0463 -0.2080  0.3224
 8619ION    CL-12670   4.211   0.338  13.396 -0.1604 -0.1031 -0.1520
 8620ION    CL-12671   0.048   9.848   3.060  0.1671 -0.0078  0.3238
 8621ION    CL-12672   6.597   6.175  12.489 -0.1857 -0.1163  0.2688
 8622ION    CL-12673   8.934   6.225   1.026 -0.1721  0.3372  0.1867
 8623ION    CL-12674   5.414   1.252  10.325  0.0291 -0.1245 -0.0868
 8624ION    CL-12675   3.766   9.425  12.419  0.3354 -0.1017 -0.1755
 8625ION    CL-12676   0.605   6.330  11.948  0.0744  0.0056 -0.1800
  10.17583  10.17583  14.00085
