Protein in INSANE! Membrane UpperLeaflet>POPC=1.0 LowerLeaflet>POPC=1.0
11530
    1AU     AUC    1   7.326  10.443   5.813 -0.0106 -0.0306 -0.0525
    1AU     AUC    2   7.247  10.761   5.711  0.0951 -0.0506 -0.0364
    1AU     AUC    3   7.561  10.595   5.704 -0.0417 -0.0041 -0.0312
    1AU     AUC    4   7.079  10.258   5.951 -0.0490 -0.0190 -0.0164
    1AU     AUC    5   7.404  10.131   5.909  0.0178 -0.0204  0.0025
    1AU     AUC    6   7.339  10.354   6.127  0.0332 -0.0043  0.0156
    1AU     AUC    7   7.421  10.653   5.985  0.0140  0.0204  0.0327
    1AU     AUC    8   7.186  10.199   5.649 -0.0178 -0.0144  0.0575
    1AU     AUC    9   7.301  10.512   5.517  0.0003 -0.0400  0.0253
    1AU     AUC   10   7.544  10.276   5.623 -0.0625 -0.0854  0.1629
    1AU     AUC   11   7.615  10.382   5.953 -0.0117 -0.0067 -0.0333
    1AU     AUC   12   7.017  10.525   5.684 -0.0317  0.0419  0.0683
    1AU     AUC   13   7.110  10.641   5.988 -0.0264  0.0363 -0.0287
    1AU     AUC   14   7.222  11.088   5.636 -0.0797 -0.0146 -0.0223
    1AU     AUC   15   7.497  10.987   5.566 -0.0954 -0.0218  0.0198
    1AU     AUC   16   7.833  10.759   5.540  0.0519 -0.0025 -0.0521
    1AU     AUC   17   6.822  10.051   6.073  0.0611  0.0303 -0.0589
    1AU     AUC   18   7.131   9.908   6.055 -0.0155 -0.0241  0.1016
    1AU     AUC   19   7.468   9.826   5.992  0.0248 -0.0595 -0.0727
    1AU     AUC   20   7.346  10.333   6.478  0.0085 -0.0214 -0.0875
    1AU     AUC   21   7.450  10.673   6.349  0.0881 -0.1340  0.0164
    1AU     AUC   22   7.569  10.912   6.233  0.0891  0.0308  0.0430
    1AU     AUC   23   7.070   9.979   5.439 -0.0588  0.0413 -0.0170
    1AU     AUC   24   7.106  10.245   5.308  0.0993 -0.0098  0.0181
    1AU     AUC   25   7.219  10.582   5.152 -0.0318 -0.0023  0.0571
    1AU     AUC   26   7.757  10.134   5.383 -0.0519  0.0159  0.0357
    1AU     AUC   27   7.861  10.184   5.708 -0.0161 -0.0289  0.0517
    1AU     AUC   28   7.919  10.317   6.052 -0.0265 -0.0301 -0.0245
    1AU     AUC   29   6.678  10.569   5.568  0.0047 -0.0806  0.0267
    1AU     AUC   30   6.765  10.704   5.868 -0.0191  0.0006 -0.0143
    1AU     AUC   31   6.891  10.841   6.169  0.0302  0.0292  0.0589
    1AU     AUC   32   7.789  10.463   5.435  0.0340 -0.0188  0.0110
    1AU     AUC   33   7.940  10.538   5.775  0.0943  0.0457 -0.0650
    1AU     AUC   34   6.926  10.850   5.596  0.0375  0.0517 -0.0739
    1AU     AUC   35   7.018  11.003   5.909 -0.0302 -0.1196  0.1620
    1AU     AUC   36   7.648   9.972   5.683  0.0548  0.0165  0.0197
    1AU     AUC   37   7.725  10.060   6.047  0.0972  0.0127  0.1174
    1AU     AUC   38   6.742  10.276   5.837 -0.0326  0.0679 -0.0945
    1AU     AUC   39   6.837  10.454   6.141 -0.0114  0.0271 -0.0486
    1AU     AUC   40   7.428  11.014   5.900  0.0056 -0.0974 -0.0542
    1AU     AUC   41   7.714  10.826   5.867 -0.0306 -0.0606 -0.0251
    1AU     AUC   42   7.083  10.200   6.304 -0.1258 -0.0082  0.0302
    1AU     AUC   43   7.407  10.066   6.261  0.0808  0.0872 -0.0075
    1AU     AUC   44   7.225  10.838   5.388 -0.0900  0.0603  0.0641
    1AU     AUC   45   7.505  10.704   5.318  0.0247  0.0146  0.0054
    1AU     AUC   46   6.958   9.964   5.779  0.0314  0.0356 -0.0441
    1AU     AUC   47   7.304   9.870   5.700  0.0848  0.0831 -0.1125
    1AU     AUC   48   7.648  10.352   6.315 -0.0729  0.0301  0.0777
    1AU     AUC   49   7.744  10.614   6.166  0.0255 -0.0768 -0.0658
    1AU     AUC   50   7.403  10.036   5.388  0.0772 -0.0228 -0.0270
    1AU     AUC   51   7.458  10.340   5.246 -0.0255 -0.0718  0.0325
    1AU     AUC   52   7.099  10.582   6.319 -0.0184  0.1180  0.0132
    1AU     AUC   53   7.201  10.911   6.172  0.0856  0.1284  0.0405
    1AU     AUC   54   6.833  10.225   5.516 -0.1420  0.1141  0.0181
    1AU     AUC   55   6.898  10.579   5.368  0.0141 -0.0010 -0.0345
    1AU    AUSL   56   8.124  10.631   5.435  0.0488  0.0029 -0.0232
    1AU    AUSL   57   7.908  10.358   5.085 -0.0314  0.0423 -0.1086
    1AU     AUL   58   8.175  10.635   5.078  0.0747  0.0415 -0.0118
    1AU       S   59   7.907  10.545   4.704 -0.0247  0.0204  0.1100
    1AU     LIG   60   8.276  10.384   4.574 -0.1702  0.3881 -0.1220
    1AU     LIG   61   8.343   9.944   4.245 -0.3783 -0.1336 -0.0080
    1AU       S   62   8.469  10.377   5.293 -0.3243 -0.0540  0.0013
    1AU     LIG   63   8.883  10.611   5.368 -0.2503 -0.1600 -0.5931
    1AU     LIG   64   9.118  10.907   5.013  0.0225 -0.3089  0.0385
    1AU    AUSL   65   8.026  10.186   5.461 -0.0484  0.0058  0.0248
    1AU    AUSL   66   8.033  10.083   5.893 -0.0265  0.0488  0.0278
    1AU     AUL   67   8.330   9.957   5.690 -0.0386  0.0221  0.0414
    1AU       S   68   8.298  10.200   5.298  0.1048  0.2013  0.2515
    1AU     LIG   69   8.180   9.945   5.055  0.1810  0.1415 -0.6294
    1AU     LIG   70   8.369   9.674   4.732 -0.0020  0.3755  0.1080
    1AU       S   71   8.143   9.236   5.548 -0.2221  0.0059 -0.3500
    1AU     LIG   72   7.797   8.982   5.754  0.2053  0.1430  0.0447
    1AU     LIG   73   7.718   8.591   5.719  0.1362  0.4192  0.3547
    1AU    AUSL   74   8.279  10.394   5.749  0.0375  0.0343 -0.0462
    1AU    AUSL   75   8.171  10.796   5.828  0.0133  0.0068 -0.0604
    1AU     AUL   76   8.396  10.780   5.525  0.1103 -0.0796 -0.0628
    1AU       S   77   8.518  10.370   5.761 -0.1201 -0.3941  0.0254
    1AU     LIG   78   8.872  10.158   5.766  0.3368  0.0709 -0.0264
    1AU     LIG   79   9.034   9.791   5.631  0.3240 -0.1373 -0.0310
    1AU       S   80   8.472  10.811   6.004 -0.2144  0.0481  0.3821
    1AU     LIG   81   8.777  11.059   5.777 -0.4045  0.1314 -0.2091
    1AU     LIG   82   9.163  11.115   5.586 -0.0124  0.0283 -0.0584
    1AU    AUSL   83   6.826  11.220   5.738  0.0290  0.0475 -0.0039
    1AU    AUSL   84   6.996  11.296   6.176 -0.1029 -0.0437  0.0761
    1AU     AUL   85   6.706  11.480   5.968  0.0094  0.0603 -0.1555
    1AU       S   86   6.351  11.262   5.728 -0.3126 -0.0025  0.0125
    1AU     LIG   87   6.052  11.700   5.700 -0.1300  0.0421 -0.3277
    1AU     LIG   88   5.851  12.036   5.866  0.0237 -0.0015  0.1508
    1AU       S   89   7.106  11.668   6.147 -0.1560  0.0040 -0.0971
    1AU     LIG   90   7.209  11.903   6.419  0.1371 -0.0322 -0.3078
    1AU     LIG   91   7.060  12.019   6.832  0.2258  0.1894 -0.2777
    1AU    AUSL   92   6.613  10.864   5.686 -0.0095 -0.0352  0.0280
    1AU    AUSL   93   7.012  11.003   5.411  0.0273  0.0265  0.1182
    1AU     AUL   94   6.726  11.237   5.454  0.0148  0.0178 -0.1008
    1AU       S   95   6.556  11.081   4.838  0.0172  0.0789  0.2968
    1AU     LIG   96   6.278  11.397   4.699  0.1669  0.2811  0.2830
    1AU     LIG   97   6.469  11.715   4.431  0.0789  0.4651  0.2704
    1AU       S   98   6.268  10.957   5.515 -0.4846 -0.2661 -0.0324
    1AU     LIG   99   6.031  10.590   5.438 -0.2403 -0.1950 -0.1174
    1AU     LIG  100   5.985  10.172   5.341  0.2345 -0.0990  0.2256
    1AU    AUSL  101   6.670  11.027   6.089  0.1091 -0.0704  0.0027
    1AU    AUSL  102   6.374  10.534   5.770  0.0055  0.0445 -0.0120
    1AU     AUL  103   6.318  10.870   5.965 -0.0348  0.0781 -0.0899
    1AU       S  104   6.039  10.501   5.913 -0.3315 -0.0923 -0.2004
    1AU     LIG  105   5.946  10.744   6.248 -0.1076 -0.4328 -0.1152
    1AU     LIG  106   5.702  10.678   6.542  0.4197 -0.1355 -0.0805
    1AU       S  107   6.130  11.217   5.574  0.0417  0.0483 -0.3734
    1AU     LIG  108   5.845  10.988   5.856  0.2858  0.3636  0.1489
    1AU     LIG  109   5.462  10.909   5.945  0.0231  0.1058  0.0305
    1AU    AUSL  110   7.816   9.701   5.994  0.0064 -0.0137  0.1173
    1AU    AUSL  111   7.963  10.094   6.296  0.0308 -0.0038  0.0197
    1AU     AUL  112   8.158   9.830   6.130 -0.0471  0.0445  0.0171
    1AU       S  113   8.188   9.449   5.891  0.3778  0.2401  0.3784
    1AU     LIG  114   8.606   9.444   5.766  0.2190  0.3161  0.1131
    1AU     LIG  115   8.934   9.344   5.425 -0.1142 -0.1903  0.0264
    1AU       S  116   8.024   9.856   6.638  0.1190  0.4394 -0.1239
    1AU     LIG  117   8.448   9.787   6.603 -0.0414  0.0332  0.0930
    1AU     LIG  118   8.800   9.778   6.891 -0.6080  0.0388 -0.0796
    1AU    AUSL  119   7.951   9.768   5.577 -0.0237 -0.0614  0.0599
    1AU    AUSL  120   7.529   9.730   5.674  0.0001  0.0558  0.0015
    1AU     AUL  121   7.716   9.475   5.781  0.0574 -0.0002  0.0178
    1AU       S  122   7.730   9.371   5.361 -0.0987  0.1829  0.3385
    1AU     LIG  123   7.838   8.876   5.240 -0.0153  0.0266  0.0820
    1AU     LIG  124   7.758   8.481   5.204 -0.1528 -0.2779 -0.0463
    1AU       S  125   8.142   9.503   5.632  0.0237  0.1975 -0.3078
    1AU     LIG  126   8.181   9.426   5.127 -0.0437  0.0758 -0.0882
    1AU     LIG  127   8.035   9.174   4.802 -0.3338  0.1519 -0.1863
    1AU    AUSL  128   6.454  10.217   6.058 -0.0528 -0.0356  0.0349
    1AU    AUSL  129   6.655  10.252   5.611  0.0290 -0.0955 -0.0409
    1AU     AUL  130   6.304  10.174   5.685  0.0422  0.0585  0.0419
    1AU       S  131   6.142  10.096   6.134 -0.3505 -0.0856  0.0929
    1AU     LIG  132   6.040   9.687   6.366  0.0362 -0.1931  0.0996
    1AU     LIG  133   6.129   9.323   6.553 -0.2013 -0.3405  0.0233
    1AU       S  134   6.158   9.632   5.838  0.3409  0.2143  0.3087
    1AU     LIG  135   5.925   9.261   5.618  0.1224 -0.1147 -0.3217
    1AU     LIG  136   5.767   8.848   5.398  0.2639 -0.0161 -0.0772
    1AU    AUSL  137   6.669  10.604   6.091 -0.0250 -0.0687  0.0368
    1AU    AUSL  138   6.781  10.238   6.323  0.0806 -0.0471  0.0113
    1AU     AUL  139   6.376  10.492   6.242 -0.0410  0.1047 -0.0318
    1AU       S  140   6.530  10.176   6.524  0.0409  0.3229 -0.2841
    1AU     LIG  141   6.209  10.009   6.727  0.4042 -0.0190  0.3139
    1AU     LIG  142   6.102   9.706   7.024 -0.0846  0.4520  0.1476
    1AU       S  143   5.960  10.241   6.029 -0.3355 -0.0441  0.3324
    1AU     LIG  144   5.782   9.891   5.868  0.0807  0.0187 -0.0742
    1AU     LIG  145   5.359   9.857   5.749 -0.0796 -0.3720  0.1603
    1AU    AUSL  146   7.742  11.214   6.034 -0.0348 -0.0193 -0.0107
    1AU    AUSL  147   7.239  11.312   5.798  0.0009 -0.1136 -0.0008
    1AU     AUL  148   7.564  11.524   6.057 -0.1062  0.0021  0.0209
    1AU       S  149   7.163  11.571   5.836 -0.1227 -0.2180 -0.0918
    1AU     LIG  150   6.959  11.738   5.370  0.3260 -0.0406  0.0853
    1AU     LIG  151   7.020  11.993   5.008 -0.0122  0.0310 -0.2045
    1AU       S  152   8.302  11.307   5.712 -0.4724  0.0185  0.4003
    1AU     LIG  153   8.475  11.366   6.094  0.2833 -0.1715  0.2646
    1AU     LIG  154   8.943  11.509   6.160 -0.0658 -0.0773  0.2550
    1AU    AUSL  155   7.612  11.340   5.628 -0.0078  0.1510  0.0159
    1AU    AUSL  156   7.742  11.093   5.277  0.0007  0.0508 -0.0981
    1AU     AUL  157   7.806  11.496   5.291 -0.0063  0.0350  0.1143
    1AU       S  158   8.000  11.440   5.693  0.0358 -0.4350 -0.4438
    1AU     LIG  159   8.226  11.929   5.573 -0.0049  0.0850 -0.5641
    1AU     LIG  160   8.186  12.140   5.240 -0.2776  0.2102 -0.0848
    1AU       S  161   7.559  11.301   4.930  0.0990  0.1675 -0.0321
    1AU     LIG  162   7.536  11.690   4.773  0.2922  0.0398  0.4317
    1AU     LIG  163   7.449  12.006   4.616  0.3071  0.2053 -0.1530
    1AU    AUSL  164   7.827  10.965   5.662 -0.0174  0.0490  0.0180
    1AU    AUSL  165   7.827  10.810   6.101  0.0760 -0.0030 -0.0370
    1AU     AUL  166   8.043  11.087   6.013 -0.0144 -0.0392  0.0447
    1AU       S  167   8.659  10.714   6.156  0.2897 -0.4233  0.1118
    1AU     LIG  168   8.558  11.024   6.469  0.2108  0.5606  0.0327
    1AU     LIG  169   8.166  11.305   6.498  0.1013 -0.0809  0.1698
    1AU       S  170   8.126  11.201   5.538  0.0620  0.3352 -0.1459
    1AU     LIG  171   8.230  11.122   5.111  0.0043  0.2816  0.1163
    1AU     LIG  172   8.062  11.238   4.671  0.2002  0.1055 -0.0119
    1AU    AUSL  173   7.252  10.038   6.554  0.0929 -0.0390 -0.0636
    1AU    AUSL  174   7.648   9.814   6.357  0.0167 -0.0645  0.0050
    1AU     AUL  175   7.433   9.709   6.665 -0.0992 -0.0073 -0.0328
    1AU       S  176   7.867   9.680   6.485 -0.1565 -0.0522 -0.1576
    1AU     LIG  177   7.952   9.226   6.186  0.0985  0.1673 -0.0586
    1AU     LIG  178   8.348   8.984   5.939  0.3732  0.1646 -0.1886
    1AU       S  179   7.317  10.073   6.933  0.1630 -0.0008 -0.1956
    1AU     LIG  180   7.197  10.467   7.171  0.0778  0.1140 -0.0180
    1AU     LIG  181   7.203  10.500   7.522  0.1976  0.2600  0.1096
    1AU    AUSL  182   6.870   9.852   6.392  0.0968  0.0506  0.0455
    1AU    AUSL  183   7.011  10.341   6.713  0.0848  0.0104  0.1330
    1AU     AUL  184   6.920   9.969   6.694  0.0123  0.0009  0.0652
    1AU       S  185   6.544   9.667   6.375 -0.2747  0.3688 -0.2669
    1AU     LIG  186   6.607   9.688   6.819  0.1760 -0.2566  0.4363
    1AU     LIG  187   6.531   9.876   7.146  0.2893 -0.1538  0.2078
    1AU       S  188   6.728  10.343   6.946  0.2149  0.0725 -0.4882
    1AU     LIG  189   6.353  10.317   7.078 -0.1416 -0.2298  0.2124
    1AU     LIG  190   5.889  10.502   6.989  0.0178  0.1434 -0.3658
    1AU    AUSL  191   7.253   9.779   6.208 -0.0688 -0.0911  0.0093
    1AU    AUSL  192   6.895   9.613   6.045  0.0250 -0.0328  0.1161
    1AU     AUL  193   7.035   9.575   6.399 -0.0576  0.0753  0.0193
    1AU       S  194   6.870   9.243   6.076 -0.0212  0.3857  0.0765
    1AU     LIG  195   6.752   9.186   6.451  0.2125 -0.0556  0.0634
    1AU     LIG  196   6.762   8.959   6.818 -0.3738  0.1620  0.3066
    1AU       S  197   7.471   9.390   6.311 -0.1483 -0.3494  0.1128
    1AU     LIG  198   7.236   9.140   6.507  0.0133  0.0324  0.2488
    1AU     LIG  199   7.323   8.755   6.655  0.0736  0.3621 -0.4298
    1AU    AUSL  200   7.373  10.913   5.125  0.0333  0.0636 -0.0186
    1AU    AUSL  201   7.729  10.679   5.297 -0.0192  0.0097 -0.0547
    1AU     AUL  202   7.809  10.935   5.025 -0.1034 -0.0969 -0.0333
    1AU       S  203   7.422  11.080   4.861  0.3605 -0.2229 -0.4473
    1AU     LIG  204   7.190  11.215   4.611  0.2125  0.0625  0.0235
    1AU     LIG  205   6.818  11.296   4.332  0.1675  0.1624 -0.1273
    1AU       S  206   7.837  10.725   4.511  0.0465  0.0017 -0.0279
    1AU     LIG  207   7.599  11.153   4.448 -0.4239 -0.0683 -0.1458
    1AU     LIG  208   7.566  11.563   4.313  0.2688 -0.0263  0.4059
    1AU    AUSL  209   7.304  11.277   5.343 -0.0151 -0.0561  0.0332
    1AU    AUSL  210   6.991  10.815   4.983  0.0478  0.0086 -0.0152
    1AU     AUL  211   7.025  11.148   5.102  0.0075  0.0726  0.1055
    1AU       S  212   7.400  11.412   5.128 -0.0293  0.3205  0.4521
    1AU     LIG  213   7.419  11.747   5.257  0.0260  0.0236  0.4411
    1AU     LIG  214   7.681  11.943   5.533  0.0224 -0.0202  0.1037
    1AU       S  215   6.810  10.929   4.772 -0.0724  0.0688  0.0928
    1AU     LIG  216   6.824  10.599   4.506  0.2269  0.3831 -0.0725
    1AU     LIG  217   7.001  10.557   4.121 -0.4367 -0.2517  0.1390
    1AU    AUSL  218   7.052   9.742   5.652  0.0192  0.0474  0.0629
    1AU    AUSL  219   6.679   9.904   5.876  0.0716 -0.0406  0.0470
    1AU     AUL  220   6.804   9.503   5.732  0.1054 -0.0678  0.0218
    1AU       S  221   6.428   9.736   5.919  0.1009 -0.0426  0.0299
    1AU     LIG  222   6.401   9.294   6.123  0.0229  0.0265  0.1834
    1AU     LIG  223   6.130   8.926   6.134 -0.3903  0.0732  0.2624
    1AU       S  224   6.877   9.071   6.020 -0.0656 -0.4297 -0.0240
    1AU     LIG  225   7.111   8.693   6.182 -0.0456 -0.3802  0.1189
    1AU     LIG  226   6.887   8.313   6.191  0.2203 -0.0224  0.0721
    1AU    AUSL  227   7.289   9.496   5.912 -0.0918 -0.0408 -0.0110
    1AU    AUSL  228   7.303   9.609   5.343 -0.0422 -0.0020  0.1317
    1AU     AUL  229   7.274   9.407   5.613 -0.0536  0.0401 -0.0740
    1AU       S  230   7.478   9.379   5.168  0.1202 -0.2977  0.0147
    1AU     LIG  231   7.341   8.990   5.202  0.1191  0.0350  0.3202
    1AU     LIG  232   7.046   8.885   4.989 -0.3420 -0.3185 -0.1200
    1AU       S  233   7.141   9.177   6.039  0.3147 -0.1052  0.2084
    1AU     LIG  234   7.291   8.900   5.768 -0.0772  0.0382 -0.0937
    1AU     LIG  235   7.102   8.501   5.696  0.1556  0.0660 -0.1592
    1AU    AUSL  236   7.876  10.510   6.435  0.0068 -0.0658  0.1089
    1AU    AUSL  237   7.671  10.157   6.611  0.0274  0.0195  0.0017
    1AU     AUL  238   8.112  10.303   6.582  0.0814 -0.0174  0.0316
    1AU       S  239   7.837  10.022   6.799  0.3209 -0.0311 -0.1411
    1AU     LIG  240   7.846  10.234   7.145  0.4294 -0.3652 -0.2472
    1AU     LIG  241   7.667  10.505   7.364  0.4444  0.0226  0.3038
    1AU       S  242   8.037  10.677   6.862  0.1353  0.4752  0.2682
    1AU     LIG  243   8.450  10.593   6.740 -0.1278 -0.1001 -0.0694
    1AU     LIG  244   8.844  10.731   6.815 -0.2016  0.1316  0.0384
    1AU    AUSL  245   7.554  10.536   6.718 -0.0134 -0.1318 -0.0302
    1AU    AUSL  246   7.363  10.987   6.576  0.0446  0.0452 -0.0568
    1AU     AUL  247   7.467  10.772   6.949  0.0955  0.0125 -0.0455
    1AU       S  248   8.108  10.974   6.911  0.0626  0.1971 -0.2506
    1AU     LIG  249   8.080  11.430   7.032  0.0787  0.0265  0.4666
    1AU     LIG  250   8.208  11.664   7.524 -0.0501 -0.0753  0.1824
    1AU       S  251   7.174  11.142   6.869 -0.2449  0.0985 -0.5651
    1AU     LIG  252   7.050  10.942   7.282  0.2060  0.0733  0.1836
    1AU     LIG  253   6.894  10.912   7.689 -0.2473 -0.0228 -0.2082
    1AU    AUSL  254   7.774  10.920   6.502  0.0178  0.0847 -0.1151
    1AU    AUSL  255   8.154  10.510   6.137 -0.0355  0.0523  0.0253
    1AU     AUL  256   8.120  10.809   6.368  0.0611 -0.0315  0.0675
    1AU       S  257   8.437  10.509   6.181  0.1879  0.0529  0.0482
    1AU     LIG  258   8.546  10.144   6.195  0.0087  0.0059 -0.0763
    1AU     LIG  259   8.886   9.888   6.260 -0.2553 -0.0234 -0.2125
    1AU       S  260   7.854  10.959   6.727 -0.0292 -0.0310 -0.1566
    1AU     LIG  261   7.598  11.280   7.018 -0.1892 -0.1779 -0.1004
    1AU     LIG  262   7.425  11.272   7.491 -0.0519 -0.1761 -0.4012
    1AU    AUSL  263   7.526  10.176   5.165  0.0413 -0.0316  0.0598
    1AU    AUSL  264   7.495  10.547   4.951  0.0172 -0.0273  0.0981
    1AU     AUL  265   7.700  10.194   4.883 -0.1046  0.0916 -0.0039
    1AU       S  266   7.004   9.471   5.029  0.4335  0.0482 -0.3930
    1AU     LIG  267   7.213   9.409   4.749 -0.0938 -0.0741  0.4023
    1AU     LIG  268   7.446   9.011   4.531  0.1757 -0.0263 -0.0564
    1AU       S  269   7.574  10.638   4.743  0.0877 -0.6126  0.2971
    1AU     LIG  270   7.282  10.739   4.492  0.5233 -0.0854  0.1011
    1AU     LIG  271   7.177  11.017   4.105 -0.0477 -0.3500  0.4003
    1AU    AUSL  272   7.160   9.973   5.210 -0.0352  0.0255  0.1126
    1AU    AUSL  273   7.698   9.824   5.266  0.0433  0.0783 -0.0161
    1AU     AUL  274   7.434   9.794   5.037 -0.0185 -0.0354  0.0241
    1AU       S  275   6.906   9.671   5.108  0.0174 -0.1556 -0.1370
    1AU     LIG  276   6.497   9.614   5.090  0.2090 -0.1351 -0.0885
    1AU     LIG  277   6.166   9.369   5.150 -0.1936 -0.0704  0.2141
    1AU       S  278   7.700   9.338   5.087 -0.5183 -0.1235 -0.1295
    1AU     LIG  279   7.762   9.619   4.764 -0.3570  0.1511  0.1089
    1AU     LIG  280   7.975   9.939   4.518  0.2212  0.2973 -0.1133
    1AU    AUSL  281   7.176  10.277   4.883  0.0504 -0.0110 -0.0120
    1AU    AUSL  282   6.772  10.097   5.134  0.0148 -0.0450 -0.0260
    1AU     AUL  283   7.065   9.996   4.849  0.0372 -0.1626  0.0471
    1AU       S  284   6.596  10.059   4.839 -0.2379 -0.0097 -0.4240
    1AU     LIG  285   6.948  10.102   4.400  0.0482 -0.1126  0.1463
    1AU     LIG  286   7.269   9.929   4.071  0.1811  0.1200  0.1478
    1AU       S  287   6.875   9.381   5.274  0.1949 -0.2202  0.4201
    1AU     LIG  288   6.783   8.969   5.457 -0.2519 -0.1495  0.5310
    1AU     LIG  289   6.760   8.578   5.258  0.0015  0.1363 -0.0143
    1AU    AUSL  290   6.968  10.941   6.422  0.0720  0.0046 -0.0503
    1AU    AUSL  291   7.369  11.075   6.167  0.0555 -0.0914  0.0560
    1AU     AUL  292   7.234  11.303   6.452  0.0074 -0.1110 -0.0434
    1AU       S  293   6.794  11.109   6.592 -0.2730 -0.1038  0.0411
    1AU     LIG  294   6.470  11.323   6.430  0.0993 -0.0233  0.2579
    1AU     LIG  295   6.177  11.169   6.296  0.2032 -0.0720 -0.0604
    1AU       S  296   7.019  11.818   5.879  0.4316 -0.2696 -0.2812
    1AU     LIG  297   7.325  12.041   5.907  0.1594  0.3462  0.1929
    1AU     LIG  298   7.412  12.437   5.913 -0.0150  0.0669  0.0154
    1AU    AUSL  299   7.225  10.590   6.466  0.0557 -0.0746 -0.0313
    1AU    AUSL  300   6.732  10.606   6.504 -0.0635 -0.0293 -0.0584
    1AU     AUL  301   7.025  10.709   6.760  0.0470 -0.0027  0.0241
    1AU       S  302   6.885  11.281   6.846 -0.0074 -0.1125  0.0343
    1AU     LIG  303   6.880  11.602   6.668  0.1640 -0.0120 -0.2470
    1AU     LIG  304   6.599  11.873   6.408  0.0924  0.1827  0.1260
    1AU       S  305   6.561  10.490   6.684  0.0426  0.3148  0.2863
    1AU     LIG  306   6.203  10.669   6.659 -0.1363 -0.0300 -0.0358
    1AU     LIG  307   5.985  10.963   6.865 -0.1233 -0.2024  0.0409
    1AU    AUSL  308   6.497  10.415   5.264 -0.0947 -0.0750  0.0643
    1AU    AUSL  309   6.677   9.849   5.455 -0.0277 -0.0039 -0.0112
    1AU     AUL  310   6.445  10.062   5.272 -0.0090  0.0832 -0.0591
    1AU       S  311   6.378   9.688   5.568  0.5037 -0.2974 -0.2844
    1AU     LIG  312   6.415   9.220   5.604 -0.1509 -0.0235 -0.3966
    1AU     LIG  313   6.212   8.795   5.657 -0.0069  0.1167  0.1494
    1AU       S  314   6.454   9.972   4.777  0.1385  0.6888  0.3425
    1AU     LIG  315   6.290   9.830   4.410 -0.2295  0.0081  0.3270
    1AU     LIG  316   6.035  10.064   4.052  0.3553 -0.4218  0.5689
    1AU    AUSL  317   6.991  10.469   5.211 -0.0707 -0.0925 -0.0398
    1AU    AUSL  318   6.667  10.797   5.275 -0.0537  0.1000 -0.0149
    1AU     AUL  319   6.691  10.540   4.968 -0.0076  0.0215  0.0291
    1AU       S  320   6.496  10.218   4.635 -0.2784 -0.2545  0.2693
    1AU     LIG  321   6.089  10.283   4.475  0.0357 -0.1926 -0.0672
    1AU     LIG  322   6.096  10.641   4.178  0.3160 -0.1859  0.0945
    1AU       S  323   6.557  10.966   5.076  0.0538  0.0275 -0.1262
    1AU     LIG  324   6.122  11.038   5.109  0.3038 -0.1482 -0.2694
    1AU     LIG  325   5.737  11.077   5.305 -0.0519  0.0194 -0.1154
    2POPC   NC3  326   4.023   0.160   7.839  0.2414 -0.0258  0.1748
    2POPC   PO4  327   4.363   0.106   7.653  0.1696  0.0287 -0.0751
    2POPC   GL1  328   4.254   0.411   7.324 -0.1074  0.1999 -0.2601
    2POPC   GL2  329   4.175   0.729   7.283 -0.1454 -0.1177  0.2290
    2POPC   C1A  330   4.509   0.395   6.981 -0.1358  0.2112 -0.1059
    2POPC   D2A  331   4.770   0.348   6.590 -0.2724  0.0986  0.2981
    2POPC   C3A  332   5.095   0.646   6.548 -0.0919 -0.0491  0.0026
    2POPC   C4A  333   5.143   0.755   6.075 -0.4818  0.0252 -0.1762
    2POPC   C1B  334   4.185   0.944   6.912  0.3310 -0.2093  0.1100
    2POPC   C2B  335   4.211   0.917   6.421  0.0721 -0.0808  0.2643
    2POPC   C3B  336   4.449   1.343   6.126 -0.1426  0.0365  0.2920
    2POPC   C4B  337   4.322   1.604   5.768  0.2994 -0.2815  0.1906
    3POPC   NC3  338   3.511   6.136   8.146  0.3193 -0.5032  0.0840
    3POPC   PO4  339   3.905   6.164   8.158  0.2427 -0.1176  0.4946
    3POPC   GL1  340   3.887   5.908   7.683 -0.0356  0.0789 -0.1834
    3POPC   GL2  341   3.673   6.000   7.635  0.4764 -0.2507  0.4302
    3POPC   C1A  342   4.080   5.878   7.311 -0.1604 -0.0646  0.1428
    3POPC   D2A  343   4.138   5.738   6.885  0.2384 -0.0928 -0.1058
    3POPC   C3A  344   4.183   6.084   6.572  0.0674 -0.0841  0.3078
    3POPC   C4A  345   3.888   6.308   6.251 -0.1194  0.1504 -0.0129
    3POPC   C1B  346   3.629   5.939   7.174 -0.2018 -0.0955 -0.0684
    3POPC   C2B  347   3.595   5.992   6.691 -0.0491  0.2191 -0.1921
    3POPC   C3B  348   3.444   6.008   6.284 -0.2489  0.1539 -0.1108
    3POPC   C4B  349   3.536   5.862   5.967 -0.0296 -0.4832 -0.2596
    4POPC   NC3  350  10.124   9.570   7.595  0.1519  0.0046  0.1826
    4POPC   PO4  351  10.110   9.915   7.766 -0.2396  0.0675 -0.1335
    4POPC   GL1  352  10.290  10.082   7.351  0.2995  0.0062 -0.0112
    4POPC   GL2  353  10.516  10.304   7.191 -0.3426 -0.1537 -0.1252
    4POPC   C1A  354  10.334   9.924   6.839 -0.2035 -0.0772 -0.0401
    4POPC   D2A  355  10.359   9.720   6.531 -0.1031  0.0332 -0.3532
    4POPC   C3A  356  10.125   9.352   6.407  0.3746  0.0721 -0.4867
    4POPC   C4A  357   9.698   9.265   6.330 -0.2640 -0.0308  0.0321
    4POPC   C1B  358  10.206  10.401   6.850 -0.1569 -0.1344  0.1904
    4POPC   C2B  359  10.366  10.633   6.525  0.1299  0.0199 -0.2328
    4POPC   C3B  360  10.283  10.553   6.071  0.1111 -0.0327  0.5060
    4POPC   C4B  361  10.139  10.637   5.630 -0.2097 -0.0702  0.1752
    5POPC   NC3  362   0.642   9.045   7.623 -0.2504  0.1245  0.1361
    5POPC   PO4  363   1.003   8.854   7.772 -0.1925 -0.2709 -0.0424
    5POPC   GL1  364   1.059   8.936   7.341 -0.0053 -0.0258  0.3188
    5POPC   GL2  365   1.287   9.109   7.189 -0.1152 -0.1847 -0.0581
    5POPC   C1A  366   1.183   8.619   6.944 -0.2137 -0.0246  0.0032
    5POPC   D2A  367   0.846   8.390   6.661 -0.2180 -0.1583  0.1433
    5POPC   C3A  368   0.686   8.527   6.214  0.2378  0.3438 -0.3125
    5POPC   C4A  369   0.718   8.636   5.789 -0.0388  0.1523 -0.0046
    5POPC   C1B  370   1.588   8.838   7.030 -0.2582 -0.0381  0.0272
    5POPC   C2B  371   1.819   8.587   6.646 -0.0205 -0.0859 -0.2532
    5POPC   C3B  372   2.265   8.506   6.463 -0.3075 -0.0232 -0.2341
    5POPC   C4B  373   2.559   8.312   6.222  0.0744 -0.2257 -0.3218
    6POPC   NC3  374   2.279   9.604   7.780 -0.3980 -0.0274 -0.1077
    6POPC   PO4  375   2.102   9.179   7.879  0.6328 -0.2252  0.0921
    6POPC   GL1  376   2.147   9.310   7.443  0.2279  0.0055 -0.0489
    6POPC   GL2  377   1.974   9.708   7.363  0.0365 -0.0582 -0.1557
    6POPC   C1A  378   2.402   9.426   7.112  0.0083  0.0910  0.0187
    6POPC   D2A  379   2.666   9.232   6.813 -0.0277  0.1201  0.2430
    6POPC   C3A  380   2.464   9.077   6.408 -0.0528  0.2443  0.0241
    6POPC   C4A  381   2.093   8.877   6.194 -0.2328  0.0826 -0.4802
    6POPC   C1B  382   2.104   9.717   6.902  0.1851 -0.0850 -0.2074
    6POPC   C2B  383   2.369   9.559   6.584  0.0879 -0.1326  0.1514
    6POPC   C3B  384   2.165   9.387   6.169  0.1203  0.3650  0.0901
    6POPC   C4B  385   1.822   9.208   5.921  0.0782 -0.1605  0.0652
    7POPC   NC3  386   9.225   7.428   7.981  0.3288  0.1249  0.0813
    7POPC   PO4  387   9.540   7.562   7.962 -0.0135 -0.0106  0.2991
    7POPC   GL1  388   9.808   7.460   7.651  0.0664 -0.2012  0.0243
    7POPC   GL2  389   9.600   7.548   7.357 -0.1206  0.0762  0.0330
    7POPC   C1A  390   9.809   7.114   7.323 -0.1414 -0.2420 -0.0185
    7POPC   D2A  391   9.661   6.945   6.918 -0.2116 -0.1428  0.0677
    7POPC   C3A  392   9.928   7.212   6.505 -0.1053  0.1050 -0.3221
    7POPC   C4A  393  10.105   6.951   6.061 -0.1371  0.2403 -0.1756
    7POPC   C1B  394   9.666   7.461   6.912  0.1988 -0.2387  0.1482
    7POPC   C2B  395   9.538   7.598   6.500 -0.2383  0.3465  0.3324
    7POPC   C3B  396   9.379   7.424   6.165  0.0913  0.3373  0.3924
    7POPC   C4B  397   9.302   7.046   6.044  0.1376 -0.0753 -0.2708
    8POPC   NC3  398   5.713   6.463   8.040 -0.3935  0.1398  0.2190
    8POPC   PO4  399   6.141   6.253   8.080 -0.2231 -0.0099  0.1046
    8POPC   GL1  400   6.109   6.534   7.664  0.1471  0.1325 -0.0204
    8POPC   GL2  401   5.890   6.404   7.425  0.0770  0.0341 -0.0880
    8POPC   C1A  402   6.214   6.830   7.382 -0.1585 -0.0560  0.0932
    8POPC   D2A  403   6.119   7.043   7.021  0.2949 -0.2988  0.0275
    8POPC   C3A  404   6.011   6.758   6.707 -0.2669 -0.0165 -0.2533
    8POPC   C4A  405   6.030   6.209   6.625 -0.0834 -0.0996  0.0515
    8POPC   C1B  406   5.675   6.639   7.178 -0.0186 -0.0022  0.0810
    8POPC   C2B  407   5.406   6.822   6.874  0.1975  0.4026 -0.0677
    8POPC   C3B  408   5.427   6.882   6.472 -0.2114  0.0169 -0.1168
    8POPC   C4B  409   5.558   7.047   6.104 -0.3848 -0.0607 -0.0946
    9POPC   NC3  410  10.551   4.314   7.771  0.0686  0.1299  0.0594
    9POPC   PO4  411  10.333   3.871   7.637 -0.3069  0.2640  0.0591
    9POPC   GL1  412  10.274   3.669   7.249  0.1633 -0.2496 -0.1037
    9POPC   GL2  413  10.552   3.469   7.171 -0.1927  0.1099 -0.0321
    9POPC   C1A  414  10.192   3.426   6.820 -0.1388 -0.0294 -0.0094
    9POPC   D2A  415  10.237   3.447   6.471  0.2196  0.4041  0.0857
    9POPC   C3A  416  10.185   3.228   6.152  0.3508  0.2796 -0.2282
    9POPC   C4A  417  10.202   3.318   5.748 -0.1091 -0.0467 -0.0490
    9POPC   C1B  418  10.641   3.667   6.682  0.1689  0.1763 -0.0172
    9POPC   C2B  419  10.652   3.966   6.320  0.0788 -0.2194  0.0152
    9POPC   C3B  420  10.579   4.133   5.878  0.2154 -0.1350 -0.1642
    9POPC   C4B  421  10.617   4.092   5.461  0.3684 -0.1612 -0.0089
   10POPC   NC3  422   7.564   3.162   7.936  0.0737  0.1266 -0.1920
   10POPC   PO4  423   7.174   3.279   7.689 -0.1278  0.0882  0.2462
   10POPC   GL1  424   7.401   3.161   7.304 -0.1284 -0.1720  0.3027
   10POPC   GL2  425   7.160   2.979   7.271  0.0319  0.2480 -0.0978
   10POPC   C1A  426   7.696   3.278   6.962  0.0208 -0.1966 -0.0199
   10POPC   D2A  427   7.725   3.300   6.498  0.1340  0.0781 -0.1187
   10POPC   C3A  428   8.070   3.438   6.257  0.1308  0.1122  0.0166
   10POPC   C4A  429   8.405   3.386   5.991  0.0487 -0.2471 -0.2094
   10POPC   C1B  430   6.693   2.782   7.240  0.2368 -0.3351  0.2289
   10POPC   C2B  431   6.570   2.643   6.904 -0.1250 -0.2924  0.0801
   10POPC   C3B  432   6.741   2.736   6.506 -0.0422  0.0207  0.4483
   10POPC   C4B  433   6.755   3.080   6.228 -0.3581  0.1502 -0.1040
   11POPC   NC3  434   0.647   8.196   8.213 -0.0512 -0.2826 -0.0528
   11POPC   PO4  435   0.516   7.893   8.015 -0.4158 -0.0441 -0.0152
   11POPC   GL1  436   0.465   7.786   7.621 -0.1353 -0.1704 -0.1170
   11POPC   GL2  437   0.343   7.475   7.434  0.1630  0.2954 -0.3104
   11POPC   C1A  438   0.562   7.800   7.178 -0.0017 -0.0430  0.0814
   11POPC   D2A  439   0.361   7.830   6.782  0.0449 -0.0951  0.0456
   11POPC   C3A  440   0.343   8.249   6.627  0.2061  0.0990 -0.0352
   11POPC   C4A  441   0.183   8.454   6.295  0.1727 -0.2104 -0.0473
   11POPC   C1B  442   0.057   7.556   7.083  0.1773 -0.4101 -0.2753
   11POPC   C2B  443  -0.130   7.554   6.638  0.1659  0.0269  0.1086
   11POPC   C3B  444  -0.359   7.387   6.242 -0.4435  0.2751 -0.2496
   11POPC   C4B  445  -0.278   7.451   5.862 -0.0155 -0.1931 -0.1356
   12POPC   NC3  446   6.280   0.236   8.906  0.1899 -0.2059 -0.0372
   12POPC   PO4  447   6.665   0.274   8.966  0.0717  0.1441  0.1001
   12POPC   GL1  448   6.788   0.176   8.642  0.1278 -0.0209  0.3134
   12POPC   GL2  449   6.897  -0.007   8.512  0.0102  0.0064 -0.2287
   12POPC   C1A  450   6.639   0.255   8.209  0.0491  0.2450  0.3412
   12POPC   D2A  451   6.525   0.542   7.859 -0.0918  0.1033  0.1271
   12POPC   C3A  452   6.654   0.674   7.425  0.1763  0.1062  0.1100
   12POPC   C4A  453   7.050   0.794   7.277  0.3613  0.0002  0.0278
   12POPC   C1B  454   6.544  -0.262   8.225  0.1619 -0.2592  0.0313
   12POPC   C2B  455   6.420  -0.572   7.887 -0.2676  0.0907 -0.3259
   12POPC   C3B  456   6.193  -0.721   7.552  0.1420 -0.0386 -0.1068
   12POPC   C4B  457   5.912  -0.994   7.454  0.2146  0.3258 -0.1970
   13POPC   NC3  458   8.567   9.856   8.673 -0.2057  0.2672 -0.2318
   13POPC   PO4  459   8.845   9.567   8.467 -0.3617  0.2255 -0.1752
   13POPC   GL1  460   8.891   9.478   8.010  0.2236 -0.0418 -0.2020
   13POPC   GL2  461   8.988   9.127   7.922  0.0308  0.1098  0.1083
   13POPC   C1A  462   8.629   9.650   7.773  0.1569  0.0412  0.3484
   13POPC   D2A  463   8.596   9.853   7.382  0.2622 -0.0490 -0.0112
   13POPC   C3A  464   8.120   9.768   7.314  0.4047 -0.0805  0.1215
   13POPC   C4A  465   7.909   9.574   7.042  0.1790 -0.0163  0.1301
   13POPC   C1B  466   8.827   9.119   7.605 -0.1415  0.3542 -0.0364
   13POPC   C2B  467   8.647   8.967   7.242  0.0520 -0.1155  0.1376
   13POPC   C3B  468   8.375   8.903   6.842 -0.0675  0.2111 -0.3405
   13POPC   C4B  469   8.351   8.954   6.443 -0.2563 -0.2679  0.1512
   14POPC   NC3  470   8.892   8.293   8.322 -0.1755 -0.0044  0.2287
   14POPC   PO4  471   9.122   7.814   8.255 -0.1972  0.0962  0.0440
   14POPC   GL1  472   9.229   7.952   7.891 -0.0133  0.0736  0.0050
   14POPC   GL2  473   9.583   8.058   7.878 -0.3763  0.5373  0.0185
   14POPC   C1A  474   8.880   8.005   7.593 -0.1496  0.2399  0.0788
   14POPC   D2A  475   8.411   8.123   7.487  0.1633 -0.2914 -0.2548
   14POPC   C3A  476   8.210   8.460   7.732 -0.2272  0.2129 -0.1864
   14POPC   C4A  477   7.833   8.536   8.009  0.5296 -0.1546  0.0518
   14POPC   C1B  478   9.346   8.191   7.476 -0.0413 -0.1881 -0.2590
   14POPC   C2B  479   9.109   8.260   7.132 -0.0709  0.0672 -0.0990
   14POPC   C3B  480   8.681   8.444   7.001 -0.1730 -0.3431  0.5970
   14POPC   C4B  481   8.479   8.422   6.552  0.0046 -0.1316  0.1841
   15POPC   NC3  482   9.303   9.371   8.275  0.0934  0.1032  0.1340
   15POPC   PO4  483   9.262   9.771   7.987 -0.1538 -0.2019 -0.1338
   15POPC   GL1  484   9.530  10.005   7.658  0.3691 -0.3228  0.0727
   15POPC   GL2  485   9.699   9.724   7.423 -0.0793  0.0004  0.0689
   15POPC   C1A  486   9.632  10.159   7.168  0.0173  0.0003  0.1804
   15POPC   D2A  487   9.689  10.230   6.696  0.3454  0.2173  0.0572
   15POPC   C3A  488  10.023  10.131   6.286 -0.1445  0.5851  0.1283
   15POPC   C4A  489  10.385   9.966   5.973 -0.2253 -0.0748  0.0266
   15POPC   C1B  490   9.817   9.712   6.965 -0.4482 -0.3133 -0.2688
   15POPC   C2B  491   9.825   9.721   6.553 -0.3804 -0.2281 -0.0914
   15POPC   C3B  492   9.912   9.671   6.109 -0.0009  0.1457  0.1072
   15POPC   C4B  493   9.902   9.909   5.717  0.3521 -0.0421 -0.1026
   16POPC   NC3  494   2.100   2.345   7.998 -0.0712  0.4577 -0.0694
   16POPC   PO4  495   1.798   2.506   7.844  0.2574 -0.0237  0.0069
   16POPC   GL1  496   1.884   2.773   7.672  0.1020 -0.3110  0.0597
   16POPC   GL2  497   1.773   2.749   7.368  0.1679 -0.1478 -0.0565
   16POPC   C1A  498   2.277   2.885   7.412  0.0985 -0.0234  0.0651
   16POPC   D2A  499   2.646   3.008   7.140  0.2268  0.3282  0.0959
   16POPC   C3A  500   2.434   3.022   6.808 -0.1036 -0.1553 -0.1533
   16POPC   C4A  501   1.967   3.103   6.606  0.0992  0.2064 -0.5119
   16POPC   C1B  502   1.951   2.796   6.968 -0.1391  0.1528 -0.1908
   16POPC   C2B  503   1.769   2.606   6.626 -0.0269 -0.0365  0.3401
   16POPC   C3B  504   1.851   2.641   6.346 -0.2337  0.2834  0.0095
   16POPC   C4B  505   1.984   2.476   5.926  0.0942  0.0665 -0.0595
   17POPC   NC3  506   7.462   6.258   7.644 -0.0464 -0.1673 -0.1020
   17POPC   PO4  507   7.039   6.088   7.657 -0.1916  0.0809  0.0216
   17POPC   GL1  508   6.873   5.851   7.385  0.0680 -0.0672  0.3979
   17POPC   GL2  509   6.525   5.723   7.500  0.0288 -0.2060  0.0035
   17POPC   C1A  510   6.736   5.658   7.012 -0.0051 -0.3169  0.0030
   17POPC   D2A  511   6.608   5.851   6.537 -0.0349  0.2514 -0.1852
   17POPC   C3A  512   6.728   6.268   6.300 -0.2863  0.1376 -0.0067
   17POPC   C4A  513   7.107   6.293   6.010 -0.0980 -0.1195  0.0544
   17POPC   C1B  514   6.360   5.506   7.255  0.0698 -0.2273 -0.0793
   17POPC   C2B  515   6.389   5.358   6.846 -0.1790 -0.1346  0.1533
   17POPC   C3B  516   6.439   4.938   6.572 -0.2283 -0.0089 -0.1296
   17POPC   C4B  517   6.458   4.495   6.431  0.0741  0.0251  0.0735
   18POPC   NC3  518   7.432   9.318   8.697  0.0226  0.2732 -0.1879
   18POPC   PO4  519   7.873   9.365   8.834  0.0280  0.2239 -0.0643
   18POPC   GL1  520   7.872   9.372   8.380  0.1039 -0.2071  0.2931
   18POPC   GL2  521   7.806   9.632   8.234  0.1002 -0.0163 -0.2609
   18POPC   C1A  522   7.760   9.238   7.930 -0.0737 -0.3614  0.0805
   18POPC   D2A  523   7.725   9.382   7.463 -0.0820 -0.0699  0.1241
   18POPC   C3A  524   7.499   9.707   7.245  0.2998 -0.1238 -0.1334
   18POPC   C4A  525   7.008   9.942   7.207 -0.0224  0.0385 -0.1430
   18POPC   C1B  526   7.381   9.676   8.107  0.2651  0.1652  0.0455
   18POPC   C2B  527   7.301   9.618   7.697  0.1871 -0.0413 -0.0628
   18POPC   C3B  528   7.169   9.333   7.483  0.1731 -0.2357 -0.1997
   18POPC   C4B  529   7.306   8.931   7.235  0.1648 -0.2155 -0.5636
   19POPC   NC3  530   4.697   6.394   8.113  0.0144  0.2793  0.0824
   19POPC   PO4  531   4.721   5.921   8.118  0.4395  0.2382 -0.0357
   19POPC   GL1  532   4.580   5.950   7.769 -0.2082  0.2230  0.2992
   19POPC   GL2  533   4.324   6.138   7.807  0.1293  0.3245  0.0328
   19POPC   C1A  534   4.701   6.089   7.311 -0.0682 -0.1842 -0.1944
   19POPC   D2A  535   4.548   5.967   6.859  0.1948 -0.1174 -0.0619
   19POPC   C3A  536   4.728   6.110   6.463  0.1322 -0.0324  0.2645
   19POPC   C4A  537   4.841   5.874   6.087 -0.2111  0.2412  0.1634
   19POPC   C1B  538   4.379   6.480   7.528  0.0086  0.0740  0.1616
   19POPC   C2B  539   4.522   6.498   7.085  0.3976 -0.0916  0.1847
   19POPC   C3B  540   4.601   6.573   6.635  0.0127 -0.0302 -0.0647
   19POPC   C4B  541   4.329   6.630   6.373  0.0724  0.2061  0.1863
   20POPC   NC3  542   3.910   2.778   8.142  0.0514 -0.1224  0.1743
   20POPC   PO4  543   4.015   3.145   7.846 -0.0463 -0.2713 -0.2145
   20POPC   GL1  544   3.824   3.156   7.453  0.0458 -0.1985  0.0386
   20POPC   GL2  545   3.570   3.312   7.484 -0.0805  0.1545  0.2868
   20POPC   C1A  546   3.784   3.049   7.058  0.1462  0.1403  0.2363
   20POPC   D2A  547   3.751   3.236   6.570 -0.2650  0.0620  0.0979
   20POPC   C3A  548   3.743   3.567   6.301  0.3136 -0.0607  0.2191
   20POPC   C4A  549   4.036   3.965   6.192  0.3032  0.2044 -0.0228
   20POPC   C1B  550   3.583   3.479   7.020  0.1598  0.1534  0.0178
   20POPC   C2B  551   3.334   3.546   6.657  0.0723  0.1559  0.0740
   20POPC   C3B  552   3.282   3.774   6.260  0.2680  0.1821  0.2393
   20POPC   C4B  553   3.219   3.564   5.853 -0.1251  0.1938 -0.0381
   21POPC   NC3  554   8.098   4.420   7.964 -0.0755  0.0436 -0.4047
   21POPC   PO4  555   7.832   4.532   7.634 -0.0378  0.0347 -0.2464
   21POPC   GL1  556   7.996   4.757   7.256  0.1270  0.3005  0.0360
   21POPC   GL2  557   7.875   4.479   7.005  0.2430 -0.0532  0.0684
   21POPC   C1A  558   8.182   4.859   6.834  0.1574 -0.2590 -0.0784
   21POPC   D2A  559   8.344   4.934   6.392  0.0679  0.0393  0.3122
   21POPC   C3A  560   8.482   4.668   6.049  0.1293 -0.1382 -0.2625
   21POPC   C4A  561   8.644   4.604   5.652  0.1321 -0.2569 -0.2400
   21POPC   C1B  562   7.912   4.202   6.766  0.1209  0.1386  0.2626
   21POPC   C2B  563   8.106   3.947   6.379  0.3922 -0.0551 -0.0252
   21POPC   C3B  564   8.557   3.896   6.177  0.2908 -0.0190 -0.0400
   21POPC   C4B  565   8.897   3.599   6.078  0.5881  0.1131 -0.0288
   22POPC   NC3  566   5.465   5.638   7.754  0.2722 -0.3823  0.0095
   22POPC   PO4  567   5.551   6.033   7.770  0.1139  0.3625  0.3188
   22POPC   GL1  568   5.575   6.037   7.390 -0.0417  0.2548 -0.1050
   22POPC   GL2  569   5.244   6.154   7.299  0.4593 -0.1075 -0.1557
   22POPC   C1A  570   5.684   6.167   6.972 -0.0070  0.1600 -0.1571
   22POPC   D2A  571   5.535   6.434   6.644  0.0083  0.0191  0.0512
   22POPC   C3A  572   5.073   6.539   6.632  0.0659  0.0371  0.1266
   22POPC   C4A  573   4.829   6.582   6.210  0.4881  0.1878  0.2984
   22POPC   C1B  574   5.005   6.539   7.178  0.1347 -0.1681 -0.1934
   22POPC   C2B  575   4.926   6.911   6.858  0.1928  0.2439  0.0466
   22POPC   C3B  576   4.933   7.022   6.460 -0.0515 -0.0219  0.2484
   22POPC   C4B  577   5.048   7.078   6.048 -0.2466  0.0695  0.1005
   23POPC   NC3  578   9.044   3.252   7.972 -0.0874 -0.1016  0.1593
   23POPC   PO4  579   9.186   2.850   7.666  0.0000 -0.0083 -0.0848
   23POPC   GL1  580   8.988   2.679   7.364 -0.0551 -0.0173  0.2610
   23POPC   GL2  581   9.105   2.651   7.024  0.1578 -0.0545 -0.0883
   23POPC   C1A  582   8.553   2.784   7.038  0.1389 -0.1430  0.4662
   23POPC   D2A  583   8.501   2.753   6.589  0.2183  0.1340 -0.1366
   23POPC   C3A  584   8.363   2.420   6.291  0.1049  0.1038 -0.0259
   23POPC   C4A  585   8.298   2.011   6.015 -0.0044 -0.4224 -0.0502
   23POPC   C1B  586   9.091   2.736   6.734 -0.1325  0.0628  0.5435
   23POPC   C2B  587   8.868   2.644   6.343  0.1334  0.2520  0.2029
   23POPC   C3B  588   8.673   2.493   5.919 -0.2803 -0.0173 -0.1663
   23POPC   C4B  589   8.463   2.323   5.606 -0.0077 -0.0711 -0.0147
   24POPC   NC3  590   6.878   3.778   7.746  0.1906 -0.2221 -0.3428
   24POPC   PO4  591   6.690   3.362   7.885  0.4460 -0.0697 -0.1593
   24POPC   GL1  592   6.583   3.497   7.431 -0.0542 -0.3531 -0.2775
   24POPC   GL2  593   6.774   3.351   7.293 -0.1285 -0.2596 -0.2047
   24POPC   C1A  594   6.277   3.663   7.097  0.0898  0.0209 -0.2897
   24POPC   D2A  595   6.234   3.781   6.735 -0.0504 -0.0975  0.0139
   24POPC   C3A  596   6.600   4.105   6.682 -0.1471  0.0176 -0.1991
   24POPC   C4A  597   6.904   4.301   6.354  0.3780  0.0029 -0.2825
   24POPC   C1B  598   6.431   3.158   7.043 -0.2637 -0.0952 -0.1058
   24POPC   C2B  599   6.333   3.014   6.506  0.1684  0.0143 -0.1245
   24POPC   C3B  600   6.234   2.724   6.220 -0.1618  0.2198 -0.1789
   24POPC   C4B  601   6.088   2.523   5.812  0.0022 -0.2844  0.2229
   25POPC   NC3  602   9.719   5.820   8.170 -0.0646 -0.1591 -0.0489
   25POPC   PO4  603   9.631   6.203   8.125  0.0444 -0.1469 -0.1932
   25POPC   GL1  604   9.616   6.497   7.747 -0.1827  0.2053  0.2106
   25POPC   GL2  605   9.905   6.481   7.730  0.1417  0.1495  0.0218
   25POPC   C1A  606   9.570   6.722   7.447  0.0961  0.1448  0.1453
   25POPC   D2A  607   9.409   6.523   7.082  0.1522  0.0939 -0.2198
   25POPC   C3A  608   9.115   6.726   6.806 -0.0943  0.0249  0.0562
   25POPC   C4A  609   9.245   6.649   6.377 -0.1902 -0.1073  0.2200
   25POPC   C1B  610  10.012   6.189   7.329  0.1952 -0.1656  0.1414
   25POPC   C2B  611   9.831   6.370   6.890 -0.4054  0.0531 -0.0219
   25POPC   C3B  612   9.658   6.310   6.538  0.1369  0.0831  0.0369
   25POPC   C4B  613   9.169   6.183   6.484  0.2150  0.0469 -0.0303
   26POPC   NC3  614   3.778  10.438   7.563 -0.1458  0.0085 -0.0951
   26POPC   PO4  615   4.133  10.178   7.664 -0.0677 -0.2210 -0.2490
   26POPC   GL1  616   4.367  10.216   7.361  0.1736 -0.2314 -0.1774
   26POPC   GL2  617   4.584  10.357   7.320 -0.0825  0.3082 -0.1241
   26POPC   C1A  618   4.646  10.093   6.904  0.0862  0.0042  0.2085
   26POPC   D2A  619   4.730   9.875   6.548 -0.1165  0.0542 -0.3432
   26POPC   C3A  620   4.431   9.672   6.303 -0.0272 -0.2137 -0.1481
   26POPC   C4A  621   4.002   9.858   6.166  0.2744  0.0663 -0.3291
   26POPC   C1B  622   4.685  10.591   6.858  0.4013 -0.3957 -0.1020
   26POPC   C2B  623   4.686  10.435   6.405  0.2575  0.3556 -0.1526
   26POPC   C3B  624   4.466  10.231   6.108  0.0420 -0.1803  0.0628
   26POPC   C4B  625   4.452   9.942   5.737 -0.0999  0.0593 -0.1345
   27POPC   NC3  626  10.259   6.845   8.377  0.2153  0.1474  0.1406
   27POPC   PO4  627  10.392   7.263   8.140 -0.1063 -0.0257 -0.1043
   27POPC   GL1  628  10.572   7.281   7.735 -0.1117 -0.1885 -0.1437
   27POPC   GL2  629  10.483   7.611   7.557 -0.0320  0.0196 -0.0559
   27POPC   C1A  630  10.441   7.151   7.309 -0.0930 -0.2020 -0.0519
   27POPC   D2A  631  10.609   7.024   6.945  0.0877  0.2419  0.2704
   27POPC   C3A  632  10.376   6.966   6.524 -0.1185 -0.0788 -0.0903
   27POPC   C4A  633  10.076   6.694   6.544  0.0418 -0.0840  0.2248
   27POPC   C1B  634  10.496   8.037   7.515 -0.2815  0.3251 -0.0007
   27POPC   C2B  635  10.561   8.508   7.277 -0.1810  0.1725  0.0917
   27POPC   C3B  636  10.655   8.679   6.852  0.0680 -0.0459 -0.2743
   27POPC   C4B  637  10.972   8.859   6.546 -0.0128 -0.0290  0.0480
   28POPC   NC3  638   9.669  10.429   7.966  0.0736 -0.3418 -0.0381
   28POPC   PO4  639  10.054  10.498   7.582 -0.0851 -0.1272 -0.2354
   28POPC   GL1  640  10.283  10.778   7.225 -0.1285  0.3487  0.0623
   28POPC   GL2  641  10.631  10.811   7.189 -0.1966 -0.3485  0.1943
   28POPC   C1A  642  10.496  11.026   6.786 -0.0750  0.1260 -0.1098
   28POPC   D2A  643  10.408  11.167   6.487  0.2222  0.0820 -0.1746
   28POPC   C3A  644   9.966  11.400   6.577 -0.0253  0.2150  0.1844
   28POPC   C4A  645   9.571  11.210   6.499 -0.1030  0.0796  0.1973
   28POPC   C1B  646  10.822  10.598   6.918  0.1922 -0.0753  0.3833
   28POPC   C2B  647  11.157  10.414   6.590 -0.1534 -0.1517 -0.2211
   28POPC   C3B  648  11.450  10.138   6.380  0.0892 -0.2929  0.0164
   28POPC   C4B  649  11.744  10.101   6.088 -0.0975  0.0818 -0.1152
   29POPC   NC3  650   4.472   9.001   8.463 -0.0067 -0.2733 -0.0572
   29POPC   PO4  651   4.461   9.159   7.982 -0.0492  0.3817  0.0572
   29POPC   GL1  652   4.422   9.092   7.617 -0.1449  0.2165  0.1878
   29POPC   GL2  653   4.173   8.796   7.480  0.0109  0.3647 -0.0878
   29POPC   C1A  654   4.479   9.226   7.119  0.3544  0.0774  0.1813
   29POPC   D2A  655   4.435   9.001   6.781 -0.4183 -0.2548  0.2536
   29POPC   C3A  656   4.189   9.212   6.596 -0.1087  0.1067 -0.0940
   29POPC   C4A  657   3.984   9.460   6.432 -0.0676  0.1187  0.2604
   29POPC   C1B  658   4.519   8.585   7.081 -0.2637 -0.0185 -0.0500
   29POPC   C2B  659   4.871   8.745   6.818  0.2092 -0.3939 -0.4270
   29POPC   C3B  660   4.856   8.834   6.457  0.3244 -0.1031  0.0671
   29POPC   C4B  661   4.728   8.635   6.130  0.1056  0.0123  0.0890
   30POPC   NC3  662   1.492   7.733   8.141 -0.2351 -0.1737 -0.1072
   30POPC   PO4  663   1.016   7.938   8.251 -0.0468  0.3078 -0.0811
   30POPC   GL1  664   0.981   7.667   7.807 -0.1201 -0.4663  0.1402
   30POPC   GL2  665   0.787   7.384   7.658  0.0096 -0.0558 -0.2674
   30POPC   C1A  666   1.040   7.870   7.428  0.1273  0.2492 -0.2233
   30POPC   D2A  667   1.357   7.599   7.093 -0.0398 -0.1370 -0.1944
   30POPC   C3A  668   1.314   7.206   6.854 -0.3036  0.1133  0.4708
   30POPC   C4A  669   1.256   7.022   6.418 -0.2715  0.2195 -0.2735
   30POPC   C1B  670   0.902   7.354   7.264  0.1393 -0.2589 -0.1766
   30POPC   C2B  671   0.892   7.579   6.904 -0.2183 -0.2230 -0.2899
   30POPC   C3B  672   0.883   7.701   6.480  0.0400 -0.0266  0.1386
   30POPC   C4B  673   0.707   8.049   6.195 -0.2470 -0.0276  0.0514
   31POPC   NC3  674   3.351   0.507   7.501  0.3064  0.1244 -0.2030
   31POPC   PO4  675   3.444   0.129   7.825 -0.5743 -0.0990  0.2626
   31POPC   GL1  676   3.727   0.236   7.366 -0.0238 -0.1058  0.3120
   31POPC   GL2  677   4.103  -0.038   7.261  0.3469  0.2186  0.2758
   31POPC   C1A  678   3.809   0.344   6.922 -0.2289  0.1271 -0.4460
   31POPC   D2A  679   3.794   0.530   6.497 -0.1466  0.2298 -0.3216
   31POPC   C3A  680   3.576   0.396   6.176 -0.0575 -0.0201  0.0313
   31POPC   C4A  681   3.446   0.323   5.771 -0.1826  0.1119 -0.0850
   31POPC   C1B  682   4.215   0.002   6.738  0.0905  0.1456  0.0916
   31POPC   C2B  683   4.272   0.255   6.391  0.0889  0.3426 -0.3075
   31POPC   C3B  684   4.154   0.539   6.077 -0.3305 -0.1407 -0.1095
   31POPC   C4B  685   4.320   0.873   5.880 -0.0810 -0.0865  0.1818
   32POPC   NC3  686  10.058   7.681   8.119  0.1465 -0.2718  0.0491
   32POPC   PO4  687  10.037   8.228   8.193 -0.1280 -0.0832 -0.1359
   32POPC   GL1  688  10.100   8.122   7.812  0.1017 -0.2726  0.2844
   32POPC   GL2  689  10.158   8.473   7.650 -0.0834  0.0244 -0.1418
   32POPC   C1A  690   9.843   8.045   7.473 -0.3203  0.1803  0.1278
   32POPC   D2A  691   9.656   7.937   7.039  0.2567 -0.0341  0.0521
   32POPC   C3A  692   9.693   8.054   6.667 -0.1545  0.4878  0.1796
   32POPC   C4A  693   9.760   8.390   6.390 -0.0842 -0.0078  0.1395
   32POPC   C1B  694  10.112   8.343   7.196  0.1354 -0.2682 -0.1170
   32POPC   C2B  695  10.047   8.400   6.784 -0.1343 -0.0532 -0.0340
   32POPC   C3B  696  10.237   8.400   6.477  0.1809 -0.4136  0.2708
   32POPC   C4B  697  10.512   8.102   6.362  0.0570  0.3789  0.0411
   33POPC   NC3  698   3.370   1.266   7.997  0.2931  0.0624 -0.0647
   33POPC   PO4  699   3.530   0.980   7.636 -0.1049  0.3007 -0.1421
   33POPC   GL1  700   3.295   0.980   7.241  0.0595  0.1747 -0.1253
   33POPC   GL2  701   3.292   0.646   7.059 -0.0975  0.6932 -0.0438
   33POPC   C1A  702   3.011   1.011   6.912  0.2983 -0.3057 -0.0075
   33POPC   D2A  703   2.965   1.302   6.729 -0.0805  0.1225 -0.0724
   33POPC   C3A  704   3.356   1.355   6.426 -0.1438 -0.0065  0.0976
   33POPC   C4A  705   3.578   1.539   6.178 -0.1446  0.0070 -0.1483
   33POPC   C1B  706   3.491   0.942   6.709  0.2151  0.2836 -0.0854
   33POPC   C2B  707   3.588   0.945   6.279  0.0066 -0.2208  0.1021
   33POPC   C3B  708   3.445   1.149   5.909 -0.3094 -0.0577 -0.2476
   33POPC   C4B  709   3.158   1.261   5.754  0.3223 -0.1561 -0.1524
   34POPC   NC3  710   7.200   0.332   8.807 -0.0274  0.2835  0.2344
   34POPC   PO4  711   7.544   0.695   8.882 -0.0538  0.0331 -0.1944
   34POPC   GL1  712   7.741   0.740   8.521 -0.0755  0.0519 -0.0491
   34POPC   GL2  713   8.134   0.736   8.477 -0.0850 -0.1057  0.0053
   34POPC   C1A  714   7.608   0.717   8.061  0.0947  0.0392  0.0229
   34POPC   D2A  715   7.870   0.754   7.733 -0.2682  0.0729  0.1150
   34POPC   C3A  716   7.728   1.011   7.474 -0.0416 -0.3827  0.3102
   34POPC   C4A  717   7.828   1.182   7.072 -0.1560 -0.0725 -0.2355
   34POPC   C1B  718   8.107   0.436   8.144 -0.1086 -0.1705  0.2796
   34POPC   C2B  719   8.410   0.532   7.818  0.1153  0.2859  0.0530
   34POPC   C3B  720   8.510   0.556   7.332  0.1872 -0.0277 -0.0075
   34POPC   C4B  721   8.605   0.514   6.940 -0.0985 -0.4461  0.2932
   35POPC   NC3  722   8.059   2.550   8.294 -0.2038 -0.2195 -0.0740
   35POPC   PO4  723   7.776   2.524   7.958  0.1429 -0.1324 -0.0554
   35POPC   GL1  724   7.706   2.421   7.579  0.3912 -0.2058  0.0789
   35POPC   GL2  725   7.493   2.661   7.564  0.0529  0.5909  0.0914
   35POPC   C1A  726   7.663   2.377   7.132 -0.0481  0.0376 -0.0098
   35POPC   D2A  727   7.525   2.209   6.784  0.2587  0.0519  0.0186
   35POPC   C3A  728   7.421   2.510   6.464 -0.1578  0.0083  0.0584
   35POPC   C4A  729   7.462   2.935   6.162  0.1771  0.1787 -0.4301
   35POPC   C1B  730   7.185   2.480   7.317  0.1829  0.2763 -0.0821
   35POPC   C2B  731   7.128   2.437   6.865  0.4418 -0.2258  0.3582
   35POPC   C3B  732   7.001   2.230   6.400  0.5353 -0.0561 -0.1494
   35POPC   C4B  733   6.947   2.098   6.002 -0.1477 -0.3542 -0.1032
   36POPC   NC3  734   4.911   7.155   7.856  0.2171 -0.0562  0.1108
   36POPC   PO4  735   5.319   6.972   7.871 -0.1985  0.1955  0.0412
   36POPC   GL1  736   5.144   6.975   7.388  0.0482 -0.2453 -0.1211
   36POPC   GL2  737   4.731   6.997   7.353 -0.3032  0.2619 -0.0296
   36POPC   C1A  738   5.530   7.196   7.241  0.0484 -0.1722  0.1730
   36POPC   D2A  739   5.711   7.409   7.115  0.2165  0.2846  0.0881
   36POPC   C3A  740   5.756   7.793   7.205 -0.0672  0.0805 -0.1394
   36POPC   C4A  741   6.086   8.193   7.225 -0.1059  0.0158  0.0352
   36POPC   C1B  742   4.609   7.276   7.007 -0.2134  0.0870  0.2998
   36POPC   C2B  743   4.883   7.465   6.661 -0.0553 -0.0515  0.2784
   36POPC   C3B  744   5.142   7.554   6.336 -0.0461 -0.1339  0.0534
   36POPC   C4B  745   5.211   7.858   6.056  0.3879 -0.2884 -0.1681
   37POPC   NC3  746   3.875   6.419   8.593  0.0674 -0.1381 -0.0158
   37POPC   PO4  747   3.707   6.677   8.243 -0.0044 -0.3901 -0.0941
   37POPC   GL1  748   3.624   6.573   7.850  0.3189 -0.1125 -0.1317
   37POPC   GL2  749   3.918   6.485   7.683 -0.1902  0.0720 -0.2869
   37POPC   C1A  750   3.434   6.484   7.454 -0.1089 -0.0421  0.2112
   37POPC   D2A  751   3.384   6.398   7.020  0.1364  0.1053 -0.1074
   37POPC   C3A  752   3.024   6.567   6.880  0.0286  0.0074  0.1693
   37POPC   C4A  753   2.922   6.778   6.482  0.1275 -0.0794 -0.1615
   37POPC   C1B  754   3.985   6.391   7.241  0.1095 -0.0503  0.1168
   37POPC   C2B  755   3.934   6.452   6.726 -0.1388  0.0675 -0.0120
   37POPC   C3B  756   3.932   6.787   6.530  0.3023 -0.4663  0.3599
   37POPC   C4B  757   3.965   6.931   6.190 -0.1748 -0.1906  0.0704
   38POPC   NC3  758   9.156   4.507   7.654  0.1575  0.1416  0.3430
   38POPC   PO4  759   8.939   4.893   7.731 -0.2849 -0.3096  0.0650
   38POPC   GL1  760   8.864   4.985   7.302 -0.1527 -0.2022 -0.0657
   38POPC   GL2  761   8.501   5.008   7.241 -0.0120  0.1061 -0.0394
   38POPC   C1A  762   8.984   5.128   6.911  0.0941  0.3066 -0.1141
   38POPC   D2A  763   9.246   5.250   6.581  0.0784 -0.0753 -0.0401
   38POPC   C3A  764   9.144   5.188   6.186 -0.0141 -0.1112  0.3964
   38POPC   C4A  765   8.989   4.977   5.819 -0.1986 -0.0460  0.0328
   38POPC   C1B  766   8.494   5.258   6.788 -0.0009 -0.1273  0.1268
   38POPC   C2B  767   8.703   5.422   6.561 -0.1638 -0.2393  0.1814
   38POPC   C3B  768   8.655   5.343   6.106 -0.3339  0.1413 -0.0070
   38POPC   C4B  769   8.238   5.191   5.939 -0.3890  0.0606  0.1412
   39POPC   NC3  770   3.467   1.943   7.844 -0.1670  0.0201 -0.0276
   39POPC   PO4  771   3.694   1.677   8.196  0.4055 -0.1720 -0.0007
   39POPC   GL1  772   3.737   1.592   7.710 -0.1663 -0.0117 -0.0208
   39POPC   GL2  773   3.572   1.413   7.472  0.2208 -0.1178 -0.1793
   39POPC   C1A  774   3.904   1.745   7.297 -0.0893  0.4591 -0.1816
   39POPC   D2A  775   4.197   1.410   7.073  0.0355 -0.0766  0.1780
   39POPC   C3A  776   4.350   1.385   6.647  0.2313 -0.1763 -0.1987
   39POPC   C4A  777   4.145   1.733   6.403  0.2575  0.0155 -0.0063
   39POPC   C1B  778   3.748   1.316   7.049  0.2351 -0.0184 -0.0102
   39POPC   C2B  779   3.846   1.267   6.546 -0.2921 -0.5308  0.0508
   39POPC   C3B  780   3.943   1.248   6.102  0.2302  0.0046  0.1464
   39POPC   C4B  781   3.729   1.569   5.751 -0.1381 -0.1689 -0.1117
   40POPC   NC3  782   7.137   6.999   8.175 -0.1874  0.2617  0.0886
   40POPC   PO4  783   7.168   6.630   7.961  0.3053  0.0371  0.1698
   40POPC   GL1  784   7.042   6.793   7.553  0.2011  0.1183 -0.1744
   40POPC   GL2  785   7.240   6.596   7.339 -0.2852  0.3491 -0.1698
   40POPC   C1A  786   6.695   6.802   7.229  0.0014  0.1186 -0.2948
   40POPC   D2A  787   6.614   6.689   6.785  0.0970 -0.0551 -0.0631
   40POPC   C3A  788   6.400   7.031   6.517 -0.0212  0.1271 -0.1379
   40POPC   C4A  789   6.132   7.256   6.158  0.1087  0.0756  0.0782
   40POPC   C1B  790   7.281   6.649   6.872  0.0021  0.1136 -0.0815
   40POPC   C2B  791   7.018   6.670   6.463 -0.0769 -0.0535  0.1764
   40POPC   C3B  792   6.813   6.850   6.315 -0.0459 -0.1075  0.1167
   40POPC   C4B  793   6.809   7.274   6.107  0.2153  0.3933  0.1034
   41POPC   NC3  794   3.056   4.008   8.260  0.3317 -0.4416 -0.1769
   41POPC   PO4  795   2.749   3.910   7.999 -0.2621  0.1771  0.0392
   41POPC   GL1  796   2.523   3.980   7.665  0.0876 -0.5215 -0.0668
   41POPC   GL2  797   2.333   4.208   7.722  0.1964 -0.0167  0.0656
   41POPC   C1A  798   2.465   3.971   7.172 -0.0788  0.1490 -0.2192
   41POPC   D2A  799   2.253   3.955   6.778  0.2008 -0.0773  0.0754
   41POPC   C3A  800   2.347   3.914   6.409 -0.1517  0.2549  0.1289
   41POPC   C4A  801   2.212   3.869   6.047 -0.2511 -0.1125 -0.4599
   41POPC   C1B  802   2.156   4.415   7.321  0.1019 -0.0655 -0.0240
   41POPC   C2B  803   1.998   4.676   6.968 -0.1867 -0.0687  0.0168
   41POPC   C3B  804   1.742   4.693   6.649 -0.0921 -0.0851 -0.1195
   41POPC   C4B  805   1.490   4.324   6.478  0.2259 -0.2618  0.0863
   42POPC   NC3  806  10.457   8.695   7.930  0.1108  0.0722 -0.0498
   42POPC   PO4  807  10.171   9.133   7.927  0.2978 -0.1727  0.1616
   42POPC   GL1  808   9.997   8.970   7.544 -0.1225 -0.0133  0.1877
   42POPC   GL2  809   9.960   9.184   7.307  0.3221  0.2241  0.2153
   42POPC   C1A  810   9.729   8.786   7.174  0.3240 -0.0933 -0.0794
   42POPC   D2A  811   9.591   8.438   6.960  0.1798 -0.0468 -0.0458
   42POPC   C3A  812   9.329   8.394   6.628  0.1721  0.0154 -0.1558
   42POPC   C4A  813   8.917   8.211   6.532 -0.0993 -0.0317 -0.2294
   42POPC   C1B  814  10.191   8.891   7.060 -0.1048 -0.3362  0.3201
   42POPC   C2B  815  10.065   8.852   6.641 -0.2238  0.4054 -0.1161
   42POPC   C3B  816   9.900   8.845   6.184 -0.0501 -0.4152 -0.2738
   42POPC   C4B  817  10.081   8.841   5.754 -0.2288  0.2730  0.3330
   43POPC   NC3  818   5.059  10.436   8.106  0.1255 -0.0351 -0.1435
   43POPC   PO4  819   5.028  10.010   8.070  0.1708  0.0364 -0.0428
   43POPC   GL1  820   5.083   9.917   7.670 -0.0718 -0.2676 -0.0646
   43POPC   GL2  821   5.380   9.832   7.668  0.0812 -0.0288  0.3976
   43POPC   C1A  822   5.078   9.940   7.187 -0.1420  0.2653 -0.1269
   43POPC   D2A  823   5.227   9.854   6.766 -0.3647 -0.0987 -0.1707
   43POPC   C3A  824   5.180  10.105   6.442 -0.2066 -0.1096  0.0048
   43POPC   C4A  825   5.452  10.383   6.228  0.0025 -0.0109  0.3344
   43POPC   C1B  826   5.534  10.054   7.414 -0.2174 -0.1110 -0.0333
   43POPC   C2B  827   5.574  10.105   6.987 -0.2125  0.0756  0.0975
   43POPC   C3B  828   5.661  10.036   6.611  0.0632  0.1006 -0.3222
   43POPC   C4B  829   5.549   9.816   6.297  0.2201 -0.1772  0.1465
   44POPC   NC3  830   6.124   4.666   8.167  0.0130  0.0118 -0.0718
   44POPC   PO4  831   5.649   4.739   8.025 -0.0015 -0.1763  0.1715
   44POPC   GL1  832   5.539   4.639   7.569 -0.4669  0.0133  0.1459
   44POPC   GL2  833   5.809   4.565   7.366 -0.0628 -0.0338 -0.0784
   44POPC   C1A  834   5.247   4.363   7.315 -0.0427  0.0300 -0.1353
   44POPC   D2A  835   4.864   3.987   7.115 -0.2345  0.0322 -0.3830
   44POPC   C3A  836   4.710   4.077   6.766  0.0609 -0.0766  0.1360
   44POPC   C4A  837   4.551   3.865   6.518 -0.0180 -0.1559  0.0398
   44POPC   C1B  838   5.677   4.299   7.035  0.1932 -0.0527 -0.0463
   44POPC   C2B  839   5.314   4.144   6.812  0.1047  0.1325  0.1989
   44POPC   C3B  840   5.302   4.118   6.381 -0.1831  0.2296 -0.1412
   44POPC   C4B  841   4.988   3.897   6.117  0.0285 -0.2226 -0.0801
   45POPC   NC3  842   9.052   4.070   8.063 -0.0309  0.2939  0.1079
   45POPC   PO4  843   9.479   4.133   7.942  0.1685  0.1480 -0.3111
   45POPC   GL1  844   9.581   4.016   7.535  0.0601  0.0206  0.5260
   45POPC   GL2  845   9.810   3.849   7.287 -0.0719 -0.0469 -0.1058
   45POPC   C1A  846   9.434   4.150   7.172 -0.3266 -0.1329  0.0116
   45POPC   D2A  847   9.178   4.556   7.125  0.2002  0.3518 -0.2114
   45POPC   C3A  848   9.237   4.725   6.724 -0.1787 -0.0990 -0.1633
   45POPC   C4A  849   9.546   4.863   6.469  0.2310 -0.1769 -0.1306
   45POPC   C1B  850   9.924   3.897   6.853  0.3118 -0.0491 -0.2309
   45POPC   C2B  851  10.179   4.009   6.552 -0.0934 -0.1060 -0.0511
   45POPC   C3B  852  10.203   4.220   6.179  0.2540 -0.1893 -0.3367
   45POPC   C4B  853   9.999   4.271   5.723  0.2328  0.0153 -0.2207
   46POPC   NC3  854   9.025   2.351   7.894 -0.5472 -0.1834 -0.1839
   46POPC   PO4  855   9.538   2.525   7.752  0.1099 -0.0628 -0.2472
   46POPC   GL1  856   9.541   2.508   7.249 -0.1325 -0.1537  0.2090
   46POPC   GL2  857   9.513   2.887   7.154 -0.2169 -0.2111  0.2453
   46POPC   C1A  858   9.672   2.357   6.873 -0.1054  0.1952 -0.0797
   46POPC   D2A  859   9.731   2.216   6.391  0.0699  0.2114  0.1095
   46POPC   C3A  860  10.108   2.345   6.123  0.0492 -0.0713 -0.0633
   46POPC   C4A  861  10.559   2.261   6.269  0.0991 -0.4530  0.1628
   46POPC   C1B  862   9.574   2.936   6.806  0.0555 -0.0461 -0.5055
   46POPC   C2B  863   9.373   3.074   6.339 -0.0645  0.2949  0.1396
   46POPC   C3B  864   9.349   3.438   6.064 -0.4276  0.0039 -0.1905
   46POPC   C4B  865   9.293   3.627   5.605  0.0107 -0.0961 -0.3142
   47POPC   NC3  866   3.197   3.207   7.767 -0.2040  0.3227  0.0873
   47POPC   PO4  867   2.889   2.972   7.662  0.1237  0.0029  0.0778
   47POPC   GL1  868   3.097   3.045   7.300 -0.1069  0.3377 -0.2469
   47POPC   GL2  869   3.409   2.833   7.329  0.1616 -0.1379  0.1332
   47POPC   C1A  870   3.320   3.067   6.854  0.1801 -0.1221 -0.0437
   47POPC   D2A  871   3.259   2.753   6.449  0.0227 -0.1231 -0.2572
   47POPC   C3A  872   3.504   2.416   6.340 -0.1489  0.0574  0.0878
   47POPC   C4A  873   4.021   2.304   6.501  0.3336 -0.1408 -0.2630
   47POPC   C1B  874   3.303   2.631   6.973  0.2991  0.0333  0.1424
   47POPC   C2B  875   2.839   2.712   6.790  0.0509  0.4922  0.1400
   47POPC   C3B  876   2.866   3.030   6.517  0.0415 -0.0151 -0.2269
   47POPC   C4B  877   2.953   3.054   6.136 -0.1620 -0.1093  0.0502
   48POPC   NC3  878   4.795   9.544   7.871 -0.3460  0.1528 -0.1314
   48POPC   PO4  879   5.245   9.426   7.879 -0.0549  0.0791 -0.2822
   48POPC   GL1  880   5.431   9.323   7.536  0.0557 -0.1224  0.0727
   48POPC   GL2  881   5.698   9.142   7.539  0.0259  0.1315  0.1619
   48POPC   C1A  882   5.483   9.552   7.242  0.0026  0.0674  0.0109
   48POPC   D2A  883   5.667   9.523   6.761  0.1893 -0.0333  0.2290
   48POPC   C3A  884   5.651   9.209   6.441  0.0886  0.1006  0.5033
   48POPC   C4A  885   5.261   9.075   6.261  0.0224  0.0112  0.0212
   48POPC   C1B  886   5.695   9.106   7.047  0.0416 -0.0480  0.1134
   48POPC   C2B  887   5.939   8.745   6.807 -0.1094 -0.2365  0.0423
   48POPC   C3B  888   6.188   8.398   6.634 -0.2639  0.0066  0.0690
   48POPC   C4B  889   6.307   8.316   6.192  0.1136 -0.4366 -0.1614
   49POPC   NC3  890   0.493   4.957   8.016 -0.1601 -0.2295  0.6758
   49POPC   PO4  891   0.315   4.531   8.004  0.2499 -0.0163 -0.2097
   49POPC   GL1  892   0.340   4.581   7.570 -0.0976  0.0502  0.0412
   49POPC   GL2  893   0.094   4.527   7.385  0.2096 -0.3912  0.0182
   49POPC   C1A  894   0.603   4.759   7.342  0.0485 -0.2354  0.0518
   49POPC   D2A  895   0.842   4.469   7.088 -0.1100 -0.0102 -0.2208
   49POPC   C3A  896   0.987   4.519   6.688 -0.1065  0.1463  0.4385
   49POPC   C4A  897   1.169   4.733   6.397  0.2095 -0.1964  0.0801
   49POPC   C1B  898   0.346   4.477   7.043  0.0710 -0.3988 -0.0761
   49POPC   C2B  899   0.392   4.453   6.606 -0.1550  0.0753  0.0887
   49POPC   C3B  900   0.659   4.703   6.285  0.0094 -0.0473  0.0448
   49POPC   C4B  901   0.878   4.908   6.040  0.2412  0.0803 -0.0085
   50POPC   NC3  902   8.162  10.559   9.056  0.1271  0.2076 -0.1874
   50POPC   PO4  903   8.302  10.243   8.902 -0.1755 -0.1386 -0.0247
   50POPC   GL1  904   8.403  10.325   8.490  0.0808  0.1569  0.0595
   50POPC   GL2  905   8.215  10.037   8.220 -0.1176  0.2378 -0.0458
   50POPC   C1A  906   8.296  10.603   8.077 -0.1234 -0.1022 -0.2901
   50POPC   D2A  907   8.292  10.742   7.633 -0.0389  0.0116  0.0426
   50POPC   C3A  908   8.262  10.442   7.321 -0.2303 -0.0761 -0.3445
   50POPC   C4A  909   8.338  10.141   7.004  0.2804 -0.1151 -0.2022
   50POPC   C1B  910   7.695  10.080   8.146  0.2322 -0.0210 -0.3011
   50POPC   C2B  911   7.584  10.512   7.947  0.0701  0.1606 -0.0675
   50POPC   C3B  912   7.809  10.855   7.770  0.0946 -0.1444 -0.4162
   50POPC   C4B  913   7.930  11.045   7.359 -0.0892 -0.0246  0.1091
   51POPC   NC3  914   8.624   5.186   7.947  0.0582  0.2262  0.0535
   51POPC   PO4  915   9.066   5.378   7.802 -0.0663  0.2217  0.0911
   51POPC   GL1  916   9.152   5.427   7.487  0.0441 -0.1628 -0.0900
   51POPC   GL2  917   9.372   5.136   7.425 -0.2718 -0.0097  0.1689
   51POPC   C1A  918   9.486   5.473   7.134  0.1492  0.1240 -0.1390
   51POPC   D2A  919   9.688   5.446   6.692 -0.2199  0.0971  0.3707
   51POPC   C3A  920   9.748   5.272   6.310 -0.3018 -0.1825 -0.1364
   51POPC   C4A  921   9.570   5.067   5.984  0.0186 -0.1581 -0.0793
   51POPC   C1B  922   9.594   4.857   7.074  0.2088 -0.0419 -0.0017
   51POPC   C2B  923   9.674   4.474   6.914  0.0833  0.0690  0.1215
   51POPC   C3B  924   9.849   4.396   6.510 -0.1422  0.0866  0.0216
   51POPC   C4B  925   9.720   4.044   6.211  0.0626 -0.1712  0.1738
   52POPC   NC3  926   8.611   1.547   7.847 -0.2594  0.0426 -0.2197
   52POPC   PO4  927   8.896   1.855   7.724 -0.1111 -0.1031  0.3853
   52POPC   GL1  928   8.751   1.683   7.355 -0.4114 -0.1202  0.1884
   52POPC   GL2  929   8.990   1.424   7.266  0.4039 -0.1025  0.2603
   52POPC   C1A  930   8.568   1.760   6.932 -0.0784 -0.0356 -0.2402
   52POPC   D2A  931   8.427   1.385   6.624 -0.0342 -0.4472 -0.0286
   52POPC   C3A  932   7.922   1.333   6.592 -0.1238  0.0449  0.0601
   52POPC   C4A  933   7.685   1.310   6.220 -0.0458  0.0176 -0.2437
   52POPC   C1B  934   8.849   1.348   6.871 -0.1465  0.0854  0.0461
   52POPC   C2B  935   8.970   1.289   6.418 -0.0303  0.3319 -0.1698
   52POPC   C3B  936   9.099   1.299   6.025 -0.0667  0.0473 -0.1073
   52POPC   C4B  937   9.354   1.024   5.848 -0.1153 -0.1566  0.3395
   53POPC   NC3  938   3.956   9.054   7.815 -0.3903 -0.0653  0.1528
   53POPC   PO4  939   3.580   8.985   7.982  0.0076  0.0759  0.1275
   53POPC   GL1  940   3.546   9.041   7.562 -0.2626 -0.5967  0.0893
   53POPC   GL2  941   3.634   8.818   7.354 -0.0543  0.2126 -0.0387
   53POPC   C1A  942   3.491   9.171   7.106 -0.0774  0.1525  0.0920
   53POPC   D2A  943   3.689   9.123   6.689  0.4473 -0.4067  0.0108
   53POPC   C3A  944   3.694   9.006   6.222 -0.2649  0.0237 -0.1093
   53POPC   C4A  945   3.804   9.098   5.791 -0.1685  0.1951  0.0961
   53POPC   C1B  946   3.560   8.696   6.976  0.0190 -0.0933 -0.1587
   53POPC   C2B  947   3.694   8.561   6.478 -0.2628  0.0945 -0.2457
   53POPC   C3B  948   3.731   8.431   5.997  0.0279 -0.1625  0.2801
   53POPC   C4B  949   3.579   8.234   5.602  0.2503 -0.1618  0.0972
   54POPC   NC3  950   5.211   2.296   8.319  0.0527  0.0986 -0.0664
   54POPC   PO4  951   5.199   2.395   7.959  0.1494 -0.1455 -0.1786
   54POPC   GL1  952   5.460   2.631   7.632 -0.1484 -0.1848  0.0562
   54POPC   GL2  953   5.768   2.606   7.462 -0.3320  0.0951  0.3602
   54POPC   C1A  954   5.299   2.822   7.257 -0.0048 -0.0714 -0.1191
   54POPC   D2A  955   5.153   3.115   6.847 -0.1164  0.0553  0.0417
   54POPC   C3A  956   5.297   2.886   6.470 -0.0250  0.2660  0.1550
   54POPC   C4A  957   5.763   2.809   6.158 -0.0119 -0.1279  0.0250
   54POPC   C1B  958   5.835   2.190   7.201 -0.1644 -0.0144 -0.1087
   54POPC   C2B  959   5.683   1.987   6.796  0.1197 -0.0823 -0.1767
   54POPC   C3B  960   5.537   1.754   6.422 -0.1406 -0.1428 -0.0311
   54POPC   C4B  961   5.284   1.665   6.071  0.1149  0.1107  0.2526
   55POPC   NC3  962   4.184   5.770   8.104  0.0153  0.1823  0.2622
   55POPC   PO4  963   4.450   5.477   8.016 -0.1539 -0.1187 -0.2377
   55POPC   GL1  964   4.510   5.416   7.555  0.0065  0.1502  0.0422
   55POPC   GL2  965   4.268   5.095   7.480 -0.0376 -0.3309  0.0015
   55POPC   C1A  966   4.643   5.525   7.154 -0.2536 -0.1286  0.1390
   55POPC   D2A  967   5.007   5.612   6.937  0.3807 -0.2092  0.0771
   55POPC   C3A  968   5.116   5.665   6.525 -0.0009  0.2750 -0.2076
   55POPC   C4A  969   5.327   5.575   6.129 -0.2844 -0.0346  0.1952
   55POPC   C1B  970   4.265   5.206   7.027  0.1499  0.1323 -0.2349
   55POPC   C2B  971   4.277   5.201   6.637 -0.1475 -0.1741 -0.0218
   55POPC   C3B  972   4.318   5.284   6.263 -0.0330  0.0758 -0.0357
   55POPC   C4B  973   4.757   5.349   6.122 -0.3732  0.0980  0.1837
   56POPC   NC3  974   0.065  10.392   8.315  0.0859 -0.1223 -0.0964
   56POPC   PO4  975   0.334  10.395   7.926  0.3230 -0.1001  0.0115
   56POPC   GL1  976   0.340  10.278   7.442  0.2771  0.1194 -0.0796
   56POPC   GL2  977   0.559  10.480   7.244 -0.3967 -0.1843 -0.1757
   56POPC   C1A  978   0.300  10.109   6.939 -0.1467 -0.1908 -0.0294
   56POPC   D2A  979   0.045  10.194   6.558  0.1337 -0.0347 -0.0533
   56POPC   C3A  980   0.170  10.256   6.129 -0.1102 -0.0415 -0.0190
   56POPC   C4A  981  -0.003  10.355   5.707  0.0046  0.1497 -0.2317
   56POPC   C1B  982   0.832  10.293   6.971 -0.2342  0.0769 -0.0652
   56POPC   C2B  983   1.104   9.927   6.757 -0.1999  0.1857  0.0570
   56POPC   C3B  984   1.387   9.785   6.490  0.1757  0.2598  0.2970
   56POPC   C4B  985   1.779   9.636   6.425 -0.2703  0.0636  0.1111
   57POPC   NC3  986  10.514  10.333   7.676  0.3312  0.0411 -0.2277
   57POPC   PO4  987  10.774   9.898   7.709 -0.2093  0.4903 -0.0903
   57POPC   GL1  988  10.775   9.782   7.245  0.2842 -0.0372 -0.1926
   57POPC   GL2  989  10.493   9.572   7.213 -0.3119 -0.0835 -0.0687
   57POPC   C1A  990  10.800   9.678   6.750  0.1062 -0.0518 -0.3458
   57POPC   D2A  991  11.110   9.370   6.665 -0.1343 -0.3123  0.1800
   57POPC   C3A  992  11.085   9.202   6.222 -0.0183 -0.1568  0.0520
   57POPC   C4A  993  10.877   8.823   6.001 -0.1960  0.1745  0.0274
   57POPC   C1B  994  10.267   9.398   6.923  0.3357  0.5245  0.1829
   57POPC   C2B  995   9.816   9.205   6.845 -0.1337 -0.0091  0.0669
   57POPC   C3B  996   9.615   8.899   6.617 -0.0320  0.0301 -0.0201
   57POPC   C4B  997   9.362   8.772   6.276 -0.1623 -0.0654  0.0288
   58POPC   NC3  998   1.968   1.874   7.725  0.0272  0.1671  0.0693
   58POPC   PO4  999   2.398   1.987   7.699 -0.0896  0.2153  0.2736
   58POPC   GL1 1000   2.545   2.258   7.368  0.0231 -0.1187  0.3289
   58POPC   GL2 1001   2.421   2.512   7.071  0.2145 -0.0183  0.1278
   58POPC   C1A 1002   2.908   2.220   7.013  0.1349 -0.1966 -0.1735
   58POPC   D2A 1003   3.078   2.306   6.611 -0.0131  0.1038  0.0927
   58POPC   C3A 1004   2.887   2.525   6.249 -0.0704 -0.1643 -0.0256
   58POPC   C4A 1005   2.908   2.688   5.769  0.0690  0.0013 -0.1733
   58POPC   C1B 1006   2.410   2.567   6.581  0.0277 -0.1838 -0.1922
   58POPC   C2B 1007   2.349   2.834   6.332 -0.0546  0.1127 -0.1000
   58POPC   C3B 1008   2.332   3.321   6.256 -0.1659 -0.1610  0.2231
   58POPC   C4B 1009   1.886   3.442   6.243 -0.4726 -0.0758 -0.0243
   59POPC   NC3 1010   3.953   2.041   8.113 -0.0774  0.1981  0.0348
   59POPC   PO4 1011   3.672   2.402   7.961 -0.0290  0.0948  0.2081
   59POPC   GL1 1012   3.813   2.567   7.507 -0.2783 -0.0554  0.0273
   59POPC   GL2 1013   4.055   2.745   7.499 -0.0227 -0.0055 -0.1484
   59POPC   C1A 1014   3.917   2.576   6.989  0.0961  0.2495  0.0233
   59POPC   D2A 1015   3.761   2.710   6.612 -0.0063 -0.0846  0.2664
   59POPC   C3A 1016   3.807   2.830   6.249  0.0830 -0.0393  0.0105
   59POPC   C4A 1017   3.956   2.934   5.884  0.1988 -0.0063  0.1834
   59POPC   C1B 1018   4.427   2.539   7.236  0.0107 -0.0456  0.1690
   59POPC   C2B 1019   4.923   2.411   7.195 -0.1114 -0.0142  0.1256
   59POPC   C3B 1020   5.250   2.512   6.933 -0.4001  0.2356  0.0366
   59POPC   C4B 1021   5.483   2.437   6.676  0.0152  0.3710  0.1820
   60POPC   NC3 1022   5.683   1.565   8.900  0.2077 -0.1962  0.2341
   60POPC   PO4 1023   5.480   1.434   8.466 -0.0557 -0.2456  0.3050
   60POPC   GL1 1024   5.646   1.449   8.015  0.1654  0.2180 -0.1781
   60POPC   GL2 1025   5.956   1.374   8.108 -0.3056  0.3815  0.1324
   60POPC   C1A 1026   5.758   1.255   7.595  0.0977  0.0344 -0.1051
   60POPC   D2A 1027   5.510   1.173   7.251  0.0698  0.1133  0.0216
   60POPC   C3A 1028   5.644   1.017   6.937  0.0220  0.1655 -0.0051
   60POPC   C4A 1029   5.921   0.750   6.617  0.0578  0.1845 -0.2277
   60POPC   C1B 1030   6.251   1.455   7.786  0.0645 -0.3917 -0.2688
   60POPC   C2B 1031   6.517   1.564   7.478 -0.1593 -0.1584 -0.0449
   60POPC   C3B 1032   6.625   1.692   7.068  0.0296  0.1177 -0.3648
   60POPC   C4B 1033   6.366   1.733   6.703  0.1110  0.1813 -0.3004
   61POPC   NC3 1034   4.936   5.421   8.477 -0.3353 -0.1370  0.0225
   61POPC   PO4 1035   5.001   5.455   7.944  0.2652  0.1094  0.4330
   61POPC   GL1 1036   5.052   5.218   7.512  0.2668  0.0638 -0.1890
   61POPC   GL2 1037   5.318   5.344   7.292 -0.1183 -0.1895 -0.1406
   61POPC   C1A 1038   5.246   4.900   7.103 -0.0401  0.0995  0.0564
   61POPC   D2A 1039   5.509   4.725   6.846  0.0456  0.0330  0.1451
   61POPC   C3A 1040   5.984   4.752   6.941 -0.1125  0.0931  0.0464
   61POPC   C4A 1041   6.268   4.879   7.306 -0.1386 -0.1024  0.4155
   61POPC   C1B 1042   5.457   5.716   7.025  0.1923 -0.0042 -0.1962
   61POPC   C2B 1043   5.640   5.797   6.632  0.0274  0.0961  0.1686
   61POPC   C3B 1044   5.899   5.854   6.256  0.0061  0.0502  0.2844
   61POPC   C4B 1045   6.275   6.039   6.125  0.0935 -0.3421  0.0719
   62POPC   NC3 1046   5.791   3.197   8.120  0.0791 -0.1155 -0.1431
   62POPC   PO4 1047   5.806   2.747   8.030  0.0592 -0.0837 -0.0753
   62POPC   GL1 1048   5.783   3.044   7.667  0.0496  0.1766  0.3009
   62POPC   GL2 1049   5.466   3.090   7.609 -0.0286  0.0749  0.0570
   62POPC   C1A 1050   5.891   3.023   7.274 -0.2953 -0.0066  0.0178
   62POPC   D2A 1051   5.731   2.789   7.010  0.0246  0.0223  0.1896
   62POPC   C3A 1052   5.983   2.673   6.684 -0.0157  0.0771  0.0800
   62POPC   C4A 1053   5.820   2.327   6.299 -0.2720  0.1313  0.5956
   62POPC   C1B 1054   5.482   3.290   7.181 -0.0087 -0.1881  0.3240
   62POPC   C2B 1055   5.631   3.299   6.654 -0.1586  0.2819 -0.0004
   62POPC   C3B 1056   5.911   3.271   6.305 -0.1771 -0.1101  0.1543
   62POPC   C4B 1057   6.258   3.309   6.101 -0.0154  0.0570 -0.0957
   63POPC   NC3 1058   1.257   9.279   7.653 -0.1258 -0.1817  0.1431
   63POPC   PO4 1059   0.874   9.435   7.460 -0.2584  0.1523  0.2436
   63POPC   GL1 1060   0.864   9.567   7.082 -0.0992 -0.3167 -0.3253
   63POPC   GL2 1061   0.630   9.835   7.093  0.1876 -0.1361  0.3106
   63POPC   C1A 1062   0.946   9.471   6.547  0.2178 -0.0601  0.2108
   63POPC   D2A 1063   0.888   9.600   6.149  0.1485 -0.2405 -0.0305
   63POPC   C3A 1064   0.835   9.234   5.860 -0.1656 -0.4013  0.0408
   63POPC   C4A 1065   0.866   9.067   5.545 -0.0718 -0.3280 -0.3045
   63POPC   C1B 1066   0.629   9.823   6.681 -0.0793 -0.0586 -0.0774
   63POPC   C2B 1067   0.429   9.819   6.276  0.2337 -0.3131  0.0587
   63POPC   C3B 1068   0.440   9.656   5.865 -0.0074 -0.1503  0.0517
   63POPC   C4B 1069   0.341   9.332   5.767  0.2080  0.0867  0.1848
   64POPC   NC3 1070   6.646   9.190   8.640  0.0152 -0.0028  0.0115
   64POPC   PO4 1071   6.721   8.710   8.494 -0.1912  0.0344  0.1273
   64POPC   GL1 1072   6.898   8.987   8.227  0.1043  0.4489  0.1968
   64POPC   GL2 1073   6.820   8.855   8.043 -0.0729  0.0024 -0.0532
   64POPC   C1A 1074   7.301   8.869   7.923 -0.0789  0.3236  0.0681
   64POPC   D2A 1075   7.618   8.889   7.652  0.1274  0.1702 -0.0500
   64POPC   C3A 1076   7.754   8.679   7.286 -0.1702 -0.0808 -0.1807
   64POPC   C4A 1077   7.551   8.539   7.014 -0.1142 -0.1954  0.0002
   64POPC   C1B 1078   6.869   8.610   7.647  0.0358  0.2179  0.0600
   64POPC   C2B 1079   6.696   8.332   7.353  0.2410  0.1106  0.1300
   64POPC   C3B 1080   6.537   8.081   7.016  0.0240 -0.2511 -0.1078
   64POPC   C4B 1081   6.509   7.663   6.863 -0.0948 -0.0787 -0.0630
   65POPC   NC3 1082   8.423   6.059   8.021  0.0514  0.2598 -0.1843
   65POPC   PO4 1083   8.176   6.343   7.873  0.0558 -0.1849  0.2512
   65POPC   GL1 1084   8.286   6.697   7.561  0.1747  0.6164  0.0050
   65POPC   GL2 1085   8.579   6.925   7.532  0.1129  0.1190 -0.0326
   65POPC   C1A 1086   8.148   6.785   7.151 -0.0059  0.1894 -0.2948
   65POPC   D2A 1087   8.103   6.858   6.721 -0.0322  0.1337 -0.0307
   65POPC   C3A 1088   7.604   6.707   6.525 -0.0113  0.0717  0.0118
   65POPC   C4A 1089   7.352   6.754   6.148 -0.0302  0.2519  0.2565
   65POPC   C1B 1090   8.733   7.095   7.150 -0.0849  0.0201 -0.1859
   65POPC   C2B 1091   8.826   7.328   6.836  0.0353  0.1139  0.0437
   65POPC   C3B 1092   8.943   7.564   6.417  0.0101 -0.0608  0.0994
   65POPC   C4B 1093   9.026   7.862   5.945  0.0332  0.0319 -0.1262
   66POPC   NC3 1094   2.285   8.733   7.921 -0.0020  0.0615 -0.0164
   66POPC   PO4 1095   2.111   8.203   7.947  0.0201 -0.0697  0.1447
   66POPC   GL1 1096   1.785   7.842   7.766  0.0035  0.2224  0.2032
   66POPC   GL2 1097   1.972   7.617   7.577  0.0008 -0.0172 -0.1042
   66POPC   C1A 1098   1.547   8.008   7.346  0.0401 -0.2494  0.0350
   66POPC   D2A 1099   1.632   8.322   7.027  0.1291 -0.2162  0.0246
   66POPC   C3A 1100   2.050   8.429   7.084 -0.0075  0.1707 -0.0773
   66POPC   C4A 1101   2.418   8.208   7.274  0.0279 -0.0054  0.0750
   66POPC   C1B 1102   2.218   7.695   7.145  0.1260 -0.2746 -0.0593
   66POPC   C2B 1103   2.128   7.622   6.699  0.0363  0.0009  0.1158
   66POPC   C3B 1104   2.206   7.556   6.246  0.2741 -0.0086 -0.1977
   66POPC   C4B 1105   1.999   7.457   5.827  0.2047  0.3579 -0.2183
   67POPC   NC3 1106   9.730   1.556   7.932 -0.0017 -0.0210  0.0046
   67POPC   PO4 1107   9.611   1.402   7.601  0.2259 -0.1898  0.4837
   67POPC   GL1 1108   9.481   1.434   7.036 -0.0420 -0.1133 -0.0031
   67POPC   GL2 1109   9.634   1.782   6.977 -0.1003 -0.1187  0.1769
   67POPC   C1A 1110   9.365   1.552   6.618  0.0338 -0.0408  0.1711
   67POPC   D2A 1111   9.638   1.691   6.253  0.0038  0.3685 -0.1542
   67POPC   C3A 1112   9.931   1.468   6.028 -0.2285 -0.0754  0.0680
   67POPC   C4A 1113  10.344   1.358   5.933  0.3009  0.2027  0.1784
   67POPC   C1B 1114   9.921   1.654   6.681  0.0647  0.1535  0.3455
   67POPC   C2B 1115  10.231   1.823   6.327 -0.2311 -0.1463  0.4638
   67POPC   C3B 1116  10.211   1.888   5.885 -0.1326 -0.0828 -0.4720
   67POPC   C4B 1117   9.952   1.589   5.529 -0.1748 -0.3247 -0.1172
   68POPC   NC3 1118   0.622   9.815   7.588  0.2598  0.0853 -0.0255
   68POPC   PO4 1119   0.349   9.423   7.620  0.0153 -0.2035  0.1711
   68POPC   GL1 1120   0.378   9.353   7.208  0.0485 -0.2325 -0.1338
   68POPC   GL2 1121   0.620   9.158   7.162 -0.0071 -0.0177  0.1975
   68POPC   C1A 1122   0.106   9.178   6.951 -0.0371  0.1612 -0.3235
   68POPC   D2A 1123  -0.006   9.200   6.563 -0.0182 -0.1893  0.0392
   68POPC   C3A 1124  -0.165   8.828   6.353 -0.3520 -0.2014  0.0372
   68POPC   C4A 1125  -0.216   8.469   6.001 -0.0768 -0.0287 -0.1974
   68POPC   C1B 1126   0.768   8.962   6.786 -0.2091 -0.0447  0.1620
   68POPC   C2B 1127   0.952   8.980   6.324  0.3774  0.1854 -0.0078
   68POPC   C3B 1128   1.295   8.845   6.010  0.3286  0.1196 -0.3047
   68POPC   C4B 1129   1.639   8.680   6.099 -0.2842 -0.1162  0.2883
   69POPC   NC3 1130  10.510   1.637   7.504  0.2811  0.1731 -0.1684
   69POPC   PO4 1131  10.645   1.241   7.411  0.0699 -0.1918 -0.0809
   69POPC   GL1 1132  10.422   0.950   7.171  0.0580  0.1461  0.0858
   69POPC   GL2 1133  10.302   0.704   7.307 -0.4810 -0.1445  0.2150
   69POPC   C1A 1134  10.464   0.980   6.751  0.0548 -0.0849  0.0283
   69POPC   D2A 1135  10.181   1.165   6.386  0.3521  0.0074 -0.0724
   69POPC   C3A 1136  10.186   0.857   6.108  0.1646  0.0561 -0.0122
   69POPC   C4A 1137  10.003   0.424   6.213 -0.1398 -0.0006  0.5703
   69POPC   C1B 1138  10.007   0.532   7.023 -0.2232 -0.1065 -0.1714
   69POPC   C2B 1139   9.883   0.261   6.721  0.2438 -0.0619  0.3965
   69POPC   C3B 1140   9.867  -0.021   6.384  0.2181  0.0859 -0.0975
   69POPC   C4B 1141   9.753  -0.081   6.022 -0.3951  0.0556  0.4456
   70POPC   NC3 1142   2.672   0.601   8.153 -0.0378  0.5023 -0.1063
   70POPC   PO4 1143   2.862   0.605   7.800  0.1587  0.1377  0.0985
   70POPC   GL1 1144   2.842   0.556   7.359  0.2010 -0.1697 -0.2144
   70POPC   GL2 1145   2.834   0.357   7.141  0.3155  0.0636  0.0988
   70POPC   C1A 1146   2.515   0.687   6.937 -0.3793 -0.1655  0.0953
   70POPC   D2A 1147   2.570   1.007   6.604 -0.2071 -0.1347 -0.2616
   70POPC   C3A 1148   2.374   1.093   6.250  0.1577  0.0764 -0.0743
   70POPC   C4A 1149   2.099   0.886   6.016 -0.1523  0.2190  0.0789
   70POPC   C1B 1150   2.922   0.447   6.686 -0.3056 -0.0416 -0.0816
   70POPC   C2B 1151   3.091   0.773   6.414 -0.1581  0.2268  0.0768
   70POPC   C3B 1152   2.937   1.123   6.229  0.0945  0.0511 -0.1354
   70POPC   C4B 1153   2.799   1.493   6.114  0.0662  0.2465 -0.0039
   71POPC   NC3 1154   9.277   5.969   7.838 -0.0243  0.0761  0.2088
   71POPC   PO4 1155   8.832   5.731   8.031  0.0736  0.0449 -0.3417
   71POPC   GL1 1156   8.831   5.859   7.682 -0.1716 -0.1091 -0.3453
   71POPC   GL2 1157   8.646   5.533   7.505  0.1344  0.1092  0.1158
   71POPC   C1A 1158   8.852   6.067   7.264  0.1312 -0.5030  0.0194
   71POPC   D2A 1159   9.024   6.228   6.931 -0.2068 -0.2362 -0.1459
   71POPC   C3A 1160   8.713   6.322   6.645 -0.3159  0.0642 -0.3361
   71POPC   C4A 1161   8.508   6.616   6.311 -0.3307 -0.2871 -0.0801
   71POPC   C1B 1162   8.797   5.513   7.106  0.2103  0.2259  0.0041
   71POPC   C2B 1163   9.088   5.646   6.800  0.0868 -0.0059  0.1630
   71POPC   C3B 1164   9.125   5.672   6.322 -0.0038  0.0077 -0.3266
   71POPC   C4B 1165   9.318   5.864   6.065  0.0956  0.1946  0.3318
   72POPC   NC3 1166   6.829   9.570   9.349  0.2722 -0.0017 -0.1897
   72POPC   PO4 1167   7.003   9.375   8.980 -0.4096  0.1480 -0.1098
   72POPC   GL1 1168   7.032   9.482   8.488 -0.0818  0.1837  0.0595
   72POPC   GL2 1169   6.828   9.697   8.367 -0.0058  0.2906  0.0005
   72POPC   C1A 1170   6.956   9.409   7.982 -0.0188 -0.1005 -0.1256
   72POPC   D2A 1171   6.727   9.232   7.712  0.0103  0.0920 -0.3245
   72POPC   C3A 1172   6.614   8.872   7.336 -0.1641 -0.1599  0.0199
   72POPC   C4A 1173   6.488   8.591   6.970 -0.0514  0.1625  0.1571
   72POPC   C1B 1174   6.927   9.966   8.122  0.1502 -0.0686  0.0603
   72POPC   C2B 1175   7.142  10.093   7.841  0.2633 -0.1832  0.0883
   72POPC   C3B 1176   7.457  10.072   7.580  0.0591  0.1882  0.0605
   72POPC   C4B 1177   7.740   9.801   7.744 -0.1998 -0.1102 -0.0528
   73POPC   NC3 1178   1.209   6.177   8.193 -0.0542  0.2116  0.0240
   73POPC   PO4 1179   1.619   6.524   8.139  0.2335  0.1404 -0.1690
   73POPC   GL1 1180   1.403   6.335   7.782 -0.1038 -0.3102 -0.0958
   73POPC   GL2 1181   1.363   6.490   7.585 -0.1983  0.0673 -0.2342
   73POPC   C1A 1182   1.292   6.080   7.323 -0.0353 -0.0230  0.1002
   73POPC   D2A 1183   1.197   6.055   6.873 -0.1788 -0.1337 -0.0266
   73POPC   C3A 1184   1.157   5.678   6.559 -0.0099 -0.1414 -0.3792
   73POPC   C4A 1185   1.226   5.301   6.422  0.2350  0.0379  0.0989
   73POPC   C1B 1186   1.170   6.619   7.283  0.0133  0.2404  0.2442
   73POPC   C2B 1187   0.879   6.924   7.045  0.0233  0.2218  0.2796
   73POPC   C3B 1188   0.791   7.130   6.627 -0.1204 -0.0937  0.2338
   73POPC   C4B 1189   0.861   7.271   6.131  0.2108 -0.0842 -0.2124
   74POPC   NC3 1190   1.872   0.831   7.541  0.1023 -0.0309 -0.2573
   74POPC   PO4 1191   2.025   1.088   7.863  0.2381 -0.0650  0.2483
   74POPC   GL1 1192   2.224   1.173   7.324  0.1283  0.0560  0.0467
   74POPC   GL2 1193   2.147   1.009   7.048  0.1109  0.0289  0.1561
   74POPC   C1A 1194   2.468   1.407   6.886 -0.0205  0.0917  0.1680
   74POPC   D2A 1195   2.578   1.648   6.544 -0.2032 -0.0230  0.2501
   74POPC   C3A 1196   2.239   1.840   6.381 -0.3050 -0.1151 -0.1982
   74POPC   C4A 1197   2.166   2.237   6.333 -0.0068  0.0062  0.1229
   74POPC   C1B 1198   2.068   0.978   6.702 -0.1069 -0.0359 -0.1682
   74POPC   C2B 1199   1.889   0.656   6.388  0.1118 -0.2398  0.4690
   74POPC   C3B 1200   1.686   0.274   6.227 -0.2603 -0.0100 -0.0998
   74POPC   C4B 1201   1.437   0.302   5.855 -0.0308  0.1494 -0.0541
   75POPC   NC3 1202   6.995   2.027   8.337  0.2064 -0.2166  0.1320
   75POPC   PO4 1203   7.303   2.222   8.163 -0.1781 -0.2203  0.2264
   75POPC   GL1 1204   7.141   2.137   7.792  0.2417  0.0711  0.0290
   75POPC   GL2 1205   6.899   2.336   7.699  0.3095  0.0437 -0.0863
   75POPC   C1A 1206   7.383   1.961   7.451  0.0491  0.0921  0.0589
   75POPC   D2A 1207   7.606   1.780   7.145 -0.1443  0.2777  0.2762
   75POPC   C3A 1208   7.603   1.570   6.851  0.0411 -0.1516 -0.0835
   75POPC   C4A 1209   7.358   1.841   6.439  0.2256 -0.0220  0.1600
   75POPC   C1B 1210   6.755   2.287   7.201  0.2247 -0.1246 -0.0883
   75POPC   C2B 1211   6.613   2.172   6.799 -0.3662 -0.3257 -0.0086
   75POPC   C3B 1212   6.403   2.302   6.417 -0.3899  0.0740 -0.1102
   75POPC   C4B 1213   6.267   2.118   6.040 -0.2654  0.3302  0.0337
   76POPC   NC3 1214   5.857   9.623   8.591 -0.1200  0.2707  0.0255
   76POPC   PO4 1215   6.156   9.413   8.364 -0.0808 -0.3627  0.1451
   76POPC   GL1 1216   6.216   9.396   7.913  0.0300  0.1840  0.1723
   76POPC   GL2 1217   6.470   9.597   7.960 -0.3544  0.0148  0.1845
   76POPC   C1A 1218   6.329   9.444   7.446 -0.3018 -0.1543 -0.0148
   76POPC   D2A 1219   6.711   9.385   7.256 -0.0459  0.1816 -0.0220
   76POPC   C3A 1220   7.016   9.340   6.883  0.0696 -0.2355  0.3130
   76POPC   C4A 1221   7.503   9.258   6.972 -0.4759 -0.0247  0.0895
   76POPC   C1B 1222   6.773   9.741   7.607 -0.2758  0.1531  0.0028
   76POPC   C2B 1223   6.700  10.190   7.516 -0.0077  0.2773 -0.1682
   76POPC   C3B 1224   6.775  10.429   7.765 -0.0244  0.2941  0.2618
   76POPC   C4B 1225   7.067  10.576   8.055  0.2092 -0.0604  0.0598
   77POPC   NC3 1226   7.696   1.159   8.867  0.0786  0.3144 -0.0087
   77POPC   PO4 1227   7.521   1.334   8.551  0.2768 -0.1837  0.0378
   77POPC   GL1 1228   7.404   1.257   8.149 -0.1687 -0.2581 -0.0201
   77POPC   GL2 1229   7.598   1.429   7.896 -0.2027  0.1343 -0.0022
   77POPC   C1A 1230   7.234   0.995   7.812  0.0254  0.4105  0.4163
   77POPC   D2A 1231   7.124   0.629   7.900 -0.2218  0.0527 -0.3093
   77POPC   C3A 1232   7.349   0.343   7.926 -0.4384  0.3382  0.0389
   77POPC   C4A 1233   7.594   0.283   8.324 -0.0475  0.2168 -0.1567
   77POPC   C1B 1234   7.426   1.435   7.553  0.0856  0.1583 -0.1861
   77POPC   C2B 1235   7.368   1.310   7.222 -0.1123  0.0058 -0.2552
   77POPC   C3B 1236   7.394   1.061   6.854  0.1968  0.1667  0.0447
   77POPC   C4B 1237   7.679   0.878   6.519  0.0255  0.0976 -0.0571
   78POPC   NC3 1238   2.711   6.553   8.122  0.0352  0.2195 -0.0851
   78POPC   PO4 1239   2.487   6.241   8.136  0.1897 -0.0123 -0.0777
   78POPC   GL1 1240   2.686   6.248   7.677 -0.1803 -0.0566 -0.0328
   78POPC   GL2 1241   3.033   6.251   7.764  0.0806 -0.2752 -0.0239
   78POPC   C1A 1242   2.883   6.335   7.282  0.0153 -0.1714  0.0366
   78POPC   D2A 1243   2.939   5.980   6.916 -0.3291 -0.3802  0.3430
   78POPC   C3A 1244   3.050   6.084   6.553  0.0469  0.2508 -0.0127
   78POPC   C4A 1245   3.353   6.458   6.380  0.0284  0.1069 -0.1631
   78POPC   C1B 1246   3.213   5.986   7.473 -0.2492 -0.0168 -0.0959
   78POPC   C2B 1247   3.192   5.622   7.158 -0.2136  0.2155 -0.2325
   78POPC   C3B 1248   3.297   5.182   7.200  0.2328 -0.1738  0.0429
   78POPC   C4B 1249   3.180   4.765   7.194 -0.0764 -0.1488 -0.2474
   79POPC   NC3 1250   8.633   9.147   8.310  0.3252  0.3502  0.1612
   79POPC   PO4 1251   8.933   8.777   8.289 -0.0845  0.0369  0.2295
   79POPC   GL1 1252   8.832   8.592   7.897  0.3005 -0.2055  0.1540
   79POPC   GL2 1253   9.127   8.686   7.771 -0.1078 -0.2197 -0.0369
   79POPC   C1A 1254   8.679   8.571   7.474 -0.3441  0.3958  0.1380
   79POPC   D2A 1255   8.271   8.566   7.278 -0.0131 -0.1088 -0.0583
   79POPC   C3A 1256   8.123   8.301   6.993 -0.0061 -0.0404 -0.0723
   79POPC   C4A 1257   8.019   8.538   6.698  0.0886 -0.3720  0.0503
   79POPC   C1B 1258   9.153   8.811   7.303  0.0768  0.0552 -0.1163
   79POPC   C2B 1259   9.040   8.742   6.829 -0.1078 -0.1873 -0.0683
   79POPC   C3B 1260   8.852   8.736   6.515 -0.3882  0.0650 -0.1336
   79POPC   C4B 1261   8.673   8.632   6.128  0.4015 -0.4678  0.0114
   80POPC   NC3 1262   8.760   0.987   8.849 -0.0483  0.1325  0.1658
   80POPC   PO4 1263   8.517   1.096   8.564 -0.3142  0.0638  0.1172
   80POPC   GL1 1264   8.653   0.725   8.200  0.1362 -0.3217  0.0958
   80POPC   GL2 1265   8.631   0.384   8.274 -0.1583  0.0840  0.0566
   80POPC   C1A 1266   8.914   0.685   7.702  0.0022 -0.0558 -0.1806
   80POPC   D2A 1267   9.045   0.418   7.432 -0.4889 -0.1182 -0.0893
   80POPC   C3A 1268   8.726   0.140   7.299  0.0697  0.0913  0.1537
   80POPC   C4A 1269   8.750  -0.319   7.155 -0.1409 -0.4727  0.1048
   80POPC   C1B 1270   8.749   0.231   7.906  0.0755  0.0834  0.1286
   80POPC   C2B 1271   8.740  -0.166   7.775 -0.2220  0.2261 -0.2026
   80POPC   C3B 1272   8.445  -0.498   7.760  0.2031  0.2485  0.2867
   80POPC   C4B 1273   8.013  -0.471   7.780  0.1121  0.0428  0.0768
   81POPC   NC3 1274   9.397   4.981   7.874 -0.0090 -0.1509  0.1681
   81POPC   PO4 1275   9.832   5.053   7.909  0.3760  0.1218  0.0967
   81POPC   GL1 1276   9.845   4.995   7.441  0.0695 -0.0618 -0.1706
   81POPC   GL2 1277  10.149   5.218   7.542 -0.1163  0.1470  0.0453
   81POPC   C1A 1278   9.919   5.270   7.084 -0.3263 -0.4222 -0.0410
   81POPC   D2A 1279  10.102   5.049   6.704  0.1949 -0.1262  0.0172
   81POPC   C3A 1280  10.280   4.729   6.516  0.3528  0.2423  0.1290
   81POPC   C4A 1281  10.534   4.422   6.570  0.0454  0.3144 -0.0656
   81POPC   C1B 1282  10.444   5.406   7.245  0.2346  0.1443  0.4318
   81POPC   C2B 1283  10.384   5.473   6.804 -0.1348 -0.0541  0.5582
   81POPC   C3B 1284  10.667   5.491   6.492 -0.2228  0.1583  0.1805
   81POPC   C4B 1285  10.964   5.773   6.381  0.1106  0.0505 -0.1654
   82POPC   NC3 1286   2.099   5.937   8.229 -0.0747 -0.1094 -0.0887
   82POPC   PO4 1287   2.507   5.755   8.471  0.1834  0.1197 -0.1925
   82POPC   GL1 1288   2.713   5.805   8.012 -0.1004  0.2546 -0.3920
   82POPC   GL2 1289   2.758   5.428   7.856  0.0931  0.2441 -0.3423
   82POPC   C1A 1290   2.793   5.766   7.549  0.0453  0.1467  0.1966
   82POPC   D2A 1291   2.599   5.879   7.215 -0.1885  0.0492  0.0785
   82POPC   C3A 1292   2.529   6.295   6.967 -0.0710 -0.3738  0.1681
   82POPC   C4A 1293   2.505   6.714   6.840 -0.0841 -0.0206  0.0133
   82POPC   C1B 1294   2.448   5.362   7.550 -0.0860 -0.0310  0.1568
   82POPC   C2B 1295   2.241   5.507   7.257 -0.1341 -0.0923 -0.0368
   82POPC   C3B 1296   2.358   5.574   6.893 -0.0745  0.2095 -0.3332
   82POPC   C4B 1297   2.581   5.348   6.561 -0.1012  0.1452 -0.1357
   83POPC   NC3 1298   0.874   5.605   8.936  0.0125 -0.2678 -0.2202
   83POPC   PO4 1299   0.737   5.711   8.571 -0.0919 -0.1288 -0.3015
   83POPC   GL1 1300   0.873   5.738   8.158 -0.2180  0.0025 -0.0579
   83POPC   GL2 1301   1.138   5.738   7.928  0.2230 -0.4411  0.2493
   83POPC   C1A 1302   0.699   5.508   7.829  0.0709  0.0907  0.0235
   83POPC   D2A 1303   0.626   5.352   7.426  0.1748  0.0267 -0.1180
   83POPC   C3A 1304   1.007   5.112   7.540 -0.1154 -0.1126  0.1404
   83POPC   C4A 1305   1.161   4.673   7.465  0.6732 -0.0953  0.2343
   83POPC   C1B 1306   1.471   5.670   7.452 -0.0467 -0.1758 -0.1498
   83POPC   C2B 1307   1.611   5.796   7.019 -0.1411  0.4263  0.1331
   83POPC   C3B 1308   1.605   5.869   6.556 -0.1164  0.0924  0.0784
   83POPC   C4B 1309   1.878   5.858   6.206 -0.0104 -0.1434 -0.1200
   84POPC   NC3 1310   5.348   8.913   7.903 -0.2780  0.0504 -0.1675
   84POPC   PO4 1311   4.948   9.041   7.670  0.2420 -0.3660  0.0329
   84POPC   GL1 1312   5.208   8.857   7.399  0.3536  0.0257 -0.0908
   84POPC   GL2 1313   5.223   9.046   7.208 -0.3030  0.0543 -0.3185
   84POPC   C1A 1314   5.074   8.528   7.192 -0.0118  0.0902 -0.1282
   84POPC   D2A 1315   4.909   8.193   6.872  0.2001  0.0185  0.1307
   84POPC   C3A 1316   5.108   8.318   6.496  0.2710 -0.0630  0.1053
   84POPC   C4A 1317   5.453   8.304   6.092  0.2275 -0.0976  0.2034
   84POPC   C1B 1318   5.228   9.268   6.774 -0.0900 -0.0507 -0.1105
   84POPC   C2B 1319   5.163   9.577   6.366  0.0650 -0.1804 -0.1928
   84POPC   C3B 1320   4.909   9.949   6.083  0.0793 -0.0216  0.0581
   84POPC   C4B 1321   4.951  10.391   5.964 -0.0645  0.0445  0.2932
   85POPC   NC3 1322   6.891   5.489   7.732 -0.0205  0.1266  0.2058
   85POPC   PO4 1323   6.945   5.053   7.741  0.0670  0.3658 -0.4149
   85POPC   GL1 1324   7.172   5.077   7.240 -0.0351  0.0152  0.0367
   85POPC   GL2 1325   7.164   5.362   7.246 -0.0650 -0.3394 -0.2547
   85POPC   C1A 1326   6.961   5.145   6.838  0.2076  0.0669 -0.2585
   85POPC   D2A 1327   6.894   5.431   6.486 -0.2972  0.0297 -0.0082
   85POPC   C3A 1328   6.396   5.452   6.312  0.0422 -0.0049  0.1356
   85POPC   C4A 1329   6.127   5.417   5.963 -0.1091  0.2946  0.4718
   85POPC   C1B 1330   7.357   5.539   6.882 -0.0564 -0.1079  0.0230
   85POPC   C2B 1331   7.447   5.460   6.507  0.1929 -0.0012 -0.3502
   85POPC   C3B 1332   7.834   5.584   6.366  0.0117 -0.1543  0.0113
   85POPC   C4B 1333   8.258   5.469   6.365 -0.1438 -0.1348  0.1415
   86POPC   NC3 1334   1.903   6.922   8.161  0.2044 -0.2580 -0.0167
   86POPC   PO4 1335   1.773   7.365   7.983  0.1281 -0.1846  0.3125
   86POPC   GL1 1336   1.734   7.116   7.658 -0.1555 -0.0356  0.0064
   86POPC   GL2 1337   1.724   6.775   7.716  0.1187  0.1112  0.1020
   86POPC   C1A 1338   2.094   6.972   7.419 -0.0096  0.1451  0.0762
   86POPC   D2A 1339   2.554   6.705   7.377 -0.1100  0.2175 -0.0289
   86POPC   C3A 1340   2.966   6.884   7.395  0.2205  0.1156  0.0316
   86POPC   C4A 1341   3.292   6.956   7.295  0.0610  0.1751  0.1967
   86POPC   C1B 1342   1.838   6.539   7.397 -0.2595 -0.1767 -0.6455
   86POPC   C2B 1343   2.079   6.600   7.126 -0.0198 -0.1475 -0.0906
   86POPC   C3B 1344   2.099   6.524   6.694  0.0967  0.1685  0.0210
   86POPC   C4B 1345   1.753   6.787   6.541  0.0791  0.1761  0.0775
   87POPC   NC3 1346   2.121   5.051   8.393  0.2330  0.1864  0.2041
   87POPC   PO4 1347   2.357   4.931   8.084 -0.0719 -0.3313 -0.0716
   87POPC   GL1 1348   2.598   4.855   7.671 -0.0836 -0.0889 -0.2034
   87POPC   GL2 1349   2.895   4.734   7.610  0.0766  0.0768 -0.2484
   87POPC   C1A 1350   2.720   4.909   7.234  0.3346  0.1780  0.0815
   87POPC   D2A 1351   2.731   4.891   6.699  0.0920 -0.1594 -0.1740
   87POPC   C3A 1352   3.009   4.635   6.585 -0.0025  0.1111  0.1667
   87POPC   C4A 1353   3.051   4.127   6.541  0.1623  0.0215 -0.0008
   87POPC   C1B 1354   2.765   4.417   7.470 -0.2065 -0.0959 -0.0594
   87POPC   C2B 1355   2.939   4.006   7.294  0.1156 -0.1737 -0.0899
   87POPC   C3B 1356   2.874   3.836   6.898 -0.0211  0.1857 -0.1337
   87POPC   C4B 1357   2.940   3.407   7.027  0.0646  0.5383 -0.1985
   88POPC   NC3 1358   0.224   8.531   8.252 -0.0556  0.4309 -0.0156
   88POPC   PO4 1359   0.369   8.707   7.853  0.1329  0.1398 -0.0731
   88POPC   GL1 1360   0.357   8.327   7.519 -0.2544 -0.1054  0.0577
   88POPC   GL2 1361   0.564   8.597   7.228 -0.1915 -0.1400  0.0505
   88POPC   C1A 1362   0.277   8.207   7.137  0.0903 -0.0272  0.3219
   88POPC   D2A 1363  -0.065   8.090   6.903 -0.0958 -0.0152  0.0243
   88POPC   C3A 1364  -0.422   7.943   6.804 -0.1583  0.0031 -0.2052
   88POPC   C4A 1365  -0.594   7.755   6.462 -0.1058 -0.0539 -0.1543
   88POPC   C1B 1366   0.781   8.254   7.118 -0.0062  0.0603  0.1117
   88POPC   C2B 1367   1.145   8.111   6.989  0.2231 -0.1094 -0.2383
   88POPC   C3B 1368   1.287   8.166   6.677 -0.0064  0.2490  0.1309
   88POPC   C4B 1369   1.617   8.192   6.384  0.0052 -0.4612 -0.1334
   89POPC   NC3 1370   7.020   8.368   8.665  0.3497  0.1725  0.0450
   89POPC   PO4 1371   7.372   8.197   8.496  0.0967  0.3297 -0.1418
   89POPC   GL1 1372   7.533   8.136   8.068  0.4673  0.0948 -0.3009
   89POPC   GL2 1373   7.631   7.841   7.926  0.0048 -0.1415 -0.0595
   89POPC   C1A 1374   7.362   8.383   7.737 -0.0782 -0.0444 -0.0725
   89POPC   D2A 1375   7.288   8.261   7.348 -0.0610 -0.3709 -0.3483
   89POPC   C3A 1376   7.050   8.504   7.076 -0.0251 -0.1413 -0.0005
   89POPC   C4A 1377   6.907   8.489   6.672  0.3898  0.2538 -0.2017
   89POPC   C1B 1378   7.835   8.112   7.688 -0.3900 -0.0932 -0.5479
   89POPC   C2B 1379   7.727   8.121   7.237 -0.1061  0.0304  0.2123
   89POPC   C3B 1380   7.518   8.083   6.919  0.1621 -0.4401  0.0515
   89POPC   C4B 1381   7.243   8.222   6.503 -0.3765  0.1904 -0.3701
   90POPC   NC3 1382   5.872   7.442   7.811 -0.1947  0.3459 -0.0371
   90POPC   PO4 1383   5.740   7.893   7.900 -0.1143  0.1014  0.3432
   90POPC   GL1 1384   5.554   8.141   7.545  0.0806  0.1277 -0.2438
   90POPC   GL2 1385   5.562   8.528   7.613 -0.1869  0.1302  0.1459
   90POPC   C1A 1386   5.463   8.225   7.090 -0.2683 -0.1422  0.3457
   90POPC   D2A 1387   5.733   8.277   6.661  0.0210  0.1080  0.0116
   90POPC   C3A 1388   6.002   7.938   6.328  0.3607  0.0362 -0.0726
   90POPC   C4A 1389   6.084   7.781   6.014 -0.3063  0.0370  0.1707
   90POPC   C1B 1390   5.745   8.615   7.271  0.0578  0.1548 -0.1920
   90POPC   C2B 1391   5.423   8.735   6.851 -0.1221  0.1358  0.0747
   90POPC   C3B 1392   5.531   8.727   6.445  0.0455 -0.0625  0.0917
   90POPC   C4B 1393   5.634   8.808   5.980 -0.0797 -0.2733  0.0002
   91POPC   NC3 1394   9.892   4.061   8.291 -0.1317  0.2121  0.2021
   91POPC   PO4 1395  10.006   4.147   7.825 -0.1659 -0.2824 -0.3029
   91POPC   GL1 1396   9.996   4.296   7.420  0.1272 -0.2503 -0.0786
   91POPC   GL2 1397  10.198   4.189   7.249 -0.0636  0.0871 -0.1562
   91POPC   C1A 1398  10.118   4.656   7.169  0.1384 -0.0063  0.0591
   91POPC   D2A 1399  10.461   4.769   7.032  0.1451 -0.0886  0.0606
   91POPC   C3A 1400  10.820   5.004   7.166 -0.1555  0.0761 -0.0332
   91POPC   C4A 1401  10.972   5.353   6.976  0.1880 -0.0823  0.0556
   91POPC   C1B 1402  10.518   4.090   6.969 -0.3593  0.0847 -0.1221
   91POPC   C2B 1403  10.931   4.005   6.920  0.1367 -0.2282 -0.0390
   91POPC   C3B 1404  11.096   3.929   6.501  0.3238 -0.1607  0.0175
   91POPC   C4B 1405  11.093   3.693   6.088  0.1604 -0.0373 -0.0036
   92POPC   NC3 1406   2.283   4.375   8.225  0.1473  0.1495  0.3106
   92POPC   PO4 1407   1.883   4.214   8.011 -0.0136 -0.0201 -0.2688
   92POPC   GL1 1408   1.809   4.409   7.666  0.2292 -0.0260 -0.1167
   92POPC   GL2 1409   2.034   4.643   7.738  0.0646 -0.2977 -0.2742
   92POPC   C1A 1410   1.738   4.784   7.348 -0.1534 -0.4169 -0.1634
   92POPC   D2A 1411   1.394   5.030   7.245  0.0613 -0.1242  0.1199
   92POPC   C3A 1412   0.997   4.941   7.094  0.1555 -0.0518  0.2068
   92POPC   C4A 1413   0.596   4.873   6.834  0.0109 -0.0603  0.1458
   92POPC   C1B 1414   2.191   4.933   7.419 -0.2055 -0.1282  0.0451
   92POPC   C2B 1415   2.318   5.067   6.989 -0.0247 -0.0138 -0.0090
   92POPC   C3B 1416   2.183   4.995   6.581  0.0648 -0.4936  0.2201
   92POPC   C4B 1417   2.155   4.726   6.196 -0.0054 -0.0966  0.1173
   93POPC   NC3 1418   4.182   3.820   7.834 -0.2273 -0.1880 -0.1253
   93POPC   PO4 1419   3.955   4.171   7.809  0.0131  0.1932 -0.1010
   93POPC   GL1 1420   3.934   4.051   7.472  0.0684  0.1714 -0.0381
   93POPC   GL2 1421   4.005   3.650   7.384  0.2017  0.1942 -0.0104
   93POPC   C1A 1422   3.823   3.992   7.085 -0.0545  0.0391 -0.1004
   93POPC   D2A 1423   3.676   3.925   6.730  0.1139 -0.2077  0.0580
   93POPC   C3A 1424   3.581   4.149   6.420  0.1659  0.0638 -0.2824
   93POPC   C4A 1425   3.360   4.229   6.116 -0.1964 -0.1028 -0.0365
   93POPC   C1B 1426   4.088   3.595   6.914 -0.2278 -0.0069 -0.0493
   93POPC   C2B 1427   4.231   3.502   6.515  0.1300  0.1447  0.1330
   93POPC   C3B 1428   4.362   3.135   6.287 -0.0731  0.2462 -0.3695
   93POPC   C4B 1429   4.751   2.781   6.246  0.0445  0.0166  0.0273
   94POPC   NC3 1430   8.221   8.989   8.912  0.0614 -0.1654  0.2658
   94POPC   PO4 1431   8.040   8.884   8.581 -0.0493 -0.0017  0.2277
   94POPC   GL1 1432   8.130   9.045   8.148 -0.3571 -0.0927  0.0433
   94POPC   GL2 1433   8.369   8.905   7.959  0.0709 -0.1864  0.0658
   94POPC   C1A 1434   8.221   9.385   7.774  0.0348  0.0122 -0.1930
   94POPC   D2A 1435   8.439   9.363   7.404  0.0208 -0.3765 -0.1936
   94POPC   C3A 1436   8.419   9.477   6.988  0.0535  0.3461  0.0522
   94POPC   C4A 1437   8.163   9.332   6.648 -0.0209 -0.1754 -0.2551
   94POPC   C1B 1438   8.100   8.969   7.497  0.0259 -0.0760 -0.2170
   94POPC   C2B 1439   7.994   9.113   7.103  0.1732  0.2264  0.2384
   94POPC   C3B 1440   7.866   8.961   6.622  0.2472  0.0146  0.0177
   94POPC   C4B 1441   7.640   8.810   6.215  0.0219 -0.1673 -0.3322
   95POPC   NC3 1442  10.424   5.334   8.530  0.2539  0.3692  0.0407
   95POPC   PO4 1443  10.468   5.589   8.140 -0.1432 -0.1446  0.0111
   95POPC   GL1 1444  10.507   5.723   7.655 -0.0648 -0.1726 -0.1416
   95POPC   GL2 1445  10.821   5.699   7.387  0.0698 -0.0608  0.2319
   95POPC   C1A 1446  10.111   5.724   7.485  0.0227  0.0634  0.1575
   95POPC   D2A 1447   9.952   5.765   7.026 -0.3116 -0.0799  0.1611
   95POPC   C3A 1448  10.051   5.888   6.663 -0.1919  0.0647 -0.0349
   95POPC   C4A 1449  10.120   6.166   6.333  0.3329  0.1626  0.1161
   95POPC   C1B 1450  11.224   5.784   7.106  0.2351 -0.2097 -0.2466
   95POPC   C2B 1451  11.395   5.859   6.773 -0.0949 -0.1710 -0.1000
   95POPC   C3B 1452  11.366   6.072   6.387 -0.0964 -0.1917  0.2310
   95POPC   C4B 1453  11.532   6.120   5.974 -0.2674  0.0493 -0.0864
   96POPC   NC3 1454   6.447   8.387   8.283  0.0547  0.0592 -0.0089
   96POPC   PO4 1455   6.725   7.997   8.292  0.2990 -0.2319  0.1317
   96POPC   GL1 1456   6.799   7.866   7.821  0.2031 -0.0460  0.1924
   96POPC   GL2 1457   7.046   7.916   7.795 -0.1089 -0.1324 -0.1889
   96POPC   C1A 1458   6.710   7.738   7.474  0.0189  0.0076 -0.1935
   96POPC   D2A 1459   7.024   7.811   7.156  0.0920  0.0249  0.2479
   96POPC   C3A 1460   6.939   7.934   6.757 -0.1296  0.0269  0.2022
   96POPC   C4A 1461   6.605   7.978   6.468 -0.2246  0.0456  0.1431
   96POPC   C1B 1462   7.375   7.753   7.480 -0.0540 -0.1992 -0.1486
   96POPC   C2B 1463   7.549   7.592   7.080 -0.2259  0.0873 -0.0270
   96POPC   C3B 1464   7.392   7.604   6.701 -0.0502  0.0872 -0.1811
   96POPC   C4B 1465   7.638   7.846   6.284 -0.1866 -0.1992  0.0867
   97POPC   NC3 1466   3.394   8.199   7.815  0.0864  0.0762 -0.0584
   97POPC   PO4 1467   2.980   8.286   7.875  0.2618 -0.3113  0.1716
   97POPC   GL1 1468   2.957   8.195   7.405 -0.0991 -0.2357  0.2143
   97POPC   GL2 1469   2.879   8.453   7.319  0.0418 -0.0028 -0.1537
   97POPC   C1A 1470   3.211   8.056   7.043 -0.3330  0.0215 -0.1548
   97POPC   D2A 1471   3.340   8.286   6.671  0.0286  0.0763  0.1142
   97POPC   C3A 1472   2.977   8.172   6.457 -0.0344  0.2268  0.0522
   97POPC   C4A 1473   2.623   7.852   6.317  0.0475 -0.0218 -0.1484
   97POPC   C1B 1474   3.015   8.676   6.971  0.2515  0.1714  0.0203
   97POPC   C2B 1475   3.252   8.868   6.634  0.1131  0.0429 -0.0187
   97POPC   C3B 1476   3.152   9.078   6.208  0.0096 -0.1429  0.4415
   97POPC   C4B 1477   3.328   8.896   5.894 -0.0376  0.0897 -0.2840
   98POPC   NC3 1478   0.752   1.796   7.857  0.0977 -0.1520 -0.1337
   98POPC   PO4 1479   0.396   1.556   7.698  0.1431 -0.1566 -0.1086
   98POPC   GL1 1480   0.298   1.818   7.318 -0.0074  0.2379 -0.0501
   98POPC   GL2 1481   0.047   2.040   7.244 -0.2932 -0.1487  0.1247
   98POPC   C1A 1482   0.231   1.722   6.883  0.1794  0.2328 -0.0747
   98POPC   D2A 1483   0.480   1.641   6.526 -0.0409  0.0983 -0.1598
   98POPC   C3A 1484   0.980   1.721   6.498 -0.1110 -0.0620  0.3246
   98POPC   C4A 1485   1.369   1.454   6.533 -0.0261  0.2037 -0.0601
   98POPC   C1B 1486   0.293   2.174   6.933 -0.2722 -0.2250  0.3202
   98POPC   C2B 1487   0.379   2.173   6.630  0.2710 -0.0480 -0.1607
   98POPC   C3B 1488   0.456   2.205   6.174 -0.1147  0.0202  0.0294
   98POPC   C4B 1489   0.713   1.750   6.099  0.4999 -0.4241 -0.0924
   99POPC   NC3 1490   9.754   0.951   7.776 -0.1810 -0.5743 -0.2264
   99POPC   PO4 1491   9.993   0.598   7.699 -0.2107 -0.0997 -0.1934
   99POPC   GL1 1492   9.811   0.406   7.459 -0.0751  0.1559  0.0946
   99POPC   GL2 1493   9.516   0.064   7.545 -0.0634 -0.0814  0.1280
   99POPC   C1A 1494   9.506   0.549   7.131  0.1035 -0.0029 -0.0500
   99POPC   D2A 1495   9.189   0.450   6.856 -0.1606  0.0551  0.1624
   99POPC   C3A 1496   8.964   0.673   6.636 -0.1150 -0.0443  0.1322
   99POPC   C4A 1497   8.658   0.926   6.598  0.0924 -0.3216 -0.0243
   99POPC   C1B 1498   9.661   0.074   7.093  0.0985 -0.0534 -0.0633
   99POPC   C2B 1499   9.432   0.025   6.675  0.2631  0.0798  0.3271
   99POPC   C3B 1500   9.083   0.201   6.362  0.0019 -0.2902 -0.0902
   99POPC   C4B 1501   9.131   0.095   5.866 -0.3344 -0.1818 -0.0079
  100POPC   NC3 1502   9.373   2.842   8.100  0.2154  0.1874 -0.0835
  100POPC   PO4 1503   9.631   3.256   7.909  0.2236 -0.1275 -0.1678
  100POPC   GL1 1504   9.572   3.483   7.526 -0.2491 -0.1353 -0.1694
  100POPC   GL2 1505   9.324   3.629   7.671  0.1771 -0.2343 -0.0176
  100POPC   C1A 1506   9.677   3.432   6.964 -0.0356 -0.1409 -0.0441
  100POPC   D2A 1507   9.781   3.250   6.558 -0.1807 -0.0548 -0.1445
  100POPC   C3A 1508   9.820   3.521   6.231  0.1335  0.1745  0.0088
  100POPC   C4A 1509   9.737   3.583   5.793 -0.2786 -0.1827  0.0239
  100POPC   C1B 1510   9.234   3.666   7.214 -0.2592  0.1244  0.3001
  100POPC   C2B 1511   9.043   3.771   6.952  0.0641 -0.1485 -0.1302
  100POPC   C3B 1512   8.956   3.747   6.544 -0.0782  0.1645 -0.0546
  100POPC   C4B 1513   9.151   3.961   6.211  0.1045 -0.0595 -0.1202
  101POPC   NC3 1514   8.459   3.825   7.307 -0.0095 -0.1665  0.2787
  101POPC   PO4 1515   8.204   4.173   7.449  0.0694 -0.1852  0.1136
  101POPC   GL1 1516   8.401   4.397   7.097 -0.1453 -0.0352 -0.0558
  101POPC   GL2 1517   8.664   4.328   7.246 -0.0038  0.2914 -0.1187
  101POPC   C1A 1518   8.636   4.719   6.822 -0.0875 -0.1170 -0.2091
  101POPC   D2A 1519   8.862   4.918   6.473 -0.0538 -0.4666 -0.2280
  101POPC   C3A 1520   9.142   4.723   6.239 -0.1416  0.3377  0.0737
  101POPC   C4A 1521   9.382   4.414   6.253 -0.0334 -0.1684  0.0951
  101POPC   C1B 1522   8.841   4.262   6.790  0.0200 -0.1704  0.2121
  101POPC   C2B 1523   8.770   4.434   6.354  0.1265 -0.0501  0.1905
  101POPC   C3B 1524   8.966   4.367   5.894  0.0667 -0.0321  0.1351
  101POPC   C4B 1525   9.402   4.718   5.715 -0.0578  0.2374 -0.1256
  102POPC   NC3 1526   5.185   4.170   8.347  0.3338 -0.2308  0.0779
  102POPC   PO4 1527   5.069   3.917   7.928 -0.0250 -0.0304  0.0567
  102POPC   GL1 1528   5.166   3.735   7.481 -0.1086  0.1865 -0.2987
  102POPC   GL2 1529   5.457   3.755   7.360 -0.0342 -0.4442  0.1267
  102POPC   C1A 1530   4.969   3.344   7.241  0.3890 -0.1522 -0.4105
  102POPC   D2A 1531   4.814   2.949   7.185  0.1708  0.0387 -0.2030
  102POPC   C3A 1532   4.781   2.705   6.791  0.2347 -0.3510 -0.0053
  102POPC   C4A 1533   5.021   2.472   6.503  0.2940  0.4174 -0.0649
  102POPC   C1B 1534   5.282   3.656   6.926  0.2261 -0.0321 -0.0569
  102POPC   C2B 1535   5.074   3.705   6.598  0.1805  0.0841  0.1728
  102POPC   C3B 1536   5.350   3.564   6.259  0.1507 -0.0237 -0.1181
  102POPC   C4B 1537   5.488   3.160   6.074 -0.1448  0.0405  0.2829
  103POPC   NC3 1538   1.363   4.377   8.098 -0.2457 -0.1782  0.3461
  103POPC   PO4 1539   0.997   4.701   8.111 -0.1988  0.0286  0.0792
  103POPC   GL1 1540   0.819   4.492   7.747  0.0357 -0.1941 -0.3253
  103POPC   GL2 1541   1.049   4.185   7.695  0.2201 -0.0508 -0.0369
  103POPC   C1A 1542   0.589   4.185   7.405 -0.2605  0.4354  0.3811
  103POPC   D2A 1543   0.577   3.803   7.284 -0.0012 -0.0403 -0.1604
  103POPC   C3A 1544   0.521   3.536   6.914  0.0136 -0.1454  0.1031
  103POPC   C4A 1545   0.863   3.612   6.590  0.2833 -0.0783  0.1097
  103POPC   C1B 1546   1.146   4.064   7.292  0.1442 -0.0946  0.1090
  103POPC   C2B 1547   1.051   3.646   7.074 -0.2781  0.3173  0.1216
  103POPC   C3B 1548   1.100   3.326   6.975  0.1447 -0.0448  0.3065
  103POPC   C4B 1549   0.910   3.110   6.659  0.4027 -0.0153  0.1155
  104POPC   NC3 1550   7.789   7.824   8.481 -0.0039 -0.0525  0.0524
  104POPC   PO4 1551   7.579   7.451   8.223 -0.0496 -0.0429  0.2515
  104POPC   GL1 1552   7.805   7.313   7.917 -0.0083  0.0404  0.3295
  104POPC   GL2 1553   8.028   7.114   7.797 -0.0358  0.0247  0.1654
  104POPC   C1A 1554   7.773   7.527   7.549  0.0192 -0.1945 -0.0604
  104POPC   D2A 1555   8.078   7.732   7.210 -0.3559 -0.3461 -0.0439
  104POPC   C3A 1556   8.047   7.725   6.737 -0.0530  0.1773 -0.4960
  104POPC   C4A 1557   8.050   8.107   6.487  0.1066  0.1024 -0.0377
  104POPC   C1B 1558   7.762   7.035   7.378  0.2503 -0.0059  0.2277
  104POPC   C2B 1559   7.727   7.004   6.923  0.0892  0.2849 -0.3005
  104POPC   C3B 1560   7.795   7.281   6.555  0.1000  0.0050  0.2242
  104POPC   C4B 1561   7.993   7.500   6.156  0.3574 -0.0457  0.0390
  105POPC   NC3 1562   3.643   5.043   8.028  0.4129 -0.0036 -0.2663
  105POPC   PO4 1563   3.279   4.757   7.926 -0.3923  0.0168  0.0646
  105POPC   GL1 1564   3.555   4.464   7.683  0.0331 -0.1497  0.1668
  105POPC   GL2 1565   3.797   4.624   7.719  0.0916 -0.0740 -0.2139
  105POPC   C1A 1566   3.477   4.301   7.302 -0.1421  0.1079  0.1019
  105POPC   D2A 1567   3.303   4.148   6.971  0.1225 -0.1033  0.0565
  105POPC   C3A 1568   2.866   4.430   6.972 -0.1867 -0.2043  0.2030
  105POPC   C4A 1569   2.464   4.508   6.943  0.2553  0.0575  0.0390
  105POPC   C1B 1570   3.660   4.911   7.420  0.1709  0.1680  0.1096
  105POPC   C2B 1571   3.591   4.930   6.917 -0.0284  0.3472 -0.0264
  105POPC   C3B 1572   3.272   5.064   6.676 -0.0367  0.0611 -0.0166
  105POPC   C4B 1573   2.984   5.184   6.339  0.1587  0.0349  0.1287
  106POPC   NC3 1574   4.128   0.765   8.067 -0.2169  0.4118 -0.1516
  106POPC   PO4 1575   4.402   0.674   7.751  0.0073 -0.0978 -0.1039
  106POPC   GL1 1576   4.916   0.523   7.529 -0.2057  0.0290  0.2072
  106POPC   GL2 1577   4.795   0.162   7.422  0.3353 -0.5199 -0.2490
  106POPC   C1A 1578   5.281   0.308   7.607 -0.1196 -0.1210 -0.0478
  106POPC   D2A 1579   5.602   0.026   7.783  0.1913  0.0915 -0.3693
  106POPC   C3A 1580   5.961   0.169   7.718  0.0104 -0.0876  0.0314
  106POPC   C4A 1581   6.349  -0.025   7.809 -0.0576 -0.2067  0.2087
  106POPC   C1B 1582   5.054   0.180   7.062 -0.1087  0.2232  0.1266
  106POPC   C2B 1583   5.382   0.350   6.755 -0.0027 -0.0429 -0.0475
  106POPC   C3B 1584   5.631   0.488   6.346  0.0368  0.1559 -0.2596
  106POPC   C4B 1585   5.760   0.801   6.086 -0.2897 -0.2389  0.1338
  107POPC   NC3 1586   4.552   9.964   7.814 -0.0709  0.0006 -0.0060
  107POPC   PO4 1587   4.285   9.557   7.745 -0.0664 -0.1893  0.0903
  107POPC   GL1 1588   4.259   9.749   7.290 -0.2186  0.0460  0.2827
  107POPC   GL2 1589   4.579   9.766   7.289 -0.3433  0.2471  0.1808
  107POPC   C1A 1590   4.333   9.671   6.798  0.1962 -0.2996 -0.1391
  107POPC   D2A 1591   4.235  10.026   6.568  0.1848  0.0867 -0.2265
  107POPC   C3A 1592   4.086  10.397   6.277  0.3002 -0.1487 -0.1943
  107POPC   C4A 1593   3.901  10.729   6.027 -0.0503  0.2983  0.1101
  107POPC   C1B 1594   4.770   9.580   6.941  0.1301  0.2851 -0.1802
  107POPC   C2B 1595   4.725   9.374   6.556 -0.4205 -0.0811  0.1798
  107POPC   C3B 1596   4.616   9.249   6.167  0.0417  0.0176  0.0651
  107POPC   C4B 1597   4.220   9.324   5.877 -0.1973 -0.0878  0.0868
  108POPC   NC3 1598   4.719   4.996   7.849  0.0786 -0.1081 -0.2852
  108POPC   PO4 1599   4.368   4.778   7.823  0.1734 -0.2271  0.2687
  108POPC   GL1 1600   4.346   4.317   7.593 -0.0221  0.2667  0.2324
  108POPC   GL2 1601   4.216   4.526   7.425 -0.0130  0.2903  0.0878
  108POPC   C1A 1602   4.347   4.074   7.141  0.2020 -0.0390 -0.3555
  108POPC   D2A 1603   4.218   4.138   6.704  0.4304 -0.0410 -0.4139
  108POPC   C3A 1604   4.514   4.522   6.554 -0.0132  0.0516  0.1163
  108POPC   C4A 1605   4.645   4.917   6.370 -0.1499  0.0378 -0.0253
  108POPC   C1B 1606   3.954   4.477   7.159  0.2779  0.4074  0.2727
  108POPC   C2B 1607   3.692   4.430   6.784 -0.0874  0.1354 -0.0344
  108POPC   C3B 1608   3.456   4.626   6.404 -0.2863  0.2074 -0.1434
  108POPC   C4B 1609   3.267   4.715   6.032  0.0976 -0.1757  0.0873
  109POPC   NC3 1610   7.863   5.096   7.637  0.2134 -0.1722  0.1910
  109POPC   PO4 1611   8.192   5.344   7.702  0.0730 -0.0488  0.0450
  109POPC   GL1 1612   8.097   5.504   7.309  0.1663 -0.0645  0.0347
  109POPC   GL2 1613   8.111   5.213   7.140 -0.1700 -0.4334  0.0358
  109POPC   C1A 1614   8.302   5.704   7.031  0.0340 -0.3472  0.0335
  109POPC   D2A 1615   8.567   5.934   6.865 -0.0796 -0.0831 -0.2076
  109POPC   C3A 1616   8.636   5.887   6.417 -0.1105 -0.0694  0.1267
  109POPC   C4A 1617   8.805   5.810   5.981 -0.1700  0.0328  0.1905
  109POPC   C1B 1618   8.010   5.371   6.812  0.0740 -0.0314  0.4331
  109POPC   C2B 1619   7.797   5.098   6.471 -0.1426 -0.3233  0.4117
  109POPC   C3B 1620   7.786   4.889   6.155  0.0088  0.1096  0.0648
  109POPC   C4B 1621   8.009   4.561   6.075 -0.1056 -0.0901  0.0910
  110POPC   NC3 1622   2.907   9.994   8.445  0.2678 -0.1710  0.1834
  110POPC   PO4 1623   2.742   9.618   8.095  0.1674 -0.0047 -0.0006
  110POPC   GL1 1624   2.784   9.472   7.725  0.1013 -0.1762 -0.0643
  110POPC   GL2 1625   2.543   9.166   7.679  0.0047  0.1947 -0.0133
  110POPC   C1A 1626   2.834   9.497   7.274  0.2134  0.0837 -0.0478
  110POPC   D2A 1627   2.750   9.707   6.920  0.0201 -0.1227  0.1595
  110POPC   C3A 1628   2.906   9.634   6.477  0.2096 -0.0266  0.1010
  110POPC   C4A 1629   3.242   9.941   6.211  0.1870  0.2486 -0.1000
  110POPC   C1B 1630   2.531   8.977   7.349  0.0803  0.1457 -0.0522
  110POPC   C2B 1631   2.516   8.709   6.946 -0.2524 -0.0803 -0.0094
  110POPC   C3B 1632   2.753   8.712   6.582 -0.1298  0.1257  0.2499
  110POPC   C4B 1633   2.773   8.744   6.108 -0.0802  0.2112 -0.2174
  111POPC   NC3 1634   4.746   3.523   7.862 -0.4159 -0.0969  0.2201
  111POPC   PO4 1635   4.391   3.432   7.991  0.0329 -0.0895  0.1367
  111POPC   GL1 1636   4.420   3.388   7.564  0.0462 -0.1232  0.0224
  111POPC   GL2 1637   4.546   3.748   7.450  0.0318 -0.2005 -0.0378
  111POPC   C1A 1638   4.334   3.254   7.206 -0.0981 -0.3123 -0.1574
  111POPC   D2A 1639   4.195   3.018   6.797  0.0308  0.0202  0.2673
  111POPC   C3A 1640   4.339   2.643   6.683  0.3495 -0.0034 -0.1567
  111POPC   C4A 1641   4.524   2.276   6.586  0.2214 -0.3640  0.1442
  111POPC   C1B 1642   4.598   3.612   7.027 -0.1960 -0.3490 -0.0274
  111POPC   C2B 1643   4.750   3.410   6.690  0.0712  0.1204  0.1070
  111POPC   C3B 1644   4.976   3.212   6.343 -0.0296 -0.0617  0.1667
  111POPC   C4B 1645   4.982   3.046   5.808  0.2779 -0.1992  0.0650
  112POPC   NC3 1646   3.148   9.153   7.844 -0.0412 -0.0294  0.0052
  112POPC   PO4 1647   3.377   9.445   7.758 -0.0304  0.0411  0.1786
  112POPC   GL1 1648   3.693   9.481   7.427 -0.1973  0.0820 -0.3323
  112POPC   GL2 1649   4.043   9.268   7.366  0.0309  0.0264 -0.0221
  112POPC   C1A 1650   3.850   9.605   6.993  0.1573  0.1390 -0.0972
  112POPC   D2A 1651   3.727   9.829   6.645  0.0229 -0.0327 -0.2323
  112POPC   C3A 1652   3.341   9.998   6.808  0.2090 -0.2801 -0.0804
  112POPC   C4A 1653   2.957  10.095   6.641  0.1082 -0.1384  0.0446
  112POPC   C1B 1654   4.014   8.967   7.032  0.0459 -0.2940  0.1408
  112POPC   C2B 1655   4.105   8.713   6.718  0.2227  0.4746 -0.3263
  112POPC   C3B 1656   4.232   8.724   6.286  0.1367  0.3160  0.1342
  112POPC   C4B 1657   4.176   8.737   5.805 -0.1248 -0.2917  0.2001
  113POPC   NC3 1658   7.581   3.613   7.582  0.1718  0.1929 -0.0018
  113POPC   PO4 1659   8.016   3.673   7.478  0.2293 -0.1185 -0.0304
  113POPC   GL1 1660   8.061   3.515   7.154 -0.0770 -0.0935 -0.0365
  113POPC   GL2 1661   8.181   3.195   7.172  0.2301  0.3473 -0.1080
  113POPC   C1A 1662   8.172   3.640   6.739 -0.1302 -0.0521  0.3414
  113POPC   D2A 1663   8.488   3.982   6.639 -0.1065 -0.1206 -0.1248
  113POPC   C3A 1664   8.293   4.472   6.513 -0.0366 -0.0586 -0.0710
  113POPC   C4A 1665   7.907   4.586   6.536 -0.0142  0.0479  0.0400
  113POPC   C1B 1666   8.232   3.169   6.789 -0.1179 -0.0770  0.3653
  113POPC   C2B 1667   8.069   2.974   6.330  0.0865 -0.1173 -0.0409
  113POPC   C3B 1668   8.398   2.899   6.048  0.0623  0.0301 -0.1052
  113POPC   C4B 1669   8.334   2.885   5.574 -0.0217  0.0817 -0.2097
  114POPC   NC3 1670   1.516   1.210   7.988 -0.1779 -0.2559  0.0086
  114POPC   PO4 1671   1.249   1.590   7.883 -0.0969  0.0986 -0.0049
  114POPC   GL1 1672   1.578   1.608   7.498  0.2675 -0.0292  0.1154
  114POPC   GL2 1673   1.738   1.309   7.481  0.1227  0.1807  0.0997
  114POPC   C1A 1674   1.591   1.800   7.112 -0.1914  0.0948 -0.0782
  114POPC   D2A 1675   1.563   1.886   6.736 -0.0537 -0.0082 -0.0717
  114POPC   C3A 1676   1.359   2.063   6.470 -0.2017 -0.1661 -0.1159
  114POPC   C4A 1677   1.520   2.348   6.114 -0.1757 -0.1734 -0.1212
  114POPC   C1B 1678   1.557   1.234   7.045  0.1220 -0.1631 -0.0608
  114POPC   C2B 1679   1.640   1.103   6.706 -0.0357 -0.1531  0.0793
  114POPC   C3B 1680   1.651   1.119   6.291  0.0729  0.0183 -0.3844
  114POPC   C4B 1681   1.754   1.179   5.876  0.1225 -0.1252 -0.0943
  115POPC   NC3 1682   2.307   7.619   7.941 -0.0414 -0.1255  0.0229
  115POPC   PO4 1683   2.699   7.460   8.018 -0.3106 -0.0221  0.2335
  115POPC   GL1 1684   2.649   7.428   7.563  0.0043 -0.3293  0.2126
  115POPC   GL2 1685   2.553   7.202   7.393 -0.1383  0.0971  0.0108
  115POPC   C1A 1686   2.700   7.748   7.239 -0.0961  0.3117  0.0695
  115POPC   D2A 1687   2.689   7.951   6.843 -0.0948 -0.2571 -0.1346
  115POPC   C3A 1688   2.317   8.049   6.775 -0.0315 -0.2313  0.2249
  115POPC   C4A 1689   1.770   7.936   6.800 -0.0398 -0.1254 -0.0284
  115POPC   C1B 1690   2.408   7.255   7.054 -0.0679  0.1061  0.2525
  115POPC   C2B 1691   2.569   7.325   6.624 -0.0511  0.1273  0.1618
  115POPC   C3B 1692   2.588   7.199   6.134 -0.1615 -0.0490  0.1789
  115POPC   C4B 1693   2.287   7.070   5.829  0.1993 -0.0561 -0.2142
  116POPC   NC3 1694   2.687   1.583   7.481  0.1436  0.0662 -0.1992
  116POPC   PO4 1695   3.061   1.569   7.680 -0.1289 -0.0889 -0.4212
  116POPC   GL1 1696   3.176   1.677   7.207 -0.3733 -0.1068 -0.3424
  116POPC   GL2 1697   2.896   1.691   7.023 -0.2526  0.2246  0.0021
  116POPC   C1A 1698   3.450   1.662   6.873 -0.0394 -0.0864 -0.0126
  116POPC   D2A 1699   3.753   1.912   6.705 -0.0263 -0.0619 -0.0002
  116POPC   C3A 1700   4.225   1.933   6.937  0.1753 -0.2068  0.3640
  116POPC   C4A 1701   4.669   1.975   6.937  0.1380 -0.1668 -0.0817
  116POPC   C1B 1702   3.039   1.823   6.622 -0.3630  0.1095  0.0215
  116POPC   C2B 1703   3.377   1.954   6.361 -0.1071 -0.0774  0.0024
  116POPC   C3B 1704   3.780   2.027   6.187 -0.0759 -0.0571 -0.0604
  116POPC   C4B 1705   4.216   2.078   6.002  0.3729  0.1415  0.1537
  117POPC   NC3 1706   8.410   3.919   7.826  0.2111  0.1160  0.0386
  117POPC   PO4 1707   8.757   3.637   7.916  0.1305  0.3352 -0.1185
  117POPC   GL1 1708   8.903   3.406   7.474  0.2143  0.0099  0.2315
  117POPC   GL2 1709   9.123   3.229   7.366 -0.1082  0.0164 -0.1855
  117POPC   C1A 1710   8.749   3.324   7.022  0.0778  0.0364  0.0890
  117POPC   D2A 1711   8.741   3.221   6.585  0.2412 -0.1626 -0.1042
  117POPC   C3A 1712   8.911   3.132   6.216 -0.1981 -0.2329  0.1648
  117POPC   C4A 1713   9.313   2.942   5.832  0.1397 -0.2511 -0.0951
  117POPC   C1B 1714   9.191   3.182   6.937  0.2742 -0.1775 -0.0766
  117POPC   C2B 1715   9.257   3.445   6.639 -0.0965 -0.0705 -0.1596
  117POPC   C3B 1716   9.490   3.788   6.639 -0.0260  0.2404 -0.1667
  117POPC   C4B 1717   9.284   4.170   6.699  0.1434  0.1790  0.3394
  118POPC   NC3 1718   4.309   8.302   7.695  0.1284  0.0327  0.2239
  118POPC   PO4 1719   3.868   8.008   7.757 -0.2093 -0.1638 -0.1462
  118POPC   GL1 1720   3.889   8.116   7.342  0.2285  0.1385  0.1303
  118POPC   GL2 1721   3.979   8.431   7.168  0.0184 -0.1012 -0.3588
  118POPC   C1A 1722   3.740   7.857   7.063 -0.4161 -0.0328  0.0601
  118POPC   D2A 1723   3.554   7.608   6.822 -0.0090 -0.0192  0.2093
  118POPC   C3A 1724   3.320   7.277   6.853  0.0328 -0.1071 -0.0989
  118POPC   C4A 1725   2.898   7.116   6.966  0.2244 -0.1691  0.1115
  118POPC   C1B 1726   3.815   8.264   6.860 -0.2632 -0.0979 -0.1191
  118POPC   C2B 1727   3.933   7.978   6.532  0.0624 -0.3712 -0.2842
  118POPC   C3B 1728   4.274   8.146   6.383 -0.1135  0.2892  0.1170
  118POPC   C4B 1729   4.568   8.429   6.585  0.0095  0.1501  0.2637
  119POPC   NC3 1730   1.343   8.542   8.000 -0.1932  0.0434 -0.1289
  119POPC   PO4 1731   1.537   8.843   7.692  0.1116  0.2723 -0.0428
  119POPC   GL1 1732   1.772   9.045   7.404  0.1451  0.1656  0.0795
  119POPC   GL2 1733   2.014   8.848   7.419  0.0133 -0.1236  0.2801
  119POPC   C1A 1734   1.739   9.356   7.153 -0.0493 -0.3509  0.1703
  119POPC   D2A 1735   1.439   9.433   6.842 -0.0871 -0.3182 -0.2831
  119POPC   C3A 1736   1.308   9.057   6.650  0.0543 -0.4243  0.1094
  119POPC   C4A 1737   1.322   8.666   6.481  0.2643  0.1797  0.0212
  119POPC   C1B 1738   2.107   8.996   7.002 -0.1873 -0.2099  0.1908
  119POPC   C2B 1739   1.942   9.215   6.639 -0.1557 -0.1586  0.3101
  119POPC   C3B 1740   1.701   9.136   6.360  0.1199  0.0044 -0.0120
  119POPC   C4B 1741   1.380   9.407   6.143  0.1986  0.0238 -0.1912
  120POPC   NC3 1742   9.954   8.697   8.053 -0.1844 -0.1611 -0.1499
  120POPC   PO4 1743   9.493   8.986   7.859 -0.1012  0.0405  0.3242
  120POPC   GL1 1744   9.425   9.163   7.503 -0.0607 -0.0661  0.0028
  120POPC   GL2 1745   9.239   9.425   7.594 -0.0299 -0.1159 -0.4302
  120POPC   C1A 1746   9.423   9.349   7.141 -0.0875  0.1115 -0.1733
  120POPC   D2A 1747   9.352   9.399   6.688 -0.0885 -0.1609 -0.2262
  120POPC   C3A 1748   9.104   9.263   6.314  0.1836 -0.1422 -0.2324
  120POPC   C4A 1749   8.826   9.102   6.018 -0.0667  0.0460  0.0911
  120POPC   C1B 1750   8.909   9.525   7.311  0.0991  0.0763  0.0531
  120POPC   C2B 1751   8.929   9.271   6.965 -0.1398 -0.1873 -0.0162
  120POPC   C3B 1752   8.678   9.259   6.632  0.3812 -0.1028  0.2413
  120POPC   C4B 1753   8.541   9.473   6.271 -0.1898  0.1349  0.2371
  121POPC   NC3 1754   6.938   4.655   7.432 -0.0517  0.4218 -0.2781
  121POPC   PO4 1755   6.832   4.266   7.681  0.1275  0.1607  0.3942
  121POPC   GL1 1756   6.835   3.954   7.297  0.4044 -0.0717 -0.0765
  121POPC   GL2 1757   6.994   4.221   7.070 -0.0084  0.0068  0.1528
  121POPC   C1A 1758   6.765   3.688   6.954 -0.0275  0.2094  0.0200
  121POPC   D2A 1759   6.702   3.630   6.445 -0.0847 -0.1424  0.1670
  121POPC   C3A 1760   6.564   3.968   6.228 -0.1553 -0.2579  0.0427
  121POPC   C4A 1761   6.648   4.325   5.949  0.2626 -0.0289  0.1979
  121POPC   C1B 1762   7.054   3.914   6.674 -0.0238 -0.0715  0.1413
  121POPC   C2B 1763   7.193   3.858   6.287 -0.0947 -0.4080  0.1496
  121POPC   C3B 1764   6.998   4.008   5.922 -0.0842 -0.2898 -0.2681
  121POPC   C4B 1765   7.162   4.307   5.582  0.4516 -0.1926 -0.2421
  122POPC   NC3 1766   0.329   2.479   7.670 -0.1925 -0.1187  0.3024
  122POPC   PO4 1767   0.509   2.190   7.815  0.2416  0.1043  0.0484
  122POPC   GL1 1768   0.617   2.188   7.378 -0.0159  0.1234  0.0925
  122POPC   GL2 1769   0.838   2.400   7.167 -0.0812 -0.1217 -0.0898
  122POPC   C1A 1770   0.667   1.864   7.040 -0.1634  0.1341 -0.0968
  122POPC   D2A 1771   0.688   1.336   6.876 -0.1818 -0.0018 -0.2874
  122POPC   C3A 1772   0.784   1.282   6.402 -0.1126  0.2303  0.1376
  122POPC   C4A 1773   0.573   1.241   6.102  0.1083  0.0204  0.1262
  122POPC   C1B 1774   0.838   2.207   6.583 -0.1107  0.1844  0.5554
  122POPC   C2B 1775   0.982   2.211   6.178  0.4357  0.0299  0.2552
  122POPC   C3B 1776   1.287   1.944   5.904  0.1210  0.0702  0.1685
  122POPC   C4B 1777   1.174   1.549   6.064 -0.2449  0.0880 -0.0077
  123POPC   NC3 1778   5.731   5.784   8.213 -0.1213  0.0779  0.1525
  123POPC   PO4 1779   5.861   5.346   7.948 -0.1310  0.1486  0.1919
  123POPC   GL1 1780   5.938   5.331   7.545 -0.3078  0.1589  0.0597
  123POPC   GL2 1781   5.777   5.553   7.388 -0.0042 -0.1967  0.2890
  123POPC   C1A 1782   5.759   5.102   7.255  0.0696  0.1802  0.1523
  123POPC   D2A 1783   5.631   5.209   6.827  0.0086  0.0727  0.1356
  123POPC   C3A 1784   5.302   5.182   6.690  0.2823 -0.2042 -0.1437
  123POPC   C4A 1785   5.165   5.090   6.311  0.4052  0.0619 -0.3513
  123POPC   C1B 1786   6.040   5.844   7.041  0.0999 -0.0544  0.0948
  123POPC   C2B 1787   6.154   5.748   6.675  0.4948  0.1855 -0.1354
  123POPC   C3B 1788   5.961   5.415   6.483 -0.1570 -0.0197  0.0179
  123POPC   C4B 1789   5.667   5.244   6.203  0.0355  0.1293  0.0588
  124POPC   NC3 1790   9.781   2.932   7.582  0.2421 -0.0984  0.0013
  124POPC   PO4 1791  10.156   2.801   7.599 -0.2861  0.0041 -0.2099
  124POPC   GL1 1792  10.314   3.022   7.307  0.3099  0.0386 -0.1645
  124POPC   GL2 1793  10.054   3.057   7.146  0.2893  0.3236 -0.0388
  124POPC   C1A 1794  10.537   2.986   6.933  0.2030  0.1247 -0.0331
  124POPC   D2A 1795  10.585   3.064   6.512 -0.0523 -0.0762  0.2070
  124POPC   C3A 1796  10.367   2.796   6.267  0.1185  0.1721 -0.2274
  124POPC   C4A 1797  10.217   2.813   5.867 -0.1397 -0.2080 -0.1958
  124POPC   C1B 1798  10.117   2.874   6.773 -0.0848  0.2641  0.3695
  124POPC   C2B 1799  10.060   2.483   6.610 -0.0015  0.2903 -0.0729
  124POPC   C3B 1800  10.131   2.089   6.723  0.0824  0.1974 -0.0645
  124POPC   C4B 1801  10.525   2.015   6.746  0.2185  0.1928  0.3145
  125POPC   NC3 1802   9.612  10.278   8.631 -0.0475  0.1862 -0.0315
  125POPC   PO4 1803   9.298  10.247   8.298  0.1113  0.3431 -0.0826
  125POPC   GL1 1804   9.189  10.303   7.904 -0.0219  0.3900  0.1303
  125POPC   GL2 1805   8.953   9.992   7.724 -0.1267 -0.0939 -0.0315
  125POPC   C1A 1806   9.152  10.421   7.460  0.0500  0.2733  0.1646
  125POPC   D2A 1807   9.146  10.608   7.209 -0.0264  0.0812  0.0296
  125POPC   C3A 1808   9.116  10.343   6.832 -0.1889  0.0077  0.2927
  125POPC   C4A 1809   8.798  10.265   6.625  0.1999  0.1826 -0.1100
  125POPC   C1B 1810   9.145   9.926   7.328  0.0237  0.3527 -0.2013
  125POPC   C2B 1811   9.315   9.899   6.874  0.0558 -0.0341  0.0535
  125POPC   C3B 1812   9.377   9.926   6.483 -0.1740  0.1108 -0.1261
  125POPC   C4B 1813   9.529  10.090   6.067 -0.0666  0.0593 -0.3432
  126POPC   NC3 1814  10.399   2.433   7.936 -0.4744 -0.4438  0.2004
  126POPC   PO4 1815  10.424   2.429   7.499 -0.2029  0.0647 -0.1614
  126POPC   GL1 1816  10.525   2.486   7.094 -0.2338 -0.0188 -0.2509
  126POPC   GL2 1817  10.814   2.596   7.206  0.0502  0.1561  0.2217
  126POPC   C1A 1818  10.661   2.511   6.678 -0.2193 -0.2600  0.1312
  126POPC   D2A 1819  10.875   2.723   6.328 -0.0819  0.1566  0.1252
  126POPC   C3A 1820  10.728   2.704   5.964 -0.0013  0.1379  0.0766
  126POPC   C4A 1821  10.585   2.317   5.775 -0.1246 -0.0131 -0.0151
  126POPC   C1B 1822  10.938   3.033   7.203 -0.0854  0.1025  0.0458
  126POPC   C2B 1823  11.018   3.043   6.821  0.2822  0.2319 -0.0161
  126POPC   C3B 1824  10.981   3.349   6.470 -0.3459 -0.2631 -0.0725
  126POPC   C4B 1825  10.998   3.175   6.032  0.1230  0.1152 -0.0290
  127POPC   NC3 1826   5.226   4.498   7.919 -0.2225  0.0083  0.0549
  127POPC   PO4 1827   4.798   4.491   7.976  0.3600  0.2762  0.1512
  127POPC   GL1 1828   4.899   4.687   7.517 -0.1270  0.4579 -0.2565
  127POPC   GL2 1829   4.746   4.539   7.252 -0.0745  0.0963  0.0794
  127POPC   C1A 1830   4.745   5.045   7.195  0.1619 -0.3185  0.0275
  127POPC   D2A 1831   4.795   5.123   6.821 -0.2117  0.3044  0.1138
  127POPC   C3A 1832   4.963   4.786   6.710  0.1772 -0.1830  0.1959
  127POPC   C4A 1833   5.298   4.628   6.399  0.3197 -0.1550 -0.2429
  127POPC   C1B 1834   4.372   4.629   6.981  0.4388  0.1194 -0.1275
  127POPC   C2B 1835   4.084   4.780   6.698 -0.0534  0.1992 -0.2056
  127POPC   C3B 1836   3.870   4.936   6.465  0.0309  0.1410  0.0268
  127POPC   C4B 1837   3.533   5.088   6.183 -0.1002  0.2688  0.2985
  128POPC   NC3 1838   8.174   6.771   8.127 -0.3800  0.1549 -0.2191
  128POPC   PO4 1839   8.461   7.145   8.039 -0.0236 -0.0086  0.0433
  128POPC   GL1 1840   8.355   7.469   7.665 -0.2212 -0.0532  0.0950
  128POPC   GL2 1841   8.264   7.280   7.365 -0.0019  0.2447  0.0143
  128POPC   C1A 1842   8.574   7.640   7.255 -0.0141 -0.3915 -0.1004
  128POPC   D2A 1843   8.708   7.958   6.906 -0.2019  0.0320 -0.1577
  128POPC   C3A 1844   8.487   7.893   6.525 -0.0894  0.0208 -0.0883
  128POPC   C4A 1845   8.619   8.133   6.156  0.1799 -0.2126  0.1207
  128POPC   C1B 1846   8.328   7.332   6.890 -0.0492 -0.1825  0.0643
  128POPC   C2B 1847   8.508   7.365   6.506  0.0248 -0.3581  0.0563
  128POPC   C3B 1848   8.488   7.566   6.031 -0.0665  0.0447 -0.2163
  128POPC   C4B 1849   8.440   7.899   5.741  0.1428  0.3175  0.0469
  129POPC   NC3 1850   0.020   6.023   8.270  0.1212 -0.3195  0.0829
  129POPC   PO4 1851  -0.123   6.477   8.192 -0.0110  0.3140 -0.0601
  129POPC   GL1 1852  -0.226   6.524   7.772 -0.0828 -0.1270  0.0156
  129POPC   GL2 1853  -0.056   6.732   7.597  0.1228 -0.2550  0.1940
  129POPC   C1A 1854  -0.496   6.741   7.331  0.3203  0.0927 -0.0265
  129POPC   D2A 1855  -0.496   6.888   6.985 -0.2654 -0.2535  0.1859
  129POPC   C3A 1856  -0.457   7.271   6.909 -0.1624 -0.1249  0.2217
  129POPC   C4A 1857  -0.480   7.646   7.191 -0.0574 -0.0912  0.2464
  129POPC   C1B 1858  -0.048   6.570   7.170  0.1138 -0.3147 -0.2986
  129POPC   C2B 1859  -0.213   6.497   6.880 -0.2446 -0.2518  0.1388
  129POPC   C3B 1860  -0.077   6.444   6.450  0.0464  0.2093 -0.0966
  129POPC   C4B 1861   0.157   6.344   6.144  0.0558 -0.1339  0.4100
  130POPC   NC3 1862   4.584   7.010   8.289 -0.0097  0.1872 -0.3250
  130POPC   PO4 1863   4.457   7.366   7.960 -0.2711  0.0669 -0.2445
  130POPC   GL1 1864   4.242   7.309   7.641 -0.1478 -0.0998 -0.0047
  130POPC   GL2 1865   3.966   7.469   7.543 -0.4256 -0.0386  0.0327
  130POPC   C1A 1866   4.259   6.966   7.411  0.2188  0.1387  0.0962
  130POPC   D2A 1867   4.214   6.871   6.968  0.0137  0.3495  0.1232
  130POPC   C3A 1868   4.423   7.050   6.611 -0.0141  0.0688 -0.1839
  130POPC   C4A 1869   4.492   7.010   6.136 -0.0744  0.1338 -0.3303
  130POPC   C1B 1870   4.050   7.297   7.083  0.0803 -0.2290 -0.2721
  130POPC   C2B 1871   3.906   7.236   6.689 -0.1177  0.2274 -0.2154
  130POPC   C3B 1872   3.614   7.448   6.321 -0.1480  0.1124  0.2507
  130POPC   C4B 1873   3.380   7.896   6.356  0.3746  0.1819  0.0860
  131POPC   NC3 1874   4.775   8.061   8.215 -0.0938 -0.2707 -0.1306
  131POPC   PO4 1875   4.670   8.225   7.977  0.2478 -0.2668 -0.3438
  131POPC   GL1 1876   4.757   8.098   7.550  0.0291 -0.0240  0.1354
  131POPC   GL2 1877   4.575   8.108   7.331  0.1074  0.3173  0.2753
  131POPC   C1A 1878   5.074   7.974   7.307  0.3291 -0.0547  0.1347
  131POPC   D2A 1879   5.187   7.826   6.821 -0.0691  0.0391  0.1612
  131POPC   C3A 1880   5.606   7.788   6.719  0.2008  0.1830 -0.0235
  131POPC   C4A 1881   6.109   7.920   6.843 -0.0511 -0.1189 -0.0557
  131POPC   C1B 1882   4.252   8.014   6.990 -0.0115 -0.0887  0.1549
  131POPC   C2B 1883   4.147   7.652   6.767  0.0255  0.1145  0.1637
  131POPC   C3B 1884   4.196   7.594   6.378  0.0568 -0.0403  0.4169
  131POPC   C4B 1885   4.018   7.428   6.029 -0.1563  0.1120 -0.5117
  132POPC   NC3 1886   6.668   6.622   7.904  0.3222  0.2754 -0.1557
  132POPC   PO4 1887   6.744   7.026   7.881 -0.3712  0.1685  0.1296
  132POPC   GL1 1888   6.814   7.267   7.588  0.0637  0.2533 -0.1217
  132POPC   GL2 1889   7.127   7.329   7.421  0.0320  0.1473 -0.2575
  132POPC   C1A 1890   6.780   7.292   7.077 -0.0084  0.3238 -0.1843
  132POPC   D2A 1891   6.918   7.414   6.609  0.1641  0.0404 -0.2039
  132POPC   C3A 1892   7.076   7.652   6.318 -0.1229 -0.2737 -0.0966
  132POPC   C4A 1893   7.232   7.948   6.040  0.0435  0.0200  0.1730
  132POPC   C1B 1894   7.230   7.067   7.091  0.0063 -0.1852  0.3038
  132POPC   C2B 1895   7.285   7.125   6.641 -0.0392 -0.1998 -0.0237
  132POPC   C3B 1896   7.330   7.253   6.307 -0.0576  0.0992 -0.2248
  132POPC   C4B 1897   7.286   7.182   5.891  0.1553  0.2880 -0.3322
  133POPC   NC3 1898   5.681   9.234   8.077 -0.2140 -0.1423  0.0859
  133POPC   PO4 1899   5.816   8.820   8.003 -0.1775  0.4119  0.0341
  133POPC   GL1 1900   6.162   8.964   7.691  0.2180 -0.1660 -0.3339
  133POPC   GL2 1901   6.406   8.719   7.785 -0.0114 -0.2404 -0.2639
  133POPC   C1A 1902   6.158   9.007   7.281  0.1733 -0.1874 -0.0515
  133POPC   D2A 1903   6.294   9.170   7.002 -0.0586  0.0046 -0.1750
  133POPC   C3A 1904   6.346   8.897   6.562 -0.0020  0.2715  0.0792
  133POPC   C4A 1905   6.617   8.716   6.329  0.2427 -0.3871  0.1393
  133POPC   C1B 1906   6.283   8.525   7.517 -0.0730  0.3220 -0.5467
  133POPC   C2B 1907   6.307   8.009   7.602  0.2148  0.0455  0.0836
  133POPC   C3B 1908   6.268   7.730   7.291  0.2963  0.1011  0.1224
  133POPC   C4B 1909   6.317   7.345   7.272 -0.2686  0.1426 -0.1118
  134POPC   NC3 1910   0.416   6.571   7.838  0.1518  0.0662 -0.1137
  134POPC   PO4 1911   0.220   6.160   7.846  0.1226  0.0589 -0.2124
  134POPC   GL1 1912   0.132   6.176   7.477 -0.0078  0.0321 -0.1092
  134POPC   GL2 1913  -0.146   6.203   7.452  0.0644 -0.0697  0.0594
  134POPC   C1A 1914   0.352   6.280   7.075  0.0184 -0.3554 -0.0028
  134POPC   D2A 1915   0.320   6.314   6.694  0.0623  0.4513  0.0530
  134POPC   C3A 1916   0.589   6.528   6.374  0.2317 -0.1925 -0.0408
  134POPC   C4A 1917   1.005   6.645   6.164  0.0083  0.0102  0.3303
  134POPC   C1B 1918  -0.199   5.992   7.062 -0.1789  0.1184  0.0049
  134POPC   C2B 1919  -0.056   5.978   6.711  0.3040  0.1962  0.0652
  134POPC   C3B 1920  -0.099   5.956   6.246  0.1677  0.0561  0.2715
  134POPC   C4B 1921   0.013   5.994   5.701  0.1520 -0.0737 -0.2925
  135POPC   NC3 1922   0.899   0.861   7.693 -0.0471 -0.4006  0.3221
  135POPC   PO4 1923   1.244   1.186   7.564 -0.3253 -0.1488 -0.5201
  135POPC   GL1 1924   1.094   1.192   7.253 -0.1595 -0.1177 -0.2959
  135POPC   GL2 1925   0.938   1.015   7.189  0.0787 -0.1458  0.0646
  135POPC   C1A 1926   1.129   1.544   7.013  0.4279  0.2035 -0.1017
  135POPC   D2A 1927   1.166   2.044   6.957  0.0152 -0.0524  0.2253
  135POPC   C3A 1928   1.555   2.318   7.131  0.1632  0.2072  0.1714
  135POPC   C4A 1929   1.938   2.224   6.891  0.3322  0.0379 -0.0995
  135POPC   C1B 1930   1.176   1.036   6.795  0.1939 -0.0104 -0.3087
  135POPC   C2B 1931   1.181   0.983   6.337 -0.0815 -0.3576  0.1607
  135POPC   C3B 1932   1.027   0.982   6.036 -0.2066 -0.0896 -0.0068
  135POPC   C4B 1933   0.722   1.039   5.738  0.0194  0.2333 -0.0516
  136POPC   NC3 1934   7.561   5.652   8.231  0.0245  0.1551 -0.0220
  136POPC   PO4 1935   7.368   5.673   7.893 -0.3082 -0.0586 -0.0615
  136POPC   GL1 1936   7.354   5.764   7.445  0.0608  0.1726 -0.0127
  136POPC   GL2 1937   7.554   5.837   7.329  0.2270 -0.0338 -0.1546
  136POPC   C1A 1938   7.207   6.028   7.033 -0.0206  0.1482 -0.0418
  136POPC   D2A 1939   6.920   6.255   6.812 -0.1320  0.0228  0.0085
  136POPC   C3A 1940   6.521   6.142   7.012  0.1928  0.1245  0.3076
  136POPC   C4A 1941   6.239   6.449   7.040  0.0429  0.2154  0.1575
  136POPC   C1B 1942   7.734   5.784   6.914 -0.2308  0.0695 -0.0512
  136POPC   C2B 1943   8.064   5.920   6.623  0.0361 -0.0594  0.0156
  136POPC   C3B 1944   8.187   6.046   6.221 -0.2791  0.0487  0.0322
  136POPC   C4B 1945   8.403   6.139   5.991  0.1536  0.0324  0.1882
  137POPC   NC3 1946   6.999   2.700   8.444  0.2984  0.1306  0.1816
  137POPC   PO4 1947   6.726   2.416   8.183  0.1133 -0.2580  0.5671
  137POPC   GL1 1948   6.360   2.356   7.893  0.0536 -0.1904  0.5183
  137POPC   GL2 1949   6.326   2.609   7.660  0.1522 -0.3689 -0.1702
  137POPC   C1A 1950   6.058   2.225   7.648  0.0078 -0.1563  0.3453
  137POPC   D2A 1951   5.901   1.787   7.595 -0.1648 -0.2351  0.3801
  137POPC   C3A 1952   5.677   1.642   7.230 -0.1346  0.0347 -0.2736
  137POPC   C4A 1953   5.456   1.494   6.864  0.0532  0.0239  0.2502
  137POPC   C1B 1954   6.176   2.544   7.214 -0.3132  0.2206 -0.1134
  137POPC   C2B 1955   6.136   2.216   6.825  0.1934 -0.5346  0.1544
  137POPC   C3B 1956   6.012   1.918   6.470  0.0166 -0.0777  0.1508
  137POPC   C4B 1957   6.216   1.649   6.178  0.0903  0.1482  0.1130
  138POPC   NC3 1958   0.907   7.145   8.541 -0.0354 -0.0485 -0.1477
  138POPC   PO4 1959   0.949   7.383   8.154  0.0192  0.0560  0.1109
  138POPC   GL1 1960   1.251   7.293   7.798 -0.0530 -0.2723 -0.0584
  138POPC   GL2 1961   1.438   7.531   7.599  0.1156  0.0569 -0.0317
  138POPC   C1A 1962   1.325   7.045   7.423 -0.0278  0.1406  0.0399
  138POPC   D2A 1963   1.653   6.826   7.063  0.0265 -0.1068  0.1699
  138POPC   C3A 1964   1.653   6.426   6.903  0.2375  0.2797 -0.1047
  138POPC   C4A 1965   1.718   6.328   6.417 -0.1006  0.3289  0.1233
  138POPC   C1B 1966   1.730   7.340   7.235 -0.0577 -0.0224  0.1574
  138POPC   C2B 1967   1.996   7.135   6.837 -0.0918  0.3280  0.0729
  138POPC   C3B 1968   2.191   7.017   6.383  0.0427  0.0686 -0.1264
  138POPC   C4B 1969   2.083   6.674   6.065 -0.3443  0.1539  0.0332
  139POPC   NC3 1970   9.731   2.136   7.450 -0.4063  0.1057  0.0528
  139POPC   PO4 1971   9.902   1.799   7.558  0.1071  0.0459  0.3811
  139POPC   GL1 1972  10.010   1.483   7.140  0.1428 -0.3234 -0.0549
  139POPC   GL2 1973  10.377   1.468   7.017 -0.0294 -0.2170  0.0994
  139POPC   C1A 1974   9.859   1.155   6.829  0.2291 -0.0136  0.1210
  139POPC   D2A 1975   9.486   1.086   6.472 -0.0018 -0.0781 -0.1484
  139POPC   C3A 1976   9.701   0.878   6.135 -0.2744  0.2385  0.0908
  139POPC   C4A 1977   9.434   0.539   5.975 -0.1106 -0.2938 -0.1456
  139POPC   C1B 1978  10.534   1.462   6.627 -0.3440  0.1419 -0.2336
  139POPC   C2B 1979  10.646   1.521   6.280  0.0551 -0.1501  0.1415
  139POPC   C3B 1980  10.823   1.774   6.006  0.1043  0.1108 -0.0479
  139POPC   C4B 1981  11.031   2.147   5.667  0.1644 -0.0342 -0.1833
  140POPC   NC3 1982   0.160   0.514   8.061  0.0279 -0.2114  0.1847
  140POPC   PO4 1983   0.571   0.498   7.748 -0.1747  0.0847 -0.2888
  140POPC   GL1 1984   0.651   0.651   7.348  0.1971  0.1535  0.2512
  140POPC   GL2 1985   0.470   0.415   7.234 -0.4393 -0.1690 -0.1170
  140POPC   C1A 1986   0.775   0.715   6.850 -0.0375 -0.2143  0.0781
  140POPC   D2A 1987   0.758   0.723   6.429  0.0596  0.1979 -0.0964
  140POPC   C3A 1988   1.112   0.534   6.155 -0.0800 -0.0189 -0.0674
  140POPC   C4A 1989   1.537   0.753   5.988  0.0241 -0.0732 -0.0047
  140POPC   C1B 1990   0.630   0.187   6.867 -0.0485 -0.1095  0.1386
  140POPC   C2B 1991   0.713   0.232   6.343  0.0839 -0.1232  0.1298
  140POPC   C3B 1992   0.553   0.544   5.897  0.0169 -0.2235  0.0170
  140POPC   C4B 1993   0.341   0.746   5.566  0.2917  0.2999  0.2956
  141POPC   NC3 1994   6.146   2.309   8.302 -0.1736  0.2886  0.3800
  141POPC   PO4 1995   6.481   1.923   8.349  0.1361  0.1410  0.3701
  141POPC   GL1 1996   6.643   1.895   7.931  0.0364  0.2193 -0.1118
  141POPC   GL2 1997   6.786   1.571   7.880 -0.0834 -0.2453  0.2224
  141POPC   C1A 1998   6.591   2.022   7.583  0.0824  0.3392 -0.2473
  141POPC   D2A 1999   6.328   2.065   7.258 -0.1702  0.1030  0.0320
  141POPC   C3A 2000   6.117   1.793   7.129  0.0985  0.0872  0.1005
  141POPC   C4A 2001   6.158   1.352   7.173  0.0184 -0.0758 -0.0759
  141POPC   C1B 2002   6.968   1.720   7.413  0.0320  0.0321 -0.1235
  141POPC   C2B 2003   7.102   1.861   6.971  0.2238 -0.1591  0.0342
  141POPC   C3B 2004   6.898   1.784   6.607  0.5197 -0.0463  0.1323
  141POPC   C4B 2005   6.876   1.545   6.203  0.0279  0.1027  0.0978
  142POPC   NC3 2006   0.467   7.362   8.000  0.2367 -0.0421 -0.0584
  142POPC   PO4 2007   0.364   7.045   7.743 -0.1355  0.1038  0.1596
  142POPC   GL1 2008   0.476   7.015   7.363 -0.0289 -0.0284 -0.1756
  142POPC   GL2 2009   0.440   6.707   7.334 -0.1151 -0.2139  0.2052
  142POPC   C1A 2010   0.452   7.282   6.935  0.0685  0.0949  0.1509
  142POPC   D2A 2011   0.395   7.435   6.448  0.2861  0.1420 -0.0378
  142POPC   C3A 2012   0.246   7.712   6.295 -0.1987 -0.3321 -0.1720
  142POPC   C4A 2013   0.063   7.770   5.990 -0.1076  0.2033 -0.0191
  142POPC   C1B 2014   0.439   6.778   6.881 -0.0136 -0.1037  0.1215
  142POPC   C2B 2015   0.220   6.872   6.512 -0.2012  0.0581  0.1873
  142POPC   C3B 2016   0.014   6.787   6.048  0.3688  0.0375 -0.0004
  142POPC   C4B 2017  -0.152   7.005   5.675  0.0278 -0.0694 -0.0852
  143POPC   NC3 2018   9.320   1.783   7.448  0.0719  0.0608 -0.1668
  143POPC   PO4 2019   9.114   2.226   7.437 -0.0847  0.3684  0.0939
  143POPC   GL1 2020   9.211   2.159   7.015  0.1983  0.0738  0.0394
  143POPC   GL2 2021   9.095   1.863   7.032  0.0373 -0.1933 -0.1870
  143POPC   C1A 2022   9.224   2.212   6.600 -0.2922 -0.4758  0.1393
  143POPC   D2A 2023   9.389   2.524   6.201 -0.1045 -0.0831  0.4643
  143POPC   C3A 2024   9.233   2.374   5.817 -0.1491  0.2548 -0.0134
  143POPC   C4A 2025   9.293   2.264   5.434  0.2841 -0.0423  0.0308
  143POPC   C1B 2026   8.957   1.781   6.634  0.1551  0.4136  0.0108
  143POPC   C2B 2027   8.648   1.637   6.215  0.1077 -0.1240 -0.1277
  143POPC   C3B 2028   8.509   1.232   6.094  0.2146 -0.0375 -0.1887
  143POPC   C4B 2029   8.048   1.006   6.124 -0.0860 -0.0913  0.2583
  144POPC   NC3 2030   3.984   7.500   8.051  0.1295  0.1725 -0.0429
  144POPC   PO4 2031   3.575   7.707   8.067  0.2147  0.1290  0.1412
  144POPC   GL1 2032   3.535   7.427   7.771 -0.1113  0.0481 -0.3930
  144POPC   GL2 2033   3.496   7.061   7.801 -0.0051  0.3132 -0.0699
  144POPC   C1A 2034   3.486   7.371   7.277  0.1076  0.3588  0.1594
  144POPC   D2A 2035   3.145   7.604   7.179 -0.3554  0.2639 -0.1842
  144POPC   C3A 2036   3.006   7.600   6.689  0.0564  0.4019 -0.0771
  144POPC   C4A 2037   3.059   7.249   6.442 -0.0668  0.0983 -0.1361
  144POPC   C1B 2038   3.803   6.980   7.489 -0.1356 -0.1743 -0.1453
  144POPC   C2B 2039   3.751   6.863   7.086  0.1152  0.1215 -0.1592
  144POPC   C3B 2040   3.476   6.820   6.750 -0.0048 -0.1643 -0.2936
  144POPC   C4B 2041   3.427   6.940   6.335 -0.1693 -0.1395 -0.2123
  145POPC   NC3 2042   8.145   2.210   7.815  0.0795 -0.0147  0.4698
  145POPC   PO4 2043   8.415   1.944   7.656 -0.0705 -0.1031 -0.3298
  145POPC   GL1 2044   8.454   2.067   7.291 -0.0324 -0.1007 -0.0150
  145POPC   GL2 2045   8.713   2.293   7.109 -0.3028 -0.1931 -0.2053
  145POPC   C1A 2046   8.257   2.141   6.912 -0.1146  0.0251 -0.1186
  145POPC   D2A 2047   8.384   1.935   6.497  0.0992  0.2505  0.0743
  145POPC   C3A 2048   8.109   1.614   6.211  0.2525 -0.0367 -0.0413
  145POPC   C4A 2049   7.893   1.605   5.828 -0.2738 -0.2812 -0.2791
  145POPC   C1B 2050   8.748   2.266   6.752  0.2722 -0.1212 -0.1067
  145POPC   C2B 2051   8.833   2.135   6.293  0.1408 -0.1038 -0.0312
  145POPC   C3B 2052   8.826   2.066   5.865 -0.0399  0.0958 -0.1930
  145POPC   C4B 2053   9.055   1.806   5.647 -0.1788 -0.0745 -0.4487
  146POPC   NC3 2054   5.779   1.009   8.437  0.4896 -0.0981 -0.3596
  146POPC   PO4 2055   6.248   0.971   8.435 -0.1629  0.3980  0.1507
  146POPC   GL1 2056   6.274   0.962   8.075  0.1021  0.1913 -0.2752
  146POPC   GL2 2057   6.570   1.070   7.862 -0.0745  0.2043 -0.0507
  146POPC   C1A 2058   6.183   0.853   7.617  0.0570  0.3517  0.0201
  146POPC   D2A 2059   6.132   0.841   7.152  0.2258 -0.2044  0.1095
  146POPC   C3A 2060   6.401   0.588   6.978 -0.4489 -0.2563 -0.1385
  146POPC   C4A 2061   6.608   0.221   6.930  0.2975 -0.0331 -0.2982
  146POPC   C1B 2062   6.860   1.163   7.520  0.5586 -0.0436  0.0823
  146POPC   C2B 2063   6.657   1.175   7.062  0.3146  0.2157  0.2056
  146POPC   C3B 2064   6.358   1.050   6.779  0.3111  0.0975  0.1941
  146POPC   C4B 2065   6.144   1.046   6.307  0.1921 -0.0460 -0.0201
  147POPC   NC3 2066   1.544   3.400   8.074  0.0562 -0.2004 -0.0649
  147POPC   PO4 2067   1.326   3.796   7.936  0.0188 -0.2040  0.2001
  147POPC   GL1 2068   1.622   3.942   7.599  0.2030 -0.1594  0.0722
  147POPC   GL2 2069   1.931   3.874   7.614 -0.0794 -0.0358  0.1060
  147POPC   C1A 2070   1.590   4.254   7.256 -0.2070  0.0091  0.2849
  147POPC   D2A 2071   1.383   4.540   7.003 -0.2565  0.3152  0.0190
  147POPC   C3A 2072   1.370   4.964   6.756  0.3007  0.1344 -0.3045
  147POPC   C4A 2073   1.390   5.349   6.851 -0.1753  0.0596  0.2334
  147POPC   C1B 2074   1.998   3.838   7.200 -0.1330  0.2482  0.1237
  147POPC   C2B 2075   1.805   4.222   6.851 -0.3108  0.2412 -0.2088
  147POPC   C3B 2076   2.115   4.394   6.533  0.1155  0.1480 -0.1178
  147POPC   C4B 2077   2.528   4.402   6.500 -0.3294 -0.0408  0.0217
  148POPC   NC3 2078   4.645   1.217   7.945 -0.0360 -0.2862 -0.1113
  148POPC   PO4 2079   4.777   1.567   7.863 -0.2627 -0.1265  0.2248
  148POPC   GL1 2080   4.855   1.657   7.402 -0.0202  0.0429  0.0638
  148POPC   GL2 2081   4.641   1.585   7.225 -0.1499 -0.2423  0.3686
  148POPC   C1A 2082   5.150   1.954   7.173  0.4297 -0.0659 -0.2395
  148POPC   D2A 2083   5.165   2.060   6.755 -0.2792 -0.0853 -0.0186
  148POPC   C3A 2084   4.879   1.970   6.450  0.1496  0.1080  0.0769
  148POPC   C4A 2085   4.647   1.805   6.158 -0.3514 -0.0903  0.1739
  148POPC   C1B 2086   4.928   1.584   6.855  0.1951  0.2453  0.0275
  148POPC   C2B 2087   4.906   1.435   6.479  0.1503  0.0898  0.0343
  148POPC   C3B 2088   4.939   1.190   6.110 -0.0439  0.0192  0.0952
  148POPC   C4B 2089   5.069   1.020   5.608 -0.0198 -0.0615 -0.0688
  149POPC   NC3 2090   1.160   2.668   8.094  0.2184 -0.3100  0.1700
  149POPC   PO4 2091   0.758   2.731   7.871  0.0043  0.0032 -0.4416
  149POPC   GL1 2092   0.665   2.913   7.509  0.2246 -0.0074  0.2617
  149POPC   GL2 2093   0.993   3.029   7.557  0.0478  0.0526  0.3199
  149POPC   C1A 2094   0.760   2.881   7.102 -0.0145 -0.1549  0.2044
  149POPC   D2A 2095   0.667   2.657   6.636 -0.0138 -0.1539  0.0913
  149POPC   C3A 2096   0.687   2.802   6.186 -0.1423 -0.1413 -0.1649
  149POPC   C4A 2097   0.841   3.267   6.205 -0.1869 -0.0573 -0.2222
  149POPC   C1B 2098   1.191   2.730   7.236 -0.3611 -0.4524  0.0215
  149POPC   C2B 2099   1.213   2.572   6.783  0.2672 -0.0629  0.0945
  149POPC   C3B 2100   1.220   2.740   6.325  0.2000  0.1685 -0.1963
  149POPC   C4B 2101   1.109   2.724   5.927  0.4043  0.1662  0.4214
  150POPC   NC3 2102   4.818   0.915   8.712 -0.1315 -0.1203  0.0385
  150POPC   PO4 2103   5.053   0.539   8.452  0.0126 -0.5301 -0.1223
  150POPC   GL1 2104   5.478   0.506   8.484 -0.0414 -0.1287  0.0916
  150POPC   GL2 2105   5.531   0.681   8.110  0.2047  0.3534  0.0167
  150POPC   C1A 2106   5.826   0.311   8.199 -0.0759  0.0907 -0.1587
  150POPC   D2A 2107   6.009  -0.058   8.191 -0.0722  0.0954 -0.0951
  150POPC   C3A 2108   5.950  -0.330   7.896  0.1313  0.1974  0.0901
  150POPC   C4A 2109   5.984  -0.279   7.478  0.1742 -0.2403  0.2672
  150POPC   C1B 2110   5.684   0.621   7.746  0.1866 -0.3567 -0.2422
  150POPC   C2B 2111   5.569   0.623   7.249  0.3157 -0.1236 -0.0764
  150POPC   C3B 2112   5.224   0.624   7.118  0.0958 -0.1575 -0.3012
  150POPC   C4B 2113   4.858   0.740   6.996 -0.1938 -0.0705  0.0168
  151POPC   NC3 2114   9.382   6.458   8.441  0.2261 -0.3802 -0.1516
  151POPC   PO4 2115   9.286   6.567   8.110  0.1845 -0.0812  0.3129
  151POPC   GL1 2116   9.113   6.524   7.612 -0.0682 -0.0557  0.2714
  151POPC   GL2 2117   9.226   6.306   7.483 -0.1686  0.0170 -0.1171
  151POPC   C1A 2118   8.920   6.639   7.257 -0.0695 -0.3004 -0.2001
  151POPC   D2A 2119   8.596   6.652   6.981 -0.1382  0.0800 -0.2095
  151POPC   C3A 2120   8.678   6.921   6.641  0.2095  0.0735  0.1136
  151POPC   C4A 2121   8.910   7.033   6.358 -0.0858  0.1820  0.1566
  151POPC   C1B 2122   9.506   6.033   7.154  0.0027  0.0892 -0.2768
  151POPC   C2B 2123   9.494   5.852   6.740  0.2252 -0.3968 -0.1568
  151POPC   C3B 2124   9.705   5.786   6.301 -0.0802 -0.0007 -0.0326
  151POPC   C4B 2125   9.708   5.590   5.932  0.0755  0.0668 -0.3310
  152POPC   NC3 2126   5.192   1.257   7.926 -0.4357 -0.2123  0.2397
  152POPC   PO4 2127   5.009   1.056   7.597 -0.1043 -0.1050 -0.0821
  152POPC   GL1 2128   4.919   1.150   7.207  0.5440 -0.4457 -0.4641
  152POPC   GL2 2129   4.618   1.165   6.989 -0.0634 -0.0212  0.0860
  152POPC   C1A 2130   5.177   1.098   6.871  0.2985 -0.0807  0.1902
  152POPC   D2A 2131   5.347   1.066   6.468 -0.0554 -0.2256 -0.0428
  152POPC   C3A 2132   5.666   1.196   6.420 -0.1978 -0.2214  0.2482
  152POPC   C4A 2133   5.991   1.355   6.674  0.0270  0.0328  0.1536
  152POPC   C1B 2134   4.719   0.973   6.538 -0.2623 -0.2747  0.1190
  152POPC   C2B 2135   4.652   0.602   6.162  0.1355  0.1080 -0.1229
  152POPC   C3B 2136   4.689   0.697   5.679  0.0092 -0.1384 -0.0930
  152POPC   C4B 2137   4.775   0.732   5.279  0.0659 -0.0217 -0.2337
  153POPC   NC3 2138   3.155   9.966   7.688 -0.2332 -0.1566  0.1838
  153POPC   PO4 2139   3.506  10.031   7.780 -0.0548  0.1883 -0.3058
  153POPC   GL1 2140   3.552   9.976   7.311  0.1679  0.1977 -0.3505
  153POPC   GL2 2141   3.844  10.025   7.278 -0.0857  0.3080 -0.2730
  153POPC   C1A 2142   3.347   9.672   7.151  0.0962  0.1447 -0.3082
  153POPC   D2A 2143   3.186   9.386   6.779 -0.1537  0.3048 -0.2788
  153POPC   C3A 2144   3.435   9.459   6.327  0.0054  0.2404 -0.2085
  153POPC   C4A 2145   3.584   9.678   5.932 -0.1112 -0.3018  0.0624
  153POPC   C1B 2146   3.686  10.361   6.923 -0.1982 -0.1815 -0.0693
  153POPC   C2B 2147   3.554  10.560   6.593 -0.4151 -0.3605  0.2564
  153POPC   C3B 2148   3.600  10.226   6.311  0.1138  0.2022  0.0581
  153POPC   C4B 2149   3.537  10.302   5.893  0.0362 -0.2198 -0.1372
  154POPC   NC3 2150   0.663   3.612   8.086 -0.2155 -0.0982  0.4071
  154POPC   PO4 2151   0.842   3.573   7.702  0.0496 -0.0682 -0.3014
  154POPC   GL1 2152   1.292   3.526   7.529 -0.0492  0.0501 -0.1073
  154POPC   GL2 2153   1.433   3.150   7.370  0.0538 -0.0102 -0.2442
  154POPC   C1A 2154   1.548   3.601   7.105  0.3633 -0.0312 -0.2698
  154POPC   D2A 2155   1.436   3.919   6.817 -0.4653  0.2417 -0.0322
  154POPC   C3A 2156   1.145   4.087   6.797  0.1734 -0.3220  0.0812
  154POPC   C4A 2157   0.783   4.053   6.895 -0.3454  0.1114  0.0073
  154POPC   C1B 2158   1.526   2.991   6.950  0.0512  0.0864  0.3219
  154POPC   C2B 2159   1.534   3.259   6.594  0.1839  0.3002 -0.3598
  154POPC   C3B 2160   1.329   3.649   6.395 -0.0956 -0.0921 -0.2312
  154POPC   C4B 2161   1.160   3.714   6.038 -0.3473  0.2182  0.1240
  155POPC   NC3 2162   7.655   4.131   7.364 -0.0377 -0.0128  0.0139
  155POPC   PO4 2163   7.286   4.023   7.570  0.2449 -0.1267 -0.5122
  155POPC   GL1 2164   7.242   3.768   7.230  0.0416  0.4726 -0.2630
  155POPC   GL2 2165   7.574   3.789   6.989  0.0969  0.2078 -0.0033
  155POPC   C1A 2166   7.264   3.469   6.872  0.1648  0.2572 -0.0965
  155POPC   D2A 2167   7.182   3.302   6.435  0.2029 -0.2065  0.2477
  155POPC   C3A 2168   6.957   3.489   6.039 -0.0446 -0.2949 -0.1027
  155POPC   C4A 2169   7.149   3.575   5.685 -0.0666 -0.0107 -0.1250
  155POPC   C1B 2170   7.647   3.819   6.569 -0.0666  0.0097 -0.1695
  155POPC   C2B 2171   7.675   3.873   6.100 -0.1188  0.0826 -0.1429
  155POPC   C3B 2172   8.088   3.816   5.879  0.0721 -0.2217  0.0619
  155POPC   C4B 2173   8.366   3.740   5.564  0.1874  0.0930 -0.3399
  156POPC   NC3 2174   8.633   2.441   7.591 -0.1633 -0.1519 -0.0967
  156POPC   PO4 2175   8.457   2.623   7.982  0.2481 -0.0173  0.1478
  156POPC   GL1 2176   8.161   2.671   7.606 -0.0439  0.0444 -0.0425
  156POPC   GL2 2177   8.206   2.519   7.371 -0.1655 -0.2302  0.4566
  156POPC   C1A 2178   7.831   2.830   7.229  0.0444  0.1630  0.0734
  156POPC   D2A 2179   7.511   2.821   6.883  0.1278  0.3047 -0.1455
  156POPC   C3A 2180   7.159   2.891   6.709  0.0222  0.0352 -0.1272
  156POPC   C4A 2181   6.866   3.164   6.745 -0.0048 -0.1639 -0.0892
  156POPC   C1B 2182   8.074   2.593   6.929  0.3189  0.1621  0.0987
  156POPC   C2B 2183   7.904   2.436   6.521  0.1341  0.2275 -0.2359
  156POPC   C3B 2184   7.897   2.564   6.077 -0.0031  0.0454 -0.0013
  156POPC   C4B 2185   8.038   2.511   5.713  0.2373  0.3231 -0.1263
  157POPC   NC3 2186  10.468   0.365   7.616 -0.2956 -0.4869  0.0996
  157POPC   PO4 2187  10.788   0.657   7.517  0.3909 -0.1011  0.1052
  157POPC   GL1 2188  10.932   0.837   7.027  0.0131 -0.1227  0.0993
  157POPC   GL2 2189  10.875   1.195   6.942  0.0329 -0.4059 -0.1009
  157POPC   C1A 2190  10.957   0.579   6.647  0.1255  0.3333  0.0181
  157POPC   D2A 2191  10.845   0.201   6.452 -0.0675  0.2449  0.0039
  157POPC   C3A 2192  10.663   0.156   6.001  0.1403 -0.1480 -0.0289
  157POPC   C4A 2193  10.649   0.187   5.501 -0.2262 -0.0791  0.3444
  157POPC   C1B 2194  10.996   1.113   6.583 -0.0765 -0.3640 -0.0242
  157POPC   C2B 2195  10.693   0.948   6.308  0.0035  0.0675 -0.0959
  157POPC   C3B 2196  10.758   1.088   5.865 -0.2436 -0.1558  0.1490
  157POPC   C4B 2197  10.499   1.094   5.498  0.0916 -0.1077  0.0245
  158POPC   NC3 2198   7.768   5.562   7.693 -0.0695  0.0242 -0.2448
  158POPC   PO4 2199   7.818   5.987   7.769  0.1056 -0.1378  0.2148
  158POPC   GL1 2200   7.915   6.247   7.411 -0.0807  0.0672  0.0469
  158POPC   GL2 2201   7.672   6.467   7.206  0.2036 -0.0412 -0.1027
  158POPC   C1A 2202   8.087   6.123   7.068 -0.1227  0.0062 -0.2933
  158POPC   D2A 2203   8.248   6.398   6.771 -0.3241 -0.0012 -0.1356
  158POPC   C3A 2204   8.051   6.444   6.447  0.3167  0.1417 -0.2830
  158POPC   C4A 2205   8.089   6.535   6.100 -0.0411  0.0198  0.1769
  158POPC   C1B 2206   7.639   6.250   6.788 -0.3308  0.0285 -0.0889
  158POPC   C2B 2207   7.605   6.152   6.419  0.1594 -0.3545  0.1971
  158POPC   C3B 2208   7.637   6.362   6.070 -0.1594 -0.0098 -0.0473
  158POPC   C4B 2209   7.687   6.652   5.766  0.1632  0.0079  0.2723
  159POPC   NC3 2210   0.910   0.198   7.480 -0.2315  0.1345  0.0877
  159POPC   PO4 2211   1.373   0.247   7.504  0.0208 -0.1986 -0.0287
  159POPC   GL1 2212   1.584   0.336   7.102  0.1421  0.1151 -0.1026
  159POPC   GL2 2213   1.866   0.547   7.087 -0.2079 -0.0138 -0.0195
  159POPC   C1A 2214   1.646   0.149   6.794 -0.1085  0.0574 -0.0017
  159POPC   D2A 2215   1.536  -0.097   6.584 -0.1839  0.1167 -0.2484
  159POPC   C3A 2216   1.254  -0.093   6.178 -0.1762  0.1500 -0.0573
  159POPC   C4A 2217   0.776  -0.142   6.048 -0.3867  0.0631  0.3798
  159POPC   C1B 2218   2.093   0.434   6.792  0.0459  0.1425 -0.1554
  159POPC   C2B 2219   2.354   0.567   6.494 -0.2981  0.0868 -0.3604
  159POPC   C3B 2220   2.632   0.671   6.178  0.0383 -0.0257 -0.0893
  159POPC   C4B 2221   2.644   0.920   5.800 -0.0326  0.0751  0.2056
  160POPC   NC3 2222   2.268   5.459   8.129  0.1792  0.2491 -0.1875
  160POPC   PO4 2223   1.915   5.486   8.230 -0.0306  0.1139  0.1482
  160POPC   GL1 2224   1.927   5.608   7.802 -0.2798 -0.1031 -0.2332
  160POPC   GL2 2225   2.241   5.792   7.741 -0.3076 -0.1139 -0.0653
  160POPC   C1A 2226   1.785   5.330   7.489 -0.1061 -0.0112  0.1712
  160POPC   D2A 2227   1.822   5.204   7.100 -0.0213 -0.2261  0.1285
  160POPC   C3A 2228   1.884   5.432   6.785  0.1214 -0.3060  0.1835
  160POPC   C4A 2229   2.092   5.472   6.422 -0.2656 -0.1063  0.1593
  160POPC   C1B 2230   2.201   6.022   7.466 -0.0131  0.0663 -0.1854
  160POPC   C2B 2231   2.067   5.998   7.021 -0.1665 -0.0647  0.2434
  160POPC   C3B 2232   2.231   5.992   6.616 -0.5660  0.0826  0.0230
  160POPC   C4B 2233   2.202   6.234   6.249  0.2884  0.1245 -0.1280
  161POPC   NC3 2234   2.209   1.674   8.176  0.4392 -0.1145  0.1416
  161POPC   PO4 2235   2.286   1.468   7.723 -0.4955 -0.2010  0.0857
  161POPC   GL1 2236   2.220   1.641   7.332  0.0303  0.1768  0.0142
  161POPC   GL2 2237   2.125   1.835   7.254 -0.0428 -0.1454  0.2031
  161POPC   C1A 2238   1.979   1.499   6.889 -0.2662  0.1002 -0.0992
  161POPC   D2A 2239   1.954   1.425   6.504 -0.0694 -0.1282  0.1728
  161POPC   C3A 2240   1.747   1.655   6.241  0.1590  0.1557  0.0027
  161POPC   C4A 2241   1.831   1.980   6.107 -0.2986 -0.3065  0.0848
  161POPC   C1B 2242   2.404   1.941   6.886 -0.0200  0.1416  0.2850
  161POPC   C2B 2243   2.637   2.142   6.512 -0.1686  0.2006  0.0217
  161POPC   C3B 2244   2.875   2.020   6.097 -0.0893  0.2679 -0.2678
  161POPC   C4B 2245   3.166   2.268   5.918  0.1757  0.0434  0.0085
  162POPC   NC3 2246   4.728   0.258   7.931 -0.1253  0.1808  0.1913
  162POPC   PO4 2247   4.698  -0.234   7.798  0.1505  0.1596  0.1225
  162POPC   GL1 2248   5.177  -0.194   7.594 -0.0883 -0.1293 -0.1314
  162POPC   GL2 2249   5.076  -0.263   7.360  0.0205  0.1008 -0.1781
  162POPC   C1A 2250   5.485  -0.074   7.263  0.0411  0.0492 -0.2745
  162POPC   D2A 2251   5.780   0.220   7.293 -0.2327 -0.2154 -0.2516
  162POPC   C3A 2252   6.202   0.147   7.282 -0.2799  0.3469 -0.1539
  162POPC   C4A 2253   6.670   0.004   7.362 -0.0294  0.1726 -0.1114
  162POPC   C1B 2254   5.168  -0.270   6.901  0.0768  0.1977 -0.0569
  162POPC   C2B 2255   5.156  -0.043   6.599 -0.1318  0.1843 -0.1471
  162POPC   C3B 2256   5.127   0.167   6.276  0.2731 -0.1694 -0.0143
  162POPC   C4B 2257   4.936   0.230   5.891 -0.0634 -0.1168 -0.1356
  163POPC   NC3 2258   4.391   7.852   7.787  0.0508 -0.1341  0.1315
  163POPC   PO4 2259   4.840   7.653   7.912 -0.0095 -0.3462  0.1043
  163POPC   GL1 2260   4.735   7.489   7.529 -0.1411  0.0751 -0.1042
  163POPC   GL2 2261   4.427   7.646   7.346  0.1929 -0.0240  0.1761
  163POPC   C1A 2262   5.048   7.399   7.151  0.2383  0.2512 -0.3300
  163POPC   D2A 2263   5.329   7.340   6.823  0.2393  0.1004 -0.0791
  163POPC   C3A 2264   5.670   7.288   6.629 -0.0565  0.3416  0.1015
  163POPC   C4A 2265   6.056   7.438   6.672 -0.1187 -0.0079  0.1820
  163POPC   C1B 2266   4.668   7.757   7.045  0.0978 -0.2514  0.1115
  163POPC   C2B 2267   4.616   7.927   6.626 -0.0984  0.1995  0.2255
  163POPC   C3B 2268   4.783   8.056   6.213  0.2036  0.0150  0.0446
  163POPC   C4B 2269   4.470   8.248   5.898 -0.1017  0.3756 -0.0468
  164POPC   NC3 2270   1.765  10.499   7.651 -0.0457 -0.0819 -0.0502
  164POPC   PO4 2271   1.646  10.046   7.704  0.0961  0.2015 -0.0809
  164POPC   GL1 2272   1.564  10.126   7.300  0.2157  0.3052 -0.2675
  164POPC   GL2 2273   1.633   9.951   6.992  0.4174  0.0752  0.3435
  164POPC   C1A 2274   1.282  10.454   7.027 -0.0399 -0.2119 -0.3294
  164POPC   D2A 2275   1.040  10.528   6.653 -0.0045 -0.2959 -0.2661
  164POPC   C3A 2276   1.218  10.996   6.613  0.1595 -0.1224  0.3129
  164POPC   C4A 2277   1.458  11.297   6.697 -0.0675  0.0924  0.3716
  164POPC   C1B 2278   1.786  10.160   6.612 -0.0635  0.2296 -0.1594
  164POPC   C2B 2279   1.678  10.371   6.154  0.0544 -0.0079  0.0860
  164POPC   C3B 2280   1.909  10.660   5.864  0.1844 -0.4419  0.1310
  164POPC   C4B 2281   1.854  10.729   5.370 -0.1590  0.0401 -0.3038
  165POPC   NC3 2282   2.923   5.526   8.359 -0.1154  0.0223  0.2614
  165POPC   PO4 2283   3.244   5.352   8.226  0.1349  0.2818  0.1309
  165POPC   GL1 2284   3.295   5.291   7.747  0.1913  0.0512 -0.0261
  165POPC   GL2 2285   3.528   5.526   7.548 -0.0739  0.1821 -0.1436
  165POPC   C1A 2286   2.948   5.183   7.517 -0.4092 -0.2646  0.2111
  165POPC   D2A 2287   2.762   5.405   7.104  0.3305 -0.0370 -0.1437
  165POPC   C3A 2288   3.004   5.549   6.676  0.1252  0.0195 -0.1420
  165POPC   C4A 2289   3.370   5.543   6.366 -0.0055 -0.3295  0.1681
  165POPC   C1B 2290   3.841   5.370   7.180  0.2499  0.3914  0.0181
  165POPC   C2B 2291   3.823   5.399   6.706  0.2308 -0.1069  0.0194
  165POPC   C3B 2292   3.890   5.620   6.374  0.0341  0.1159 -0.0457
  165POPC   C4B 2293   3.885   5.455   5.989 -0.2969  0.1386  0.1344
  166POPC   NC3 2294   7.771   1.694   8.284  0.1075 -0.1453  0.1721
  166POPC   PO4 2295   8.175   1.712   8.036 -0.0016 -0.3701 -0.4584
  166POPC   GL1 2296   8.115   1.496   7.650  0.0306 -0.1375  0.0757
  166POPC   GL2 2297   7.929   1.585   7.463 -0.0612 -0.0409  0.2025
  166POPC   C1A 2298   8.359   1.407   7.254 -0.0676 -0.0515  0.2295
  166POPC   D2A 2299   8.506   1.026   7.091  0.2355  0.3040  0.2471
  166POPC   C3A 2300   8.931   0.880   7.093 -0.0948  0.0631 -0.0980
  166POPC   C4A 2301   9.237   1.020   6.905 -0.2773 -0.0774 -0.0010
  166POPC   C1B 2302   8.062   1.654   6.981  0.2437  0.0923  0.0158
  166POPC   C2B 2303   7.889   1.912   6.574  0.0770  0.2997  0.1575
  166POPC   C3B 2304   7.846   2.041   6.178  0.1636 -0.5100 -0.0721
  166POPC   C4B 2305   7.797   2.066   5.675 -0.1135  0.0699 -0.4091
  167POPC   NC3 2306   8.850   7.205   8.314  0.0292  0.2478 -0.1543
  167POPC   PO4 2307   9.037   6.950   7.922 -0.0305 -0.1584 -0.0101
  167POPC   GL1 2308   9.140   7.035   7.517  0.1728  0.0938  0.2174
  167POPC   GL2 2309   9.108   7.396   7.504  0.2008  0.0981  0.3758
  167POPC   C1A 2310   9.213   7.084   7.077  0.2186  0.1769 -0.1436
  167POPC   D2A 2311   9.316   7.171   6.634 -0.4090  0.3426 -0.0612
  167POPC   C3A 2312   9.657   6.857   6.330  0.0253  0.4221  0.2124
  167POPC   C4A 2313   9.667   6.757   5.914  0.2330 -0.0866  0.0714
  167POPC   C1B 2314   9.133   7.717   7.108  0.3708  0.0140  0.2336
  167POPC   C2B 2315   9.168   7.846   6.756  0.1019 -0.1206  0.1204
  167POPC   C3B 2316   9.320   7.975   6.289  0.2485 -0.1965  0.0382
  167POPC   C4B 2317   9.662   7.992   6.054  0.1400  0.0475  0.0472
  168POPC   NC3 2318   6.195   3.502   7.902 -0.2314 -0.0865 -0.2617
  168POPC   PO4 2319   5.926   3.887   7.914 -0.1466  0.0695  0.0933
  168POPC   GL1 2320   5.914   3.978   7.447 -0.0866 -0.1196  0.3217
  168POPC   GL2 2321   6.126   4.125   7.258 -0.4465 -0.0510  0.0807
  168POPC   C1A 2322   5.826   3.819   7.046  0.2325 -0.0128  0.1072
  168POPC   D2A 2323   5.653   3.815   6.594  0.0493 -0.1172 -0.2558
  168POPC   C3A 2324   5.901   3.766   6.353 -0.0470  0.0513  0.2200
  168POPC   C4A 2325   6.074   3.725   6.004 -0.0316  0.0492 -0.0621
  168POPC   C1B 2326   6.095   4.283   6.778  0.0839 -0.3319  0.1822
  168POPC   C2B 2327   5.839   4.364   6.534  0.0839 -0.0854 -0.0271
  168POPC   C3B 2328   5.776   4.371   6.126 -0.3362 -0.2234  0.1141
  168POPC   C4B 2329   5.825   4.872   5.906  0.4335 -0.1093 -0.0476
  169POPC   NC3 2330   2.164   0.615   7.905  0.1338  0.2773 -0.4184
  169POPC   PO4 2331   2.030   0.295   7.549  0.1453 -0.0230 -0.2329
  169POPC   GL1 2332   2.087   0.051   7.258 -0.2492  0.1477 -0.1926
  169POPC   GL2 2333   2.359   0.170   7.218  0.0433  0.1628  0.2660
  169POPC   C1A 2334   2.073  -0.134   6.859  0.1803 -0.0507 -0.2006
  169POPC   D2A 2335   2.078   0.077   6.489 -0.1035 -0.3228  0.1742
  169POPC   C3A 2336   2.262  -0.152   6.180 -0.0142  0.2648 -0.1682
  169POPC   C4A 2337   2.711  -0.398   6.266  0.0770  0.0524 -0.0341
  169POPC   C1B 2338   2.520   0.153   6.686 -0.1646 -0.0220 -0.3357
  169POPC   C2B 2339   2.567   0.194   6.263 -0.4863  0.0824 -0.3390
  169POPC   C3B 2340   2.320   0.300   5.985  0.1053  0.2003  0.0131
  169POPC   C4B 2341   2.359   0.569   5.611  0.3675  0.3603 -0.0529
  170POPC   NC3 2342   3.003   0.113   7.650 -0.3252 -0.0970  0.0924
  170POPC   PO4 2343   2.765  -0.264   7.590  0.1580  0.0123  0.1369
  170POPC   GL1 2344   2.829  -0.162   7.138  0.2160 -0.1275 -0.0784
  170POPC   GL2 2345   2.604  -0.390   7.081 -0.0008  0.3912  0.0218
  170POPC   C1A 2346   2.987  -0.059   6.689 -0.1597 -0.2381  0.2000
  170POPC   D2A 2347   3.206  -0.080   6.261  0.0114 -0.0528 -0.1920
  170POPC   C3A 2348   3.088   0.260   6.086  0.0477 -0.1533 -0.1133
  170POPC   C4A 2349   3.146   0.751   5.924 -0.2566 -0.0513 -0.0817
  170POPC   C1B 2350   2.416  -0.579   6.668 -0.0293 -0.2283 -0.0837
  170POPC   C2B 2351   2.153  -0.668   6.245 -0.2051  0.3075 -0.0674
  170POPC   C3B 2352   2.428  -0.677   5.888  0.2284  0.1822 -0.0049
  170POPC   C4B 2353   2.551  -0.689   5.489  0.0125  0.0716 -0.0225
  171POPC   NC3 2354   2.241   3.886   8.090  0.1435  0.2027 -0.4491
  171POPC   PO4 2355   2.156   3.458   8.298  0.0740  0.1998 -0.2796
  171POPC   GL1 2356   2.037   3.427   7.868  0.3062 -0.0308  0.2240
  171POPC   GL2 2357   2.317   3.471   7.598  0.0074  0.1783 -0.1737
  171POPC   C1A 2358   1.849   3.349   7.438  0.1694  0.0418 -0.0123
  171POPC   D2A 2359   1.928   3.315   7.056 -0.0112 -0.1012 -0.1113
  171POPC   C3A 2360   1.888   3.605   6.683 -0.1981  0.0952  0.0234
  171POPC   C4A 2361   1.822   3.901   6.433  0.2392  0.0820  0.1089
  171POPC   C1B 2362   2.387   3.471   7.079  0.2628 -0.0114  0.0925
  171POPC   C2B 2363   2.610   3.513   6.679  0.0933 -0.0714  0.0197
  171POPC   C3B 2364   2.820   3.588   6.362  0.0339 -0.5568 -0.0438
  171POPC   C4B 2365   2.693   3.482   5.958  0.0515 -0.1366 -0.1406
  172POPC   NC3 2366   6.995   4.780   8.134 -0.1514  0.1544  0.0337
  172POPC   PO4 2367   7.384   4.753   7.775 -0.1572 -0.1805  0.2793
  172POPC   GL1 2368   7.488   4.674   7.328 -0.1428 -0.1986  0.0339
  172POPC   GL2 2369   7.386   4.521   7.221 -0.2103  0.0372  0.1422
  172POPC   C1A 2370   7.615   4.894   6.894 -0.0868  0.0484 -0.2467
  172POPC   D2A 2371   7.397   4.899   6.530 -0.1966 -0.1317  0.1088
  172POPC   C3A 2372   7.038   4.681   6.616  0.2024  0.0538  0.0957
  172POPC   C4A 2373   6.667   4.611   6.842  0.0879 -0.3758  0.1299
  172POPC   C1B 2374   7.424   4.350   6.824  0.0432 -0.0249 -0.2066
  172POPC   C2B 2375   7.458   4.317   6.252 -0.1541  0.3234  0.1446
  172POPC   C3B 2376   7.428   4.538   5.983 -0.2716  0.1414 -0.0149
  172POPC   C4B 2377   7.563   4.781   5.723 -0.7498 -0.1251  0.2484
  173POPC   NC3 2378   0.638   6.180   8.148  0.0814  0.0778  0.0189
  173POPC   PO4 2379   0.905   6.507   8.002 -0.1720  0.1536 -0.0695
  173POPC   GL1 2380   0.811   6.290   7.605 -0.2019  0.1550  0.1317
  173POPC   GL2 2381   0.613   5.968   7.621 -0.1794  0.0517 -0.1641
  173POPC   C1A 2382   0.839   6.218   7.211  0.0804 -0.0213  0.0430
  173POPC   D2A 2383   0.837   6.381   6.735  0.0875 -0.1950 -0.0507
  173POPC   C3A 2384   1.266   6.515   6.544  0.0013  0.0575 -0.0463
  173POPC   C4A 2385   1.523   6.693   6.160  0.1894 -0.1792 -0.0528
  173POPC   C1B 2386   0.911   5.785   7.430  0.0943 -0.0051 -0.0225
  173POPC   C2B 2387   1.075   5.518   7.125  0.3801 -0.0540 -0.3487
  173POPC   C3B 2388   0.865   5.308   6.786  0.1436 -0.2229  0.0368
  173POPC   C4B 2389   0.618   5.159   6.441  0.0321 -0.1221 -0.0935
  174POPC   NC3 2390   0.649   8.493   3.716 -0.2904  0.3076  0.3294
  174POPC   PO4 2391   0.648   8.976   3.810  0.0965  0.0330  0.2031
  174POPC   GL1 2392   0.633   8.754   4.284  0.0514  0.2946 -0.0043
  174POPC   GL2 2393   0.786   8.857   4.607 -0.2169 -0.3720  0.2054
  174POPC   C1A 2394   0.654   8.343   4.569 -0.2886  0.0597 -0.0072
  174POPC   D2A 2395   0.742   8.485   4.946 -0.0907 -0.1513  0.2198
  174POPC   C3A 2396   0.616   8.352   5.356  0.1217  0.0151  0.0749
  174POPC   C4A 2397   0.791   8.100   5.624  0.1163  0.2427  0.2672
  174POPC   C1B 2398   1.161   8.980   4.717 -0.1748  0.3594 -0.1580
  174POPC   C2B 2399   1.532   8.988   4.670  0.0334  0.5747 -0.1521
  174POPC   C3B 2400   1.750   9.136   5.082  0.3846 -0.1293 -0.1994
  174POPC   C4B 2401   1.713   9.391   5.385 -0.1795 -0.1285 -0.0137
  175POPC   NC3 2402   9.470   3.409   3.971 -0.1343 -0.2886 -0.1610
  175POPC   PO4 2403   9.863   3.273   3.892 -0.2601  0.0691 -0.0307
  175POPC   GL1 2404   9.907   3.278   4.325  0.0279  0.1529 -0.1580
  175POPC   GL2 2405   9.865   2.922   4.553  0.1057 -0.1449 -0.1697
  175POPC   C1A 2406   9.563   3.406   4.596  0.0014 -0.0307  0.1827
  175POPC   D2A 2407   9.560   3.699   4.973 -0.1351 -0.0858  0.0518
  175POPC   C3A 2408   9.224   3.515   5.131 -0.6363  0.1593  0.2651
  175POPC   C4A 2409   9.138   3.124   5.357  0.2004  0.0231 -0.1775
  175POPC   C1B 2410   9.908   3.245   4.929  0.0582  0.0827  0.1216
  175POPC   C2B 2411   9.970   3.552   5.254  0.3043 -0.0857  0.1201
  175POPC   C3B 2412   9.724   3.915   5.391 -0.1561  0.0658 -0.1177
  175POPC   C4B 2413   9.481   4.155   5.688  0.3936  0.1484  0.0251
  176POPC   NC3 2414   2.112  10.248   3.848  0.0275 -0.0439  0.0381
  176POPC   PO4 2415   1.771  10.108   3.807 -0.0822  0.1342 -0.1898
  176POPC   GL1 2416   1.741  10.065   4.249 -0.3020 -0.0766  0.1005
  176POPC   GL2 2417   1.606   9.815   4.467  0.2055  0.0432  0.3064
  176POPC   C1A 2418   1.700  10.302   4.561  0.3277 -0.0374  0.0126
  176POPC   D2A 2419   1.575  10.422   4.931  0.0160  0.1445 -0.4191
  176POPC   C3A 2420   1.689  10.297   5.223  0.2260  0.0364 -0.0713
  176POPC   C4A 2421   2.014  10.173   5.658  0.0195 -0.1573 -0.0643
  176POPC   C1B 2422   1.319  10.018   4.780  0.2770  0.0174  0.1696
  176POPC   C2B 2423   1.210  10.104   5.178 -0.0118  0.0660 -0.2224
  176POPC   C3B 2424   0.895  10.301   5.545 -0.2043  0.2157 -0.0064
  176POPC   C4B 2425   0.659  10.073   5.897  0.0319 -0.0276 -0.3300
  177POPC   NC3 2426   5.180   5.746   4.526 -0.0028 -0.1350 -0.2406
  177POPC   PO4 2427   5.128   5.296   4.447 -0.0455 -0.2200  0.2325
  177POPC   GL1 2428   5.029   5.305   4.892 -0.1941 -0.0344  0.3625
  177POPC   GL2 2429   4.818   5.560   4.778  0.2597 -0.1390  0.0935
  177POPC   C1A 2430   5.075   5.272   5.334  0.1134  0.0144 -0.1686
  177POPC   D2A 2431   5.156   5.126   5.768 -0.0183  0.4344 -0.1501
  177POPC   C3A 2432   4.925   4.848   5.940  0.0653  0.1310  0.1116
  177POPC   C4A 2433   4.869   4.450   6.171  0.0901 -0.1067  0.3522
  177POPC   C1B 2434   4.559   5.307   5.097  0.0345  0.0233 -0.0278
  177POPC   C2B 2435   4.247   5.433   5.311  0.0119  0.0313  0.3133
  177POPC   C3B 2436   3.907   5.565   5.494 -0.2857 -0.2330  0.2168
  177POPC   C4B 2437   3.480   5.855   5.474 -0.2408 -0.1433 -0.1031
  178POPC   NC3 2438  10.603   5.186   4.300  0.1411  0.1749 -0.0557
  178POPC   PO4 2439  10.352   5.246   4.068 -0.1983 -0.2556 -0.1184
  178POPC   GL1 2440  10.111   5.289   4.434 -0.1847 -0.4874  0.0062
  178POPC   GL2 2441  10.373   5.556   4.552 -0.2206  0.2540  0.1281
  178POPC   C1A 2442   9.856   5.538   4.795  0.2584  0.0188 -0.1258
  178POPC   D2A 2443   9.575   5.484   5.134  0.0043 -0.1520  0.3360
  178POPC   C3A 2444   9.489   5.827   5.462 -0.1906  0.0383 -0.3000
  178POPC   C4A 2445   9.769   6.080   5.676 -0.0042  0.1247  0.0896
  178POPC   C1B 2446  10.689   5.873   4.651  0.1868 -0.0314  0.2854
  178POPC   C2B 2447  10.863   6.159   4.928  0.2281  0.1287  0.0503
  178POPC   C3B 2448  10.997   5.997   5.320 -0.1755 -0.0063  0.0080
  178POPC   C4B 2449  11.174   6.163   5.619 -0.0448  0.1797 -0.2771
  179POPC   NC3 2450   7.316   7.133   3.939 -0.3096 -0.2541  0.0061
  179POPC   PO4 2451   7.124   7.442   3.984  0.1691 -0.0914 -0.1060
  179POPC   GL1 2452   7.168   7.243   4.431  0.0159 -0.3401 -0.0574
  179POPC   GL2 2453   7.177   6.860   4.406 -0.0593 -0.1737 -0.0090
  179POPC   C1A 2454   7.326   7.225   4.851  0.1130  0.2014  0.2038
  179POPC   D2A 2455   7.465   7.561   5.142  0.0983 -0.0989 -0.0665
  179POPC   C3A 2456   7.428   7.736   5.437 -0.2888  0.2688  0.0858
  179POPC   C4A 2457   7.514   8.116   5.564  0.0227  0.1075 -0.0756
  179POPC   C1B 2458   7.342   6.643   4.716 -0.1741  0.2216 -0.0055
  179POPC   C2B 2459   7.163   6.428   5.042 -0.1189  0.0362  0.1186
  179POPC   C3B 2460   6.926   6.200   5.360  0.1119 -0.1905 -0.1622
  179POPC   C4B 2461   6.683   6.339   5.622  0.0123 -0.1402 -0.1197
  180POPC   NC3 2462   4.178   6.959   4.133 -0.1948  0.0394 -0.3324
  180POPC   PO4 2463   4.045   7.062   4.511  0.1681  0.1046  0.0574
  180POPC   GL1 2464   4.038   7.201   4.931  0.0337  0.1699  0.0783
  180POPC   GL2 2465   3.890   7.236   5.099  0.3768  0.0422  0.0765
  180POPC   C1A 2466   4.382   7.433   5.190 -0.2015  0.0945  0.0523
  180POPC   D2A 2467   4.401   7.315   5.656 -0.0280  0.1499 -0.1349
  180POPC   C3A 2468   4.142   6.982   5.700  0.1434 -0.0802  0.0201
  180POPC   C4A 2469   4.103   6.543   5.803  0.2002 -0.0625 -0.2273
  180POPC   C1B 2470   3.839   7.313   5.500 -0.0248 -0.2700 -0.1918
  180POPC   C2B 2471   3.615   7.241   5.857 -0.2480 -0.0252  0.0772
  180POPC   C3B 2472   3.183   7.210   5.931  0.0050 -0.1125 -0.2007
  180POPC   C4B 2473   2.936   7.555   5.977  0.1274 -0.0028  0.3584
  181POPC   NC3 2474   2.955   1.836   3.934 -0.1958  0.1886 -0.0445
  181POPC   PO4 2475   2.540   1.885   4.010 -0.0543 -0.0498 -0.1332
  181POPC   GL1 2476   2.232   1.632   4.279  0.0337  0.0969 -0.1048
  181POPC   GL2 2477   2.278   1.321   4.266  0.1180  0.2465 -0.1022
  181POPC   C1A 2478   2.253   1.548   4.733  0.0784  0.1142 -0.0368
  181POPC   D2A 2479   2.138   1.678   5.110 -0.3016 -0.1859  0.3204
  181POPC   C3A 2480   2.138   1.522   5.497  0.1557 -0.1262  0.0230
  181POPC   C4A 2481   2.144   1.472   5.993  0.0555 -0.0717  0.1239
  181POPC   C1B 2482   2.135   1.106   4.608 -0.0461  0.0605  0.1417
  181POPC   C2B 2483   1.939   0.939   4.929 -0.0427 -0.3064  0.2039
  181POPC   C3B 2484   1.963   0.781   5.322  0.1220 -0.1715  0.0768
  181POPC   C4B 2485   1.832   0.543   5.650 -0.0707  0.2027  0.3096
  182POPC   NC3 2486   7.533   4.214   3.981 -0.0095 -0.1969  0.0059
  182POPC   PO4 2487   7.207   4.523   4.089  0.1206  0.1017 -0.0096
  182POPC   GL1 2488   7.263   4.493   4.521 -0.0669 -0.2805 -0.0625
  182POPC   GL2 2489   7.095   4.805   4.500 -0.1521 -0.0940 -0.3064
  182POPC   C1A 2490   7.467   4.464   4.959 -0.0014  0.2045 -0.1403
  182POPC   D2A 2491   7.645   4.384   5.441 -0.0059 -0.4981 -0.1986
  182POPC   C3A 2492   7.950   4.320   5.589  0.0856  0.3789  0.0043
  182POPC   C4A 2493   8.366   4.218   5.845 -0.1557 -0.1137 -0.2165
  182POPC   C1B 2494   6.927   4.972   4.960  0.1449 -0.3185  0.2209
  182POPC   C2B 2495   6.795   5.132   5.446  0.2227  0.1068  0.0331
  182POPC   C3B 2496   6.768   5.245   5.877  0.1453  0.0502  0.1768
  182POPC   C4B 2497   6.792   5.032   6.237  0.1692  0.0810  0.1192
  183POPC   NC3 2498   0.131   8.943   3.664 -0.3011  0.1928  0.0384
  183POPC   PO4 2499   0.240   8.573   3.969 -0.0540 -0.4490 -0.1310
  183POPC   GL1 2500   0.142   8.483   4.424  0.4149 -0.3180 -0.0449
  183POPC   GL2 2501  -0.165   8.608   4.621  0.2119 -0.3038 -0.0183
  183POPC   C1A 2502   0.024   8.081   4.618 -0.5764  0.0404 -0.0767
  183POPC   D2A 2503  -0.056   7.646   4.915 -0.1789  0.0829  0.1121
  183POPC   C3A 2504  -0.325   7.522   5.268  0.0604  0.2561  0.1904
  183POPC   C4A 2505  -0.727   7.633   5.440 -0.1001 -0.0125 -0.0125
  183POPC   C1B 2506  -0.241   8.427   5.095  0.2120  0.1691 -0.4691
  183POPC   C2B 2507  -0.398   8.359   5.488  0.1377  0.1815  0.2042
  183POPC   C3B 2508  -0.682   8.335   5.747 -0.0818  0.0128  0.0072
  183POPC   C4B 2509  -1.066   8.490   5.848 -0.0043  0.0666 -0.2226
  184POPC   NC3 2510   1.186  10.204   3.762  0.1862 -0.1541 -0.1390
  184POPC   PO4 2511   0.910  10.531   3.793  0.0050  0.0036 -0.1592
  184POPC   GL1 2512   0.763  10.832   4.129 -0.4885  0.1693 -0.0006
  184POPC   GL2 2513   0.852  11.204   4.123  0.0727  0.1126  0.1380
  184POPC   C1A 2514   1.155  10.909   4.448  0.0300  0.2099 -0.1700
  184POPC   D2A 2515   1.326  10.895   4.935 -0.1789  0.0646 -0.3079
  184POPC   C3A 2516   1.366  11.071   5.330 -0.0551 -0.2678  0.2478
  184POPC   C4A 2517   1.243  11.398   5.648 -0.0689 -0.0811  0.2903
  184POPC   C1B 2518   0.680  11.113   4.565 -0.2353 -0.0158  0.0429
  184POPC   C2B 2519   0.771  11.149   4.923 -0.1022  0.0002 -0.0342
  184POPC   C3B 2520   0.803  11.120   5.390 -0.0122 -0.0046  0.1651
  184POPC   C4B 2521   0.993  10.877   5.698  0.3767 -0.0729 -0.1969
  185POPC   NC3 2522   6.186   7.384   4.284  0.1885  0.2112 -0.1029
  185POPC   PO4 2523   6.170   7.713   4.072 -0.1509  0.3959 -0.1068
  185POPC   GL1 2524   5.881   7.798   4.416  0.1695 -0.1503 -0.2248
  185POPC   GL2 2525   6.094   7.863   4.582  0.0871 -0.0205 -0.2296
  185POPC   C1A 2526   5.623   7.738   4.862 -0.0298 -0.2679  0.0578
  185POPC   D2A 2527   5.589   7.961   5.163 -0.2381  0.2036 -0.0709
  185POPC   C3A 2528   6.034   7.901   5.427 -0.2134  0.0447 -0.0313
  185POPC   C4A 2529   6.221   7.454   5.439 -0.0253 -0.2977  0.2441
  185POPC   C1B 2530   6.095   8.031   4.926  0.1191  0.2772 -0.0974
  185POPC   C2B 2531   6.339   8.273   5.253 -0.1383 -0.0374 -0.2419
  185POPC   C3B 2532   6.530   8.363   5.661  0.0127  0.2877  0.0878
  185POPC   C4B 2533   6.685   8.686   5.851 -0.0351  0.0710 -0.3340
  186POPC   NC3 2534   0.865   3.696   4.066  0.2490  0.1518 -0.1117
  186POPC   PO4 2535   0.730   4.061   4.230 -0.1178 -0.1866  0.0003
  186POPC   GL1 2536   0.753   3.892   4.737  0.2153  0.1602  0.0041
  186POPC   GL2 2537   0.843   4.162   4.695 -0.1913 -0.0483 -0.0201
  186POPC   C1A 2538   0.473   3.739   4.964  0.1152  0.1354 -0.0807
  186POPC   D2A 2539   0.452   3.814   5.427 -0.1027  0.0480  0.0136
  186POPC   C3A 2540   0.105   3.643   5.673  0.1512 -0.0216  0.2535
  186POPC   C4A 2541  -0.044   3.513   6.069 -0.0582 -0.2385 -0.1163
  186POPC   C1B 2542   1.139   4.025   5.035  0.2660  0.3057  0.1640
  186POPC   C2B 2543   1.057   3.905   5.508 -0.0962  0.1162 -0.1869
  186POPC   C3B 2544   0.795   4.022   5.826  0.0600 -0.0982 -0.2683
  186POPC   C4B 2545   0.520   4.187   6.122  0.1622  0.0770 -0.1005
  187POPC   NC3 2546   3.683   1.949   3.913 -0.0787  0.2558 -0.4242
  187POPC   PO4 2547   3.327   2.183   4.171  0.0832 -0.0266  0.2440
  187POPC   GL1 2548   3.792   2.298   4.293 -0.4640  0.0041 -0.5103
  187POPC   GL2 2549   3.649   2.043   4.503  0.0929  0.1468  0.1083
  187POPC   C1A 2550   3.924   2.516   4.682  0.0446 -0.0472 -0.1966
  187POPC   D2A 2551   3.843   2.802   4.993 -0.0803  0.3726 -0.1390
  187POPC   C3A 2552   3.771   2.734   5.475  0.2796 -0.0041  0.0143
  187POPC   C4A 2553   4.219   2.552   5.515  0.0338 -0.0589  0.1421
  187POPC   C1B 2554   3.662   1.932   4.943 -0.0571 -0.0201 -0.0479
  187POPC   C2B 2555   3.463   2.015   5.309  0.2401  0.2679 -0.3148
  187POPC   C3B 2556   3.601   2.115   5.632 -0.1891  0.3353 -0.3008
  187POPC   C4B 2557   3.812   2.387   5.826 -0.0373 -0.1611 -0.0724
  188POPC   NC3 2558   9.169   8.444   3.945  0.0158  0.0111 -0.1763
  188POPC   PO4 2559   9.289   8.086   4.285 -0.0332 -0.0678 -0.0249
  188POPC   GL1 2560   9.462   8.449   4.370 -0.0909  0.0366 -0.0029
  188POPC   GL2 2561   9.224   8.672   4.453  0.0407  0.1078 -0.0461
  188POPC   C1A 2562   9.642   8.812   4.638  0.1946  0.1774 -0.0012
  188POPC   D2A 2563   9.550   8.958   5.000 -0.1462 -0.3476 -0.2270
  188POPC   C3A 2564   9.308   9.226   5.032 -0.1053 -0.0801 -0.1843
  188POPC   C4A 2565   9.088   9.646   5.105 -0.1368 -0.0357 -0.0188
  188POPC   C1B 2566   9.230   8.534   4.903 -0.0812 -0.0233 -0.0010
  188POPC   C2B 2567   9.305   8.620   5.408  0.0328 -0.1124  0.1390
  188POPC   C3B 2568   9.110   8.760   5.802  0.0532  0.0351 -0.1181
  188POPC   C4B 2569   9.106   8.427   6.086 -0.0198  0.0547  0.3551
  189POPC   NC3 2570   7.637   5.922   3.773  0.1767  0.2382  0.0301
  189POPC   PO4 2571   8.058   5.827   3.913 -0.1752  0.1408 -0.3022
  189POPC   GL1 2572   8.234   5.531   4.322 -0.2613  0.1664 -0.1090
  189POPC   GL2 2573   7.947   5.415   4.421  0.0065 -0.0385  0.0873
  189POPC   C1A 2574   8.486   5.219   4.615 -0.1761 -0.0572  0.0010
  189POPC   D2A 2575   8.899   5.056   4.902  0.0149  0.1243  0.1053
  189POPC   C3A 2576   8.766   4.789   5.238  0.4993  0.2751 -0.0558
  189POPC   C4A 2577   9.096   4.520   5.401 -0.3564  0.3085 -0.1507
  189POPC   C1B 2578   8.073   5.024   4.713  0.1376 -0.2147  0.0664
  189POPC   C2B 2579   7.895   4.891   5.157 -0.0159 -0.3833 -0.2317
  189POPC   C3B 2580   7.711   5.130   5.389  0.0158  0.1535  0.0051
  189POPC   C4B 2581   7.276   5.260   5.217  0.0001 -0.3656  0.0318
  190POPC   NC3 2582   5.599   7.751   4.031 -0.0075 -0.2948  0.3989
  190POPC   PO4 2583   5.326   7.967   4.176 -0.1386  0.2151 -0.0207
  190POPC   GL1 2584   5.141   7.971   4.598 -0.0777 -0.0827 -0.0348
  190POPC   GL2 2585   4.809   7.774   4.720  0.0451 -0.0530 -0.2251
  190POPC   C1A 2586   5.162   8.221   4.927  0.2034 -0.1039 -0.1109
  190POPC   D2A 2587   4.993   8.203   5.311  0.0632 -0.0057  0.0738
  190POPC   C3A 2588   5.303   8.082   5.556  0.1246 -0.0268  0.0662
  190POPC   C4A 2589   5.672   8.005   5.733 -0.1777  0.1354 -0.0780
  190POPC   C1B 2590   4.654   7.897   5.029  0.1119 -0.1267  0.0102
  190POPC   C2B 2591   4.786   7.741   5.375  0.2371  0.2237 -0.1506
  190POPC   C3B 2592   4.860   7.904   5.724 -0.2670 -0.1457  0.0019
  190POPC   C4B 2593   4.959   8.301   5.816 -0.3446  0.3056 -0.1982
  191POPC   NC3 2594   3.775   7.590   3.757 -0.1481  0.1376  0.0146
  191POPC   PO4 2595   3.951   7.503   4.223  0.0152  0.1307 -0.1227
  191POPC   GL1 2596   3.845   7.611   4.575  0.4526  0.1179  0.1797
  191POPC   GL2 2597   4.144   7.884   4.627 -0.0136  0.0040  0.1971
  191POPC   C1A 2598   3.741   7.640   4.919  0.0844 -0.0748  0.0930
  191POPC   D2A 2599   3.542   7.799   5.224 -0.4823 -0.1631 -0.3249
  191POPC   C3A 2600   3.803   7.794   5.516 -0.0635 -0.0287  0.0116
  191POPC   C4A 2601   3.772   7.867   5.967 -0.0146  0.0552 -0.1281
  191POPC   C1B 2602   4.160   7.863   5.087  0.0172  0.0376 -0.3056
  191POPC   C2B 2603   4.332   7.862   5.527 -0.1578  0.0604  0.1096
  191POPC   C3B 2604   4.359   7.748   5.951  0.0769  0.1075  0.0259
  191POPC   C4B 2605   4.652   7.497   6.212 -0.2346 -0.2738 -0.2843
  192POPC   NC3 2606   9.758   4.163   3.740  0.1448  0.3127 -0.0166
  192POPC   PO4 2607   9.436   4.005   3.826  0.0210  0.2220  0.3885
  192POPC   GL1 2608   9.473   3.815   4.254 -0.3534 -0.1169 -0.2797
  192POPC   GL2 2609   9.191   3.624   4.305 -0.3371  0.1789  0.0579
  192POPC   C1A 2610   9.711   3.871   4.519 -0.2855  0.0581 -0.0780
  192POPC   D2A 2611  10.004   3.693   4.677  0.2089 -0.1242  0.0283
  192POPC   C3A 2612  10.300   3.822   4.853 -0.2086  0.3455 -0.4520
  192POPC   C4A 2613  10.460   3.645   5.277 -0.1121 -0.1986  0.3054
  192POPC   C1B 2614   9.061   3.315   4.550 -0.3378  0.1400  0.0891
  192POPC   C2B 2615   8.865   3.248   4.907  0.2550  0.1780 -0.3311
  192POPC   C3B 2616   8.675   2.945   5.166 -0.0048 -0.1194  0.2394
  192POPC   C4B 2617   8.890   2.735   5.522  0.1691  0.3476 -0.1293
  193POPC   NC3 2618   9.775   0.117   3.223  0.1722  0.0227  0.1399
  193POPC   PO4 2619   9.974  -0.110   3.589  0.0019  0.1546  0.0254
  193POPC   GL1 2620   9.995  -0.259   4.000  0.1143 -0.0278 -0.0270
  193POPC   GL2 2621   9.926  -0.664   4.071 -0.0310  0.1990 -0.2117
  193POPC   C1A 2622  10.033  -0.346   4.453 -0.0715  0.4450  0.0319
  193POPC   D2A 2623  10.201  -0.384   4.762  0.1825  0.1085 -0.0491
  193POPC   C3A 2624  10.403  -0.732   4.778 -0.0285  0.1173  0.1172
  193POPC   C4A 2625  10.618  -0.952   5.025  0.3522 -0.0421  0.1175
  193POPC   C1B 2626   9.952  -0.855   4.621  0.1938 -0.0980 -0.0345
  193POPC   C2B 2627   9.983  -0.786   5.080  0.2514 -0.0717  0.1205
  193POPC   C3B 2628  10.268  -1.011   5.372  0.1758 -0.1203  0.0109
  193POPC   C4B 2629  10.557  -1.269   5.491 -0.0888 -0.0533 -0.0260
  194POPC   NC3 2630   6.927  10.613   2.790 -0.1770 -0.0356  0.0829
  194POPC   PO4 2631   6.500  10.270   2.799  0.0919  0.0336  0.1175
  194POPC   GL1 2632   6.775  10.142   3.036 -0.0986 -0.1899 -0.2513
  194POPC   GL2 2633   6.827  10.366   3.367 -0.0896  0.2181 -0.1992
  194POPC   C1A 2634   6.836   9.815   3.408 -0.2040 -0.0593 -0.2171
  194POPC   D2A 2635   7.040   9.595   3.831 -0.0737 -0.1794  0.0115
  194POPC   C3A 2636   6.926   9.621   4.247 -0.1901  0.0989  0.1328
  194POPC   C4A 2637   6.800   9.660   4.606  0.0712 -0.0466  0.0830
  194POPC   C1B 2638   6.739  10.737   3.751  0.1333 -0.0321 -0.2584
  194POPC   C2B 2639   6.527  10.886   4.158  0.2472  0.1227 -0.0521
  194POPC   C3B 2640   6.289  10.799   4.592 -0.0576 -0.0386 -0.0543
  194POPC   C4B 2641   6.203  10.597   4.904  0.1130 -0.0143  0.1399
  195POPC   NC3 2642   8.538   8.281   3.218  0.0980  0.1177  0.0506
  195POPC   PO4 2643   8.574   8.149   3.650  0.0001 -0.1408 -0.0726
  195POPC   GL1 2644   8.249   8.399   3.797  0.2333  0.1314  0.2608
  195POPC   GL2 2645   8.308   8.184   4.142  0.0141  0.0399  0.1176
  195POPC   C1A 2646   7.961   8.531   4.034  0.1383 -0.0209 -0.0959
  195POPC   D2A 2647   7.804   8.653   4.427 -0.1010  0.2357  0.0373
  195POPC   C3A 2648   7.775   8.268   4.768  0.0436 -0.2272  0.3549
  195POPC   C4A 2649   7.482   8.000   4.946  0.2556 -0.0971  0.4029
  195POPC   C1B 2650   8.247   8.305   4.498  0.4330  0.3776 -0.0490
  195POPC   C2B 2651   8.136   8.612   4.860 -0.1361 -0.1628  0.0256
  195POPC   C3B 2652   8.375   8.957   5.067  0.2263 -0.0035  0.0182
  195POPC   C4B 2653   8.616   8.962   5.431 -0.1674 -0.2621  0.1724
  196POPC   NC3 2654  10.407   8.766   4.067 -0.1500  0.1132 -0.5623
  196POPC   PO4 2655  10.219   9.166   4.102  0.1158 -0.1829 -0.1679
  196POPC   GL1 2656  10.257   9.058   4.579 -0.0074  0.0721 -0.1187
  196POPC   GL2 2657  10.330   9.392   4.727  0.0756  0.1670  0.0997
  196POPC   C1A 2658  10.568   8.969   4.959 -0.1602  0.2963  0.3957
  196POPC   D2A 2659  10.532   8.875   5.468  0.1186 -0.2356 -0.0413
  196POPC   C3A 2660  10.736   8.476   5.632  0.0121  0.0667  0.1401
  196POPC   C4A 2661  10.976   8.246   5.890  0.0400 -0.0956  0.2534
  196POPC   C1B 2662  10.164   9.218   5.219 -0.0129 -0.1936 -0.1446
  196POPC   C2B 2663  10.062   9.330   5.704  0.0974 -0.0785  0.1661
  196POPC   C3B 2664  10.384   9.254   5.896 -0.1469  0.1075  0.1615
  196POPC   C4B 2665  10.557   9.514   6.139  0.1711  0.2255 -0.3043
  197POPC   NC3 2666   1.102   6.526   3.670  0.0703  0.0268  0.3192
  197POPC   PO4 2667   0.743   6.339   3.976  0.4713  0.0621 -0.1788
  197POPC   GL1 2668   0.768   6.020   4.409  0.3067 -0.1217  0.1524
  197POPC   GL2 2669   0.507   5.835   4.519 -0.0788  0.0372 -0.4267
  197POPC   C1A 2670   0.813   6.218   4.762 -0.2302  0.4306  0.2353
  197POPC   D2A 2671   0.649   6.569   4.981 -0.2984  0.0779 -0.1622
  197POPC   C3A 2672   0.397   6.530   5.347  0.3218 -0.0113  0.2601
  197POPC   C4A 2673   0.170   6.559   5.644 -0.0975  0.1721 -0.0754
  197POPC   C1B 2674   0.429   5.702   4.874  0.1677  0.1019  0.0726
  197POPC   C2B 2675   0.073   5.553   5.158 -0.1076  0.2588 -0.1556
  197POPC   C3B 2676  -0.131   5.512   5.549 -0.2799  0.1821  0.0994
  197POPC   C4B 2677  -0.021   5.510   5.984 -0.0353 -0.0768 -0.2565
  198POPC   NC3 2678  10.164   1.916   3.736 -0.3039  0.1388  0.1801
  198POPC   PO4 2679  10.367   2.171   4.082  0.2764  0.2431 -0.0060
  198POPC   GL1 2680  10.276   1.928   4.471 -0.1073 -0.0237  0.0355
  198POPC   GL2 2681  10.270   1.592   4.393 -0.1563 -0.1135  0.0492
  198POPC   C1A 2682  10.040   1.782   4.833  0.0290 -0.0570 -0.0377
  198POPC   D2A 2683   9.730   1.889   5.200 -0.2294 -0.0173  0.1838
  198POPC   C3A 2684   9.780   2.054   5.491  0.0637  0.0178 -0.1610
  198POPC   C4A 2685   9.667   2.069   5.926 -0.0457  0.0580  0.0302
  198POPC   C1B 2686  10.115   1.223   4.573 -0.1383  0.1045 -0.5376
  198POPC   C2B 2687  10.388   0.924   4.874  0.0307 -0.0523  0.1283
  198POPC   C3B 2688  10.567   0.648   5.178 -0.0369  0.1124 -0.0235
  198POPC   C4B 2689  10.972   0.403   5.157 -0.0091 -0.2517  0.0123
  199POPC   NC3 2690   9.452   5.398   3.290  0.0654 -0.3319 -0.0156
  199POPC   PO4 2691   9.500   5.088   3.639 -0.0937  0.0670  0.1088
  199POPC   GL1 2692   9.609   5.170   4.170  0.2186 -0.0288 -0.1919
  199POPC   GL2 2693   9.691   5.467   4.257 -0.1925  0.0201  0.0661
  199POPC   C1A 2694   9.654   5.130   4.640 -0.0969  0.1564 -0.2824
  199POPC   D2A 2695   9.844   5.055   5.046 -0.0513  0.1133 -0.2994
  199POPC   C3A 2696   9.745   5.065   5.444  0.0038 -0.1818 -0.0421
  199POPC   C4A 2697   9.865   4.845   5.665  0.1062 -0.1227 -0.0778
  199POPC   C1B 2698   9.370   5.544   4.555 -0.1871  0.2808 -0.1349
  199POPC   C2B 2699   9.024   5.524   4.783 -0.3995 -0.1009  0.0163
  199POPC   C3B 2700   8.758   5.565   5.133  0.1420 -0.1606 -0.1198
  199POPC   C4B 2701   8.701   5.378   5.561  0.1638 -0.2014 -0.3150
  200POPC   NC3 2702   1.483   5.134   3.822 -0.1768 -0.0424 -0.2301
  200POPC   PO4 2703   1.336   5.114   4.265  0.0487  0.1146  0.1062
  200POPC   GL1 2704   1.140   4.905   4.563  0.3924 -0.0389 -0.1591
  200POPC   GL2 2705   1.311   5.169   4.826 -0.2336 -0.1550  0.1822
  200POPC   C1A 2706   1.177   4.547   4.824  0.4083 -0.2186  0.2325
  200POPC   D2A 2707   0.992   4.508   5.151 -0.2758 -0.1381  0.0440
  200POPC   C3A 2708   0.762   4.232   5.227  0.2022  0.0632  0.1995
  200POPC   C4A 2709   0.420   4.310   5.598 -0.0341  0.0275 -0.1907
  200POPC   C1B 2710   0.973   4.995   5.163  0.2106 -0.0022  0.2649
  200POPC   C2B 2711   0.749   4.952   5.556 -0.0980 -0.0605  0.1228
  200POPC   C3B 2712   0.586   5.278   5.912 -0.0240  0.4338 -0.2762
  200POPC   C4B 2713   0.789   5.549   6.217 -0.2449  0.0517  0.4356
  201POPC   NC3 2714   9.214   8.870   3.230  0.2651  0.1041 -0.0986
  201POPC   PO4 2715   9.335   8.813   3.622  0.0515 -0.0268  0.0455
  201POPC   GL1 2716   9.230   8.943   4.040  0.1935  0.1208 -0.0085
  201POPC   GL2 2717   9.538   8.958   4.161 -0.1277 -0.0799 -0.0701
  201POPC   C1A 2718   8.849   9.099   4.307  0.0512  0.0740  0.0525
  201POPC   D2A 2719   8.498   9.183   4.595 -0.4608 -0.0064 -0.1354
  201POPC   C3A 2720   8.654   9.363   4.990  0.2331 -0.3158  0.0808
  201POPC   C4A 2721   8.537   9.701   5.315 -0.1086 -0.0115  0.0080
  201POPC   C1B 2722   9.354   9.174   4.518 -0.0324  0.5938 -0.0816
  201POPC   C2B 2723   8.968   9.057   4.772  0.1740  0.1991  0.0224
  201POPC   C3B 2724   8.953   8.911   5.106 -0.2376  0.1361 -0.0995
  201POPC   C4B 2725   8.788   8.505   5.217  0.0670 -0.1881  0.3534
  202POPC   NC3 2726   1.998   5.564   4.461 -0.2679 -0.2481 -0.2747
  202POPC   PO4 2727   2.372   5.856   4.427 -0.0777  0.0244 -0.2036
  202POPC   GL1 2728   2.216   5.878   4.854  0.2653 -0.2642  0.0428
  202POPC   GL2 2729   2.134   5.569   4.965 -0.2207  0.1368 -0.0200
  202POPC   C1A 2730   2.247   5.998   5.343 -0.0185  0.0858 -0.1023
  202POPC   D2A 2731   2.189   5.933   5.766 -0.0318 -0.1299  0.1063
  202POPC   C3A 2732   1.809   6.231   5.846 -0.2802 -0.2576  0.0677
  202POPC   C4A 2733   1.433   6.203   6.073 -0.1085  0.0351 -0.1877
  202POPC   C1B 2734   1.819   5.386   5.256 -0.0077 -0.0431 -0.0445
  202POPC   C2B 2735   1.610   5.125   5.602 -0.0937 -0.1434  0.0361
  202POPC   C3B 2736   1.412   5.004   5.992  0.0054 -0.0244  0.1741
  202POPC   C4B 2737   1.562   4.705   6.121  0.1093 -0.1242 -0.2454
  203POPC   NC3 2738   2.704   2.356   3.906  0.0912 -0.0589  0.0321
  203POPC   PO4 2739   2.714   2.892   4.028 -0.3165 -0.2753 -0.2060
  203POPC   GL1 2740   2.873   2.583   4.385  0.1243  0.0867  0.1214
  203POPC   GL2 2741   2.850   2.229   4.381  0.2294  0.1650 -0.0336
  203POPC   C1A 2742   3.019   2.386   4.813  0.0390  0.1412 -0.1894
  203POPC   D2A 2743   2.994   2.018   5.132 -0.2145 -0.1001 -0.3399
  203POPC   C3A 2744   3.046   1.754   5.518 -0.1673  0.1527 -0.1944
  203POPC   C4A 2745   3.312   1.791   5.872  0.0641  0.4084 -0.3005
  203POPC   C1B 2746   2.595   2.156   4.644 -0.1762 -0.3084 -0.1093
  203POPC   C2B 2747   2.526   2.197   5.064 -0.3381  0.0279  0.1752
  203POPC   C3B 2748   2.386   2.005   5.382  0.1254 -0.0373 -0.3092
  203POPC   C4B 2749   2.062   2.007   5.683 -0.0347 -0.0275 -0.0143
  204POPC   NC3 2750   9.994   2.406   3.856 -0.0197 -0.0338  0.0284
  204POPC   PO4 2751   9.709   2.461   4.305 -0.2871 -0.0945  0.2626
  204POPC   GL1 2752   9.505   2.505   4.565 -0.1683  0.0805 -0.3589
  204POPC   GL2 2753   9.390   2.857   4.615  0.1612 -0.3070  0.0121
  204POPC   C1A 2754   9.171   2.249   4.824 -0.0856 -0.1687 -0.1631
  204POPC   D2A 2755   8.941   1.851   5.035  0.2591 -0.2719  0.3425
  204POPC   C3A 2756   8.627   1.880   5.344  0.0191  0.2077 -0.2828
  204POPC   C4A 2757   8.244   1.894   5.538  0.0430  0.0162  0.3598
  204POPC   C1B 2758   9.514   3.073   5.066  0.1479 -0.3375 -0.1354
  204POPC   C2B 2759   9.603   3.201   5.507  0.4648  0.0487  0.0798
  204POPC   C3B 2760   9.739   3.081   5.981 -0.0601  0.0488  0.0423
  204POPC   C4B 2761   9.853   2.827   6.336 -0.0596 -0.0850  0.1641
  205POPC   NC3 2762   0.859   0.445   3.647 -0.0829 -0.0343 -0.1128
  205POPC   PO4 2763   1.060   0.860   3.673 -0.0706 -0.0810 -0.0148
  205POPC   GL1 2764   0.765   1.039   3.954  0.3503  0.3771  0.3214
  205POPC   GL2 2765   0.882   1.286   4.070 -0.2790 -0.1055 -0.0804
  205POPC   C1A 2766   0.448   0.790   4.267  0.1321  0.3988  0.0577
  205POPC   D2A 2767   0.371   0.433   4.155  0.4266 -0.0738 -0.2159
  205POPC   C3A 2768   0.308   0.146   4.321  0.0565 -0.1392  0.0381
  205POPC   C4A 2769  -0.026  -0.273   4.500 -0.0086 -0.3387 -0.0963
  205POPC   C1B 2770   0.698   1.399   4.445  0.2712  0.0665 -0.1649
  205POPC   C2B 2771   0.403   1.441   4.771 -0.1130  0.1199  0.1896
  205POPC   C3B 2772   0.064   1.345   5.040  0.4569 -0.1134  0.2895
  205POPC   C4B 2773  -0.341   1.420   5.038  0.3778 -0.1552  0.1502
  206POPC   NC3 2774   3.687   8.409   4.156 -0.1769  0.0286  0.1902
  206POPC   PO4 2775   3.224   8.190   4.111  0.1355 -0.0989 -0.4609
  206POPC   GL1 2776   3.209   8.342   4.527 -0.2045  0.1419  0.1034
  206POPC   GL2 2777   3.164   8.809   4.459 -0.4326  0.1635  0.2194
  206POPC   C1A 2778   3.427   8.541   4.834 -0.2044 -0.0253 -0.0113
  206POPC   D2A 2779   3.385   8.434   5.181 -0.3364 -0.2278 -0.0530
  206POPC   C3A 2780   3.136   8.518   5.629 -0.2185  0.0657 -0.5854
  206POPC   C4A 2781   3.261   8.521   6.206 -0.0574  0.0829 -0.3808
  206POPC   C1B 2782   3.053   8.893   4.952  0.2749  0.1421 -0.0573
  206POPC   C2B 2783   3.062   8.954   5.406  0.1835  0.0212  0.0367
  206POPC   C3B 2784   2.897   9.050   5.734 -0.2473 -0.2597 -0.1564
  206POPC   C4B 2785   2.454   9.038   5.911  0.1771  0.0150  0.1204
  207POPC   NC3 2786   6.558   3.631   3.766  0.1469  0.2956  0.0052
  207POPC   PO4 2787   6.527   3.174   3.840  0.1491  0.1433  0.0131
  207POPC   GL1 2788   6.462   3.256   4.245  0.3723 -0.4119 -0.0943
  207POPC   GL2 2789   6.505   3.639   4.308  0.1948 -0.3156  0.0965
  207POPC   C1A 2790   6.080   3.349   4.517  0.3093 -0.0248  0.0560
  207POPC   D2A 2791   5.985   3.325   4.964 -0.3218  0.2832  0.1378
  207POPC   C3A 2792   6.353   3.190   5.266 -0.1110 -0.2447 -0.1960
  207POPC   C4A 2793   6.353   2.987   5.734 -0.3650  0.4479  0.3674
  207POPC   C1B 2794   6.500   3.463   4.742 -0.0838  0.1191 -0.1349
  207POPC   C2B 2795   6.431   3.657   5.116  0.1212 -0.2068  0.3003
  207POPC   C3B 2796   6.125   3.626   5.512 -0.1183  0.0176 -0.0138
  207POPC   C4B 2797   5.862   3.328   5.749  0.1128  0.0049  0.1220
  208POPC   NC3 2798   4.549   7.107   4.415  0.0712  0.2016 -0.0924
  208POPC   PO4 2799   4.873   7.432   4.367 -0.0763 -0.1583  0.1129
  208POPC   GL1 2800   4.820   7.239   4.824  0.2795  0.2621 -0.0323
  208POPC   GL2 2801   4.634   6.972   4.906 -0.0700  0.1885 -0.1233
  208POPC   C1A 2802   4.969   7.210   5.279  0.1484  0.2032  0.0140
  208POPC   D2A 2803   5.285   7.098   5.606 -0.0004  0.0239  0.0043
  208POPC   C3A 2804   5.423   7.458   5.824 -0.0048 -0.1619 -0.0004
  208POPC   C4A 2805   5.656   7.598   6.224  0.1488  0.2916 -0.0883
  208POPC   C1B 2806   4.351   6.885   5.148 -0.2034 -0.1267  0.0773
  208POPC   C2B 2807   4.076   6.587   5.264 -0.0111  0.1654 -0.1451
  208POPC   C3B 2808   3.694   6.589   5.551  0.0250  0.0678 -0.0863
  208POPC   C4B 2809   3.598   6.666   5.988 -0.0254  0.3471 -0.0868
  209POPC   NC3 2810   6.346   2.716   3.709 -0.3686  0.1342  0.0360
  209POPC   PO4 2811   6.284   2.497   4.015 -0.1644  0.1233  0.4008
  209POPC   GL1 2812   6.346   2.577   4.383 -0.2485  0.0440 -0.4263
  209POPC   GL2 2813   6.274   2.873   4.426  0.0898 -0.1394  0.0931
  209POPC   C1A 2814   6.313   2.428   4.753 -0.3573 -0.1983  0.1299
  209POPC   D2A 2815   6.135   2.092   4.940  0.0403 -0.0590 -0.1108
  209POPC   C3A 2816   6.286   1.838   5.135  0.1129  0.2163  0.2310
  209POPC   C4A 2817   6.558   1.835   5.398  0.0484 -0.0142 -0.2102
  209POPC   C1B 2818   6.405   2.983   4.857 -0.1738 -0.0202 -0.1422
  209POPC   C2B 2819   6.762   2.997   5.112  0.0837  0.1547 -0.0410
  209POPC   C3B 2820   6.835   3.380   5.391  0.0073 -0.1585 -0.1109
  209POPC   C4B 2821   6.562   3.429   5.726  0.2842  0.2313 -0.1121
  210POPC   NC3 2822   1.123   7.098   4.377 -0.1973 -0.0373  0.1914
  210POPC   PO4 2823   1.155   7.530   4.380  0.1262 -0.0343  0.0505
  210POPC   GL1 2824   1.207   7.540   4.749 -0.2724 -0.1595 -0.0918
  210POPC   GL2 2825   1.434   7.301   4.926 -0.0214 -0.0138 -0.3533
  210POPC   C1A 2826   1.194   7.694   5.183  0.0465  0.0362 -0.1602
  210POPC   D2A 2827   1.464   7.283   5.454  0.0296 -0.3756 -0.1750
  210POPC   C3A 2828   1.420   7.325   5.942 -0.0900 -0.0239 -0.1468
  210POPC   C4A 2829   1.565   7.699   6.205 -0.2407  0.0673  0.3697
  210POPC   C1B 2830   1.125   7.028   5.159 -0.1209 -0.4579 -0.0205
  210POPC   C2B 2831   0.666   6.981   5.225  0.1214 -0.4465  0.1433
  210POPC   C3B 2832   0.448   7.116   5.574 -0.0852 -0.3176 -0.0737
  210POPC   C4B 2833   0.229   7.268   5.915 -0.0682 -0.1249  0.0953
  211POPC   NC3 2834  10.084   9.526   3.834 -0.2959  0.0495 -0.0990
  211POPC   PO4 2835   9.746   9.219   3.784 -0.3434  0.0616  0.3223
  211POPC   GL1 2836   9.692   9.503   4.154 -0.0086 -0.3356 -0.0902
  211POPC   GL2 2837   9.837   9.309   4.414  0.0101 -0.2623  0.2477
  211POPC   C1A 2838   9.469   9.672   4.368 -0.0423  0.1517  0.0253
  211POPC   D2A 2839   9.458   9.674   4.833 -0.1492  0.0786  0.1421
  211POPC   C3A 2840   9.470   9.983   5.192  0.0510  0.1060  0.1797
  211POPC   C4A 2841   9.299  10.202   5.549 -0.0351  0.1632  0.0840
  211POPC   C1B 2842   9.843   9.296   4.834 -0.0206  0.1861  0.0006
  211POPC   C2B 2843   9.716   9.467   5.222  0.1124  0.3323  0.0072
  211POPC   C3B 2844   9.502   9.579   5.495 -0.2151  0.2047  0.1145
  211POPC   C4B 2845   9.332   9.532   5.969  0.4645 -0.1189 -0.2047
  212POPC   NC3 2846   5.313   4.489   4.007 -0.2428 -0.0261 -0.1718
  212POPC   PO4 2847   5.016   4.263   3.955  0.1283 -0.0133 -0.0092
  212POPC   GL1 2848   5.300   3.949   4.170 -0.0787 -0.2433  0.0683
  212POPC   GL2 2849   5.629   3.993   4.144  0.0584 -0.3968  0.2178
  212POPC   C1A 2850   5.293   3.869   4.619  0.1606 -0.1374  0.1216
  212POPC   D2A 2851   5.215   3.851   5.131  0.1495 -0.1273  0.1703
  212POPC   C3A 2852   5.039   3.543   5.297 -0.0143  0.1043  0.0624
  212POPC   C4A 2853   4.987   3.150   5.185  0.1541 -0.0001 -0.3231
  212POPC   C1B 2854   5.842   3.911   4.566  0.1971  0.1273  0.0421
  212POPC   C2B 2855   5.906   3.789   5.077  0.1257  0.2861 -0.1541
  212POPC   C3B 2856   5.627   3.671   5.430 -0.1556  0.0701  0.0935
  212POPC   C4B 2857   5.364   3.396   5.676  0.0869 -0.0278 -0.0440
  213POPC   NC3 2858   8.581   4.284   3.694  0.2761  0.1067  0.2044
  213POPC   PO4 2859   8.120   4.180   3.780  0.0915  0.0414 -0.3023
  213POPC   GL1 2860   8.260   3.882   4.064 -0.1769  0.0436 -0.0028
  213POPC   GL2 2861   7.967   3.810   4.331  0.1254 -0.0185  0.0342
  213POPC   C1A 2862   8.353   3.904   4.525  0.3162 -0.1517  0.2175
  213POPC   D2A 2863   8.575   4.235   4.603  0.1710 -0.2172 -0.0045
  213POPC   C3A 2864   8.898   4.176   4.504  0.2896 -0.2511 -0.0135
  213POPC   C4A 2865   9.222   3.916   4.677  0.1870  0.3692  0.2509
  213POPC   C1B 2866   7.689   4.071   4.564  0.2545 -0.0703  0.1542
  213POPC   C2B 2867   7.336   3.924   4.784  0.2756  0.1015 -0.0917
  213POPC   C3B 2868   7.400   3.997   5.206 -0.0799  0.3105  0.2162
  213POPC   C4B 2869   7.456   3.944   5.684  0.0164 -0.1116 -0.2725
  214POPC   NC3 2870   3.413   7.395   4.298  0.1277  0.1459 -0.2337
  214POPC   PO4 2871   3.147   6.970   4.239 -0.4764  0.3323 -0.1242
  214POPC   GL1 2872   3.078   6.925   4.693 -0.2593 -0.0979  0.1598
  214POPC   GL2 2873   3.269   6.700   4.810  0.0115 -0.1012  0.0454
  214POPC   C1A 2874   2.973   7.024   5.096  0.2972  0.1967  0.2039
  214POPC   D2A 2875   2.817   7.204   5.502  0.3147 -0.2637 -0.2957
  214POPC   C3A 2876   2.932   7.691   5.386 -0.2108  0.1163 -0.2944
  214POPC   C4A 2877   3.111   8.072   5.330 -0.1149  0.0931 -0.2156
  214POPC   C1B 2878   2.900   6.500   4.879 -0.0998  0.2080 -0.0770
  214POPC   C2B 2879   2.710   6.116   4.913 -0.0203 -0.2512 -0.3166
  214POPC   C3B 2880   2.600   5.734   5.109 -0.0378  0.2167  0.0926
  214POPC   C4B 2881   2.504   5.573   5.494 -0.1975  0.1681  0.1202
  215POPC   NC3 2882  10.427   6.623   3.905  0.0644 -0.1541  0.1308
  215POPC   PO4 2883  10.075   6.756   4.202  0.0065  0.3093 -0.1385
  215POPC   GL1 2884   9.814   7.012   4.567  0.2774  0.4682 -0.0733
  215POPC   GL2 2885   9.475   7.140   4.627  0.0907  0.0223  0.1199
  215POPC   C1A 2886   9.723   6.809   5.002  0.2358  0.0217  0.0395
  215POPC   D2A 2887   9.489   6.824   5.436 -0.1636  0.4141  0.2328
  215POPC   C3A 2888   9.098   6.656   5.478 -0.0301  0.1842 -0.0159
  215POPC   C4A 2889   8.868   6.238   5.409 -0.1821  0.1747  0.0538
  215POPC   C1B 2890   9.212   6.936   4.994 -0.1375 -0.3679  0.0486
  215POPC   C2B 2891   8.839   7.043   5.224 -0.1204  0.0433 -0.0590
  215POPC   C3B 2892   8.600   7.198   5.638  0.0404  0.1467  0.0080
  215POPC   C4B 2893   8.416   7.052   6.098 -0.0830 -0.0646  0.2381
  216POPC   NC3 2894   4.472   9.588   4.013 -0.0167 -0.0112 -0.0048
  216POPC   PO4 2895   4.636   9.459   3.599  0.1765  0.2132 -0.2493
  216POPC   GL1 2896   4.921   9.389   4.118 -0.0359  0.0501 -0.1429
  216POPC   GL2 2897   4.590   9.313   4.395 -0.1948  0.1362 -0.1003
  216POPC   C1A 2898   5.128   9.600   4.329  0.1873 -0.1988 -0.1701
  216POPC   D2A 2899   5.337   9.598   4.631 -0.0446  0.1390  0.2646
  216POPC   C3A 2900   5.500   9.806   4.875 -0.1191 -0.3389 -0.1936
  216POPC   C4A 2901   5.952   9.879   4.854  0.2957  0.2238  0.0211
  216POPC   C1B 2902   4.660   9.520   4.758  0.1280 -0.0002  0.0560
  216POPC   C2B 2903   5.049   9.475   5.107 -0.1519 -0.1021  0.2166
  216POPC   C3B 2904   5.159   9.761   5.283  0.1893  0.1046 -0.2941
  216POPC   C4B 2905   4.971  10.084   5.522  0.1726  0.1475 -0.2529
  217POPC   NC3 2906  10.053   7.610   4.193  0.1288 -0.0614 -0.1379
  217POPC   PO4 2907   9.942   7.197   4.107 -0.1959  0.0770  0.4347
  217POPC   GL1 2908  10.248   7.263   4.506  0.0511  0.1572  0.0088
  217POPC   GL2 2909  10.113   7.519   4.697 -0.6393  0.4911 -0.1830
  217POPC   C1A 2910  10.209   7.033   4.959 -0.1851  0.1595 -0.0504
  217POPC   D2A 2911  10.000   7.012   5.402 -0.1254 -0.0797 -0.0977
  217POPC   C3A 2912   9.737   7.196   5.778  0.0440 -0.0309 -0.0490
  217POPC   C4A 2913   9.834   7.483   6.037  0.1071  0.3473  0.1163
  217POPC   C1B 2914   9.749   7.396   4.942 -0.0726 -0.0124 -0.1014
  217POPC   C2B 2915   9.577   7.263   5.350 -0.1595 -0.4245  0.2329
  217POPC   C3B 2916   9.160   7.222   5.624 -0.0311  0.1116 -0.0205
  217POPC   C4B 2917   8.914   7.402   5.980  0.4309  0.1396  0.0903
  218POPC   NC3 2918   7.875   4.659   3.719 -0.1306 -0.0972  0.2056
  218POPC   PO4 2919   7.592   4.984   3.718  0.0538 -0.0906 -0.1126
  218POPC   GL1 2920   7.569   4.856   4.109 -0.0820 -0.0769  0.0755
  218POPC   GL2 2921   7.607   5.144   4.454  0.2074 -0.1169  0.3279
  218POPC   C1A 2922   7.772   4.640   4.520  0.2599 -0.0530  0.0463
  218POPC   D2A 2923   8.038   4.463   4.845 -0.1578 -0.2871  0.2028
  218POPC   C3A 2924   7.848   4.071   5.030  0.5747  0.0843  0.1236
  218POPC   C4A 2925   7.894   3.710   5.386  0.1139  0.2343 -0.2510
  218POPC   C1B 2926   7.453   4.955   4.870  0.2696  0.0334 -0.0711
  218POPC   C2B 2927   7.250   4.741   5.298 -0.3193  0.2974 -0.4432
  218POPC   C3B 2928   7.226   5.127   5.668  0.0698  0.1723 -0.1299
  218POPC   C4B 2929   7.332   5.133   6.122 -0.4218 -0.0546  0.0246
  219POPC   NC3 2930   7.365   3.729   3.662 -0.0176  0.2109 -0.0611
  219POPC   PO4 2931   7.407   3.657   4.153 -0.0948  0.1844 -0.2259
  219POPC   GL1 2932   7.676   3.358   4.410 -0.1067 -0.1030  0.3147
  219POPC   GL2 2933   7.455   3.159   4.535 -0.0472 -0.0713  0.1903
  219POPC   C1A 2934   8.028   3.564   4.730  0.0143  0.1421 -0.0923
  219POPC   D2A 2935   8.266   3.761   5.084 -0.1107 -0.1897 -0.3159
  219POPC   C3A 2936   8.335   4.113   5.034 -0.1696 -0.0248 -0.1103
  219POPC   C4A 2937   8.297   4.579   5.266 -0.2805  0.1184 -0.0299
  219POPC   C1B 2938   7.629   3.122   4.997  0.2501  0.2038 -0.0471
  219POPC   C2B 2939   7.808   2.901   5.361  0.1863  0.4265  0.0931
  219POPC   C3B 2940   7.530   2.687   5.666 -0.0579 -0.0327 -0.0934
  219POPC   C4B 2941   7.469   2.387   5.911 -0.1355  0.2106 -0.0481
  220POPC   NC3 2942   9.339   6.145   3.909  0.1783  0.0327 -0.0174
  220POPC   PO4 2943   9.030   5.855   3.897  0.1531  0.3644  0.2241
  220POPC   GL1 2944   9.099   5.919   4.333 -0.0657  0.0305 -0.2916
  220POPC   GL2 2945   9.371   6.026   4.406 -0.0506  0.1313  0.0562
  220POPC   C1A 2946   8.870   6.068   4.682 -0.4469 -0.0518  0.2516
  220POPC   D2A 2947   8.618   6.124   5.072  0.1234  0.1632  0.2422
  220POPC   C3A 2948   8.502   5.856   5.499  0.1069  0.0840 -0.0945
  220POPC   C4A 2949   8.332   5.655   5.860 -0.3037 -0.1461 -0.5069
  220POPC   C1B 2950   9.402   5.987   4.870  0.3977  0.2664  0.0796
  220POPC   C2B 2951   9.112   5.986   5.136  0.2500  0.0875  0.0183
  220POPC   C3B 2952   9.048   5.778   5.529  0.2898  0.2069  0.0171
  220POPC   C4B 2953   9.131   5.498   5.764 -0.2635 -0.1634  0.0653
  221POPC   NC3 2954   2.565   4.848   3.980 -0.0508 -0.1733 -0.1119
  221POPC   PO4 2955   2.311   4.725   4.392  0.0733  0.4563  0.2699
  221POPC   GL1 2956   2.147   4.444   4.677 -0.3763 -0.0066  0.0142
  221POPC   GL2 2957   2.371   4.196   4.597  0.0755  0.0675 -0.0239
  221POPC   C1A 2958   1.904   4.508   5.013 -0.3421 -0.0478  0.1033
  221POPC   D2A 2959   1.934   4.791   5.359  0.0161 -0.1098 -0.0113
  221POPC   C3A 2960   1.872   4.543   5.753 -0.1664 -0.0083  0.3451
  221POPC   C4A 2961   1.845   4.282   6.078 -0.0727  0.0033 -0.0101
  221POPC   C1B 2962   2.275   4.028   5.052 -0.1862  0.2968 -0.1865
  221POPC   C2B 2963   2.047   3.693   5.204  0.1276  0.0862  0.1621
  221POPC   C3B 2964   1.947   3.314   5.263 -0.2270  0.1414 -0.0171
  221POPC   C4B 2965   1.966   2.928   5.494  0.0068  0.1804  0.2243
  222POPC   NC3 2966   2.703   8.192   4.279 -0.0712  0.1370  0.1456
  222POPC   PO4 2967   2.560   7.806   4.341  0.2077 -0.0098 -0.2876
  222POPC   GL1 2968   2.662   7.971   4.763  0.2276 -0.0875  0.1469
  222POPC   GL2 2969   2.980   7.877   4.831 -0.1391 -0.0350  0.0397
  222POPC   C1A 2970   2.614   7.981   5.215  0.2849  0.0316  0.2150
  222POPC   D2A 2971   2.450   8.296   5.561 -0.0002  0.2638 -0.1001
  222POPC   C3A 2972   2.392   7.980   5.838  0.0867 -0.0853 -0.0277
  222POPC   C4A 2973   2.452   7.588   5.768  0.0040  0.1089  0.0125
  222POPC   C1B 2974   3.475   7.974   4.703  0.1977  0.0433 -0.1288
  222POPC   C2B 2975   3.783   8.187   4.920 -0.2284 -0.3617  0.2603
  222POPC   C3B 2976   3.915   8.396   5.241  0.3388  0.0323 -0.0166
  222POPC   C4B 2977   4.059   8.276   5.638  0.0852 -0.0792 -0.1933
  223POPC   NC3 2978   7.358   8.832   3.156 -0.1342 -0.0115 -0.0058
  223POPC   PO4 2979   7.204   8.421   3.365  0.3778 -0.1156 -0.0439
  223POPC   GL1 2980   7.183   8.320   3.846 -0.1285  0.1097 -0.0086
  223POPC   GL2 2981   7.000   8.002   4.028  0.3914 -0.0660  0.0482
  223POPC   C1A 2982   7.184   8.645   4.155 -0.0112 -0.0441  0.0066
  223POPC   D2A 2983   6.968   8.635   4.551  0.0811 -0.0559  0.0464
  223POPC   C3A 2984   6.575   8.730   4.805 -0.2805 -0.0051 -0.2542
  223POPC   C4A 2985   6.361   8.927   5.191  0.0849 -0.1199  0.0102
  223POPC   C1B 2986   6.901   8.060   4.382 -0.0971  0.1159  0.0017
  223POPC   C2B 2987   6.980   8.089   4.790  0.2175  0.2110 -0.4733
  223POPC   C3B 2988   6.976   8.029   5.182  0.0983  0.0597  0.2565
  223POPC   C4B 2989   6.937   8.061   5.650 -0.3361  0.0968  0.3298
  224POPC   NC3 2990   1.667   6.041   4.208  0.1145  0.0916  0.0663
  224POPC   PO4 2991   2.017   6.275   4.493  0.1059  0.1304 -0.3072
  224POPC   GL1 2992   1.863   6.404   4.897  0.1813  0.3009 -0.1866
  224POPC   GL2 2993   2.037   6.414   5.154 -0.1675  0.0581  0.1424
  224POPC   C1A 2994   1.586   6.336   5.319  0.0965  0.0698 -0.2437
  224POPC   D2A 2995   1.444   6.491   5.672  0.0652 -0.3469  0.2061
  224POPC   C3A 2996   1.235   6.872   5.713  0.0803 -0.1344  0.1241
  224POPC   C4A 2997   0.966   7.278   5.621 -0.1918  0.2766 -0.0203
  224POPC   C1B 2998   1.814   5.940   5.178 -0.1771  0.0447  0.2746
  224POPC   C2B 2999   1.522   5.662   5.072  0.0450  0.0803  0.0419
  224POPC   C3B 3000   1.178   5.404   5.316  0.0228 -0.2991  0.2714
  224POPC   C4B 3001   1.148   5.283   5.727 -0.1822  0.2116 -0.0079
  225POPC   NC3 3002   2.456   3.808   3.800 -0.2176  0.4771 -0.3711
  225POPC   PO4 3003   2.663   3.940   4.263  0.2092 -0.0747 -0.0676
  225POPC   GL1 3004   2.862   3.995   4.702  0.1974  0.2660 -0.4129
  225POPC   GL2 3005   2.607   3.761   4.876  0.1396 -0.0491  0.1161
  225POPC   C1A 3006   2.773   4.204   5.121  0.1844 -0.0457  0.0149
  225POPC   D2A 3007   2.609   4.353   5.535  0.0647  0.0568 -0.0861
  225POPC   C3A 3008   2.837   4.638   5.841 -0.1206 -0.2405 -0.1778
  225POPC   C4A 3009   2.770   4.706   6.148  0.0214 -0.3169  0.0376
  225POPC   C1B 3010   2.470   3.506   5.228 -0.0321  0.2835  0.2629
  225POPC   C2B 3011   2.549   3.292   5.553 -0.1236  0.2247 -0.1126
  225POPC   C3B 3012   2.443   2.992   5.801  0.1185 -0.2826 -0.3575
  225POPC   C4B 3013   1.989   2.994   6.025 -0.0317  0.0489  0.1249
  226POPC   NC3 3014   2.718   4.950   4.514  0.0703  0.1868  0.1762
  226POPC   PO4 3015   3.023   5.204   4.545 -0.0955 -0.0129 -0.3578
  226POPC   GL1 3016   3.005   5.436   4.923 -0.4648  0.1748 -0.0709
  226POPC   GL2 3017   2.761   5.270   5.042  0.2560 -0.2034  0.3425
  226POPC   C1A 3018   2.999   5.442   5.443 -0.0230  0.0243  0.1280
  226POPC   D2A 3019   3.046   5.603   5.805 -0.1956 -0.3359 -0.0173
  226POPC   C3A 3020   2.918   5.676   6.184  0.0379 -0.2852 -0.0065
  226POPC   C4A 3021   2.512   5.731   6.119 -0.1386 -0.0050 -0.2756
  226POPC   C1B 3022   2.722   4.967   5.442 -0.1384 -0.0277  0.2457
  226POPC   C2B 3023   2.374   4.796   5.722  0.1997  0.0266 -0.0687
  226POPC   C3B 3024   2.355   4.386   5.970 -0.1796 -0.1547 -0.4442
  226POPC   C4B 3025   2.732   4.176   6.084 -0.1824  0.1653 -0.0446
  227POPC   NC3 3026   3.683   9.612   3.650 -0.2336  0.0232 -0.0384
  227POPC   PO4 3027   3.530   9.437   4.015  0.2323  0.0079 -0.3341
  227POPC   GL1 3028   3.515   9.430   4.321 -0.2764 -0.1858 -0.2318
  227POPC   GL2 3029   3.772   9.533   4.506 -0.4698 -0.2387 -0.1665
  227POPC   C1A 3030   3.346   9.366   4.729 -0.0408 -0.1165  0.4488
  227POPC   D2A 3031   3.170   9.422   5.180 -0.1292  0.1108 -0.2081
  227POPC   C3A 3032   3.360   9.354   5.570  0.1353 -0.0451  0.0447
  227POPC   C4A 3033   3.097   9.504   5.906 -0.0405  0.2776 -0.0957
  227POPC   C1B 3034   3.791   9.450   4.992 -0.0327 -0.0131  0.1224
  227POPC   C2B 3035   3.656   9.689   5.354 -0.1989 -0.0934  0.1458
  227POPC   C3B 3036   3.904   9.954   5.707  0.1256  0.2521  0.3655
  227POPC   C4B 3037   4.030  10.314   5.783  0.3351  0.1709 -0.1553
  228POPC   NC3 3038   1.096   7.729   3.524 -0.3709 -0.3416 -0.1086
  228POPC   PO4 3039   0.870   7.830   3.982  0.1125 -0.1431 -0.0518
  228POPC   GL1 3040   0.994   8.058   4.363  0.0514 -0.2414 -0.0626
  228POPC   GL2 3041   1.009   8.053   4.705 -0.0350 -0.2236 -0.1148
  228POPC   C1A 3042   1.148   8.481   4.576  0.2923  0.0426  0.1184
  228POPC   D2A 3043   1.372   8.479   4.930  0.1498  0.1342 -0.2040
  228POPC   C3A 3044   1.594   8.680   5.181 -0.0837  0.4404  0.3698
  228POPC   C4A 3045   1.630   8.901   5.580 -0.1596  0.3059  0.2582
  228POPC   C1B 3046   1.072   8.218   5.194 -0.3420  0.4573 -0.2191
  228POPC   C2B 3047   1.058   8.647   5.318  0.0653  0.2195  0.3181
  228POPC   C3B 3048   1.263   9.081   5.224 -0.0317 -0.2080  0.1848
  228POPC   C4B 3049   1.299   9.314   5.648  0.2237 -0.1287 -0.1337
  229POPC   NC3 3050   4.098   2.664   4.086 -0.1510 -0.2244 -0.0553
  229POPC   PO4 3051   4.176   3.135   4.163  0.1689 -0.0296 -0.2173
  229POPC   GL1 3052   3.987   3.068   4.605 -0.2307 -0.1114 -0.0645
  229POPC   GL2 3053   3.761   3.324   4.538 -0.1254 -0.2102 -0.4920
  229POPC   C1A 3054   4.376   2.983   5.020  0.0655  0.3554 -0.1625
  229POPC   D2A 3055   4.671   2.813   5.335 -0.0255  0.2635  0.1141
  229POPC   C3A 3056   4.484   2.860   5.803  0.0982  0.1230  0.0877
  229POPC   C4A 3057   4.285   2.586   6.186 -0.1987  0.1377 -0.0392
  229POPC   C1B 3058   3.612   3.209   4.938  0.1378 -0.0803  0.0213
  229POPC   C2B 3059   3.722   3.212   5.409 -0.2956  0.2301  0.0682
  229POPC   C3B 3060   3.605   3.288   5.802 -0.1702 -0.0598 -0.5437
  229POPC   C4B 3061   3.378   3.194   6.249  0.0948 -0.0671  0.0344
  230POPC   NC3 3062   1.538   7.437   4.078 -0.1141  0.2087 -0.4792
  230POPC   PO4 3063   1.880   7.703   4.229 -0.1571  0.1426 -0.0832
  230POPC   GL1 3064   1.723   7.593   4.664  0.0821  0.1799 -0.4485
  230POPC   GL2 3065   1.542   7.886   4.622 -0.0125 -0.2206  0.0334
  230POPC   C1A 3066   1.798   7.646   5.070 -0.2968 -0.2972 -0.1682
  230POPC   D2A 3067   1.702   7.719   5.483  0.3005 -0.0856 -0.4063
  230POPC   C3A 3068   1.299   7.793   5.661  0.1599 -0.1016  0.4307
  230POPC   C4A 3069   1.031   7.706   5.935 -0.1785  0.0982  0.1166
  230POPC   C1B 3070   1.656   8.113   5.079  0.1073  0.4087  0.0261
  230POPC   C2B 3071   1.527   8.259   5.492  0.0105 -0.0749 -0.1234
  230POPC   C3B 3072   1.171   8.343   5.733  0.0590 -0.1247  0.1864
  230POPC   C4B 3073   1.180   8.211   6.109 -0.0755 -0.1014 -0.3065
  231POPC   NC3 3074   8.471   3.423   3.224  0.3638  0.2848 -0.0472
  231POPC   PO4 3075   8.539   3.375   3.711  0.1020  0.0398  0.3136
  231POPC   GL1 3076   8.596   3.460   4.217  0.2676 -0.2095  0.1878
  231POPC   GL2 3077   8.273   3.382   4.308  0.1039 -0.2045  0.1302
  231POPC   C1A 3078   8.774   3.688   4.600  0.0799 -0.2308 -0.0045
  231POPC   D2A 3079   8.807   3.744   5.033 -0.4211  0.2355 -0.3726
  231POPC   C3A 3080   8.790   3.501   5.373 -0.3476  0.0137  0.0804
  231POPC   C4A 3081   8.779   3.153   5.718 -0.1004 -0.2057 -0.0126
  231POPC   C1B 3082   8.443   3.310   4.701 -0.2329  0.1697  0.0688
  231POPC   C2B 3083   8.308   3.302   5.197  0.1164  0.3100 -0.0774
  231POPC   C3B 3084   8.066   3.326   5.675 -0.0507 -0.1220 -0.1393
  231POPC   C4B 3085   7.832   2.984   5.875 -0.1026 -0.0098 -0.0088
  232POPC   NC3 3086   7.738   7.895   3.324 -0.2038 -0.1666  0.1533
  232POPC   PO4 3087   8.040   8.260   3.037 -0.3214  0.1657  0.4174
  232POPC   GL1 3088   7.849   8.438   3.448 -0.1815  0.0211  0.0560
  232POPC   GL2 3089   7.736   8.300   3.658 -0.2293 -0.1103 -0.0476
  232POPC   C1A 3090   7.924   8.799   3.592 -0.4286  0.1303  0.1012
  232POPC   D2A 3091   7.781   9.234   3.479 -0.5186 -0.4375 -0.0408
  232POPC   C3A 3092   7.940   9.531   3.747 -0.0660 -0.1727  0.1814
  232POPC   C4A 3093   8.071   9.989   3.736 -0.0891 -0.1073 -0.1278
  232POPC   C1B 3094   7.526   8.142   4.133  0.0085  0.2048  0.1291
  232POPC   C2B 3095   7.359   8.283   4.431 -0.2395  0.0952 -0.0043
  232POPC   C3B 3096   7.384   8.592   4.819 -0.0835  0.1242  0.1222
  232POPC   C4B 3097   7.219   8.418   5.232  0.1264 -0.3343 -0.3149
  233POPC   NC3 3098   8.563   7.222   4.179  0.0760  0.1170  0.0889
  233POPC   PO4 3099   8.216   6.915   4.165 -0.0001  0.0516 -0.0038
  233POPC   GL1 3100   8.028   6.803   4.604 -0.1831 -0.0701 -0.0233
  233POPC   GL2 3101   8.251   6.888   4.780 -0.1200 -0.1922  0.3038
  233POPC   C1A 3102   7.755   6.881   4.883 -0.2898 -0.2156 -0.3141
  233POPC   D2A 3103   7.502   6.666   5.272 -0.1380 -0.0285 -0.1028
  233POPC   C3A 3104   7.193   6.605   5.622  0.0458 -0.4294 -0.1433
  233POPC   C4A 3105   6.868   6.859   5.807 -0.0803 -0.1690  0.1687
  233POPC   C1B 3106   8.280   6.989   5.191 -0.0646 -0.1365 -0.1939
  233POPC   C2B 3107   8.196   6.853   5.540 -0.1050  0.0647 -0.1091
  233POPC   C3B 3108   8.053   7.157   5.764 -0.1320 -0.0528  0.1546
  233POPC   C4B 3109   7.822   7.055   6.047  0.1342 -0.1442 -0.1492
  234POPC   NC3 3110   7.124   3.052   4.160 -0.1829  0.1065 -0.0763
  234POPC   PO4 3111   7.028   3.402   3.968  0.0267 -0.0768  0.1809
  234POPC   GL1 3112   6.947   3.446   4.438  0.0569  0.1651  0.2258
  234POPC   GL2 3113   6.865   3.012   4.584  0.0220 -0.0535 -0.1262
  234POPC   C1A 3114   7.041   3.406   4.885 -0.3154  0.2974  0.2259
  234POPC   D2A 3115   7.399   3.490   5.224 -0.1928 -0.1785  0.0179
  234POPC   C3A 3116   7.582   3.334   5.594 -0.1404  0.2233  0.3805
  234POPC   C4A 3117   7.520   3.413   6.042 -0.0250 -0.0514  0.2265
  234POPC   C1B 3118   7.192   2.880   4.916  0.0958  0.2333 -0.2278
  234POPC   C2B 3119   7.191   2.961   5.362  0.1182  0.0667  0.1693
  234POPC   C3B 3120   7.118   3.080   5.782  0.4894 -0.0990  0.1395
  234POPC   C4B 3121   7.025   2.726   6.048 -0.0398 -0.2074 -0.1053
  235POPC   NC3 3122  10.563   3.187   3.556  0.0663  0.0642 -0.1650
  235POPC   PO4 3123  10.345   3.395   3.836  0.0862  0.0211  0.1823
  235POPC   GL1 3124  10.371   3.407   4.182 -0.2980  0.0890 -0.2384
  235POPC   GL2 3125  10.553   3.543   4.456  0.0894  0.1208  0.0538
  235POPC   C1A 3126  10.352   3.005   4.485 -0.2686 -0.1173 -0.1784
  235POPC   D2A 3127  10.387   2.809   4.925  0.1573  0.0100  0.2265
  235POPC   C3A 3128   9.932   2.610   5.014 -0.0369 -0.0562 -0.1477
  235POPC   C4A 3129   9.613   2.369   5.067  0.1355 -0.0765  0.0188
  235POPC   C1B 3130  10.408   3.351   4.869 -0.4134  0.2527 -0.0875
  235POPC   C2B 3131  10.320   3.185   5.273  0.4051 -0.2787  0.1806
  235POPC   C3B 3132  10.022   2.881   5.398 -0.4752  0.1677  0.2056
  235POPC   C4B 3133  10.144   2.465   5.461 -0.1291  0.1214  0.3518
  236POPC   NC3 3134   6.429   9.288   2.664  0.0114  0.0955 -0.0216
  236POPC   PO4 3135   6.212   9.349   3.023  0.1151  0.2868 -0.1102
  236POPC   GL1 3136   6.412   9.409   3.372  0.2271 -0.0152 -0.0866
  236POPC   GL2 3137   6.276   9.327   3.620  0.1934  0.1779  0.0632
  236POPC   C1A 3138   6.753   9.309   3.587 -0.0742 -0.2057 -0.1846
  236POPC   D2A 3139   7.004   9.003   3.917 -0.2231 -0.0577  0.2314
  236POPC   C3A 3140   6.871   9.050   4.336  0.1525 -0.1317 -0.0762
  236POPC   C4A 3141   6.707   9.206   4.764  0.0428  0.0120 -0.0787
  236POPC   C1B 3142   6.017   9.517   3.913  0.1230  0.1783  0.2308
  236POPC   C2B 3143   5.754   9.589   4.406 -0.1688 -0.2225  0.0479
  236POPC   C3B 3144   5.745   9.319   4.796 -0.0769 -0.2179  0.1155
  236POPC   C4B 3145   5.885   9.019   4.900  0.0528 -0.1555 -0.2760
  237POPC   NC3 3146   1.970   4.424   4.222  0.3843 -0.0740  0.0190
  237POPC   PO4 3147   1.937   3.957   4.213 -0.2989 -0.2874  0.1219
  237POPC   GL1 3148   1.986   3.888   4.613  0.3107 -0.2573 -0.2092
  237POPC   GL2 3149   1.753   4.044   4.870  0.2661  0.3416  0.0017
  237POPC   C1A 3150   2.122   3.364   4.817 -0.1233 -0.0141  0.0282
  237POPC   D2A 3151   2.202   3.026   4.977  0.0571  0.2340  0.0147
  237POPC   C3A 3152   1.972   2.524   4.862 -0.0771 -0.6047 -0.2979
  237POPC   C4A 3153   1.618   2.433   4.627  0.1429 -0.2982  0.1461
  237POPC   C1B 3154   1.545   4.255   5.174  0.1194  0.0926  0.1637
  237POPC   C2B 3155   1.369   4.271   5.611 -0.1632  0.0528 -0.4206
  237POPC   C3B 3156   1.274   4.275   6.025 -0.1352 -0.1854  0.2294
  237POPC   C4B 3157   0.937   4.175   6.320  0.0831 -0.0488 -0.0004
  238POPC   NC3 3158   5.485   1.469   3.624  0.0367  0.2422  0.0343
  238POPC   PO4 3159   5.681   1.752   3.827  0.0300  0.0749 -0.0030
  238POPC   GL1 3160   5.710   1.776   4.271 -0.1937  0.3100 -0.2801
  238POPC   GL2 3161   5.961   1.579   4.449 -0.3769 -0.0566 -0.0625
  238POPC   C1A 3162   5.510   1.815   4.702 -0.0441  0.0116 -0.0067
  238POPC   D2A 3163   5.288   1.916   4.900 -0.1487  0.4044 -0.0452
  238POPC   C3A 3164   5.426   2.259   5.209 -0.0983 -0.0505  0.0403
  238POPC   C4A 3165   5.627   2.291   5.657  0.0547 -0.2771 -0.2057
  238POPC   C1B 3166   5.951   1.639   4.852  0.2014 -0.0347 -0.1410
  238POPC   C2B 3167   5.748   1.866   5.182 -0.2852 -0.1929  0.2297
  238POPC   C3B 3168   5.553   1.778   5.683  0.1369 -0.0277  0.2357
  238POPC   C4B 3169   5.761   1.936   6.018 -0.7781 -0.2831  0.1312
  239POPC   NC3 3170   0.761   6.804   4.335  0.2334 -0.0442 -0.2434
  239POPC   PO4 3171   1.176   6.606   4.182  0.0100  0.0469 -0.4256
  239POPC   GL1 3172   1.173   6.713   4.658 -0.2345 -0.1273  0.2641
  239POPC   GL2 3173   1.561   6.738   4.862  0.0090  0.1209  0.0606
  239POPC   C1A 3174   1.182   6.492   5.047  0.1036 -0.1814  0.0167
  239POPC   D2A 3175   0.933   6.376   5.471 -0.4285 -0.0710 -0.0418
  239POPC   C3A 3176   0.663   6.629   5.741  0.0393 -0.0745 -0.0223
  239POPC   C4A 3177   0.584   6.899   6.039  0.1129 -0.2455 -0.0063
  239POPC   C1B 3178   1.623   6.858   5.280 -0.0250 -0.0186  0.0827
  239POPC   C2B 3179   1.909   6.625   5.553  0.0087  0.2871 -0.0462
  239POPC   C3B 3180   2.221   6.417   5.637 -0.3880 -0.2788 -0.0806
  239POPC   C4B 3181   2.535   6.341   5.429 -0.2135  0.2264  0.0341
  240POPC   NC3 3182   6.671   7.500   4.097  0.1821  0.0610  0.0823
  240POPC   PO4 3183   6.735   7.026   4.276  0.0869 -0.2226  0.1915
  240POPC   GL1 3184   6.701   7.117   4.715 -0.0961  0.2646  0.1685
  240POPC   GL2 3185   6.923   6.977   4.869 -0.2400 -0.0055 -0.0374
  240POPC   C1A 3186   6.633   7.239   5.135  0.0964 -0.0268  0.0958
  240POPC   D2A 3187   6.586   7.155   5.567 -0.0635 -0.0423 -0.3503
  240POPC   C3A 3188   6.444   7.452   5.849  0.0239  0.0418  0.2264
  240POPC   C4A 3189   6.475   7.522   6.321 -0.1184  0.1348 -0.0772
  240POPC   C1B 3190   6.764   6.708   5.256  0.1644  0.3139 -0.0138
  240POPC   C2B 3191   6.360   6.744   5.592  0.2124  0.1892 -0.0392
  240POPC   C3B 3192   6.266   6.753   5.976  0.0633  0.1452 -0.0200
  240POPC   C4B 3193   6.345   6.572   6.398  0.1195  0.4820  0.3502
  241POPC   NC3 3194   2.074   0.085   3.110  0.0685  0.1265  0.2065
  241POPC   PO4 3195   2.220   0.122   3.622  0.2855  0.1404 -0.0181
  241POPC   GL1 3196   2.198   0.003   4.082  0.0720 -0.2254 -0.1152
  241POPC   GL2 3197   1.889  -0.031   4.168 -0.4712 -0.1363 -0.0612
  241POPC   C1A 3198   2.446   0.059   4.409 -0.1815 -0.1426  0.1371
  241POPC   D2A 3199   2.850  -0.216   4.677  0.0365  0.1656  0.1014
  241POPC   C3A 3200   3.126  -0.134   5.056 -0.0295 -0.1593  0.1381
  241POPC   C4A 3201   2.806  -0.317   5.285 -0.0681  0.0321  0.0808
  241POPC   C1B 3202   1.845   0.221   4.418 -0.0300 -0.0731 -0.1590
  241POPC   C2B 3203   2.190   0.524   4.632  0.0458 -0.0213  0.2377
  241POPC   C3B 3204   2.499   0.752   4.888 -0.3653 -0.1021 -0.0696
  241POPC   C4B 3205   2.591   0.801   5.255  0.0439 -0.0221 -0.1268
  242POPC   NC3 3206   4.585   4.324   4.140 -0.1505  0.2174  0.0742
  242POPC   PO4 3207   4.413   4.725   4.318 -0.0061 -0.0813  0.0496
  242POPC   GL1 3208   4.623   4.672   4.748 -0.3844  0.1766 -0.2527
  242POPC   GL2 3209   4.603   4.396   4.644 -0.1433  0.0309  0.0252
  242POPC   C1A 3210   4.527   4.857   5.155  0.0741  0.4257  0.3406
  242POPC   D2A 3211   4.653   4.752   5.537 -0.2302 -0.2044  0.1812
  242POPC   C3A 3212   4.489   4.543   5.881 -0.4021 -0.0779 -0.2610
  242POPC   C4A 3213   4.394   4.252   6.174  0.1049  0.0055  0.2239
  242POPC   C1B 3214   4.611   3.996   4.804  0.1641 -0.3188 -0.0023
  242POPC   C2B 3215   4.725   3.913   5.349 -0.3044  0.0943 -0.0077
  242POPC   C3B 3216   4.604   3.759   5.785  0.3792 -0.0124  0.1365
  242POPC   C4B 3217   4.598   3.544   6.117  0.0274 -0.0569  0.3996
  243POPC   NC3 3218   2.107   8.058   4.462  0.2669  0.2531  0.2095
  243POPC   PO4 3219   2.281   8.452   4.169 -0.1319 -0.1359  0.0458
  243POPC   GL1 3220   2.432   8.470   4.654  0.0960 -0.1305  0.1326
  243POPC   GL2 3221   2.144   8.264   4.889 -0.1352 -0.0968  0.2183
  243POPC   C1A 3222   2.811   8.513   4.812 -0.0108  0.2208  0.2582
  243POPC   D2A 3223   2.812   8.437   5.276 -0.0692  0.2137 -0.4334
  243POPC   C3A 3224   2.521   8.798   5.438  0.0551  0.3122 -0.2964
  243POPC   C4A 3225   2.129   9.160   5.532 -0.1699  0.0091  0.0215
  243POPC   C1B 3226   2.104   8.451   5.242 -0.2479 -0.1635 -0.0619
  243POPC   C2B 3227   1.992   8.555   5.705  0.2538 -0.1592  0.1963
  243POPC   C3B 3228   2.142   8.398   5.996  0.1413 -0.0068  0.1807
  243POPC   C4B 3229   2.106   8.027   6.270 -0.0413 -0.2370  0.3576
  244POPC   NC3 3230  10.584   1.144   4.018 -0.2460  0.0798  0.1137
  244POPC   PO4 3231  10.984   1.279   3.830  0.1637  0.0186  0.0590
  244POPC   GL1 3232  10.930   1.561   4.201  0.2679 -0.1536  0.0268
  244POPC   GL2 3233  10.975   1.894   4.157  0.2711 -0.2432 -0.0856
  244POPC   C1A 3234  10.721   1.734   4.597 -0.0586 -0.1720 -0.1756
  244POPC   D2A 3235  10.614   1.816   4.950 -0.1463  0.1394  0.2512
  244POPC   C3A 3236  10.949   1.715   5.275  0.1184 -0.1109 -0.2995
  244POPC   C4A 3237  11.165   1.531   5.633  0.4139 -0.0946 -0.2562
  244POPC   C1B 3238  11.344   1.865   4.428 -0.2944 -0.2495  0.1128
  244POPC   C2B 3239  11.548   1.688   4.793  0.0758 -0.2343  0.0995
  244POPC   C3B 3240  11.382   1.463   5.175 -0.0487 -0.0618  0.3312
  244POPC   C4B 3241  11.044   1.160   5.309  0.0873  0.0134  0.2164
  245POPC   NC3 3242   9.022   1.315   3.153 -0.0069 -0.0319 -0.0478
  245POPC   PO4 3243   8.860   1.456   3.543  0.0861 -0.0987 -0.1027
  245POPC   GL1 3244   8.821   1.438   3.946 -0.2716 -0.0690 -0.1847
  245POPC   GL2 3245   9.125   1.397   4.084 -0.2068 -0.1946 -0.1505
  245POPC   C1A 3246   8.591   1.533   4.244  0.3153 -0.1721 -0.1715
  245POPC   D2A 3247   8.335   1.609   4.575 -0.1557 -0.2017 -0.0053
  245POPC   C3A 3248   7.932   1.602   4.707  0.0934 -0.3923  0.1258
  245POPC   C4A 3249   7.737   1.397   5.053 -0.0667 -0.1154 -0.2850
  245POPC   C1B 3250   8.928   1.108   4.389  0.1316 -0.2148  0.1557
  245POPC   C2B 3251   8.981   0.844   4.610 -0.1059 -0.1463 -0.5008
  245POPC   C3B 3252   9.077   0.387   4.483  0.0070 -0.2424 -0.0518
  245POPC   C4B 3253   9.199  -0.073   4.593 -0.0103  0.0044 -0.2902
  246POPC   NC3 3254   3.429   5.177   4.295 -0.1081 -0.1307  0.0767
  246POPC   PO4 3255   3.253   4.757   4.481  0.0471 -0.2078  0.1306
  246POPC   GL1 3256   3.141   4.925   4.924 -0.3410  0.2616  0.3984
  246POPC   GL2 3257   2.826   4.757   5.024  0.0458  0.4430  0.0573
  246POPC   C1A 3258   3.219   4.937   5.402  0.1335 -0.2258 -0.1298
  246POPC   D2A 3259   3.050   5.115   5.820  0.0803  0.0138  0.1268
  246POPC   C3A 3260   2.629   5.223   5.842  0.2654  0.1716 -0.2701
  246POPC   C4A 3261   2.397   5.187   6.172 -0.2295 -0.2407 -0.0527
  246POPC   C1B 3262   2.408   4.691   5.233  0.0400  0.4676  0.1548
  246POPC   C2B 3263   2.145   4.338   5.424  0.4157  0.0080 -0.1055
  246POPC   C3B 3264   2.004   4.012   5.624  0.1179  0.2355  0.1449
  246POPC   C4B 3265   2.079   3.516   5.755 -0.3330  0.1410  0.0678
  247POPC   NC3 3266   6.518   5.752   4.235  0.1378  0.0016 -0.0358
  247POPC   PO4 3267   6.766   6.162   4.359 -0.0384  0.0101  0.0163
  247POPC   GL1 3268   6.515   6.084   4.718 -0.0781  0.0394  0.2250
  247POPC   GL2 3269   6.768   6.078   4.898 -0.0058  0.1233  0.2072
  247POPC   C1A 3270   6.231   5.888   4.915  0.2342 -0.0516 -0.1873
  247POPC   D2A 3271   5.936   5.487   4.978 -0.0643  0.0757 -0.3114
  247POPC   C3A 3272   6.054   5.153   5.201 -0.0325  0.3231 -0.3541
  247POPC   C4A 3273   6.028   4.694   5.292  0.0065  0.2203  0.1593
  247POPC   C1B 3274   6.485   5.967   5.351  0.3017 -0.2258 -0.0893
  247POPC   C2B 3275   6.531   5.812   5.715  0.0023  0.0245 -0.3266
  247POPC   C3B 3276   6.795   5.777   6.125 -0.0011 -0.1433 -0.0186
  247POPC   C4B 3277   7.113   5.978   6.412 -0.2691  0.2096 -0.0559
  248POPC   NC3 3278   9.145   4.945   4.040  0.0540  0.2243 -0.0772
  248POPC   PO4 3279   8.622   5.022   4.046  0.2582  0.0420 -0.0839
  248POPC   GL1 3280   8.697   4.841   4.367  0.1543 -0.0280  0.4138
  248POPC   GL2 3281   9.053   4.803   4.508  0.2192  0.2129  0.1938
  248POPC   C1A 3282   8.496   4.701   4.818 -0.3023 -0.3597  0.0728
  248POPC   D2A 3283   8.425   5.077   5.123 -0.0238  0.0733 -0.0479
  248POPC   C3A 3284   8.356   5.021   5.474 -0.2002  0.2048  0.0586
  248POPC   C4A 3285   8.053   4.795   5.634 -0.1604  0.1072  0.3430
  248POPC   C1B 3286   9.079   4.522   4.859  0.0427 -0.1305 -0.0587
  248POPC   C2B 3287   8.764   4.326   5.048 -0.2241  0.0636  0.0602
  248POPC   C3B 3288   8.702   4.157   5.409  0.1044 -0.3618  0.0642
  248POPC   C4B 3289   8.895   3.894   5.696  0.0572 -0.2130  0.1334
  249POPC   NC3 3290   1.683   6.623   4.382 -0.1712  0.0224 -0.1767
  249POPC   PO4 3291   2.091   6.867   4.544  0.4512  0.1418 -0.3632
  249POPC   GL1 3292   2.045   6.890   4.952  0.1022 -0.1342 -0.0708
  249POPC   GL2 3293   2.058   7.256   4.972 -0.1401 -0.0626 -0.0723
  249POPC   C1A 3294   2.310   6.826   5.317  0.1204  0.0453 -0.3760
  249POPC   D2A 3295   2.615   6.749   5.678 -0.0760  0.0443 -0.1183
  249POPC   C3A 3296   2.571   6.732   6.120 -0.0172 -0.4212  0.0713
  249POPC   C4A 3297   2.651   6.342   6.421 -0.0558 -0.1677 -0.1975
  249POPC   C1B 3298   1.934   7.219   5.403 -0.0607  0.0002  0.1693
  249POPC   C2B 3299   1.771   7.028   5.749  0.0667 -0.0847  0.2891
  249POPC   C3B 3300   1.757   7.218   6.238 -0.3975  0.2010  0.0731
  249POPC   C4B 3301   1.640   7.436   6.601 -0.0938 -0.3653 -0.0706
  250POPC   NC3 3302   2.366   5.589   4.013 -0.0554  0.1670 -0.0411
  250POPC   PO4 3303   2.318   5.245   4.248  0.2330 -0.0474  0.0247
  250POPC   GL1 3304   2.111   5.160   4.677  0.0967 -0.1444  0.2164
  250POPC   GL2 3305   2.313   4.976   4.834  0.2489 -0.0807  0.1907
  250POPC   C1A 3306   1.784   5.050   4.944  0.2340  0.0044 -0.0279
  250POPC   D2A 3307   1.463   4.743   5.270  0.3024  0.5035  0.1253
  250POPC   C3A 3308   1.241   4.758   5.587  0.1129 -0.0787 -0.3001
  250POPC   C4A 3309   0.862   4.478   5.658 -0.2397  0.1150  0.0898
  250POPC   C1B 3310   2.223   5.132   5.186 -0.2342 -0.1129 -0.2873
  250POPC   C2B 3311   2.150   5.216   5.578 -0.0932 -0.0985  0.0812
  250POPC   C3B 3312   1.939   5.160   5.948  0.1452  0.1861  0.0254
  250POPC   C4B 3313   1.724   5.124   6.403 -0.2656 -0.1024  0.3908
  251POPC   NC3 3314   0.464   4.450   4.436 -0.2213  0.2868 -0.2387
  251POPC   PO4 3315   0.223   4.002   4.409  0.0901  0.0723  0.1972
  251POPC   GL1 3316   0.122   4.146   4.890  0.1494 -0.1951  0.1247
  251POPC   GL2 3317   0.411   4.280   4.870 -0.1905  0.0882 -0.0746
  251POPC   C1A 3318  -0.240   4.360   5.019 -0.0102  0.2434  0.2892
  251POPC   D2A 3319  -0.568   4.554   5.313 -0.3540 -0.2477 -0.0665
  251POPC   C3A 3320  -0.988   4.395   5.318  0.0895  0.1510 -0.3446
  251POPC   C4A 3321  -1.313   4.157   5.041 -0.1865 -0.1458  0.1436
  251POPC   C1B 3322   0.273   4.563   5.123  0.1494 -0.0867 -0.2794
  251POPC   C2B 3323  -0.046   4.593   5.521 -0.2636 -0.3668 -0.0175
  251POPC   C3B 3324  -0.352   4.599   5.878 -0.0939 -0.2449 -0.4328
  251POPC   C4B 3325  -0.693   4.676   6.117  0.0233  0.2157  0.1291
  252POPC   NC3 3326   4.744   1.252   3.819  0.2372  0.0324 -0.0218
  252POPC   PO4 3327   4.375   1.207   3.841 -0.0244  0.3870  0.1646
  252POPC   GL1 3328   4.332   0.885   4.168  0.0470 -0.3194 -0.2507
  252POPC   GL2 3329   4.463   0.471   4.016  0.0698 -0.1736  0.1121
  252POPC   C1A 3330   3.974   0.541   4.408 -0.1758 -0.2664 -0.0593
  252POPC   D2A 3331   3.759   0.447   4.831  0.1216  0.0340 -0.1112
  252POPC   C3A 3332   3.878   0.670   5.246  0.1690 -0.0948  0.2294
  252POPC   C4A 3333   4.295   0.634   5.408  0.0355  0.1506 -0.0918
  252POPC   C1B 3334   4.679   0.620   4.478  0.2262 -0.0053  0.1031
  252POPC   C2B 3335   4.798   0.384   4.826 -0.0677  0.0243 -0.2499
  252POPC   C3B 3336   4.989   0.251   5.224 -0.3557  0.1403 -0.1409
  252POPC   C4B 3337   5.156  -0.048   5.566  0.1251 -0.1259  0.2007
  253POPC   NC3 3338   8.781   9.965   2.778  0.0119 -0.1219  0.2463
  253POPC   PO4 3339   8.783  10.418   2.800 -0.3759  0.2069 -0.0738
  253POPC   GL1 3340   8.683  10.304   3.277  0.1985 -0.0081  0.0024
  253POPC   GL2 3341   8.808  10.013   3.277 -0.3014  0.2929 -0.1705
  253POPC   C1A 3342   8.553  10.111   3.760 -0.1294  0.1724 -0.0970
  253POPC   D2A 3343   8.691  10.391   4.203  0.0302  0.3362  0.0087
  253POPC   C3A 3344   8.709  10.822   4.208  0.1826  0.3841 -0.4055
  253POPC   C4A 3345   8.711  11.273   4.197  0.2581  0.3532 -0.0254
  253POPC   C1B 3346   9.046  10.230   3.609 -0.2857 -0.1044 -0.1773
  253POPC   C2B 3347   9.051  10.119   4.035  0.1038 -0.1341 -0.0967
  253POPC   C3B 3348   9.063  10.110   4.565  0.0320 -0.2085  0.0971
  253POPC   C4B 3349   8.757  10.408   4.779 -0.0816 -0.0650  0.2520
  254POPC   NC3 3350   1.528   4.163   4.380 -0.0301  0.0306  0.0697
  254POPC   PO4 3351   1.370   3.856   4.088 -0.3341 -0.2449  0.0559
  254POPC   GL1 3352   1.605   3.543   4.360 -0.2639 -0.0504 -0.0414
  254POPC   GL2 3353   1.564   3.251   4.344 -0.1960  0.0013 -0.0033
  254POPC   C1A 3354   1.538   3.548   4.769 -0.1969  0.0083 -0.1487
  254POPC   D2A 3355   1.392   3.576   5.129 -0.0082 -0.3246 -0.3439
  254POPC   C3A 3356   1.553   3.796   5.462 -0.0507  0.2565 -0.1341
  254POPC   C4A 3357   1.658   3.849   5.980  0.1011  0.5084  0.0480
  254POPC   C1B 3358   1.706   3.019   4.770 -0.0985 -0.2131  0.2741
  254POPC   C2B 3359   1.417   2.655   5.039 -0.0017  0.0273  0.3145
  254POPC   C3B 3360   1.106   2.547   5.390 -0.1325  0.0609  0.2338
  254POPC   C4B 3361   0.929   2.262   5.676 -0.0730  0.0854  0.3465
  255POPC   NC3 3362   3.231   6.120   4.032 -0.5970  0.3430  0.0433
  255POPC   PO4 3363   3.573   6.008   4.354 -0.0870  0.0714 -0.4195
  255POPC   GL1 3364   3.584   6.098   4.783 -0.0657 -0.0147  0.0529
  255POPC   GL2 3365   3.590   5.898   5.009  0.0324  0.2030  0.0469
  255POPC   C1A 3366   3.492   6.337   5.179 -0.0639  0.1174  0.1408
  255POPC   D2A 3367   3.050   6.482   5.362 -0.2721 -0.2425 -0.0147
  255POPC   C3A 3368   3.154   6.290   5.729 -0.2402 -0.0435 -0.1563
  255POPC   C4A 3369   3.068   6.083   5.989 -0.3447 -0.2906  0.2360
  255POPC   C1B 3370   3.165   5.904   5.033 -0.1223 -0.1381 -0.1675
  255POPC   C2B 3371   2.919   5.968   5.373  0.0944 -0.1174 -0.0833
  255POPC   C3B 3372   2.709   5.920   5.689  0.2319  0.1090 -0.0601
  255POPC   C4B 3373   2.593   6.246   5.954 -0.0173  0.1397  0.2210
  256POPC   NC3 3374   3.187  10.454   3.884  0.1604  0.0324  0.0223
  256POPC   PO4 3375   3.114  10.810   3.814  0.0243 -0.1052  0.0615
  256POPC   GL1 3376   3.159  11.137   4.233 -0.1286  0.0855 -0.1009
  256POPC   GL2 3377   3.040  11.469   4.251 -0.2740 -0.2315 -0.0687
  256POPC   C1A 3378   3.461  11.368   4.515 -0.1330  0.1313 -0.5053
  256POPC   D2A 3379   3.471  11.535   4.987 -0.0559 -0.1293  0.1309
  256POPC   C3A 3380   3.162  11.806   5.017 -0.3825 -0.1254 -0.0853
  256POPC   C4A 3381   2.934  11.789   5.331 -0.0686 -0.1422  0.0859
  256POPC   C1B 3382   2.965  11.431   4.687 -0.1786 -0.1641 -0.1992
  256POPC   C2B 3383   3.085  11.292   5.162  0.3174 -0.0440 -0.1565
  256POPC   C3B 3384   3.400  11.426   5.483  0.0100  0.0437 -0.3511
  256POPC   C4B 3385   3.788  11.442   5.844  0.0889  0.1697  0.2126
  257POPC   NC3 3386   8.018   9.698   2.999  0.2245 -0.1702  0.2567
  257POPC   PO4 3387   8.549   9.598   2.971  0.0983 -0.2160  0.1274
  257POPC   GL1 3388   8.471   9.628   3.451 -0.2544 -0.0823  0.1628
  257POPC   GL2 3389   8.263   9.377   3.451 -0.1492 -0.2688  0.0804
  257POPC   C1A 3390   8.396   9.619   3.877  0.1060 -0.3455  0.0694
  257POPC   D2A 3391   8.505   9.428   4.207  0.1071  0.0103 -0.1508
  257POPC   C3A 3392   8.090   9.318   4.274 -0.1136  0.0680 -0.0799
  257POPC   C4A 3393   7.764   9.053   4.146  0.0193 -0.3832  0.1924
  257POPC   C1B 3394   8.486   9.157   3.696  0.1563  0.0907 -0.0540
  257POPC   C2B 3395   8.344   8.918   4.073 -0.1102 -0.3073 -0.0818
  257POPC   C3B 3396   8.278   8.747   4.364  0.1352 -0.2288 -0.1174
  257POPC   C4B 3397   8.631   8.653   4.680  0.0962 -0.0513 -0.1534
  258POPC   NC3 3398   0.080   2.154   3.749 -0.1520 -0.0817 -0.0651
  258POPC   PO4 3399  -0.019   2.695   3.827 -0.0278 -0.0515  0.0434
  258POPC   GL1 3400   0.065   2.615   4.188 -0.0228  0.0968 -0.4885
  258POPC   GL2 3401   0.204   2.380   4.177 -0.1509  0.2136 -0.3180
  258POPC   C1A 3402   0.165   2.742   4.629  0.0467 -0.1639 -0.0173
  258POPC   D2A 3403   0.177   2.937   5.058  0.0678  0.1148  0.0683
  258POPC   C3A 3404   0.430   2.818   5.375  0.0726  0.0846  0.0343
  258POPC   C4A 3405   0.501   2.685   5.724 -0.4600  0.2150  0.1693
  258POPC   C1B 3406   0.020   2.275   4.683  0.0459 -0.0073  0.0882
  258POPC   C2B 3407  -0.287   2.260   4.950 -0.1219  0.1535  0.1073
  258POPC   C3B 3408  -0.383   2.012   5.266 -0.1025  0.0137 -0.1002
  258POPC   C4B 3409  -0.136   1.587   5.516 -0.1244  0.1443 -0.0862
  259POPC   NC3 3410   4.969   6.471   3.908  0.0287  0.1798 -0.0237
  259POPC   PO4 3411   4.563   6.653   4.158 -0.2340  0.1432  0.0931
  259POPC   GL1 3412   4.409   6.649   4.608  0.2244  0.5507  0.2381
  259POPC   GL2 3413   4.021   6.561   4.709  0.2200 -0.1388 -0.0340
  259POPC   C1A 3414   4.534   6.386   4.902 -0.0232 -0.2174  0.0486
  259POPC   D2A 3415   4.470   6.293   5.426  0.0980  0.1961 -0.1502
  259POPC   C3A 3416   4.457   5.916   5.618  0.3751 -0.0698  0.2437
  259POPC   C4A 3417   4.353   5.573   5.761 -0.1322 -0.1500 -0.0455
  259POPC   C1B 3418   3.695   6.746   4.939 -0.1835 -0.0307  0.1649
  259POPC   C2B 3419   3.530   6.933   5.225 -0.3146 -0.2103  0.0423
  259POPC   C3B 3420   3.231   6.871   5.598 -0.1451 -0.0307  0.0511
  259POPC   C4B 3421   3.039   6.709   5.991 -0.0387 -0.0856 -0.0786
  260POPC   NC3 3422   4.711   1.996   3.687 -0.3511  0.0799 -0.2923
  260POPC   PO4 3423   4.480   1.763   3.957 -0.0115 -0.1021  0.4016
  260POPC   GL1 3424   4.705   1.727   4.409 -0.2138 -0.4693  0.0745
  260POPC   GL2 3425   4.852   1.487   4.254 -0.4572  0.1339  0.0132
  260POPC   C1A 3426   4.846   1.517   4.877 -0.0999 -0.1999  0.2027
  260POPC   D2A 3427   4.996   1.320   5.250 -0.3295  0.0556  0.2385
  260POPC   C3A 3428   5.020   1.479   5.626 -0.0697 -0.0207 -0.2593
  260POPC   C4A 3429   5.407   1.147   5.935  0.1878 -0.0938  0.3006
  260POPC   C1B 3430   4.655   1.209   4.593 -0.3227 -0.0575 -0.0152
  260POPC   C2B 3431   4.604   1.110   4.980  0.2045 -0.1587  0.1470
  260POPC   C3B 3432   4.298   1.100   5.183  0.0644 -0.3470 -0.1114
  260POPC   C4B 3433   4.095   1.178   5.576 -0.1335  0.0496  0.0053
  261POPC   NC3 3434  10.147   4.703   3.371 -0.0647 -0.2971 -0.1594
  261POPC   PO4 3435  10.256   4.426   3.746  0.2244 -0.3998  0.0693
  261POPC   GL1 3436  10.057   4.317   4.168 -0.3053 -0.4286 -0.0374
  261POPC   GL2 3437   9.803   4.257   4.213  0.0428 -0.3629  0.3083
  261POPC   C1A 3438  10.116   4.191   4.593  0.0227  0.1229  0.3390
  261POPC   D2A 3439   9.961   4.183   4.913  0.0624 -0.2643 -0.1530
  261POPC   C3A 3440  10.167   4.056   5.307  0.2563 -0.0874 -0.0998
  261POPC   C4A 3441  10.171   3.800   5.738 -0.0221 -0.4239  0.2806
  261POPC   C1B 3442   9.484   4.331   4.484 -0.3732 -0.1022  0.0854
  261POPC   C2B 3443   9.612   4.665   4.771 -0.0200  0.3961  0.0500
  261POPC   C3B 3444   9.327   4.905   4.983 -0.1000 -0.1917 -0.0846
  261POPC   C4B 3445   9.178   5.256   5.363 -0.4229  0.2155  0.2287
  262POPC   NC3 3446   7.558   0.152   2.240  0.2438  0.1274  0.1273
  262POPC   PO4 3447   7.605   0.410   2.551 -0.0581 -0.0629 -0.2500
  262POPC   GL1 3448   7.535   0.171   2.942 -0.0627  0.0518  0.0774
  262POPC   GL2 3449   7.257   0.212   3.066 -0.0395 -0.0564  0.1386
  262POPC   C1A 3450   7.631   0.160   3.302  0.2943  0.0965 -0.1883
  262POPC   D2A 3451   7.631   0.404   3.646  0.0394  0.4770 -0.1980
  262POPC   C3A 3452   7.671   0.189   4.050 -0.0012 -0.3575 -0.3271
  262POPC   C4A 3453   8.020  -0.146   4.106  0.0866 -0.1412 -0.1115
  262POPC   C1B 3454   7.156   0.107   3.496  0.0120 -0.1681 -0.0948
  262POPC   C2B 3455   7.320  -0.026   3.787 -0.1866 -0.2081  0.3176
  262POPC   C3B 3456   7.639  -0.420   3.864 -0.1979  0.2092 -0.1670
  262POPC   C4B 3457   7.753  -0.801   4.105  0.0255  0.0557 -0.1127
  263POPC   NC3 3458   4.162  10.166   3.673  0.0557 -0.1128  0.1180
  263POPC   PO4 3459   4.475  10.091   3.981  0.1559 -0.0702 -0.2123
  263POPC   GL1 3460   4.652   9.844   4.360 -0.1995  0.0776 -0.3796
  263POPC   GL2 3461   4.310   9.687   4.469  0.1387 -0.3830 -0.1576
  263POPC   C1A 3462   4.991   9.947   4.733  0.3347 -0.0060  0.1520
  263POPC   D2A 3463   5.209  10.195   5.061  0.0112  0.0540  0.0787
  263POPC   C3A 3464   5.492  10.074   5.284  0.2103  0.0111  0.1284
  263POPC   C4A 3465   5.579  10.340   5.593  0.1277 -0.2696 -0.3673
  263POPC   C1B 3466   4.411  10.069   4.757  0.0543  0.2875 -0.2843
  263POPC   C2B 3467   4.683   9.944   5.094  0.2123 -0.1612  0.0273
  263POPC   C3B 3468   4.674   9.647   5.418  0.1000  0.0863  0.1742
  263POPC   C4B 3469   4.852   9.534   5.816 -0.1569 -0.1376  0.0301
  264POPC   NC3 3470   3.060   9.632   4.218 -0.0838  0.3387  0.2629
  264POPC   PO4 3471   3.062  10.124   4.183  0.0695 -0.3506  0.4023
  264POPC   GL1 3472   3.185  10.065   4.644  0.1786 -0.2439  0.3617
  264POPC   GL2 3473   3.418   9.877   4.668 -0.3982 -0.1730 -0.0705
  264POPC   C1A 3474   3.023   9.913   5.037  0.1995 -0.0480 -0.0453
  264POPC   D2A 3475   3.119   9.871   5.486 -0.0467 -0.0837 -0.0076
  264POPC   C3A 3476   3.011  10.121   5.782 -0.1331 -0.2749 -0.2212
  264POPC   C4A 3477   2.807  10.554   5.843  0.1383  0.2308 -0.0853
  264POPC   C1B 3478   3.463  10.132   5.084 -0.1798  0.2754  0.0307
  264POPC   C2B 3479   3.717  10.375   5.244 -0.0378 -0.0804  0.2377
  264POPC   C3B 3480   3.981  10.768   5.252 -0.1585 -0.0178  0.1930
  264POPC   C4B 3481   3.980  10.985   5.644  0.1457  0.0005  0.0615
  265POPC   NC3 3482   1.095   9.403   3.840  0.2856 -0.3656 -0.2176
  265POPC   PO4 3483   1.338   9.767   4.071  0.1848  0.1835  0.2119
  265POPC   GL1 3484   1.082   9.787   4.256  0.1194 -0.0131  0.1933
  265POPC   GL2 3485   0.931  10.170   4.200 -0.4982 -0.1672 -0.0580
  265POPC   C1A 3486   0.867   9.892   4.720  0.0193 -0.2440  0.1992
  265POPC   D2A 3487   0.626  10.081   5.066  0.1266 -0.2410 -0.1373
  265POPC   C3A 3488   0.524   9.964   5.424 -0.0706 -0.2938  0.2641
  265POPC   C4A 3489   0.145   9.933   5.507  0.0772 -0.1024 -0.3195
  265POPC   C1B 3490   1.161  10.393   4.528 -0.1543  0.0895 -0.1862
  265POPC   C2B 3491   1.018  10.472   4.862 -0.0701 -0.0320  0.1063
  265POPC   C3B 3492   1.261  10.586   5.287  0.2215  0.0849 -0.5842
  265POPC   C4B 3493   1.390  10.433   5.725 -0.3312  0.1283  0.2665
  266POPC   NC3 3494   4.025   4.355   4.113 -0.3295 -0.0470 -0.0028
  266POPC   PO4 3495   3.879   4.724   4.352  0.1293 -0.0146  0.0362
  266POPC   GL1 3496   4.015   4.343   4.612 -0.2550 -0.0458 -0.0452
  266POPC   GL2 3497   3.803   4.003   4.515  0.0735  0.1219 -0.0438
  266POPC   C1A 3498   4.135   4.493   4.980  0.0666 -0.0946  0.1117
  266POPC   D2A 3499   4.131   4.670   5.504 -0.0400  0.1681  0.3051
  266POPC   C3A 3500   4.311   5.073   5.673  0.1030  0.1174  0.2523
  266POPC   C4A 3501   4.706   5.252   5.616 -0.0840 -0.1357  0.1401
  266POPC   C1B 3502   3.736   4.084   4.962  0.0176 -0.1407  0.0055
  266POPC   C2B 3503   3.802   4.224   5.347 -0.1429 -0.2211  0.2543
  266POPC   C3B 3504   3.567   4.023   5.680  0.3935  0.1916 -0.1329
  266POPC   C4B 3505   3.680   3.815   5.905  0.1815  0.2391  0.0549
  267POPC   NC3 3506   5.900   0.396   2.976  0.2322 -0.2892  0.1867
  267POPC   PO4 3507   6.303   0.559   3.115  0.2632  0.0616  0.1168
  267POPC   GL1 3508   6.306   0.261   3.422 -0.2914  0.1309  0.0198
  267POPC   GL2 3509   6.196   0.376   3.735 -0.1328  0.1955  0.0919
  267POPC   C1A 3510   6.345  -0.135   3.718 -0.0149  0.2238  0.1186
  267POPC   D2A 3511   6.415  -0.549   3.577  0.0023  0.0183 -0.1517
  267POPC   C3A 3512   6.430  -0.834   3.947 -0.2339  0.4345 -0.4147
  267POPC   C4A 3513   6.467  -1.288   4.106  0.1480 -0.0230 -0.0719
  267POPC   C1B 3514   6.117   0.615   4.174 -0.0531 -0.0974 -0.2197
  267POPC   C2B 3515   5.836   0.444   4.466 -0.0566  0.1561 -0.0805
  267POPC   C3B 3516   5.734  -0.009   4.590  0.0314 -0.1492  0.0006
  267POPC   C4B 3517   5.701  -0.375   4.856 -0.0444 -0.1923 -0.0895
  268POPC   NC3 3518  10.009  10.039   3.453 -0.0369 -0.2938  0.3765
  268POPC   PO4 3519   9.703   9.781   3.634  0.0425 -0.0553 -0.2309
  268POPC   GL1 3520   9.379   9.812   3.907 -0.2568 -0.0046  0.2682
  268POPC   GL2 3521   9.250   9.420   3.916  0.0405 -0.2782  0.0271
  268POPC   C1A 3522   9.533  10.202   4.281 -0.0108  0.4114  0.0587
  268POPC   D2A 3523   9.595  10.170   4.722 -0.0583  0.1542 -0.0104
  268POPC   C3A 3524   9.421  10.476   4.990 -0.1449 -0.3679 -0.3466
  268POPC   C4A 3525   9.365  10.685   5.428 -0.2475 -0.2944 -0.1813
  268POPC   C1B 3526   8.940   9.576   4.207 -0.1045  0.1266  0.0717
  268POPC   C2B 3527   8.852   9.636   4.624  0.1318 -0.0715  0.1877
  268POPC   C3B 3528   8.707   9.913   4.899  0.2049 -0.1378  0.0422
  268POPC   C4B 3529   8.954  10.186   5.192 -0.0065  0.1564 -0.2173
  269POPC   NC3 3530   3.422   0.503   3.789  0.0653 -0.1351  0.1085
  269POPC   PO4 3531   3.366   0.971   3.911  0.2258 -0.0725 -0.2867
  269POPC   GL1 3532   3.536   1.195   4.267 -0.1643 -0.1045  0.0109
  269POPC   GL2 3533   3.908   1.180   4.345  0.0618  0.4153  0.2983
  269POPC   C1A 3534   3.638   1.375   4.698 -0.1605 -0.1235  0.0770
  269POPC   D2A 3535   3.878   1.366   5.013 -0.2438  0.0936  0.3667
  269POPC   C3A 3536   3.933   1.645   5.321  0.1920  0.0538  0.2014
  269POPC   C4A 3537   4.071   1.985   5.503 -0.2890  0.2060 -0.0827
  269POPC   C1B 3538   4.129   1.065   4.651 -0.0913  0.2548  0.0620
  269POPC   C2B 3539   4.291   0.663   4.919  0.1620 -0.4175  0.3559
  269POPC   C3B 3540   4.430   0.236   5.144 -0.0442  0.2975  0.2458
  269POPC   C4B 3541   4.581   0.254   5.543  0.1339 -0.0398 -0.1312
  270POPC   NC3 3542   4.260   9.146   3.390 -0.0403  0.2474  0.1610
  270POPC   PO4 3543   4.040   8.834   3.630  0.0219 -0.0029  0.1658
  270POPC   GL1 3544   4.195   8.817   4.037 -0.0489  0.1825 -0.0731
  270POPC   GL2 3545   4.121   8.567   4.077  0.1234 -0.0586  0.0204
  270POPC   C1A 3546   4.114   9.052   4.399 -0.1673 -0.0411 -0.1358
  270POPC   D2A 3547   3.649   8.982   4.631 -0.0570  0.0501  0.0410
  270POPC   C3A 3548   3.538   9.020   5.079  0.0331 -0.2579 -0.0623
  270POPC   C4A 3549   3.686   8.789   5.437 -0.1070  0.1114  0.0694
  270POPC   C1B 3550   4.182   8.349   4.600  0.1156  0.0342 -0.1139
  270POPC   C2B 3551   4.416   8.339   4.977 -0.3284 -0.0785  0.1329
  270POPC   C3B 3552   4.393   8.635   5.307  0.2866 -0.1683 -0.0308
  270POPC   C4B 3553   4.648   8.713   5.644  0.1717  0.1614  0.0621
  271POPC   NC3 3554   7.405   9.510   2.421  0.3761 -0.1605 -0.3941
  271POPC   PO4 3555   7.229   9.207   2.771 -0.0824 -0.0702  0.0647
  271POPC   GL1 3556   7.171   9.413   3.146 -0.0348  0.0458  0.3777
  271POPC   GL2 3557   7.196   9.238   3.370 -0.1152 -0.2007 -0.1280
  271POPC   C1A 3558   7.397   9.723   3.443  0.1304  0.2509  0.1619
  271POPC   D2A 3559   7.257  10.068   3.570 -0.0337 -0.4136  0.1170
  271POPC   C3A 3560   6.850  10.162   3.837  0.0026  0.1441 -0.0109
  271POPC   C4A 3561   6.511  10.337   4.179 -0.0239 -0.0378  0.2472
  271POPC   C1B 3562   7.411   9.208   3.807 -0.2652 -0.0861  0.0785
  271POPC   C2B 3563   7.389   9.439   4.276  0.0637 -0.0752  0.0076
  271POPC   C3B 3564   7.401   9.896   4.548 -0.1084 -0.1268 -0.6232
  271POPC   C4B 3565   7.549  10.269   4.398 -0.1523 -0.0377 -0.0359
  272POPC   NC3 3566   5.216   7.068   4.457 -0.2945 -0.0199 -0.1053
  272POPC   PO4 3567   5.676   7.173   4.380 -0.0892  0.1731 -0.0897
  272POPC   GL1 3568   5.672   6.859   4.657  0.0985 -0.1260 -0.1402
  272POPC   GL2 3569   5.354   6.664   4.773  0.1515 -0.1209 -0.4354
  272POPC   C1A 3570   5.844   6.668   5.007  0.1885  0.0096 -0.1194
  272POPC   D2A 3571   5.837   6.595   5.428  0.0070  0.1138  0.1735
  272POPC   C3A 3572   5.849   6.906   5.704 -0.1928 -0.1443 -0.3389
  272POPC   C4A 3573   5.880   7.367   5.772 -0.2242 -0.2160  0.1282
  272POPC   C1B 3574   5.312   6.757   5.298  0.1578  0.0613  0.0094
  272POPC   C2B 3575   5.143   6.654   5.714 -0.1780 -0.1132 -0.0482
  272POPC   C3B 3576   5.396   6.533   6.006 -0.1723 -0.0376 -0.1556
  272POPC   C4B 3577   5.812   6.618   6.213 -0.0552 -0.0874  0.0877
  273POPC   NC3 3578   0.171   5.226   3.880 -0.1413  0.3034 -0.0780
  273POPC   PO4 3579   0.472   5.334   4.103  0.1273  0.2249  0.0184
  273POPC   GL1 3580   0.501   5.347   4.512 -0.0211  0.0012  0.0158
  273POPC   GL2 3581   0.211   5.308   4.699 -0.0097  0.0234 -0.1198
  273POPC   C1A 3582   0.707   5.264   4.828  0.1502  0.1522 -0.2757
  273POPC   D2A 3583   0.561   5.417   5.295 -0.1102  0.0033 -0.1223
  273POPC   C3A 3584   0.374   5.533   5.563  0.1690 -0.0461  0.0758
  273POPC   C4A 3585   0.407   5.786   5.891  0.2276  0.2255  0.1002
  273POPC   C1B 3586   0.244   5.083   5.112 -0.0129 -0.2678  0.1094
  273POPC   C2B 3587   0.240   5.033   5.549  0.2603 -0.2224  0.0163
  273POPC   C3B 3588   0.349   4.808   5.887  0.0076 -0.0250 -0.1535
  273POPC   C4B 3589   0.130   4.486   6.146 -0.2715  0.0531 -0.1590
  274POPC   NC3 3590   7.306   2.549   3.510  0.1228 -0.2501 -0.2978
  274POPC   PO4 3591   7.157   2.542   3.936 -0.2136  0.0473  0.1448
  274POPC   GL1 3592   7.169   2.584   4.407 -0.0466 -0.0773  0.0326
  274POPC   GL2 3593   6.868   2.512   4.553 -0.0439 -0.0909  0.1720
  274POPC   C1A 3594   7.181   2.358   4.839  0.2970 -0.2691  0.1006
  274POPC   D2A 3595   7.151   2.491   5.258  0.1116 -0.1033  0.1180
  274POPC   C3A 3596   6.740   2.739   5.500 -0.1391  0.1915  0.0624
  274POPC   C4A 3597   6.405   2.690   5.237  0.1165 -0.2292 -0.0555
  274POPC   C1B 3598   6.733   2.591   4.899  0.2518  0.2500  0.1262
  274POPC   C2B 3599   6.673   2.301   5.132 -0.0156  0.3042 -0.0958
  274POPC   C3B 3600   6.725   2.296   5.614 -0.2477 -0.2850  0.1037
  274POPC   C4B 3601   6.602   2.508   5.905 -0.3374 -0.3665 -0.1226
  275POPC   NC3 3602   8.028   6.569   3.226  0.1487  0.1259  0.1634
  275POPC   PO4 3603   8.132   6.634   3.738  0.0062 -0.1161  0.4457
  275POPC   GL1 3604   8.271   6.376   4.129 -0.3677 -0.0146 -0.1448
  275POPC   GL2 3605   8.621   6.202   4.240  0.1101  0.0390 -0.0073
  275POPC   C1A 3606   8.413   6.450   4.624  0.2283  0.2232  0.3695
  275POPC   D2A 3607   8.160   6.527   5.057 -0.1142  0.0988  0.0915
  275POPC   C3A 3608   8.178   6.271   5.396 -0.0480 -0.2429 -0.1254
  275POPC   C4A 3609   7.979   5.959   5.767  0.0070 -0.2171  0.1205
  275POPC   C1B 3610   8.422   5.992   4.416 -0.0111  0.2630 -0.2974
  275POPC   C2B 3611   8.498   5.758   4.771  0.2526 -0.0150 -0.1638
  275POPC   C3B 3612   8.217   5.485   4.931  0.1670 -0.3861 -0.1322
  275POPC   C4B 3613   7.750   5.354   4.902  0.0564 -0.0623  0.0083
  276POPC   NC3 3614   6.618   5.123   3.637 -0.3081 -0.0440 -0.1438
  276POPC   PO4 3615   6.653   5.232   4.201  0.2777  0.0344 -0.1117
  276POPC   GL1 3616   6.432   4.926   4.523 -0.0752 -0.2637  0.6008
  276POPC   GL2 3617   6.261   4.696   4.451 -0.4216 -0.0798 -0.1856
  276POPC   C1A 3618   6.743   4.549   4.700  0.2416  0.0927 -0.0477
  276POPC   D2A 3619   6.969   4.394   4.966  0.4020  0.2964 -0.2122
  276POPC   C3A 3620   6.791   4.568   5.340 -0.0586 -0.1193 -0.0455
  276POPC   C4A 3621   6.914   4.737   5.748  0.0362  0.0025 -0.0252
  276POPC   C1B 3622   6.036   4.415   4.804 -0.0074  0.4541 -0.1667
  276POPC   C2B 3623   6.034   4.253   5.146  0.2151 -0.1931 -0.0785
  276POPC   C3B 3624   5.983   4.072   5.558  0.2351  0.4246 -0.2654
  276POPC   C4B 3625   5.587   3.860   5.899  0.0956  0.1858 -0.3159
  277POPC   NC3 3626   4.063   5.125   4.413 -0.0445 -0.0153 -0.2741
  277POPC   PO4 3627   3.746   5.541   4.458  0.0215  0.0017 -0.4055
  277POPC   GL1 3628   3.492   5.331   4.755  0.2332  0.0101 -0.0236
  277POPC   GL2 3629   3.628   5.007   4.736  0.3207 -0.1368 -0.1287
  277POPC   C1A 3630   3.476   5.302   5.212 -0.3534  0.0201  0.2004
  277POPC   D2A 3631   3.539   5.191   5.664 -0.1835 -0.1619 -0.2722
  277POPC   C3A 3632   3.851   4.893   5.840 -0.3015 -0.1145 -0.0451
  277POPC   C4A 3633   4.225   4.848   6.063 -0.1387  0.1434 -0.3487
  277POPC   C1B 3634   3.657   4.691   5.131 -0.2264 -0.1496 -0.1764
  277POPC   C2B 3635   3.501   4.566   5.603 -0.0581 -0.0391 -0.2456
  277POPC   C3B 3636   3.821   4.380   5.891  0.0248 -0.1092  0.2545
  277POPC   C4B 3637   3.992   4.473   6.330  0.2348 -0.1824 -0.1655
  278POPC   NC3 3638   6.055   8.086   3.416 -0.0625 -0.1418  0.3215
  278POPC   PO4 3639   5.910   8.114   3.803  0.0111 -0.1571  0.1155
  278POPC   GL1 3640   6.042   8.207   4.134  0.0241 -0.0008 -0.0367
  278POPC   GL2 3641   6.436   8.142   4.220 -0.0252  0.1061  0.0197
  278POPC   C1A 3642   6.114   8.381   4.533  0.0957 -0.0718 -0.0409
  278POPC   D2A 3643   6.022   8.546   4.966  0.0305 -0.0232  0.0548
  278POPC   C3A 3644   5.825   8.363   5.318  0.0760 -0.0624 -0.1649
  278POPC   C4A 3645   6.012   8.317   5.789 -0.0994 -0.1016 -0.2710
  278POPC   C1B 3646   6.523   8.196   4.737  0.1163  0.1651  0.0746
  278POPC   C2B 3647   6.481   7.814   5.116 -0.2517 -0.0358  0.0129
  278POPC   C3B 3648   6.537   7.859   5.561  0.2983  0.1659  0.0224
  278POPC   C4B 3649   6.595   7.900   6.008  0.0614  0.4235 -0.1478
  279POPC   NC3 3650   7.871   2.315   3.665  0.0449 -0.0031 -0.0334
  279POPC   PO4 3651   8.099   2.605   3.935  0.2924 -0.4475  0.5392
  279POPC   GL1 3652   7.973   2.964   4.246 -0.3463  0.0297 -0.2923
  279POPC   GL2 3653   7.675   2.895   4.201 -0.0619  0.0403 -0.0644
  279POPC   C1A 3654   7.973   3.072   4.671  0.3112 -0.0183 -0.0734
  279POPC   D2A 3655   8.134   2.762   5.011 -0.0126 -0.1121 -0.0267
  279POPC   C3A 3656   8.470   2.435   5.090 -0.1117  0.0920  0.0788
  279POPC   C4A 3657   8.860   2.370   5.193  0.6515 -0.0382  0.1840
  279POPC   C1B 3658   7.584   2.696   4.615  0.0039  0.3179 -0.1151
  279POPC   C2B 3659   7.608   2.522   5.053  0.0795 -0.0250 -0.0626
  279POPC   C3B 3660   7.528   2.180   5.221  0.4682  0.3054 -0.3139
  279POPC   C4B 3661   7.777   1.892   5.125 -0.1717  0.0052 -0.1138
  280POPC   NC3 3662   1.970   2.940   3.590 -0.1098  0.2717 -0.1913
  280POPC   PO4 3663   2.140   2.988   4.048  0.2602 -0.1327 -0.0146
  280POPC   GL1 3664   2.374   3.039   4.507  0.1762 -0.4429  0.1618
  280POPC   GL2 3665   2.698   3.142   4.589  0.3516  0.1618  0.2379
  280POPC   C1A 3666   2.535   2.647   4.826  0.2228  0.0669  0.1687
  280POPC   D2A 3667   2.333   2.600   5.235  0.0467  0.1165  0.0325
  280POPC   C3A 3668   2.353   2.517   5.584  0.2270 -0.1150 -0.2275
  280POPC   C4A 3669   2.481   2.445   6.005  0.3975 -0.1292 -0.1126
  280POPC   C1B 3670   2.997   2.881   4.803 -0.1120 -0.1217 -0.3590
  280POPC   C2B 3671   3.258   2.817   5.163  0.1008 -0.4574  0.3325
  280POPC   C3B 3672   3.293   2.558   5.459  0.1062  0.0166 -0.3080
  280POPC   C4B 3673   3.400   2.753   5.842  0.1000  0.2589  0.1734
  281POPC   NC3 3674   6.676   6.618   4.594  0.2236  0.0840  0.0810
  281POPC   PO4 3675   6.280   6.372   4.371 -0.0590 -0.0355 -0.1840
  281POPC   GL1 3676   6.183   6.490   4.749 -0.1158  0.0227  0.2583
  281POPC   GL2 3677   6.344   6.808   4.929 -0.1154  0.3515 -0.2520
  281POPC   C1A 3678   6.235   6.376   5.183  0.3521  0.0749 -0.1967
  281POPC   D2A 3679   5.914   6.093   5.368  0.0511 -0.0744 -0.1817
  281POPC   C3A 3680   5.644   5.811   5.277  0.0295  0.0041  0.3271
  281POPC   C4A 3681   5.260   5.717   5.150  0.0572  0.0174  0.3099
  281POPC   C1B 3682   6.061   7.035   5.256  0.0164 -0.0375  0.4771
  281POPC   C2B 3683   5.729   7.354   5.243 -0.1959  0.1042 -0.1324
  281POPC   C3B 3684   5.419   7.529   5.334 -0.0047  0.0420  0.0831
  281POPC   C4B 3685   5.161   7.735   5.053  0.3861 -0.3077 -0.3477
  282POPC   NC3 3686   5.891   5.016   4.326  0.1000  0.5178  0.1323
  282POPC   PO4 3687   6.171   5.382   4.315 -0.1755 -0.1127 -0.0939
  282POPC   GL1 3688   6.434   5.440   4.663 -0.0326  0.0944 -0.2787
  282POPC   GL2 3689   6.716   5.304   4.698 -0.2931  0.0691  0.3664
  282POPC   C1A 3690   6.457   5.468   5.146  0.0320 -0.2763 -0.1673
  282POPC   D2A 3691   6.082   5.628   5.461 -0.4088  0.1084  0.1085
  282POPC   C3A 3692   5.829   5.817   5.786  0.1219 -0.1647  0.0722
  282POPC   C4A 3693   5.916   6.289   5.871 -0.0077  0.5509 -0.0515
  282POPC   C1B 3694   6.467   4.926   5.052  0.0381 -0.0076 -0.2781
  282POPC   C2B 3695   6.340   5.040   5.605  0.2027  0.0885  0.1885
  282POPC   C3B 3696   6.238   4.878   6.116 -0.1894 -0.2471  0.1122
  282POPC   C4B 3697   5.850   4.841   6.450 -0.0758  0.1366 -0.1669
  283POPC   NC3 3698   7.434   1.318   3.553 -0.0920  0.0446 -0.1234
  283POPC   PO4 3699   7.454   1.721   3.409 -0.0016  0.0239 -0.2107
  283POPC   GL1 3700   7.619   1.683   3.902 -0.3005 -0.1098  0.4074
  283POPC   GL2 3701   7.459   1.447   4.023  0.0596 -0.1745 -0.0408
  283POPC   C1A 3702   7.777   1.813   4.264 -0.1891  0.1490  0.3453
  283POPC   D2A 3703   7.774   2.174   4.523  0.0508  0.2739  0.0369
  283POPC   C3A 3704   8.109   2.438   4.645  0.0699 -0.1291  0.0321
  283POPC   C4A 3705   8.402   2.812   4.618 -0.1309  0.2006  0.0115
  283POPC   C1B 3706   7.094   1.171   4.257  0.1680  0.3062 -0.0583
  283POPC   C2B 3707   7.013   1.040   4.605  0.1319 -0.1247  0.0144
  283POPC   C3B 3708   6.701   0.917   4.876 -0.0112 -0.3438 -0.1666
  283POPC   C4B 3709   6.395   0.804   5.186  0.1518 -0.2794 -0.0508
  284POPC   NC3 3710   5.321   2.523   3.738  0.2911  0.0170 -0.0315
  284POPC   PO4 3711   4.957   2.332   3.976 -0.0721  0.0954  0.5458
  284POPC   GL1 3712   4.819   2.447   4.366  0.0836  0.0317  0.2036
  284POPC   GL2 3713   4.896   2.184   4.466 -0.2902  0.1467 -0.2713
  284POPC   C1A 3714   4.761   2.573   4.822  0.0440  0.0508 -0.2897
  284POPC   D2A 3715   4.902   2.382   5.238  0.1315 -0.4364 -0.1361
  284POPC   C3A 3716   4.752   2.459   5.655 -0.2761  0.2321 -0.0460
  284POPC   C4A 3717   4.784   2.333   6.044  0.0518 -0.0654 -0.1850
  284POPC   C1B 3718   4.787   2.028   4.854 -0.0344  0.0184 -0.5126
  284POPC   C2B 3719   5.054   1.887   5.327  0.0192 -0.1792 -0.1398
  284POPC   C3B 3720   5.102   2.053   5.782  0.2383  0.3758  0.0634
  284POPC   C4B 3721   5.357   2.177   6.112 -0.0419 -0.1019  0.0028
  285POPC   NC3 3722   6.266   1.473   3.925 -0.1621 -0.1504  0.2678
  285POPC   PO4 3723   6.653   1.327   3.819  0.1566 -0.1617 -0.2774
  285POPC   GL1 3724   6.690   1.694   4.134  0.2457  0.2934 -0.0229
  285POPC   GL2 3725   6.513   1.547   4.352  0.1823  0.0690 -0.0070
  285POPC   C1A 3726   6.491   1.975   4.507  0.2519 -0.1619 -0.1860
  285POPC   D2A 3727   6.067   2.146   4.481  0.3393 -0.0364  0.2075
  285POPC   C3A 3728   5.670   2.301   4.744  0.1719 -0.0792 -0.0115
  285POPC   C4A 3729   5.279   2.379   4.672  0.1678 -0.1485 -0.1184
  285POPC   C1B 3730   6.452   1.439   4.811  0.2539 -0.0481  0.0808
  285POPC   C2B 3731   6.515   1.301   5.200 -0.0623  0.0062  0.0481
  285POPC   C3B 3732   6.507   1.241   5.568  0.0180 -0.0301  0.0019
  285POPC   C4B 3733   6.464   1.272   5.911 -0.0345 -0.1772  0.2077
  286POPC   NC3 3734   5.822   6.313   4.482  0.2867  0.0997  0.1331
  286POPC   PO4 3735   5.402   6.213   4.610  0.0985  0.2634  0.1366
  286POPC   GL1 3736   5.317   6.199   5.053 -0.0685  0.1571  0.0672
  286POPC   GL2 3737   5.558   6.254   5.099  0.0285 -0.0241 -0.0185
  286POPC   C1A 3738   4.989   6.389   5.291  0.1582 -0.1593 -0.2420
  286POPC   D2A 3739   4.751   6.682   5.336  0.1039 -0.0036  0.3262
  286POPC   C3A 3740   4.725   6.974   5.641 -0.0010  0.2204 -0.2936
  286POPC   C4A 3741   4.854   7.428   5.766 -0.1385  0.0977  0.2427
  286POPC   C1B 3742   5.492   6.208   5.528  0.1963  0.1167  0.0242
  286POPC   C2B 3743   5.388   6.011   5.906 -0.1233  0.0341 -0.1532
  286POPC   C3B 3744   5.248   6.167   6.310  0.0634 -0.0715  0.0011
  286POPC   C4B 3745   5.217   6.066   6.755  0.0730 -0.0480  0.2431
  287POPC   NC3 3746   9.830   1.329   3.618  0.1616  0.0115  0.1869
  287POPC   PO4 3747  10.028   1.472   4.003  0.2172  0.0589  0.4724
  287POPC   GL1 3748  10.030   1.082   4.074 -0.0169  0.0302 -0.1003
  287POPC   GL2 3749   9.980   0.837   3.836 -0.0012  0.1413 -0.0713
  287POPC   C1A 3750   9.874   0.839   4.524 -0.1667 -0.0238  0.1556
  287POPC   D2A 3751   9.883   0.828   4.865 -0.0817  0.0152 -0.2330
  287POPC   C3A 3752  10.034   1.020   5.254  0.3985  0.0455 -0.0101
  287POPC   C4A 3753   9.932   0.968   5.680 -0.0244 -0.2268  0.0154
  287POPC   C1B 3754   9.756   0.598   4.108  0.1263 -0.0176  0.0528
  287POPC   C2B 3755   9.559   0.367   4.623  0.0134 -0.0640 -0.0437
  287POPC   C3B 3756   9.697   0.365   5.071 -0.1772 -0.3193  0.0530
  287POPC   C4B 3757   9.704   0.456   5.580 -0.1018 -0.0452  0.1161
  288POPC   NC3 3758   6.897   6.544   4.066 -0.0040 -0.0700 -0.2088
  288POPC   PO4 3759   7.255   6.584   3.951  0.2297 -0.3536  0.0871
  288POPC   GL1 3760   7.419   6.214   4.262  0.1718  0.1030 -0.1151
  288POPC   GL2 3761   7.212   6.259   4.491 -0.3432 -0.1685  0.0873
  288POPC   C1A 3762   7.742   6.370   4.579 -0.3987 -0.0727  0.0191
  288POPC   D2A 3763   8.155   6.119   4.827  0.0663  0.1255 -0.1376
  288POPC   C3A 3764   8.017   5.883   5.173 -0.0913 -0.0268 -0.2236
  288POPC   C4A 3765   8.183   5.487   5.412 -0.0670 -0.0037  0.1323
  288POPC   C1B 3766   7.221   5.914   4.876  0.0770  0.1607 -0.2852
  288POPC   C2B 3767   7.495   5.773   5.175  0.1484 -0.1506 -0.1184
  288POPC   C3B 3768   7.634   5.653   5.556  0.0745 -0.1321  0.1401
  288POPC   C4B 3769   7.726   5.345   5.885 -0.3340  0.1560  0.0973
  289POPC   NC3 3770   8.896   0.640   3.041 -0.0331  0.0517  0.0480
  289POPC   PO4 3771   9.297   0.444   3.191 -0.1388 -0.0347 -0.0087
  289POPC   GL1 3772   9.029   0.385   3.588  0.0491  0.0379 -0.0790
  289POPC   GL2 3773   8.727   0.483   3.524 -0.0122  0.2819 -0.0274
  289POPC   C1A 3774   9.200   0.651   3.996  0.1616 -0.2118  0.3448
  289POPC   D2A 3775   9.390   0.835   4.373 -0.0170 -0.1306 -0.0087
  289POPC   C3A 3776   9.365   0.764   4.934 -0.3569  0.2522  0.0106
  289POPC   C4A 3777   9.368   0.851   5.352 -0.3197 -0.0432  0.0455
  289POPC   C1B 3778   8.461   0.409   3.857 -0.1343  0.2676 -0.3319
  289POPC   C2B 3779   8.155   0.146   3.737 -0.2399 -0.0262  0.0208
  289POPC   C3B 3780   7.978  -0.194   3.544 -0.1618  0.3671  0.2656
  289POPC   C4B 3781   7.611  -0.332   3.358  0.2056 -0.0471  0.0293
  290POPC   NC3 3782  10.611   0.347   3.686  0.1266 -0.2559 -0.0383
  290POPC   PO4 3783  10.554  -0.108   3.635 -0.0969 -0.1327  0.3850
  290POPC   GL1 3784  10.376   0.051   3.996  0.0596 -0.0737 -0.4337
  290POPC   GL2 3785  10.154   0.271   3.953 -0.3951 -0.1905  0.1002
  290POPC   C1A 3786  10.455   0.202   4.437  0.2711  0.2382 -0.0345
  290POPC   D2A 3787  10.560   0.135   4.954  0.1517  0.0270  0.0756
  290POPC   C3A 3788  10.390  -0.152   5.172 -0.0791 -0.0178  0.3614
  290POPC   C4A 3789  10.361  -0.529   5.357  0.3803 -0.2001  0.0799
  290POPC   C1B 3790   9.909   0.122   4.372  0.1023  0.2096 -0.2236
  290POPC   C2B 3791   9.836  -0.013   4.821  0.0658  0.1454  0.1162
  290POPC   C3B 3792   9.869  -0.172   5.182 -0.1294  0.1759 -0.2887
  290POPC   C4B 3793   9.878  -0.395   5.344 -0.1172  0.1324 -0.1615
  291POPC   NC3 3794   5.098   1.188   3.091 -0.0859 -0.0987 -0.0155
  291POPC   PO4 3795   5.109   1.115   3.572  0.1371  0.2102  0.2655
  291POPC   GL1 3796   5.257   1.196   3.986  0.2642 -0.2644  0.0236
  291POPC   GL2 3797   5.327   1.393   4.121  0.1127 -0.0076  0.1315
  291POPC   C1A 3798   5.060   0.953   4.324  0.5145 -0.0046  0.2068
  291POPC   D2A 3799   5.048   0.990   4.812 -0.1009 -0.0641 -0.0019
  291POPC   C3A 3800   5.229   0.906   5.154 -0.0074  0.2381 -0.0782
  291POPC   C4A 3801   5.289   0.570   5.510  0.4460 -0.0918 -0.0861
  291POPC   C1B 3802   5.522   1.250   4.590  0.2292 -0.1136 -0.1436
  291POPC   C2B 3803   5.466   1.373   4.988  0.0940  0.2634 -0.2569
  291POPC   C3B 3804   5.505   1.275   5.429 -0.0682 -0.0738  0.2918
  291POPC   C4B 3805   5.621   0.905   5.452 -0.1977 -0.1773  0.0455
  292POPC   NC3 3806   4.977   3.334   3.770  0.3679  0.2496  0.1107
  292POPC   PO4 3807   4.967   2.908   3.809  0.1732 -0.1074 -0.2173
  292POPC   GL1 3808   4.958   3.074   4.271 -0.1039 -0.2962 -0.0246
  292POPC   GL2 3809   5.110   3.436   4.278  0.4366  0.1488  0.3105
  292POPC   C1A 3810   5.195   3.106   4.703 -0.3142  0.0866 -0.2173
  292POPC   D2A 3811   5.301   2.780   5.022 -0.1115 -0.0120 -0.1420
  292POPC   C3A 3812   5.183   2.716   5.456  0.1743  0.0447  0.0350
  292POPC   C4A 3813   5.246   2.603   5.948 -0.2701  0.3207 -0.2435
  292POPC   C1B 3814   4.932   3.514   4.700 -0.0504 -0.4570 -0.1275
  292POPC   C2B 3815   4.592   3.496   5.067  0.3495 -0.2611 -0.0197
  292POPC   C3B 3816   4.555   3.310   5.407 -0.0025  0.0946  0.1972
  292POPC   C4B 3817   4.203   3.082   5.486  0.1497  0.2925 -0.4296
  293POPC   NC3 3818   8.733   7.985   4.265 -0.1116 -0.2953 -0.0201
  293POPC   PO4 3819   8.447   7.720   4.323  0.3032 -0.1984 -0.2774
  293POPC   GL1 3820   8.377   7.922   4.750 -0.1907 -0.0006 -0.2637
  293POPC   GL2 3821   8.131   7.807   4.849  0.0886  0.0394  0.1733
  293POPC   C1A 3822   8.388   8.294   5.089 -0.2695  0.0789  0.0089
  293POPC   D2A 3823   8.246   8.597   5.403 -0.0549  0.0527  0.0295
  293POPC   C3A 3824   8.278   8.432   5.888 -0.5591 -0.1687  0.0853
  293POPC   C4A 3825   8.049   8.586   6.184  0.1350 -0.0008  0.1885
  293POPC   C1B 3826   7.912   8.042   5.167  0.0194  0.2230 -0.2528
  293POPC   C2B 3827   8.101   8.140   5.439 -0.2966  0.1707 -0.1002
  293POPC   C3B 3828   7.948   8.063   5.858  0.2073 -0.3206  0.1938
  293POPC   C4B 3829   7.670   8.253   6.038 -0.0347  0.1168 -0.0893
  294POPC   NC3 3830   0.491   5.878   4.028  0.2108  0.2980  0.1207
  294POPC   PO4 3831   0.235   6.197   4.039  0.1181  0.0253 -0.3898
  294POPC   GL1 3832   0.071   6.345   4.474  0.1078  0.0642  0.3068
  294POPC   GL2 3833   0.432   6.468   4.535  0.0061  0.0124  0.0218
  294POPC   C1A 3834  -0.189   6.405   4.836 -0.4893  0.0869  0.4241
  294POPC   D2A 3835  -0.570   6.420   5.174  0.1212 -0.3475 -0.1958
  294POPC   C3A 3836  -0.511   6.411   5.575  0.0009 -0.1658  0.0661
  294POPC   C4A 3837  -0.296   6.423   5.924  0.2981 -0.1291  0.0053
  294POPC   C1B 3838   0.228   6.859   4.833 -0.2374 -0.0875 -0.1607
  294POPC   C2B 3839   0.115   7.214   5.089 -0.1166  0.2028 -0.2013
  294POPC   C3B 3840   0.137   7.519   5.466  0.0719  0.0046  0.0303
  294POPC   C4B 3841   0.288   7.995   5.454 -0.1684  0.0969 -0.0401
  295POPC   NC3 3842   2.002   9.234   3.742 -0.2292  0.0177  0.0035
  295POPC   PO4 3843   1.515   9.145   3.817 -0.1618  0.0507 -0.2160
  295POPC   GL1 3844   1.525   9.317   4.209 -0.0883  0.0755 -0.1825
  295POPC   GL2 3845   1.310   9.386   4.451  0.2508 -0.0419 -0.2422
  295POPC   C1A 3846   1.794   9.365   4.594  0.0541  0.1081 -0.2234
  295POPC   D2A 3847   1.725   9.643   4.907 -0.0340  0.0912  0.2162
  295POPC   C3A 3848   2.036   9.969   4.992  0.0839  0.1308 -0.1083
  295POPC   C4A 3849   2.428  10.153   4.873  0.3480 -0.0071 -0.1923
  295POPC   C1B 3850   1.238   9.495   4.829  0.1138 -0.0898  0.0815
  295POPC   C2B 3851   1.359   9.624   5.246 -0.1057  0.0999 -0.1530
  295POPC   C3B 3852   1.350   9.883   5.591  0.4371 -0.0569  0.0073
  295POPC   C4B 3853   1.599   9.929   5.970  0.0869  0.2280 -0.0931
  296POPC   NC3 3854   0.374   7.715   4.027 -0.0678  0.2737  0.2701
  296POPC   PO4 3855  -0.036   7.598   4.144  0.0323  0.0502  0.0972
  296POPC   GL1 3856   0.213   7.672   4.521 -0.1017  0.0407 -0.2444
  296POPC   GL2 3857   0.513   7.828   4.481 -0.2941 -0.0776 -0.2033
  296POPC   C1A 3858   0.417   7.520   4.850  0.0900  0.1515 -0.2490
  296POPC   D2A 3859   0.699   7.710   5.093 -0.0432  0.0346 -0.0418
  296POPC   C3A 3860   0.660   7.588   5.467  0.1269  0.3786  0.0234
  296POPC   C4A 3861   0.561   7.661   5.911 -0.0839 -0.1522 -0.2488
  296POPC   C1B 3862   0.354   7.983   4.923 -0.0901 -0.0926  0.1933
  296POPC   C2B 3863   0.207   8.408   4.989 -0.0700  0.1340  0.1389
  296POPC   C3B 3864   0.377   8.759   4.922  0.1533  0.1266  0.1840
  296POPC   C4B 3865   0.319   9.041   4.666  0.0182 -0.0224 -0.0373
  297POPC   NC3 3866   1.290   2.419   3.688 -0.1813  0.1563  0.2597
  297POPC   PO4 3867   1.524   2.801   3.797  0.0066  0.1016  0.0540
  297POPC   GL1 3868   1.272   2.840   4.154  0.0565 -0.0441 -0.0608
  297POPC   GL2 3869   1.137   3.046   4.449  0.2957  0.1575 -0.1380
  297POPC   C1A 3870   1.021   2.486   4.401  0.1624  0.3479 -0.1405
  297POPC   D2A 3871   0.935   2.270   4.846  0.0628  0.2314 -0.0290
  297POPC   C3A 3872   0.634   2.429   5.128  0.1332  0.1804  0.2605
  297POPC   C4A 3873   0.183   2.312   5.247 -0.4527 -0.0266  0.3688
  297POPC   C1B 3874   1.240   3.125   4.920 -0.0287  0.1204  0.1257
  297POPC   C2B 3875   1.490   3.110   5.210  0.2210  0.1152 -0.0634
  297POPC   C3B 3876   1.487   2.827   5.636  0.0149 -0.1667 -0.1608
  297POPC   C4B 3877   1.372   3.144   6.055  0.2349 -0.2726  0.4523
  298POPC   NC3 3878   3.356   3.247   3.828  0.1645  0.3731  0.0781
  298POPC   PO4 3879   2.968   3.443   3.901 -0.0292  0.1725  0.0979
  298POPC   GL1 3880   3.083   3.297   4.284  0.2029  0.1193 -0.0319
  298POPC   GL2 3881   2.997   3.545   4.528 -0.0660 -0.0020 -0.2159
  298POPC   C1A 3882   3.338   3.056   4.528  0.2788 -0.0696 -0.1204
  298POPC   D2A 3883   3.439   2.649   4.642 -0.2089  0.1972  0.1188
  298POPC   C3A 3884   3.449   2.390   5.046 -0.2502  0.0972 -0.2001
  298POPC   C4A 3885   3.832   2.321   5.225 -0.4015 -0.1865  0.3280
  298POPC   C1B 3886   2.972   3.383   4.906  0.2439 -0.1717  0.1083
  298POPC   C2B 3887   2.667   3.032   5.106 -0.0577 -0.0785 -0.3648
  298POPC   C3B 3888   2.808   2.610   5.276  0.0107 -0.1683 -0.2737
  298POPC   C4B 3889   2.770   2.244   5.582  0.1867 -0.0343  0.1973
  299POPC   NC3 3890   6.026   0.780   3.490  0.1277 -0.2114 -0.0700
  299POPC   PO4 3891   5.580   0.986   3.463  0.0484  0.1102  0.2982
  299POPC   GL1 3892   5.789   0.987   3.897  0.2752  0.0693  0.0525
  299POPC   GL2 3893   5.782   1.233   4.013  0.0937  0.0960  0.0635
  299POPC   C1A 3894   5.553   0.876   4.266  0.0340 -0.0369 -0.0783
  299POPC   D2A 3895   5.575   0.804   4.730 -0.3895  0.0823  0.1662
  299POPC   C3A 3896   5.439   0.436   4.897 -0.0475 -0.0464  0.0067
  299POPC   C4A 3897   5.464   0.031   5.078 -0.0853 -0.3615  0.3383
  299POPC   C1B 3898   5.983   1.117   4.400 -0.0003  0.3064  0.0098
  299POPC   C2B 3899   5.951   1.155   4.884 -0.0931  0.0253 -0.0311
  299POPC   C3B 3900   6.008   1.370   5.354  0.0870  0.1423  0.2672
  299POPC   C4B 3901   6.096   1.834   5.616 -0.0537  0.0744  0.2127
  300POPC   NC3 3902   0.660   9.418   3.472  0.1044  0.0987  0.0311
  300POPC   PO4 3903   0.477   9.491   3.853  0.0699 -0.0383 -0.0221
  300POPC   GL1 3904   0.656   9.482   4.202  0.2181  0.0246 -0.0061
  300POPC   GL2 3905   0.583   9.811   4.312 -0.2802 -0.0180  0.0380
  300POPC   C1A 3906   0.828   9.430   4.522  0.1799  0.3234 -0.1109
  300POPC   D2A 3907   0.823   9.204   4.975  0.0822 -0.1093 -0.0515
  300POPC   C3A 3908   0.372   9.221   5.215 -0.2338  0.0922  0.2827
  300POPC   C4A 3909   0.416   8.868   5.462 -0.1530  0.0421  0.1644
  300POPC   C1B 3910   0.358  10.008   4.604 -0.0579  0.2793 -0.3625
  300POPC   C2B 3911   0.153  10.184   5.019  0.2365  0.0625  0.2594
  300POPC   C3B 3912   0.266  10.408   5.278  0.1392  0.2074  0.3769
  300POPC   C4B 3913   0.482  10.632   5.610  0.3027 -0.0888  0.0739
  301POPC   NC3 3914   2.835   7.378   4.035  0.3721  0.1175 -0.3873
  301POPC   PO4 3915   2.793   7.277   4.423 -0.0632  0.0235  0.3832
  301POPC   GL1 3916   3.023   7.401   4.671 -0.1238  0.3124  0.3004
  301POPC   GL2 3917   2.739   7.485   4.852  0.0063  0.0530  0.0656
  301POPC   C1A 3918   3.336   7.380   5.028  0.1250 -0.2518 -0.1676
  301POPC   D2A 3919   3.290   7.372   5.499  0.1486 -0.1718 -0.3099
  301POPC   C3A 3920   3.315   7.834   5.702  0.0480 -0.0788 -0.3017
  301POPC   C4A 3921   2.855   8.002   5.790  0.1020 -0.2088  0.0068
  301POPC   C1B 3922   2.499   7.462   5.216 -0.1370 -0.0352  0.1182
  301POPC   C2B 3923   2.184   7.750   5.320  0.0922  0.2829  0.2672
  301POPC   C3B 3924   1.985   8.116   5.545 -0.0015  0.2527  0.0186
  301POPC   C4B 3925   1.702   8.034   5.909 -0.2799  0.0317  0.1759
  302POPC   NC3 3926   1.121   1.482   3.612 -0.2130 -0.4272 -0.0429
  302POPC   PO4 3927   1.081   1.964   3.600 -0.0763  0.2079  0.1191
  302POPC   GL1 3928   1.154   1.902   3.984  0.2270  0.0476 -0.0811
  302POPC   GL2 3929   1.290   1.754   4.053 -0.2321  0.0952 -0.0094
  302POPC   C1A 3930   1.239   1.997   4.490 -0.0320 -0.3489  0.0344
  302POPC   D2A 3931   1.418   1.762   4.793  0.0952  0.1045  0.0317
  302POPC   C3A 3932   1.352   2.108   5.113  0.1199 -0.2454 -0.0880
  302POPC   C4A 3933   1.477   2.200   5.489  0.1046 -0.1136  0.0879
  302POPC   C1B 3934   1.258   1.464   4.416  0.1738 -0.2587  0.2411
  302POPC   C2B 3935   1.236   1.249   4.771  0.0670 -0.0317 -0.3831
  302POPC   C3B 3936   1.234   1.319   5.240 -0.0217 -0.1847 -0.0397
  302POPC   C4B 3937   1.265   1.231   5.642 -0.0122  0.0023 -0.4744
  303POPC   NC3 3938   1.941   9.676   3.999  0.3321  0.2175  0.1135
  303POPC   PO4 3939   2.358   9.645   3.925  0.1657 -0.0037 -0.1951
  303POPC   GL1 3940   2.540   9.628   4.294 -0.0852  0.0928  0.0076
  303POPC   GL2 3941   2.469  10.030   4.285  0.5971 -0.1984 -0.0091
  303POPC   C1A 3942   2.259   9.566   4.684 -0.1980  0.0271 -0.1252
  303POPC   D2A 3943   2.209   9.213   4.931  0.3999  0.0141  0.1109
  303POPC   C3A 3944   1.993   8.835   4.777  0.3319  0.1850 -0.0820
  303POPC   C4A 3945   1.714   8.495   4.582 -0.1831 -0.0833  0.0453
  303POPC   C1B 3946   2.183  10.247   4.475  0.1338  0.0368  0.3102
  303POPC   C2B 3947   2.107  10.585   4.717  0.0373 -0.1779  0.2756
  303POPC   C3B 3948   2.150  10.500   5.126 -0.0244 -0.0074  0.1086
  303POPC   C4B 3949   2.322  10.585   5.546 -0.2216  0.3450 -0.1614
  304POPC   NC3 3950   2.733   8.705   4.164  0.0415  0.4142  0.1550
  304POPC   PO4 3951   2.661   9.171   3.967  0.0169 -0.3763 -0.0514
  304POPC   GL1 3952   2.741   9.160   4.356  0.0123  0.1053 -0.2104
  304POPC   GL2 3953   2.455   8.952   4.533 -0.3480 -0.0936  0.0448
  304POPC   C1A 3954   2.708   9.351   4.826 -0.0570  0.0242  0.2743
  304POPC   D2A 3955   2.519   9.698   5.064  0.0119  0.3614 -0.0078
  304POPC   C3A 3956   2.171   9.687   5.366 -0.0870 -0.1805  0.1722
  304POPC   C4A 3957   1.993   9.673   5.791  0.0131 -0.0039 -0.0846
  304POPC   C1B 3958   2.559   8.908   4.979  0.1122  0.4682  0.1248
  304POPC   C2B 3959   2.610   9.213   5.317 -0.0331  0.0643 -0.0658
  304POPC   C3B 3960   2.601   9.496   5.677 -0.1220 -0.1458  0.1546
  304POPC   C4B 3961   2.634   9.488   6.119 -0.1358  0.0781 -0.1700
  305POPC   NC3 3962   5.455   8.941   3.832 -0.2042  0.0674 -0.2043
  305POPC   PO4 3963   5.222   8.599   3.751 -0.0899  0.2611 -0.3183
  305POPC   GL1 3964   5.365   8.573   4.195  0.3685 -0.1207  0.0223
  305POPC   GL2 3965   5.609   8.341   4.255  0.2060 -0.0790  0.1752
  305POPC   C1A 3966   5.183   8.583   4.574  0.2087 -0.3578 -0.1014
  305POPC   D2A 3967   4.888   9.023   4.721 -0.3756  0.3220  0.1778
  305POPC   C3A 3968   4.637   9.116   5.102  0.1354  0.0476 -0.0852
  305POPC   C4A 3969   4.526   9.179   5.476 -0.3203 -0.0945  0.2961
  305POPC   C1B 3970   5.631   8.280   4.685  0.1682 -0.2320 -0.3560
  305POPC   C2B 3971   5.511   8.586   5.004 -0.0549  0.1939 -0.1924
  305POPC   C3B 3972   5.355   8.542   5.480 -0.4016  0.1027 -0.0969
  305POPC   C4B 3973   5.188   8.748   5.860  0.0532 -0.1575  0.2023
  306POPC   NC3 3974   6.912   8.034   3.453 -0.0313 -0.2015 -0.3301
  306POPC   PO4 3975   6.577   8.338   3.234 -0.2338 -0.1112  0.2425
  306POPC   GL1 3976   6.770   8.479   3.638 -0.0421  0.0480 -0.0529
  306POPC   GL2 3977   6.851   8.803   3.484  0.1905  0.1046  0.0849
  306POPC   C1A 3978   6.718   8.526   4.018 -0.1816 -0.0865 -0.0606
  306POPC   D2A 3979   6.446   8.682   4.294 -0.2331 -0.3644 -0.2924
  306POPC   C3A 3980   6.299   9.003   4.450  0.0042  0.0011  0.1518
  306POPC   C4A 3981   6.254   9.383   4.647 -0.3031 -0.0812 -0.1508
  306POPC   C1B 3982   6.476   8.954   3.792 -0.0042  0.0310 -0.1912
  306POPC   C2B 3983   6.057   9.020   4.036  0.2646 -0.0350  0.2431
  306POPC   C3B 3984   5.776   9.055   4.344 -0.0469 -0.0054 -0.2269
  306POPC   C4B 3985   5.622   8.794   4.555 -0.0434  0.3215 -0.0201
  307POPC   NC3 3986   8.358   1.195   2.568  0.3034 -0.0230 -0.1464
  307POPC   PO4 3987   8.365   0.818   2.817  0.2417  0.0578  0.0907
  307POPC   GL1 3988   8.381   0.575   3.169  0.2893 -0.1157  0.0077
  307POPC   GL2 3989   8.149   0.460   3.359 -0.0728 -0.1424  0.1533
  307POPC   C1A 3990   8.434   0.097   3.338  0.0659 -0.1402  0.2610
  307POPC   D2A 3991   8.720  -0.056   3.702  0.1396  0.1957  0.4002
  307POPC   C3A 3992   9.084   0.077   3.917  0.3417  0.2136  0.3362
  307POPC   C4A 3993   9.429   0.226   4.137  0.0426  0.0584  0.1326
  307POPC   C1B 3994   8.173   0.802   3.594  0.3167  0.2781 -0.1313
  307POPC   C2B 3995   8.248   0.962   4.099 -0.1522 -0.0696 -0.0612
  307POPC   C3B 3996   8.430   1.003   4.431  0.1920  0.0677  0.0940
  307POPC   C4B 3997   8.556   0.789   4.788  0.0183  0.2891 -0.3376
  308POPC   NC3 3998   8.992   2.332   3.853 -0.0607  0.0720  0.0814
  308POPC   PO4 3999   9.132   1.855   3.772 -0.1225  0.0249  0.2233
  308POPC   GL1 4000   9.130   1.849   4.203  0.0642 -0.0809 -0.2693
  308POPC   GL2 4001   9.351   2.134   4.320 -0.0071  0.3195  0.0669
  308POPC   C1A 4002   8.892   1.673   4.568 -0.1261 -0.2323  0.2308
  308POPC   D2A 4003   8.675   1.385   4.870  0.3013  0.1084 -0.0490
  308POPC   C3A 4004   8.660   1.395   5.312  0.1345 -0.0561  0.0953
  308POPC   C4A 4005   8.597   1.543   5.723 -0.0170 -0.0837 -0.4162
  308POPC   C1B 4006   9.455   1.831   4.749  0.1286  0.2018 -0.0314
  308POPC   C2B 4007   9.347   1.566   5.230 -0.1273  0.1502 -0.0065
  308POPC   C3B 4008   9.091   1.270   5.517 -0.3008 -0.0725 -0.0912
  308POPC   C4B 4009   8.821   0.926   5.683 -0.1203  0.0482 -0.1524
  309POPC   NC3 4010   2.792   9.892   3.815  0.1169 -0.2151 -0.0823
  309POPC   PO4 4011   3.332   9.902   3.852 -0.0868  0.0777 -0.1578
  309POPC   GL1 4012   3.581   9.952   4.205  0.0024  0.2819  0.1699
  309POPC   GL2 4013   3.471  10.336   4.288 -0.3466  0.1540 -0.1483
  309POPC   C1A 4014   3.874  10.115   4.506  0.2215 -0.0978  0.0006
  309POPC   D2A 4015   3.893   9.964   4.895  0.1654 -0.1347 -0.1309
  309POPC   C3A 4016   4.219   9.647   4.973 -0.0653 -0.1387  0.1778
  309POPC   C4A 4017   4.260   9.269   4.848  0.2863 -0.0361  0.1774
  309POPC   C1B 4018   3.375  10.596   4.641  0.1595  0.3550  0.0537
  309POPC   C2B 4019   3.273  10.879   4.797  0.1405 -0.4043 -0.0321
  309POPC   C3B 4020   3.394  10.874   5.225 -0.1834 -0.4445 -0.1095
  309POPC   C4B 4021   3.263  10.542   5.509  0.2280 -0.4290  0.0051
  310POPC   NC3 4022   5.762   3.703   3.675  0.2385  0.1910 -0.1329
  310POPC   PO4 4023   5.449   3.555   3.898  0.3399 -0.1026  0.1215
  310POPC   GL1 4024   5.606   3.462   4.259  0.0184 -0.3565  0.0403
  310POPC   GL2 4025   5.592   3.061   4.340  0.1801 -0.0966 -0.1354
  310POPC   C1A 4026   5.618   3.476   4.647 -0.0646 -0.0914 -0.1211
  310POPC   D2A 4027   5.474   3.426   5.030 -0.0783  0.0515  0.0558
  310POPC   C3A 4028   5.601   3.162   5.295 -0.3459 -0.1912  0.0897
  310POPC   C4A 4029   5.622   2.853   5.563  0.1002 -0.0632 -0.1884
  310POPC   C1B 4030   5.682   2.806   4.627  0.2736 -0.1159 -0.0213
  310POPC   C2B 4031   5.906   2.765   5.040  0.0205 -0.1905  0.1451
  310POPC   C3B 4032   5.903   2.510   5.325 -0.2299 -0.2692 -0.2179
  310POPC   C4B 4033   6.251   2.226   5.413 -0.0332  0.1859 -0.1729
  311POPC   NC3 4034  10.351   4.706   4.126 -0.0254 -0.0750  0.0506
  311POPC   PO4 4035  10.311   4.832   4.541  0.1540  0.2761 -0.0542
  311POPC   GL1 4036  10.418   5.160   4.891  0.0492  0.2859 -0.4145
  311POPC   GL2 4037  10.496   4.860   5.077  0.0781 -0.1256 -0.0998
  311POPC   C1A 4038  10.206   5.457   5.125 -0.3383 -0.0629  0.0238
  311POPC   D2A 4039   9.952   5.512   5.526 -0.1511 -0.0743 -0.0286
  311POPC   C3A 4040  10.057   5.298   5.848  0.1012  0.0404 -0.3390
  311POPC   C4A 4041  10.244   5.091   6.246  0.1925 -0.1729 -0.0141
  311POPC   C1B 4042  10.353   5.024   5.456 -0.1795 -0.0210  0.1490
  311POPC   C2B 4043  10.520   4.993   5.895 -0.1548 -0.1936 -0.0866
  311POPC   C3B 4044  10.792   5.097   6.254  0.0522 -0.3270  0.2645
  311POPC   C4B 4045  10.726   4.978   6.701  0.0113 -0.1320  0.1225
  312POPC   NC3 4046   9.593   2.824   4.039 -0.4016 -0.2723  0.4273
  312POPC   PO4 4047   9.291   2.706   3.754  0.0893  0.0550  0.0355
  312POPC   GL1 4048   9.151   2.593   4.276 -0.1065  0.2078  0.0994
  312POPC   GL2 4049   8.867   2.788   4.395  0.0982 -0.0061  0.0385
  312POPC   C1A 4050   8.863   2.332   4.480 -0.1518 -0.1350  0.0500
  312POPC   D2A 4051   8.559   2.025   4.711  0.0660 -0.1022 -0.0279
  312POPC   C3A 4052   8.281   2.010   5.004  0.0854 -0.0629 -0.2648
  312POPC   C4A 4053   8.033   2.338   5.252  0.0434  0.1763 -0.3092
  312POPC   C1B 4054   8.875   2.781   4.783 -0.1158  0.1743 -0.2801
  312POPC   C2B 4055   9.162   2.707   5.053  0.0621 -0.4276 -0.0215
  312POPC   C3B 4056   9.471   2.715   5.419 -0.1271  0.2129  0.1298
  312POPC   C4B 4057   9.736   2.605   5.781  0.1235  0.2796 -0.0229
  313POPC   NC3 4058   4.702   8.560   3.843 -0.2138  0.0529 -0.1026
  313POPC   PO4 4059   4.490   8.168   4.061  0.0002 -0.1165  0.2398
  313POPC   GL1 4060   4.525   8.535   4.304  0.1878  0.1638 -0.2311
  313POPC   GL2 4061   4.739   8.388   4.579 -0.1934 -0.4921  0.1516
  313POPC   C1A 4062   4.411   8.817   4.707 -0.2006 -0.0412 -0.1582
  313POPC   D2A 4063   4.067   8.801   4.941  0.0238 -0.3593  0.2373
  313POPC   C3A 4064   3.992   9.099   5.235 -0.2935 -0.3688 -0.1677
  313POPC   C4A 4065   4.082   9.531   5.477 -0.2037  0.3125 -0.0240
  313POPC   C1B 4066   4.893   8.611   5.080 -0.0753  0.3065  0.0673
  313POPC   C2B 4067   5.027   8.911   5.307 -0.2113 -0.3060 -0.1227
  313POPC   C3B 4068   5.244   9.340   5.584 -0.0874  0.1466 -0.1383
  313POPC   C4B 4069   5.500   9.430   5.937 -0.1208  0.0882  0.0656
  314POPC   NC3 4070   2.807   0.794   3.287  0.2885 -0.0859  0.0467
  314POPC   PO4 4071   2.605   1.062   3.574 -0.0859 -0.1755  0.0406
  314POPC   GL1 4072   2.590   1.065   3.989  0.0664  0.0422 -0.0652
  314POPC   GL2 4073   2.401   0.733   4.145 -0.2035 -0.1401  0.2784
  314POPC   C1A 4074   2.652   1.099   4.455 -0.3623  0.1256 -0.4317
  314POPC   D2A 4075   2.685   1.184   4.853 -0.1250 -0.1531 -0.0100
  314POPC   C3A 4076   2.367   1.242   5.149  0.2372  0.1936 -0.2309
  314POPC   C4A 4077   2.241   1.086   5.559 -0.0084 -0.2056  0.1012
  314POPC   C1B 4078   2.672   0.526   4.410 -0.0668  0.0559  0.2974
  314POPC   C2B 4079   2.763   0.290   4.810 -0.0301 -0.0633 -0.2122
  314POPC   C3B 4080   2.726   0.251   5.266 -0.0419  0.0051  0.1992
  314POPC   C4B 4081   2.970   0.287   5.584 -0.2782 -0.2714 -0.1469
  315POPC   NC3 4082   2.603   1.536   3.578  0.2686 -0.1012  0.0034
  315POPC   PO4 4083   3.013   1.357   3.748 -0.0720 -0.2611  0.0935
  315POPC   GL1 4084   3.021   1.353   4.025 -0.0904 -0.0432 -0.3799
  315POPC   GL2 4085   2.780   1.470   4.208 -0.0725  0.1042  0.1429
  315POPC   C1A 4086   3.145   1.324   4.547 -0.0187  0.0665  0.0684
  315POPC   D2A 4087   3.265   1.664   4.851  0.0006 -0.3252 -0.2235
  315POPC   C3A 4088   3.446   1.502   5.312  0.0558 -0.1035 -0.0424
  315POPC   C4A 4089   3.632   1.218   5.391 -0.2460  0.3391 -0.1283
  315POPC   C1B 4090   2.707   1.670   4.549  0.3055 -0.1654 -0.1243
  315POPC   C2B 4091   2.711   1.634   5.014 -0.1212 -0.1867 -0.2183
  315POPC   C3B 4092   2.613   1.534   5.527  0.1185  0.1399  0.0791
  315POPC   C4B 4093   2.464   1.836   5.914 -0.1772 -0.1407  0.2225
  316POPC   NC3 4094   7.713   5.402   3.998 -0.2856 -0.0081  0.1029
  316POPC   PO4 4095   7.445   5.650   4.203 -0.1093  0.0940 -0.1559
  316POPC   GL1 4096   7.501   5.668   4.569 -0.0849 -0.0937  0.0583
  316POPC   GL2 4097   7.282   5.375   4.736 -0.1584 -0.1537 -0.0179
  316POPC   C1A 4098   7.717   5.946   4.753 -0.1344  0.2430  0.1807
  316POPC   D2A 4099   7.653   6.234   5.040 -0.0468 -0.1661  0.3874
  316POPC   C3A 4100   7.658   6.192   5.478 -0.0939 -0.0873  0.1197
  316POPC   C4A 4101   7.391   6.121   5.634 -0.0583 -0.3386 -0.1179
  316POPC   C1B 4102   6.919   5.556   5.095 -0.1710  0.1067  0.1037
  316POPC   C2B 4103   6.920   5.636   5.433 -0.2451  0.2767  0.2383
  316POPC   C3B 4104   7.177   5.617   5.807  0.0708  0.1867  0.0460
  316POPC   C4B 4105   7.386   5.743   6.120  0.4603  0.1077  0.0989
  317POPC   NC3 4106   3.868   1.232   3.842 -0.2304 -0.1401 -0.2121
  317POPC   PO4 4107   4.026   1.598   3.779  0.0095 -0.1223 -0.2012
  317POPC   GL1 4108   4.041   1.866   4.201 -0.0001  0.2556  0.2969
  317POPC   GL2 4109   3.899   1.640   4.281  0.1672 -0.2969 -0.1742
  317POPC   C1A 4110   4.317   2.014   4.611  0.4045 -0.1199  0.0761
  317POPC   D2A 4111   4.194   2.229   4.935 -0.0105  0.0694  0.2911
  317POPC   C3A 4112   4.495   2.149   5.229  0.2672  0.2937 -0.2036
  317POPC   C4A 4113   4.575   1.997   5.608  0.1021  0.0917  0.0504
  317POPC   C1B 4114   4.149   1.571   4.664  0.0413  0.3380 -0.2094
  317POPC   C2B 4115   4.345   1.550   4.959  0.1772  0.1868  0.1584
  317POPC   C3B 4116   4.500   1.637   5.283 -0.4033 -0.0333 -0.3618
  317POPC   C4B 4117   4.652   1.204   5.538  0.4797  0.0306  0.0349
  318POPC   NC3 4118   0.389   2.978   3.690 -0.2126 -0.1046  0.0998
  318POPC   PO4 4119   0.552   2.749   3.920  0.0610  0.2449 -0.1098
  318POPC   GL1 4120   0.582   2.681   4.324  0.4131  0.2270 -0.3225
  318POPC   GL2 4121   0.588   2.957   4.487 -0.2398 -0.0460  0.3053
  318POPC   C1A 4122   0.501   2.334   4.636  0.4041 -0.3345  0.2221
  318POPC   D2A 4123   0.463   2.048   4.876 -0.2082  0.0965 -0.1112
  318POPC   C3A 4124   0.775   1.959   5.197 -0.3507  0.2044  0.2165
  318POPC   C4A 4125   1.032   1.751   5.501 -0.1048  0.2575 -0.0602
  318POPC   C1B 4126   0.713   2.879   4.865 -0.0473 -0.2205 -0.0466
  318POPC   C2B 4127   0.897   2.989   5.305  0.2131 -0.0707 -0.2470
  318POPC   C3B 4128   0.755   3.107   5.665 -0.3580  0.1059  0.0126
  318POPC   C4B 4129   0.652   3.466   5.720  0.0991  0.1302 -0.1519
  319POPC   NC3 4130   6.151   4.473   4.040 -0.0544 -0.0665 -0.1665
  319POPC   PO4 4131   5.733   4.536   4.238 -0.2736  0.1813  0.0819
  319POPC   GL1 4132   5.570   4.360   4.593  0.0047  0.0961 -0.2001
  319POPC   GL2 4133   5.210   4.347   4.557 -0.5011  0.1238 -0.2586
  319POPC   C1A 4134   5.595   4.135   4.945 -0.2354 -0.0979 -0.0771
  319POPC   D2A 4135   5.556   4.218   5.357 -0.2252 -0.0255  0.0813
  319POPC   C3A 4136   5.636   4.494   5.572  0.0665  0.1096 -0.1171
  319POPC   C4A 4137   5.429   4.589   5.900 -0.0915 -0.2969 -0.1183
  319POPC   C1B 4138   5.017   4.287   4.907  0.1452  0.1603  0.0140
  319POPC   C2B 4139   4.743   4.385   5.101  0.0212 -0.2970 -0.1411
  319POPC   C3B 4140   4.426   4.309   5.288 -0.1237  0.1747  0.0866
  319POPC   C4B 4141   4.199   4.109   5.684 -0.0846 -0.1746 -0.1457
  320POPC   NC3 4142   4.936   5.121   4.017  0.1345  0.0472  0.0538
  320POPC   PO4 4143   4.977   4.765   4.252 -0.1367 -0.0742  0.2643
  320POPC   GL1 4144   5.082   4.857   4.659  0.0960  0.0461  0.1535
  320POPC   GL2 4145   5.514   4.874   4.653  0.2723  0.1598 -0.1098
  320POPC   C1A 4146   4.994   4.815   5.129 -0.1497  0.0356 -0.4909
  320POPC   D2A 4147   5.128   4.536   5.471 -0.0494 -0.4131 -0.0131
  320POPC   C3A 4148   4.882   4.274   5.654  0.3538 -0.5658  0.0790
  320POPC   C4A 4149   5.144   3.908   5.621 -0.4648  0.3129  0.1154
  320POPC   C1B 4150   5.556   4.640   5.017 -0.1959 -0.0165 -0.0059
  320POPC   C2B 4151   5.563   4.993   5.437  0.0329  0.0216 -0.3238
  320POPC   C3B 4152   5.642   5.317   5.520 -0.3590  0.0577 -0.0236
  320POPC   C4B 4153   5.326   5.560   5.631  0.1038 -0.0694  0.0671
  321POPC   NC3 4154   1.031   5.520   4.368  0.4035 -0.1773  0.0749
  321POPC   PO4 4155   1.232   5.920   4.377 -0.0184  0.0053 -0.1747
  321POPC   GL1 4156   1.191   5.849   4.741 -0.2795 -0.0210 -0.3174
  321POPC   GL2 4157   0.972   5.740   4.761 -0.0486  0.1899 -0.4267
  321POPC   C1A 4158   1.240   6.030   5.143 -0.4465 -0.0455  0.2668
  321POPC   D2A 4159   1.249   6.006   5.582  0.0765  0.2046  0.2365
  321POPC   C3A 4160   1.570   5.751   5.589 -0.1199  0.1052 -0.2505
  321POPC   C4A 4161   1.863   5.575   5.741  0.1953  0.1125  0.4976
  321POPC   C1B 4162   0.802   5.831   5.215  0.0446 -0.0396  0.1734
  321POPC   C2B 4163   0.858   5.695   5.661 -0.0926  0.1714 -0.1052
  321POPC   C3B 4164   1.240   5.710   6.011 -0.1456  0.0249  0.3409
  321POPC   C4B 4165   1.606   5.477   6.126  0.2298 -0.3010 -0.3633
  322POPC   NC3 4166   7.973   1.910   3.380 -0.0282 -0.1328 -0.2186
  322POPC   PO4 4167   7.875   1.423   3.367 -0.1600  0.0069  0.3572
  322POPC   GL1 4168   7.891   1.253   3.731 -0.0779 -0.2861  0.3407
  322POPC   GL2 4169   7.744   0.956   3.842 -0.2869 -0.1109 -0.2498
  322POPC   C1A 4170   8.021   1.391   4.195 -0.2377  0.1421  0.0547
  322POPC   D2A 4171   7.978   1.081   4.564 -0.1759  0.0684 -0.1359
  322POPC   C3A 4172   8.062   1.063   4.930 -0.1010  0.6194 -0.1432
  322POPC   C4A 4173   8.362   0.971   5.260  0.0107 -0.0594 -0.2788
  322POPC   C1B 4174   7.941   0.586   3.948 -0.2852 -0.1774  0.0800
  322POPC   C2B 4175   8.130   0.347   4.263 -0.0420 -0.1685 -0.0197
  322POPC   C3B 4176   8.419   0.283   4.613  0.2034 -0.2484 -0.0177
  322POPC   C4B 4177   8.659   0.187   4.963  0.1111 -0.0997  0.1592
  323POPC   NC3 4178   9.583   1.704   4.005 -0.2653 -0.2260  0.0664
  323POPC   PO4 4179   9.864   1.947   4.147  0.1654  0.1412  0.2673
  323POPC   GL1 4180   9.792   1.559   4.435  0.0962 -0.0208  0.0908
  323POPC   GL2 4181   9.620   1.239   4.272 -0.1391 -0.4317  0.2919
  323POPC   C1A 4182   9.711   1.317   4.944  0.0310 -0.0345  0.3589
  323POPC   D2A 4183   9.623   1.230   5.462 -0.1349  0.0031  0.1150
  323POPC   C3A 4184   9.455   1.554   5.781 -0.0212  0.0845 -0.1306
  323POPC   C4A 4185   9.158   1.743   6.162  0.0816 -0.0735 -0.2985
  323POPC   C1B 4186   9.370   1.316   4.571 -0.0618  0.0483  0.2995
  323POPC   C2B 4187   9.140   1.207   4.948  0.1656  0.1635  0.1600
  323POPC   C3B 4188   8.886   0.916   5.140 -0.1039 -0.0690  0.2752
  323POPC   C4B 4189   8.692   0.531   5.309  0.0714  0.4031  0.1300
  324POPC   NC3 4190   7.082   1.785   3.861  0.3949  0.1490 -0.0405
  324POPC   PO4 4191   7.394   2.135   3.786  0.0879  0.4507  0.2484
  324POPC   GL1 4192   7.341   2.062   4.314  0.2175 -0.0710  0.2482
  324POPC   GL2 4193   7.297   1.735   4.323 -0.1225  0.1258 -0.2004
  324POPC   C1A 4194   7.372   1.846   4.797 -0.0614 -0.2073 -0.1142
  324POPC   D2A 4195   7.351   1.634   5.319  0.0274  0.3103  0.2329
  324POPC   C3A 4196   6.953   1.582   5.575 -0.0893 -0.1528 -0.1594
  324POPC   C4A 4197   6.570   1.750   5.865 -0.1411  0.0199  0.1567
  324POPC   C1B 4198   6.934   1.631   4.565 -0.0174  0.3498  0.0261
  324POPC   C2B 4199   6.780   1.793   4.970  0.0117  0.3483  0.4997
  324POPC   C3B 4200   7.010   1.908   5.193 -0.0699 -0.0058 -0.1838
  324POPC   C4B 4201   7.230   2.140   5.590  0.1297 -0.1588  0.0468
  325POPC   NC3 4202   4.017   5.906   4.568  0.1421 -0.0424  0.0398
  325POPC   PO4 4203   4.344   5.567   4.558 -0.2417  0.3451  0.2550
  325POPC   GL1 4204   4.419   5.793   4.936 -0.0687  0.0132  0.2468
  325POPC   GL2 4205   4.052   6.035   5.048 -0.2598 -0.0476 -0.1208
  325POPC   C1A 4206   4.661   5.770   5.212 -0.1324 -0.1350  0.0987
  325POPC   D2A 4207   4.983   5.915   5.496  0.0580 -0.4098 -0.0213
  325POPC   C3A 4208   4.836   6.241   5.765 -0.0656 -0.1404  0.1447
  325POPC   C4A 4209   4.494   6.228   5.940 -0.1259 -0.0452 -0.2282
  325POPC   C1B 4210   3.922   6.086   5.388 -0.1485  0.2310 -0.0674
  325POPC   C2B 4211   4.000   6.038   5.860 -0.2543 -0.2691 -0.0657
  325POPC   C3B 4212   4.320   5.786   6.171  0.2903 -0.1112 -0.0132
  325POPC   C4B 4213   4.606   5.595   6.581  0.0447  0.1661  0.1365
  326POPC   NC3 4214   0.104   3.693   4.014 -0.1406  0.0871 -0.0723
  326POPC   PO4 4215   0.448   3.472   3.858 -0.5536 -0.0377 -0.0048
  326POPC   GL1 4216   0.451   3.465   4.340  0.3967 -0.1683  0.4774
  326POPC   GL2 4217   0.675   3.432   4.411 -0.1333 -0.2355  0.0166
  326POPC   C1A 4218   0.290   3.282   4.696  0.0197  0.3073 -0.2266
  326POPC   D2A 4219   0.338   3.355   5.283  0.1025 -0.0196  0.3828
  326POPC   C3A 4220   0.110   3.185   5.568  0.0576 -0.0842  0.1700
  326POPC   C4A 4221  -0.056   2.758   5.505 -0.1537 -0.0096 -0.2770
  326POPC   C1B 4222   0.806   3.367   4.776  0.2577 -0.1535 -0.0327
  326POPC   C2B 4223   0.887   3.531   5.211 -0.0801 -0.1799  0.0678
  326POPC   C3B 4224   1.174   3.446   5.609  0.3498  0.1728 -0.0870
  326POPC   C4B 4225   1.658   3.296   5.660  0.0454  0.1185  0.0625
  327POPC   NC3 4226   2.118   1.202   3.791  0.2982  0.2364  0.0097
  327POPC   PO4 4227   2.165   1.715   3.771  0.0656  0.3912 -0.0297
  327POPC   GL1 4228   2.082   2.066   4.105  0.0110  0.0428  0.2095
  327POPC   GL2 4229   1.747   1.906   4.242 -0.1119  0.3436  0.0478
  327POPC   C1A 4230   2.147   2.115   4.489 -0.0925 -0.2142 -0.1064
  327POPC   D2A 4231   1.888   1.943   4.734  0.0544  0.2799  0.0514
  327POPC   C3A 4232   1.940   2.129   5.120 -0.1868  0.0307  0.2678
  327POPC   C4A 4233   1.877   2.471   5.429  0.0640  0.4966 -0.2080
  327POPC   C1B 4234   1.803   1.524   4.532  0.1692 -0.1428 -0.0633
  327POPC   C2B 4235   1.757   1.416   4.922  0.2879  0.1309  0.2453
  327POPC   C3B 4236   1.636   1.708   5.264 -0.2369  0.0811  0.2024
  327POPC   C4B 4237   1.641   1.637   5.700  0.1569  0.4318  0.1720
  328POPC   NC3 4238   8.672   6.717   3.894 -0.0934  0.0574 -0.0582
  328POPC   PO4 4239   9.014   6.615   3.876 -0.1464 -0.1987  0.0054
  328POPC   GL1 4240   9.048   6.497   4.342 -0.0998  0.0402  0.1830
  328POPC   GL2 4241   8.881   6.581   4.503  0.2186  0.0254 -0.0917
  328POPC   C1A 4242   9.257   6.476   4.790  0.3661  0.0315  0.0258
  328POPC   D2A 4243   9.475   6.370   5.223 -0.2311  0.1051 -0.0266
  328POPC   C3A 4244   9.284   6.279   5.663 -0.0933 -0.0279  0.0085
  328POPC   C4A 4245   9.563   6.310   6.054  0.0600  0.0009  0.0288
  328POPC   C1B 4246   8.808   6.590   4.981 -0.3625 -0.0908  0.0671
  328POPC   C2B 4247   8.608   6.626   5.351 -0.0174 -0.3299  0.0125
  328POPC   C3B 4248   8.608   6.617   5.766 -0.2058 -0.0092 -0.3105
  328POPC   C4B 4249   8.855   6.310   6.082  0.1543 -0.0298  0.0406
  329POPC   NC3 4250  10.210   7.937   3.841 -0.3617  0.1056  0.1738
  329POPC   PO4 4251  10.161   8.324   4.121 -0.0881  0.0684  0.0903
  329POPC   GL1 4252   9.919   8.407   4.462 -0.1579 -0.0261 -0.0313
  329POPC   GL2 4253  10.010   8.724   4.342  0.2892 -0.6486 -0.0204
  329POPC   C1A 4254   9.744   8.401   4.891 -0.1222 -0.0234  0.1934
  329POPC   D2A 4255   9.674   8.294   5.268  0.1740  0.3352 -0.0262
  329POPC   C3A 4256   9.486   7.918   5.499 -0.2667 -0.1187  0.0965
  329POPC   C4A 4257   9.464   7.656   5.700  0.2419 -0.2016 -0.2247
  329POPC   C1B 4258  10.045   8.769   4.898  0.1593  0.1530 -0.2366
  329POPC   C2B 4259   9.922   8.742   5.254  0.1218 -0.1195 -0.1690
  329POPC   C3B 4260   9.677   8.998   5.496  0.2222  0.0249  0.0141
  329POPC   C4B 4261   9.556   9.112   5.875 -0.1586  0.3099  0.2211
  330POPC   NC3 4262  10.122   0.440   3.515  0.1380 -0.0779 -0.0192
  330POPC   PO4 4263  10.445   0.765   3.784  0.2058 -0.0015  0.2731
  330POPC   GL1 4264  10.559   0.619   4.177  0.0237 -0.1714 -0.3996
  330POPC   GL2 4265  10.296   0.658   4.418  0.4906  0.2975  0.1174
  330POPC   C1A 4266  10.748   0.594   4.561  0.0232 -0.0630 -0.0702
  330POPC   D2A 4267  10.909   0.856   4.902  0.0274  0.0062 -0.0073
  330POPC   C3A 4268  11.353   1.018   4.913  0.2257 -0.0254  0.3291
  330POPC   C4A 4269  11.480   0.938   5.218 -0.1763 -0.0038  0.0552
  330POPC   C1B 4270  10.133   0.389   4.805  0.0777 -0.1060 -0.0865
  330POPC   C2B 4271  10.150   0.353   5.305 -0.4714 -0.0279  0.1188
  330POPC   C3B 4272  10.220   0.554   5.661 -0.1478  0.1505  0.2393
  330POPC   C4B 4273  10.679   0.637   5.930 -0.2840  0.2528  0.0144
  331POPC   NC3 4274   5.752   9.363   3.182 -0.0526  0.1507  0.1943
  331POPC   PO4 4275   5.447   9.373   3.467  0.0788  0.1301 -0.0916
  331POPC   GL1 4276   5.469   9.447   3.977  0.2164  0.3234 -0.1693
  331POPC   GL2 4277   5.572   9.806   3.962  0.1074  0.0783  0.0649
  331POPC   C1A 4278   5.294   9.159   4.405  0.0356  0.0504 -0.0849
  331POPC   D2A 4279   5.402   9.060   4.913  0.0349 -0.1118  0.1405
  331POPC   C3A 4280   5.532   9.289   5.220  0.0405  0.1242  0.0246
  331POPC   C4A 4281   5.812   9.662   5.321 -0.0507 -0.2406 -0.1115
  331POPC   C1B 4282   5.418  10.019   4.307  0.1466  0.1599  0.3355
  331POPC   C2B 4283   5.292  10.352   4.497  0.0332  0.1341 -0.1707
  331POPC   C3B 4284   5.088  10.703   4.661  0.1210 -0.0587  0.0324
  331POPC   C4B 4285   5.131  11.128   4.534  0.1168 -0.2715  0.0874
  332POPC   NC3 4286   5.252   0.193   3.655  0.1940  0.0063  0.2492
  332POPC   PO4 4287   4.889   0.202   3.938 -0.2995 -0.0468 -0.3325
  332POPC   GL1 4288   4.712   0.116   4.310  0.1413  0.0409 -0.1856
  332POPC   GL2 4289   4.702  -0.192   4.397  0.0256 -0.2652  0.0226
  332POPC   C1A 4290   4.345   0.224   4.588 -0.0229  0.0353 -0.0817
  332POPC   D2A 4291   3.986  -0.016   4.722 -0.0418  0.3666  0.0540
  332POPC   C3A 4292   4.225  -0.250   5.030  0.0386 -0.0858 -0.3880
  332POPC   C4A 4293   4.216  -0.660   5.334 -0.2257 -0.1394  0.0532
  332POPC   C1B 4294   4.731  -0.176   4.883 -0.2517 -0.1816 -0.0988
  332POPC   C2B 4295   4.697  -0.213   5.256 -0.2369  0.2685  0.0705
  332POPC   C3B 4296   4.537  -0.249   5.656 -0.0917 -0.0142  0.0907
  332POPC   C4B 4297   4.435   0.038   5.955 -0.0607 -0.3687 -0.0778
  333POPC   NC3 4298   9.462   7.282   4.156 -0.1227 -0.1371 -0.1023
  333POPC   PO4 4299   9.094   7.012   4.176  0.1564  0.1306  0.1032
  333POPC   GL1 4300   8.972   7.240   4.495  0.2082 -0.2522 -0.1358
  333POPC   GL2 4301   8.773   7.018   4.724 -0.0416  0.0529  0.3859
  333POPC   C1A 4302   9.038   7.564   4.818 -0.0874  0.1474 -0.2439
  333POPC   D2A 4303   9.101   7.456   5.199  0.3000  0.0300  0.1358
  333POPC   C3A 4304   8.854   7.626   5.429 -0.0135 -0.0511 -0.0559
  333POPC   C4A 4305   8.670   7.946   5.222  0.0456  0.1666 -0.1491
  333POPC   C1B 4306   8.514   7.362   4.924  0.2146 -0.0792  0.1723
  333POPC   C2B 4307   8.369   7.572   5.261  0.1845 -0.0633  0.0034
  333POPC   C3B 4308   7.925   7.659   5.533 -0.0270  0.1952 -0.1067
  333POPC   C4B 4309   7.631   7.519   5.806 -0.0568  0.2697 -0.1733
  334POPC   NC3 4310   6.804   4.376   3.776  0.1811 -0.0909  0.0066
  334POPC   PO4 4311   6.460   4.124   3.746  0.2043  0.1246 -0.1174
  334POPC   GL1 4312   6.450   4.116   4.182  0.0259 -0.0743  0.1044
  334POPC   GL2 4313   6.807   4.212   4.326 -0.0134  0.0821  0.1112
  334POPC   C1A 4314   6.371   4.050   4.698  0.3912  0.5954  0.3289
  334POPC   D2A 4315   6.505   4.153   5.057 -0.0115 -0.2156  0.1970
  334POPC   C3A 4316   6.393   4.354   5.421 -0.0089  0.1320  0.0622
  334POPC   C4A 4317   6.150   4.516   5.746 -0.0069 -0.1462  0.1318
  334POPC   C1B 4318   6.833   3.945   4.664  0.0061 -0.1611 -0.1200
  334POPC   C2B 4319   6.909   3.832   5.099  0.0098  0.1349  0.3334
  334POPC   C3B 4320   6.885   3.907   5.434 -0.2938  0.0402 -0.2283
  334POPC   C4B 4321   6.553   3.899   5.669  0.2179  0.3452 -0.0796
  335POPC   NC3 4322   9.965   5.872   3.597 -0.3949 -0.0858  0.2976
  335POPC   PO4 4323   9.780   5.908   4.073 -0.1660 -0.3563  0.0634
  335POPC   GL1 4324   9.930   5.911   4.454  0.2246 -0.0551 -0.0851
  335POPC   GL2 4325   9.844   6.119   4.650 -0.4130  0.1012  0.0918
  335POPC   C1A 4326  10.246   5.920   4.810 -0.1589  0.1437  0.0319
  335POPC   D2A 4327  10.400   5.925   5.031  0.1203 -0.0844  0.1978
  335POPC   C3A 4328  10.544   6.291   5.296 -0.1523 -0.1053  0.1100
  335POPC   C4A 4329  10.569   6.710   5.178  0.2152  0.1414 -0.2077
  335POPC   C1B 4330   9.841   5.960   5.142 -0.1503  0.2403  0.1713
  335POPC   C2B 4331  10.186   5.935   5.466  0.1164 -0.2382  0.0037
  335POPC   C3B 4332  10.193   5.848   5.833 -0.1166 -0.1085  0.3100
  335POPC   C4B 4333  10.200   5.598   6.256 -0.0936 -0.1537 -0.1023
  336POPC   NC3 4334   7.784   7.049   3.849 -0.1672 -0.0725 -0.0296
  336POPC   PO4 4335   7.712   7.458   3.737 -0.0945 -0.0065  0.0271
  336POPC   GL1 4336   7.682   7.630   4.205 -0.2349  0.1751 -0.1277
  336POPC   GL2 4337   7.889   7.864   4.441  0.1376 -0.2468  0.0811
  336POPC   C1A 4338   7.311   7.716   4.546  0.0643 -0.3299  0.1633
  336POPC   D2A 4339   6.902   7.567   4.816 -0.1046  0.1699 -0.1639
  336POPC   C3A 4340   6.942   7.547   5.336  0.1159 -0.2993  0.0648
  336POPC   C4A 4341   6.970   7.564   5.715  0.0642 -0.3248  0.0171
  336POPC   C1B 4342   7.729   7.509   4.729 -0.3131  0.3142  0.1382
  336POPC   C2B 4343   7.924   7.286   5.032 -0.0152  0.1385  0.0444
  336POPC   C3B 4344   7.662   7.177   5.395 -0.0175  0.2325  0.2964
  336POPC   C4B 4345   7.183   7.017   5.373  0.1835 -0.1179 -0.0642
  337POPC   NC3 4346   4.599   3.417   4.128  0.3716 -0.1606  0.2479
  337POPC   PO4 4347   4.266   3.674   3.945 -0.2750 -0.0271  0.3044
  337POPC   GL1 4348   4.294   3.861   4.394  0.1839  0.1400  0.0678
  337POPC   GL2 4349   4.214   3.528   4.631 -0.1890  0.1158  0.0899
  337POPC   C1A 4350   4.150   3.965   4.847 -0.1525 -0.0687  0.0647
  337POPC   D2A 4351   4.248   3.844   5.291  0.2730 -0.1810  0.0099
  337POPC   C3A 4352   4.090   3.544   5.591 -0.0785 -0.0093  0.0322
  337POPC   C4A 4353   4.103   3.446   5.973 -0.2307 -0.0850 -0.0329
  337POPC   C1B 4354   3.971   3.502   4.943 -0.1557 -0.2075 -0.1257
  337POPC   C2B 4355   3.627   3.652   5.228 -0.4617  0.0987 -0.0573
  337POPC   C3B 4356   3.189   3.482   5.329  0.1253  0.1798 -0.3103
  337POPC   C4B 4357   2.982   3.068   5.439  0.2602  0.1449 -0.2278
  338POPC   NC3 4358   3.434   4.188   3.766  0.0377  0.2947  0.0414
  338POPC   PO4 4359   3.424   3.796   3.707  0.1348 -0.0688  0.5319
  338POPC   GL1 4360   3.255   3.829   4.162  0.0760 -0.2076  0.0043
  338POPC   GL2 4361   3.442   3.673   4.241  0.3849 -0.2247 -0.2304
  338POPC   C1A 4362   3.287   4.143   4.629 -0.2685 -0.1346 -0.0987
  338POPC   D2A 4363   3.308   4.354   5.034 -0.2689  0.0865  0.2796
  338POPC   C3A 4364   3.100   4.457   5.405 -0.0570  0.0035 -0.1192
  338POPC   C4A 4365   3.117   4.211   5.673 -0.2376  0.1496  0.2481
  338POPC   C1B 4366   3.420   3.711   4.769 -0.1539 -0.1184  0.0679
  338POPC   C2B 4367   3.224   3.880   5.099  0.1304  0.0328  0.1814
  338POPC   C3B 4368   2.861   3.832   5.475 -0.1541 -0.1504  0.0325
  338POPC   C4B 4369   2.487   3.874   5.521 -0.1006  0.0078 -0.1691
  339POPC   NC3 4370   1.703   1.535   3.884 -0.1360 -0.0175 -0.4070
  339POPC   PO4 4371   1.557   1.205   3.520 -0.1507 -0.4965 -0.0686
  339POPC   GL1 4372   1.389   1.145   3.955 -0.0614  0.0645 -0.1286
  339POPC   GL2 4373   1.228   0.912   4.137  0.3802 -0.1618  0.0021
  339POPC   C1A 4374   1.535   1.026   4.479  0.2711 -0.1502 -0.0386
  339POPC   D2A 4375   1.606   0.591   4.624 -0.1518 -0.1046  0.1547
  339POPC   C3A 4376   1.814   0.462   4.996 -0.2479  0.0038  0.2607
  339POPC   C4A 4377   2.250   0.386   5.087 -0.0750  0.2665  0.1735
  339POPC   C1B 4378   1.133   0.776   4.516  0.3576 -0.0170 -0.1762
  339POPC   C2B 4379   1.216   0.764   4.920 -0.1841  0.0203  0.0794
  339POPC   C3B 4380   1.522   0.922   5.202 -0.2094  0.0645 -0.1530
  339POPC   C4B 4381   1.770   1.261   5.381 -0.0047  0.1529 -0.3397
  340POPC   NC3 4382   9.699   8.461   3.951  0.4977  0.1607 -0.0397
  340POPC   PO4 4383   9.796   8.029   4.091 -0.0327  0.1110 -0.1749
  340POPC   GL1 4384   9.774   7.913   4.535  0.1989 -0.1787  0.0853
  340POPC   GL2 4385   9.541   7.650   4.490 -0.1248  0.0457 -0.0618
  340POPC   C1A 4386   9.934   7.903   4.955 -0.0628 -0.2057 -0.0596
  340POPC   D2A 4387  10.326   7.990   5.141  0.2336 -0.0943 -0.2435
  340POPC   C3A 4388  10.464   7.919   5.523 -0.3692 -0.2005  0.1056
  340POPC   C4A 4389  10.250   7.935   5.956  0.1047 -0.1634 -0.0841
  340POPC   C1B 4390   9.442   7.851   4.962  0.3578  0.1366  0.0521
  340POPC   C2B 4391   9.167   8.032   5.155 -0.0753 -0.3539  0.4690
  340POPC   C3B 4392   9.012   8.210   5.511 -0.0613  0.0580  0.0026
  340POPC   C4B 4393   8.725   8.360   5.689  0.2108  0.0748  0.2734
  341POPC   NC3 4394   0.326  10.220   3.170  0.0934  0.4172  0.1670
  341POPC   PO4 4395   0.321   9.813   3.484 -0.0715  0.1724  0.2910
  341POPC   GL1 4396   0.277   9.911   3.830 -0.0000  0.0915 -0.3250
  341POPC   GL2 4397   0.111   9.881   4.156 -0.2299 -0.0024  0.1894
  341POPC   C1A 4398   0.339  10.303   4.121  0.1430  0.0913  0.2468
  341POPC   D2A 4399   0.628  10.405   4.523 -0.0053  0.0951  0.3863
  341POPC   C3A 4400   0.526  10.670   4.849 -0.6019 -0.3515  0.0808
  341POPC   C4A 4401   0.756  10.694   5.194 -0.3532  0.1385  0.0323
  341POPC   C1B 4402   0.158   9.570   4.570  0.1767  0.0900  0.2780
  341POPC   C2B 4403   0.489   9.575   4.899  0.0719 -0.1158 -0.2662
  341POPC   C3B 4404   0.816   9.617   5.253  0.1691  0.5095 -0.2410
  341POPC   C4B 4405   0.926   9.712   5.665  0.0621 -0.2127 -0.0732
  342W        W 4406   0.274   7.511   0.179  0.1210  0.0353  0.1353
  343W        W 4407   3.352   6.604   8.948 -0.0686 -0.2960  0.2250
  344W        W 4408   7.443   7.017   7.716  0.1938  0.3018  0.2001
  345W        W 4409   6.321   6.632   2.009 -0.0392  0.2193 -0.0612
  346W        W 4410   4.035   9.887   2.628 -0.1052  0.1694 -0.0243
  347W        W 4411   5.533   7.620   3.130  0.0119  0.0971 -0.0198
  348W        W 4412   4.891   5.620   9.915 -0.1290  0.4670 -0.2689
  349W        W 4413   8.569   1.402   8.944  0.1176 -0.2825 -0.0386
  350W        W 4414   9.073   2.127  10.736  0.2838 -0.1566 -0.0489
  351W        W 4415   7.841   7.597  10.152  0.2956  0.0941 -0.0378
  352W        W 4416   5.050  10.123   1.184 -0.1360 -0.1292 -0.2753
  353W        W 4417   4.707   1.509   2.967 -0.0415  0.0887 -0.0890
  354W        W 4418   4.787   1.572   0.123  0.3116 -0.0923  0.4163
  355W        W 4419  10.456   3.463   0.283 -0.0081 -0.1401  0.1659
  356W        W 4420   4.711   5.120   8.768 -0.1976  0.2351 -0.2332
  357W        W 4421   7.731   2.271   2.201 -0.1527  0.3881  0.0828
  358W        W 4422  10.126   9.358   8.708 -0.3838 -0.0286  0.3502
  359W        W 4423  10.181   2.871   3.615  0.0468 -0.0329  0.2618
  360W        W 4424   6.175   4.193   8.263 -0.0094  0.2559  0.0254
  361W        W 4425   6.828  10.313   1.600  0.1836 -0.3771  0.0124
  362W        W 4426   6.008   1.727   9.858 -0.0565  0.3967  0.0585
  363W        W 4427   0.104   3.744  11.518 -0.0967 -0.1306 -0.2225
  364W        W 4428   3.753   1.937  11.314  0.1886  0.1551 -0.1646
  365W        W 4429   9.233  10.077   8.966  0.2045  0.2171  0.0928
  366W        W 4430   1.110   9.949   1.072 -0.1363 -0.0393 -0.0151
  367W        W 4431   7.219   3.089   9.248 -0.0417 -0.0088  0.1175
  368W        W 4432   5.419   4.144   1.067  0.0487  0.2919  0.1078
  369W        W 4433   9.922   0.118   2.774 -0.1933  0.3797 -0.1518
  370W        W 4434   2.327   1.129   1.183  0.1221 -0.0304  0.2522
  371W        W 4435   7.469   9.264   9.705  0.0392 -0.1331  0.2570
  372W        W 4436   3.730   3.634   2.062  0.2715 -0.0631  0.2248
  373W        W 4437   0.741   7.083   4.728 -0.1300  0.1292  0.4477
  374W        W 4438   3.606   5.413   1.530 -0.0381 -0.0172  0.0748
  375W        W 4439   9.463   9.798   1.096 -0.0519 -0.1142  0.3903
  376W        W 4440   8.628   5.322   1.872  0.0039  0.3495 -0.1544
  377W        W 4441   8.273   2.749   9.856  0.0275  0.0372 -0.2575
  378W        W 4442   0.784   5.379   1.071  0.1944  0.1684 -0.2422
  379W        W 4443   8.006   9.827   8.650  0.4164  0.0944  0.1637
  380W        W 4444   9.010   9.320   3.475  0.0941  0.1774  0.0003
  381W        W 4445   6.680   2.666   2.253  0.2858  0.0737  0.3589
  382W        W 4446   5.569   4.720  10.388  0.1363 -0.1564 -0.1361
  383W        W 4447   0.222   0.846   2.381  0.0630  0.5424 -0.0509
  384W        W 4448   0.217   8.862   7.401  0.0260 -0.1109 -0.1805
  385W        W 4449   9.609   0.512   3.579 -0.0265  0.0841  0.0984
  386W        W 4450   9.903   6.369   3.893  0.2335  0.0441  0.3893
  387W        W 4451   6.519   7.793   1.333 -0.0601  0.1718  0.1326
  388W        W 4452   3.427   5.191   9.906 -0.2669  0.1814 -0.1747
  389W        W 4453   7.876   4.880   8.701 -0.1105 -0.0299  0.1111
  390W        W 4454   6.508   7.616   2.716 -0.1288 -0.1339 -0.1487
  391W        W 4455   8.599   7.050  10.229  0.2546 -0.1519 -0.1599
  392W        W 4456  10.034   2.603   3.087 -0.2313 -0.1201  0.1007
  393W        W 4457   2.364   8.007   8.820 -0.1930 -0.1097  0.0539
  394W        W 4458   2.848   5.373   4.073 -0.0048 -0.2621 -0.1716
  395W        W 4459   7.337   4.621   0.703  0.3805  0.0033 -0.2106
  396W        W 4460   0.532   8.299   2.872 -0.2463  0.3855  0.1146
  397W        W 4461   5.225   4.047  10.581 -0.2174  0.0209 -0.0783
  398W        W 4462   3.456   0.451   1.379 -0.1123  0.1392 -0.2540
  399W        W 4463   8.274   7.521  11.043  0.0632  0.2617  0.1405
  400W        W 4464   5.031   1.699   3.887  0.2983 -0.0263  0.3379
  401W        W 4465   5.261  10.457  10.464  0.1911  0.5363 -0.0229
  402W        W 4466   0.816   0.841   0.034  0.3665 -0.0694 -0.1470
  403W        W 4467   6.342   0.801   9.008 -0.0439  0.0213 -0.3081
  404W        W 4468   3.900   2.947   3.691 -0.3571 -0.1025 -0.0855
  405W        W 4469   0.315   5.641   8.034 -0.0545 -0.0253  0.0966
  406W        W 4470   2.532   6.632   3.499 -0.2716  0.0823 -0.1582
  407W        W 4471   0.653   0.050   1.476  0.1747 -0.2462 -0.0794
  408W        W 4472   2.929   5.211  10.598  0.1156 -0.0251  0.2238
  409W        W 4473   5.688   1.638  11.301  0.0966 -0.3200 -0.0489
  410W        W 4474   3.485   6.138   1.337 -0.4254 -0.0499  0.0031
  411W        W 4475   7.497   7.633   8.811  0.1609 -0.0991  0.1957
  412W        W 4476   1.987   0.683   2.411  0.0453 -0.0507  0.2903
  413W        W 4477   2.275   4.368  10.702  0.0548  0.0359 -0.0582
  414W        W 4478   8.881   7.054   8.828 -0.0615  0.1003  0.2929
  415W        W 4479   4.662   2.395   8.620 -0.0258  0.0394 -0.1892
  416W        W 4480   2.099   3.039   8.613  0.0763 -0.0189 -0.1509
  417W        W 4481   2.577   2.387   0.224 -0.0210  0.0922  0.2053
  418W        W 4482   5.205   3.586   3.370 -0.0922 -0.1181 -0.0252
  419W        W 4483   9.175   0.422   0.030 -0.2002  0.0363 -0.0556
  420W        W 4484   6.517   1.006   3.415 -0.2336  0.1383 -0.1187
  421W        W 4485  10.377   7.754  10.568 -0.1378 -0.2939  0.0640
  422W        W 4486   9.862   9.806   0.828 -0.0921 -0.1232  0.2513
  423W        W 4487   1.028   4.993  10.459  0.0278 -0.2040 -0.5147
  424W        W 4488   0.658  10.210   2.753 -0.0912  0.3259 -0.3004
  425W        W 4489   8.862   9.529   0.477  0.1960 -0.1804 -0.3368
  426W        W 4490   4.762   0.468  11.008 -0.3185  0.0286  0.0531
  427W        W 4491   9.107  10.295   9.977  0.0270 -0.1770  0.0803
  428W        W 4492   4.974   5.279   3.121 -0.1874 -0.1272 -0.1439
  429W        W 4493   6.276   5.492   1.578 -0.0675  0.0394  0.1719
  430W        W 4494   5.550   6.396   9.310 -0.1788 -0.1670  0.1349
  431W        W 4495   0.476   5.721   1.414 -0.0532 -0.1442 -0.1029
  432W        W 4496   0.474   5.315  11.343 -0.1676  0.0070 -0.3112
  433W        W 4497  10.030   4.080   0.508 -0.0847 -0.0669 -0.0256
  434W        W 4498   1.691   4.341   1.257 -0.2867 -0.2956  0.2798
  435W        W 4499   9.332   6.558   1.306  0.0518  0.1407 -0.4590
  436W        W 4500   8.982   3.030  10.570 -0.3832  0.0320 -0.0166
  437W        W 4501   8.539   4.092  11.582  0.1010  0.1963  0.2015
  438W        W 4502  10.448   4.180   1.352  0.0880  0.0117  0.0138
  439W        W 4503   3.814   1.310  10.171  0.0772 -0.0786 -0.1260
  440W        W 4504   1.346   0.453   2.654 -0.2309 -0.2158 -0.0291
  441W        W 4505   5.538   1.484   9.668  0.2125 -0.1430  0.2251
  442W        W 4506   7.378   6.393   9.005 -0.1087  0.0080  0.0207
  443W        W 4507   2.493   9.906   7.456 -0.2814  0.1178 -0.0707
  444W        W 4508   1.051   5.204   2.853  0.3520  0.1454 -0.0872
  445W        W 4509   2.444   7.179   8.679 -0.2329  0.0740  0.0648
  446W        W 4510   0.255   3.680   2.067  0.2531 -0.1245 -0.3145
  447W        W 4511   4.651   8.599   7.518 -0.0424 -0.2000 -0.1085
  448W        W 4512   3.002   8.126   3.165  0.0764 -0.3835  0.0336
  449W        W 4513   2.211   9.704   9.870  0.0324 -0.2150  0.1629
  450W        W 4514   0.169   8.527   8.983 -0.3222 -0.1836 -0.0565
  451W        W 4515   9.440   8.421   8.173 -0.0325 -0.0859 -0.0563
  452W        W 4516   9.322   5.613   8.747  0.1824  0.0373 -0.1805
  453W        W 4517   7.029   4.840   9.957  0.0206  0.1660 -0.0345
  454W        W 4518   2.567   6.087   0.886 -0.2992  0.3155  0.2145
  455W        W 4519   2.667   2.996   2.293 -0.0562  0.1312 -0.0964
  456W        W 4520   5.459   5.040   4.155 -0.1959  0.1017  0.0154
  457W        W 4521   2.624   2.973   1.780 -0.1697  0.2630 -0.2421
  458W        W 4522   1.462  10.501   8.586 -0.2182 -0.2431 -0.1512
  459W        W 4523   7.296  10.195  10.579  0.1723 -0.0169 -0.0229
  460W        W 4524   6.294  10.633   2.467 -0.0376 -0.1421 -0.0179
  461W        W 4525   1.682   1.982   2.743  0.1966  0.1104 -0.1406
  462W        W 4526   2.646  10.420   0.265 -0.2374 -0.0144  0.1551
  463W        W 4527  10.333   7.596  10.084 -0.0301 -0.2757 -0.1731
  464W        W 4528   0.148   2.949   0.972  0.1209 -0.5189  0.1786
  465W        W 4529   5.062   2.027   0.157 -0.2472  0.0439  0.1552
  466W        W 4530   5.629   4.314   9.967 -0.1988  0.0709 -0.0950
  467W        W 4531   3.906   3.331   2.932 -0.1468 -0.1114 -0.1831
  468W        W 4532   5.489   2.494   9.689 -0.1642 -0.0002  0.0279
  469W        W 4533   0.289   9.267   1.523  0.1359  0.2609  0.1039
  470W        W 4534   4.890   3.400   1.148  0.2286 -0.0751 -0.0984
  471W        W 4535   3.378   7.737   8.566 -0.1203  0.0054 -0.0880
  472W        W 4536   3.001   7.769   7.657 -0.0787  0.1245  0.2345
  473W        W 4537   7.926   6.623  11.523  0.2067  0.1165 -0.2015
  474W        W 4538   5.904   7.280   3.215 -0.0774 -0.0640  0.0158
  475W        W 4539   9.453   8.537  11.370 -0.1828 -0.0492  0.0418
  476W        W 4540   5.255   8.682   2.557 -0.0675 -0.0748 -0.3675
  477W        W 4541   8.908   9.268   0.031 -0.2343  0.1666 -0.1623
  478W        W 4542   5.871   5.076   0.396  0.0498  0.4136  0.1488
  479W        W 4543   2.366   8.379  10.232 -0.0215  0.3657 -0.3516
  480W        W 4544   4.629  10.596  11.104  0.2403 -0.1355  0.1937
  481W        W 4545   9.134   9.395  10.380 -0.2093 -0.3676  0.0753
  482W        W 4546   5.024   2.483   3.376  0.3650  0.0337  0.2506
  483W        W 4547   3.814   4.916  11.535  0.0256  0.0401 -0.0109
  484W        W 4548   0.566   3.173   2.766 -0.2203 -0.3209 -0.1022
  485W        W 4549   5.758   4.429   9.435  0.0850 -0.1182 -0.0392
  486W        W 4550   5.028   2.957   1.353 -0.3000  0.0330  0.0496
  487W        W 4551   4.588   0.819   1.830  0.0446  0.0138  0.2345
  488W        W 4552   3.959   3.135  10.936  0.2370  0.0721  0.1897
  489W        W 4553   8.668   6.210   9.675 -0.1477 -0.0717 -0.3472
  490W        W 4554   0.013   6.767   1.744  0.0469  0.3324 -0.1400
  491W        W 4555   4.298   1.557   8.259 -0.0495  0.1052  0.4366
  492W        W 4556   0.620   7.526   9.439 -0.0081 -0.0889  0.1187
  493W        W 4557  10.409   9.403   2.969 -0.2660 -0.3943 -0.0681
  494W        W 4558   9.782   1.005  10.481 -0.3772  0.0707  0.3916
  495W        W 4559   6.103   4.739  11.561 -0.1531  0.2900 -0.1253
  496W        W 4560   2.635   6.120   2.469 -0.0411 -0.0614 -0.0617
  497W        W 4561   4.157   5.730   9.338 -0.0144 -0.1109  0.0010
  498W        W 4562   5.050   1.939  10.808 -0.0942 -0.0469  0.0032
  499W        W 4563   8.083   3.570  11.469 -0.1039  0.0172  0.2079
  500W        W 4564   8.872   9.169   1.224  0.2763 -0.2299 -0.2512
  501W        W 4565   7.812   5.015   2.618  0.0556  0.0423  0.1748
  502W        W 4566   4.664   7.163   3.214 -0.0948  0.0242 -0.0025
  503W        W 4567   0.444   6.099   9.629  0.0961  0.0078  0.0621
  504W        W 4568   8.831   3.440  10.358  0.0818  0.0490  0.0361
  505W        W 4569   1.388   7.511   9.596  0.2649 -0.1343  0.3229
  506W        W 4570   9.376   7.304   2.700 -0.1501 -0.0585 -0.1329
  507W        W 4571   8.731   1.810  11.051  0.5042  0.2200 -0.3948
  508W        W 4572   5.029   1.937   1.311 -0.0477  0.0404 -0.0069
  509W        W 4573   1.094   2.049   8.428 -0.0187 -0.2774 -0.0627
  510W        W 4574   0.306   6.217   0.119  0.0613 -0.1464 -0.1790
  511W        W 4575   0.711   7.539   1.428  0.0420 -0.0213  0.1861
  512W        W 4576   5.226   1.701   1.789  0.0295 -0.0844 -0.0825
  513W        W 4577   2.267   2.037   9.669  0.1329  0.1465  0.0090
  514W        W 4578   4.598   4.023   8.047  0.1019 -0.1425 -0.3098
  515W        W 4579   2.864   8.475  11.589 -0.0209  0.1680 -0.0241
  516W        W 4580   6.050   4.563   9.037 -0.0528 -0.2161  0.0891
  517W        W 4581   9.397   1.558  11.287 -0.0274 -0.2189 -0.2122
  518W        W 4582   1.072   6.159   9.826 -0.2381  0.1257 -0.1241
  519W        W 4583   6.633   3.759  10.637  0.2111 -0.1947 -0.0446
  520W        W 4584   0.031   2.040   2.023 -0.0406 -0.0234  0.1993
  521W        W 4585   1.023   0.463   7.958 -0.3165  0.3082 -0.2026
  522W        W 4586  10.386   9.555  11.269 -0.4787  0.1178 -0.1321
  523W        W 4587   9.965   3.999   1.123  0.1076  0.1204  0.2794
  524W        W 4588   5.768   7.643   9.375  0.0577 -0.1066 -0.2868
  525W        W 4589   2.081   7.591   8.750  0.3044 -0.6430  0.0311
  526W        W 4590   9.071   0.606   1.396 -0.2323 -0.2063 -0.1591
  527W        W 4591   7.211   8.977  11.524 -0.2012  0.0081  0.0280
  528W        W 4592   4.713   2.507   9.127 -0.3021  0.0576 -0.1285
  529W        W 4593   3.100   8.779   8.181 -0.0416  0.0357  0.2859
  530W        W 4594   0.157   0.909   8.965  0.1351 -0.1657  0.2533
  531W        W 4595   4.561   6.616   9.702  0.0023  0.0335  0.1179
  532W        W 4596   3.347   3.114   8.681  0.2065  0.1527  0.2783
  533W        W 4597   4.928   7.184   1.877  0.3306  0.1173 -0.0008
  534W        W 4598   0.418   9.460  10.113 -0.1704  0.2970  0.2973
  535W        W 4599   6.887   5.915   2.081  0.1701 -0.3212 -0.1770
  536W        W 4600   4.983   2.094   0.871  0.2992 -0.0268  0.1415
  537W        W 4601   6.527   9.387   2.106 -0.1264  0.2503  0.0162
  538W        W 4602   4.661   2.724   0.527  0.0316 -0.2118 -0.0911
  539W        W 4603   1.108   3.151   1.964  0.1053 -0.1520 -0.0411
  540W        W 4604   7.572   8.767   8.442  0.0297 -0.1389 -0.0871
  541W        W 4605   5.870   3.568  11.039 -0.0687  0.0046  0.3298
  542W        W 4606   5.278   6.428   8.871  0.0977 -0.2230 -0.0046
  543W        W 4607   2.860   9.646  10.377  0.0900 -0.1660  0.2167
  544W        W 4608   3.887   5.102   5.295 -0.2070  0.0585 -0.0342
  545W        W 4609   4.506   3.149   1.502 -0.0180 -0.0109  0.4508
  546W        W 4610   1.468   8.649   1.642  0.0720 -0.3137  0.1697
  547W        W 4611   7.824   6.080  11.248  0.3213 -0.4282 -0.1525
  548W        W 4612   6.309   3.128   7.579  0.0638  0.1686 -0.0822
  549W        W 4613   6.204   1.480  10.626  0.0136  0.3797 -0.0502
  550W        W 4614   6.518   5.077   8.794  0.1831 -0.1187 -0.2415
  551W        W 4615   0.718   8.579   9.684  0.1290  0.0298 -0.1713
  552W        W 4616   3.722   3.161   1.626  0.0879  0.1322 -0.3073
  553W        W 4617  10.316   9.022   8.394  0.3979  0.0993  0.1097
  554W        W 4618   9.374   1.760  10.358 -0.2896  0.2773  0.1806
  555W        W 4619   0.131   4.771   4.696  0.0169 -0.0749  0.1413
  556W        W 4620   4.578   2.849   4.081 -0.1310  0.3277  0.0066
  557W        W 4621  10.536   7.666   2.682  0.0830 -0.2404  0.2791
  558W        W 4622   8.620   5.731  10.601 -0.0244 -0.2953 -0.0680
  559W        W 4623   0.854   8.400   0.346  0.1918  0.1928 -0.0065
  560W        W 4624   2.261  10.503   7.749 -0.0629 -0.0791  0.1385
  561W        W 4625   8.503   0.856   1.412 -0.1835  0.2291  0.1549
  562W        W 4626   0.574   4.772   9.790 -0.0123  0.0051  0.0767
  563W        W 4627   4.537   4.648   3.663  0.0368 -0.2119  0.1558
  564W        W 4628   9.396   3.528   2.178  0.0944 -0.1590  0.5451
  565W        W 4629   4.148   9.386  10.310 -0.0031  0.0464 -0.1540
  566W        W 4630   2.887   4.025   0.487 -0.1052  0.1983 -0.0374
  567W        W 4631   4.903   5.114   9.463 -0.1868 -0.0639 -0.0291
  568W        W 4632   1.945   6.816   0.498  0.1783 -0.1529  0.0522
  569W        W 4633   1.789   9.969   1.274  0.1514 -0.0147 -0.1981
  570W        W 4634   5.855   7.966   2.435  0.0867 -0.2293  0.2544
  571W        W 4635   0.004   3.376  10.298 -0.0377 -0.0181  0.2056
  572W        W 4636   0.278   6.777   4.143  0.1019  0.2406 -0.4730
  573W        W 4637   4.058   2.128  10.044 -0.1288 -0.1858 -0.2297
  574W        W 4638   4.441   1.594   3.420 -0.2743  0.0082 -0.1483
  575W        W 4639   3.609   7.294  11.000  0.2334  0.1940 -0.3937
  576W        W 4640   6.065   7.007   8.604 -0.1993 -0.1383 -0.1823
  577W        W 4641  10.073   6.245   1.001 -0.1196 -0.2636 -0.2934
  578W        W 4642   5.404   5.071   3.657 -0.6154  0.2941 -0.1977
  579W        W 4643   2.436   6.780  10.267 -0.2218 -0.1573  0.2769
  580W        W 4644  10.153   6.943   7.843 -0.0763  0.0538  0.0171
  581W        W 4645   2.157   8.375   2.121 -0.0962 -0.1564  0.1732
  582W        W 4646   4.055   4.249   2.793  0.3445 -0.1241  0.1671
  583W        W 4647   0.789   0.011   8.836  0.2720  0.3000 -0.2272
  584W        W 4648  10.439   0.852   9.329  0.3752 -0.0179 -0.3149
  585W        W 4649   9.615   3.149   0.463 -0.0162  0.1004  0.0528
  586W        W 4650  10.510   5.726  10.023  0.1583 -0.0571 -0.0255
  587W        W 4651   3.152   0.553   1.787 -0.0436  0.0626  0.0307
  588W        W 4652   8.351  10.154   1.192  0.0134 -0.1353 -0.5220
  589W        W 4653   8.776   2.757   9.504  0.2270  0.1519 -0.0575
  590W        W 4654   6.385   7.931  11.210  0.2424  0.0498 -0.0061
  591W        W 4655   2.275   3.694  11.014 -0.5210  0.0012  0.0864
  592W        W 4656   0.991   1.568   0.650 -0.1374 -0.3038 -0.0486
  593W        W 4657   8.720   1.044  10.317  0.2225  0.1183  0.0746
  594W        W 4658   9.935   9.373  11.595  0.4067 -0.0162  0.4066
  595W        W 4659   9.375   8.425  10.479  0.1191 -0.0736  0.0610
  596W        W 4660   4.633   0.017   0.507 -0.0335  0.2414  0.0994
  597W        W 4661   5.110   3.465   2.586  0.1357  0.0194  0.0608
  598W        W 4662   3.410   2.181   6.975  0.0410  0.0302 -0.5569
  599W        W 4663   2.728   9.195   9.081  0.3862  0.0414  0.0729
  600W        W 4664   1.188   0.272   8.783 -0.3327 -0.2335 -0.2653
  601W        W 4665   9.606   2.209   1.070 -0.2977  0.1544  0.0680
  602W        W 4666   1.976   8.569   3.583 -0.2074 -0.1174 -0.0296
  603W        W 4667   8.602   6.257   0.066  0.1102  0.0636  0.0490
  604W        W 4668   5.380   2.250   1.142 -0.2005 -0.5827 -0.0601
  605W        W 4669   3.961   1.255   1.555  0.2144  0.3495  0.1103
  606W        W 4670   4.286   4.572   9.920  0.1574  0.1299 -0.2230
  607W        W 4671   8.859   5.604   8.542 -0.0124  0.0980 -0.1318
  608W        W 4672   3.929   5.287   9.813  0.0411 -0.1521  0.4254
  609W        W 4673   6.574   0.576  10.099  0.0049 -0.0069  0.0630
  610W        W 4674   0.815   3.714   1.670 -0.2187 -0.0826  0.0471
  611W        W 4675   2.062  10.448   0.387  0.2095  0.0904  0.0559
  612W        W 4676  10.385   1.390   3.603 -0.1397  0.1188 -0.0328
  613W        W 4677   7.470   9.182   0.857 -0.0800  0.0946 -0.2097
  614W        W 4678   4.528   2.333  10.055 -0.1261  0.0363 -0.1518
  615W        W 4679   9.696   3.090   9.864  0.4165 -0.0812  0.0737
  616W        W 4680   5.855  10.158   8.430 -0.1411  0.1395  0.3214
  617W        W 4681   4.960   7.573  11.108 -0.1797 -0.0284 -0.2299
  618W        W 4682   1.158   2.006   0.500 -0.0955 -0.1489 -0.1658
  619W        W 4683   3.530   8.477   9.519 -0.1034 -0.0049 -0.1350
  620W        W 4684   9.894   1.675   8.976  0.1223 -0.4825 -0.0486
  621W        W 4685   5.169   3.953  10.026  0.1527  0.2614  0.1538
  622W        W 4686   8.134   3.080   8.008 -0.3167 -0.0589 -0.1352
  623W        W 4687   6.218   0.995   1.180 -0.1278 -0.0037 -0.1463
  624W        W 4688   7.570   8.365   2.952 -0.0445 -0.4166  0.1445
  625W        W 4689   0.463   4.127   2.426  0.1453 -0.0571 -0.1441
  626W        W 4690   5.704   7.622   0.858  0.2179  0.1051  0.0647
  627W        W 4691   0.545   7.737  10.768 -0.0675  0.0758 -0.0283
  628W        W 4692   4.427   1.958   7.906  0.1887  0.1992  0.0893
  629W        W 4693   0.282   6.149   1.235  0.0922 -0.1363  0.1698
  630W        W 4694   5.597   6.638   1.165  0.0289 -0.2187  0.1514
  631W        W 4695   3.539   7.853   4.209  0.0873 -0.2479  0.1016
  632W        W 4696   5.313   4.609  11.452  0.0629  0.1717 -0.0779
  633W        W 4697   5.882   6.555   8.600 -0.0198  0.0082  0.0527
  634W        W 4698   1.339   9.385  10.080 -0.3075 -0.1625 -0.1677
  635W        W 4699   4.934   9.626   0.455  0.4195  0.3707 -0.3185
  636W        W 4700  10.425   8.118   2.099 -0.0911  0.0387  0.1755
  637W        W 4701   0.656   5.601   0.553 -0.1249  0.1077  0.0660
  638W        W 4702   4.820   5.254  10.283  0.0277  0.2964  0.1770
  639W        W 4703   8.848   8.830   0.823  0.0644  0.1096  0.1834
  640W        W 4704   2.038   1.594  10.053  0.1863  0.0752 -0.2284
  641W        W 4705   7.060   2.038   3.446 -0.2192 -0.1021 -0.0975
  642W        W 4706  10.139  10.072  10.859  0.1948  0.2386 -0.2126
  643W        W 4707   0.580   1.378   9.975 -0.1897  0.3637  0.4059
  644W        W 4708   6.642   7.268   9.539 -0.1922  0.2845 -0.0661
  645W        W 4709   4.090   8.033   9.783  0.1110  0.0566 -0.0760
  646W        W 4710   6.826   8.852   9.022 -0.0894  0.0471 -0.0166
  647W        W 4711   1.338   3.075   9.216 -0.0733  0.1301  0.2630
  648W        W 4712   9.522   0.759   9.182  0.1162 -0.0731  0.0582
  649W        W 4713   1.355   8.001   8.610 -0.0046  0.1827 -0.0389
  650W        W 4714   1.324   1.092   0.847  0.0082  0.2180  0.0058
  651W        W 4715  10.018   2.552   7.196  0.2633  0.3599 -0.2722
  652W        W 4716   4.906   9.818   1.506  0.1387 -0.1621 -0.0056
  653W        W 4717   8.774   1.734   2.951 -0.1202  0.1454 -0.1228
  654W        W 4718   2.945   6.144  11.410 -0.2299  0.1046 -0.2586
  655W        W 4719   0.838   0.399   2.773  0.0012  0.2305 -0.1247
  656W        W 4720   0.252   6.185   9.124 -0.1592  0.0154  0.3418
  657W        W 4721   2.356   7.439   2.257  0.2194  0.2834  0.3802
  658W        W 4722  10.356  10.004   1.722 -0.0962  0.2688  0.0235
  659W        W 4723   9.573   9.279   0.771 -0.1274 -0.3580 -0.1747
  660W        W 4724   0.707   3.798   8.584  0.1173 -0.0173 -0.1428
  661W        W 4725   3.692   5.582   2.910  0.0423 -0.1879  0.0656
  662W        W 4726   6.756   3.157   8.362 -0.1716 -0.0320  0.4620
  663W        W 4727   1.012   4.109   3.236  0.0660  0.1099 -0.0500
  664W        W 4728   4.348   1.927   1.000 -0.1182  0.1654 -0.0009
  665W        W 4729   2.525   3.117   9.921 -0.2436  0.0432  0.0359
  666W        W 4730   1.516   7.684   2.587 -0.1271 -0.2933  0.0644
  667W        W 4731   8.516   3.673   9.560  0.1681  0.0554  0.1012
  668W        W 4732   0.149   1.959   1.557 -0.3085  0.1974 -0.1168
  669W        W 4733   2.955   0.672   3.780 -0.1218 -0.0519  0.0821
  670W        W 4734   0.855   7.967   0.628 -0.2253  0.3193 -0.1756
  671W        W 4735   1.371   9.665   7.305 -0.0943  0.1368  0.0624
  672W        W 4736   7.745   2.224   8.390 -0.2272  0.1907  0.0855
  673W        W 4737   6.849   8.829  11.251 -0.0147  0.2019  0.1417
  674W        W 4738   4.386   7.495   8.703  0.1632 -0.0956 -0.0465
  675W        W 4739   1.696   7.183   2.658  0.2245  0.1468 -0.0202
  676W        W 4740   5.318   4.921   3.230  0.0281  0.2145  0.2586
  677W        W 4741   8.125  10.247   9.954 -0.1734 -0.3342 -0.3031
  678W        W 4742   6.816   0.801   2.426 -0.3945  0.0648 -0.0514
  679W        W 4743   1.787   8.228   1.691  0.0510  0.1505  0.1720
  680W        W 4744   9.996   1.780   0.354  0.2231  0.1083 -0.0975
  681W        W 4745   7.086   8.422   8.166 -0.2625  0.0544 -0.0353
  682W        W 4746  10.576   6.399  10.869  0.0052 -0.3339 -0.0691
  683W        W 4747   2.418   5.456   1.735 -0.1661 -0.0240 -0.0098
  684W        W 4748   8.241   1.668   1.083  0.0589  0.1002 -0.1070
  685W        W 4749   5.877   6.032   3.405 -0.0591  0.0012 -0.0378
  686W        W 4750   5.619   6.221  11.477 -0.3393 -0.4599 -0.0698
  687W        W 4751   2.287  10.050  10.780 -0.0985 -0.1469 -0.0957
  688W        W 4752   5.177   4.570   0.937  0.0396  0.0560 -0.1522
  689W        W 4753   0.388   1.799   9.468  0.1518 -0.2723 -0.1576
  690W        W 4754   2.127   4.191   9.072 -0.3955 -0.3050 -0.0733
  691W        W 4755   0.202  10.541   9.645  0.1773  0.3505  0.1885
  692W        W 4756   1.820   4.659   0.842  0.2452 -0.1994 -0.3989
  693W        W 4757   0.174   3.405   8.860  0.0846 -0.0856 -0.0504
  694W        W 4758   0.440   4.410   9.433 -0.1688 -0.0423  0.1898
  695W        W 4759   0.831  10.623  10.416  0.2813  0.0141  0.0653
  696W        W 4760   1.660   4.357   9.934 -0.1687 -0.0186  0.0096
  697W        W 4761   6.829   7.877  10.897 -0.1091 -0.1599 -0.0468
  698W        W 4762   5.040   6.888  10.938 -0.1250  0.0933  0.0872
  699W        W 4763   6.006   8.728   2.049 -0.0502 -0.0744  0.0285
  700W        W 4764  10.355   3.809   2.170 -0.1984  0.0792  0.3076
  701W        W 4765   0.382   6.580   9.426 -0.0674  0.2609  0.4484
  702W        W 4766   8.102  10.368  10.623 -0.0066  0.0213  0.4391
  703W        W 4767   3.558   7.644  10.137  0.4203 -0.3964 -0.1126
  704W        W 4768   6.150   3.303   3.459  0.0259 -0.0124  0.0061
  705W        W 4769  10.122   2.600   9.459  0.0016 -0.0503  0.2409
  706W        W 4770   2.589   5.183   8.471  0.1614  0.3263  0.1780
  707W        W 4771   1.506   6.695   2.782  0.2822  0.2010  0.0969
  708W        W 4772   0.192   4.921   1.789 -0.1985  0.1498  0.1017
  709W        W 4773   9.683   8.518   7.680  0.0624 -0.1257 -0.1975
  710W        W 4774   2.953   6.065   3.428  0.0645 -0.0111 -0.0843
  711W        W 4775   3.981   8.168   1.521 -0.1668 -0.0991 -0.0245
  712W        W 4776   2.598   5.653  10.067  0.2116 -0.0962  0.0211
  713W        W 4777   7.150   4.447   2.276 -0.1350  0.1676  0.3615
  714W        W 4778   3.880   8.047  10.235 -0.2028 -0.1978  0.0741
  715W        W 4779   4.602   8.969   0.222  0.0502  0.1424 -0.2193
  716W        W 4780   1.566   5.410   9.642 -0.0365  0.1776  0.1511
  717W        W 4781   7.701   8.847   0.117 -0.2398  0.0131  0.1970
  718W        W 4782   3.795   4.020  10.432 -0.0310  0.0260 -0.3945
  719W        W 4783   1.994   7.638  10.194  0.0400 -0.2291  0.1393
  720W        W 4784   6.716   2.334   3.725  0.0458 -0.1307 -0.1623
  721W        W 4785   5.505   5.348   3.194 -0.1041 -0.0024 -0.1514
  722W        W 4786   0.671   0.720   8.184 -0.1265 -0.0838  0.3092
  723W        W 4787   9.372   3.299   8.397  0.1974  0.0636 -0.1269
  724W        W 4788  10.348  10.267  10.441 -0.0472 -0.2246 -0.0178
  725W        W 4789   6.352   8.449  10.410 -0.2007  0.3208  0.2737
  726W        W 4790   0.753  10.201   1.355 -0.1745 -0.0628  0.1629
  727W        W 4791   2.228  10.596  10.888  0.2753  0.0505 -0.0099
  728W        W 4792   6.245   3.230  10.979  0.0921  0.1449 -0.0821
  729W        W 4793   8.831  10.629  11.578  0.0894  0.0409  0.0706
  730W        W 4794   0.009   2.883  10.200 -0.3379 -0.1044 -0.0016
  731W        W 4795   3.684   2.074   1.596 -0.3689  0.0615  0.0695
  732W        W 4796   0.167  10.391   9.160  0.1987  0.2145  0.2617
  733W        W 4797   2.496   7.563   9.770  0.2164  0.0864 -0.2548
  734W        W 4798   4.831   0.734   8.048 -0.2401  0.0774  0.1746
  735W        W 4799   2.651   0.837  10.217  0.1607 -0.1401  0.2102
  736W        W 4800   8.224   9.656   9.061  0.1122 -0.1180  0.3218
  737W        W 4801   4.851   1.802   2.105  0.0764 -0.1093 -0.2973
  738W        W 4802  10.003   1.909   0.867  0.1078  0.1257  0.3169
  739W        W 4803   3.482   4.127  10.868  0.0168  0.0728 -0.1844
  740W        W 4804   8.261   6.995   9.674  0.0708  0.3176 -0.2338
  741W        W 4805   9.396   9.360   1.325  0.0368 -0.1153  0.4856
  742W        W 4806   4.040   3.456   3.537 -0.0013 -0.0592  0.1696
  743W        W 4807   9.163   0.862   8.002 -0.1051 -0.4957 -0.1732
  744W        W 4808   4.788   3.162  10.245  0.0615 -0.0672 -0.0800
  745W        W 4809   7.607   4.022   8.431  0.0787  0.2710 -0.0571
  746W        W 4810   0.271   6.275   2.711 -0.3341  0.0356  0.1741
  747W        W 4811  10.512   7.212   3.002  0.1828  0.0354  0.1597
  748W        W 4812   7.251   7.142   0.350 -0.0364 -0.0413 -0.2657
  749W        W 4813   7.104   6.489   0.516  0.0437 -0.2602  0.0975
  750W        W 4814   5.301   7.272   2.348  0.1283 -0.0730  0.0264
  751W        W 4815   8.970   4.596   8.600  0.0562 -0.0966  0.1530
  752W        W 4816   8.614   3.022   0.570  0.0294  0.0687 -0.0247
  753W        W 4817   6.169   5.664   8.906  0.1832 -0.4165 -0.0059
  754W        W 4818   5.072   7.640   2.063  0.1678 -0.1637 -0.0006
  755W        W 4819   3.558   8.260   3.254  0.0700  0.1424  0.1445
  756W        W 4820   2.477   8.670   1.497  0.0241  0.0437  0.4622
  757W        W 4821   9.358   2.013   7.843 -0.1140 -0.2592 -0.2910
  758W        W 4822   4.471   0.025   1.871  0.4693 -0.0993  0.2814
  759W        W 4823   6.183   9.691   0.936  0.2562 -0.0238  0.2560
  760W        W 4824   7.504   1.312   0.189 -0.0816  0.0216  0.0414
  761W        W 4825   7.328   7.850   3.712 -0.1161 -0.0751 -0.1338
  762W        W 4826   8.442   0.080  10.585  0.1924  0.0029 -0.3722
  763W        W 4827   5.666   7.887   8.887 -0.1805  0.1809 -0.0495
  764W        W 4828   0.121   5.008   0.328  0.0410 -0.1374  0.0575
  765W        W 4829   3.233  10.294  11.294  0.2180  0.0521  0.0160
  766W        W 4830   3.209   7.723   0.374  0.0460  0.1696 -0.2006
  767W        W 4831   5.241   0.710   1.229 -0.0280 -0.1716 -0.0167
  768W        W 4832   1.946   4.547   3.466 -0.0510 -0.2955  0.0184
  769W        W 4833   2.700   8.927   0.274  0.0160  0.0238  0.1499
  770W        W 4834   1.796   9.819   2.962  0.0236  0.0199 -0.0770
  771W        W 4835   3.484   6.204   1.833  0.0028  0.0413  0.1887
  772W        W 4836   2.375   6.452   2.784  0.2095  0.0461  0.2002
  773W        W 4837   9.749   4.117   1.683  0.0419  0.0840 -0.1148
  774W        W 4838  10.535   7.738  11.061 -0.1640 -0.0842 -0.0630
  775W        W 4839   3.278   4.869   1.418 -0.1838  0.0589 -0.1539
  776W        W 4840   0.451   9.194  10.953  0.0474  0.1183 -0.1786
  777W        W 4841   6.418   2.097   0.109 -0.1472 -0.1073 -0.2463
  778W        W 4842   2.611   0.261   3.926 -0.1690 -0.2873 -0.0488
  779W        W 4843  10.642   8.118   4.119 -0.0834  0.1823 -0.0135
  780W        W 4844   9.269   0.964   2.976 -0.4194 -0.0848 -0.0155
  781W        W 4845   9.926   8.512   2.987 -0.1802  0.0401 -0.1107
  782W        W 4846   1.450   9.501   1.285  0.3934 -0.0423 -0.1122
  783W        W 4847   1.375   0.319   3.669  0.0663 -0.0516 -0.2268
  784W        W 4848   0.611   9.607  11.206 -0.0533  0.1093 -0.1933
  785W        W 4849   0.580   2.185   1.296 -0.3914  0.1177  0.2793
  786W        W 4850   0.775   4.161  10.438 -0.0254  0.4082  0.0470
  787W        W 4851   0.275  10.008   0.872 -0.1702 -0.3719  0.0754
  788W        W 4852  10.283   2.079  10.741  0.1398 -0.0070  0.2855
  789W        W 4853   1.156   1.182   8.812  0.1065 -0.0400 -0.4796
  790W        W 4854   6.550   2.459  11.368  0.1583 -0.1091  0.2728
  791W        W 4855   6.214   5.365  10.176  0.3253  0.1052  0.2280
  792W        W 4856   6.748   6.639   2.491  0.2628  0.0633  0.2575
  793W        W 4857   5.495   5.123   7.681 -0.2103  0.1845  0.0877
  794W        W 4858   5.624   9.356   9.053 -0.1271  0.0151  0.2121
  795W        W 4859   2.933   2.601  10.047  0.2016 -0.2849 -0.0729
  796W        W 4860   0.919   9.940   8.218  0.0348  0.2048  0.4244
  797W        W 4861   2.961   2.563   7.353 -0.1796 -0.2440  0.0128
  798W        W 4862   8.448   3.631   0.205 -0.1799 -0.1542  0.2447
  799W        W 4863   5.159   5.394  10.875 -0.0568  0.0551  0.1065
  800W        W 4864   2.724   5.071   0.734  0.2706 -0.0183 -0.0224
  801W        W 4865   0.733  10.570  11.460  0.1276  0.1694  0.0798
  802W        W 4866   1.831   3.014  10.699  0.0146 -0.0265 -0.1632
  803W        W 4867   4.589   8.490  10.912 -0.1164  0.1146  0.1548
  804W        W 4868   3.095   0.610   1.059 -0.0590 -0.1060 -0.0937
  805W        W 4869   7.834   7.904   0.395 -0.2699  0.0111  0.1252
  806W        W 4870   0.046   4.262   2.165 -0.3396  0.0661  0.2215
  807W        W 4871   0.319   7.070  10.247  0.0514 -0.0054  0.0402
  808W        W 4872   9.742   8.025   3.034 -0.2859 -0.3018 -0.2103
  809W        W 4873   4.116   8.202   2.069  0.1781 -0.2318  0.3708
  810W        W 4874   5.751   6.926   7.624 -0.3793 -0.0840 -0.1909
  811W        W 4875   4.932   5.918   0.954 -0.1752 -0.1163  0.2704
  812W        W 4876   3.610   2.936   0.435 -0.1050 -0.0662  0.0686
  813W        W 4877   6.244   4.618  11.083 -0.1827 -0.1648  0.0360
  814W        W 4878   0.864   7.727   9.810 -0.0516 -0.1147 -0.2457
  815W        W 4879   8.871   7.277   2.605  0.0263 -0.0674  0.2012
  816W        W 4880   1.327   0.086  10.270  0.3550  0.1363  0.0677
  817W        W 4881   8.364   9.562   8.185 -0.0364 -0.0700  0.1035
  818W        W 4882   2.290   0.232   1.563 -0.0174 -0.2650 -0.1617
  819W        W 4883  10.213   4.470  11.074 -0.0644  0.0582 -0.0377
  820W        W 4884   4.080   7.730   1.356 -0.2286 -0.0108  0.5486
  821W        W 4885   6.477   4.118   0.392 -0.0266 -0.0653  0.1739
  822W        W 4886   3.937   5.520   4.915  0.4638 -0.0466 -0.1514
  823W        W 4887   7.769   3.920  11.192 -0.0009  0.1200  0.1394
  824W        W 4888   1.590   4.058   3.321  0.0652 -0.2583  0.1335
  825W        W 4889   8.756   8.266   8.788  0.3109  0.2616  0.2747
  826W        W 4890   3.224   9.332  11.282 -0.2741 -0.1692 -0.2077
  827W        W 4891   7.110   3.467  10.583 -0.1586 -0.0234  0.1201
  828W        W 4892   5.059  10.069   0.679  0.0655 -0.3843  0.1426
  829W        W 4893   5.007   9.622   8.415  0.0370 -0.0448  0.0894
  830W        W 4894   5.465   9.086   2.838 -0.2129 -0.1046 -0.2628
  831W        W 4895   5.193   2.144   2.112 -0.0465 -0.1369  0.7413
  832W        W 4896   0.391   4.996   2.356  0.1803 -0.1806 -0.1737
  833W        W 4897   8.976   4.032   1.486 -0.1249  0.0035 -0.3265
  834W        W 4898   6.125   6.170   9.112  0.1475  0.0634 -0.1822
  835W        W 4899   6.147   1.656  11.085  0.0237  0.1647 -0.0634
  836W        W 4900   2.352   0.672   7.426  0.1803 -0.1648  0.0077
  837W        W 4901   7.996   5.959   1.056 -0.2499  0.1447 -0.1679
  838W        W 4902   7.855   6.153   9.012  0.1936  0.0788  0.1810
  839W        W 4903   1.157   6.323   2.693  0.2390 -0.0437  0.1514
  840W        W 4904   2.081   4.827   3.928  0.3123 -0.1829  0.1126
  841W        W 4905   2.387   3.298   0.053  0.1603 -0.0833 -0.3921
  842W        W 4906   3.522   2.087   2.655 -0.3243 -0.1230  0.0210
  843W        W 4907  10.345   2.670   0.820  0.1800  0.2280  0.3478
  844W        W 4908   9.361   2.494   0.712 -0.1353  0.1799  0.2480
  845W        W 4909   9.438   1.837   0.096  0.0141  0.1731  0.1223
  846W        W 4910   8.588   7.325   0.376  0.1674  0.2373  0.3151
  847W        W 4911   1.430  10.118   1.623 -0.0794 -0.2751 -0.2776
  848W        W 4912   1.146   8.434   8.447 -0.0852 -0.1590  0.1618
  849W        W 4913   7.556   6.466   2.546  0.2555  0.1848  0.0961
  850W        W 4914   6.504   6.082  11.466  0.1007  0.0330 -0.0380
  851W        W 4915   7.698  10.285   1.529 -0.0444 -0.0080 -0.1037
  852W        W 4916   5.840   9.050   3.536  0.1490  0.4910 -0.4474
  853W        W 4917   6.975   7.601   3.107 -0.1697 -0.1006  0.1822
  854W        W 4918   3.411   7.103   3.633  0.0439  0.0445 -0.3844
  855W        W 4919   7.696   1.641   0.953  0.3095  0.0035 -0.0363
  856W        W 4920  10.557   4.464   0.969 -0.2613 -0.2638  0.1397
  857W        W 4921   1.702   0.901   9.114  0.3052 -0.2169  0.0449
  858W        W 4922   2.130  10.334  11.284 -0.1519  0.1536 -0.1968
  859W        W 4923   4.758   0.751   3.725 -0.1779 -0.1302  0.0770
  860W        W 4924   7.524   3.265   3.905  0.0104  0.3032  0.0898
  861W        W 4925  10.133   1.516   1.190 -0.0857 -0.0395  0.1701
  862W        W 4926   1.627   4.932   2.989 -0.2673 -0.0146  0.3358
  863W        W 4927   2.132   6.811   9.807 -0.0364 -0.2339 -0.0968
  864W        W 4928   7.465   2.118   0.773  0.0981  0.3722 -0.2160
  865W        W 4929   1.274   6.020  10.902 -0.0335 -0.0768  0.1445
  866W        W 4930   3.565   9.787   0.951 -0.0461  0.2976  0.4233
  867W        W 4931   4.245  10.300   0.570  0.0884 -0.0134 -0.2626
  868W        W 4932   6.974   6.877   0.821  0.0319 -0.0280 -0.2983
  869W        W 4933   5.018   2.951   7.810 -0.0295 -0.2502 -0.0819
  870W        W 4934   3.158   6.445   9.861 -0.0127 -0.0372  0.0101
  871W        W 4935   5.248  10.371  11.486 -0.2039 -0.0687  0.2162
  872W        W 4936   5.057   6.318   3.034  0.1429  0.1650  0.0019
  873W        W 4937   4.390   7.756   8.281 -0.2244 -0.1687  0.2084
  874W        W 4938   9.144   9.714   0.103  0.4403 -0.0007 -0.2304
  875W        W 4939   2.265   9.195   8.748  0.0012 -0.0724  0.1142
  876W        W 4940   5.323   5.708   8.634  0.2080  0.2934  0.0983
  877W        W 4941   2.086   1.351   0.389 -0.0365 -0.0740 -0.2242
  878W        W 4942   0.472   1.321  10.453  0.0532  0.1342 -0.1199
  879W        W 4943   8.275   2.900   2.488  0.1417  0.2131 -0.0415
  880W        W 4944  10.074   1.586   3.233  0.2331 -0.2157  0.2513
  881W        W 4945   0.338   0.423   2.846  0.0745  0.0364  0.1815
  882W        W 4946   3.189   0.516  11.462 -0.1450 -0.2863  0.0161
  883W        W 4947   0.724   5.244  10.789 -0.3406  0.0970  0.1504
  884W        W 4948   6.321   5.492   3.821 -0.0004  0.1110  0.0306
  885W        W 4949   0.060   5.564   3.177  0.0883 -0.1399 -0.2239
  886W        W 4950   4.154   3.890   1.940  0.2432  0.0209 -0.0143
  887W        W 4951   1.779   1.863   0.631  0.0977  0.0356 -0.0316
  888W        W 4952   3.900   5.827  11.058  0.0570  0.1455 -0.0412
  889W        W 4953   8.541   5.290   0.645  0.1446  0.0334 -0.4645
  890W        W 4954   9.511   7.766  10.233 -0.0535 -0.0229  0.1565
  891W        W 4955   2.907   5.624   1.440  0.1788  0.0464  0.3887
  892W        W 4956   5.825   5.207   0.897 -0.1820 -0.0096 -0.2131
  893W        W 4957   1.777   6.524   1.441 -0.1240 -0.4121 -0.1299
  894W        W 4958   4.428   4.707   8.726 -0.0757  0.0424 -0.0412
  895W        W 4959   6.304   9.208   0.422 -0.3048 -0.0568 -0.0367
  896W        W 4960   2.833   4.681  10.403 -0.1532 -0.2531 -0.1685
  897W        W 4961   2.123   9.697   3.493 -0.3896  0.0591 -0.0712
  898W        W 4962   1.782  10.300   9.447  0.0005  0.3170 -0.1722
  899W        W 4963   1.256   1.514   2.740  0.2191  0.2542 -0.1245
  900W        W 4964   5.011   5.853   3.856 -0.1546  0.0102 -0.0053
  901W        W 4965   7.070   8.156   9.979  0.1104  0.1360 -0.2267
  902W        W 4966   3.923   6.554   0.688 -0.2492  0.1561 -0.1518
  903W        W 4967   9.618   2.780   9.385  0.5247 -0.0464 -0.0198
  904W        W 4968   7.971   3.858   9.360  0.1595 -0.1527 -0.0173
  905W        W 4969   9.662   4.653   3.489  0.0493 -0.4054 -0.2921
  906W        W 4970   2.785   4.091  11.257 -0.1222  0.1135  0.0032
  907W        W 4971   9.679   4.542   8.241 -0.0167 -0.0956  0.2198
  908W        W 4972   9.743   6.560   2.629 -0.7453 -0.2423 -0.0324
  909W        W 4973   6.570   8.556   1.939 -0.3232 -0.1001  0.0193
  910W        W 4974   3.791   8.215   0.065  0.1262 -0.2953 -0.2250
  911W        W 4975   4.953   3.236   2.186  0.5178  0.1282  0.2040
  912W        W 4976   9.569   6.848   3.985  0.0401 -0.1912  0.1596
  913W        W 4977   1.481   5.170   0.839  0.0565 -0.2066 -0.0204
  914W        W 4978   5.486   3.987   8.701  0.1126  0.0594 -0.2962
  915W        W 4979   8.069   7.045   1.570  0.1106 -0.0198  0.1597
  916W        W 4980  10.059   2.239  11.153 -0.0788 -0.1331  0.0876
  917W        W 4981   6.286   7.488   3.601  0.3681 -0.1260  0.1356
  918W        W 4982   0.416   4.618   2.643  0.1378 -0.3147 -0.2947
  919W        W 4983   8.511   4.799   8.879  0.4456 -0.3520  0.1024
  920W        W 4984   9.619   9.065   2.932 -0.1162 -0.3830  0.1762
  921W        W 4985   9.549   6.988   2.355 -0.1998  0.1208 -0.0653
  922W        W 4986   5.031   0.536   2.701  0.0832 -0.4148 -0.4725
  923W        W 4987   4.210   8.128   3.099 -0.1722  0.1260 -0.0682
  924W        W 4988   7.779   1.841   1.915  0.0718  0.3117  0.0370
  925W        W 4989  10.161   1.235  10.839 -0.0671 -0.0168  0.3893
  926W        W 4990   2.708   1.644   8.028  0.2249 -0.0387 -0.2341
  927W        W 4991   6.672   2.789   0.126  0.0389 -0.0398  0.0043
  928W        W 4992   0.395   6.402   1.730  0.1972 -0.1626 -0.2873
  929W        W 4993   1.990   9.821   2.493  0.0564  0.2084  0.1018
  930W        W 4994  10.608   4.689   3.184  0.3559 -0.1551  0.0270
  931W        W 4995   4.038   9.038  10.650 -0.2183 -0.2454  0.1331
  932W        W 4996   3.915   3.801   0.592 -0.1137 -0.1802 -0.0265
  933W        W 4997   8.487  10.281  10.994  0.0103  0.2454 -0.1435
  934W        W 4998   0.226   6.813   3.630  0.3097  0.4045  0.0739
  935W        W 4999   0.999   1.677   1.283  0.2301  0.0584  0.3423
  936W        W 5000   1.316   8.075   2.344  0.1435 -0.1177 -0.2312
  937W        W 5001   6.216   4.108  10.508  0.0778 -0.3286  0.1445
  938W        W 5002   2.949  10.637   3.331 -0.2892  0.1738  0.2541
  939W        W 5003   3.856   7.510  10.555 -0.1278 -0.0008 -0.0292
  940W        W 5004   5.793   8.733  11.270  0.2717 -0.3209 -0.1656
  941W        W 5005   8.218   0.164  11.548 -0.0626  0.1012  0.1248
  942W        W 5006  10.117   7.469  11.414  0.1978 -0.1408 -0.1062
  943W        W 5007   5.800   2.708  10.313  0.0245  0.3344 -0.2077
  944W        W 5008   9.431   2.075   9.204  0.3786 -0.1422 -0.0525
  945W        W 5009   6.358   5.174   0.199 -0.2025  0.0870 -0.3428
  946W        W 5010  10.139   7.888   2.443  0.0646 -0.2632 -0.1678
  947W        W 5011   0.753   6.125   1.465 -0.1209  0.1530  0.0297
  948W        W 5012   4.379  10.496   8.682 -0.1019  0.0498 -0.0311
  949W        W 5013   4.710   6.725   0.913 -0.0516 -0.3555 -0.0072
  950W        W 5014   1.848   9.176   8.493  0.2199 -0.0558  0.1415
  951W        W 5015   2.730   5.370   8.968 -0.0772 -0.0109  0.0672
  952W        W 5016  10.238   8.407   2.504 -0.1150  0.0380 -0.2758
  953W        W 5017   9.978   7.501  10.401 -0.0508  0.2782  0.3168
  954W        W 5018   8.406   2.616   2.832 -0.2277  0.1481  0.0179
  955W        W 5019   9.905   2.602   8.062 -0.2596 -0.1412  0.2305
  956W        W 5020   8.611   9.071  10.423  0.1455 -0.1514 -0.0197
  957W        W 5021   5.945   3.109   2.551  0.0256 -0.0657 -0.1074
  958W        W 5022  10.156   2.474   4.559  0.0290  0.0971 -0.0144
  959W        W 5023   3.243   7.296   2.581 -0.1873  0.0387  0.1404
  960W        W 5024   6.522   1.812   9.692  0.0457  0.0814  0.1950
  961W        W 5025   9.750   2.592   8.504 -0.2264 -0.3426  0.2029
  962W        W 5026   5.915   9.965   1.532 -0.0115 -0.2820  0.0628
  963W        W 5027   3.749   2.928   0.974 -0.3467  0.0367 -0.4177
  964W        W 5028   9.389   9.375   9.773 -0.4438 -0.1961  0.1882
  965W        W 5029   4.689   9.231   1.256 -0.2268  0.2640 -0.2427
  966W        W 5030   8.297   1.076   7.996 -0.3273  0.0733  0.1279
  967W        W 5031   4.033   7.481   0.750  0.0561 -0.0254  0.1613
  968W        W 5032   4.870   3.648   8.336  0.0360  0.2381 -0.1933
  969W        W 5033   2.464   1.122   0.164  0.0265 -0.2011  0.2589
  970W        W 5034   0.025   4.540  11.285  0.0943  0.0081  0.2556
  971W        W 5035   3.506   8.042   3.738  0.0083  0.2212 -0.1587
  972W        W 5036   4.428   2.271   4.195  0.0797 -0.0879  0.2497
  973W        W 5037   7.002   3.808   1.034  0.1422 -0.3299  0.1945
  974W        W 5038   4.276   2.275  10.526 -0.2416 -0.0662 -0.3254
  975W        W 5039   3.284  10.396   7.473 -0.2068  0.0816 -0.0958
  976W        W 5040   0.120   7.499   9.382 -0.1424  0.0543 -0.1639
  977W        W 5041   1.830   0.845   9.993 -0.2958  0.1554  0.0737
  978W        W 5042   7.671   5.308   7.213  0.3709  0.0406 -0.0017
  979W        W 5043   2.131   8.329  10.761  0.1480 -0.4108  0.1084
  980W        W 5044   7.685   4.367  10.588 -0.3437  0.0153  0.0746
  981W        W 5045   2.214   2.409   8.652 -0.2966 -0.0054  0.0683
  982W        W 5046   5.673   3.923   2.053  0.1256 -0.1639 -0.1472
  983W        W 5047   6.544   7.184  10.476 -0.0987 -0.1026 -0.3242
  984W        W 5048   5.995   0.319   9.315  0.1775 -0.1156  0.1491
  985W        W 5049   8.283   5.856   9.765  0.2505  0.0682 -0.3278
  986W        W 5050   8.752   8.024   0.335 -0.2787 -0.0032  0.0482
  987W        W 5051   1.566   2.901   1.653  0.3219  0.2566  0.1023
  988W        W 5052   7.877   5.287   0.582 -0.1732  0.2292  0.1957
  989W        W 5053   2.911   6.301  10.271 -0.0581 -0.2107 -0.0485
  990W        W 5054   4.316   6.435  10.436  0.1839  0.1030  0.0537
  991W        W 5055   5.018   8.786   2.102  0.1739  0.0635  0.0297
  992W        W 5056   3.051   7.772   4.346  0.0188  0.1460 -0.1169
  993W        W 5057   2.528   3.842   2.215  0.2138 -0.0674  0.1111
  994W        W 5058   1.730   6.429  11.164 -0.1141 -0.0598  0.3399
  995W        W 5059   0.655   1.511   3.414  0.0148  0.1816  0.1483
  996W        W 5060   1.975  10.284   8.601 -0.0447  0.1149 -0.3736
  997W        W 5061   0.643   2.763  10.451  0.4073 -0.1120 -0.3891
  998W        W 5062   1.015   9.816  10.869  0.0717  0.0381  0.1975
  999W        W 5063   8.227   8.222  10.710  0.0798 -0.2143 -0.0095
 1000W        W 5064   4.352   2.107   9.027 -0.0207 -0.2009  0.2824
 1001W        W 5065   3.955   8.568  10.488 -0.3322 -0.2591 -0.0662
 1002W        W 5066   6.458   7.995   3.697  0.0523 -0.0236 -0.0746
 1003W        W 5067   5.450   4.676   8.458 -0.2589 -0.1733 -0.0563
 1004W        W 5068   7.867   4.145   2.445  0.2209  0.0110 -0.1367
 1005W        W 5069   5.829   1.287  10.937  0.2566  0.1701 -0.2456
 1006W        W 5070   6.521   4.200  10.881  0.1352  0.2492 -0.0850
 1007W        W 5071   5.983   7.821   1.463 -0.0059  0.2342  0.0675
 1008W        W 5072   5.641   4.197   0.553  0.0595  0.1658  0.0976
 1009W        W 5073   8.135   8.340   1.306 -0.1810 -0.0635  0.3217
 1010W        W 5074   7.259   2.587   2.962  0.1874  0.1125  0.1987
 1011W        W 5075   6.737   4.706   4.151  0.2523  0.1742 -0.3239
 1012W        W 5076   8.014   8.121   8.182  0.2272 -0.2606  0.1577
 1013W        W 5077   0.871   0.067   9.733  0.0664  0.1212 -0.3524
 1014W        W 5078   4.555   6.074   3.965 -0.0075 -0.0076  0.3104
 1015W        W 5079  10.064   9.024   9.964  0.0138  0.0944 -0.0006
 1016W        W 5080   3.756  10.369   8.076 -0.0609 -0.0401  0.2685
 1017W        W 5081   3.310   2.577   2.805 -0.3102  0.2075 -0.4429
 1018W        W 5082   4.103   1.503   0.689  0.0361 -0.0572 -0.0174
 1019W        W 5083   9.470   0.156   1.826 -0.2176  0.2599 -0.0641
 1020W        W 5084   4.327   5.475  11.037 -0.1556  0.0484  0.1823
 1021W        W 5085   2.704   2.499   7.797  0.0212 -0.2306 -0.1226
 1022W        W 5086   9.203   7.078   0.468  0.0449  0.0686  0.0531
 1023W        W 5087   4.066   0.806   1.853  0.3247  0.0094  0.0593
 1024W        W 5088   3.459   9.413   9.630  0.0377  0.1827  0.1828
 1025W        W 5089  10.170  10.252   8.108  0.0864  0.0927 -0.0740
 1026W        W 5090   1.580   2.916   8.777 -0.1724 -0.2474 -0.0982
 1027W        W 5091   7.424   7.653   0.522 -0.0835  0.1861  0.1003
 1028W        W 5092   4.425   5.649   8.593  0.0496  0.3091 -0.1433
 1029W        W 5093   8.337   3.385   0.743 -0.2068 -0.1566  0.1145
 1030W        W 5094  10.248   2.729  11.004  0.0877 -0.0430 -0.0922
 1031W        W 5095   9.775   8.944   3.379 -0.2314  0.0971  0.3692
 1032W        W 5096   5.830   6.241   1.000  0.2177  0.1103  0.3882
 1033W        W 5097   3.581   3.247   3.332  0.2236 -0.2594 -0.0222
 1034W        W 5098   1.608   9.023   2.388 -0.0086 -0.0841 -0.0020
 1035W        W 5099   9.637   6.510   0.892  0.0734  0.1552 -0.0216
 1036W        W 5100   1.076   8.861   2.770 -0.0214 -0.1325  0.0721
 1037W        W 5101   7.085   1.052   3.276 -0.1031  0.1100 -0.1544
 1038W        W 5102   0.726   9.734   0.642  0.0505  0.0003 -0.0292
 1039W        W 5103   2.511   0.283   7.692 -0.1059  0.0664 -0.0139
 1040W        W 5104   4.238   1.265   1.925 -0.1577 -0.1759 -0.4115
 1041W        W 5105   9.870   3.314  10.539  0.3136  0.1963  0.2681
 1042W        W 5106   9.799   8.938   1.118  0.0185 -0.1949  0.0193
 1043W        W 5107  10.231   6.871   1.483 -0.0193 -0.1364  0.1127
 1044W        W 5108   1.181   8.951   1.108  0.1704  0.0100 -0.2292
 1045W        W 5109   7.152   1.309  10.692 -0.0219 -0.0952 -0.2416
 1046W        W 5110   3.230   2.906   3.120 -0.1165  0.0782 -0.2073
 1047W        W 5111   1.174   7.033   2.642  0.1924 -0.0400 -0.1544
 1048W        W 5112   0.045   9.475   2.517  0.3114  0.2060 -0.2508
 1049W        W 5113   8.504   0.130   1.333  0.0983  0.3699  0.1293
 1050W        W 5114   2.971   1.349  11.547 -0.2272  0.0731 -0.0899
 1051W        W 5115   6.810   1.563   1.408 -0.1611 -0.0169  0.3008
 1052W        W 5116  10.150   2.235   8.297 -0.0527  0.4432 -0.0022
 1053W        W 5117   8.740   5.997  10.155  0.1600 -0.1037  0.0534
 1054W        W 5118   9.150   6.028  11.206  0.0174  0.0565 -0.2278
 1055W        W 5119   0.152   3.883   9.948 -0.0127 -0.0927  0.0044
 1056W        W 5120   8.369   4.679   7.629 -0.1933  0.3907  0.0710
 1057W        W 5121   5.332   5.485   4.032  0.0555 -0.3700  0.2924
 1058W        W 5122   4.945   8.464   1.596  0.0775 -0.1238 -0.2379
 1059W        W 5123   1.683   0.459  10.328 -0.1391  0.0230 -0.3364
 1060W        W 5124   6.395   3.702   0.748 -0.1578 -0.2009 -0.3797
 1061W        W 5125   0.836   0.330   0.089 -0.1945 -0.0916 -0.1524
 1062W        W 5126   6.219   5.657   7.992 -0.2195  0.1070  0.3254
 1063W        W 5127   3.371   7.301  10.466 -0.0552  0.4620  0.0549
 1064W        W 5128   9.713   9.141   1.608  0.0488 -0.1571  0.5273
 1065W        W 5129   6.351   5.922   3.645  0.0749 -0.0293  0.0551
 1066W        W 5130   1.389   5.869  11.439  0.0896  0.2569  0.0011
 1067W        W 5131   8.180   4.339   8.640  0.1001  0.3284 -0.3847
 1068W        W 5132   4.571   0.605   9.224  0.1676  0.1702  0.0057
 1069W        W 5133  10.172   2.263   0.517 -0.0301  0.0065 -0.2455
 1070W        W 5134   6.836  10.276  11.239 -0.1961 -0.2681  0.2355
 1071W        W 5135   1.655   6.109   8.541  0.2697  0.1785  0.2353
 1072W        W 5136   5.505  10.211  11.026 -0.0273  0.0933  0.2874
 1073W        W 5137   5.638   2.653   2.684 -0.2688  0.1852  0.1223
 1074W        W 5138   1.595   3.732   1.455  0.0093 -0.2406 -0.0345
 1075W        W 5139   2.290   3.803  11.542 -0.0261  0.2617  0.0538
 1076W        W 5140   7.607   6.517   3.543 -0.0242  0.1263 -0.2228
 1077W        W 5141   3.583   8.019  10.677  0.1784  0.1962 -0.3663
 1078W        W 5142   8.812   2.018   3.393 -0.2152 -0.1168  0.1154
 1079W        W 5143   4.230   3.593   1.515  0.0999 -0.1837  0.0226
 1080W        W 5144  10.434   7.009  10.933 -0.2783  0.1776 -0.1511
 1081W        W 5145   0.924  10.017   9.601  0.0132 -0.0571 -0.0390
 1082W        W 5146   5.644   2.553   9.216  0.3048 -0.0001  0.4656
 1083W        W 5147   7.194   5.256   8.118 -0.2200  0.1038  0.1614
 1084W        W 5148   7.794   3.343   9.534  0.0112  0.0418 -0.0528
 1085W        W 5149   4.093   8.172   8.150  0.2022 -0.2437 -0.2922
 1086W        W 5150   0.918   5.748   2.945  0.0925  0.3061 -0.0537
 1087W        W 5151   5.104   6.614   1.187  0.0853 -0.2283  0.1655
 1088W        W 5152  10.256   0.125   2.319  0.2590  0.1615  0.2321
 1089W        W 5153   8.235   2.327   8.941 -0.0223 -0.2629  0.1360
 1090W        W 5154   8.635  10.177   9.753  0.2301 -0.0102 -0.1514
 1091W        W 5155   3.900   1.367  10.675 -0.0204  0.0357  0.1509
 1092W        W 5156  10.288   7.572   2.102 -0.0621  0.0448  0.1783
 1093W        W 5157   4.488   5.144   3.040 -0.0431 -0.0137 -0.0499
 1094W        W 5158  10.337   1.980   1.319  0.1923  0.1368  0.1461
 1095W        W 5159   8.354   9.240   9.368  0.0087  0.0749  0.1476
 1096W        W 5160   5.285   3.995   3.645 -0.0077 -0.0217 -0.0325
 1097W        W 5161   0.153   1.269   1.745 -0.0600  0.1559  0.3061
 1098W        W 5162   2.149   5.208  11.179 -0.0517 -0.0218  0.3996
 1099W        W 5163   7.624   3.822   0.494  0.3384  0.1138  0.0065
 1100W        W 5164   5.610   9.770   2.403 -0.3823 -0.4224 -0.0488
 1101W        W 5165   2.581   3.372   9.456 -0.2495  0.2189  0.1159
 1102W        W 5166   7.176   3.469   1.466 -0.3236 -0.1527  0.0866
 1103W        W 5167   6.310   8.506   3.768  0.1805 -0.2852 -0.0128
 1104W        W 5168   6.994   0.654   1.417 -0.1157 -0.0564 -0.1274
 1105W        W 5169   4.116   4.827   3.889 -0.0777 -0.0284  0.0365
 1106W        W 5170   4.391   2.325   9.473  0.0987 -0.1468 -0.0598
 1107W        W 5171   6.535   7.746   3.212  0.0523  0.0273 -0.0480
 1108W        W 5172   6.705   1.896   3.120  0.1836 -0.0825 -0.1359
 1109W        W 5173   9.323   0.001   3.406  0.1603 -0.0754 -0.0440
 1110W        W 5174   9.362   4.062  11.329 -0.0819 -0.1516 -0.2516
 1111W        W 5175   3.559   6.088   9.035  0.0232 -0.1366  0.0041
 1112W        W 5176   4.327  10.524   8.121  0.0684  0.4033  0.1798
 1113W        W 5177  10.042  10.392   1.588 -0.1879  0.0890 -0.2690
 1114W        W 5178  10.062   8.505  11.569 -0.2895 -0.0062 -0.2036
 1115W        W 5179   9.694   2.239   0.370 -0.0138  0.2931 -0.1919
 1116W        W 5180   2.410   9.201   9.547  0.0297  0.3124 -0.2067
 1117W        W 5181   4.208   3.263  11.321 -0.1827  0.1370  0.1045
 1118W        W 5182   1.678   8.210   8.271 -0.1166 -0.1415  0.0603
 1119W        W 5183   5.876   6.793   3.596  0.0591 -0.1735  0.0558
 1120W        W 5184   1.810   5.046   4.301 -0.3990 -0.1360 -0.1169
 1121W        W 5185   4.576   5.127   3.560 -0.1129  0.2074 -0.1410
 1122W        W 5186   2.969  10.538   8.496 -0.0402  0.2226  0.2467
 1123W        W 5187   9.331   6.788   2.764  0.2877 -0.1479 -0.0550
 1124W        W 5188   3.259   9.769   8.153 -0.0335  0.3577  0.1493
 1125W        W 5189   3.552   6.494   4.453  0.2553  0.2513 -0.0150
 1126W        W 5190   7.307  10.021  10.027 -0.3471 -0.4654  0.0819
 1127W        W 5191   6.768   1.506   9.289  0.0079  0.0682 -0.1555
 1128W        W 5192   3.314   1.768   0.303 -0.3038 -0.0933 -0.4176
 1129W        W 5193   6.033   4.686  10.182 -0.3843 -0.2665 -0.0114
 1130W        W 5194   0.660   4.765   4.733 -0.0127 -0.1454  0.0880
 1131W        W 5195  10.552   1.690   3.971  0.1680 -0.1315 -0.0299
 1132W        W 5196  10.475   0.160   0.211 -0.1476  0.0485  0.3048
 1133W        W 5197   5.488   2.194   4.088  0.2994 -0.0592  0.0410
 1134W        W 5198   1.876   0.958   4.135  0.2243 -0.0561 -0.0343
 1135W        W 5199  10.160  10.251   8.612  0.2977  0.0035 -0.0483
 1136W        W 5200   6.148   7.160   1.956  0.0501 -0.2861  0.0237
 1137W        W 5201   3.632   8.456   1.815 -0.1438 -0.1796  0.0112
 1138W        W 5202  10.072   9.191  10.520 -0.1316  0.3308  0.2213
 1139W        W 5203   6.263   5.041   2.647 -0.3716 -0.1734  0.3521
 1140W        W 5204   4.103   0.939  10.356  0.0016  0.0212  0.3528
 1141W        W 5205   7.859   7.114   9.926 -0.4308  0.1659 -0.2692
 1142W        W 5206   6.165   1.965   8.745  0.1873  0.0541  0.1456
 1143W        W 5207  10.639   8.594   2.134 -0.0696 -0.2950  0.3415
 1144W        W 5208   1.082  10.318   2.425  0.1107 -0.3838  0.0043
 1145W        W 5209   3.005   6.403   0.511  0.0277 -0.0694  0.0563
 1146W        W 5210  10.432   9.817   0.825  0.0231  0.1517 -0.0014
 1147W        W 5211   5.690   8.482   3.473  0.2131  0.1482  0.1128
 1148W        W 5212   4.927   2.968   8.944 -0.0924  0.0812  0.2405
 1149W        W 5213   8.573   0.825   1.931  0.1104 -0.0230 -0.3765
 1150W        W 5214   0.400   6.952   2.393 -0.0846  0.1731 -0.2397
 1151W        W 5215   0.058   6.813   2.715  0.0088  0.1573  0.2434
 1152W        W 5216   7.199   7.488   1.767 -0.0774 -0.1114 -0.0141
 1153W        W 5217   8.986   8.790   2.305  0.0614 -0.1394  0.2952
 1154W        W 5218   6.933   1.276   2.196 -0.0909 -0.2515 -0.1732
 1155W        W 5219   2.248   0.534   3.094 -0.0095 -0.0613 -0.0653
 1156W        W 5220   0.391   5.598   9.003 -0.2912 -0.2360 -0.0266
 1157W        W 5221   1.730   9.724  10.102  0.2999  0.0673  0.0537
 1158W        W 5222   8.154   1.964   1.540  0.1006 -0.0934 -0.0810
 1159W        W 5223   7.744   9.851   9.839  0.0783  0.1260 -0.1356
 1160W        W 5224   1.691   0.987  11.174  0.0263  0.4461  0.1524
 1161W        W 5225   1.178   2.783   9.582 -0.0551 -0.2268  0.3861
 1162W        W 5226   6.122   8.549  10.952  0.0772  0.0172  0.0682
 1163W        W 5227   6.221   2.931   2.063  0.0191 -0.2131  0.2377
 1164W        W 5228   7.597  10.363   2.017 -0.0416 -0.0760  0.5197
 1165W        W 5229   0.752   7.435  11.450 -0.1306  0.1760 -0.1533
 1166W        W 5230   1.371   2.147   3.183 -0.3390  0.0982 -0.1369
 1167W        W 5231   4.148  10.367   2.885 -0.0813 -0.0533  0.4400
 1168W        W 5232   4.499   6.060   4.496  0.0497  0.0063 -0.1055
 1169W        W 5233   7.479   5.406   8.681  0.0701  0.1917  0.2212
 1170W        W 5234   4.368   5.760   9.818  0.3046  0.0715 -0.1096
 1171W        W 5235   5.941  10.157   2.607  0.0805  0.1836 -0.1339
 1172W        W 5236   1.353   4.215  11.512 -0.3437  0.2881 -0.1982
 1173W        W 5237   6.358   8.676   1.482  0.1508  0.0309  0.0676
 1174W        W 5238  10.487   8.406   3.759  0.1053 -0.1491  0.1723
 1175W        W 5239   7.737   9.141  10.900 -0.1216  0.1510  0.1770
 1176W        W 5240   9.881   8.360  10.615  0.3383 -0.2233 -0.3778
 1177W        W 5241   6.785  10.347   1.046  0.1017  0.2185 -0.0755
 1178W        W 5242   0.443   6.941   1.901 -0.0372  0.1051 -0.2699
 1179W        W 5243   8.256   8.311   2.165  0.2619 -0.1290 -0.2870
 1180W        W 5244   3.636   2.448   3.870 -0.1527 -0.4793  0.0433
 1181W        W 5245   2.884   3.263   0.084 -0.1906 -0.2065  0.1673
 1182W        W 5246   6.034   4.239   1.259 -0.0002 -0.2908  0.2705
 1183W        W 5247   3.379   1.270   9.772  0.0286 -0.2617  0.1584
 1184W        W 5248   3.918   2.034  10.861 -0.0982  0.1934 -0.1430
 1185W        W 5249   0.371   0.653   0.178  0.2474 -0.2186 -0.2221
 1186W        W 5250   4.811   6.774   2.254  0.1420 -0.0035  0.0286
 1187W        W 5251   7.308   4.649   3.569  0.1169 -0.2868 -0.1593
 1188W        W 5252   6.854   5.722   0.099  0.1166 -0.0481  0.1073
 1189W        W 5253   4.471   8.702  10.487  0.0126 -0.0707 -0.2161
 1190W        W 5254   9.001   6.275   1.976 -0.0947  0.0544  0.1003
 1191W        W 5255   4.055   2.824   1.685  0.2806  0.0970  0.0435
 1192W        W 5256   2.033   8.570   1.296  0.0453  0.0977  0.1306
 1193W        W 5257   2.939   6.581   8.579  0.3477  0.0348  0.1595
 1194W        W 5258   3.600   2.902   9.539 -0.0188 -0.2550 -0.2027
 1195W        W 5259   4.448   2.491   1.989 -0.0729 -0.0831 -0.1573
 1196W        W 5260   3.028   6.922   3.397  0.1548 -0.0422 -0.1091
 1197W        W 5261   2.514   4.799  10.802  0.0221  0.1201  0.0228
 1198W        W 5262   9.131   2.178   2.977 -0.3641  0.0573 -0.2285
 1199W        W 5263   9.133   7.669  10.877 -0.0847  0.2573  0.1638
 1200W        W 5264   0.950   1.262  11.325  0.2102  0.0730 -0.0603
 1201W        W 5265   1.056   8.057  10.493 -0.1576  0.1513  0.0715
 1202W        W 5266   1.813   8.148   9.496 -0.1908 -0.1722 -0.0952
 1203W        W 5267   3.318   9.676  10.569 -0.0038 -0.0717  0.2283
 1204W        W 5268   6.246   3.312   0.404  0.0409  0.0863  0.1659
 1205W        W 5269   5.686   6.992   9.494 -0.0979 -0.1452  0.1104
 1206W        W 5270   2.350  10.113   2.188  0.0870  0.2200  0.0583
 1207W        W 5271   8.031   7.415   3.298  0.0636 -0.0020 -0.0027
 1208W        W 5272   9.861   6.619  10.452 -0.0197  0.3292 -0.2109
 1209W        W 5273   2.381   7.538   3.065 -0.0680 -0.1124 -0.0068
 1210W        W 5274   6.640   7.928   9.997  0.3082 -0.0927  0.1254
 1211W        W 5275   8.984   0.957   9.340  0.0348 -0.1208  0.0814
 1212W        W 5276   5.394   9.020  11.411  0.0671  0.0102  0.3009
 1213W        W 5277   8.588   3.115   8.007 -0.0883  0.0487 -0.0457
 1214W        W 5278   6.782   0.324   3.200 -0.1395 -0.0578  0.1155
 1215W        W 5279   8.021   1.280   0.687  0.2825 -0.3192  0.2620
 1216W        W 5280  10.434   7.539   1.168 -0.0483  0.1756 -0.0508
 1217W        W 5281   8.848   7.867   9.071  0.0883 -0.2576 -0.0356
 1218W        W 5282   5.889   8.406   0.183 -0.0171 -0.2541 -0.0371
 1219W        W 5283   8.789   0.405  10.816  0.0778  0.1438  0.1587
 1220W        W 5284   9.507   3.011  10.393  0.0247  0.1735 -0.5315
 1221W        W 5285   7.688   7.148   4.416  0.2064 -0.1774 -0.2470
 1222W        W 5286   6.399   5.853   1.974  0.1234 -0.0025  0.4205
 1223W        W 5287   5.539   1.727   1.408  0.1396  0.2235  0.1845
 1224W        W 5288   6.744   0.254   0.769  0.0189  0.0195  0.3569
 1225W        W 5289   5.527   8.842   0.691 -0.0816  0.1763  0.1384
 1226W        W 5290   1.069   8.324   3.510  0.0163  0.0140 -0.2473
 1227W        W 5291   6.840   0.816   1.936  0.2824 -0.0132  0.1259
 1228W        W 5292   5.454   4.630   2.645 -0.3399 -0.2213  0.0082
 1229W        W 5293   8.054   8.965  11.273 -0.2250 -0.3273  0.0836
 1230W        W 5294   8.028   9.123   0.869  0.1487  0.2018 -0.3049
 1231W        W 5295   0.233   8.610  10.902  0.2194  0.0453 -0.3283
 1232W        W 5296   9.721   5.419  11.163  0.4448  0.0308  0.2108
 1233W        W 5297   4.684   0.644   3.181 -0.1044 -0.0232  0.0422
 1234W        W 5298   1.978   9.467   1.483  0.0051 -0.0994 -0.1015
 1235W        W 5299   7.100   3.824   8.987  0.1571  0.3284 -0.4809
 1236W        W 5300   9.272   5.005   1.614 -0.0789 -0.0441 -0.2500
 1237W        W 5301  10.339   0.529   8.084  0.3816 -0.1453 -0.1168
 1238W        W 5302   4.660   6.701  10.639  0.2419 -0.0693 -0.0388
 1239W        W 5303   3.671  10.359   3.819 -0.3620  0.3971 -0.1312
 1240W        W 5304   2.947   0.045   4.290  0.1852 -0.0488  0.0518
 1241W        W 5305  10.088   9.306   2.625  0.2526  0.2524  0.0245
 1242W        W 5306   2.336   7.089   0.157  0.2287  0.0762  0.3868
 1243W        W 5307   9.575   8.662   1.992  0.3011 -0.2020 -0.2263
 1244W        W 5308   9.712   1.032   2.431  0.1145 -0.2110  0.1365
 1245W        W 5309   9.980   0.921   0.055  0.1890  0.0666 -0.0870
 1246W        W 5310   4.491   8.684  11.427 -0.3259  0.0557  0.3954
 1247W        W 5311   0.327   8.053   0.383  0.2041 -0.2750 -0.1041
 1248W        W 5312   3.086   8.184   3.639 -0.0345  0.1525  0.1289
 1249W        W 5313   5.405  10.497   1.320  0.2732  0.3377 -0.0470
 1250W        W 5314   0.685   6.527   9.877 -0.0567 -0.0723  0.3146
 1251W        W 5315   3.754   3.722  10.883  0.2628 -0.0643  0.0849
 1252W        W 5316  10.308   4.071   8.718  0.1240  0.0260  0.0714
 1253W        W 5317   7.466   6.532   8.472 -0.1354 -0.0048 -0.1429
 1254W        W 5318   0.542   8.024   9.545 -0.1059 -0.0252  0.0774
 1255W        W 5319   6.026   9.056   9.358  0.3473 -0.1264  0.0364
 1256W        W 5320   6.447   8.838   2.294  0.2705 -0.2273 -0.0006
 1257W        W 5321   2.282   7.479  10.955  0.2687  0.0176 -0.1143
 1258W        W 5322   8.076   0.897   1.765  0.0348  0.1595 -0.0842
 1259W        W 5323   8.227   8.487   8.857 -0.0717 -0.1952  0.1421
 1260W        W 5324   2.119   4.666   9.784 -0.0840 -0.1307  0.1786
 1261W        W 5325   3.215   8.544   1.544 -0.0628  0.1421 -0.1148
 1262W        W 5326   9.834  10.076   9.058  0.1051  0.2469 -0.1005
 1263W        W 5327   6.721   0.043  10.420  0.0948  0.3626 -0.0203
 1264W        W 5328   9.742   8.827  10.409 -0.2915  0.0778  0.0136
 1265W        W 5329  10.033   6.851   9.304 -0.0003 -0.1296 -0.1410
 1266W        W 5330   0.371   0.686   3.788  0.1090 -0.1982  0.0714
 1267W        W 5331   8.976   4.760   1.923 -0.1359  0.4649  0.0151
 1268W        W 5332   1.182   1.728  10.676 -0.0525  0.1114  0.2314
 1269W        W 5333   2.763   0.366   0.159 -0.0589  0.6348 -0.3079
 1270W        W 5334   0.727   3.631   0.571  0.0328 -0.1934 -0.6666
 1271W        W 5335   1.722   4.177   2.576 -0.1774 -0.0509  0.1656
 1272W        W 5336   1.511   5.781  10.539  0.1532 -0.0804  0.1859
 1273W        W 5337   8.174   1.110  10.871  0.1741 -0.3885 -0.2386
 1274W        W 5338   7.637   7.003   9.516  0.2972  0.3672 -0.0235
 1275W        W 5339   3.439   2.321   7.460 -0.2383 -0.2712  0.2609
 1276W        W 5340   5.456   6.004   4.136  0.1064  0.0563 -0.0660
 1277W        W 5341   1.992   5.918  10.447 -0.1374  0.2215 -0.3401
 1278W        W 5342   1.506   3.344   2.830  0.0267  0.0660 -0.1757
 1279W        W 5343   3.441   4.925   8.499 -0.2742  0.4956 -0.1607
 1280W        W 5344   4.368   4.939  11.109 -0.2792  0.0637 -0.2380
 1281W        W 5345   9.839   3.156   8.548 -0.4887  0.4835  0.0469
 1282W        W 5346   9.291   0.157  10.549 -0.0822  0.0420 -0.3004
 1283W        W 5347   4.738   1.505  10.551  0.0945  0.1739  0.0889
 1284W        W 5348   1.163   9.257   2.098 -0.0534  0.2959  0.3320
 1285W        W 5349   0.776  10.569   0.415  0.0040  0.1922 -0.1210
 1286W        W 5350   6.093   3.852   4.084  0.1822  0.0760  0.0339
 1287W        W 5351   1.527   1.807   8.670  0.1106 -0.3100 -0.0301
 1288W        W 5352   9.769   3.495   8.921 -0.1140  0.0497  0.4688
 1289W        W 5353   0.471   1.338   2.375 -0.1017  0.0210  0.0460
 1290W        W 5354   9.298   3.712   8.748 -0.1737 -0.0139  0.1902
 1291W        W 5355   8.659   1.940   4.001 -0.1179 -0.0233 -0.0053
 1292W        W 5356   5.023   9.519   7.388  0.0300  0.1033  0.1852
 1293W        W 5357   3.678  10.210   2.706  0.1060 -0.0505  0.1974
 1294W        W 5358   6.620  10.200   0.099 -0.0041  0.0961  0.2312
 1295W        W 5359   8.762   1.702   0.963 -0.1033 -0.2303  0.0107
 1296W        W 5360   3.144   5.679   3.735  0.0318 -0.0723 -0.0381
 1297W        W 5361   5.239   6.829   2.556  0.2485  0.0472  0.0595
 1298W        W 5362   8.696   9.593  10.659 -0.0580  0.2487  0.1675
 1299W        W 5363   5.389   0.201  11.580 -0.6034 -0.0651  0.0095
 1300W        W 5364   5.328  10.451   3.261  0.1520 -0.1359 -0.0098
 1301W        W 5365   9.389   3.985   9.747  0.1455 -0.0827  0.0079
 1302W        W 5366   7.070   0.918  11.083  0.0500 -0.0436  0.1126
 1303W        W 5367   8.874   5.341  10.879  0.1324  0.0937 -0.0414
 1304W        W 5368  10.393   1.875  10.230  0.1096  0.2602 -0.1094
 1305W        W 5369   8.114   5.753   1.505 -0.0823 -0.2872  0.1341
 1306W        W 5370   6.243   5.836   3.099  0.1600 -0.1123  0.0397
 1307W        W 5371   9.114   8.186  10.981 -0.1245 -0.0421  0.0921
 1308W        W 5372   3.632   2.677   0.001  0.0966 -0.1598 -0.0555
 1309W        W 5373   1.280   7.759  10.903  0.0662  0.0360  0.0808
 1310W        W 5374   5.819   8.978   9.825  0.1244  0.0953 -0.0705
 1311W        W 5375   0.867   9.308   0.333  0.0021  0.1944  0.1094
 1312W        W 5376   0.567   6.605   0.310 -0.1413 -0.2043  0.0873
 1313W        W 5377   8.946  10.058  10.861 -0.2245  0.1896  0.1699
 1314W        W 5378   0.193   0.800  11.069 -0.1794  0.0480  0.2400
 1315W        W 5379   5.579   6.502   3.267 -0.1044 -0.1393  0.1887
 1316W        W 5380   4.736   8.871   3.430 -0.2383 -0.1043 -0.3163
 1317W        W 5381   0.186   8.060  10.838  0.1801 -0.2560  0.0200
 1318W        W 5382   5.150   0.649   3.272 -0.2635 -0.0728 -0.2792
 1319W        W 5383   7.036   9.179  10.525  0.1536  0.3108 -0.0183
 1320W        W 5384   1.561   8.041  11.311 -0.1542  0.2617 -0.1916
 1321W        W 5385   3.896   3.108   9.995 -0.1664 -0.2890 -0.1187
 1322W        W 5386   8.574   1.440   9.941 -0.0470  0.0339  0.1363
 1323W        W 5387   3.256   2.121   3.640 -0.2560 -0.2738  0.0875
 1324W        W 5388   7.683   4.434  11.537 -0.2789  0.1163 -0.1484
 1325W        W 5389   9.111   8.588   1.818  0.0727 -0.2836 -0.0121
 1326W        W 5390   6.274   8.688  11.561 -0.1175  0.2104  0.2523
 1327W        W 5391   7.716   1.587   9.656  0.2319  0.0364 -0.2459
 1328W        W 5392  10.509   7.747  11.594  0.2054  0.2359  0.1773
 1329W        W 5393  10.105   8.152   9.778 -0.3937 -0.3067  0.1754
 1330W        W 5394   9.862   9.542   1.277 -0.0114 -0.0904 -0.1345
 1331W        W 5395   3.891   5.793   9.788 -0.0155 -0.0924 -0.0838
 1332W        W 5396  10.592   4.229   8.271 -0.0423 -0.0269 -0.2806
 1333W        W 5397   0.998  10.568   2.847  0.1080  0.0249 -0.2999
 1334W        W 5398   0.424   8.824   2.823  0.2876 -0.0236  0.3952
 1335W        W 5399   4.806   4.187   3.527  0.1307 -0.1185 -0.0173
 1336W        W 5400   3.339   9.336   1.050  0.0546  0.3024  0.1134
 1337W        W 5401   4.948   4.171   1.306 -0.1172  0.1054 -0.1570
 1338W        W 5402   9.062   7.995   2.118  0.1913  0.2429  0.0915
 1339W        W 5403   1.635   7.115   4.491 -0.1938  0.0966 -0.1884
 1340W        W 5404   6.881   0.728   2.932 -0.0286 -0.0002 -0.2801
 1341W        W 5405   1.383   7.035   8.828 -0.0391 -0.2407  0.1865
 1342W        W 5406   1.844   1.558   2.542 -0.4267 -0.1438  0.0793
 1343W        W 5407   1.352   0.459   8.300  0.2072 -0.0283  0.1037
 1344W        W 5408   8.986   5.009   8.228  0.0533  0.2164  0.1540
 1345W        W 5409   1.819   4.393   9.479 -0.0918 -0.0744  0.0299
 1346W        W 5410   8.984   5.964   0.074  0.1860  0.0715 -0.2670
 1347W        W 5411   9.519   0.634   1.685 -0.2621  0.0248  0.1049
 1348W        W 5412   1.579   8.464   8.744 -0.1636 -0.3612 -0.1104
 1349W        W 5413   5.843   4.394   2.143 -0.0388 -0.2711  0.3014
 1350W        W 5414   2.583   3.713   8.468  0.3263 -0.0170  0.0266
 1351W        W 5415   9.712   8.294   2.596  0.1735  0.0961  0.1571
 1352W        W 5416   0.594   9.251   2.624  0.0623 -0.1234  0.3270
 1353W        W 5417   7.125  10.614  11.005 -0.1386  0.0057  0.1310
 1354W        W 5418   0.009   9.604   1.823  0.0927 -0.1175  0.1753
 1355W        W 5419  10.453   2.139   0.878  0.1927  0.1684  0.0746
 1356W        W 5420   1.366   6.955   3.882  0.0885 -0.3788 -0.1578
 1357W        W 5421   9.058   6.179   1.105 -0.0672  0.1727  0.1108
 1358W        W 5422   8.015   3.248   1.170  0.2788 -0.1525 -0.1326
 1359W        W 5423   5.801   3.456   1.738 -0.0152 -0.1994 -0.0029
 1360W        W 5424   2.156   3.964   1.275 -0.3594 -0.0333  0.0685
 1361W        W 5425   4.312   7.376  10.065  0.2961 -0.1120 -0.2603
 1362W        W 5426   4.682   5.840  11.177 -0.0867  0.0267  0.0317
 1363W        W 5427   7.820   3.211   8.937  0.3322  0.1426  0.0400
 1364W        W 5428   4.585   0.551   0.571 -0.1573  0.1632 -0.1572
 1365W        W 5429   3.665   2.388   8.478  0.1602 -0.3639 -0.2347
 1366W        W 5430   3.168   4.888   0.800  0.2707 -0.1269  0.1464
 1367W        W 5431   6.570   3.707   8.719 -0.0913 -0.1454 -0.0899
 1368W        W 5432   7.407   8.736   2.667 -0.1196 -0.0737 -0.1846
 1369W        W 5433   4.128   1.867   8.605  0.0720 -0.0974  0.0713
 1370W        W 5434   2.304   9.433   8.296  0.1286  0.2478 -0.2853
 1371W        W 5435   0.350   4.115  10.890  0.1402  0.4054 -0.0866
 1372W        W 5436   5.065   4.052   3.136 -0.2953 -0.4009  0.1359
 1373W        W 5437   0.610   4.419   0.966 -0.2417 -0.0797 -0.0209
 1374W        W 5438   8.331   0.673   0.050  0.0000 -0.1531 -0.3414
 1375W        W 5439   3.554   0.126   4.039 -0.2076  0.3055  0.2208
 1376W        W 5440   0.129   0.292   2.335 -0.0194 -0.2188  0.1924
 1377W        W 5441   3.299   8.954   9.359  0.0679 -0.0934  0.1316
 1378W        W 5442   4.748   5.557   4.274 -0.3357  0.0097 -0.0830
 1379W        W 5443   5.887   3.551   3.049 -0.1988  0.0389 -0.0428
 1380W        W 5444   1.064   7.604   1.910 -0.2645 -0.1012 -0.0715
 1381W        W 5445   7.302   6.629   9.420 -0.1374  0.2644 -0.2111
 1382W        W 5446   7.956   8.458   9.810  0.2280  0.0440 -0.1549
 1383W        W 5447   0.283   0.101   7.602  0.1057  0.0194  0.2080
 1384W        W 5448  10.282   4.933   0.579 -0.2009 -0.0657  0.2333
 1385W        W 5449   6.874   8.446   9.385 -0.1442 -0.0007 -0.2440
 1386W        W 5450   5.560   8.052   2.073 -0.0680 -0.2056 -0.0524
 1387W        W 5451   4.626   5.138   4.574 -0.2241  0.5519 -0.2041
 1388W        W 5452   1.613   3.353   1.780  0.0809  0.1810  0.0464
 1389W        W 5453   7.010   1.028   9.446 -0.0144 -0.1253 -0.0088
 1390W        W 5454   7.883   4.812  10.771 -0.0671  0.1532  0.1225
 1391W        W 5455   5.232   5.888   8.130  0.0353  0.4926 -0.0077
 1392W        W 5456   7.843  10.507   0.526  0.0210 -0.1225 -0.0091
 1393W        W 5457   5.440   4.382  10.874  0.0234 -0.2239 -0.0207
 1394W        W 5458   5.012  10.310  10.957  0.0269  0.1549  0.0383
 1395W        W 5459   1.339   4.579  10.254  0.1024 -0.0788 -0.0192
 1396W        W 5460   9.037   5.782   9.212 -0.0863 -0.1415 -0.1196
 1397W        W 5461   4.690   8.175   0.776 -0.4110 -0.0858  0.2412
 1398W        W 5462   9.149   3.217   1.775 -0.0513  0.0356  0.1754
 1399W        W 5463   3.962   2.330   2.891  0.0512  0.0043 -0.1097
 1400W        W 5464   9.044   7.243   3.161  0.1092  0.3133 -0.2978
 1401W        W 5465   1.429  10.150   8.140 -0.1504  0.0285  0.2399
 1402W        W 5466   8.393   2.979   8.462  0.1136 -0.1009 -0.0802
 1403W        W 5467   3.226   9.383   2.448 -0.1441  0.1085 -0.0860
 1404W        W 5468   2.033   2.282   7.429 -0.0065 -0.1791 -0.0456
 1405W        W 5469   8.650   8.318  11.063  0.0954  0.1862  0.4286
 1406W        W 5470   5.922   6.622   9.866  0.1231 -0.3213 -0.0504
 1407W        W 5471   1.508   6.255   2.308 -0.1024  0.1501  0.4104
 1408W        W 5472   2.770   7.291   9.340  0.0621  0.1492 -0.0211
 1409W        W 5473   3.312   0.826   8.929 -0.2691  0.1591  0.1516
 1410W        W 5474   5.725   2.553  11.326  0.1185  0.1932  0.1037
 1411W        W 5475   1.876   5.890   2.211 -0.2811 -0.1489  0.0660
 1412W        W 5476  10.188   1.254   9.340  0.0739  0.2938  0.0394
 1413W        W 5477   9.898   1.935  10.424  0.6513 -0.0008  0.0140
 1414W        W 5478   7.565   6.003  10.238 -0.0401  0.1703  0.1804
 1415W        W 5479   7.229   4.715  11.373  0.3238 -0.4581  0.0097
 1416W        W 5480   5.072   7.483   2.884 -0.0613 -0.3882 -0.1323
 1417W        W 5481   7.309   7.939   3.091 -0.3936 -0.0089  0.0831
 1418W        W 5482   7.255   0.907   8.548 -0.0960  0.2160 -0.0648
 1419W        W 5483   3.963   3.589   8.235 -0.0453 -0.2313 -0.0898
 1420W        W 5484   1.488   5.107   8.254  0.0224 -0.0045  0.4326
 1421W        W 5485   5.768  10.529   0.170  0.3420  0.1711 -0.2409
 1422W        W 5486   6.958   4.778   8.657  0.4207  0.0651  0.0891
 1423W        W 5487   1.958   1.696  10.579  0.5112  0.1848 -0.1788
 1424W        W 5488   0.130   5.877   1.832  0.2103 -0.1632 -0.3426
 1425W        W 5489   1.588   4.326   0.590 -0.1533  0.1164 -0.1867
 1426W        W 5490  10.276   9.608  10.666 -0.1495 -0.1916 -0.0956
 1427W        W 5491   6.005   5.654   2.271  0.3525 -0.3456 -0.0860
 1428W        W 5492   4.289   2.469   7.837  0.1074 -0.1301  0.2326
 1429W        W 5493  10.058   7.990   8.843 -0.0079  0.0565 -0.1360
 1430W        W 5494   0.708   0.939   2.581 -0.1145 -0.0396 -0.0732
 1431W        W 5495   0.352   0.085   0.213 -0.2894  0.1352  0.0004
 1432W        W 5496   4.527   5.505   1.191  0.3122  0.3353 -0.1492
 1433W        W 5497   9.965   4.924  10.879  0.0035  0.3933  0.3263
 1434W        W 5498   3.661   8.542   3.646  0.3720 -0.2349  0.0348
 1435W        W 5499   9.331   8.889   1.011  0.3030 -0.0678  0.3590
 1436W        W 5500  10.293   9.091   9.406 -0.1492  0.2338 -0.0512
 1437W        W 5501   8.830   1.632  10.401  0.0847  0.1612  0.2039
 1438W        W 5502   6.290   2.841  10.606  0.1355  0.0133  0.2047
 1439W        W 5503  10.611   3.418   2.996 -0.0006  0.2732 -0.0655
 1440W        W 5504   5.479   6.713  10.770  0.2811  0.1138 -0.2243
 1441W        W 5505   3.918   2.874   8.670  0.3855  0.0464 -0.1276
 1442W        W 5506   8.590   9.094   0.366 -0.0310  0.1264  0.1898
 1443W        W 5507   1.195   7.436  10.510 -0.2132 -0.1347 -0.1524
 1444W        W 5508   5.339   9.298   2.397 -0.1438 -0.0096  0.0533
 1445W        W 5509   1.024   0.217   9.297  0.0643  0.0047 -0.0391
 1446W        W 5510   3.967   8.042   4.070 -0.1271 -0.0845 -0.0565
 1447W        W 5511   9.688   0.477  10.273 -0.0471  0.0041 -0.1723
 1448W        W 5512  10.337   3.005   8.639 -0.2099 -0.1507  0.0265
 1449W        W 5513   2.761   5.636   0.925 -0.2346 -0.0901 -0.0639
 1450W        W 5514   3.677   3.032  10.411  0.0438 -0.1170 -0.1392
 1451W        W 5515   4.770   8.385   2.549 -0.0943 -0.0700  0.0646
 1452W        W 5516   4.946   1.224  11.215  0.1287  0.3158 -0.0555
 1453W        W 5517   2.693   4.801   2.061  0.2926  0.1705 -0.0946
 1454W        W 5518   2.550   2.163   0.661 -0.0871  0.1601 -0.0000
 1455W        W 5519   6.635   0.580   3.617  0.0398  0.1608 -0.1384
 1456W        W 5520  10.248   0.389   9.444  0.0302 -0.1092 -0.0358
 1457W        W 5521   8.041   3.667   2.978 -0.0130  0.0560 -0.4008
 1458W        W 5522   4.443  10.590  11.579 -0.1871  0.2321  0.2351
 1459W        W 5523   0.441   3.127   7.946 -0.1890 -0.1888  0.1565
 1460W        W 5524   8.533   1.332   3.026 -0.3076  0.0249  0.1769
 1461W        W 5525   9.702   5.918   1.671  0.3244  0.3053  0.2095
 1462W        W 5526  10.600   1.612   1.209 -0.1785  0.1471 -0.0426
 1463W        W 5527   9.473   7.961   1.303  0.1020 -0.1863 -0.3132
 1464W        W 5528  10.324   1.667   9.772 -0.0520  0.4270 -0.1847
 1465W        W 5529   5.343   2.561  10.343 -0.3590 -0.2334  0.3037
 1466W        W 5530   8.142   5.118  10.417 -0.1745  0.2279  0.0079
 1467W        W 5531   9.247   1.732   2.785  0.0219  0.0293 -0.1367
 1468W        W 5532   1.705   1.723   8.169  0.2174  0.0477  0.0441
 1469W        W 5533   4.495   0.345   1.094  0.2311  0.0152  0.1588
 1470W        W 5534   0.052  10.278  10.087 -0.0075 -0.2587 -0.0049
 1471W        W 5535  10.111   1.086   1.034  0.0721  0.2085 -0.0384
 1472W        W 5536   7.051   1.258   0.037  0.0408 -0.0695 -0.5578
 1473W        W 5537   7.755   8.133  11.336  0.0478  0.0476  0.1426
 1474W        W 5538  10.588   7.297  11.285  0.0983  0.0649 -0.4543
 1475W        W 5539   2.840   4.957   8.082 -0.0504  0.0914 -0.2968
 1476W        W 5540   6.353   3.759  11.156 -0.0321 -0.3489  0.1001
 1477W        W 5541  10.284   0.940  10.370  0.2316 -0.0300 -0.2177
 1478W        W 5542   7.535   2.645  10.704 -0.1855  0.1139  0.2092
 1479W        W 5543   8.029   9.929   0.319  0.1149 -0.2794  0.1371
 1480W        W 5544   9.572   7.762   2.663 -0.4515  0.0162  0.1907
 1481W        W 5545   2.227   9.080   1.382  0.2167  0.0177 -0.0968
 1482W        W 5546   7.988   0.494   8.872 -0.1082 -0.0569 -0.1947
 1483W        W 5547   6.758   0.567   9.374  0.0150 -0.0198  0.1287
 1484W        W 5548   8.747   5.663   2.811 -0.0347 -0.0413  0.0561
 1485W        W 5549   5.623   6.317   3.767  0.1968 -0.0318  0.0019
 1486W        W 5550   8.967   5.947   2.447  0.2425  0.2561 -0.1813
 1487W        W 5551   8.988   8.411   3.448  0.1461  0.4082  0.1791
 1488W        W 5552   4.655   8.331   2.095  0.0391 -0.3699 -0.1275
 1489W        W 5553   9.857  10.468  10.720 -0.0986 -0.2051 -0.0731
 1490W        W 5554   6.805   7.063   3.785 -0.2493  0.1273 -0.1061
 1491W        W 5555   2.964   4.838   0.372  0.3100 -0.4136 -0.0919
 1492W        W 5556   3.987   0.407   1.187  0.1378  0.2242 -0.1036
 1493W        W 5557   3.811   0.036   2.510  0.0629 -0.3355 -0.1081
 1494W        W 5558   1.915   8.189  10.269 -0.0582 -0.0456  0.4036
 1495W        W 5559   3.923   1.040   2.393  0.2320  0.0836  0.1058
 1496W        W 5560   4.655   3.489  11.506  0.1309 -0.2569  0.3239
 1497W        W 5561   2.719   9.687   3.376  0.0584 -0.3575 -0.0617
 1498W        W 5562   9.462   0.097   2.322  0.0245 -0.1767  0.0983
 1499W        W 5563   8.142   9.000  10.365 -0.2940 -0.1183 -0.1420
 1500W        W 5564   9.272   4.446  11.033  0.1340 -0.1287  0.1279
 1501W        W 5565   8.596   0.477  10.090 -0.0333  0.0861 -0.0592
 1502W        W 5566   4.660   7.811   1.858 -0.0537  0.0442 -0.2989
 1503W        W 5567   6.202   2.690   2.515 -0.0967  0.1131  0.1465
 1504W        W 5568   1.725   2.635   0.065 -0.3257 -0.0123  0.1720
 1505W        W 5569   9.419  10.613   0.820  0.1412  0.3004 -0.2534
 1506W        W 5570   2.840   6.997   8.316  0.3242  0.2173 -0.1002
 1507W        W 5571   7.812   7.715   9.229  0.0862 -0.1442  0.4141
 1508W        W 5572   6.577   8.443   9.884  0.1472 -0.1852 -0.0274
 1509W        W 5573   9.529   1.137   8.211  0.1229 -0.1272 -0.1961
 1510W        W 5574   8.039   4.296   4.298 -0.0916 -0.3406 -0.2908
 1511W        W 5575   9.399   6.935   1.661 -0.0363 -0.3425  0.3722
 1512W        W 5576   5.402   7.150   4.930  0.1270  0.1723 -0.1878
 1513W        W 5577   8.608   2.962   7.518 -0.0216  0.2458  0.1713
 1514W        W 5578   3.032   3.045   9.754  0.1703 -0.1927 -0.2409
 1515W        W 5579   7.786   1.841   0.369 -0.1279  0.0422  0.3068
 1516W        W 5580   1.882   0.138  11.183 -0.1409  0.1418  0.1531
 1517W        W 5581   6.287  10.310   1.681 -0.0235 -0.0048 -0.0273
 1518W        W 5582   0.455   7.705   8.993 -0.2630 -0.0429 -0.1603
 1519W        W 5583   4.712   9.618  10.697 -0.1085 -0.0855  0.1260
 1520W        W 5584   2.233   6.347   2.230  0.1383 -0.0152 -0.0381
 1521W        W 5585   4.183   3.223   1.930 -0.0891 -0.2040 -0.0366
 1522W        W 5586   5.372   4.452   3.482 -0.0114 -0.1759 -0.0206
 1523W        W 5587   2.970   0.925  10.620  0.1686 -0.0590  0.1189
 1524W        W 5588   0.960   4.948   1.461 -0.0426 -0.2155 -0.6333
 1525W        W 5589   1.716   3.796   9.349  0.1062  0.1314 -0.1183
 1526W        W 5590   2.904   7.458   8.562 -0.4456  0.3880  0.0324
 1527W        W 5591   6.660   3.093   0.572  0.1005  0.0083 -0.3517
 1528W        W 5592   2.560   1.140   2.333  0.0769  0.1721 -0.2455
 1529W        W 5593   2.897   2.545   0.632  0.1836 -0.0530  0.0698
 1530W        W 5594   1.064   7.349   3.855  0.2065 -0.0537 -0.2078
 1531W        W 5595   2.235   7.163   2.749 -0.1132 -0.1505  0.1287
 1532W        W 5596   5.629   6.258  10.654  0.1847 -0.0147  0.2006
 1533W        W 5597   6.011   8.219   1.991 -0.0244  0.2580 -0.0462
 1534W        W 5598   4.808   2.784   2.330 -0.0890  0.2565  0.1257
 1535W        W 5599   1.604   7.041   9.680  0.1625  0.0187  0.0572
 1536W        W 5600   8.670   0.083   8.765 -0.1622  0.0278 -0.0739
 1537W        W 5601   3.814   7.184  10.195  0.1972  0.1523  0.1112
 1538W        W 5602   0.928  10.097   0.206  0.0601 -0.1469  0.0155
 1539W        W 5603  10.397   5.167   3.150  0.1112  0.0169 -0.0716
 1540W        W 5604   9.232   4.334   0.186 -0.2487 -0.1574 -0.1448
 1541W        W 5605   3.529   6.020   3.569 -0.1858 -0.2048  0.1544
 1542W        W 5606   5.155   8.364   8.200  0.1074  0.0173 -0.2220
 1543W        W 5607   8.269   8.183   0.523 -0.0777 -0.2176  0.0165
 1544W        W 5608  10.586   6.606   9.152 -0.0864 -0.2907 -0.1439
 1545W        W 5609   8.378   4.759   3.700  0.0625  0.1895 -0.1135
 1546W        W 5610   3.811   8.244   9.176 -0.0819 -0.1212 -0.2811
 1547W        W 5611   3.913   2.277   0.010  0.1051  0.1288 -0.0163
 1548W        W 5612   9.219   0.121   8.085  0.1264 -0.1978  0.0256
 1549W        W 5613   7.305   2.705   0.073  0.2084  0.2198  0.3052
 1550W        W 5614   5.589   4.299   1.715  0.0162 -0.0694  0.3238
 1551W        W 5615   9.437   2.604  11.281  0.0456  0.1624 -0.0493
 1552W        W 5616   8.069   3.988   0.089  0.0227  0.2335 -0.2149
 1553W        W 5617   4.606   2.137  10.904  0.1933  0.2928  0.0031
 1554W        W 5618   1.540   2.067   7.736  0.1161  0.1018 -0.0814
 1555W        W 5619   7.877  10.133   2.344  0.1089 -0.1252 -0.2017
 1556W        W 5620   6.111   1.362   2.986 -0.0609 -0.0036  0.0126
 1557W        W 5621   6.339   4.569   1.405  0.3583 -0.1926  0.1381
 1558W        W 5622   3.505   1.262   0.290 -0.2688 -0.0926 -0.0309
 1559W        W 5623   6.580   6.591   0.086 -0.1925  0.2082 -0.0278
 1560W        W 5624   8.215   9.284  10.789 -0.1233  0.0302 -0.1599
 1561W        W 5625   7.822   3.763   3.818  0.0014  0.2617 -0.0085
 1562W        W 5626   1.602   3.777   8.857  0.1254 -0.2665 -0.0995
 1563W        W 5627   8.908   1.497   2.445 -0.1048 -0.1262 -0.1641
 1564W        W 5628   2.253   0.119   8.196  0.3572 -0.1917  0.2760
 1565W        W 5629   5.518   9.836   0.527 -0.0657  0.1440  0.0095
 1566W        W 5630   4.939   0.045   8.504  0.0645 -0.3854 -0.3587
 1567W        W 5631   0.441   0.188   3.727  0.5900  0.1222  0.2026
 1568W        W 5632   4.430   0.577   2.721  0.0398 -0.1728 -0.0212
 1569W        W 5633   5.375   9.744  10.814 -0.0971  0.1547  0.0149
 1570W        W 5634   2.090  10.202  10.084 -0.1176  0.1601 -0.0039
 1571W        W 5635   6.170   7.873   9.063 -0.0646  0.1452 -0.0000
 1572W        W 5636   4.843   9.869   2.890 -0.0217 -0.2227  0.1389
 1573W        W 5637   6.939   2.776   8.931  0.2711 -0.0877 -0.1886
 1574W        W 5638   8.007   7.431   8.852 -0.2691  0.3021  0.0662
 1575W        W 5639   8.328  10.626   9.586 -0.1785  0.0802  0.0481
 1576W        W 5640   9.714  10.294   1.161 -0.2465  0.0333 -0.0088
 1577W        W 5641   6.681   3.282   0.068 -0.2222  0.1126  0.2550
 1578W        W 5642   6.916   4.308   3.077 -0.0762 -0.0226  0.1160
 1579W        W 5643   9.448   9.267   0.144 -0.0236 -0.2328  0.1875
 1580W        W 5644   2.241   9.151   1.886  0.0946 -0.1725 -0.0053
 1581W        W 5645   4.654   9.210  10.315  0.1703  0.0621 -0.1244
 1582W        W 5646   9.954  10.415   9.344  0.2987 -0.1794  0.4742
 1583W        W 5647   1.751   0.021   9.013 -0.1809  0.1168 -0.1020
 1584W        W 5648   2.598   7.632   8.998 -0.0698  0.0881 -0.1234
 1585W        W 5649  10.558   6.509   1.167 -0.3192  0.0127  0.4765
 1586W        W 5650   4.139   0.254  10.858  0.1713  0.4397  0.0806
 1587W        W 5651   7.024   7.276  10.431  0.3970 -0.1910  0.1837
 1588W        W 5652  10.397   3.649   9.904 -0.1895 -0.2525  0.0521
 1589W        W 5653   1.320   4.548   3.420 -0.1453  0.1217  0.2820
 1590W        W 5654   0.217   9.800   9.906 -0.0551 -0.0319  0.3172
 1591W        W 5655   4.914   7.177   1.331  0.0849  0.4821  0.0299
 1592W        W 5656   3.564   1.886   8.660  0.2552  0.0625 -0.1333
 1593W        W 5657   0.447   4.596  10.667 -0.0792  0.1075 -0.0372
 1594W        W 5658   8.418   8.634  10.084 -0.0323  0.3807  0.0236
 1595W        W 5659   5.752   0.828  11.525 -0.1899 -0.0805  0.1676
 1596W        W 5660   3.709   4.995   3.513 -0.1446  0.0348 -0.0507
 1597W        W 5661   4.331   6.523   8.738 -0.0531  0.2013  0.0312
 1598W        W 5662   9.856   2.582   0.799 -0.3638  0.2339  0.3864
 1599W        W 5663   2.228   8.883   8.397 -0.0070 -0.0798  0.4297
 1600W        W 5664   9.462   6.628   0.345  0.4125  0.0274 -0.1422
 1601W        W 5665   1.545  10.077   2.563 -0.2032  0.1807  0.2209
 1602W        W 5666   7.531   7.358   1.427 -0.0104 -0.0568  0.3579
 1603W        W 5667   8.677   9.422   9.021 -0.1349 -0.0704  0.1432
 1604W        W 5668   9.528   9.423   2.632 -0.0960 -0.1259 -0.0683
 1605W        W 5669   4.292   0.322   1.592  0.0767 -0.0532  0.1549
 1606W        W 5670   3.571   9.311  10.869  0.2608  0.2935 -0.0582
 1607W        W 5671   0.678   6.090   8.975 -0.3561  0.3705  0.1027
 1608W        W 5672   0.515   3.246  11.511 -0.1970  0.0200  0.2530
 1609W        W 5673   5.837  10.564   0.819  0.0346  0.1973  0.0483
 1610W        W 5674   5.041   6.119   8.549 -0.1690  0.0163  0.1321
 1611W        W 5675  10.203   6.572   8.896  0.2137  0.0870  0.4413
 1612W        W 5676   3.745   9.399   0.731  0.0312  0.0475  0.1120
 1613W        W 5677   8.841   8.326   2.620  0.1339  0.1919 -0.0259
 1614W        W 5678   9.471   6.366   1.762 -0.0592 -0.1178 -0.1516
 1615W        W 5679   4.654   9.941   3.507  0.3032  0.1810 -0.2313
 1616W        W 5680   5.179   8.510  10.776  0.0563  0.1543  0.1275
 1617W        W 5681   2.273   9.304   2.378 -0.1600 -0.2463  0.2687
 1618W        W 5682   1.135   4.334   0.994 -0.2389 -0.1069  0.2483
 1619W        W 5683   8.639   7.015   1.902  0.0464 -0.3122 -0.0168
 1620W        W 5684   8.997   9.902  10.368  0.4073 -0.1337 -0.0195
 1621W        W 5685   9.225   8.460   0.589  0.1025 -0.0055  0.0372
 1622W        W 5686   7.802   7.069   1.095 -0.1514 -0.0697 -0.4092
 1623W        W 5687   4.533   0.157   9.726  0.0534  0.0780 -0.1853
 1624W        W 5688   0.673   7.888   0.092  0.0264  0.0759 -0.1020
 1625W        W 5689   7.697   6.764   9.056  0.0936  0.0964 -0.0168
 1626W        W 5690   9.752   4.347  10.811  0.0518 -0.3013 -0.3750
 1627W        W 5691   4.892   0.236   2.357  0.3339  0.1119 -0.0313
 1628W        W 5692  10.386   0.645   2.230 -0.2306  0.0012  0.0776
 1629W        W 5693   8.342   4.723   8.418  0.2618 -0.2490  0.1578
 1630W        W 5694   3.425   1.146  10.568  0.3653 -0.0390 -0.3509
 1631W        W 5695   4.746   8.270  10.488 -0.1812  0.0182  0.0900
 1632W        W 5696  10.368   2.333   3.478  0.0105  0.0878 -0.2734
 1633W        W 5697  10.063   4.201   3.307  0.1961 -0.0621  0.1525
 1634W        W 5698   7.201   8.568   2.219 -0.3663  0.0110  0.1156
 1635W        W 5699   0.203   1.778   2.415  0.0527  0.0578  0.0856
 1636W        W 5700   3.287   5.420   2.690 -0.1407  0.1709  0.0706
 1637W        W 5701   3.085   9.755   0.852 -0.0947 -0.0114  0.1194
 1638W        W 5702   3.654   9.404  10.146  0.0087  0.5180  0.1247
 1639W        W 5703   9.769   6.735   8.187  0.0404 -0.0935 -0.1966
 1640W        W 5704   4.482   3.112   3.701  0.1959  0.2002  0.2530
 1641W        W 5705   4.261   6.698   2.869 -0.1300 -0.5185 -0.2398
 1642W        W 5706   6.451   7.471   9.143  0.1197 -0.1997  0.4912
 1643W        W 5707   9.578  10.025   0.070 -0.0789  0.1081  0.1034
 1644W        W 5708   1.179   7.230   3.121 -0.0855  0.2414 -0.1502
 1645W        W 5709   6.734   5.971  10.070 -0.3010  0.1230 -0.2536
 1646W        W 5710   3.844   0.778   9.930  0.0609 -0.0898 -0.2348
 1647W        W 5711   8.100   9.931  11.314 -0.1554  0.0121 -0.1810
 1648W        W 5712  10.195   4.501   8.224 -0.1523 -0.2599 -0.0951
 1649W        W 5713  10.460   1.021   8.327  0.2350  0.0377 -0.1280
 1650W        W 5714   2.815  10.034   3.019  0.1409 -0.2565  0.0996
 1651W        W 5715   8.977   1.976   2.402 -0.1621 -0.0932 -0.0543
 1652W        W 5716   3.069   2.149   3.031  0.0828 -0.0913 -0.1942
 1653W        W 5717   9.526   1.938  10.843 -0.1932 -0.0172 -0.3832
 1654W        W 5718   1.878   5.026   3.505  0.2198 -0.0537 -0.2723
 1655W        W 5719   1.810   1.457   1.937 -0.4113  0.3045  0.4829
 1656W        W 5720   7.417   2.601   0.595 -0.1144 -0.1612  0.1200
 1657W        W 5721   5.276   5.004   0.314  0.1940 -0.2095 -0.3059
 1658W        W 5722   5.663   0.436   3.416 -0.2193  0.1642 -0.1902
 1659W        W 5723   3.469   2.251   2.138  0.0443 -0.1035 -0.1764
 1660W        W 5724   4.238   8.199  10.649 -0.0088 -0.2399  0.0909
 1661W        W 5725   3.245   8.549  10.630 -0.2391  0.1192  0.2258
 1662W        W 5726   9.286   4.290   1.838 -0.2149 -0.0522  0.0791
 1663W        W 5727   9.386   2.312   3.394 -0.1161  0.2902 -0.0906
 1664W        W 5728  10.348   3.945   4.222  0.0289  0.0141  0.2528
 1665W        W 5729   3.959   6.328   1.190 -0.0108 -0.2106  0.1959
 1666W        W 5730   8.012   7.234   8.339 -0.0688 -0.1673 -0.2291
 1667W        W 5731   1.686   2.062   3.712  0.1196 -0.1723  0.3087
 1668W        W 5732   4.324   1.424  10.205  0.1537  0.1417 -0.2212
 1669W        W 5733   2.442   3.497   1.200 -0.0358 -0.2387 -0.2066
 1670W        W 5734   4.685   5.748   1.598  0.0016  0.0693  0.0413
 1671W        W 5735   3.501   8.107   1.469 -0.1078  0.0009 -0.0607
 1672W        W 5736   9.077   3.669   2.528  0.3667  0.0954  0.0646
 1673W        W 5737   8.306   3.151   9.533 -0.0929  0.0136  0.2291
 1674W        W 5738   2.301   6.187   3.216 -0.0054  0.1600  0.1003
 1675W        W 5739   0.670   6.592   2.645  0.2262 -0.1436 -0.4644
 1676W        W 5740   7.355   3.098   2.242  0.0614  0.0045 -0.1101
 1677W        W 5741   9.182   2.827   2.119  0.2115 -0.1232  0.1682
 1678W        W 5742   4.381   8.927   0.961  0.1871 -0.0334  0.2843
 1679W        W 5743   5.756   5.679  10.388  0.0103  0.2507  0.1546
 1680W        W 5744   7.737   4.778   0.370 -0.0186  0.2603 -0.0733
 1681W        W 5745   7.313   5.196  10.135  0.1386  0.1527  0.1045
 1682W        W 5746   5.805   6.810   1.643  0.2595  0.0667 -0.1964
 1683W        W 5747   4.675   5.067   1.556 -0.2234 -0.0810 -0.1162
 1684W        W 5748   3.088   4.181   0.068  0.2169 -0.0323 -0.2409
 1685W        W 5749   8.200  10.549   0.924  0.3130 -0.1509  0.0369
 1686W        W 5750   2.481   5.349   1.242 -0.0806 -0.1320  0.2062
 1687W        W 5751   2.271   7.842   9.436 -0.1185  0.0362 -0.1344
 1688W        W 5752   6.282   3.240   2.930  0.2997 -0.0006  0.1038
 1689W        W 5753   0.238   8.008   1.424 -0.5104  0.1882  0.0839
 1690W        W 5754   9.137   1.041   8.503  0.1141  0.0512  0.1579
 1691W        W 5755   8.139   1.685   9.859 -0.1230  0.0239 -0.1381
 1692W        W 5756   2.828   0.719  11.195  0.0362  0.2676 -0.2536
 1693W        W 5757   8.275   2.553   0.758  0.0359 -0.2496 -0.3126
 1694W        W 5758   2.746   7.953   0.327 -0.1092  0.0400 -0.1392
 1695W        W 5759   6.117   1.045   1.651  0.3054 -0.1828  0.3322
 1696W        W 5760  10.633   3.345   8.346  0.3257  0.0552 -0.2399
 1697W        W 5761   7.353   2.637   9.515  0.1716 -0.0938 -0.1141
 1698W        W 5762   8.018  10.391  11.113 -0.5654  0.0791  0.1252
 1699W        W 5763   3.448   2.784  10.002  0.0174 -0.0715  0.2087
 1700W        W 5764   2.546   7.754   1.293  0.1991  0.0236  0.0950
 1701W        W 5765   4.565   3.072   9.267 -0.0898  0.1067 -0.2866
 1702W        W 5766   0.052   3.274  11.453 -0.0151 -0.0081 -0.2295
 1703W        W 5767   1.767   0.276   2.062 -0.1486  0.3908 -0.1001
 1704W        W 5768   7.355  10.463   8.465 -0.1258  0.1420  0.0187
 1705W        W 5769   7.937   0.760   0.854  0.2207 -0.1800  0.0792
 1706W        W 5770   3.650   7.985   1.944  0.2208  0.0366  0.1608
 1707W        W 5771   1.339   2.529   7.600  0.1150 -0.1112 -0.0830
 1708W        W 5772   5.185   2.822   1.969 -0.1799  0.0292 -0.1190
 1709W        W 5773  10.383   9.603   1.376 -0.0028 -0.2745  0.0945
 1710W        W 5774   6.442   8.942  10.545 -0.1268 -0.0555  0.2747
 1711W        W 5775   3.598   5.661   3.991  0.0538  0.0563  0.2247
 1712W        W 5776   6.033   5.504   2.781  0.4270 -0.3538 -0.1351
 1713W        W 5777   8.722   9.596  10.103  0.0346  0.2406 -0.1784
 1714W        W 5778   0.023   0.540  11.458 -0.0965 -0.0234  0.0440
 1715W        W 5779   1.685   9.516   7.705 -0.0720  0.0151 -0.1630
 1716W        W 5780   9.708   5.310  10.665 -0.0076 -0.1169  0.1602
 1717W        W 5781   6.042   4.904   7.714 -0.0138  0.2575  0.0401
 1718W        W 5782   2.361   9.592   9.069  0.1994  0.4136  0.1642
 1719W        W 5783   1.552   7.991   3.421 -0.1987 -0.2738 -0.1519
 1720W        W 5784   8.154   5.262   3.848 -0.3112  0.1731 -0.2368
 1721W        W 5785   4.692   6.012   2.961 -0.2831  0.1404 -0.0600
 1722W        W 5786   1.148   6.100  10.350  0.1126  0.1002  0.1014
 1723W        W 5787   4.837   2.485   2.744 -0.1526  0.1606 -0.0860
 1724W        W 5788   8.326   9.398   8.639 -0.0212 -0.1746 -0.0318
 1725W        W 5789   8.591   8.865   9.684  0.2156 -0.1083 -0.2895
 1726W        W 5790   9.744   5.922   7.690  0.1288 -0.2202 -0.1187
 1727W        W 5791   2.238   1.503  11.466  0.0367 -0.2326  0.3543
 1728W        W 5792   8.705   4.339   3.106 -0.4403  0.1825 -0.2777
 1729W        W 5793   2.753   9.341   9.956 -0.3270 -0.0411 -0.2028
 1730W        W 5794   6.987   0.380   0.356  0.0046 -0.0620 -0.0669
 1731W        W 5795   1.218   6.028   1.238  0.2582 -0.2060 -0.0816
 1732W        W 5796   3.606   4.259   3.269  0.1353  0.0192 -0.0643
 1733W        W 5797   6.723   5.432  10.229 -0.1488  0.2020  0.0274
 1734W        W 5798   7.742   1.337   2.003  0.0873  0.1593  0.1679
 1735W        W 5799   8.491   2.439   8.488 -0.0065 -0.0497  0.0427
 1736W        W 5800   4.606   7.917  11.011  0.1819 -0.0994  0.0097
 1737W        W 5801   8.499   4.242  10.461  0.1217 -0.2156  0.0140
 1738W        W 5802   6.610   6.456   0.783 -0.2495 -0.0130 -0.2207
 1739W        W 5803   3.082   4.350   4.136  0.2212  0.1530  0.0864
 1740W        W 5804   2.475   0.168   1.016  0.2014  0.0066  0.0814
 1741W        W 5805   2.808   7.391  11.145 -0.0048  0.1153  0.2671
 1742W        W 5806   1.627   5.107   2.131  0.0357 -0.0231 -0.3675
 1743W        W 5807   9.275   5.712   1.191 -0.0460 -0.0222 -0.0635
 1744W        W 5808   7.663   8.978   1.766  0.3021  0.0745  0.0583
 1745W        W 5809   2.081   7.122  10.211 -0.0387 -0.1299  0.1881
 1746W        W 5810   2.537   5.276  10.348 -0.0154  0.1759 -0.1117
 1747W        W 5811  10.541   0.585   3.247  0.4156  0.0495  0.1706
 1748W        W 5812   6.337   1.276   9.094 -0.2035  0.1822  0.4569
 1749W        W 5813   6.987   5.801   3.528 -0.0939 -0.2035 -0.1312
 1750W        W 5814  10.602   8.435   0.660 -0.1070  0.1969 -0.0495
 1751W        W 5815   0.695   6.119   2.581 -0.2637  0.1194 -0.3212
 1752W        W 5816   1.045   5.797   2.466  0.1138 -0.1361  0.0036
 1753W        W 5817   9.046   9.950   0.705  0.0456 -0.0753 -0.0745
 1754W        W 5818   1.698   1.305   8.770  0.3741  0.2454 -0.2045
 1755W        W 5819   1.120   0.420   7.070 -0.0376  0.0376 -0.4156
 1756W        W 5820   3.192   3.259   2.310 -0.1610 -0.2063  0.1827
 1757W        W 5821   1.996   6.279   7.835  0.5546  0.3040 -0.1694
 1758W        W 5822   1.568   6.365   3.363  0.1725 -0.0099 -0.0228
 1759W        W 5823   2.318   9.289   2.888 -0.1520 -0.1291 -0.1665
 1760W        W 5824   2.026   5.540   9.621  0.0889  0.0883  0.0466
 1761W        W 5825   6.524   4.410   7.229 -0.0290  0.2377 -0.0878
 1762W        W 5826   9.907   9.126   9.133  0.1073 -0.3354  0.0720
 1763W        W 5827   6.844   6.788   9.480  0.1584 -0.0220 -0.3184
 1764W        W 5828  10.334   1.009   1.889 -0.3451  0.0210  0.1757
 1765W        W 5829   9.225   4.785   0.535 -0.1911  0.0438  0.2243
 1766W        W 5830   7.210   6.011  10.902  0.1929  0.0503  0.2941
 1767W        W 5831   5.842   9.829   9.899  0.2406 -0.0784 -0.0817
 1768W        W 5832   1.633   4.645   4.550  0.0929 -0.3096 -0.1153
 1769W        W 5833   7.625   6.868   0.237 -0.0517  0.1819  0.0027
 1770W        W 5834  10.191   9.737   2.174 -0.0299 -0.1629  0.0468
 1771W        W 5835   2.095   1.542   1.055 -0.0610 -0.0109  0.1672
 1772W        W 5836   2.283   1.535   2.786 -0.1561  0.1045 -0.0704
 1773W        W 5837   3.448   6.765   1.961  0.0619  0.3026 -0.2022
 1774W        W 5838   7.302   6.267   9.848  0.2821  0.3496  0.0066
 1775W        W 5839   0.326   5.719   0.951 -0.0904  0.3631  0.1768
 1776W        W 5840   5.474   1.847  10.037  0.2750  0.2589 -0.1239
 1777W        W 5841   0.748   0.980   9.001 -0.0528  0.0289  0.1626
 1778W        W 5842   6.435   9.783   2.844  0.2491 -0.0602  0.0513
 1779W        W 5843   0.755   8.631  10.250 -0.0160 -0.4555  0.0868
 1780W        W 5844   8.062   3.473   8.601 -0.1853  0.1932 -0.5546
 1781W        W 5845   6.588   6.018   7.904 -0.0674 -0.0363  0.1936
 1782W        W 5846   4.283   6.315   2.216 -0.3397 -0.0052  0.0390
 1783W        W 5847   3.587   2.311   9.973  0.1474  0.0039 -0.0132
 1784W        W 5848   4.634   2.243   1.245 -0.2737  0.0167  0.0546
 1785W        W 5849   1.648   4.640   2.202  0.1985 -0.1264  0.0345
 1786W        W 5850  10.105   3.376   7.590 -0.0880  0.1429 -0.0815
 1787W        W 5851   4.880   8.987  11.368 -0.0590 -0.1266 -0.2446
 1788W        W 5852   9.549   3.769   2.570  0.1517  0.0022  0.0047
 1789W        W 5853   0.787   6.061   0.497  0.2978  0.1574  0.1256
 1790W        W 5854   0.796   7.986   2.233  0.4884 -0.0305  0.1123
 1791W        W 5855   3.225   0.225   2.890 -0.3184 -0.3762 -0.2621
 1792W        W 5856   6.509   6.943   8.287  0.0692 -0.0396  0.3513
 1793W        W 5857   9.388   5.510   3.898  0.1649  0.0353  0.2639
 1794W        W 5858   6.294   3.097   8.883 -0.1307  0.2329 -0.0638
 1795W        W 5859   4.907   0.153   3.291  0.2477 -0.0941 -0.0636
 1796W        W 5860   8.490   3.360   8.747 -0.2017 -0.1913  0.0544
 1797W        W 5861   3.125   1.666   1.816  0.3229  0.2281 -0.1643
 1798W        W 5862   0.618   2.027   8.918  0.0231 -0.0260 -0.0164
 1799W        W 5863   2.321   0.768   9.224  0.0259 -0.3913  0.0594
 1800W        W 5864   2.001   1.770   8.989  0.4463  0.3227 -0.1260
 1801W        W 5865   3.828   8.503   7.714  0.1279 -0.1997  0.0313
 1802W        W 5866   2.234   5.228   0.779 -0.1190 -0.2484 -0.2071
 1803W        W 5867   3.628   7.037   2.293  0.1873  0.1472 -0.1945
 1804W        W 5868   4.495   5.323   9.663  0.1306 -0.1595 -0.0975
 1805W        W 5869   7.061   9.431   0.089  0.0315  0.1941  0.1130
 1806W        W 5870   3.886   4.088   1.537 -0.0993  0.4932 -0.0657
 1807W        W 5871   4.094   5.421   3.172 -0.2429 -0.1235  0.0317
 1808W        W 5872   0.051   1.184  10.756 -0.0147  0.0303  0.0034
 1809W        W 5873   6.261  10.239   1.171 -0.0972 -0.0333 -0.2294
 1810W        W 5874   1.577   8.844  11.439  0.1893 -0.0063 -0.2584
 1811W        W 5875   5.185   2.417  10.795  0.0904 -0.1356 -0.1363
 1812W        W 5876  10.260   4.631  10.432 -0.0684 -0.0350  0.1809
 1813W        W 5877   5.434   8.449   3.058  0.0723  0.1128 -0.0996
 1814W        W 5878   1.913   3.302   2.509  0.0648  0.1399  0.1882
 1815W        W 5879   8.992   7.304   9.245 -0.3717  0.0925 -0.0984
 1816W        W 5880   8.240   7.666   8.164 -0.1309 -0.3067  0.0876
 1817W        W 5881   6.422   0.216   9.451 -0.2964 -0.2626  0.2981
 1818W        W 5882   8.992   1.808   8.279  0.0461  0.0346  0.0208
 1819W        W 5883   3.443   0.052   3.492 -0.0361  0.0278  0.0197
 1820W        W 5884   7.535   3.327   1.827 -0.0708 -0.0581  0.0852
 1821W        W 5885   2.014   9.615   9.447  0.5432  0.0212  0.1879
 1822W        W 5886   5.172   6.003  10.240 -0.2542  0.0817 -0.3747
 1823W        W 5887   4.626   6.252   1.749  0.0984  0.1525 -0.3542
 1824W        W 5888   2.641   0.373   2.763  0.1360  0.0689 -0.5555
 1825W        W 5889   7.203   0.367  11.501  0.2402  0.1315 -0.1796
 1826W        W 5890   7.339   4.030   2.346 -0.1863  0.3007 -0.2358
 1827W        W 5891   0.456   6.584   8.861  0.0709  0.0758 -0.1619
 1828W        W 5892   1.666   5.085  11.078 -0.0770  0.2083 -0.0658
 1829W        W 5893   8.381   0.658  10.909 -0.0443  0.0053  0.0125
 1830W        W 5894   3.686   7.831   8.902 -0.2604 -0.4031  0.0860
 1831W        W 5895   9.765   0.341  10.741 -0.1606 -0.4953 -0.3408
 1832W        W 5896   5.192   6.044   2.659 -0.0255  0.2785  0.0170
 1833W        W 5897   1.647   9.643   0.308  0.0106  0.0162 -0.3146
 1834W        W 5898   0.460   5.776   2.894  0.2202 -0.3247 -0.2752
 1835W        W 5899   5.173   3.091   3.406 -0.0352  0.1326 -0.1052
 1836W        W 5900   6.833   2.139   9.935 -0.1447  0.1117  0.2372
 1837W        W 5901   7.820   3.968   7.822 -0.0072  0.5334  0.1530
 1838W        W 5902   0.341   9.355   3.024 -0.2331  0.0784 -0.2300
 1839W        W 5903   7.454   1.886   9.438 -0.1239  0.0541  0.1924
 1840W        W 5904   1.483   1.591   0.385  0.0892 -0.1485  0.0429
 1841W        W 5905   2.134   3.080   9.488 -0.1438 -0.1691  0.1123
 1842W        W 5906   4.250   6.227  11.062  0.1452 -0.0723  0.2867
 1843W        W 5907   8.475   3.859   8.641  0.1896 -0.0020  0.1235
 1844W        W 5908   1.313   8.094   9.763 -0.1575  0.0354  0.2455
 1845W        W 5909   9.867   4.767   9.085 -0.2866 -0.0645  0.1007
 1846W        W 5910   8.683   0.628   9.520 -0.1578  0.3181 -0.2894
 1847W        W 5911  10.617   0.084  11.344  0.5307 -0.1814  0.2598
 1848W        W 5912   6.294   1.993   4.077  0.1569 -0.3869 -0.0836
 1849W        W 5913  10.133   5.341   2.194  0.2552 -0.0884  0.1558
 1850W        W 5914   6.567  10.361   9.480 -0.0267 -0.0546 -0.0246
 1851W        W 5915   7.812   1.373  10.129  0.0682  0.1431 -0.0761
 1852W        W 5916   3.724   5.139   1.981  0.1171 -0.0200  0.0912
 1853W        W 5917   7.058   3.066  11.321  0.0152  0.0078  0.1403
 1854W        W 5918   6.933   2.156   2.220 -0.0327  0.1229 -0.1024
 1855W        W 5919   8.611   5.926   1.767  0.1590 -0.0989 -0.0183
 1856W        W 5920   6.465   0.607   0.437 -0.1023  0.0219  0.0697
 1857W        W 5921  10.203   2.155   1.789  0.1299  0.1836  0.2307
 1858W        W 5922   3.742   8.618   1.363  0.1855  0.2402  0.2244
 1859W        W 5923   4.612   0.572  10.081 -0.1579  0.0603 -0.1206
 1860W        W 5924   3.550   8.825   3.119  0.3024  0.3273 -0.0842
 1861W        W 5925   4.609   6.095  10.738  0.2596 -0.1606  0.1579
 1862W        W 5926   2.556   9.592   1.579  0.3022  0.2269  0.1454
 1863W        W 5927   1.553   8.811   9.725 -0.0403  0.0448 -0.1521
 1864W        W 5928   0.041   7.321   8.917  0.1234 -0.4477  0.4597
 1865W        W 5929  10.099   9.987   1.285  0.0154 -0.1861 -0.1497
 1866W        W 5930   2.067   6.483  10.168  0.2597 -0.0609 -0.1322
 1867W        W 5931   9.855   2.758  11.348  0.0452  0.3066 -0.2320
 1868W        W 5932   2.225   8.882  10.336  0.0305  0.0023  0.3161
 1869W        W 5933   7.240  10.160   2.983  0.0900  0.2520  0.2921
 1870W        W 5934   9.576   4.168   3.284  0.2914 -0.2906  0.0137
 1871W        W 5935   0.598   4.960   3.776 -0.0639  0.2833 -0.2281
 1872W        W 5936   6.770   4.941   0.064 -0.2495 -0.2066 -0.0707
 1873W        W 5937   4.200   3.214   8.946  0.1192  0.3257 -0.0051
 1874W        W 5938   2.233   0.044   8.718  0.2056  0.0587 -0.1377
 1875W        W 5939   8.828  10.013   8.176 -0.1345 -0.0251 -0.3825
 1876W        W 5940   3.197   2.235   8.748 -0.3057 -0.1619 -0.0230
 1877W        W 5941   9.303   5.676   0.478 -0.0292  0.0899 -0.0671
 1878W        W 5942   6.877   7.072   9.050  0.2432  0.0410 -0.0828
 1879W        W 5943   2.385  10.288   2.620  0.0737  0.2583 -0.3018
 1880W        W 5944   3.165   1.572   8.359  0.1315 -0.1729  0.1237
 1881W        W 5945   8.298   1.833   8.908  0.0557 -0.3794 -0.1325
 1882W        W 5946   5.473   6.525  10.241  0.5378  0.0178  0.1474
 1883W        W 5947   5.161   5.871  10.741 -0.2377 -0.0761  0.1449
 1884W        W 5948   8.985   2.297   8.404 -0.0010 -0.0522 -0.0350
 1885W        W 5949   6.871   4.819  10.492 -0.1704 -0.1919  0.2319
 1886W        W 5950   3.994  10.441  10.324  0.0801  0.1046  0.1472
 1887W        W 5951   7.483  10.188   0.815 -0.2305  0.1633  0.0439
 1888W        W 5952   7.598   1.197   1.570 -0.0482  0.0966  0.1722
 1889W        W 5953   7.297   2.949   1.464  0.1431  0.0983  0.1186
 1890W        W 5954  10.142   8.609   0.422 -0.0821 -0.0921 -0.1342
 1891W        W 5955   7.296   8.049  11.172  0.4210  0.3207 -0.3646
 1892W        W 5956   6.298   1.730   9.257 -0.0523 -0.0253 -0.0346
 1893W        W 5957   1.200   4.488   1.522 -0.0013  0.0561  0.1706
 1894W        W 5958   2.522   3.866   2.834  0.2790  0.0901  0.1810
 1895W        W 5959   5.553   5.529   9.039 -0.1038 -0.0909 -0.0781
 1896W        W 5960   5.085   9.382  11.041 -0.3563 -0.4626  0.1579
 1897W        W 5961   9.432   8.545   1.443 -0.1873  0.0396  0.2158
 1898W        W 5962   6.088   1.061   0.301  0.0462  0.0220  0.0249
 1899W        W 5963   5.118   7.039   0.762  0.1615  0.2077 -0.1298
 1900W        W 5964   8.892   9.732   1.276  0.0580  0.2555 -0.0050
 1901W        W 5965  10.053   3.702   9.340 -0.1617  0.2921  0.0916
 1902W        W 5966  10.418   8.800   8.991 -0.0305 -0.2604  0.1676
 1903W        W 5967   0.334  10.540  10.616 -0.0883  0.3172  0.3123
 1904W        W 5968   3.588   2.647   1.712 -0.1504 -0.4868 -0.0711
 1905W        W 5969   6.021   5.966  10.715 -0.2938  0.0421  0.0721
 1906W        W 5970   5.387   0.192   2.962 -0.2516 -0.0466  0.3381
 1907W        W 5971   0.840   8.088   8.682 -0.0909  0.0772  0.1347
 1908W        W 5972   0.917   3.505  10.988  0.1073 -0.1494 -0.0205
 1909W        W 5973   0.600   0.142   0.953 -0.1190 -0.0722 -0.3223
 1910W        W 5974  10.017  10.608  10.258  0.1418  0.3323 -0.1462
 1911W        W 5975   2.224   2.216   9.116  0.1536  0.0655  0.1380
 1912W        W 5976   7.867   9.118   9.296  0.0408  0.0852  0.2176
 1913W        W 5977   9.050   5.619  10.174 -0.0768 -0.0129  0.0756
 1914W        W 5978   5.150   3.335   9.951 -0.2844  0.1585  0.2881
 1915W        W 5979   9.847   0.446   8.620  0.2215  0.0373  0.2890
 1916W        W 5980   4.980  10.064  10.549  0.3028  0.0462  0.2133
 1917W        W 5981   7.839   5.057  10.015 -0.0460  0.0718 -0.0402
 1918W        W 5982   3.566   5.138   8.942 -0.1116 -0.1479 -0.2396
 1919W        W 5983   9.122   8.864   9.585  0.1970  0.0632  0.0861
 1920W        W 5984   6.014   5.527   0.473 -0.0636  0.0535 -0.1612
 1921W        W 5985  10.513   3.527   1.695 -0.2984  0.1977 -0.2599
 1922W        W 5986   7.580   2.238   3.250  0.0420  0.0297 -0.0777
 1923W        W 5987   5.677   7.136   1.975  0.1031 -0.0090 -0.3664
 1924W        W 5988   7.120   6.123  10.400 -0.0007 -0.2945  0.2758
 1925W        W 5989   0.244   7.580   1.720 -0.0152 -0.1553 -0.2711
 1926W        W 5990   3.335   1.676  10.493  0.0456  0.1339 -0.1105
 1927W        W 5991   9.359   6.985   8.366  0.0772  0.0069  0.2045
 1928W        W 5992  10.464   1.192   1.407 -0.2849 -0.0572 -0.0326
 1929W        W 5993   9.286   2.939   2.646 -0.0242 -0.2269 -0.1683
 1930W        W 5994   1.516   5.945   9.512  0.1338 -0.0483 -0.0419
 1931W        W 5995   6.851   9.142   0.404 -0.0683  0.0084 -0.2150
 1932W        W 5996   4.160  10.050   8.173  0.1486 -0.1861 -0.0896
 1933W        W 5997   0.153  10.319   0.049  0.4082 -0.2073 -0.0159
 1934W        W 5998   5.238   2.041   3.474  0.1947  0.1230  0.0123
 1935W        W 5999   7.194   0.590   3.408 -0.1845 -0.0775  0.2084
 1936W        W 6000   6.530   1.304   1.908  0.0870 -0.3656  0.2372
 1937W        W 6001   4.315   8.058   1.073  0.0095  0.0657  0.0410
 1938W        W 6002   5.027   9.651  10.194  0.2526 -0.1887  0.0731
 1939W        W 6003   4.065   0.987  11.142  0.1631 -0.1670  0.1071
 1940W        W 6004   4.228   6.946   3.363 -0.1592  0.1248  0.0406
 1941W        W 6005   6.575   5.402   2.897 -0.1312 -0.1910  0.1188
 1942W        W 6006   8.968   7.056  10.747  0.0020 -0.1502  0.0902
 1943W        W 6007   9.939   4.930   3.836 -0.1879 -0.0204 -0.1375
 1944W        W 6008   5.726   0.604   2.518  0.0184 -0.1662 -0.2430
 1945W        W 6009   4.678   1.736   1.633  0.2380  0.1288  0.2033
 1946W        W 6010   2.576   8.318   3.761 -0.0254  0.0553 -0.2706
 1947W        W 6011   4.297   7.140  10.516 -0.2525  0.1750  0.1987
 1948W        W 6012   6.020   2.729   9.883  0.3407  0.0188  0.2365
 1949W        W 6013   3.347   4.399   2.366  0.1973  0.3940 -0.0359
 1950W        W 6014   4.604   4.317   0.380 -0.2948  0.3157  0.1519
 1951W        W 6015   8.061   0.348   2.319 -0.3585  0.1825  0.0619
 1952W        W 6016   9.276   9.877   2.490 -0.1067  0.0188  0.1029
 1953W        W 6017   0.267   6.054  10.152  0.0520 -0.0550  0.0088
 1954W        W 6018   7.403   0.929   1.185  0.0194  0.1882 -0.1492
 1955W        W 6019   9.597   5.440   7.723  0.1164 -0.1092 -0.2979
 1956W        W 6020   3.595   5.593  10.130 -0.1871  0.0019  0.0783
 1957W        W 6021   0.575   2.636   1.007 -0.1763  0.0141 -0.1506
 1958W        W 6022   7.505   1.703  10.451  0.2096  0.0141  0.2475
 1959W        W 6023   3.941   0.535   2.729  0.3376  0.1053 -0.3731
 1960W        W 6024   7.421   3.667   8.025  0.0043  0.3104 -0.4965
 1961W        W 6025   3.633   9.377   8.262 -0.4741  0.1470 -0.1039
 1962W        W 6026   1.486   4.264   3.842 -0.1527 -0.0677 -0.2757
 1963W        W 6027   8.398   5.167   2.654 -0.1322 -0.1765 -0.0897
 1964W        W 6028   0.477   7.202  11.099  0.1223  0.1083  0.0546
 1965W        W 6029   9.691   6.343  10.855 -0.1067  0.1327 -0.0267
 1966W        W 6030   4.557  10.249   2.608  0.0663 -0.1475  0.2045
 1967W        W 6031   2.773   8.741   7.794  0.2573  0.4371 -0.3099
 1968W        W 6032   5.118   2.230  10.014 -0.0318 -0.1074 -0.2236
 1969W        W 6033   6.648   1.154   8.696 -0.2536  0.0038  0.1459
 1970W        W 6034   8.347   2.188   1.155 -0.1157 -0.4342  0.3043
 1971W        W 6035   8.334   9.326   9.872 -0.2978  0.0188  0.3906
 1972W        W 6036   8.563   4.420   9.973 -0.0353 -0.1001  0.2168
 1973W        W 6037   6.752   6.631   1.444  0.0060 -0.0731 -0.2599
 1974W        W 6038   0.967   1.149   9.726 -0.1316 -0.2364 -0.3832
 1975W        W 6039  10.295   3.734   8.181  0.2886 -0.1208  0.1888
 1976W        W 6040   1.136   4.350   0.350  0.0093 -0.0369 -0.0450
 1977W        W 6041   7.964   2.050   7.372 -0.0291 -0.1868 -0.0457
 1978W        W 6042   3.147   5.992   0.885 -0.0608  0.0002 -0.1774
 1979W        W 6043   4.543   2.572   3.611 -0.1651  0.1178 -0.0391
 1980W        W 6044   7.836   2.616   8.837  0.0767 -0.2993 -0.0226
 1981W        W 6045   0.653   0.825   9.913  0.0608  0.1203  0.2248
 1982W        W 6046   6.722   4.188   8.602  0.0475  0.1476  0.3221
 1983W        W 6047   1.410   7.200   8.307  0.1130  0.0699 -0.0947
 1984W        W 6048   8.984   2.629   3.393 -0.0392  0.0556  0.0005
 1985W        W 6049   6.393   5.130   0.724  0.0888  0.1946 -0.2045
 1986W        W 6050   4.653   9.716   1.937 -0.4769 -0.1049 -0.0530
 1987W        W 6051   0.353   7.485   1.108 -0.2480  0.1188 -0.0650
 1988W        W 6052   3.281   7.626   3.888  0.2156  0.1010  0.0014
 1989W        W 6053   7.026   3.312   8.789  0.5230  0.3592 -0.0691
 1990W        W 6054   6.115   0.955  10.665 -0.0483 -0.2586  0.0348
 1991W        W 6055   0.212   2.912   8.687  0.0501  0.1592  0.1695
 1992W        W 6056   4.028   5.450  11.441  0.0591 -0.0107 -0.2143
 1993W        W 6057   5.949   7.740  11.211 -0.1336 -0.1029  0.1583
 1994W        W 6058   1.069   4.419   9.854 -0.2460 -0.1216 -0.0013
 1995W        W 6059   8.613   8.754   8.769 -0.2426 -0.0688 -0.1181
 1996W        W 6060   3.019   1.190   8.847 -0.3731 -0.1523 -0.0065
 1997W        W 6061   0.496   9.566  10.614 -0.0837  0.0933  0.3052
 1998W        W 6062   7.341   5.770   9.569  0.0386 -0.0008 -0.2176
 1999W        W 6063   2.904   7.015   8.962 -0.0468  0.1343  0.1661
 2000W        W 6064   0.745   0.089   3.303  0.1032  0.2512  0.1590
 2001W        W 6065   5.371   8.041  10.542 -0.0903  0.1424  0.0313
 2002W        W 6066   7.010   0.715   0.856 -0.1691 -0.1435 -0.1566
 2003W        W 6067   2.135   2.047   2.717 -0.1521  0.1360  0.0522
 2004W        W 6068  10.115   5.064   9.481 -0.0373  0.2072  0.1794
 2005W        W 6069   2.311   4.681   2.342 -0.3832  0.1833 -0.1308
 2006W        W 6070   1.114   5.479  10.621  0.1612  0.3131 -0.2239
 2007W        W 6071   9.749   5.633   2.255 -0.1427  0.1291  0.0571
 2008W        W 6072   9.744   7.106  11.219 -0.3982  0.1071  0.1182
 2009W        W 6073   0.341   7.028   9.142 -0.0967 -0.2366 -0.2474
 2010W        W 6074   2.071   3.790   2.533 -0.2368 -0.0824  0.7321
 2011W        W 6075   0.166   9.006   8.178  0.3379 -0.0929 -0.0128
 2012W        W 6076  10.080   5.564   3.127  0.0023  0.0953  0.1197
 2013W        W 6077   0.687   6.280   3.045 -0.1074  0.1175 -0.0165
 2014W        W 6078   6.515   9.939   9.214  0.0492 -0.1076 -0.3029
 2015W        W 6079   7.060   9.083   9.441  0.1694  0.0236  0.0039
 2016W        W 6080   0.722   5.430   2.572  0.0209 -0.0068  0.0529
 2017W        W 6081   8.949   6.705   1.680 -0.0079 -0.0626  0.1560
 2018W        W 6082   0.086   0.700   9.812  0.1850 -0.2924  0.0615
 2019W        W 6083   3.480   3.788   3.205  0.3106  0.5809 -0.2298
 2020W        W 6084   2.874   1.200   2.709  0.1146 -0.1114 -0.0018
 2021W        W 6085   3.060   0.740   2.877 -0.0939 -0.2461 -0.2185
 2022W        W 6086   7.382   5.319   1.155 -0.1503 -0.0059 -0.3166
 2023W        W 6087   5.336   5.561   0.989  0.2659 -0.0783 -0.1619
 2024W        W 6088   1.915   3.975  10.805  0.1478 -0.1700 -0.1706
 2025W        W 6089   7.613  10.459  10.903 -0.1687 -0.1959 -0.2843
 2026W        W 6090   7.400   1.869   8.601  0.0209 -0.0794  0.1723
 2027W        W 6091   5.939   9.830   8.106 -0.2097 -0.0462 -0.0809
 2028W        W 6092   2.308   8.788   0.513 -0.0757 -0.0264 -0.0082
 2029W        W 6093   3.294   7.166   9.281  0.0090  0.0723 -0.1278
 2030W        W 6094   0.924   7.782   9.130  0.0534 -0.0682 -0.2718
 2031W        W 6095   6.066   6.786   8.148 -0.3354 -0.0556  0.2331
 2032W        W 6096   6.806   7.560   3.594  0.2493 -0.1491  0.1858
 2033W        W 6097   6.610   1.068   0.294 -0.1819  0.1104 -0.0105
 2034W        W 6098   6.927   8.980   0.925  0.0641 -0.0983  0.4639
 2035W        W 6099   2.932   4.343   9.331  0.1142  0.0525 -0.0371
 2036W        W 6100   2.787   6.905  11.033  0.0548 -0.0091  0.0823
 2037W        W 6101   3.998   4.074   8.300 -0.0849  0.1931 -0.2293
 2038W        W 6102   0.372   9.615   8.599  0.0409  0.1425  0.1721
 2039W        W 6103   4.919   3.800   0.877  0.0382 -0.0509  0.0736
 2040W        W 6104   8.497   1.717   1.820  0.1601 -0.0671 -0.0444
 2041W        W 6105   8.090   1.097   1.276  0.2835  0.0047  0.0587
 2042W        W 6106   2.869   4.615  11.464  0.0309  0.1038 -0.1331
 2043W        W 6107   4.701   3.434   0.593  0.2776  0.2371 -0.0058
 2044W        W 6108   6.368   4.649  10.594 -0.0041 -0.0887 -0.0687
 2045W        W 6109   3.131   8.979  10.813  0.0203 -0.1069  0.3101
 2046W        W 6110   5.363   3.224   1.042  0.0429  0.2998  0.0339
 2047W        W 6111   1.142   3.444   8.869  0.0084  0.0767  0.0982
 2048W        W 6112   5.351   6.583   4.214  0.1797  0.3167  0.1182
 2049W        W 6113   1.132   3.254  11.419  0.1516  0.1566 -0.0527
 2050W        W 6114   4.649   3.520  10.574  0.1457  0.0465  0.0488
 2051W        W 6115   4.460   1.934   9.765  0.1240  0.0179  0.1042
 2052W        W 6116   9.565   7.041   7.842  0.2404  0.1877  0.1138
 2053W        W 6117   8.835   8.641   3.007  0.1171  0.0781 -0.2452
 2054W        W 6118   9.135   0.734   2.563 -0.0137 -0.2992  0.1500
 2055W        W 6119   5.758  10.412   1.757 -0.2102 -0.1898  0.1479
 2056W        W 6120   3.870   1.454   8.662  0.2026  0.1419  0.0740
 2057W        W 6121   1.006   1.230   2.339  0.0114 -0.2329  0.1978
 2058W        W 6122   7.415  10.424  11.382 -0.2492  0.1093 -0.1799
 2059W        W 6123   4.685   5.044   1.042 -0.0250  0.1372 -0.1495
 2060W        W 6124   5.452   1.495   2.452 -0.0312  0.0978  0.3475
 2061W        W 6125   0.314  10.384  11.144  0.0067 -0.2672  0.2097
 2062W        W 6126   9.913   4.441   8.681  0.0658 -0.0835  0.0408
 2063W        W 6127  10.472   6.387  11.456 -0.0056 -0.0938 -0.1955
 2064W        W 6128   8.271   7.098   3.619 -0.1263  0.3153 -0.0346
 2065W        W 6129   5.814   7.855  10.660  0.1665  0.3624  0.0303
 2066W        W 6130   5.824   5.044   8.383  0.2463 -0.0853  0.2868
 2067W        W 6131   1.366   8.023   9.136  0.5220 -0.1702 -0.1666
 2068W        W 6132   1.194   9.734   0.461 -0.0594  0.4468 -0.1626
 2069W        W 6133   4.176   7.729   1.878 -0.0668  0.0756  0.1480
 2070W        W 6134   0.910   3.177   8.038 -0.0476  0.0860  0.2209
 2071W        W 6135   9.762   4.705   9.587  0.1107  0.2085 -0.0902
 2072W        W 6136   6.938   8.641   2.905  0.0377 -0.0580  0.1106
 2073W        W 6137   4.410   6.866  11.206 -0.4799 -0.1322 -0.0576
 2074W        W 6138   4.779   2.272   2.270  0.1316 -0.0216  0.1300
 2075W        W 6139   7.861   1.082  11.395  0.0653 -0.2034 -0.0661
 2076W        W 6140   6.999   0.135   1.198 -0.0966  0.1431  0.0305
 2077W        W 6141   1.074   2.926   8.818 -0.1044  0.1164  0.0900
 2078W        W 6142   4.922   6.596   7.705  0.3159  0.0215  0.0874
 2079W        W 6143   0.433   6.288  10.751  0.0098  0.2196 -0.0773
 2080W        W 6144   2.560   2.223   3.046 -0.3524  0.1172 -0.2585
 2081W        W 6145   3.741   9.273   3.276 -0.0488 -0.1105 -0.0748
 2082W        W 6146   6.509   1.916   1.077 -0.1347 -0.0024 -0.0701
 2083W        W 6147   7.481   7.369  11.587 -0.1435 -0.1720 -0.1340
 2084W        W 6148   2.662   1.550   1.176 -0.2443 -0.1097  0.2954
 2085W        W 6149   5.363   5.589   2.657  0.1572  0.0859  0.3033
 2086W        W 6150   7.144   4.260   1.791 -0.0134  0.1847 -0.3564
 2087W        W 6151   5.266   1.840   8.682  0.0610 -0.1366 -0.2091
 2088W        W 6152   9.973   1.320   1.642 -0.0080 -0.2189 -0.2585
 2089W        W 6153   2.492   6.121   3.724  0.0327  0.1245 -0.0152
 2090W        W 6154   1.462   5.704   1.613 -0.1341  0.2337  0.3384
 2091W        W 6155   1.927   5.535   0.556  0.1183 -0.0427 -0.2164
 2092W        W 6156   7.537   5.640   0.341  0.1011  0.2378  0.3465
 2093W        W 6157   4.230   6.517   3.753  0.0073  0.0800  0.1080
 2094W        W 6158   4.566   9.776   8.287  0.0805 -0.2206  0.1303
 2095W        W 6159   6.513   6.294   7.449 -0.2300 -0.1313 -0.1097
 2096W        W 6160   2.230   1.582   2.191  0.1020  0.0305 -0.1520
 2097W        W 6161   1.584   1.346   9.857  0.1367 -0.1614 -0.2200
 2098W        W 6162   2.877   6.517   2.649 -0.2805  0.0476  0.0879
 2099W        W 6163   1.255   4.111   8.618 -0.0676  0.0465 -0.0723
 2100W        W 6164   1.916   4.648  10.378  0.1202  0.2898  0.0964
 2101W        W 6165   6.523   0.731  11.101  0.0390 -0.0936 -0.0383
 2102W        W 6166   9.052   7.685   2.770  0.1482  0.1439  0.1099
 2103W        W 6167   4.663   4.074  10.760  0.2059  0.0883 -0.1244
 2104W        W 6168  10.638   4.287   9.145 -0.2582 -0.2717 -0.2066
 2105W        W 6169   8.497   0.913   0.514  0.2374  0.0481 -0.1618
 2106W        W 6170   4.096   0.168   9.948 -0.2929  0.1506  0.0684
 2107W        W 6171   5.156   5.081   9.933  0.0077  0.2184  0.1060
 2108W        W 6172   0.281   6.886  10.775 -0.0008  0.4314  0.0631
 2109W        W 6173  10.570   9.033   1.209 -0.1247 -0.0881  0.3234
 2110W        W 6174   4.044   5.256   1.162 -0.0555 -0.2336  0.0133
 2111W        W 6175   4.428   9.383   9.657  0.2465 -0.2794  0.0065
 2112W        W 6176   6.520   4.769   2.082  0.1331  0.2958 -0.1765
 2113W        W 6177   6.810   7.732  10.427  0.1338  0.1965  0.0593
 2114W        W 6178   9.587   2.508   8.994  0.2775  0.0638  0.0517
 2115W        W 6179   6.931   4.320   9.910 -0.2401  0.0107  0.3483
 2116W        W 6180   7.734   6.352   8.091 -0.0694  0.1224 -0.0237
 2117W        W 6181   1.511   8.443   1.174 -0.0439 -0.2325 -0.2002
 2118W        W 6182   5.893   8.538   1.005 -0.0303  0.0457  0.2235
 2119W        W 6183   8.367   5.651   8.587  0.0184  0.2033  0.1055
 2120W        W 6184   2.878   5.988   9.848  0.0840 -0.3871 -0.2944
 2121W        W 6185   2.488   2.501   2.602 -0.2128  0.1601  0.1351
 2122W        W 6186   0.587   0.548   8.804  0.3475  0.1733  0.0900
 2123W        W 6187   2.969  10.052  10.824  0.0760 -0.0370  0.0665
 2124W        W 6188   0.241   7.553   3.158 -0.2176  0.0181  0.0090
 2125W        W 6189   8.677   6.173  11.078  0.1745  0.0827  0.0172
 2126W        W 6190   3.548   8.902  10.555 -0.0876 -0.2351 -0.0430
 2127W        W 6191   0.113   2.184  10.762  0.0918 -0.0757 -0.1088
 2128W        W 6192   6.987   1.242   1.053 -0.1855 -0.1104 -0.1420
 2129W        W 6193   0.475   3.320   1.789  0.2007 -0.0625  0.0511
 2130W        W 6194   8.335   5.513   3.040 -0.2081 -0.1288  0.0745
 2131W        W 6195   4.993   2.935   0.192  0.1597 -0.3558 -0.1805
 2132W        W 6196   6.839   1.720   1.916  0.1161 -0.1821  0.0896
 2133W        W 6197   6.777   2.615  10.851 -0.1058  0.0787  0.3244
 2134W        W 6198   0.430   0.038  10.136  0.0916  0.1509  0.4000
 2135W        W 6199   7.620   4.376   1.178  0.1627 -0.1729  0.1609
 2136W        W 6200   8.997   5.509   1.577 -0.2548  0.0100 -0.2213
 2137W        W 6201   4.370   5.197  10.501  0.2431  0.2785  0.0908
 2138W        W 6202   2.282   4.622   0.782 -0.0035 -0.2777  0.0252
 2139W        W 6203   1.569  10.126   0.453 -0.0461 -0.0044 -0.0463
 2140W        W 6204   1.947   7.157  11.093 -0.1262  0.0588 -0.0032
 2141W        W 6205   1.343   2.635   0.519  0.1477 -0.0006 -0.0356
 2142W        W 6206   7.781   0.150  11.284  0.0607  0.0232 -0.0655
 2143W        W 6207   2.440   6.524   4.719 -0.0134 -0.0933 -0.2521
 2144W        W 6208   5.955   0.592   8.774 -0.1491 -0.2810  0.0967
 2145W        W 6209   8.164   4.942   8.011  0.0878  0.3959 -0.1421
 2146W        W 6210   5.592   8.117  10.089  0.1337  0.2922 -0.1238
 2147W        W 6211   1.217   6.680   8.421 -0.0018 -0.2757  0.0542
 2148W        W 6212   1.318   5.051   3.361  0.1156  0.3110  0.1729
 2149W        W 6213   0.540   4.571   8.953  0.3064  0.1241 -0.2218
 2150W        W 6214   5.290   2.470   0.063  0.0008 -0.1210  0.2186
 2151W        W 6215   2.395   2.690   3.689  0.3737  0.0448  0.1869
 2152W        W 6216   3.133  10.636   9.106 -0.0647 -0.0981  0.2113
 2153W        W 6217   3.563  10.160   9.355 -0.1176  0.0772 -0.0341
 2154W        W 6218   6.768   2.930  10.324  0.1148  0.2009 -0.0458
 2155W        W 6219   1.817   7.116   8.664  0.2167  0.0487 -0.0277
 2156W        W 6220   6.426   5.065  11.304 -0.3597  0.1911  0.0885
 2157W        W 6221  10.565   6.279   1.619 -0.1034  0.1424  0.2533
 2158W        W 6222   1.064   6.026   3.348 -0.0983  0.1970 -0.0878
 2159W        W 6223   7.819   6.622   7.700 -0.0989 -0.0960 -0.0338
 2160W        W 6224   4.892   8.806  10.295 -0.0702 -0.0125  0.1155
 2161W        W 6225   7.988   6.726   0.625  0.2709  0.0821  0.1821
 2162W        W 6226   1.454   8.826   8.445  0.1485 -0.1403  0.0027
 2163W        W 6227   4.335   1.738  10.681  0.0653  0.2825 -0.2598
 2164W        W 6228   0.477   6.525  11.350 -0.2750  0.0712  0.0490
 2165W        W 6229   1.291   4.717   0.637 -0.0170 -0.2165  0.0543
 2166W        W 6230   3.305   2.748   2.299 -0.3771  0.1244 -0.3119
 2167W        W 6231   3.145   1.164   1.899  0.1656 -0.3119 -0.1728
 2168W        W 6232   7.866   7.244   2.590 -0.2145  0.0794 -0.2462
 2169W        W 6233   6.375   7.381   0.362 -0.0255 -0.0106 -0.0634
 2170W        W 6234   2.543   6.213   0.363  0.1467 -0.3855 -0.0809
 2171W        W 6235   1.119   2.490   1.038 -0.0376 -0.0599 -0.0125
 2172W        W 6236   6.177   0.173   1.831 -0.0770  0.2846 -0.0680
 2173W        W 6237   1.953   0.451   3.948  0.0886 -0.4751  0.0433
 2174W        W 6238   3.368   1.116   8.495 -0.1698 -0.1767  0.0504
 2175W        W 6239   3.907   3.092   0.099  0.2771  0.2742  0.0778
 2176W        W 6240   2.066   3.662   0.859 -0.2978 -0.1274 -0.0006
 2177W        W 6241   1.977  10.549   1.857 -0.0918  0.1058 -0.2744
 2178W        W 6242   1.038   1.727   3.112  0.1291  0.1265  0.3264
 2179W        W 6243   9.049   0.634   1.952 -0.1486 -0.0838  0.0352
 2180W        W 6244   6.260   4.222  11.371 -0.0939  0.0716 -0.1717
 2181W        W 6245   1.468   3.192   0.199  0.2687 -0.1659 -0.0616
 2182W        W 6246   2.438   4.349   4.051 -0.0421  0.0063 -0.4080
 2183W        W 6247   0.961   4.230   1.917  0.1449 -0.0689 -0.3252
 2184W        W 6248   2.539   6.353   4.148  0.0041  0.1390  0.0595
 2185W        W 6249   0.739   4.954   1.985 -0.1046 -0.1292  0.1858
 2186W        W 6250   3.361   6.323   8.564  0.0330 -0.0818  0.1728
 2187W        W 6251   3.239   2.185   0.766 -0.0525 -0.3135  0.2531
 2188W        W 6252   6.250   5.905   0.282 -0.1018 -0.4733  0.2083
 2189W        W 6253   7.513   9.729   0.216 -0.0121 -0.0348  0.0181
 2190W        W 6254   6.453   2.317   9.565 -0.0523 -0.0961 -0.0829
 2191W        W 6255   4.493   2.073   7.396  0.0053  0.0630 -0.0390
 2192W        W 6256   8.318   7.021   1.180 -0.0211 -0.1317 -0.0998
 2193W        W 6257   7.013   6.261   8.674 -0.1414  0.0684 -0.0522
 2194W        W 6258   0.201   5.080   3.384  0.2192 -0.0502 -0.0134
 2195W        W 6259   0.542   3.538   9.235  0.3790 -0.1981 -0.3154
 2196W        W 6260   1.843   6.160  11.563  0.1751 -0.3686 -0.0305
 2197W        W 6261   5.102   6.150   1.727 -0.2522 -0.1505 -0.1550
 2198W        W 6262   3.452   9.776   0.468 -0.4276 -0.3163  0.0983
 2199W        W 6263   4.062   9.899  10.073 -0.0358  0.0909 -0.0044
 2200W        W 6264   2.747   2.728   3.064  0.0144 -0.0744 -0.4680
 2201W        W 6265   5.825   3.429   0.711  0.2335 -0.3073  0.2336
 2202W        W 6266   1.617   9.180   9.461 -0.0019  0.4381  0.0798
 2203W        W 6267   2.272   6.371   9.602 -0.1466  0.0711  0.0099
 2204W        W 6268   3.951   2.384   1.970  0.0800 -0.3848 -0.0870
 2205W        W 6269   7.724   7.952  10.503 -0.0819  0.3020  0.2511
 2206W        W 6270   9.361   5.206   0.279  0.4283  0.1631  0.0633
 2207W        W 6271   9.121   2.011  11.245 -0.3237  0.5841 -0.1923
 2208W        W 6272   6.788   3.465  10.215 -0.0456 -0.0218  0.0887
 2209W        W 6273   9.435   1.591   9.089 -0.0485  0.1738 -0.3916
 2210W        W 6274   5.126   0.616  11.311  0.0735  0.1909  0.1080
 2211W        W 6275   5.639   9.415  10.090 -0.0599  0.1627  0.2373
 2212W        W 6276   7.650   6.087   1.349  0.0066  0.0407 -0.0037
 2213W        W 6277   5.230   7.034   3.053  0.2481  0.2353 -0.1685
 2214W        W 6278   8.260   5.334   0.254  0.2004 -0.0744 -0.1087
 2215W        W 6279  10.331   3.123  10.613  0.1229  0.3532 -0.1764
 2216W        W 6280   4.497   1.086   7.491 -0.0740 -0.2290  0.0895
 2217W        W 6281   0.781   2.602   1.493 -0.0098  0.0082 -0.1611
 2218W        W 6282   1.862   3.398  11.572  0.0381 -0.1372 -0.3455
 2219W        W 6283   4.372   4.380  11.206 -0.0716  0.2785  0.0937
 2220W        W 6284   1.460   1.635   2.261  0.1528  0.0318 -0.1747
 2221W        W 6285   7.364   0.002   0.687  0.0529 -0.1848 -0.2034
 2222W        W 6286   4.669   4.325   2.850 -0.2162  0.1747  0.0624
 2223W        W 6287   4.455   5.626   0.352 -0.1958 -0.0530 -0.1781
 2224W        W 6288   3.297   9.148   0.103  0.1133  0.4455 -0.1819
 2225W        W 6289   1.835   2.602   8.503 -0.0208  0.0303 -0.3007
 2226W        W 6290   4.753   8.638   1.131  0.0101  0.0888  0.3261
 2227W        W 6291   2.005   4.956   0.428 -0.1511 -0.2459 -0.2169
 2228W        W 6292   2.721   8.454   0.549 -0.2480 -0.0900 -0.1752
 2229W        W 6293   9.000   3.282   2.258 -0.1584  0.3473 -0.2127
 2230W        W 6294   8.967   5.676   2.010 -0.2108  0.1749 -0.3743
 2231W        W 6295   2.371   8.740   9.029  0.0646 -0.2126 -0.1456
 2232W        W 6296   1.243   7.643  11.419 -0.0056  0.2772 -0.3568
 2233W        W 6297   5.995   3.749   8.377  0.1532  0.1679 -0.0234
 2234W        W 6298   7.858   2.357   0.553  0.1834 -0.0735  0.1427
 2235W        W 6299  10.044   9.887  11.426 -0.0121  0.0429 -0.1925
 2236W        W 6300   2.007   7.566   2.602  0.0969 -0.1688  0.2880
 2237W        W 6301   9.790  10.534   0.042 -0.1564 -0.0247  0.0823
 2238W        W 6302   4.102  10.465   4.161 -0.0085 -0.0412 -0.0415
 2239W        W 6303   9.483   9.788   1.647 -0.1866 -0.1535  0.0332
 2240W        W 6304   0.303   5.272   1.211  0.1804  0.2207  0.0660
 2241W        W 6305   5.375   5.675   1.517 -0.1037 -0.0400 -0.4379
 2242W        W 6306   7.748   8.138   8.878  0.2519  0.2037 -0.3698
 2243W        W 6307   5.880   6.697   0.729 -0.0428 -0.0923 -0.1267
 2244W        W 6308   1.614   5.952   2.711 -0.1391 -0.2642 -0.1124
 2245W        W 6309   7.887  10.438   9.522 -0.3259 -0.3389  0.0126
 2246W        W 6310   3.744   9.780   3.092  0.0738 -0.0904  0.0239
 2247W        W 6311   3.250   1.718   2.324 -0.1448 -0.1804  0.0266
 2248W        W 6312   7.638   5.400   9.655  0.5503 -0.0888  0.2791
 2249W        W 6313   0.972   6.843   1.202  0.0490 -0.0777 -0.2228
 2250W        W 6314  10.350   1.198   0.591 -0.0197 -0.3038 -0.3283
 2251W        W 6315  10.138   5.550   9.402  0.0589  0.1591 -0.4108
 2252W        W 6316   9.906   1.776   9.484 -0.1660  0.0838  0.1312
 2253W        W 6317   1.275   2.513   8.584 -0.0487 -0.4253  0.1392
 2254W        W 6318   3.895   0.554   2.247  0.1761 -0.0244 -0.0606
 2255W        W 6319   8.385   5.747  11.595 -0.1357 -0.3171  0.0239
 2256W        W 6320   5.654   1.765   2.103 -0.2134 -0.2774  0.0534
 2257W        W 6321   5.537   6.123   1.938  0.0672 -0.0168  0.1006
 2258W        W 6322   9.898   5.446   3.769 -0.2619  0.1642 -0.0345
 2259W        W 6323   4.033   8.606   3.132 -0.2846 -0.0331 -0.2235
 2260W        W 6324   9.649   3.875   0.770 -0.0124  0.0113 -0.1858
 2261W        W 6325   8.894  10.456  10.550  0.2626 -0.2239  0.1442
 2262W        W 6326   7.892   8.491   2.599 -0.0832 -0.0868 -0.1560
 2263W        W 6327   5.675   0.433   3.943 -0.0238 -0.1072 -0.1132
 2264W        W 6328   4.850   5.643   8.942 -0.2535 -0.0670  0.2653
 2265W        W 6329   9.485   5.224  10.167  0.0545  0.1081 -0.0161
 2266W        W 6330   4.196   6.870   9.120  0.0014 -0.2058 -0.1455
 2267W        W 6331   4.166   5.492   1.633 -0.0176  0.0384  0.0009
 2268W        W 6332   7.031   5.686   2.523  0.0317  0.1348 -0.0985
 2269W        W 6333  10.243   5.726   4.110  0.0030  0.0145  0.2164
 2270W        W 6334   1.865   8.817   3.991  0.2688 -0.1992 -0.2199
 2271W        W 6335   6.093   4.189   1.757  0.3394  0.1622  0.1061
 2272W        W 6336   3.234   4.343  11.203  0.1402 -0.2214 -0.1350
 2273W        W 6337   4.594   3.496   1.907 -0.0066 -0.0571  0.1767
 2274W        W 6338   8.489   8.334   0.039  0.0726 -0.0765  0.1819
 2275W        W 6339   9.001   2.597   1.680 -0.1339 -0.1708 -0.1652
 2276W        W 6340   0.454   5.189   0.750  0.1159 -0.1887  0.0534
 2277W        W 6341   7.697   6.877   2.333  0.0122 -0.0723 -0.0206
 2278W        W 6342   4.137  10.113   1.821  0.0086  0.2396  0.1253
 2279W        W 6343   3.963   1.139   9.648 -0.1026 -0.0533  0.0119
 2280W        W 6344   8.052   4.553   1.306 -0.0026 -0.2264  0.1451
 2281W        W 6345   7.409   3.225   3.469  0.0456 -0.0814  0.2021
 2282W        W 6346   3.225   6.503   3.592  0.2068  0.0102 -0.3501
 2283W        W 6347   1.474   2.329   4.116  0.0648  0.2504 -0.2062
 2284W        W 6348   2.147   3.458   2.131  0.0256 -0.0448 -0.0364
 2285W        W 6349   9.216   8.925  10.503  0.0536 -0.3180 -0.1842
 2286W        W 6350   8.457   4.830   1.861  0.1587 -0.0386 -0.1417
 2287W        W 6351   2.152   7.975   2.895 -0.0585  0.0281 -0.2811
 2288W        W 6352   2.870   9.807  11.348 -0.0033 -0.0783 -0.0403
 2289W        W 6353   0.901   9.045  10.016  0.0053  0.0654  0.1600
 2290W        W 6354   0.697   8.783   0.108 -0.0180  0.0247  0.1379
 2291W        W 6355   0.062   3.609   9.490  0.0746 -0.2881  0.1060
 2292W        W 6356   9.061   3.500   1.369  0.3021 -0.0535 -0.0664
 2293W        W 6357   2.349   4.322   0.049  0.2119 -0.3372  0.3134
 2294W        W 6358   2.590   3.506   0.534  0.1298  0.0464 -0.0555
 2295W        W 6359   9.534   3.836   9.233  0.0657 -0.0313  0.3033
 2296W        W 6360   5.612   2.566   8.471  0.3921  0.0814  0.0342
 2297W        W 6361   9.096   0.612   9.909  0.2482  0.0748 -0.0809
 2298W        W 6362   3.733   5.337   0.676  0.3018 -0.2093  0.0120
 2299W        W 6363   6.939   7.512   9.988 -0.0467  0.2362  0.1650
 2300W        W 6364   7.086   3.177   0.812  0.0197 -0.0461 -0.0294
 2301W        W 6365   8.893   2.741   8.262 -0.0575 -0.0103  0.0855
 2302W        W 6366   4.191   9.956   8.701 -0.1921  0.1853  0.4476
 2303W        W 6367  10.053   1.191   8.648 -0.4212 -0.0411  0.0122
 2304W        W 6368   9.275   2.628   8.647 -0.0634  0.1227  0.1080
 2305W        W 6369   3.406  10.552   1.509  0.2180  0.2273 -0.2171
 2306W        W 6370   3.704   0.102   2.995 -0.2638  0.1919  0.0186
 2307W        W 6371   9.319   1.937   1.590  0.1690 -0.0011 -0.1014
 2308W        W 6372   8.638   7.417   1.255 -0.1294 -0.1396  0.1125
 2309W        W 6373   6.966  10.593   0.075  0.2766  0.0830  0.1372
 2310W        W 6374   6.038   8.580   8.417  0.0182 -0.1180  0.3749
 2311W        W 6375   4.805  10.490   8.946  0.1530  0.0105 -0.3462
 2312W        W 6376   3.101   6.563   1.310  0.0605  0.3475 -0.1264
 2313W        W 6377   1.650   5.266  10.571 -0.0018 -0.0556  0.1178
 2314W        W 6378   6.964   6.268  11.545 -0.0871 -0.2624 -0.2345
 2315W        W 6379   7.231   9.106   2.091  0.3659  0.1132 -0.1736
 2316W        W 6380   2.664   3.893   9.556  0.0398  0.1341 -0.0574
 2317W        W 6381   7.811   9.317   2.764 -0.2368 -0.0382 -0.2828
 2318W        W 6382  10.632   8.036   9.752 -0.0355  0.1063  0.0613
 2319W        W 6383   6.302   3.147  10.232 -0.2121 -0.0409  0.0010
 2320W        W 6384   7.230   1.736  10.939  0.2435  0.2180  0.0332
 2321W        W 6385   9.249   3.535  11.289 -0.2199 -0.0428 -0.0448
 2322W        W 6386   8.088   9.717   1.455 -0.0344  0.0286 -0.3717
 2323W        W 6387   0.590   0.049   2.575  0.1617 -0.0046  0.1995
 2324W        W 6388   3.526   9.641   1.554 -0.2000  0.0976  0.1843
 2325W        W 6389   2.334   2.180   2.227 -0.0728  0.1048 -0.0556
 2326W        W 6390   9.286   7.031   9.655  0.1726  0.0015 -0.3474
 2327W        W 6391   1.008   4.554  10.729  0.4311  0.0713 -0.0444
 2328W        W 6392  10.556   4.589   2.513 -0.1492  0.1292 -0.0057
 2329W        W 6393   0.279   8.202  11.323 -0.4273  0.0653  0.0575
 2330W        W 6394   1.517   4.784  10.667 -0.1227 -0.1324  0.0030
 2331W        W 6395   9.920   7.360   1.015  0.0363 -0.2236 -0.0492
 2332W        W 6396  10.637   7.747   3.598  0.1790 -0.2590 -0.1827
 2333W        W 6397   0.395   1.748   8.581  0.2790  0.0794  0.2248
 2334W        W 6398   6.086   6.849   1.203 -0.1197 -0.0375  0.0339
 2335W        W 6399   1.745   8.328   7.642 -0.1988 -0.1326  0.0309
 2336W        W 6400   7.545   7.424  10.517 -0.0593 -0.3432  0.3371
 2337W        W 6401   3.799   4.723   2.460  0.5455  0.1246  0.2856
 2338W        W 6402   9.174   6.469   9.722 -0.0799 -0.1749 -0.2611
 2339W        W 6403   2.172   2.212   3.621 -0.2111  0.2225  0.5118
 2340W        W 6404   6.872   7.390  10.943 -0.1258  0.0735  0.1236
 2341W        W 6405   0.819   1.605   7.384  0.0769  0.3488  0.2229
 2342W        W 6406   0.548  10.118  11.470 -0.1481  0.1643 -0.1186
 2343W        W 6407   1.299   9.183   0.487 -0.2332  0.0495 -0.0962
 2344W        W 6408   7.539   4.296   7.971 -0.0465 -0.5140  0.2010
 2345W        W 6409  10.234   6.517   1.902  0.1182  0.0999 -0.1183
 2346W        W 6410   7.099   5.721   8.584  0.1959  0.0125 -0.0155
 2347W        W 6411   5.966   2.936   8.483 -0.2752 -0.0712 -0.1030
 2348W        W 6412   7.317   1.753   9.966  0.0252  0.3017  0.1863
 2349W        W 6413   8.641   5.104   9.451 -0.3348 -0.1256  0.0350
 2350W        W 6414   1.001   5.287   9.508 -0.0513 -0.0022 -0.1820
 2351W        W 6415   0.035   3.977   1.741  0.1388 -0.1222 -0.0149
 2352W        W 6416   5.178   0.865  10.021 -0.1431  0.0924 -0.2336
 2353W        W 6417   0.923   2.467   2.129  0.0346 -0.2599  0.3364
 2354W        W 6418   0.440   2.389   0.243 -0.0992  0.1581 -0.1515
 2355W        W 6419   5.936   1.321   9.426  0.1002  0.0448 -0.2095
 2356W        W 6420   5.621   3.219   3.378  0.0007  0.3179  0.1707
 2357W        W 6421  10.496   4.721   1.432 -0.2838 -0.1336  0.1746
 2358W        W 6422   3.181   0.433   3.339  0.2467 -0.2089 -0.4196
 2359W        W 6423   2.725   4.333   2.146 -0.1087  0.3520  0.0618
 2360W        W 6424   1.400   4.790  11.372  0.3897  0.1758  0.1689
 2361W        W 6425   8.262   7.860   3.385  0.1934 -0.1866 -0.1047
 2362W        W 6426   9.981   6.216   3.020  0.1380 -0.0867  0.1237
 2363W        W 6427   5.481   2.116  10.511  0.0692 -0.0670 -0.0956
 2364W        W 6428   3.701   6.344   9.900  0.1690  0.1085  0.1864
 2365W        W 6429   1.541   8.849   3.371 -0.0103  0.0886  0.1365
 2366W        W 6430   3.173   3.710  10.974 -0.0048  0.1189 -0.0292
 2367W        W 6431   1.411   4.027   9.671  0.0592  0.1856 -0.0080
 2368W        W 6432   1.350   6.386   9.295  0.1221 -0.0721  0.0612
 2369W        W 6433   4.720  10.254   8.419  0.2322  0.2806 -0.0968
 2370W        W 6434  10.494   7.104   3.987 -0.0483  0.2527 -0.3711
 2371W        W 6435   5.826   3.949  11.444  0.0103 -0.1275 -0.3795
 2372W        W 6436   7.342   6.244   1.978 -0.1041  0.2040  0.1686
 2373W        W 6437   5.944  10.556   1.338 -0.0720 -0.1634  0.1163
 2374W        W 6438   4.045   9.452   2.926 -0.1053 -0.0572 -0.1141
 2375W        W 6439   0.226   4.427   1.641  0.1206  0.2882 -0.1885
 2376W        W 6440   5.825  10.185   3.570 -0.0895 -0.1061 -0.0244
 2377W        W 6441   1.667   3.304   9.540  0.1857 -0.0461 -0.1493
 2378W        W 6442   6.263  10.400   8.637 -0.0148 -0.1106  0.2264
 2379W        W 6443   9.996   6.363   9.440  0.2237 -0.0671 -0.3134
 2380W        W 6444   7.249   0.429   9.294 -0.0240  0.0992 -0.7816
 2381W        W 6445   3.470   4.724   3.885  0.4022 -0.1285 -0.3322
 2382W        W 6446   0.766   9.749   3.049  0.2263 -0.0118 -0.1064
 2383W        W 6447   2.224   5.337   0.146  0.1205 -0.1528  0.1752
 2384W        W 6448   9.626   5.208   8.825 -0.0725  0.0098  0.1712
 2385W        W 6449   6.091   4.694   1.808  0.1318 -0.0280  0.1063
 2386W        W 6450   3.989   9.800   0.594 -0.0451 -0.0154 -0.0484
 2387W        W 6451   1.807   5.858   3.160  0.2976 -0.0284 -0.3966
 2388W        W 6452   4.362   0.706  10.697  0.0169  0.4022 -0.0417
 2389W        W 6453   6.048   7.692   3.002 -0.0927 -0.1503 -0.0305
 2390W        W 6454  10.131   6.761   1.004 -0.1339  0.2372 -0.2581
 2391W        W 6455   5.577   2.693   3.193 -0.1999 -0.4020 -0.1940
 2392W        W 6456   5.096   8.933   1.458  0.1231 -0.0601  0.3531
 2393W        W 6457   7.772   1.496  10.907  0.0520  0.3774  0.1477
 2394W        W 6458   2.638   2.168   9.950 -0.0478  0.1166 -0.1092
 2395W        W 6459   3.427   3.812   0.729 -0.0252 -0.2402 -0.3849
 2396W        W 6460   3.139   2.559   0.147 -0.1320 -0.2100 -0.2731
 2397W        W 6461   8.655   4.696  11.503 -0.2011  0.1054 -0.0011
 2398W        W 6462   0.316   7.703  11.337 -0.0210 -0.0159  0.2068
 2399W        W 6463   3.708   7.019   0.662 -0.1382  0.1776  0.1646
 2400W        W 6464   2.679   2.836  10.566  0.2431  0.2840 -0.0916
 2401W        W 6465   1.753   7.609  11.112  0.3235  0.2828  0.0519
 2402W        W 6466  10.075   8.666  10.929 -0.0964 -0.2825 -0.2621
 2403W        W 6467   3.357   9.776  11.074 -0.0292 -0.1611 -0.0020
 2404W        W 6468   6.987   2.557  11.279 -0.2330  0.0851 -0.0432
 2405W        W 6469   8.096   2.719   1.219  0.1153  0.0061  0.2254
 2406W        W 6470   0.231   4.659   3.603 -0.1108 -0.0932  0.3489
 2407W        W 6471   0.987   0.705  10.601 -0.2354 -0.0412 -0.0815
 2408W        W 6472   8.465   7.153   9.135  0.0791  0.1389  0.1515
 2409W        W 6473   6.733   9.349   9.783  0.0979  0.1189  0.2634
 2410W        W 6474   0.397   3.593   2.619 -0.0066 -0.0137 -0.5164
 2411W        W 6475  10.021   5.094   0.187  0.0039  0.0809  0.0023
 2412W        W 6476   0.363   3.862   3.052 -0.1856  0.1760  0.0775
 2413W        W 6477   5.467   3.742   8.246  0.2446 -0.1867 -0.3248
 2414W        W 6478   5.120   8.018   1.790  0.3597  0.1071 -0.2751
 2415W        W 6479   7.397   4.076   0.844  0.1626 -0.0012 -0.1047
 2416W        W 6480   3.809   1.130   2.904  0.2480 -0.2628  0.1144
 2417W        W 6481   1.970   0.412  10.792 -0.1336  0.0812 -0.1769
 2418W        W 6482   7.389   5.611   3.186  0.2012 -0.0418  0.0618
 2419W        W 6483  10.372   2.060   8.799 -0.1791 -0.1395 -0.0453
 2420W        W 6484  10.624   5.860   2.704 -0.2513  0.0451  0.4290
 2421W        W 6485   2.485   2.687   8.910  0.1182  0.0255 -0.0931
 2422W        W 6486   9.733   5.692   0.157 -0.3473  0.0883 -0.0789
 2423W        W 6487   7.997   6.651   9.453 -0.1200  0.3729  0.2510
 2424W        W 6488   1.817   9.179   0.431  0.2000 -0.1321 -0.0903
 2425W        W 6489   0.739   0.071   7.925  0.2495  0.2733 -0.0302
 2426W        W 6490   7.435   1.417   2.464  0.0439  0.0359  0.1832
 2427W        W 6491   8.108   2.388   2.525  0.1090  0.3571 -0.3502
 2428W        W 6492   6.647   8.440  10.890 -0.0695 -0.0246 -0.0049
 2429W        W 6493   3.901   4.606   0.381  0.1709  0.4116 -0.3324
 2430W        W 6494   0.873  10.008   1.860  0.1545 -0.1456  0.1180
 2431W        W 6495   0.203  10.528   0.648 -0.1908  0.1881 -0.2699
 2432W        W 6496   3.483   0.802   2.071 -0.2359  0.2850  0.1267
 2433W        W 6497   9.948   9.481  11.031  0.3514  0.1886  0.3960
 2434W        W 6498   4.766   3.836   8.796  0.2194 -0.0280 -0.1284
 2435W        W 6499   9.177  10.371   2.469 -0.0342  0.0660  0.0571
 2436W        W 6500   3.120   6.100   2.697 -0.1484 -0.0000 -0.0176
 2437W        W 6501   2.543   7.955   7.648  0.0295  0.0185 -0.2144
 2438W        W 6502   3.918   7.652   8.528 -0.0854  0.1814  0.2844
 2439W        W 6503   1.586   1.187   2.473  0.0952 -0.2531  0.0849
 2440W        W 6504   2.015   1.079  11.542 -0.0422 -0.1190 -0.0573
 2441W        W 6505   0.949   6.396  10.735  0.1085  0.0214 -0.0998
 2442W        W 6506   2.498   0.977   7.832  0.0697  0.1622 -0.1298
 2443W        W 6507  10.639   5.516  11.129  0.0740 -0.4141 -0.0940
 2444W        W 6508   8.172   4.900   9.264 -0.0724  0.0620 -0.1200
 2445W        W 6509   9.380   0.850   0.360  0.2698 -0.0917  0.0250
 2446W        W 6510   6.308   0.134   9.936 -0.1476  0.0228 -0.0516
 2447W        W 6511   3.780   0.759   4.077 -0.0427  0.2436 -0.0938
 2448W        W 6512   1.743   9.362  11.514  0.2584  0.3349  0.2336
 2449W        W 6513   6.822   2.057   1.473  0.1648  0.1239  0.4276
 2450W        W 6514   9.330   0.970   7.465  0.0634  0.1269 -0.1668
 2451W        W 6515   6.929   6.673   3.054 -0.0359  0.2654  0.1299
 2452W        W 6516   1.270   3.599   9.328  0.1215 -0.2222  0.0286
 2453W        W 6517   4.256   8.248   2.531  0.0393  0.0324 -0.4343
 2454W        W 6518   9.173   6.617  10.523  0.1307  0.0008 -0.0064
 2455W        W 6519   3.067   1.760   9.956 -0.0453  0.0717 -0.2530
 2456W        W 6520   7.789   0.323   1.724 -0.1973 -0.1303 -0.0953
 2457W        W 6521   0.738   3.621   2.147  0.0199 -0.0959 -0.1499
 2458W        W 6522   7.525   6.010   2.814  0.0241  0.2576 -0.0167
 2459W        W 6523  10.064   4.510   1.337 -0.0535 -0.0819  0.0573
 2460W        W 6524   8.881   4.336   2.119  0.2214 -0.1426 -0.0061
 2461W        W 6525   5.567   0.064  10.746 -0.2785  0.1831 -0.0299
 2462W        W 6526   7.397   7.719   2.205  0.2425 -0.3665 -0.0628
 2463W        W 6527   3.330   1.166   2.948 -0.3283  0.2642 -0.1337
 2464W        W 6528   2.205   0.104   0.005 -0.1285  0.3085  0.3033
 2465W        W 6529   7.784   3.385  11.128  0.0360 -0.2209  0.0515
 2466W        W 6530   3.355   1.004   1.138  0.2712 -0.0200 -0.4316
 2467W        W 6531   1.355   0.809  11.505 -0.3963 -0.2628  0.0234
 2468W        W 6532   2.483   9.221   3.478 -0.1482  0.0664 -0.1769
 2469W        W 6533   8.620   6.952   3.279  0.1279 -0.1164 -0.1084
 2470W        W 6534   6.652   9.310  11.423 -0.3120 -0.3246 -0.2107
 2471W        W 6535   0.617   2.180   0.717  0.4245 -0.2633 -0.0623
 2472W        W 6536   6.749   5.623   1.097 -0.2215 -0.2774 -0.1323
 2473W        W 6537   9.248   1.043   2.177  0.0703  0.0790 -0.2090
 2474W        W 6538   1.515   4.992   9.129  0.1267  0.0674  0.1256
 2475W        W 6539   5.450   3.123   1.595  0.0749  0.3584 -0.0826
 2476W        W 6540   0.995   2.839   3.661  0.0810 -0.0647  0.0126
 2477W        W 6541   2.905   5.897   0.399 -0.0979 -0.1355  0.1894
 2478W        W 6542   5.221   5.982   9.024 -0.1906  0.4294 -0.2979
 2479W        W 6543   1.024   5.269   3.861  0.0154 -0.0318  0.0867
 2480W        W 6544   5.127   9.679   1.942  0.1766 -0.2055  0.1599
 2481W        W 6545   9.751   5.800  10.774 -0.1991 -0.0137  0.0770
 2482W        W 6546   5.025   1.726   9.709  0.1032  0.1412 -0.1291
 2483W        W 6547   9.918   8.202   1.386 -0.1443 -0.1018 -0.0486
 2484W        W 6548   8.384   0.176  11.058  0.2854 -0.1616  0.2195
 2485W        W 6549   2.747   9.843   9.928  0.0993 -0.0192 -0.0365
 2486W        W 6550   9.901   5.033   1.433  0.1220 -0.2090  0.0816
 2487W        W 6551   3.723  10.101   1.501  0.1192 -0.0192  0.1282
 2488W        W 6552   4.628  10.378   0.944 -0.1390  0.0327 -0.0254
 2489W        W 6553   8.136   8.074  10.092 -0.2926  0.4211  0.0429
 2490W        W 6554   5.708   5.525   4.357  0.2466  0.0612  0.0503
 2491W        W 6555   6.497   1.871   0.573 -0.0667 -0.3571  0.1598
 2492W        W 6556  10.129   2.426   0.007 -0.1412 -0.0463 -0.1451
 2493W        W 6557   2.200  10.533   9.203  0.0589 -0.1691  0.4295
 2494W        W 6558   6.614  10.420   9.002 -0.1800 -0.0253  0.1817
 2495W        W 6559   5.063   0.406   9.857  0.0528 -0.0006 -0.0158
 2496W        W 6560   9.900   4.046  11.278 -0.2432  0.0132  0.2073
 2497W        W 6561  10.561   6.226   2.137  0.1202  0.1611 -0.1048
 2498W        W 6562   2.803   1.454  10.264  0.0637  0.0102  0.2766
 2499W        W 6563   3.220   0.221   0.367  0.0662 -0.0120  0.1191
 2500W        W 6564   1.889   3.896  11.302  0.2725  0.2183 -0.0658
 2501W        W 6565   2.050   1.162   9.622  0.0826 -0.0612  0.4894
 2502W        W 6566   6.875   4.248   0.682  0.1377 -0.2031  0.0180
 2503W        W 6567   7.474   3.711   9.620 -0.1001  0.0373  0.0482
 2504W        W 6568   6.410   7.380  11.191 -0.3372  0.2684 -0.2635
 2505W        W 6569   5.246   7.696   9.293  0.0920 -0.0406  0.1669
 2506W        W 6570   3.650   4.495  10.397 -0.1137 -0.0977 -0.1922
 2507W        W 6571   7.423   7.472  11.030  0.0022 -0.3444 -0.1921
 2508W        W 6572   6.799   9.578   1.070 -0.1018  0.3501  0.1706
 2509W        W 6573   0.500   3.670  11.264  0.0930 -0.0522  0.4648
 2510W        W 6574   8.522   5.028   9.946 -0.5432  0.2657  0.2599
 2511W        W 6575   9.805   9.828   2.575 -0.1269 -0.0431 -0.0204
 2512W        W 6576   4.180   5.357   2.094 -0.0691  0.1809 -0.1289
 2513W        W 6577   4.188   8.029   8.691 -0.2302  0.1659  0.4430
 2514W        W 6578   9.767   6.923   9.728 -0.2654 -0.2108  0.0038
 2515W        W 6579   3.676   3.615   1.530  0.0475  0.5015  0.1001
 2516W        W 6580   0.461   0.876  10.685  0.1669 -0.2615  0.0314
 2517W        W 6581   7.376   1.141   9.767  0.1133 -0.0568  0.0013
 2518W        W 6582   9.442   9.847  10.179  0.1160  0.1271 -0.0416
 2519W        W 6583   4.207   2.882   2.311 -0.0298  0.0156  0.2665
 2520W        W 6584   6.362   2.318   2.883 -0.0995  0.2082 -0.1315
 2521W        W 6585   4.820   6.192   2.233  0.0677  0.1849  0.0301
 2522W        W 6586   9.843   2.630   9.827  0.1192  0.1435  0.0463
 2523W        W 6587   6.884   2.991   1.765  0.1668  0.2405 -0.1897
 2524W        W 6588  10.310   1.042   9.857 -0.3572  0.2286  0.0240
 2525W        W 6589   2.731   0.285   1.886  0.1127 -0.0162 -0.1296
 2526W        W 6590   6.871   0.256   1.710 -0.0975 -0.2609 -0.0882
 2527W        W 6591   7.826   4.333   0.711  0.1711  0.0215  0.0465
 2528W        W 6592   0.101   7.742   2.232 -0.0634 -0.2458  0.1239
 2529W        W 6593   2.757   7.356   0.531  0.1241  0.1530  0.5435
 2530W        W 6594   3.602   3.867   9.465 -0.0432 -0.2926  0.1836
 2531W        W 6595   5.171   9.127   9.961 -0.1302 -0.0541  0.1877
 2532W        W 6596   4.965   3.301   3.032  0.0527  0.2394 -0.2675
 2533W        W 6597   6.973   7.970   2.129 -0.4180  0.0128  0.3263
 2534W        W 6598  10.468   9.017   1.717  0.0091 -0.0312  0.0734
 2535W        W 6599   5.516   5.334   4.732 -0.0259  0.0754 -0.2873
 2536W        W 6600   7.596   0.982  10.965 -0.0194 -0.2745 -0.3497
 2537W        W 6601   6.583   5.000   9.671 -0.1475 -0.1731 -0.0620
 2538W        W 6602   8.487   1.439   0.596  0.3024 -0.1298 -0.0188
 2539W        W 6603   5.650   5.256   2.424 -0.1129  0.2548 -0.2782
 2540W        W 6604   3.237   5.638   4.329  0.0785  0.0453  0.0311
 2541W        W 6605   5.336   6.426   9.793 -0.3910  0.0141  0.2251
 2542W        W 6606   6.923   7.136   3.269  0.0477  0.0191  0.3681
 2543W        W 6607   8.965   4.032   8.604  0.0206 -0.1402 -0.1270
 2544W        W 6608   4.115   8.602   0.265  0.3396  0.0620 -0.0273
 2545W        W 6609   6.127   3.682   2.628  0.2154  0.0512  0.0908
 2546W        W 6610   7.675   4.253   1.996  0.1579  0.0761 -0.1259
 2547W        W 6611   7.744   8.390  10.892  0.0050  0.1664 -0.1050
 2548W        W 6612   0.152   1.186   9.747 -0.0532 -0.0025  0.4986
 2549W        W 6613   4.921   7.639   8.415  0.0495  0.0676 -0.0521
 2550W        W 6614   5.854   6.861  11.137 -0.0382 -0.0293 -0.0673
 2551W        W 6615   2.654  10.510   8.903 -0.0911  0.1368 -0.2685
 2552W        W 6616   7.260   5.374   2.200  0.1524  0.0168 -0.0849
 2553W        W 6617   7.057   6.808  11.598 -0.0143 -0.1350  0.1527
 2554W        W 6618   3.307   3.007   1.303  0.1221 -0.3595 -0.0800
 2555W        W 6619   1.258   6.861  10.627  0.2111  0.0143 -0.0440
 2556W        W 6620   3.687   0.524   9.034  0.0279 -0.1794  0.4313
 2557W        W 6621  10.637   6.383   3.534 -0.2405 -0.0528 -0.1076
 2558W        W 6622   1.076   2.010   7.499 -0.0808  0.0743  0.0133
 2559W        W 6623   7.074   1.303   8.912 -0.2053  0.1882  0.0746
 2560W        W 6624   4.678   9.515  11.253  0.0110  0.0604  0.2065
 2561W        W 6625   0.765   7.659  10.296  0.1766  0.0357  0.1372
 2562W        W 6626   8.343   0.695  10.437  0.1459 -0.4082 -0.3538
 2563W        W 6627   0.501   7.565   0.644  0.0681  0.2641  0.2520
 2564W        W 6628   8.668   4.906   2.315  0.1295 -0.0965  0.0223
 2565W        W 6629   5.390   9.300   8.508  0.2312 -0.0634 -0.1568
 2566W        W 6630   7.383   8.397   0.053 -0.0322  0.2871  0.4615
 2567W        W 6631   3.806   6.431   3.496 -0.2241 -0.0625  0.0288
 2568W        W 6632   9.574   1.030   1.268  0.0722 -0.0708  0.1173
 2569W        W 6633   3.800   2.680  10.748  0.2214 -0.3260 -0.2220
 2570W        W 6634   1.367   6.567   1.163  0.2919  0.0995 -0.4378
 2571W        W 6635   1.692   8.078   0.877  0.1439  0.0160  0.2611
 2572W        W 6636   2.767   2.978   0.883  0.0128  0.0537  0.0549
 2573W        W 6637   8.740   2.945   1.930  0.0224 -0.1450 -0.0316
 2574W        W 6638   1.142   9.306   2.568  0.0844 -0.0974 -0.0419
 2575W        W 6639   9.522   7.103   3.230 -0.1144 -0.0963  0.0526
 2576W        W 6640   5.341   8.797   8.377  0.0445  0.1588  0.1329
 2577W        W 6641   2.143   6.261   1.244 -0.0577  0.0434  0.2148
 2578W        W 6642   7.909   7.275  10.804  0.2026  0.1674  0.1178
 2579W        W 6643   9.974   8.650   9.478  0.1279  0.4056  0.4512
 2580W        W 6644   6.445   9.828  10.206 -0.3098  0.0739  0.0211
 2581W        W 6645   9.815   9.255   8.328  0.2632 -0.1328  0.0664
 2582W        W 6646   4.905   8.657   8.621 -0.0761  0.0353 -0.0309
 2583W        W 6647   3.639   8.496   8.199  0.0228 -0.0002 -0.0729
 2584W        W 6648   3.700   9.552   2.558 -0.0079  0.0315 -0.2035
 2585W        W 6649   7.497   3.835   1.845  0.4369 -0.1836  0.1148
 2586W        W 6650   2.457   4.289   2.581 -0.1820  0.0663  0.1001
 2587W        W 6651   7.739   5.440   2.164 -0.3524  0.3041 -0.3687
 2588W        W 6652   1.495   8.497   3.741 -0.2579 -0.0446 -0.0124
 2589W        W 6653   8.092   5.266   8.396 -0.1501  0.0190 -0.0861
 2590W        W 6654   1.980   0.940   3.321 -0.0868  0.3524  0.1035
 2591W        W 6655   2.564   4.454   9.008 -0.1092  0.0708 -0.2062
 2592W        W 6656   2.271   9.761   1.186 -0.1053 -0.1430  0.1080
 2593W        W 6657   0.952   9.004  10.581  0.0856 -0.3501 -0.0058
 2594W        W 6658   0.688   9.052   9.472  0.2739 -0.0210  0.0686
 2595W        W 6659   7.601   6.033   3.306  0.2695 -0.0183  0.2386
 2596W        W 6660   3.750   2.413   0.886 -0.1154  0.0855  0.0687
 2597W        W 6661   0.448   1.653   2.002 -0.1950 -0.2224  0.0830
 2598W        W 6662   2.248   9.957   1.699 -0.2863 -0.2107 -0.2868
 2599W        W 6663   2.599   5.234  11.414  0.3683  0.0408  0.2347
 2600W        W 6664   9.909   0.206   9.775 -0.1442 -0.3081  0.1431
 2601W        W 6665   4.541  10.136   1.394 -0.2607 -0.0754  0.1518
 2602W        W 6666   8.505   7.428   3.050  0.2767 -0.0691  0.2950
 2603W        W 6667   1.360   3.191   3.466  0.0596 -0.2649 -0.0399
 2604W        W 6668   1.630   5.572   1.080  0.0656  0.0262  0.0936
 2605W        W 6669   1.760  10.363   0.040  0.2442  0.2008 -0.1201
 2606W        W 6670   0.451   0.519   1.583 -0.1424 -0.0952  0.0445
 2607W        W 6671   4.992  10.361   2.234  0.1251  0.0764 -0.0467
 2608W        W 6672   0.296   5.586   9.817 -0.4132 -0.2930 -0.1863
 2609W        W 6673   5.503  10.293   2.407  0.2068  0.1361  0.0669
 2610W        W 6674   3.666   8.961   0.451 -0.1278 -0.1279  0.2794
 2611W        W 6675   9.363   4.761  11.543  0.1183  0.2510 -0.3461
 2612W        W 6676   9.548   9.796   3.030 -0.0864  0.1748  0.1194
 2613W        W 6677   8.488   6.443   8.417 -0.1081  0.6175  0.0937
 2614W        W 6678   5.820   1.335   1.269 -0.0563  0.2072 -0.2267
 2615W        W 6679   5.629   5.203  10.198  0.2294  0.1212 -0.1882
 2616W        W 6680   9.596   8.384   1.016  0.0766 -0.3028  0.3728
 2617W        W 6681   1.282   3.734   3.560 -0.0567  0.1817  0.1017
 2618W        W 6682   3.619   3.234   8.142 -0.2229  0.2945  0.1448
 2619W        W 6683   5.291   7.237  10.621 -0.0022 -0.1135  0.2109
 2620W        W 6684   3.135   9.747   2.131 -0.2201  0.0681 -0.3306
 2621W        W 6685   8.134   8.072   2.549  0.0220 -0.0895 -0.0635
 2622W        W 6686   4.738   0.993   2.760 -0.2458 -0.0358 -0.3215
 2623W        W 6687   7.303   5.037   9.567  0.1276 -0.1406  0.2882
 2624W        W 6688   4.508   7.725   0.769  0.0579 -0.2308  0.0750
 2625W        W 6689   7.426   1.401  11.279  0.0719 -0.3862 -0.1305
 2626W        W 6690   4.275   4.961   1.789 -0.1785 -0.0776 -0.3956
 2627W        W 6691   0.928   7.098   1.668 -0.1335 -0.2095  0.2064
 2628W        W 6692   4.849   5.633   2.714 -0.0315  0.3235 -0.0590
 2629W        W 6693   9.161   6.266  10.204  0.0306 -0.0323  0.1635
 2630W        W 6694   7.427   5.660  10.571  0.0870  0.2630  0.0998
 2631W        W 6695   6.849   1.819   0.168  0.0066 -0.1028  0.0719
 2632W        W 6696   6.449   1.318   9.636 -0.4114  0.3349 -0.2246
 2633W        W 6697   0.688   7.994   1.179  0.0644  0.0508 -0.0503
 2634W        W 6698  10.227   4.263   2.841  0.0889 -0.2137 -0.2738
 2635W        W 6699   7.038   4.946   3.902 -0.0671  0.5202 -0.0820
 2636W        W 6700   9.206   5.000   1.140  0.1265 -0.0761  0.4336
 2637W        W 6701   6.243   3.179   0.862  0.1270 -0.0914  0.1026
 2638W        W 6702   2.656   8.254   1.868  0.2173 -0.1269 -0.0042
 2639W        W 6703   5.824   7.294   3.908  0.5043  0.3786 -0.2954
 2640W        W 6704   7.109   1.120   1.569 -0.4818 -0.1311  0.2936
 2641W        W 6705   4.412   3.928   3.204 -0.1967  0.2750  0.0336
 2642W        W 6706   3.464   6.552   9.441  0.3903 -0.2616  0.0673
 2643W        W 6707   9.514   6.683  10.073 -0.0664  0.0146  0.0692
 2644W        W 6708   5.804  10.614  11.251  0.1591 -0.0403  0.3144
 2645W        W 6709   8.504   6.737  11.388 -0.0886  0.0299 -0.1177
 2646W        W 6710   9.145   9.717   2.026  0.1212 -0.0051  0.2493
 2647W        W 6711   3.788   5.622   8.976 -0.2734  0.3895  0.1245
 2648W        W 6712   8.185   6.022  10.284 -0.2428  0.1190 -0.1993
 2649W        W 6713   9.249   7.317  11.167 -0.0842  0.0930 -0.2788
 2650W        W 6714   0.858   6.660   1.737 -0.1347  0.2524  0.1157
 2651W        W 6715   8.909   6.689   8.474 -0.2551 -0.0025 -0.0640
 2652W        W 6716   8.094   1.158   9.697 -0.1581  0.1287 -0.1941
 2653W        W 6717   8.293   1.247   2.002 -0.3073  0.0178 -0.2924
 2654W        W 6718   2.151   8.374   8.444 -0.0177  0.3853  0.2548
 2655W        W 6719   1.278   9.191  11.589 -0.1584 -0.0433  0.1516
 2656W        W 6720   1.097   3.565   0.202 -0.0922 -0.1811  0.2712
 2657W        W 6721   3.104   1.739   8.847  0.2602 -0.0554  0.1556
 2658W        W 6722   1.464   6.833  11.110 -0.2341  0.2248  0.0181
 2659W        W 6723   5.454   4.864  10.992  0.2021 -0.1727 -0.3531
 2660W        W 6724   5.685   3.041   2.051 -0.0183  0.0015  0.1026
 2661W        W 6725   4.822   0.082  10.647  0.0157 -0.0735  0.0007
 2662W        W 6726   4.405  10.407  10.083  0.2957  0.0542  0.2370
 2663W        W 6727   9.219   5.980   1.601  0.1885  0.1831  0.0788
 2664W        W 6728   6.786   6.971   0.373 -0.1344 -0.1585 -0.2318
 2665W        W 6729   2.592   6.246   8.656  0.1015 -0.1067 -0.0466
 2666W        W 6730   4.272   8.542   1.235 -0.2314 -0.2646 -0.1961
 2667W        W 6731   5.738   2.491   2.182  0.0407  0.0225 -0.1695
 2668W        W 6732   4.840   6.591   8.982  0.4355  0.0201 -0.0444
 2669W        W 6733   3.385   2.196  11.571  0.2033  0.2143 -0.0845
 2670W        W 6734   4.986   7.579   1.581  0.1288 -0.2298 -0.1355
 2671W        W 6735   5.973   1.138   2.117 -0.1288  0.1198 -0.0799
 2672W        W 6736   8.978   6.884   2.345 -0.5902 -0.2619  0.0553
 2673W        W 6737   5.181   9.322  10.528  0.0479  0.1047  0.0516
 2674W        W 6738   4.768   8.201   8.828  0.0852 -0.0137  0.0092
 2675W        W 6739   4.127   2.827   2.801 -0.1387 -0.2466  0.2655
 2676W        W 6740   6.114   1.402   8.642 -0.2787 -0.2867 -0.2707
 2677W        W 6741   4.205   5.274   8.794  0.2198  0.0688 -0.1758
 2678W        W 6742   4.689   3.105   8.190 -0.2303 -0.2997 -0.1320
 2679W        W 6743   6.779   5.280   8.356 -0.0231 -0.0335  0.1371
 2680W        W 6744   9.090   3.712   1.868  0.0332 -0.2826  0.0836
 2681W        W 6745   5.205   0.298   8.075 -0.1335  0.1179 -0.1805
 2682W        W 6746   5.587   1.148   0.326 -0.0616  0.0455  0.0023
 2683W        W 6747   0.537   8.959   3.335 -0.1711 -0.0125 -0.2762
 2684W        W 6748   2.047   5.784   0.189  0.5940  0.0636  0.0416
 2685W        W 6749   7.470   5.176  11.252 -0.1414 -0.2760  0.2145
 2686W        W 6750   7.396   3.560   0.889  0.1352  0.1307 -0.2150
 2687W        W 6751   7.582   3.457   8.529  0.2399 -0.0335 -0.0608
 2688W        W 6752   3.854   3.719   9.902 -0.0931 -0.0049 -0.1240
 2689W        W 6753   4.310   0.043   2.467  0.2981 -0.2799  0.0569
 2690W        W 6754   3.289   5.749   1.731 -0.1227  0.0297 -0.5980
 2691W        W 6755   5.972   4.038   2.975  0.0257  0.2263  0.2374
 2692W        W 6756   3.583   0.985   0.704  0.0680  0.0049  0.0367
 2693W        W 6757   0.453   0.870   9.383 -0.3280  0.0792 -0.2349
 2694W        W 6758   0.091   0.403   9.433  0.2936 -0.0943 -0.0236
 2695W        W 6759  10.334   0.552  10.999 -0.1241 -0.1267 -0.0639
 2696W        W 6760   1.752   4.135  10.387 -0.2872 -0.0742  0.1604
 2697W        W 6761   2.598   2.358   9.441 -0.1397 -0.2735  0.0484
 2698W        W 6762   9.948   0.245   1.517  0.0358  0.0805  0.1979
 2699W        W 6763   1.031   9.635   1.506  0.0315 -0.1422 -0.1411
 2700W        W 6764   8.884   8.855   3.674  0.0507 -0.1399  0.2372
 2701W        W 6765   4.573   4.209   8.490 -0.2360 -0.0154  0.0001
 2702W        W 6766   0.400   0.136   8.265  0.1442 -0.1299  0.0585
 2703W        W 6767   0.991   0.771   0.586  0.0013 -0.2145  0.1431
 2704W        W 6768   0.846   9.584   9.329  0.2038 -0.0733 -0.2224
 2705W        W 6769   6.441   7.246   3.129 -0.0045 -0.2380  0.2343
 2706W        W 6770   4.605   9.819   1.066  0.2680  0.3340 -0.4045
 2707W        W 6771  10.392   9.707   3.431  0.0110  0.0423  0.0002
 2708W        W 6772   6.012   5.078   1.444  0.2102 -0.1523  0.2674
 2709W        W 6773   6.333   7.673   1.807 -0.1203  0.0527 -0.2653
 2710W        W 6774   7.684   5.203   0.130  0.0302  0.0575  0.2837
 2711W        W 6775   1.963   4.981   2.524 -0.0564  0.1620  0.0950
 2712W        W 6776   1.407  10.550   4.056 -0.3007 -0.0698  0.2877
 2713W        W 6777   6.450   4.102   2.679 -0.3002 -0.0474  0.0598
 2714W        W 6778   3.812   0.811  10.743 -0.1009  0.2000  0.1587
 2715W        W 6779   7.458  10.026   9.375  0.1422 -0.0477  0.3119
 2716W        W 6780   0.299   4.740   1.251 -0.0810  0.2945 -0.1908
 2717W        W 6781   1.427   2.979   7.819  0.0900  0.0130  0.4043
 2718W        W 6782   6.557   3.914  10.140  0.1272  0.0766 -0.0072
 2719W        W 6783   8.643   4.285   8.840  0.0412  0.0800  0.0240
 2720W        W 6784   1.186   7.297   1.226 -0.2929  0.0532 -0.1002
 2721W        W 6785   7.543   9.841   1.538  0.1530  0.1492  0.0183
 2722W        W 6786   4.514   5.755   2.301  0.3063  0.0994 -0.0661
 2723W        W 6787   3.620   4.941   9.462 -0.3703 -0.0152  0.1197
 2724W        W 6788   9.913   3.731   4.043  0.1552  0.0130  0.0885
 2725W        W 6789   8.111   4.650   2.870 -0.1620 -0.0054 -0.3430
 2726W        W 6790   5.178   3.548  10.488  0.2430 -0.0934  0.1234
 2727W        W 6791   3.236   5.726   3.068  0.2201  0.1606  0.1081
 2728W        W 6792   9.285   2.700   9.891  0.0960  0.0284 -0.4521
 2729W        W 6793   4.404   4.041   9.853  0.0051 -0.1234  0.1013
 2730W        W 6794   9.690   8.307   8.696  0.2950  0.0613 -0.1362
 2731W        W 6795   6.175   2.643  11.111  0.2365  0.0696  0.1694
 2732W        W 6796   1.159   1.228   3.203 -0.3667  0.1288 -0.0632
 2733W        W 6797   0.774   8.618   3.159  0.2830 -0.0082  0.0765
 2734W        W 6798   9.507   9.490  11.228 -0.3028  0.0552  0.3537
 2735W        W 6799   1.995   9.615   1.997 -0.0242 -0.2459  0.0695
 2736W        W 6800   4.912   4.711   8.424 -0.1867  0.1574  0.1298
 2737W        W 6801   1.814   8.169   0.267 -0.0868 -0.1973 -0.1734
 2738W        W 6802   2.775   4.519   1.561  0.0975  0.0623 -0.2645
 2739W        W 6803   9.543   9.201  10.797  0.1017 -0.0886  0.1437
 2740W        W 6804   5.648   9.853   9.149  0.0192  0.1455  0.0680
 2741W        W 6805   5.016   2.459   1.407  0.0719 -0.0273 -0.1764
 2742W        W 6806   7.555   9.306  11.333  0.0724 -0.0994 -0.1028
 2743W        W 6807   6.502   0.540   1.619  0.2888 -0.0216 -0.0553
 2744W        W 6808   2.946   6.120   8.325  0.3074 -0.2057  0.1534
 2745W        W 6809   6.592   6.114   3.254 -0.5800  0.0053 -0.1674
 2746W        W 6810   4.484   7.293   2.019  0.1473  0.1008 -0.1969
 2747W        W 6811   1.848   5.502   9.141 -0.2242  0.0465  0.0396
 2748W        W 6812   7.534   9.756   2.026  0.4143 -0.4353  0.1310
 2749W        W 6813   8.164   4.832   0.040 -0.0851 -0.0054 -0.1041
 2750W        W 6814   0.880   3.775   9.750 -0.0096 -0.0264 -0.0814
 2751W        W 6815   2.636  10.374   9.994 -0.3297  0.1037 -0.2452
 2752W        W 6816   1.360   2.777   2.104 -0.2130  0.3837 -0.0599
 2753W        W 6817   0.744   6.793   3.247  0.1385 -0.0818  0.2818
 2754W        W 6818   7.954   5.255  11.313  0.0229  0.0257  0.1341
 2755W        W 6819   2.415   7.472  10.338  0.0669  0.1653 -0.0620
 2756W        W 6820   0.093   4.879   9.639 -0.0438 -0.0945  0.1563
 2757W        W 6821  10.522   8.164   8.928  0.1674  0.2014  0.0623
 2758W        W 6822   4.770   1.796   8.291  0.0966 -0.1972 -0.1500
 2759W        W 6823   0.738   1.717   2.536  0.0961 -0.1155 -0.5547
 2760W        W 6824  10.157   5.123  10.416  0.1485 -0.0654 -0.2361
 2761W        W 6825   1.133   8.881   3.704  0.2618  0.0347 -0.2586
 2762W        W 6826   5.194   3.305   8.056 -0.2050  0.0338  0.0609
 2763W        W 6827   2.538   5.171   3.147  0.1058 -0.1900  0.2641
 2764W        W 6828  10.177   3.171  10.084 -0.2048  0.0612 -0.2230
 2765W        W 6829   3.058   7.702   3.437  0.0350  0.0797 -0.2449
 2766W        W 6830   9.958   7.930  11.551  0.2112  0.1774  0.0834
 2767W        W 6831   7.424   0.686   1.663 -0.2637  0.0825 -0.0436
 2768W        W 6832   9.613   5.769   3.025  0.0993  0.1445  0.0271
 2769W        W 6833   8.251   3.667   1.311  0.0375 -0.2305  0.1959
 2770W        W 6834   4.207   8.396   3.628  0.3219  0.1424  0.1893
 2771W        W 6835   7.170   8.517  11.060  0.0092 -0.0501  0.1296
 2772W        W 6836   2.645   1.661   0.185  0.1770  0.0034 -0.2177
 2773W        W 6837   9.007   4.293  10.133 -0.1789  0.0787 -0.1810
 2774W        W 6838   1.063   5.176   8.065 -0.2441 -0.4127  0.2018
 2775W        W 6839   2.476   9.801   0.668  0.3497 -0.1290  0.2835
 2776W        W 6840   2.520   8.863   9.956  0.2742  0.0286 -0.2442
 2777W        W 6841  10.069   7.036  10.142 -0.1945  0.2561  0.0762
 2778W        W 6842   9.526  10.272   3.743  0.3296  0.0815  0.0313
 2779W        W 6843   5.203   3.137   8.526 -0.1560  0.1035  0.0118
 2780W        W 6844   3.766   0.523   9.523  0.0779 -0.3439  0.0448
 2781W        W 6845  10.531   9.335   9.036 -0.1153 -0.2202  0.0544
 2782W        W 6846   0.888   2.429   3.359 -0.1955 -0.0537  0.1741
 2783W        W 6847   5.888   7.663   9.929 -0.1158 -0.1739  0.4363
 2784W        W 6848   1.986   6.008   9.356  0.0462 -0.2146  0.1632
 2785W        W 6849   6.698   5.099   7.341  0.1926  0.3673  0.0047
 2786W        W 6850   1.669   9.596   9.128  0.0422  0.0738  0.0863
 2787W        W 6851   0.183   9.546   1.050  0.2166 -0.0031 -0.0870
 2788W        W 6852   3.685   3.390  11.323  0.0861 -0.0509 -0.1297
 2789W        W 6853   4.948   3.128  10.857  0.2285  0.0177  0.0274
 2790W        W 6854   8.987   2.467  11.142 -0.3568 -0.3861 -0.3502
 2791W        W 6855  10.336   0.259   1.838 -0.0589  0.2441 -0.1454
 2792W        W 6856   6.521   6.213   2.287 -0.2025 -0.0381  0.3090
 2793W        W 6857   1.889   2.953   9.907  0.1995  0.1666  0.1714
 2794W        W 6858   9.404  10.131   2.085 -0.2201  0.0882  0.0619
 2795W        W 6859   9.277   1.995   8.686  0.0305  0.0476 -0.3245
 2796W        W 6860   2.583   3.908   8.994 -0.1126 -0.0286  0.0798
 2797W        W 6861   0.384   5.671  10.892  0.1551 -0.0201  0.0627
 2798W        W 6862   9.294   9.680  10.789 -0.1089 -0.3340 -0.1469
 2799W        W 6863   9.219   8.578   8.608  0.1230  0.1289  0.0242
 2800W        W 6864   9.498   6.836  10.794  0.1231 -0.1983 -0.0941
 2801W        W 6865   3.215   4.558  10.743 -0.3538  0.2554 -0.0366
 2802W        W 6866   8.993   8.184   1.544 -0.0118  0.0502 -0.0430
 2803W        W 6867   5.865   4.987   2.872 -0.0299 -0.0177  0.1078
 2804W        W 6868   1.508   1.860   9.160 -0.1018 -0.0881 -0.0525
 2805W        W 6869   2.559   8.814   0.989 -0.0830 -0.2320 -0.1116
 2806W        W 6870   5.844   9.315  11.123 -0.2608  0.0752  0.1552
 2807W        W 6871   5.192   3.863   2.282 -0.2521 -0.1293  0.2040
 2808W        W 6872   0.104   9.360   3.401  0.0850 -0.2961 -0.4014
 2809W        W 6873  10.454   4.949   3.668 -0.2137 -0.3087  0.2630
 2810W        W 6874   4.957   5.730   1.998  0.1337 -0.1013  0.0230
 2811W        W 6875   8.162   6.760   8.992  0.1934 -0.0109  0.1312
 2812W        W 6876   7.802   6.442   2.056  0.3276 -0.1925  0.5325
 2813W        W 6877   0.435   4.151   8.326  0.0318 -0.1693 -0.0504
 2814W        W 6878   9.236   8.190  10.038 -0.3415 -0.2774 -0.0061
 2815W        W 6879   9.039   1.545   1.432 -0.1548 -0.0777  0.0966
 2816W        W 6880   3.142   4.468   8.869  0.2019 -0.0281 -0.1667
 2817W        W 6881   6.293   4.709   0.447 -0.2216  0.0783 -0.4370
 2818W        W 6882   1.903   1.748   9.502 -0.1363 -0.0365  0.0172
 2819W        W 6883   1.228   5.368   1.324  0.0233 -0.1437 -0.0240
 2820W        W 6884   6.945   0.806   8.969  0.1781  0.0099  0.2767
 2821W        W 6885   4.845   7.173  11.379  0.0246 -0.0207  0.0834
 2822W        W 6886   8.238   4.456   3.305  0.1768  0.1719  0.1703
 2823W        W 6887   4.112   6.355   1.697 -0.1390 -0.0150 -0.3044
 2824W        W 6888   5.467   8.546   1.909  0.0025  0.2040  0.0049
 2825W        W 6889   5.313   0.318  10.327 -0.1780 -0.0854  0.3240
 2826W        W 6890   1.895   3.925   2.938  0.2794  0.0690  0.3595
 2827W        W 6891   3.677   8.117   8.482 -0.1095  0.1214 -0.0912
 2828W        W 6892   8.054   3.879   2.022  0.0643  0.0111 -0.1808
 2829W        W 6893   7.421  10.319   0.286  0.1314 -0.3169  0.2471
 2830W        W 6894   1.108   6.600   0.375  0.2324  0.1947  0.0290
 2831W        W 6895   7.569   6.558   1.100  0.0791  0.1263 -0.1681
 2832W        W 6896  10.096   5.657  10.435  0.2639  0.1657  0.0124
 2833W        W 6897   9.465   0.523   7.814  0.0201 -0.4588  0.0561
 2834W        W 6898   4.770   2.462   0.070 -0.0499  0.0120 -0.0367
 2835W        W 6899   6.635   3.401   1.090 -0.1684  0.0701 -0.3032
 2836W        W 6900   2.041   4.488   2.765  0.0132 -0.1601  0.1088
 2837W        W 6901   8.892   9.290   9.537  0.1927  0.0626  0.0631
 2838W        W 6902   3.705   3.812   8.712  0.1178  0.0731 -0.0358
 2839W        W 6903   5.872  10.568   2.193 -0.0646  0.0222  0.1758
 2840W        W 6904   2.808   5.454   2.869 -0.0818  0.1328 -0.0230
 2841W        W 6905   7.246   3.152   8.330  0.1592  0.0766 -0.3611
 2842W        W 6906   4.081   7.296   1.650 -0.1285 -0.1201  0.0828
 2843W        W 6907   8.068   3.014   2.984 -0.1706  0.1814 -0.4150
 2844W        W 6908   8.178   1.989  10.292  0.2717  0.6178 -0.4602
 2845W        W 6909   0.930   3.106  10.702  0.1292 -0.2172 -0.1151
 2846W        W 6910   8.499   2.421   1.671 -0.2043 -0.2574 -0.1011
 2847W        W 6911   4.289   9.055   1.438  0.2368 -0.1975  0.0594
 2848W        W 6912   6.593   7.892   0.474 -0.0092 -0.1349  0.2765
 2849W        W 6913   8.886   2.696   2.920  0.0311 -0.1801 -0.0494
 2850W        W 6914   2.551   6.669  11.461  0.0920 -0.1468 -0.0920
 2851W        W 6915   5.132   1.338   8.869  0.1087 -0.0824  0.2209
 2852W        W 6916   1.257   5.159   1.835 -0.0952 -0.1049 -0.0872
 2853W        W 6917   3.088   2.373   9.578  0.2223  0.3260  0.0743
 2854W        W 6918   4.127   0.097   0.750 -0.1221 -0.1621 -0.0545
 2855W        W 6919   5.074   3.331  11.302  0.0125  0.3697  0.1964
 2856W        W 6920   4.821   1.323   8.461  0.1500  0.2362  0.1606
 2857W        W 6921   7.103   2.580   1.990 -0.1690  0.0826  0.3860
 2858W        W 6922   3.637   7.908   0.584 -0.1923  0.1179  0.1097
 2859W        W 6923   0.481  10.320   3.650  0.0229 -0.1331 -0.0414
 2860W        W 6924   4.732   1.600   1.091 -0.0687 -0.2185 -0.2454
 2861W        W 6925   6.620   6.920  11.055 -0.0454 -0.0321 -0.2358
 2862W        W 6926   5.824   5.303   3.873  0.3827 -0.2091  0.1163
 2863W        W 6927   4.597   7.067   8.801  0.2005  0.0786  0.1227
 2864W        W 6928   2.876   0.300   0.727  0.4520  0.2041 -0.2033
 2865W        W 6929   0.802   5.928  10.701  0.1075 -0.1009  0.1931
 2866W        W 6930   2.091   6.113   0.605  0.2528  0.0802  0.1341
 2867W        W 6931   2.605   6.158   1.844 -0.0187  0.4963 -0.0518
 2868W        W 6932   3.404   6.735   0.369  0.1386 -0.1784 -0.2328
 2869W        W 6933   6.946   9.678  10.150  0.0052  0.0438  0.2550
 2870W        W 6934   3.755   4.106   9.085 -0.2149 -0.0391  0.3092
 2871W        W 6935   5.846   2.227   2.937  0.0879  0.0306  0.0354
 2872W        W 6936   9.811   3.825   2.096  0.0695 -0.0522 -0.4221
 2873W        W 6937   3.506   2.385   9.358 -0.1723  0.0440  0.1487
 2874W        W 6938   3.225   8.622   3.922  0.2128 -0.0042  0.5158
 2875W        W 6939  10.573   5.156   2.218  0.1681  0.1987 -0.3744
 2876W        W 6940   7.830   0.568   0.082 -0.0773  0.2077 -0.1442
 2877W        W 6941   8.547   2.917   3.298  0.0597 -0.3508 -0.0873
 2878W        W 6942   3.898   3.914   3.549  0.2961  0.0885  0.2620
 2879W        W 6943   9.011   1.484   8.657  0.2395  0.1057 -0.1366
 2880W        W 6944   6.665   4.416   8.139  0.0672 -0.0564  0.2216
 2881W        W 6945   4.142   0.250   8.985  0.2683 -0.2222  0.3224
 2882W        W 6946   4.561   1.083   3.365  0.1506  0.0874  0.2667
 2883W        W 6947   4.892   6.219  11.532 -0.1052 -0.2863  0.0234
 2884W        W 6948   8.917   5.317   3.147  0.1399 -0.1418 -0.0927
 2885W        W 6949   2.268   7.968   3.990 -0.0786 -0.3956 -0.1343
 2886W        W 6950   7.050   7.245   2.272  0.0923  0.1869  0.2572
 2887W        W 6951   9.496  10.345   1.614  0.1689 -0.0386 -0.2429
 2888W        W 6952   2.139   7.289   3.416 -0.0925 -0.0892 -0.2082
 2889W        W 6953   6.838  10.128  10.286  0.3037  0.1388  0.0634
 2890W        W 6954   2.224   6.682  11.099  0.0829  0.0754  0.1392
 2891W        W 6955   7.188   5.729   1.736 -0.0722  0.1850 -0.0735
 2892W        W 6956   3.800   6.473   2.995  0.2325  0.2635  0.1289
 2893W        W 6957   4.612   8.167   3.418 -0.0111 -0.1614  0.0872
 2894W        W 6958   5.006   7.158   3.636 -0.1375  0.2959 -0.0620
 2895W        W 6959   5.985   8.358   8.950  0.1289 -0.1685  0.0236
 2896W        W 6960   7.878   5.686  11.575  0.4590  0.0355 -0.0324
 2897W        W 6961   2.568   1.143  11.257  0.0949 -0.1552  0.4604
 2898W        W 6962   5.532   7.527  11.520  0.2172  0.2126  0.3823
 2899W        W 6963   7.715   0.951   0.362  0.2143  0.2499 -0.1662
 2900W        W 6964   6.731   9.917   9.758 -0.0767  0.2312  0.2925
 2901W        W 6965   4.650   9.305   0.676 -0.2765  0.0556 -0.4784
 2902W        W 6966   6.502   9.159   9.196  0.0929 -0.4054 -0.2981
 2903W        W 6967   9.786   3.646   3.543  0.1863  0.0461 -0.0665
 2904W        W 6968   5.380   1.187  11.457 -0.0046 -0.1963  0.0751
 2905W        W 6969   3.923   7.383  11.391  0.1130 -0.0699 -0.1345
 2906W        W 6970   8.997   8.019  10.504 -0.1752 -0.0851 -0.1309
 2907W        W 6971   6.525   3.576   9.726 -0.1870 -0.0144  0.0006
 2908W        W 6972   8.880   4.011   4.065 -0.1614  0.0595  0.1064
 2909W        W 6973   6.630   3.211  10.685 -0.3003 -0.2187  0.0944
 2910W        W 6974   8.866   8.003   0.819 -0.1386 -0.0990  0.1370
 2911W        W 6975   2.049   4.156   3.748 -0.2149 -0.2094 -0.2085
 2912W        W 6976   2.370   3.204   9.008  0.3259 -0.1670  0.3743
 2913W        W 6977   9.146   5.865   3.133  0.0242 -0.0612 -0.0050
 2914W        W 6978   0.157   0.146   3.259 -0.1084 -0.0939  0.4190
 2915W        W 6979   9.788   0.635   1.045 -0.1066 -0.0136 -0.0343
 2916W        W 6980   5.707   7.595   2.172 -0.0368 -0.1127  0.0370
 2917W        W 6981   7.542   3.796   2.721  0.2365  0.0902  0.0909
 2918W        W 6982   2.887   5.817   8.752 -0.0085  0.0523 -0.1923
 2919W        W 6983   8.252   9.803   9.977 -0.2886  0.1193  0.0400
 2920W        W 6984   2.844   2.070   2.068  0.0188 -0.0757 -0.2014
 2921W        W 6985   5.974   6.781   2.989 -0.1297  0.0302 -0.0830
 2922W        W 6986   5.463   9.852  10.263  0.0032 -0.2383 -0.0279
 2923W        W 6987   7.415   9.477   9.276 -0.1361  0.3634 -0.0093
 2924W        W 6988   6.467   2.918   3.316  0.2465 -0.1083 -0.0702
 2925W        W 6989  10.500   2.495   2.887 -0.1516 -0.2415  0.1624
 2926W        W 6990  10.493   9.520   9.468  0.3568  0.1144 -0.1799
 2927W        W 6991   8.213   7.547   9.542  0.1750  0.0559 -0.1117
 2928W        W 6992   7.661   8.816   0.611  0.0315  0.1310  0.1441
 2929W        W 6993   0.603   5.172   0.248 -0.2414  0.0943 -0.0387
 2930W        W 6994   0.902   1.997   1.666  0.1033 -0.1389 -0.2097
 2931W        W 6995   2.531   1.835   9.159  0.0286  0.1653 -0.1785
 2932W        W 6996   7.505   4.332   0.356 -0.1008  0.0223 -0.1391
 2933W        W 6997   9.715   2.694   3.472  0.2189 -0.0843  0.0160
 2934W        W 6998   2.049   0.412   9.048 -0.2761  0.0772 -0.2801
 2935W        W 6999   1.720  10.637  10.699  0.0881 -0.3036 -0.1657
 2936W        W 7000   2.258   8.180   1.515  0.0131  0.3418  0.4735
 2937W        W 7001   0.731   4.617  10.223  0.3026  0.0821  0.1074
 2938W        W 7002   9.351   4.821   9.124  0.0250 -0.2027  0.0843
 2939W        W 7003   6.017   9.685   3.442  0.0668 -0.2119  0.1504
 2940W        W 7004   1.196  10.109   2.969 -0.0202 -0.2928  0.0876
 2941W        W 7005   2.489   2.526   1.156  0.0784  0.2103 -0.1373
 2942W        W 7006   3.217   7.715   1.165  0.0390  0.2724 -0.1866
 2943W        W 7007   5.841   9.031   8.504  0.0387 -0.0473 -0.0810
 2944W        W 7008   5.990  10.100   0.727  0.2256 -0.4164 -0.2774
 2945W        W 7009   0.478   2.298  10.470  0.3562  0.0880  0.1031
 2946W        W 7010   8.070   5.720   0.445  0.1289  0.1101 -0.0995
 2947W        W 7011   5.278   3.707   9.613 -0.0310 -0.0444  0.0556
 2948W        W 7012   0.508   8.193   4.142  0.1999 -0.1645 -0.1483
 2949W        W 7013   1.431   9.614   1.829 -0.0126  0.1017  0.2729
 2950W        W 7014  10.529   6.137   9.759  0.1954  0.0528 -0.1614
 2951W        W 7015   3.342   5.230   3.771 -0.0150 -0.2067 -0.0249
 2952W        W 7016  10.638   1.495  11.263  0.0235 -0.1009 -0.0305
 2953W        W 7017   2.001   2.881   1.061 -0.2727  0.1263 -0.3002
 2954W        W 7018   1.386   3.790   2.977 -0.0787  0.0485 -0.1220
 2955W        W 7019   2.068   8.130   3.463  0.0754 -0.1994  0.0579
 2956W        W 7020   2.601   7.860  11.233  0.1112  0.1229 -0.0439
 2957W        W 7021   6.493   6.110  10.545  0.1709  0.0982  0.0735
 2958W        W 7022   5.595   4.736   0.698  0.0641  0.0284  0.1626
 2959W        W 7023   0.076   9.783   3.048 -0.2819 -0.0609  0.2046
 2960W        W 7024   7.736   6.552   9.884  0.0757  0.0173 -0.0348
 2961W        W 7025   3.605   8.754   8.976  0.1729 -0.0317  0.3243
 2962W        W 7026   6.151   6.536   2.505  0.0819 -0.0782 -0.0653
 2963W        W 7027   6.503   0.084   1.441 -0.2231 -0.0171 -0.3231
 2964W        W 7028   5.047   4.146  11.083  0.2521  0.1007 -0.0866
 2965W        W 7029   9.653   4.558   7.771 -0.1073  0.0363  0.2506
 2966W        W 7030   5.881   0.016   2.674  0.0272 -0.1200 -0.0366
 2967W        W 7031   4.283   9.987   0.187  0.0980 -0.3564  0.0485
 2968W        W 7032   5.229   7.948   7.846 -0.0356  0.0153  0.1239
 2969W        W 7033   1.346   4.287   2.280  0.0521  0.0140 -0.3833
 2970W        W 7034   1.888   5.506   1.888  0.0684  0.4704 -0.3209
 2971W        W 7035   5.897   0.642   1.892 -0.1883 -0.0941  0.1048
 2972W        W 7036   6.570   1.490   0.881 -0.0841  0.1428  0.0306
 2973W        W 7037   6.987   3.928  10.908  0.0515  0.2470  0.0734
 2974W        W 7038   0.557   3.735  10.258 -0.0298 -0.0524  0.1110
 2975W        W 7039   0.797   6.905   9.492 -0.1198 -0.0798  0.1151
 2976W        W 7040  10.139   7.429  10.934  0.2161 -0.0225  0.1799
 2977W        W 7041   6.525   5.183   1.234  0.0031  0.0157  0.5007
 2978W        W 7042   8.430   4.039   9.266 -0.0843 -0.0648 -0.0067
 2979W        W 7043   1.331   0.358   1.911 -0.4074  0.0416 -0.4351
 2980W        W 7044   4.479   1.183  10.865 -0.2362 -0.1311 -0.2889
 2981W        W 7045   5.202   7.333  10.154  0.1290  0.0943  0.1668
 2982W        W 7046   9.819  10.301  11.211 -0.1253 -0.0879  0.4634
 2983W        W 7047   4.409   2.725   8.283  0.0844 -0.1971 -0.1458
 2984W        W 7048   1.269   2.851  11.051  0.2022 -0.1260 -0.2428
 2985W        W 7049   6.105   3.606   8.880  0.0568  0.0005 -0.1370
 2986W        W 7050   6.057   4.774   0.967 -0.0832  0.2730 -0.0617
 2987W        W 7051   2.748  10.132   9.333 -0.0646 -0.0272  0.0974
 2988W        W 7052   2.902   7.398   1.487  0.1600 -0.2663 -0.2201
 2989W        W 7053   0.845  10.216   3.342  0.1621 -0.5495  0.2495
 2990W        W 7054   9.960   5.395  10.026  0.2513  0.0097  0.2306
 2991W        W 7055   8.590   5.522   3.909  0.1818  0.1982 -0.0519
 2992W        W 7056   9.908   0.093   1.033  0.1128  0.5937 -0.2539
 2993W        W 7057   3.595   9.911   9.820  0.2169  0.0171 -0.0779
 2994W        W 7058   0.018   5.256   8.987  0.0129 -0.0852  0.0560
 2995W        W 7059   4.840   4.286   9.805  0.0861 -0.3780  0.3300
 2996W        W 7060   2.774   5.954   2.973  0.0092 -0.0124 -0.0340
 2997W        W 7061   4.052   8.725   9.203  0.0076  0.0443  0.0427
 2998W        W 7062  10.402   8.412   9.344 -0.2105 -0.1678  0.4641
 2999W        W 7063   1.078   0.257   0.774  0.0893 -0.0864  0.0647
 3000W        W 7064   0.868   0.299   8.380 -0.0624  0.1154 -0.3239
 3001W        W 7065   7.641   6.854   8.146  0.3392  0.0279  0.0037
 3002W        W 7066   8.836   3.893  10.449 -0.0348  0.2136 -0.1224
 3003W        W 7067   7.388   8.747   1.160  0.0364  0.0830 -0.1595
 3004W        W 7068   4.948   1.607   3.400 -0.0421  0.1438  0.1256
 3005W        W 7069   3.051   1.252  11.013 -0.0912 -0.0634 -0.0640
 3006W        W 7070   7.501   3.198  11.527 -0.1415 -0.1052  0.0722
 3007W        W 7071   9.530   5.355   0.892  0.1168  0.0624 -0.2716
 3008W        W 7072   0.903   9.453   8.601  0.2350  0.3336 -0.1414
 3009W        W 7073   7.040   9.953   0.867  0.0471  0.3296 -0.0659
 3010W        W 7074   5.739   2.502  10.780  0.2573  0.3471 -0.1451
 3011W        W 7075   0.027   5.131  11.389  0.0241 -0.0158 -0.0339
 3012W        W 7076   0.581   7.456   2.104 -0.2417  0.3047  0.1338
 3013W        W 7077   1.670   5.600   8.670 -0.3497  0.1250 -0.0345
 3014W        W 7078   9.433   7.715   9.033 -0.2551  0.3453  0.3164
 3015W        W 7079   3.655   1.594   9.510 -0.0924  0.2386  0.1000
 3016W        W 7080   5.008   8.416   3.312  0.2194  0.2409 -0.2962
 3017W        W 7081   3.670   5.421   8.512  0.0144  0.0007 -0.3030
 3018W        W 7082  10.531   6.874  10.050  0.1759 -0.1905 -0.1223
 3019W        W 7083   7.342   5.839  11.474  0.1532 -0.1796 -0.0911
 3020W        W 7084   9.031   7.979   3.848  0.1771 -0.1225 -0.1987
 3021W        W 7085   1.983   3.516  10.589  0.3418 -0.1206 -0.0645
 3022W        W 7086  10.244   9.979   9.973  0.0484 -0.0808 -0.2143
 3023W        W 7087   8.256   6.141   9.361  0.1704 -0.2937  0.1041
 3024W        W 7088   1.810   3.253   0.682  0.0729  0.1365 -0.0922
 3025W        W 7089   3.765  10.602   1.204 -0.1578 -0.0669  0.1775
 3026W        W 7090   1.715   7.247   0.292 -0.3338 -0.3762 -0.3280
 3027W        W 7091   1.200   8.219   1.882  0.2946  0.1112 -0.0641
 3028W        W 7092   2.790   5.327   0.301  0.1463 -0.0516 -0.2173
 3029W        W 7093   7.710   4.268   3.450 -0.0817  0.2793 -0.2427
 3030W        W 7094   7.019   9.747   2.786 -0.2969  0.0378  0.1927
 3031W        W 7095   7.690   9.058  10.424  0.1455 -0.2346  0.1834
 3032W        W 7096   4.465   2.681   1.515  0.0592  0.2489 -0.2591
 3033W        W 7097   2.735   4.201   8.614 -0.0471 -0.0756  0.1078
 3034W        W 7098   5.675   4.003   2.524 -0.0293  0.2185  0.3322
 3035W        W 7099   5.849   1.535   0.385  0.2978 -0.0304 -0.0041
 3036W        W 7100   5.674   2.915   9.589  0.3594 -0.2374  0.0450
 3037W        W 7101  10.338   6.725  10.549  0.0194 -0.1199 -0.1207
 3038W        W 7102   5.163   3.588   8.698  0.1527  0.2561 -0.4488
 3039W        W 7103   5.938   1.847  10.308  0.1223  0.0880 -0.1361
 3040W        W 7104  10.437   7.220   0.172 -0.1999 -0.0744 -0.0950
 3041W        W 7105   8.509   6.479  10.279 -0.1053  0.1325  0.4032
 3042W        W 7106   8.597   9.099   2.674  0.2715  0.1712  0.1983
 3043W        W 7107   3.884   5.092  11.060 -0.0795 -0.0612  0.1809
 3044W        W 7108   4.845   4.858   2.653 -0.0081 -0.2568 -0.0979
 3045W        W 7109   7.620   4.720   2.234  0.1106 -0.3753  0.0462
 3046W        W 7110   5.003   3.387   1.661 -0.3126 -0.2945  0.1632
 3047W        W 7111   2.885   4.654   2.529  0.1711 -0.1511  0.4602
 3048W        W 7112   4.424   9.515   0.316  0.3951  0.1008  0.1188
 3049W        W 7113   5.487  10.557   8.294 -0.2206  0.1989  0.3589
 3050W        W 7114   0.902   3.266   9.431 -0.1371  0.1391 -0.0036
 3051W        W 7115   6.808   5.808   9.628 -0.1309  0.0070 -0.0140
 3052W        W 7116  10.621   1.030   0.242 -0.0274 -0.2325 -0.1284
 3053W        W 7117   0.628   7.256  10.619 -0.1235  0.0990  0.1532
 3054W        W 7118   6.281   7.040   2.660 -0.2130 -0.1642  0.1229
 3055W        W 7119   9.830   7.385   2.316  0.1493  0.0551 -0.1086
 3056W        W 7120   6.586   1.718  10.876 -0.0508  0.0531  0.0400
 3057W        W 7121   2.656   9.106   8.137 -0.3101 -0.1179 -0.0638
 3058W        W 7122   7.090   5.935   4.060 -0.1001 -0.0893 -0.2034
 3059W        W 7123   9.466   4.500   3.950  0.0280  0.0048  0.0575
 3060W        W 7124   5.509   2.014  11.027  0.3536  0.2205 -0.1513
 3061W        W 7125   5.431   5.980   9.489  0.1521  0.1508 -0.0271
 3062W        W 7126   6.222   2.689   1.112 -0.0927 -0.0278  0.2552
 3063W        W 7127   2.090   5.830   1.031 -0.1789 -0.1041 -0.1597
 3064W        W 7128   7.226   2.125  10.328  0.4658  0.0822  0.2173
 3065W        W 7129   8.624   4.400  11.032 -0.0367 -0.0490  0.2143
 3066W        W 7130   1.623   3.709   0.462 -0.0719  0.2934 -0.1844
 3067W        W 7131   1.304   6.343   1.647 -0.2562 -0.2283  0.0076
 3068W        W 7132   3.546   0.713  10.285 -0.1024  0.1160  0.2682
 3069W        W 7133   6.354   1.514  10.140 -0.0762 -0.0320 -0.2065
 3070W        W 7134   9.725   3.602  11.475 -0.0527  0.0216  0.1509
 3071W        W 7135   8.818   1.099   2.690 -0.0443  0.0136  0.0512
 3072W        W 7136   5.835   5.029   3.359  0.3426 -0.2778 -0.1524
 3073W        W 7137   3.586   6.818   9.886 -0.0751  0.3009 -0.3026
 3074W        W 7138   9.274   3.387   0.178  0.0995 -0.0931 -0.1241
 3075W        W 7139   1.253   7.015   9.315 -0.0582 -0.0815 -0.3388
 3076W        W 7140   0.244   1.717   3.589  0.0837 -0.1296 -0.1599
 3077W        W 7141   3.321  10.102   1.790 -0.0266  0.0620 -0.2173
 3078W        W 7142   5.610   2.398   0.409 -0.2166  0.2765 -0.1572
 3079W        W 7143   9.174   4.143   2.953 -0.1347 -0.0864  0.0550
 3080W        W 7144   6.688   1.425   2.977 -0.1105 -0.1239  0.2423
 3081W        W 7145   1.391   7.913   3.985 -0.1204 -0.0668 -0.0908
 3082W        W 7146   5.622   4.808   9.810  0.2789 -0.3245  0.0292
 3083W        W 7147   9.571   5.388   1.398  0.0696  0.0222 -0.0718
 3084W        W 7148  10.493   2.800   9.060  0.0309  0.1680 -0.2833
 3085W        W 7149   4.269   4.236  10.358  0.2588  0.0002 -0.0826
 3086W        W 7150   8.198   0.184   8.551 -0.0263  0.5061  0.2525
 3087W        W 7151   6.693   2.346   1.868  0.3383 -0.2113 -0.3427
 3088W        W 7152   1.369   2.511   9.087 -0.4035  0.2209 -0.1579
 3089W        W 7153   3.205   9.794   2.696 -0.3293  0.0249  0.4349
 3090W        W 7154   6.897   6.744   8.589  0.1674  0.0083 -0.1772
 3091W        W 7155   8.207   0.806   2.280  0.1731 -0.0062 -0.1771
 3092W        W 7156   3.329   0.709   8.024 -0.2817  0.0317  0.4953
 3093W        W 7157   1.037   5.051   9.011  0.1026 -0.0267 -0.4791
 3094W        W 7158   6.260   6.025   0.800 -0.3927 -0.1678 -0.2052
 3095W        W 7159   1.617   8.515   2.093 -0.1766  0.1752  0.1845
 3096W        W 7160   7.478   5.157   1.821 -0.1644  0.4721 -0.0894
 3097W        W 7161   0.355   8.391   9.960  0.2981  0.0571  0.0091
 3098W        W 7162   8.818  10.020   2.279 -0.0698 -0.1697 -0.2463
 3099W        W 7163   0.867   7.579   0.934  0.0732 -0.3764 -0.0815
 3100W        W 7164   3.857   8.746   0.887 -0.1910 -0.1507 -0.0054
 3101W        W 7165   0.816   2.319   9.760 -0.0033 -0.0916  0.2426
 3102W        W 7166   8.402   4.163   1.345  0.2397  0.0432 -0.2493
 3103W        W 7167  10.334   2.593   2.173  0.0246 -0.0928 -0.1706
 3104W        W 7168  10.260  10.387   2.730 -0.1197 -0.0840 -0.1712
 3105W        W 7169   5.933   7.999   0.532 -0.0554 -0.0306 -0.3474
 3106W        W 7170   4.348   7.464   4.728 -0.1166 -0.3361 -0.3956
 3107W        W 7171   9.410   0.928  10.108  0.2595  0.0564 -0.2600
 3108W        W 7172   3.109   5.241   1.656  0.0714 -0.1835 -0.0897
 3109W        W 7173   4.259   0.619   9.715  0.2816  0.1085 -0.1705
 3110W        W 7174   3.974   7.329   8.986 -0.2762 -0.1597  0.0222
 3111W        W 7175   0.232   4.681  10.128 -0.1586  0.1498  0.1347
 3112W        W 7176   9.549   3.165   1.427  0.1580 -0.2209  0.0311
 3113W        W 7177   0.285   8.193   1.978  0.2988 -0.0016 -0.1184
 3114W        W 7178   8.985   5.151  10.054 -0.4152 -0.2310 -0.0036
 3115W        W 7179   4.276   5.326   0.741 -0.0191  0.2126 -0.2016
 3116W        W 7180   8.303   4.358   0.878  0.1685 -0.2808 -0.3062
 3117W        W 7181   3.966   9.871   9.437 -0.1594  0.3226  0.0901
 3118W        W 7182   2.906   3.505  10.022  0.0751 -0.2007  0.2857
 3119W        W 7183   4.364   9.287   2.504 -0.0033  0.1019 -0.1288
 3120W        W 7184   0.703   0.749  11.122 -0.2631  0.2120 -0.2238
 3121W        W 7185   2.611   8.370   2.365 -0.1312  0.2939 -0.1597
 3122W        W 7186   4.298   2.629   0.000 -0.2180  0.4056 -0.0351
 3123W        W 7187   5.196   1.650   9.243 -0.1171  0.1960  0.4345
 3124W        W 7188   3.144   8.315   8.377  0.2305 -0.0195  0.2987
 3125W        W 7189   5.365   3.506   1.988 -0.1852 -0.0824 -0.2673
 3126W        W 7190  10.464   2.593  10.588  0.0936  0.0350 -0.0411
 3127W        W 7191   1.598   6.205  10.100 -0.6292  0.0338  0.0693
 3128W        W 7192   5.698   7.130   8.139  0.3227 -0.0570  0.2731
 3129W        W 7193   7.736   4.204   9.617 -0.0785  0.0670  0.1983
 3130W        W 7194  10.181   7.221   0.605  0.2107  0.1329  0.0990
 3131W        W 7195  10.259   7.837   0.789 -0.2980 -0.0113  0.0664
 3132W        W 7196   7.883   1.128   8.233  0.1436  0.1222  0.1857
 3133W        W 7197   2.814   5.626   1.929  0.0609  0.0852 -0.0532
 3134W        W 7198   7.894   6.557   1.548 -0.0295  0.2046 -0.0602
 3135W        W 7199   6.246  10.022  11.384 -0.0687 -0.0033  0.1601
 3136W        W 7200   4.418  10.419   3.300 -0.2771  0.0919  0.2867
 3137W        W 7201   7.916  10.249   8.515 -0.1437 -0.7322  0.0353
 3138W        W 7202   3.882   6.873   3.716 -0.0395  0.0905  0.5127
 3139W        W 7203   9.255   8.995   1.586 -0.0741  0.0414  0.0620
 3140W        W 7204   9.963   3.508   9.741 -0.0029  0.1617  0.1443
 3141W        W 7205   8.889   1.694   0.029 -0.2177 -0.1428  0.0320
 3142W        W 7206   4.177   4.917   9.550 -0.3839 -0.3607 -0.1209
 3143W        W 7207   4.907   1.088   0.080 -0.1349 -0.1590  0.0438
 3144W        W 7208   2.901   3.614   9.179 -0.0330  0.0277 -0.1119
 3145W        W 7209   3.963   9.459   1.720  0.3797 -0.1951  0.1233
 3146W        W 7210   7.180   0.875   0.366 -0.1875  0.2517  0.2981
 3147W        W 7211   5.664  10.405   4.086  0.2526  0.1657 -0.0083
 3148W        W 7212   2.438   8.729  10.733  0.1358 -0.2499  0.0308
 3149W        W 7213   3.548   4.092   1.119 -0.1061  0.0113 -0.1432
 3150W        W 7214   3.979   9.766   4.005 -0.1142 -0.0975 -0.3071
 3151W        W 7215   5.288   1.485  10.959  0.2289 -0.0477  0.0205
 3152W        W 7216   6.012   6.156   2.095 -0.0611 -0.2708 -0.2868
 3153W        W 7217   4.759  10.204  11.413 -0.0551  0.1095 -0.3449
 3154W        W 7218   7.811   6.851   2.813  0.2870  0.2379 -0.1557
 3155W        W 7219   8.590   7.974   2.366  0.1374  0.5477  0.1864
 3156W        W 7220  10.288   3.522   8.636 -0.2140  0.0572  0.2074
 3157W        W 7221   6.881   0.821  11.559 -0.2893 -0.1124 -0.2347
 3158W        W 7222   2.664   8.378   8.784  0.0880 -0.0954  0.1008
 3159W        W 7223   3.499   7.318   8.861 -0.0513 -0.2357  0.2212
 3160W        W 7224   9.500   3.043   8.867  0.1511 -0.1499 -0.2140
 3161W        W 7225   3.223   3.009   9.246  0.0981  0.0117 -0.0915
 3162W        W 7226   7.697   4.339   8.788 -0.0146 -0.3882 -0.3597
 3163W        W 7227   7.068   2.850   2.568  0.0544 -0.0498  0.0840
 3164W        W 7228   4.446   9.150  11.058  0.1527 -0.2100  0.0782
 3165W        W 7229   1.473   8.416  10.523 -0.2439 -0.0405 -0.2750
 3166W        W 7230   6.323   8.805   8.732  0.0457  0.2306 -0.1989
 3167W        W 7231   7.676   5.180   8.083  0.1507  0.0643  0.1693
 3168W        W 7232   3.730   8.460  10.037  0.2239  0.0495  0.1235
 3169W        W 7233   4.701   3.708   1.454 -0.1703 -0.0784  0.0177
 3170W        W 7234   3.013   8.892  11.350 -0.0646 -0.1181  0.0566
 3171W        W 7235   8.196   6.338   9.863 -0.0568 -0.0381 -0.0299
 3172W        W 7236   7.832   5.750   9.334 -0.0921 -0.2082 -0.2165
 3173W        W 7237   6.516   5.786   8.500  0.0482  0.0106 -0.0932
 3174W        W 7238   5.711   1.964   0.933  0.1258  0.0020  0.2349
 3175W        W 7239   9.157   4.802  10.628  0.1239  0.0484 -0.1519
 3176W        W 7240   2.449   4.754   3.508  0.1407  0.1604 -0.1395
 3177W        W 7241   6.967   8.675  10.360 -0.0956 -0.5608  0.1623
 3178W        W 7242   4.205   8.961   9.569 -0.2603  0.1986  0.3623
 3179W        W 7243   7.525   9.713   2.897 -0.1236 -0.1664  0.2011
 3180W        W 7244   7.118   0.689   9.761  0.2700 -0.0575 -0.0163
 3181W        W 7245   7.098   0.398   2.618  0.0325  0.2111 -0.2018
 3182W        W 7246   0.772   5.357  10.064 -0.0741 -0.1202 -0.1254
 3183W        W 7247   2.798   6.553   3.127  0.3137  0.2760 -0.2556
 3184W        W 7248  10.072   6.107   8.996  0.0676  0.2373  0.2303
 3185W        W 7249   1.199   0.230  10.725  0.4252 -0.0248  0.0025
 3186W        W 7250   2.225   1.218  10.492 -0.0482 -0.1622 -0.1679
 3187W        W 7251   8.760   5.343   8.969  0.2872  0.2438  0.0912
 3188W        W 7252   3.068   4.501   8.283  0.2876 -0.2459  0.0508
 3189W        W 7253   0.015   1.181   4.606 -0.1606 -0.0961  0.3963
 3190W        W 7254   6.916   5.073  11.184 -0.1132  0.0716 -0.2032
 3191W        W 7255   2.690  10.471  10.493 -0.4499 -0.2099  0.2309
 3192W        W 7256   9.701   9.947   8.184  0.2669  0.3649 -0.0092
 3193W        W 7257   2.696   1.102   7.270 -0.1035  0.1131 -0.1278
 3194W        W 7258   8.187   7.324   4.550  0.2279 -0.2919 -0.2153
 3195W        W 7259   1.648   6.439   3.907  0.2279 -0.0826  0.0990
 3196W        W 7260   0.622   3.846   0.153 -0.0130  0.5840  0.1654
 3197W        W 7261   4.886   1.904   2.687 -0.0265  0.1970 -0.4717
 3198W        W 7262   1.367   0.037   7.958 -0.0813  0.2960 -0.3608
 3199W        W 7263   9.378   9.752   8.575 -0.0433 -0.0788  0.0303
 3200W        W 7264   4.067   7.758  11.082  0.3251 -0.1429  0.3786
 3201W        W 7265   2.120   5.977   2.624 -0.3192  0.3643 -0.4836
 3202W        W 7266   6.979   5.086   0.913  0.2720  0.0349 -0.0602
 3203W        W 7267   8.651   5.500   9.696  0.1857 -0.1068 -0.0912
 3204W        W 7268   5.425   4.396   9.086  0.1476  0.0032 -0.2324
 3205W        W 7269   1.498   3.739  11.537  0.1951  0.2841  0.0198
 3206W        W 7270   1.415   1.874  11.530 -0.3386  0.5893 -0.1670
 3207W        W 7271   0.788   6.128  11.148 -0.0253  0.1360  0.1698
 3208W        W 7272   6.644   2.268   8.668  0.0506 -0.2549 -0.1825
 3209W        W 7273   8.646   2.602   1.244 -0.0888  0.1068 -0.2581
 3210W        W 7274   8.565   7.657   3.870  0.1884  0.0350 -0.1809
 3211W        W 7275   3.236   9.682  10.051 -0.0441  0.0145 -0.1057
 3212W        W 7276   7.954   9.909   1.872  0.2806 -0.3288 -0.2147
 3213W        W 7277   2.595   4.850   9.855  0.3107 -0.1191 -0.0115
 3214W        W 7278   4.269   4.668   2.226 -0.2135 -0.0953  0.0882
 3215W        W 7279   5.580   5.855   3.017  0.1538 -0.0293  0.0675
 3216W        W 7280   0.944   4.041   8.155  0.0462  0.1320 -0.0320
 3217W        W 7281   1.479   0.931   9.603  0.1799  0.2755  0.0527
 3218W        W 7282   4.544   5.649   3.304 -0.2393  0.2784  0.3569
 3219W        W 7283  10.385   4.751   0.023  0.3506 -0.0454  0.0143
 3220W        W 7284   2.758   3.731   0.127  0.1861  0.0474 -0.2295
 3221W        W 7285   4.795   6.454  10.143  0.2667  0.1515  0.2627
 3222W        W 7286   7.252   4.079  11.339 -0.2409 -0.0917 -0.1207
 3223W        W 7287   3.108   4.189   3.348 -0.0299 -0.0350 -0.3870
 3224W        W 7288   9.025   6.260   3.489 -0.2263  0.0684  0.1017
 3225W        W 7289   5.198   4.630  10.053  0.1440 -0.0772  0.1873
 3226W        W 7290   2.705   2.273   8.775  0.0322 -0.1509  0.0478
 3227W        W 7291   3.819   6.946   2.818  0.1267  0.0543 -0.2666
 3228W        W 7292   7.778   6.969   3.338  0.1390 -0.0621  0.2139
 3229W        W 7293   3.391   8.824   0.996  0.2303  0.1227 -0.3226
 3230W        W 7294   7.627   9.801   8.951  0.2452 -0.0041 -0.0932
 3231W        W 7295   1.688   6.101   1.827  0.0993 -0.0974 -0.0454
 3232W        W 7296   2.641   2.832   9.449  0.0313  0.0971 -0.0161
 3233W        W 7297   6.625   3.658   2.390  0.2461  0.0128  0.0158
 3234W        W 7298   4.425   3.898   0.081  0.1560  0.0010 -0.0356
 3235W        W 7299   0.497   4.091   1.880 -0.0096  0.0774  0.1116
 3236W        W 7300   3.943   1.773  10.322  0.0500  0.2466  0.0754
 3237W        W 7301   4.368   9.987   3.018  0.1602  0.1160  0.0843
 3238W        W 7302   3.434   0.628   2.533 -0.0507 -0.3354  0.0261
 3239W        W 7303   8.360   5.281   1.468 -0.0604  0.2587  0.0198
 3240W        W 7304   3.749  10.241  11.309  0.0307  0.3974  0.1051
 3241W        W 7305   6.733   9.033   1.863  0.0789  0.1666 -0.0594
 3242W        W 7306   5.908   6.310  11.095 -0.0586  0.1104 -0.1353
 3243W        W 7307   5.325   0.486   1.908 -0.1872  0.0407  0.0734
 3244W        W 7308   7.123   6.204   3.013 -0.0696 -0.0638  0.2802
 3245W        W 7309   8.535   0.201   9.233 -0.0765 -0.0712  0.0759
 3246W        W 7310   7.607   4.505   2.725 -0.1738  0.0213 -0.0882
 3247W        W 7311   5.670   5.869   4.780  0.0568  0.0191  0.3988
 3248W        W 7312   8.012   0.046   1.396 -0.2014  0.2266 -0.5267
 3249W        W 7313   8.642   7.821   8.431 -0.3214  0.0885  0.0039
 3250W        W 7314   3.053   9.432   3.689  0.3609 -0.0463 -0.1766
 3251W        W 7315   7.430   2.475   1.546  0.1699 -0.0548  0.0562
 3252W        W 7316   6.149   2.351  10.473 -0.0868 -0.1878 -0.2952
 3253W        W 7317   7.809   0.293   0.862 -0.1174 -0.0947 -0.1789
 3254W        W 7318   1.248   3.910   0.671  0.3212 -0.3868  0.2545
 3255W        W 7319   0.583   5.908   3.501 -0.3300 -0.0018 -0.0726
 3256W        W 7320   2.707  10.412   3.834  0.0458  0.1541 -0.4483
 3257W        W 7321   2.021   4.150   0.823 -0.2080 -0.3425 -0.1712
 3258W        W 7322   4.140   7.306   3.726 -0.2786  0.2731  0.1889
 3259W        W 7323   3.253   4.028   9.099 -0.2623 -0.0102  0.1118
 3260W        W 7324   9.575   7.527   0.018 -0.0793  0.0628  0.0477
 3261W        W 7325   7.160   5.346   2.842 -0.1831  0.0143 -0.0705
 3262W        W 7326  10.109   5.534   1.625 -0.0435  0.0084  0.2180
 3263W        W 7327   6.513   8.279   0.148  0.0478  0.0108  0.1081
 3264W        W 7328   8.215   7.856   1.560  0.1530  0.0361 -0.0742
 3265W        W 7329   7.729   2.254   2.795 -0.2558  0.2359 -0.2290
 3266W        W 7330   6.365  10.402   0.689 -0.3246 -0.3283 -0.0310
 3267W        W 7331   1.826   8.639  10.116  0.0321  0.1318  0.2401
 3268W        W 7332   9.903   8.341   2.121  0.0215  0.2768  0.1511
 3269W        W 7333   4.468   2.811   8.777  0.1990  0.1326 -0.1142
 3270W        W 7334   7.805  10.286   9.047  0.1771 -0.1572  0.1661
 3271W        W 7335  10.586   8.133  10.247 -0.2061 -0.0298  0.3015
 3272W        W 7336   8.840   2.982   3.735 -0.3085  0.0402  0.2082
 3273W        W 7337   3.182   2.870  10.778  0.0369 -0.0672  0.1400
 3274W        W 7338  10.117   2.336  10.265  0.1015 -0.4409 -0.2159
 3275W        W 7339   7.161   8.884   8.666 -0.0396 -0.1816  0.0731
 3276W        W 7340   8.250   0.408   1.653  0.2438 -0.1921  0.1045
 3277W        W 7341   8.300   1.589  11.242 -0.4953  0.1705  0.0888
 3278W        W 7342   2.741   1.347   1.642 -0.1191 -0.1221  0.1149
 3279W        W 7343   6.446   6.569   2.966 -0.0790  0.1344  0.0903
 3280W        W 7344   7.272   4.371   8.454 -0.0288 -0.0262 -0.3112
 3281W        W 7345   5.753   0.522  10.600  0.3088 -0.0724  0.1017
 3282W        W 7346   0.510   7.674   3.552  0.3342  0.0743 -0.0625
 3283W        W 7347   6.064  10.141   0.192 -0.0603  0.3114 -0.1212
 3284W        W 7348   4.092   1.255   3.410 -0.0530  0.0047  0.0792
 3285W        W 7349   1.515   0.499  11.045  0.3070 -0.0322  0.0919
 3286W        W 7350   8.721   0.431  11.351  0.0013  0.2493  0.4101
 3287W        W 7351   3.172   3.037   1.834 -0.0638  0.0664 -0.3302
 3288W        W 7352   4.510   8.991   2.991 -0.1565  0.0131 -0.1055
 3289W        W 7353   8.804   5.305   1.128 -0.0868 -0.0480 -0.0930
 3290W        W 7354   9.561   3.691   1.476  0.0467 -0.1474 -0.0105
 3291W        W 7355   1.402   8.286   0.551 -0.0499  0.1506  0.1423
 3292W        W 7356   0.808   8.434   1.928  0.2364  0.0948 -0.1106
 3293W        W 7357   9.889   2.218   3.402 -0.1469  0.1051 -0.0562
 3294W        W 7358   2.257   7.330   9.129 -0.0089  0.1981 -0.3015
 3295W        W 7359   8.885   6.355   3.000  0.1249 -0.1261 -0.1904
 3296W        W 7360   5.401   6.507   1.630  0.5258 -0.2331  0.3862
 3297W        W 7361   1.427   0.830   7.211 -0.3614  0.1517  0.0166
 3298W        W 7362   4.395   1.028   9.935 -0.2767  0.0783  0.0012
 3299W        W 7363  10.147   2.240   9.801  0.1140  0.1586  0.0597
 3300W        W 7364   9.989   0.557   3.027  0.0966  0.1208  0.0747
 3301W        W 7365   8.702   1.927   1.428  0.4110  0.1026  0.4268
 3302W        W 7366   0.156   9.044   8.685 -0.0433 -0.1743 -0.3198
 3303W        W 7367   9.599   6.180   9.723 -0.0877  0.3058 -0.0841
 3304W        W 7368   0.031   7.253   3.481 -0.3613 -0.0427  0.1579
 3305W        W 7369   0.013   6.704   0.203  0.3812  0.2637 -0.4409
 3306W        W 7370   7.274  10.235   1.307 -0.1227 -0.0760  0.0263
 3307W        W 7371   8.587   1.778   9.395  0.0159 -0.0423  0.2678
 3308W        W 7372   8.637   3.519  11.332 -0.0060  0.0721 -0.1524
 3309W        W 7373   6.085   4.102   9.935  0.1164  0.0088  0.1617
 3310W        W 7374   2.726   3.543  11.270 -0.0885 -0.2431 -0.0011
 3311W        W 7375   3.007   4.856   3.047 -0.3122  0.0094  0.2062
 3312W        W 7376   9.099   0.015   1.544  0.3047 -0.0651  0.2286
 3313W        W 7377   1.929   0.073   0.788  0.6111 -0.3081  0.0800
 3314W        W 7378  10.192   8.797   2.081  0.3963 -0.1475 -0.1613
 3315W        W 7379   2.260   7.488   0.463  0.2377  0.2873  0.0559
 3316W        W 7380   9.005   7.533   4.074  0.4198 -0.2014 -0.1707
 3317W        W 7381   9.269   9.277   1.989 -0.0422  0.0235  0.0357
 3318W        W 7382  10.145   3.653   0.795  0.1872  0.2538 -0.0763
 3319W        W 7383   6.117   4.255   0.747  0.1330 -0.1619 -0.0476
 3320W        W 7384   0.893   6.342   8.555 -0.0069  0.0808  0.1029
 3321W        W 7385   8.659   1.926   0.478 -0.1960 -0.0138  0.3817
 3322W        W 7386   1.293   3.505   9.889  0.2774  0.0280 -0.0671
 3323W        W 7387   9.224   7.565   9.635 -0.0411 -0.1348 -0.0251
 3324W        W 7388   7.265   6.842   8.881  0.0075 -0.1386  0.0572
 3325W        W 7389   7.896   8.802   1.277  0.2317 -0.2438 -0.1425
 3326W        W 7390   2.183   4.639   1.874 -0.1225 -0.1021 -0.2773
 3327W        W 7391   5.885   1.089   8.908  0.0957 -0.1094 -0.1938
 3328W        W 7392   8.820   4.936   2.812 -0.0754 -0.0240  0.1395
 3329W        W 7393   5.349   2.854   8.182 -0.0515  0.1839  0.3263
 3330W        W 7394   0.439   2.910   0.421 -0.1299  0.1200  0.1545
 3331W        W 7395  10.586   3.408   7.781  0.2042  0.0764  0.0061
 3332W        W 7396   0.581  10.355   8.416 -0.0441  0.1197  0.3154
 3333W        W 7397  10.309   8.340   1.673 -0.1529 -0.1319  0.1503
 3334W        W 7398   0.838   3.272   3.565 -0.0727 -0.0109 -0.1258
 3335W        W 7399   1.230   1.980  10.108  0.0144  0.0646  0.0353
 3336W        W 7400   1.879   6.722   2.451 -0.0122 -0.1336  0.0728
 3337W        W 7401   9.108   7.586   0.992 -0.0660  0.1414 -0.0870
 3338W        W 7402   1.051   2.203   7.969 -0.0361 -0.2266 -0.4372
 3339W        W 7403   0.266   8.502   3.342 -0.1962 -0.4304 -0.1385
 3340W        W 7404   3.865   0.522  11.211 -0.1474  0.0733  0.0693
 3341W        W 7405   8.414   8.889   1.070 -0.1720 -0.2246  0.0250
 3342W        W 7406   3.898   9.594   1.265  0.0797 -0.0893  0.0143
 3343W        W 7407   2.728   7.059   2.571 -0.0772 -0.0600 -0.0677
 3344W        W 7408   9.007   5.222   2.192  0.0641 -0.1239  0.0421
 3345W        W 7409   4.067   1.751   1.771  0.4029  0.0853 -0.1901
 3346W        W 7410   3.420   3.864   7.403  0.0009 -0.0717 -0.0218
 3347W        W 7411   7.948   0.651  11.153  0.0732  0.0262 -0.0788
 3348W        W 7412   4.004  10.444   0.198 -0.0953  0.3414  0.0303
 3349W        W 7413   2.410   8.480   0.131  0.0708  0.0201 -0.0256
 3350W        W 7414   6.383   8.572   9.152 -0.2195  0.0902 -0.2793
 3351W        W 7415   7.397   8.998   9.087 -0.2112 -0.0686 -0.0935
 3352W        W 7416   9.570   3.134  11.404 -0.1134 -0.0183 -0.0348
 3353W        W 7417   7.609   7.075   8.596  0.0331 -0.1197  0.0385
 3354W        W 7418   5.514   1.642  10.570 -0.2548  0.0277 -0.2055
 3355W        W 7419   2.611   1.408  10.774  0.3545  0.0439  0.3850
 3356W        W 7420   1.179   5.398   8.621 -0.0522  0.2081 -0.0355
 3357W        W 7421   6.538   5.624   0.540  0.0545  0.0142 -0.1415
 3358W        W 7422   3.676   2.969   4.189  0.1996  0.1704 -0.0451
 3359W        W 7423   2.902   5.711   2.460 -0.1730  0.1709 -0.0392
 3360W        W 7424   7.200   2.673   7.980 -0.0514 -0.0581 -0.0120
 3361W        W 7425   7.674   3.567   1.368 -0.1844 -0.1606  0.2843
 3362W        W 7426   3.503   8.918  11.202  0.0332  0.0047  0.4103
 3363W        W 7427   2.341   3.997   0.418  0.0518 -0.2335  0.1153
 3364W        W 7428   1.546   0.211   1.109 -0.0898  0.0297  0.0458
 3365W        W 7429  10.376  10.159   9.127 -0.2229  0.2593  0.3610
 3366W        W 7430   0.784   8.665   8.213 -0.0123  0.1549 -0.0508
 3367W        W 7431   1.873   3.005   8.162 -0.2243  0.0300 -0.0608
 3368W        W 7432   5.637   5.274  10.739  0.2493  0.2116  0.3151
 3369W        W 7433   3.154   9.856   1.378 -0.0783  0.2089  0.4081
 3370W        W 7434   0.821   8.246   7.675 -0.1798 -0.1431 -0.0144
 3371W        W 7435   5.922   0.014   3.412 -0.1390 -0.2345 -0.1970
 3372W        W 7436   0.088   8.584   1.608 -0.1244 -0.0286 -0.2089
 3373W        W 7437   0.116   5.181   8.209 -0.2101 -0.1563 -0.1696
 3374W        W 7438   1.112  10.254   8.769 -0.3635 -0.3507  0.2849
 3375W        W 7439   0.989   9.250  11.186  0.1525 -0.2272 -0.0797
 3376W        W 7440   6.848   3.617   0.612 -0.0674 -0.0210  0.1306
 3377W        W 7441   0.351   2.669   9.124 -0.2572  0.1757  0.0592
 3378W        W 7442   9.620   7.922   2.232 -0.0843  0.0706 -0.0556
 3379W        W 7443  10.390   6.331  10.222 -0.1721  0.1036  0.0433
 3380W        W 7444   5.251   5.859  11.332  0.2953 -0.3024  0.1827
 3381W        W 7445   4.229   8.682   8.026  0.2279 -0.0713 -0.0175
 3382W        W 7446   3.667   5.224   2.461  0.1746 -0.2775  0.0646
 3383W        W 7447   0.988   3.664  10.563 -0.0391 -0.2680  0.2966
 3384W        W 7448   6.371   7.586  10.785 -0.0540  0.3601  0.2375
 3385W        W 7449  10.601   7.223   1.532  0.0942  0.0920 -0.1818
 3386W        W 7450   7.726   6.963  10.394  0.6250 -0.0697 -0.0179
 3387W        W 7451   3.084   8.630   2.370 -0.0404 -0.0317 -0.0557
 3388W        W 7452   1.971  10.569   1.291 -0.1995 -0.2761 -0.1329
 3389W        W 7453   0.488   2.279   1.804  0.1145 -0.0102 -0.1927
 3390W        W 7454   5.666   3.435   9.636  0.0319 -0.0765  0.2203
 3391W        W 7455   5.201   3.926   1.746 -0.0798  0.2028  0.1961
 3392W        W 7456   8.237   9.492  10.333 -0.2421 -0.0132  0.0989
 3393W        W 7457   9.527   6.522   3.574 -0.0230 -0.1196 -0.1210
 3394W        W 7458   3.499   8.928   2.352 -0.0587 -0.2551 -0.1380
 3395W        W 7459   0.227   5.449   0.147  0.4119  0.0245  0.2334
 3396W        W 7460   7.725   9.274   1.333  0.1849 -0.1837 -0.0761
 3397W        W 7461  10.640   4.205   3.474 -0.1121 -0.0659  0.0062
 3398W        W 7462   9.686   1.851   2.984 -0.1907 -0.2984 -0.0700
 3399W        W 7463   1.666   5.957   3.702  0.1411 -0.0779  0.1260
 3400W        W 7464   2.194   3.044  10.322  0.2470 -0.0289  0.1214
 3401W        W 7465   1.334   9.586   2.945  0.2659  0.0603 -0.1288
 3402W        W 7466   9.728   7.892   0.420 -0.0516 -0.0286  0.0383
 3403W        W 7467   5.392   6.588   0.675  0.0385  0.0184 -0.0197
 3404W        W 7468   5.587   0.746   1.514 -0.0970  0.2497  0.0411
 3405W        W 7469   8.302   3.262  10.028 -0.0751 -0.0025 -0.2389
 3406W        W 7470   3.521   4.848   0.469  0.1217 -0.1214 -0.1792
 3407W        W 7471   8.724   6.281   1.483 -0.4174  0.1377  0.1353
 3408W        W 7472   9.221   4.574   8.148  0.1184 -0.1324 -0.0596
 3409W        W 7473   2.840   3.526   7.518  0.0127  0.1917  0.0787
 3410W        W 7474   1.082   4.551   8.917 -0.0739 -0.0243 -0.1310
 3411W        W 7475   6.552   9.363  10.309  0.0844  0.1646  0.0661
 3412W        W 7476   4.495   5.025   8.305  0.1309  0.0790  0.0431
 3413W        W 7477   0.443   7.064   8.611 -0.2931 -0.1009 -0.4270
 3414W        W 7478   4.090   6.363   4.258 -0.1092 -0.0962  0.1710
 3415W        W 7479   9.382   1.093   9.619 -0.0111  0.2907  0.2355
 3416W        W 7480  10.016   4.938   8.540  0.0995  0.1999 -0.1583
 3417W        W 7481   9.252   6.325   2.618 -0.1977  0.2065 -0.1116
 3418W        W 7482   4.961   3.662  10.949 -0.1962  0.1187 -0.2798
 3419W        W 7483  10.084  10.261   0.854 -0.1102  0.0243 -0.1368
 3420W        W 7484   1.482   6.408  10.563  0.0175  0.1604  0.1070
 3421W        W 7485   5.057   9.067   0.955 -0.0420 -0.0657 -0.5124
 3422W        W 7486   9.132   3.827   0.981  0.2224 -0.0616  0.0112
 3423W        W 7487   6.171   2.231   0.928 -0.2400  0.0958 -0.1850
 3424W        W 7488   2.138   5.078  10.678 -0.0448 -0.0885 -0.0094
 3425W        W 7489   1.906  10.369   8.125 -0.2635 -0.1351 -0.1064
 3426W        W 7490   8.655   1.290   0.170  0.3513 -0.0802 -0.3508
 3427W        W 7491   0.076   2.985   1.840 -0.1231 -0.0696 -0.1347
 3428W        W 7492   1.185   8.792   0.260  0.1546 -0.0250  0.3854
 3429W        W 7493   4.573   7.206   0.886  0.3892 -0.0044  0.2252
 3430W        W 7494   2.286   4.206  11.157  0.0912  0.1722  0.4847
 3431W        W 7495   3.487   6.747   3.266  0.1927  0.2188  0.1726
 3432W        W 7496   9.504   4.157   1.249 -0.0410 -0.0866 -0.1687
 3433W        W 7497   3.103   5.309   1.106  0.0606  0.1744 -0.1786
 3434W        W 7498   1.970   6.045   9.848  0.0909 -0.0856 -0.0249
 3435W        W 7499   2.898   4.579   3.665 -0.1974 -0.0748 -0.2456
 3436W        W 7500   7.119   2.682   1.023 -0.2020  0.1138  0.0343
 3437W        W 7501   1.729   3.684   3.771  0.1147  0.0003  0.1436
 3438W        W 7502   4.413   2.851  10.159  0.0103 -0.0336  0.2711
 3439W        W 7503   8.617   9.682   0.008 -0.1182 -0.1296  0.2847
 3440W        W 7504   1.714   2.265   9.369 -0.2783  0.1881 -0.0199
 3441W        W 7505   5.099   8.401   7.726  0.3729 -0.0550  0.1934
 3442W        W 7506   5.856   2.744   3.648 -0.0521  0.2118  0.0252
 3443W        W 7507  10.476  10.186   3.238  0.2409  0.1688  0.3303
 3444W        W 7508   4.697   7.965   2.948 -0.0541  0.3167  0.2713
 3445W        W 7509   6.932   2.568   1.516  0.2654 -0.1048 -0.2068
 3446W        W 7510   9.985  10.114   0.348  0.0583 -0.2110  0.3378
 3447W        W 7511   6.081   5.076  10.556 -0.0061  0.1981 -0.0622
 3448W        W 7512   2.272   2.695   2.018 -0.2331 -0.0495 -0.1086
 3449W        W 7513   7.399   4.158   3.041  0.1843  0.1964 -0.0424
 3450W        W 7514   9.362   2.254   2.054 -0.0515  0.0777  0.1658
 3451W        W 7515   1.507   2.178   0.869 -0.0441 -0.1527  0.1684
 3452W        W 7516  10.505   7.972   8.374  0.0197 -0.1555  0.1622
 3453W        W 7517   7.355   6.588  10.429  0.0997 -0.2324  0.0554
 3454W        W 7518   7.114   3.789   8.475  0.1530 -0.2174  0.2480
 3455W        W 7519   4.266  10.550   1.240  0.0337  0.2263 -0.0187
 3456W        W 7520   5.786   1.713   2.820  0.3627 -0.1111  0.0421
 3457W        W 7521   5.665   2.239   8.119 -0.1055 -0.1274 -0.2615
 3458W        W 7522   5.374  10.251   3.726  0.0025 -0.0391 -0.1338
 3459W        W 7523   1.564   9.219   0.903  0.2643  0.0710 -0.3898
 3460W        W 7524   4.592   6.966  10.081 -0.0740 -0.0954  0.2879
 3461W        W 7525   6.244   6.485   0.463  0.1155 -0.0363 -0.1306
 3462W        W 7526   0.174   9.805  11.489  0.2069 -0.1006  0.1009
 3463W        W 7527   0.047   4.253   3.968 -0.0952  0.1399  0.0485
 3464W        W 7528   7.059   0.062   2.296 -0.0156  0.0150  0.1454
 3465W        W 7529   1.776   2.473   3.419 -0.1896  0.2974 -0.1628
 3466W        W 7530   1.360   4.457   9.414  0.1927 -0.0830  0.2556
 3467W        W 7531   3.266   6.935  10.859  0.0089 -0.1270  0.1558
 3468W        W 7532   7.827   6.049  10.682  0.1746 -0.2008 -0.1594
 3469W        W 7533   2.996   6.069   2.117  0.0113 -0.1592  0.1177
 3470W        W 7534   9.435   3.520   9.637  0.1507 -0.1153 -0.0277
 3471W        W 7535   3.664   7.270   8.344  0.1287 -0.0425  0.0092
 3472W        W 7536   4.977   6.373   0.735  0.3051  0.1441  0.0918
 3473W        W 7537   9.065   9.012   2.734 -0.1996  0.0107 -0.2760
 3474W        W 7538   0.515   5.025  10.414 -0.5386 -0.1698  0.1885
 3475W        W 7539   2.170   5.681  11.321  0.0196 -0.0789 -0.1362
 3476W        W 7540   1.602   3.923   0.971 -0.2088  0.2898  0.0023
 3477W        W 7541   0.920   3.248  10.196 -0.0352  0.0735 -0.2996
 3478W        W 7542   7.798   7.568   0.875  0.0780  0.4242  0.0126
 3479W        W 7543   4.322   4.418   3.293 -0.1428 -0.0575  0.0741
 3480W        W 7544   9.561   5.807   9.246  0.0112 -0.0729 -0.3227
 3481W        W 7545   8.262   5.686   3.505  0.0930  0.1866  0.0433
 3482W        W 7546   2.439   5.893   9.600  0.1544 -0.0339 -0.0480
 3483W        W 7547   8.856   2.136   1.840 -0.0923 -0.0446 -0.0392
 3484W        W 7548   7.956   3.396   0.318 -0.0563  0.1946  0.0206
 3485W        W 7549   6.172   5.860  10.242 -0.0274  0.3381  0.0569
 3486W        W 7550   3.246   1.660   2.835  0.0450 -0.1022 -0.2506
 3487W        W 7551   8.533   5.209   3.482 -0.1945  0.3629  0.1383
 3488W        W 7552   1.237   2.208   9.477  0.1927 -0.1351 -0.1429
 3489W        W 7553   1.949   2.053   8.419  0.0754  0.1843  0.2506
 3490W        W 7554   2.046   2.661   2.459 -0.0569 -0.2712 -0.2854
 3491W        W 7555   2.355   4.870   1.183  0.1774 -0.0444  0.1964
 3492W        W 7556   2.071   7.835   2.008  0.0222 -0.4096  0.0155
 3493W        W 7557   1.522  10.377   0.975  0.2995  0.0219  0.0419
 3494W        W 7558  10.152   8.979   3.038  0.0407 -0.4460 -0.1629
 3495W        W 7559   8.586   8.398   0.929  0.0916 -0.1415  0.0389
 3496W        W 7560   6.320   1.511   1.335 -0.2641  0.0948 -0.0543
 3497W        W 7561   7.659   3.589   2.267 -0.1257 -0.1254  0.2484
 3498W        W 7562   4.464   3.169  10.896  0.0455 -0.0191 -0.1203
 3499W        W 7563   9.890   0.837   9.993  0.0221 -0.0803 -0.1831
 3500W        W 7564   6.760   9.464   1.583  0.0517  0.0540 -0.3218
 3501W        W 7565   0.064   5.415   1.596  0.0273  0.2294  0.0708
 3502W        W 7566   1.357   4.070   9.169  0.1377  0.1779 -0.0577
 3503W        W 7567   4.216   5.906   1.912  0.1972 -0.1066  0.1366
 3504W        W 7568   1.493   0.459   9.306 -0.1318 -0.0700 -0.1195
 3505W        W 7569   6.634   2.455   0.931 -0.3150  0.0968  0.0904
 3506W        W 7570   3.002  10.533   1.952  0.0953  0.0432  0.0956
 3507W        W 7571   9.314   5.501   8.225  0.2266 -0.0600 -0.1692
 3508W        W 7572   5.380   9.093   9.487 -0.2347 -0.0856  0.0775
 3509W        W 7573   2.644   6.895   1.291 -0.1783 -0.0798 -0.1901
 3510W        W 7574   6.457   2.206  10.938  0.0588  0.0816  0.2582
 3511W        W 7575   8.797   2.894   2.446  0.0618 -0.2371  0.0453
 3512W        W 7576   1.420   5.593   8.257 -0.0677  0.2014 -0.0698
 3513W        W 7577   2.527   8.336  11.238  0.1979 -0.1117 -0.4127
 3514W        W 7578   0.913   4.660   9.400  0.1143  0.0052  0.1122
 3515W        W 7579   2.619   6.367   1.371 -0.3477  0.0902 -0.0234
 3516W        W 7580   9.655  10.057  10.816 -0.0383  0.2387 -0.0964
 3517W        W 7581   3.725   9.922   8.989 -0.1803  0.1520  0.1884
 3518W        W 7582   6.159   3.178   9.737  0.1885  0.0892  0.0002
 3519W        W 7583   3.079   0.723   8.507  0.2080 -0.0048  0.0494
 3520W        W 7584   8.317  10.571   2.443  0.2493 -0.0704  0.1527
 3521W        W 7585   3.185   5.149  11.492  0.3235  0.2111  0.1569
 3522W        W 7586   4.713   4.973   2.142 -0.0369 -0.2686  0.0067
 3523W        W 7587   8.192  10.544   2.940 -0.0362  0.3218  0.1429
 3524W        W 7588   6.922   6.805  10.662  0.0031  0.3147 -0.0045
 3525W        W 7589   5.609   4.633   1.198  0.2671 -0.1263 -0.0836
 3526W        W 7590   1.137   3.729   4.509 -0.2075 -0.2297 -0.3765
 3527W        W 7591  10.625   1.372   7.925 -0.3183 -0.1257  0.1076
 3528W        W 7592   2.601   3.087  11.196  0.2692 -0.0861  0.0126
 3529W        W 7593   1.344   1.654   1.633 -0.1765  0.1582  0.1223
 3530W        W 7594  10.440   0.798   2.715 -0.2854 -0.0062 -0.4203
 3531W        W 7595   9.331   4.250   0.784 -0.0152 -0.1659  0.4344
 3532W        W 7596   2.264   7.709   4.847  0.0636  0.0411  0.2090
 3533W        W 7597  10.028   9.817   3.008 -0.1089  0.2667 -0.4218
 3534W        W 7598   8.689   2.629  10.691  0.0807  0.1673  0.2149
 3535W        W 7599   1.199   3.576   8.389  0.0445  0.0345  0.4371
 3536W        W 7600   9.911   0.402   2.028  0.0084 -0.0968  0.1269
 3537W        W 7601   9.847   9.435   9.525  0.2200 -0.0692  0.0600
 3538W        W 7602   5.168   8.029   8.907 -0.1549  0.0322 -0.1830
 3539W        W 7603   6.416   6.924   9.123 -0.0294 -0.0008 -0.0831
 3540W        W 7604   0.218   0.956  10.209  0.0925  0.1405 -0.1590
 3541W        W 7605   7.074   6.263   2.432  0.1572 -0.0350  0.0225
 3542W        W 7606   6.415   7.541   7.759 -0.0755  0.2950 -0.0545
 3543W        W 7607   5.163   2.610   8.772  0.0497  0.2195  0.2565
 3544W        W 7608   2.616  10.504   2.286 -0.1059 -0.3515  0.2941
 3545W        W 7609   7.633   5.656  11.062  0.1941  0.0979 -0.2316
 3546W        W 7610   9.913   7.477   8.803  0.1157  0.0503  0.0865
 3547W        W 7611   9.135   2.873   1.266 -0.2104  0.0656  0.1342
 3548W        W 7612   6.477   3.344   1.831 -0.3689  0.3147 -0.2244
 3549W        W 7613   3.515   5.588  11.344  0.0620 -0.3498 -0.0406
 3550W        W 7614   3.601   5.083   2.999  0.0318 -0.3893  0.1634
 3551W        W 7615   2.669   4.451   0.401  0.1209  0.0797  0.0102
 3552W        W 7616  10.440   6.056   3.816 -0.1344  0.1007 -0.0532
 3553W        W 7617   8.102   5.634   8.054  0.0055 -0.1395 -0.2910
 3554W        W 7618  10.340   0.015   1.237  0.2307 -0.1563 -0.0070
 3555W        W 7619   5.191   1.033   8.350  0.0917 -0.2966  0.3273
 3556W        W 7620   5.947   0.909   3.048  0.1593 -0.1661  0.0611
 3557W        W 7621  10.458   4.023   9.545  0.2676 -0.0042 -0.2674
 3558W        W 7622   2.878   9.675   9.103 -0.0278 -0.1567  0.0654
 3559W        W 7623   8.881   2.433   9.832  0.0219 -0.2303 -0.1772
 3560W        W 7624   7.618   2.802   2.640 -0.1049 -0.4679  0.0064
 3561W        W 7625   9.338   8.725  10.046 -0.1446 -0.1266 -0.4764
 3562W        W 7626   2.686   8.935   8.636  0.1406 -0.1136 -0.2373
 3563W        W 7627   5.745   2.497   0.899 -0.0749 -0.0087  0.0683
 3564W        W 7628   4.249   3.773  10.423 -0.0453  0.0460 -0.1210
 3565W        W 7629   5.076   8.043  10.901  0.0781  0.1126 -0.2722
 3566W        W 7630   1.730   7.747   9.117  0.0842  0.0881 -0.2281
 3567W        W 7631   5.033   8.477  11.317  0.3709 -0.0240 -0.0590
 3568W        W 7632   2.535   7.906  10.256  0.0694  0.2263 -0.0462
 3569W        W 7633   8.384   5.996   2.673 -0.0930 -0.1827 -0.0870
 3570W        W 7634   4.003   6.996   7.968 -0.1404  0.0014 -0.0149
 3571W        W 7635   1.780   2.214   8.843 -0.0727 -0.0163  0.0112
 3572W        W 7636   2.795   7.856   3.872 -0.0806  0.0225 -0.0543
 3573W        W 7637   0.924   4.942   8.500  0.0466  0.1290  0.2984
 3574W        W 7638   5.919   4.057  10.927  0.1473 -0.1766 -0.0304
 3575W        W 7639   5.428   1.145   1.064  0.3302 -0.1314  0.0681
 3576W        W 7640   6.566   0.996   0.786  0.1216 -0.3312 -0.0187
 3577W        W 7641   5.871   2.236   9.581  0.1897  0.2494  0.3593
 3578W        W 7642   0.966   3.062   0.258  0.0852  0.2621  0.1120
 3579W        W 7643   9.995   1.844  11.440 -0.1047 -0.0995  0.1329
 3580W        W 7644   8.178   7.036   0.171  0.1961  0.1445 -0.2061
 3581W        W 7645  10.248   3.069   1.631  0.0295 -0.0402  0.0828
 3582W        W 7646   9.397   8.641   2.800  0.2094  0.2422  0.0092
 3583W        W 7647   1.915   0.674   9.488  0.1265 -0.2732  0.3814
 3584W        W 7648   4.796   8.394   9.959 -0.0626  0.3697 -0.0004
 3585W        W 7649  10.047   6.929   2.345  0.2522  0.2629 -0.1010
 3586W        W 7650   3.206   9.740   3.282 -0.3752  0.1023  0.1773
 3587W        W 7651   9.620   7.959   8.359  0.1475  0.3563 -0.4040
 3588W        W 7652   2.304   8.442   3.060 -0.2955  0.2668 -0.2448
 3589W        W 7653   5.801   9.373   2.650 -0.2569  0.0669  0.0646
 3590W        W 7654   3.461   7.846   7.477  0.0553 -0.1179  0.0750
 3591W        W 7655   5.717   9.731   1.175 -0.1003 -0.0407  0.0439
 3592W        W 7656   2.087   7.833   1.075  0.0873  0.2338  0.0280
 3593W        W 7657   7.889   3.979   1.542 -0.0166  0.0315  0.0158
 3594W        W 7658   4.669   2.929   1.899 -0.0887 -0.1661 -0.4155
 3595W        W 7659   7.233   9.109  10.982 -0.1097 -0.1920  0.0725
 3596W        W 7660   5.610   5.375   9.609  0.0013 -0.0026 -0.2277
 3597W        W 7661   2.841   6.690  10.590  0.1660  0.3763 -0.2313
 3598W        W 7662   3.940   5.649   2.485 -0.0396 -0.1394  0.0977
 3599W        W 7663   4.117   6.745  10.016 -0.0412  0.0757 -0.0006
 3600W        W 7664   8.627   4.601   1.192 -0.2374 -0.0639 -0.2571
 3601W        W 7665   0.418   1.357   8.940 -0.0626 -0.0978  0.1421
 3602W        W 7666   9.837   2.120   7.937 -0.2673  0.1296  0.0922
 3603W        W 7667   2.777   1.873   9.577 -0.4621 -0.1491  0.1634
 3604W        W 7668   9.769   1.194   9.103 -0.2742  0.1280 -0.0248
 3605W        W 7669   9.497   7.443   1.288 -0.1830  0.0617 -0.2809
 3606W        W 7670   8.875   0.917  10.813 -0.0661 -0.0219 -0.0528
 3607W        W 7671  10.419   5.431   0.339 -0.0986 -0.0462 -0.1623
 3608W        W 7672   5.466   6.773   8.362  0.0825  0.0668  0.0959
 3609W        W 7673   2.491   3.848   9.996  0.2786 -0.2517  0.0502
 3610W        W 7674   7.013   4.447   0.193 -0.0130  0.1049  0.1372
 3611W        W 7675   5.924   5.789   1.787 -0.1366  0.1537 -0.5235
 3612W        W 7676   3.377   1.022  11.449  0.1884  0.0776  0.0083
 3613W        W 7677   4.423   5.134  11.587 -0.1023 -0.1043  0.3761
 3614W        W 7678   8.685   4.306   7.775  0.1017  0.4379 -0.0048
 3615W        W 7679   0.927   2.314  10.226 -0.0049  0.0360 -0.4539
 3616W        W 7680   7.699   1.988  10.061 -0.1827 -0.1107 -0.2094
 3617W        W 7681   9.727   6.828   1.244  0.0414 -0.0741  0.0617
 3618W        W 7682   1.620   2.007   9.822 -0.2677 -0.2445  0.0199
 3619W        W 7683   7.297   6.143   8.176  0.2156 -0.0740 -0.0752
 3620W        W 7684   1.835   8.689   8.179  0.1007 -0.1315 -0.2518
 3621W        W 7685   7.836   0.675  10.657  0.0853 -0.0113 -0.1893
 3622W        W 7686   6.596   8.809   9.518 -0.3331  0.0718 -0.1852
 3623W        W 7687   2.303   2.973   3.208 -0.0301  0.1484 -0.1579
 3624W        W 7688   3.843   8.238   1.032 -0.1031  0.0232  0.3406
 3625W        W 7689   1.131   2.130   8.938 -0.1965 -0.1749 -0.0562
 3626W        W 7690  10.602   5.821  11.558 -0.1756 -0.1437  0.1332
 3627W        W 7691   2.142   6.841   9.335 -0.0085 -0.2530 -0.1321
 3628W        W 7692   2.847   7.403   3.003 -0.1942 -0.2856  0.2096
 3629W        W 7693   6.409   8.019   2.268  0.0026  0.0971 -0.0695
 3630W        W 7694  10.623   3.134   9.783  0.0158 -0.0231  0.0810
 3631W        W 7695   3.971   4.871   8.636 -0.1270  0.0625 -0.3581
 3632W        W 7696   9.079   6.736   3.272  0.0957  0.1992  0.0494
 3633W        W 7697   8.814   3.921  11.102 -0.0934 -0.0632 -0.0782
 3634W        W 7698   2.435   1.222   3.121  0.2366 -0.2271 -0.0419
 3635W        W 7699  10.630   2.431   1.727 -0.2668  0.1017 -0.2794
 3636W        W 7700   7.097   2.671   9.946 -0.1217 -0.0638 -0.1017
 3637W        W 7701  10.420   6.265   0.369  0.0284 -0.0646  0.1450
 3638W        W 7702   8.739   9.135   3.141 -0.1418  0.0558  0.2262
 3639W        W 7703   7.101   7.365   8.488  0.2884  0.0713  0.2218
 3640W        W 7704   3.979   5.247   9.229 -0.0385 -0.0197 -0.0991
 3641W        W 7705   9.668   5.782   0.758 -0.0998 -0.2378 -0.1092
 3642W        W 7706   2.176   2.079  10.166  0.0799 -0.1057 -0.0200
 3643W        W 7707   3.944   9.158  11.123  0.0905 -0.1008  0.1057
 3644W        W 7708   8.684   2.459   0.452 -0.0391 -0.0740 -0.1118
 3645W        W 7709   7.616   9.731   0.665 -0.0027 -0.0106 -0.0124
 3646W        W 7710  10.145   0.331  11.453  0.1704  0.0973  0.2900
 3647W        W 7711   4.836   9.284   2.222 -0.2831 -0.3364  0.1146
 3648W        W 7712   2.860   6.699   3.868 -0.1032 -0.1834  0.2336
 3649W        W 7713   0.712   6.523   0.777 -0.1280 -0.1297 -0.1435
 3650W        W 7714   4.213   5.945   3.610  0.0439 -0.0954  0.0984
 3651W        W 7715   3.855   4.446   3.664 -0.2529  0.0842 -0.0214
 3652W        W 7716   5.184   6.185   3.558 -0.1544 -0.0731  0.1437
 3653W        W 7717   9.853   7.164   1.644 -0.2046 -0.1622 -0.0514
 3654W        W 7718   2.505  10.037  10.321 -0.1408  0.5708 -0.1025
 3655W        W 7719   8.398   4.134   2.809  0.0885  0.1988  0.0882
 3656W        W 7720  10.375   8.450   8.544  0.0894 -0.0133  0.2490
 3657W        W 7721   5.830   8.622   3.928  0.1345  0.0204  0.1479
 3658W        W 7722   2.725   9.428   2.483 -0.2514  0.3192 -0.0966
 3659W        W 7723  10.100   5.198   9.015 -0.0214 -0.0152  0.0613
 3660W        W 7724   9.438   8.904   8.351  0.2529 -0.1411  0.0943
 3661W        W 7725   1.177   8.373  11.067 -0.0661  0.1674  0.3154
 3662W        W 7726   3.342   6.891   8.522  0.4243 -0.1836 -0.0130
 3663W        W 7727   6.103   1.920   8.046  0.0610 -0.2359  0.3070
 3664W        W 7728   8.572   8.826  10.920  0.0577  0.1024 -0.1134
 3665W        W 7729   2.942   3.968   3.753  0.1191  0.2313 -0.2801
 3666W        W 7730   0.918   2.786   9.970  0.1917 -0.1004  0.0214
 3667W        W 7731   9.181   7.416  10.426  0.1972 -0.0368 -0.2184
 3668W        W 7732   1.796   5.151  10.035 -0.1158 -0.1637  0.2113
 3669W        W 7733   6.293   8.055   2.781 -0.0401  0.0797  0.0619
 3670W        W 7734  10.605  10.461   1.794 -0.1273  0.0240 -0.2977
 3671W        W 7735   9.368  10.289  10.451 -0.3740  0.1054 -0.2201
 3672W        W 7736   1.419   0.797   1.510 -0.0506  0.1284  0.0787
 3673W        W 7737   8.827   6.864   2.849 -0.1668 -0.1703  0.2057
 3674W        W 7738   2.924   2.078   7.959  0.2535  0.1524 -0.0428
 3675W        W 7739   7.934   3.901  10.667  0.1325 -0.1325 -0.1201
 3676W        W 7740   5.336   0.166   4.207 -0.0054 -0.2020  0.3082
 3677W        W 7741   9.440   4.722   2.076  0.0816 -0.4097  0.2541
 3678W        W 7742   7.776   9.987   1.130 -0.0967  0.2267 -0.2767
 3679W        W 7743   8.098   8.951   2.588 -0.2046  0.0622  0.1307
 3680W        W 7744   1.699   6.969   1.142 -0.2559 -0.2090  0.1680
 3681W        W 7745   8.907   2.763   0.842 -0.1859 -0.0458  0.1483
 3682W        W 7746   2.092   5.971   3.978  0.1066  0.1176 -0.1828
 3683W        W 7747   4.187   3.585   9.606 -0.1580 -0.2360  0.5014
 3684W        W 7748   4.400   1.215   0.975 -0.4973 -0.2104  0.1186
 3685W        W 7749   2.492   0.271  11.268 -0.0400 -0.1747 -0.0111
 3686W        W 7750   1.165   5.978   1.981  0.0830  0.0297 -0.0930
 3687W        W 7751   4.657   3.341   8.686 -0.0698  0.1615  0.2213
 3688W        W 7752   5.239   6.793  11.392 -0.1789 -0.0373  0.1022
 3689W        W 7753  10.285   4.542   9.441 -0.2476 -0.0289 -0.0647
 3690W        W 7754   7.692   6.704   4.173  0.2409  0.1631  0.0631
 3691W        W 7755   6.579   6.070   1.168 -0.1502 -0.1823  0.1454
 3692W        W 7756   1.189   9.842  10.033 -0.0157  0.1019  0.1431
 3693W        W 7757   0.578   5.268   1.657 -0.0921  0.1333 -0.2465
 3694W        W 7758   2.173   7.875  10.574 -0.2432  0.3880  0.1527
 3695W        W 7759   3.140   8.212   2.014 -0.0077  0.3227  0.1030
 3696W        W 7760   9.388   3.147   3.502  0.2215 -0.2127  0.2271
 3697W        W 7761   1.258   3.290   0.616  0.1945 -0.1091 -0.2232
 3698W        W 7762   6.410   5.283   7.708 -0.2043  0.0470 -0.0853
 3699W        W 7763   9.223  10.334   1.174  0.1692 -0.1333  0.1782
 3700W        W 7764   2.709   8.017   2.785 -0.1120  0.0706 -0.0028
 3701W        W 7765   7.369   9.667   1.095  0.2475 -0.0276 -0.2923
 3702W        W 7766   2.059   8.843  11.108 -0.1686  0.1313 -0.1532
 3703W        W 7767   3.578   2.912  11.137  0.0811  0.0729  0.0596
 3704W        W 7768   5.083   2.439   0.514 -0.1572 -0.0408  0.1943
 3705W        W 7769   9.418   1.696   9.613  0.0131 -0.0431  0.0326
 3706W        W 7770   9.191   3.095   9.580 -0.1442  0.3392  0.0252
 3707W        W 7771   6.555   4.595   0.973  0.0321  0.0044  0.2388
 3708W        W 7772   4.265   1.546   1.302 -0.2325 -0.2737 -0.0375
 3709W        W 7773   6.226   5.548   0.959 -0.2947 -0.3886  0.2212
 3710W        W 7774  10.150   9.130   1.402  0.2400  0.0668  0.0258
 3711W        W 7775   8.034   1.456   1.625 -0.1770 -0.2390 -0.1525
 3712W        W 7776   8.714   4.105   9.628  0.1716 -0.0053 -0.1187
 3713W        W 7777   9.316   8.375   2.354 -0.1380 -0.0179  0.0753
 3714W        W 7778   1.148   9.772   7.779 -0.0685 -0.2016 -0.4030
 3715W        W 7779   4.020   8.876  10.069  0.0747 -0.0036 -0.1124
 3716W        W 7780   3.040   0.036  11.524  0.0266  0.0178  0.1698
 3717W        W 7781   5.759   4.084   9.107  0.0661  0.3144  0.1558
 3718W        W 7782   5.916   1.142   0.735 -0.1343 -0.0258 -0.0058
 3719W        W 7783   0.487   4.007   3.820  0.1135  0.1278 -0.0582
 3720W        W 7784   6.011   5.520  11.034  0.0086 -0.0422 -0.2087
 3721W        W 7785   5.763   5.760   0.872 -0.0516  0.0883 -0.0827
 3722W        W 7786   5.848   2.069   1.742 -0.1041  0.3730 -0.0025
 3723W        W 7787   2.071   6.641   3.246 -0.3572  0.1006 -0.0698
 3724W        W 7788   7.241   8.205   2.596 -0.0981  0.2968 -0.0897
 3725W        W 7789   9.881   0.840   0.620  0.0065 -0.3689 -0.0941
 3726W        W 7790   9.513   9.196  10.160 -0.3305  0.1162 -0.4494
 3727W        W 7791   6.504   4.683   7.731 -0.0276 -0.3183  0.0267
 3728W        W 7792   9.570   6.617  11.234 -0.1647  0.0317 -0.0286
 3729W        W 7793   5.661   0.742   0.963 -0.2124 -0.1127 -0.0339
 3730W        W 7794   1.305   1.285   1.953 -0.3446  0.1688 -0.0924
 3731W        W 7795   2.101   0.695   0.265  0.0106 -0.0829  0.1141
 3732W        W 7796   0.328   1.251   8.282 -0.2251  0.2374 -0.1900
 3733W        W 7797  10.370   1.857   9.313  0.0387 -0.1776  0.0682
 3734W        W 7798   4.377   1.400   4.296  0.0009  0.3276  0.0544
 3735W        W 7799   2.117   1.638   1.502 -0.2271  0.2734  0.0542
 3736W        W 7800   8.410   3.787  10.652 -0.1103  0.1693 -0.1482
 3737W        W 7801   5.010   5.428   3.589 -0.1231 -0.3835  0.0187
 3738W        W 7802  10.097   6.133  10.606 -0.1592  0.2791 -0.3126
 3739W        W 7803   0.071  10.480   2.290  0.1898  0.0619 -0.1414
 3740W        W 7804   7.753   2.556   0.082 -0.1979  0.0581  0.0905
 3741W        W 7805   7.293   3.179   9.793  0.3419 -0.1211 -0.0285
 3742W        W 7806   1.816   2.978   2.087 -0.2019  0.1999 -0.4488
 3743W        W 7807   5.580   9.366   0.194  0.0393  0.0562  0.0485
 3744W        W 7808   3.549   0.077  10.354 -0.0588  0.1373 -0.2828
 3745W        W 7809   5.913   8.113   9.469  0.2149 -0.2060  0.1439
 3746W        W 7810   9.872   1.115   2.888  0.1118  0.2880 -0.1388
 3747W        W 7811   3.768   2.231  10.419 -0.2289 -0.0687 -0.4291
 3748W        W 7812   0.635   8.681   9.178 -0.0422  0.1883  0.0444
 3749W        W 7813   1.851   4.268   1.719  0.0557 -0.1733  0.1215
 3750W        W 7814   5.881   6.717   4.129 -0.1981  0.0631  0.4558
 3751W        W 7815  10.353   5.112   1.797 -0.0289 -0.2120  0.1490
 3752W        W 7816   9.652   6.012   8.672  0.4026 -0.0040 -0.2208
 3753W        W 7817   9.653   1.838   3.539 -0.3690 -0.1891 -0.2870
 3754W        W 7818   8.018   1.491   8.664 -0.0640 -0.0889 -0.4557
 3755W        W 7819   1.791   3.385   3.293 -0.4841  0.1740 -0.0168
 3756W        W 7820   7.331   1.582   1.816 -0.1464 -0.0959 -0.1252
 3757W        W 7821   6.780   0.997   9.911  0.2408 -0.0168  0.1077
 3758W        W 7822   1.844   4.093   0.185  0.0521  0.2264 -0.6219
 3759W        W 7823   8.142   8.020   0.072 -0.0063  0.1700  0.1928
 3760W        W 7824   0.477   1.606   1.430 -0.0533  0.1444 -0.0393
 3761W        W 7825   5.835   6.942   2.457  0.0309 -0.0431 -0.0809
 3762W        W 7826  10.461   6.808   3.273 -0.0636 -0.2660 -0.1093
 3763W        W 7827   6.562   4.335   1.805  0.0937 -0.0130  0.1497
 3764W        W 7828   9.509   5.119   2.332  0.2091 -0.2934  0.0608
 3765W        W 7829  10.465   4.952  10.985  0.0352 -0.0204  0.0232
 3766W        W 7830   5.430   2.936  10.001  0.3349  0.1836  0.0470
 3767W        W 7831  10.189   4.076  10.724 -0.1417  0.0995  0.3940
 3768W        W 7832   3.721   0.366   0.048  0.2464 -0.0236 -0.0768
 3769W        W 7833   4.846   4.296  10.282  0.2163  0.1181  0.1160
 3770W        W 7834   2.152   5.082   1.611  0.0254 -0.0156 -0.1690
 3771W        W 7835   2.822  10.161   0.654 -0.2042 -0.0568 -0.0789
 3772W        W 7836   4.046   0.114   2.068 -0.0915  0.1674 -0.0287
 3773W        W 7837  10.457   3.789   9.047 -0.0544 -0.1435 -0.2153
 3774W        W 7838   5.755   9.339   1.548 -0.1789 -0.3663 -0.0030
 3775W        W 7839   4.579   5.247   2.550  0.2773  0.0189  0.2017
 3776W        W 7840   7.196   7.482   7.902  0.2072  0.0558 -0.2587
 3777W        W 7841   0.967   1.640   8.844  0.0122  0.2146  0.0682
 3778W        W 7842   7.532   6.488   3.031  0.0225 -0.3182  0.0155
 3779W        W 7843   4.264   2.040   3.234 -0.1271  0.1017  0.0228
 3780W        W 7844   0.492   0.161   9.295 -0.2275  0.0068  0.2258
 3781W        W 7845   1.019   9.489  10.489 -0.0874 -0.2884 -0.1907
 3782W        W 7846   0.424   2.493   3.067 -0.0315  0.3623  0.1737
 3783W        W 7847   7.133   6.276   3.526 -0.2240 -0.0570  0.1588
 3784W        W 7848   8.919   1.055   9.846  0.1091 -0.0476  0.0762
 3785W        W 7849   7.852   8.610   2.072 -0.0811 -0.1900 -0.0236
 3786W        W 7850   7.816   2.390   9.635  0.1844  0.2901  0.0136
 3787W        W 7851   7.163  10.399   8.953 -0.1357 -0.2042  0.0596
 3788W        W 7852   1.148   2.701  10.478 -0.0717 -0.1029  0.1846
 3789W        W 7853   9.554   6.128   1.185  0.0490 -0.2270  0.2255
 3790W        W 7854   0.445   3.918   9.547  0.1529  0.0307 -0.4704
 3791W        W 7855  10.338   1.027  11.254  0.0178 -0.2169 -0.2881
 3792W        W 7856   9.038   4.065   7.441  0.0822 -0.0161  0.2195
 3793W        W 7857   1.319   9.577   8.229 -0.1523 -0.0127 -0.0405
 3794W        W 7858   6.880   7.946   9.547 -0.0897  0.1234  0.0749
 3795W        W 7859  10.369   5.466   3.539  0.0426 -0.3655 -0.1091
 3796W        W 7860   2.994   2.066   9.168 -0.0556  0.0783  0.2931
 3797W        W 7861   1.434   4.690   2.590  0.0232 -0.4003  0.1863
 3798W        W 7862   8.363   1.730   0.154  0.2251  0.0763 -0.1037
 3799W        W 7863   4.351   4.112   3.752 -0.0309 -0.2623  0.2511
 3800W        W 7864   9.565   1.405   3.186  0.1895 -0.2029  0.3327
 3801W        W 7865   9.860  10.569   2.124  0.2451  0.3915  0.1473
 3802W        W 7866  10.250   7.506   9.143  0.1428 -0.1990 -0.2149
 3803W        W 7867   8.835   9.331   1.677 -0.1536 -0.1198 -0.2583
 3804W        W 7868   2.909   3.591   2.550  0.1978  0.2538 -0.0200
 3805W        W 7869   7.750   6.541  11.026  0.1148  0.0678  0.4648
 3806W        W 7870   7.892   0.264   9.377 -0.2210  0.0202  0.1952
 3807W        W 7871   4.683   8.874   2.545 -0.2920 -0.0601 -0.4598
 3808W        W 7872   2.434   1.761  10.460 -0.1738 -0.1695  0.0869
 3809W        W 7873   9.390   2.575  10.792 -0.0178  0.0093  0.0936
 3810W        W 7874   4.221   3.190   8.399 -0.0539 -0.1499 -0.1312
 3811W        W 7875   2.488   3.965   0.865 -0.1257  0.0789 -0.0366
 3812W        W 7876   5.685   4.611   0.196 -0.3245 -0.0460 -0.1462
 3813W        W 7877   6.921   1.504   3.445 -0.1846 -0.2300  0.0688
 3814W        W 7878   8.767   0.659   0.962 -0.0228  0.0797  0.0360
 3815W        W 7879   3.153  10.374   8.066 -0.0170  0.2051  0.1343
 3816W        W 7880   2.859   8.268  10.249  0.1030 -0.0159 -0.2594
 3817W        W 7881   8.409   7.438   1.700  0.0302 -0.1870  0.2716
 3818W        W 7882   9.631   9.622   9.034  0.0130 -0.2090 -0.0558
 3819W        W 7883   0.317   7.073   3.109 -0.1236 -0.1047  0.1317
 3820W        W 7884   7.117   2.612  10.482 -0.0904  0.0428  0.1228
 3821W        W 7885   8.345   6.151   8.825  0.0965 -0.0564 -0.0755
 3822W        W 7886   1.714   7.703   0.065 -0.0526 -0.3848  0.1939
 3823W        W 7887   9.297   0.390  11.084  0.3550  0.0667  0.2201
 3824W        W 7888   1.220   3.681   1.966  0.0665 -0.0665  0.0342
 3825W        W 7889   8.234   2.263   0.205 -0.3145 -0.1747  0.1106
 3826W        W 7890   5.858   0.038   8.708  0.4489 -0.4147 -0.1427
 3827W        W 7891   5.434   0.167   2.412  0.4949 -0.1492  0.0043
 3828W        W 7892   2.858  10.479   0.996 -0.1042 -0.2084 -0.2733
 3829W        W 7893   9.227  10.193   3.068  0.0666 -0.1366  0.3959
 3830W        W 7894   0.250   0.793   8.478  0.1623 -0.1958 -0.0035
 3831W        W 7895   1.766   7.756   9.769 -0.0961 -0.2942  0.1009
 3832W        W 7896   5.986   5.222   8.949 -0.1507 -0.0688  0.0008
 3833W        W 7897   2.680   3.801   3.320  0.0996 -0.4210  0.0778
 3834W        W 7898   8.778   1.173   8.127 -0.1944 -0.0238  0.0370
 3835W        W 7899   6.569   7.127   2.224 -0.1401 -0.4228  0.0073
 3836W        W 7900   7.642   1.621   9.058  0.0494 -0.2874 -0.2419
 3837W        W 7901   1.783   0.194   8.383  0.1197 -0.1470  0.1456
 3838W        W 7902   1.363   7.780   0.698  0.1305  0.0967  0.3156
 3839W        W 7903   3.607   7.603   1.634  0.0607 -0.1466  0.2732
 3840W        W 7904   3.597   0.325   9.947 -0.4791 -0.0788  0.1971
 3841W        W 7905   7.920   7.555   1.773  0.0280  0.3633 -0.0694
 3842W        W 7906   4.668   4.772  10.336  0.1796 -0.1459 -0.1642
 3843W        W 7907   6.148   5.984   2.567  0.2059 -0.4262 -0.1279
 3844W        W 7908   5.272   9.683   8.817 -0.0715  0.0836 -0.1913
 3845W        W 7909   5.641   7.169   8.682  0.1204 -0.0300  0.0115
 3846W        W 7910   2.059   9.212   9.172  0.0108  0.1061  0.1596
 3847W        W 7911   4.606   8.800   1.714  0.0656  0.0093  0.0393
 3848W        W 7912   3.009   1.063   7.663 -0.4092  0.2524 -0.0987
 3849W        W 7913   0.168   7.458   8.421 -0.1552  0.1254  0.3825
 3850W        W 7914   4.706   1.887   9.293  0.0174 -0.3459  0.0499
 3851W        W 7915   4.007   8.546   8.698  0.0375 -0.0654  0.0079
 3852W        W 7916   4.086   3.997   9.394  0.2282 -0.1963 -0.0258
 3853W        W 7917   3.554   3.593   2.621 -0.1900 -0.1132 -0.1738
 3854W        W 7918   5.887   9.783   2.933 -0.0627 -0.0170  0.0684
 3855W        W 7919   2.650   4.205  10.400  0.2072 -0.0214 -0.1187
 3856W        W 7920   9.913   7.736   3.400 -0.0340  0.4901 -0.2426
 3857W        W 7921   5.725   1.875   8.480  0.0271 -0.0526 -0.2631
 3858W        W 7922   4.893   7.781   2.482  0.2158 -0.0063 -0.0837
 3859W        W 7923   4.394   7.771   2.308 -0.1196  0.1586 -0.1726
 3860W        W 7924   9.392   2.986   0.891 -0.1056 -0.3155  0.0880
 3861W        W 7925   8.965   7.600   0.522 -0.3131 -0.3015 -0.2004
 3862W        W 7926   3.272   1.381   0.773  0.0461 -0.2541 -0.4878
 3863W        W 7927   3.375   6.002   9.837 -0.0715 -0.1776  0.0784
 3864W        W 7928   6.285   2.959   8.038  0.1368  0.3110  0.2998
 3865W        W 7929   3.162   0.120   9.662  0.2442 -0.2160 -0.0843
 3866W        W 7930   9.567   3.103   2.245 -0.0254 -0.2423 -0.1342
 3867W        W 7931   8.214   8.819   0.134 -0.0662 -0.2017  0.1497
 3868W        W 7932   5.580   3.557   7.781  0.0346  0.0457 -0.0063
 3869W        W 7933   8.125   7.424   4.004  0.1485 -0.1650  0.2190
 3870W        W 7934   2.850   1.402   9.757  0.1352  0.1836  0.0725
 3871W        W 7935   3.725   5.697   2.009  0.0060 -0.0168  0.1508
 3872W        W 7936   2.014   9.096   9.838 -0.1012 -0.1472 -0.0211
 3873W        W 7937   6.819   3.823   3.375  0.1622  0.0344 -0.0077
 3874W        W 7938   5.299   2.699   0.978  0.0223 -0.3136 -0.0825
 3875W        W 7939   6.281   7.815   8.123 -0.1780 -0.1171  0.0404
 3876W        W 7940   8.874   3.776   3.035 -0.1329 -0.3672  0.2266
 3877W        W 7941  10.605   4.970   0.934 -0.1907  0.0203  0.1775
 3878W        W 7942   4.018   2.104   0.555 -0.0097  0.1211  0.0430
 3879W        W 7943   9.716   7.621  11.094 -0.1677 -0.2092 -0.1086
 3880W        W 7944   0.308   2.201   2.717  0.0749  0.2788  0.0634
 3881W        W 7945   5.447   7.708   2.584 -0.2186 -0.3134  0.1397
 3882W        W 7946   6.777   5.422   1.945  0.0063  0.0056  0.1622
 3883W        W 7947   5.994   1.531   1.781  0.0539  0.1312 -0.0285
 3884W        W 7948   0.831   7.876  11.193  0.0643  0.0186  0.0706
 3885W        W 7949   6.603   0.305  11.500 -0.1225  0.0109  0.2499
 3886W        W 7950  10.325   4.652   8.897 -0.0882  0.0400  0.2126
 3887W        W 7951   7.568   0.099   0.150 -0.0564 -0.0110 -0.0029
 3888W        W 7952   8.836   6.286   0.581 -0.1240 -0.0160 -0.2237
 3889W        W 7953   5.124   2.119   9.106 -0.2709  0.1633 -0.0105
 3890W        W 7954   3.890   4.475   9.569 -0.1761  0.4095  0.1767
 3891W        W 7955   7.216   5.658  10.105  0.2027 -0.0676 -0.0563
 3892W        W 7956  10.036   2.585   2.597  0.0537  0.0176 -0.0304
 3893W        W 7957   0.918   6.709  11.521  0.3359 -0.0646 -0.0889
 3894W        W 7958   3.140   4.275  10.243 -0.1650 -0.1823  0.0875
 3895W        W 7959   2.722   1.663  11.210  0.1797 -0.1424  0.2496
 3896W        W 7960   3.543   5.671   9.460  0.2686  0.2841  0.0764
 3897W        W 7961   6.133   7.402  11.550 -0.2730  0.2729 -0.0175
 3898W        W 7962   1.013   8.909   8.738 -0.2650  0.2693 -0.1344
 3899W        W 7963   5.722   4.040  10.390 -0.2145  0.1644 -0.0051
 3900W        W 7964   7.280   7.798  10.675 -0.0320 -0.1588  0.1804
 3901W        W 7965   2.150   4.710   9.174  0.0623  0.1050 -0.3345
 3902W        W 7966   1.421  10.020  11.558 -0.3592 -0.0300  0.0757
 3903W        W 7967   8.143   6.797   2.024 -0.1353  0.1562  0.2307
 3904W        W 7968   0.558  10.076   2.234 -0.1686  0.1791 -0.3730
 3905W        W 7969   2.940   9.607   0.404  0.1712  0.1529  0.1088
 3906W        W 7970  10.162   4.272   2.343 -0.2475 -0.0142 -0.0093
 3907W        W 7971   2.256   5.184   9.853  0.0273  0.1948 -0.4038
 3908W        W 7972   3.697   3.663   7.813 -0.0401  0.0606  0.2924
 3909W        W 7973  10.022   6.624  11.030 -0.0280  0.0761  0.0123
 3910W        W 7974   1.780  10.073   1.991 -0.1793  0.2188  0.3599
 3911W        W 7975   8.593   3.941   1.811  0.1553  0.1261 -0.0396
 3912W        W 7976   5.663   8.668   9.499 -0.0638  0.1260  0.2752
 3913W        W 7977   5.655   8.366   8.075  0.2940 -0.0587  0.0957
 3914W        W 7978   5.890   4.846   2.257 -0.0524  0.2136  0.0005
 3915W        W 7979   4.787   8.688   8.013  0.1713 -0.1920 -0.0655
 3916W        W 7980   1.232   6.187   3.970  0.1798 -0.0559  0.4122
 3917W        W 7981   5.893   9.247   2.164  0.4412 -0.1628 -0.0602
 3918W        W 7982  10.412   1.620   1.739 -0.3904  0.0112  0.0954
 3919W        W 7983   8.356  10.156   2.157  0.1017  0.0889 -0.1242
 3920W        W 7984   8.747   7.678   9.531  0.0620 -0.0248 -0.1050
 3921W        W 7985   1.393   5.642   3.994 -0.0619 -0.0132 -0.2990
 3922W        W 7986   8.518   7.619  11.525 -0.1468  0.0169 -0.1683
 3923W        W 7987   1.056  10.141  11.286  0.0340  0.2103 -0.1165
 3924W        W 7988   6.355   6.923   3.450  0.2056 -0.1081 -0.0976
 3925W        W 7989   3.911   4.204  10.004  0.0845  0.1989 -0.1038
 3926W        W 7990   2.351   1.926   8.648 -0.0064 -0.3068 -0.2624
 3927W        W 7991   7.629   2.331   9.171  0.2024  0.1376 -0.0339
 3928W        W 7992   8.100   4.093  10.211  0.0950  0.3078  0.0485
 3929W        W 7993   0.046   2.914  11.105  0.2203 -0.2077  0.0169
 3930W        W 7994   6.199   3.698   1.246 -0.3307 -0.0687 -0.0398
 3931W        W 7995   4.076   0.790   9.270 -0.0325  0.1605  0.1991
 3932W        W 7996  10.412   8.216  11.191 -0.1838 -0.1577 -0.0795
 3933W        W 7997   5.516   3.461  11.447  0.0413 -0.0028 -0.1804
 3934W        W 7998   0.489   0.583   3.317  0.3568  0.3792 -0.0150
 3935W        W 7999   6.275   9.664   9.712 -0.2315  0.1301 -0.0619
 3936W        W 8000  10.419   0.298   2.787 -0.0578  0.2485 -0.2683
 3937W        W 8001   2.285  10.624  10.307 -0.2832 -0.1115 -0.0477
 3938W        W 8002   6.279   9.538  11.207 -0.2982 -0.2094  0.1567
 3939W        W 8003   8.955   1.727   9.074 -0.1267 -0.1220  0.4646
 3940W        W 8004   2.497   7.685   8.412 -0.2114 -0.0090  0.0818
 3941W        W 8005   7.723   0.621   9.798  0.0112 -0.0583  0.3061
 3942W        W 8006   4.346   8.287   9.155  0.0446 -0.4584 -0.2901
 3943W        W 8007   3.969   9.471   9.776 -0.1610 -0.2336  0.0486
 3944W        W 8008   1.551   0.187   3.029 -0.0713  0.0817  0.1164
 3945W        W 8009   7.468   1.154   0.761 -0.0873 -0.1041  0.1569
 3946W        W 8010  10.639   9.250   0.648 -0.1578 -0.0077 -0.1146
 3947W        W 8011   7.672   0.911   9.329  0.3495  0.0201 -0.1085
 3948W        W 8012   5.786   4.452  11.320 -0.1185  0.0195 -0.2318
 3949W        W 8013   7.861  10.575   2.596 -0.1275  0.0263 -0.0199
 3950W        W 8014   5.151   5.075   0.924 -0.0443  0.1941  0.2305
 3951W        W 8015   8.174   7.728  10.548  0.0688  0.1769 -0.4021
 3952W        W 8016   9.021   9.091   8.685 -0.1376  0.1241 -0.0085
 3953W        W 8017   5.918   1.994  10.766 -0.1638  0.0486  0.0856
 3954W        W 8018   7.186   8.755   0.577 -0.1862 -0.0628 -0.0965
 3955W        W 8019   5.940   2.025   0.394 -0.2019  0.0128 -0.3049
 3956W        W 8020   5.895   6.270   1.600 -0.1038 -0.2126  0.2171
 3957W        W 8021   2.836   7.382   1.013  0.1096 -0.2119  0.1364
 3958W        W 8022   5.259   8.555   1.182 -0.5449  0.0358 -0.2353
 3959W        W 8023   3.688   0.112   0.492 -0.1419  0.0625 -0.0592
 3960W        W 8024   3.150   8.045  11.460  0.1849  0.3015 -0.0592
 3961W        W 8025   5.577   4.851   1.712  0.0366 -0.2800 -0.1134
 3962W        W 8026  10.516   6.650   0.699  0.0553 -0.0864  0.0656
 3963W        W 8027   0.489   3.353   0.946 -0.1078  0.0426  0.2027
 3964W        W 8028   5.115   1.393   1.390 -0.0121 -0.3130 -0.1568
 3965W        W 8029   1.990   5.558  10.863  0.0413 -0.0536 -0.0515
 3966W        W 8030   2.119   4.562   8.653 -0.1649 -0.3331  0.0303
 3967W        W 8031   5.555   8.388   8.607 -0.3205 -0.0572  0.0434
 3968W        W 8032   8.597   9.835   0.888 -0.4720  0.0075  0.0341
 3969W        W 8033   6.304   0.975   3.941  0.2158 -0.0571 -0.3449
 3970W        W 8034   8.502   6.686   9.405  0.1126  0.1613  0.0677
 3971W        W 8035   2.929   1.063   8.188 -0.1622 -0.0697 -0.3429
 3972W        W 8036   3.065   6.098   1.527  0.1198 -0.2444  0.0499
 3973W        W 8037   1.621   2.346   2.381  0.0446 -0.0687  0.1692
 3974W        W 8038   2.306   2.593   0.704  0.2744 -0.0708  0.4363
 3975W        W 8039  10.212   3.677  10.408  0.0975 -0.0188  0.2263
 3976W        W 8040   8.596   4.162   8.258  0.3222 -0.3259  0.0839
 3977W        W 8041   4.909   6.073   9.801 -0.3385  0.1338  0.1922
 3978W        W 8042   4.851   3.878   0.300  0.0653  0.1438  0.0937
 3979W        W 8043   2.069   2.301  11.568 -0.2957  0.0614  0.3337
 3980W        W 8044   1.337   7.681  10.111 -0.0902 -0.0517 -0.3505
 3981W        W 8045   0.403   5.630  10.401  0.1560 -0.0440 -0.1191
 3982W        W 8046   0.655   1.010   1.491  0.0891  0.0919 -0.0036
 3983W        W 8047  10.501   1.701   0.673 -0.0227 -0.1816  0.1577
 3984W        W 8048   0.781   7.989   1.659  0.0102  0.1487 -0.2216
 3985W        W 8049   2.789   9.314  11.596 -0.0347  0.1603 -0.2967
 3986W        W 8050   4.214   8.414   0.761  0.0311  0.0030 -0.0752
 3987W        W 8051   4.896   7.778   3.996 -0.1484 -0.1269 -0.3708
 3988W        W 8052   7.015   7.735   2.557 -0.3488  0.0028 -0.0586
 3989W        W 8053   6.903   5.417   3.861 -0.1347  0.0830 -0.2258
 3990W        W 8054   5.005   4.286   8.795  0.2026 -0.2594  0.2781
 3991W        W 8055   4.888   2.692   8.321 -0.0070  0.2302  0.2028
 3992W        W 8056   4.514   7.880  10.063  0.1081  0.1088  0.0103
 3993W        W 8057   7.597   4.347  11.050 -0.1385 -0.1189 -0.1642
 3994W        W 8058   3.948   3.865   3.067  0.0323  0.1574  0.1645
 3995W        W 8059   8.646   4.465   0.343 -0.3016 -0.0717  0.1375
 3996W        W 8060   2.300   6.548   0.663 -0.1397 -0.4323  0.1986
 3997W        W 8061   2.505   0.611   2.341 -0.0252  0.1830 -0.0948
 3998W        W 8062   6.075   4.357   7.759 -0.0449  0.1598  0.2218
 3999W        W 8063   6.452   7.460  10.058  0.0741  0.0571 -0.2348
 4000W        W 8064   2.031   9.993   9.059  0.0305 -0.1397 -0.2621
 4001W        W 8065   6.965   4.871   2.007 -0.1954  0.1539 -0.0076
 4002W        W 8066   1.335   4.605   8.523  0.1046  0.0675 -0.1306
 4003W        W 8067   3.666   6.538  10.921  0.2037 -0.0090  0.0938
 4004W        W 8068   6.032   0.998   9.861  0.1041  0.2631  0.0238
 4005W        W 8069   3.951   9.512   0.208  0.0907 -0.2501 -0.0163
 4006W        W 8070   9.451   0.706  10.663  0.2162 -0.0631  0.2402
 4007W        W 8071   9.494   0.986   3.868 -0.0841  0.1492 -0.0554
 4008W        W 8072   8.898   0.782   0.207 -0.0207 -0.1803  0.0737
 4009W        W 8073   5.112   4.443   1.707 -0.2097 -0.0945 -0.1103
 4010W        W 8074   3.550   0.738   3.094 -0.2207  0.3031 -0.0612
 4011W        W 8075   8.254   0.718   9.242  0.1736  0.1948 -0.1351
 4012W        W 8076   2.610   8.160  10.686  0.1899 -0.2806  0.0334
 4013W        W 8077   7.896   0.155   9.883  0.2681 -0.4048  0.1485
 4014W        W 8078   2.286   2.778  11.577  0.0546 -0.1771 -0.1303
 4015W        W 8079   8.337   3.121  11.464  0.3045 -0.1598  0.1104
 4016W        W 8080   9.501   7.474   8.484 -0.1289 -0.1858  0.1141
 4017W        W 8081   7.368   5.394   3.626  0.0607  0.0512  0.0316
 4018W        W 8082   2.368   2.967   2.733  0.0237  0.1165 -0.1084
 4019W        W 8083   6.962   6.017   0.797  0.2742  0.1011  0.2185
 4020W        W 8084   4.784   7.031   0.330  0.5511 -0.1626 -0.1852
 4021W        W 8085   6.622   7.295   8.613 -0.0576 -0.2154 -0.2243
 4022W        W 8086   8.373   5.699   0.854  0.1019  0.1694 -0.0983
 4023W        W 8087   1.194   9.186   1.591 -0.1981  0.2204  0.3792
 4024W        W 8088   8.847   0.163   3.112  0.1208 -0.1168 -0.0865
 4025W        W 8089   4.989   6.900   9.788  0.0781 -0.3031  0.2158
 4026W        W 8090   9.820   6.666   3.183  0.0278  0.0151  0.1368
 4027W        W 8091   7.455   4.713   9.033  0.0095 -0.2147 -0.4612
 4028W        W 8092   1.404   8.743   0.757  0.2534  0.0043 -0.0546
 4029W        W 8093   3.272   9.185   8.903  0.0039 -0.2162 -0.0842
 4030W        W 8094   9.720   8.366  10.097  0.0333  0.1439 -0.2200
 4031W        W 8095   5.446   6.904   3.890  0.2188 -0.0010  0.0765
 4032W        W 8096   3.598   8.041   2.706  0.1066 -0.0600  0.0217
 4033W        W 8097   5.190   1.074   2.573  0.4042  0.0942  0.1266
 4034W        W 8098   4.221   2.811  10.642 -0.1093  0.1204 -0.0644
 4035W        W 8099   7.608   2.976   0.358  0.2701  0.1052 -0.2264
 4036W        W 8100   6.188   2.207   9.935  0.2550  0.1902 -0.2981
 4037W        W 8101   8.834   3.564   0.565 -0.0686  0.2174 -0.0387
 4038W        W 8102   3.296   8.479   2.817 -0.0100 -0.0063  0.1931
 4039W        W 8103   9.336   7.963   0.746 -0.1028 -0.2328 -0.0588
 4040W        W 8104   2.967   8.858   1.308  0.1481  0.0675 -0.3901
 4041W        W 8105   9.804   2.113   4.637 -0.0576  0.1877 -0.4305
 4042W        W 8106   0.797   1.643  11.000 -0.1371  0.0507  0.3057
 4043W        W 8107   9.507   0.047  10.096 -0.0029 -0.1713  0.1226
 4044W        W 8108   8.454   3.799  10.047 -0.0446 -0.2027 -0.3074
 4045W        W 8109   0.538   5.787  11.552 -0.1357  0.0189  0.1632
 4046W        W 8110   2.059   7.877   8.306 -0.0841 -0.0783 -0.2956
 4047W        W 8111   5.040  10.309   1.657 -0.0702 -0.0227  0.1501
 4048W        W 8112   8.621   1.004   3.351  0.1601  0.2350 -0.0013
 4049W        W 8113   3.469  10.460   0.124  0.0897 -0.0639 -0.0673
 4050W        W 8114   5.729   3.275   0.262 -0.1515  0.0684 -0.0336
 4051W        W 8115   4.549   1.019   2.292  0.1367 -0.1940 -0.0810
 4052W        W 8116   5.720   8.595  10.108  0.1522 -0.2348  0.2704
 4053W        W 8117   4.654   7.192  10.874 -0.2560  0.1989 -0.2616
 4054W        W 8118   3.454   7.304   9.785 -0.2363 -0.0539  0.0358
 4055W        W 8119   1.167   5.911   8.650 -0.0728 -0.0948 -0.2031
 4056W        W 8120   0.123   1.795   8.971  0.2571 -0.0094  0.1138
 4057W        W 8121   2.870   3.517   0.984  0.1798 -0.0228  0.0656
 4058W        W 8122   3.002   0.309   2.378  0.0761 -0.0015 -0.1559
 4059W        W 8123   5.658   2.240   3.381 -0.1980 -0.2296 -0.0630
 4060W        W 8124   2.125   8.883   3.202  0.1045  0.0005 -0.2081
 4061W        W 8125   7.756   5.208   9.152  0.0822  0.3775  0.0282
 4062W        W 8126   5.136   9.411  11.584  0.1018 -0.0001 -0.1669
 4063W        W 8127   1.648   6.666   8.648 -0.0245 -0.0092  0.2000
 4064W        W 8128   1.717   0.892  10.716  0.0833  0.2488  0.0582
 4065W        W 8129   2.444   6.203  11.419 -0.2576 -0.0411 -0.2757
 4066W        W 8130   4.142   4.722  10.395  0.0653 -0.0050  0.3175
 4067W        W 8131   2.170   0.127   2.640  0.0026  0.3223 -0.2336
 4068W        W 8132   4.337  10.450  10.759 -0.0828  0.1281  0.1999
 4069W        W 8133   5.819   8.834   3.108  0.0565  0.0602  0.1179
 4070W        W 8134   4.402   4.940   0.442 -0.0473 -0.3579  0.2527
 4071W        W 8135   4.474   3.246   9.821 -0.0279 -0.1529 -0.2011
 4072W        W 8136   7.348   0.861  11.514  0.0495 -0.0304 -0.0242
 4073W        W 8137   5.698   5.741   0.092  0.0096 -0.3991  0.1265
 4074W        W 8138   9.468   4.649   8.693 -0.2255  0.0624  0.0548
 4075W        W 8139   0.685   5.859  10.028  0.0581  0.0083 -0.2781
 4076W        W 8140   7.062   4.392   8.966 -0.3077  0.1137 -0.0910
 4077W        W 8141   8.490   4.374   4.180 -0.2670 -0.0642 -0.1341
 4078W        W 8142   3.233   1.728   3.401 -0.2092  0.1056  0.0027
 4079W        W 8143   5.709   2.757   0.177 -0.0938 -0.0678  0.2644
 4080W        W 8144   4.507   9.896   9.648  0.3493  0.1209  0.1602
 4081W        W 8145   6.778   8.353   0.582  0.0639 -0.2128 -0.0527
 4082W        W 8146   0.899   4.019  10.983 -0.2737  0.0896 -0.2311
 4083W        W 8147   8.917   3.078   8.634 -0.0368  0.1124 -0.1283
 4084W        W 8148   1.074   8.427   8.953  0.0340 -0.0902  0.1717
 4085W        W 8149   1.764   1.205  10.316  0.2090  0.2219  0.0528
 4086W        W 8150   5.154   8.242   2.247  0.2852 -0.0610  0.0492
 4087W        W 8151   7.054   0.390  10.263  0.1053  0.1431 -0.0548
 4088W        W 8152   4.933   7.561   0.040 -0.2209 -0.0371  0.0853
 4089W        W 8153   9.149   0.906   3.500 -0.1552 -0.2675  0.1732
 4090W        W 8154   5.895   2.265   3.797 -0.3546  0.0229 -0.0745
 4091W        W 8155   2.924   2.772   8.640 -0.0376 -0.1124 -0.0811
 4092W        W 8156   0.978   4.090   3.806 -0.2235 -0.0128 -0.1103
 4093W        W 8157   4.142   4.501   1.710  0.0600  0.1067 -0.1932
 4094W        W 8158   3.326  10.311   3.065 -0.2841  0.3541 -0.2190
 4095W        W 8159  10.227   8.130   0.328 -0.0791 -0.1132 -0.0041
 4096W        W 8160   8.281   6.965   2.903  0.1399 -0.1346 -0.0381
 4097W        W 8161   2.142   9.182  10.753 -0.0201 -0.2576  0.0835
 4098W        W 8162   1.788   0.442   3.426  0.0020 -0.0298  0.0029
 4099W        W 8163   1.350   6.686   2.102  0.1358 -0.2183 -0.0588
 4100W        W 8164   2.849   5.063   3.608 -0.1139 -0.3013  0.2511
 4101W        W 8165   0.236   9.628   0.560 -0.0082  0.0804 -0.1850
 4102W        W 8166   8.426   6.505   2.878 -0.2073 -0.1066  0.0076
 4103W        W 8167   6.082   2.709   0.564  0.2149 -0.0587 -0.0256
 4104W        W 8168   3.480   3.717   8.286 -0.1334  0.1485  0.0496
 4105W        W 8169   1.058   2.213   0.079  0.0321 -0.1446  0.2835
 4106W        W 8170  10.102   4.185   9.149 -0.0563  0.2725  0.0392
 4107W        W 8171   9.173   0.043   8.585  0.2289 -0.3414  0.2170
 4108W        W 8172  10.525   3.686   1.144 -0.1417  0.0497 -0.3207
 4109W        W 8173   0.121   7.410   9.919  0.1132  0.0255 -0.1729
 4110W        W 8174   9.713   3.396   0.954  0.0289 -0.0702 -0.0991
 4111W        W 8175   9.030   0.642  10.430  0.2163  0.0480 -0.1168
 4112W        W 8176   0.479   1.707   0.458 -0.2275 -0.1553  0.0738
 4113W        W 8177   7.215   1.706   8.059  0.1966  0.0158  0.1234
 4114W        W 8178   5.260   2.485   2.427  0.0863  0.2665  0.0959
 4115W        W 8179   8.679   0.712   2.392 -0.2416  0.1073 -0.0060
 4116W        W 8180   3.499   3.866   0.207 -0.0660  0.2616  0.0209
 4117W        W 8181   7.438   3.877  10.760  0.1970  0.1481 -0.0110
 4118W        W 8182   6.089   1.657   0.867 -0.3497  0.1845  0.0257
 4119W        W 8183   9.357   1.364   3.626 -0.0873 -0.0067  0.1428
 4120W        W 8184  10.016   6.499   9.969 -0.1594 -0.0035 -0.0370
 4121W        W 8185   5.009   7.465   0.573  0.1361 -0.3032  0.0328
 4122W        W 8186   1.596   6.720  10.136 -0.0938  0.1593 -0.0422
 4123W        W 8187   3.767   6.219   0.362 -0.0185 -0.1836 -0.1744
 4124W        W 8188   3.129   5.614   0.064  0.1565  0.0280 -0.1905
 4125W        W 8189   4.780   2.503   7.684 -0.0801  0.0635 -0.2748
 4126W        W 8190   3.625   5.494   3.469  0.0779  0.2797 -0.0730
 4127W        W 8191   9.366   7.215   8.884  0.0478  0.2768  0.1354
 4128W        W 8192   7.375   3.988   1.341  0.0580 -0.2497  0.1342
 4129W        W 8193   0.023   7.696   8.018  0.0779  0.1122 -0.2092
 4130W        W 8194   0.181   5.586   8.552  0.1215  0.5657  0.1750
 4131W        W 8195   9.042   2.491  10.326 -0.0707 -0.0547  0.1941
 4132W        W 8196   8.676   2.901  10.164 -0.0311 -0.1354  0.0710
 4133W        W 8197   9.894   8.780   2.474 -0.1948 -0.1614  0.1598
 4134W        W 8198   1.929   6.907  11.576 -0.0037 -0.0500  0.0245
 4135W        W 8199   8.740   6.659   1.159  0.2192  0.2856 -0.3735
 4136W        W 8200   1.697   2.739  10.331  0.0502  0.3340  0.0509
 4137W        W 8201   1.977   4.868  11.503 -0.3353 -0.1721  0.2956
 4138W        W 8202   7.743   2.822   9.273 -0.0721 -0.2701  0.1304
 4139W        W 8203   4.119   5.517  10.198  0.0557 -0.1405  0.1495
 4140W        W 8204   5.848   6.141   0.481  0.1658  0.1322  0.0758
 4141W        W 8205   7.555   6.911  11.338  0.0190  0.0618  0.5551
 4142W        W 8206   3.064   0.393  10.553  0.0419 -0.0861  0.0623
 4143W        W 8207   5.581   9.021   1.152  0.1183 -0.0390 -0.2721
 4144W        W 8208   6.890   5.860   8.984  0.0554 -0.0054 -0.0251
 4145W        W 8209   5.334   7.959   8.364 -0.3607  0.1196 -0.2774
 4146W        W 8210   9.888   4.098   9.619  0.0683  0.1092  0.0128
 4147W        W 8211   2.568   8.927   2.540  0.0485 -0.1155  0.2025
 4148W        W 8212   4.655   8.676   0.634  0.0531  0.1180  0.2959
 4149W        W 8213   3.851   1.352  11.498  0.2003  0.0016 -0.1804
 4150W        W 8214   0.242   6.593   3.108  0.1031  0.2482 -0.0984
 4151W        W 8215   0.776   1.606   8.301  0.1488  0.2545 -0.1256
 4152W        W 8216   7.330   7.001   3.051 -0.3424 -0.2061  0.1672
 4153W        W 8217   4.665   9.571   9.248  0.3607  0.0802 -0.1692
 4154W        W 8218   2.554   5.413   4.632 -0.1216  0.0131  0.1257
 4155W        W 8219   1.839   8.052   8.737  0.1233 -0.1101 -0.2829
 4156W        W 8220   2.278   5.231   9.210 -0.1403  0.0825 -0.2772
 4157W        W 8221   8.544   1.342   1.460 -0.2264  0.2805  0.0174
 4158W        W 8222   3.024   6.600   0.065  0.2408 -0.0946 -0.2400
 4159W        W 8223   0.147   2.412   1.188  0.3496  0.1359 -0.0619
 4160W        W 8224   1.850   4.656   8.204  0.1222 -0.3614 -0.1535
 4161W        W 8225  10.017   8.779   3.768  0.1104  0.1175 -0.0420
 4162W        W 8226   7.942   6.009   4.345 -0.0820  0.0285 -0.2287
 4163W        W 8227   0.193   4.762   4.168 -0.1402 -0.0979  0.2299
 4164W        W 8228  10.084   3.210   8.091  0.0946  0.3250  0.0593
 4165W        W 8229   7.879   0.190  10.788  0.1718  0.0364 -0.1096
 4166W        W 8230   6.400   1.739   2.733 -0.2045  0.1266  0.1191
 4167W        W 8231   2.892   0.886   1.406 -0.0263 -0.0710 -0.3537
 4168W        W 8232   9.716   6.977   0.647  0.2437 -0.1184 -0.1776
 4169W        W 8233  10.344   7.261   2.480  0.1126  0.2655 -0.0520
 4170W        W 8234   8.625   7.599  10.371 -0.2485 -0.2556  0.2692
 4171W        W 8235   4.439   3.091   0.184  0.1834 -0.2115 -0.1485
 4172W        W 8236   1.876   7.555   3.083 -0.4155 -0.0208  0.0908
 4173W        W 8237   9.514   2.172   3.860  0.0354  0.0352 -0.0574
 4174W        W 8238   7.505   4.589   1.637  0.0807 -0.2008  0.1307
 4175W        W 8239   2.498   4.864   0.116 -0.1104  0.0564 -0.0032
 4176W        W 8240   6.503   2.723   8.501 -0.0043  0.3612 -0.1787
 4177W        W 8241   4.726   4.068   1.863 -0.0085 -0.2247  0.1911
 4178W        W 8242   9.476   5.921   3.515  0.1399 -0.4041  0.0197
 4179W        W 8243   1.047   9.458   0.939  0.3332  0.0076 -0.0175
 4180W        W 8244   4.730   9.775   0.034 -0.1727 -0.0082  0.0705
 4181W        W 8245   0.065   4.990   2.728  0.1637 -0.2278  0.1124
 4182W        W 8246   6.909   1.392  11.179 -0.1165 -0.2687 -0.1641
 4183W        W 8247   3.536   3.064   2.628 -0.1297 -0.0559  0.0418
 4184W        W 8248   2.524   4.351   1.171  0.1622 -0.1181 -0.4239
 4185W        W 8249  10.221   3.914   3.709 -0.0035 -0.1757 -0.0392
 4186W        W 8250   4.037   5.133   2.754  0.1490 -0.0108 -0.2000
 4187W        W 8251   2.916  10.444   2.739  0.3575 -0.2020  0.1492
 4188W        W 8252  10.161   5.441  10.884 -0.0163  0.1669 -0.0847
 4189W        W 8253   6.416   1.691   2.202  0.2411  0.2517  0.0983
 4190W        W 8254   4.301   1.545   7.603  0.2482  0.1618  0.0292
 4191W        W 8255   5.991   3.495   7.436 -0.0677  0.4423 -0.2616
 4192W        W 8256   6.243   7.851  10.299  0.0698 -0.0114 -0.0886
 4193W        W 8257   9.990   2.798  10.318 -0.4491 -0.2554  0.1064
 4194W        W 8258   5.289   4.270   9.570 -0.1904  0.0246  0.2354
 4195W        W 8259   0.094   2.153   3.212 -0.2426 -0.0638  0.2085
 4196W        W 8260   7.558   3.762   0.047 -0.1767  0.3743  0.3871
 4197W        W 8261   7.326   8.229   0.509  0.0647  0.0919  0.0578
 4198W        W 8262  10.060   8.343   0.830  0.0872  0.0501  0.0058
 4199W        W 8263   1.060   4.924   9.969 -0.1235  0.1045 -0.1720
 4200W        W 8264   6.259   8.079  10.737 -0.1478 -0.3561 -0.1301
 4201W        W 8265   1.645   0.993   0.320  0.0937 -0.1234 -0.3465
 4202W        W 8266   0.471   7.106   1.430  0.3112 -0.0205  0.0572
 4203W        W 8267   2.078   8.967   0.948  0.0754  0.0561  0.0674
 4204W        W 8268   3.950   5.384   7.743 -0.4664  0.0539  0.1050
 4205W        W 8269   2.033   3.011   0.325 -0.2567  0.0523  0.1033
 4206W        W 8270   9.113   5.438   9.624 -0.1615 -0.1822  0.0512
 4207W        W 8271  10.015   1.736   8.429  0.1034 -0.0902 -0.2203
 4208W        W 8272   1.039   5.546   3.383 -0.3072 -0.1244  0.0833
 4209W        W 8273   1.809   0.224   0.281 -0.0249 -0.0116 -0.1150
 4210W        W 8274   0.704   9.191   1.890 -0.1351 -0.0769  0.4343
 4211W        W 8275   7.382   0.017   1.676  0.0968  0.2073 -0.1030
 4212W        W 8276   7.785   8.680   8.974  0.0091  0.1820  0.1698
 4213W        W 8277   0.293  10.454   1.240 -0.1169 -0.0686  0.2867
 4214W        W 8278   1.390   0.722   7.700  0.1966  0.1121 -0.5237
 4215W        W 8279   3.851   0.993   8.364 -0.0457  0.2482  0.1785
 4216W        W 8280   3.850   6.188  11.407  0.2851 -0.2188 -0.0263
 4217W        W 8281   2.849   3.291  10.673 -0.0675  0.2329 -0.1868
 4218W        W 8282   2.159   6.665   4.070  0.1080  0.0854 -0.0676
 4219W        W 8283   3.338  10.256   1.071  0.0993 -0.0376 -0.0115
 4220W        W 8284   6.450   0.991   2.947 -0.0866 -0.1596  0.2807
 4221W        W 8285   1.572   7.389   1.619 -0.1475  0.0032  0.0131
 4222W        W 8286   9.446   0.023   9.605 -0.2171 -0.0069 -0.1708
 4223W        W 8287   6.904   2.662   0.551 -0.1363  0.1130  0.1194
 4224W        W 8288   5.785   0.206  10.130  0.1650  0.1551 -0.3019
 4225W        W 8289   1.685   9.032   1.386  0.1283  0.1653 -0.2386
 4226W        W 8290   9.607   4.658   0.980 -0.0378 -0.0131 -0.1072
 4227W        W 8291  10.247   2.074   3.024 -0.1825 -0.1212  0.3528
 4228W        W 8292   1.033  10.480   8.316  0.1901 -0.1443 -0.0144
 4229W        W 8293   3.574   0.368  10.780  0.1762  0.1084 -0.2674
 4230W        W 8294   8.275   3.910  11.178  0.4004  0.0977 -0.3093
 4231W        W 8295   1.330   2.469   9.931  0.0574  0.0574  0.1153
 4232W        W 8296   9.292   5.982  10.686 -0.1001 -0.0401  0.3221
 4233W        W 8297   7.850   8.784   3.059  0.2611  0.3622  0.1393
 4234W        W 8298   7.826   9.462   1.802 -0.1824 -0.0918  0.1587
 4235W        W 8299   1.849  10.169  10.574 -0.2400 -0.5646 -0.2336
 4236W        W 8300   2.133   5.968   1.738 -0.0567  0.3699 -0.1563
 4237W        W 8301   1.950   6.503  10.633 -0.0994  0.1739  0.1629
 4238W        W 8302   8.011   7.170   9.278  0.2745  0.2205 -0.1162
 4239W        W 8303   0.599   5.022   9.277  0.2794 -0.0746 -0.1740
 4240W        W 8304   4.270   9.724  11.372  0.1645  0.2979 -0.3157
 4241W        W 8305   1.279   6.875   7.951 -0.2110 -0.0671 -0.1177
 4242W        W 8306   0.036   9.975   2.198  0.3147 -0.0373 -0.0005
 4243W        W 8307   3.283   0.490   9.290 -0.2243  0.0287 -0.0090
 4244W        W 8308   2.688   6.603   0.935 -0.0779  0.1036 -0.3502
 4245W        W 8309   4.960   2.262  11.234 -0.1527 -0.0048 -0.1403
 4246W        W 8310   4.874   9.342   1.711  0.3511  0.1602  0.0328
 4247W        W 8311   9.646   8.800   0.636  0.1704  0.0607 -0.0846
 4248W        W 8312   2.661   5.021   1.633  0.1235 -0.2634  0.0934
 4249W        W 8313   6.645   7.031   1.157 -0.0759 -0.1960  0.1785
 4250W        W 8314  10.144   5.099  11.296  0.0445  0.0983  0.0722
 4251W        W 8315   1.526   2.530  10.832  0.0466  0.1513  0.1021
 4252W        W 8316   5.467   9.730   8.251 -0.0961  0.0195 -0.0698
 4253W        W 8317   0.193   7.965   0.902  0.1548 -0.0084 -0.2419
 4254W        W 8318   5.268   5.489  10.400  0.2245  0.0204  0.0503
 4255W        W 8319  10.269  10.350  11.578  0.1062 -0.1560  0.3609
 4256W        W 8320   7.940   6.074   2.334 -0.2042  0.0223 -0.1145
 4257W        W 8321   8.548   4.518   2.584 -0.1920 -0.1537 -0.0528
 4258W        W 8322   0.638   9.747   1.150  0.3247 -0.1121 -0.1026
 4259W        W 8323   9.731   7.276   9.321  0.0489 -0.2442  0.1251
 4260W        W 8324   9.446   0.512   8.338 -0.0895 -0.0559  0.1465
 4261W        W 8325   6.022   5.490   3.358  0.3997  0.1388 -0.0326
 4262W        W 8326   1.703   2.444   1.865 -0.0459  0.0279 -0.1640
 4263W        W 8327   2.262   2.763  10.851 -0.2355 -0.0022 -0.3350
 4264W        W 8328   9.061   1.144   1.112 -0.2842 -0.0413  0.1529
 4265W        W 8329   7.255   6.051   0.390 -0.1168  0.2583 -0.0459
 4266W        W 8330   1.945   1.812   0.109  0.1119  0.2135 -0.0269
 4267W        W 8331   4.416   5.184   4.070  0.0863 -0.0130 -0.2314
 4268W        W 8332   0.785   7.743   3.035 -0.2067 -0.1922  0.4452
 4269W        W 8333   6.084   4.992   9.814  0.2015 -0.2400 -0.1508
 4270W        W 8334   5.163   4.538   2.990  0.2472 -0.0619  0.2157
 4271W        W 8335   1.943   7.344   1.967 -0.0739  0.0325 -0.0238
 4272W        W 8336   7.574   2.724   1.947  0.0720  0.1261  0.0386
 4273W        W 8337   5.132   5.751   3.195  0.2708  0.0453 -0.1439
 4274W        W 8338   0.853   1.085  10.271  0.1694  0.2751 -0.0258
 4275W        W 8339   2.305   2.516   4.318 -0.3175 -0.1691  0.0014
 4276W        W 8340   0.773   4.654   0.464  0.2369  0.0345 -0.0839
 4277W        W 8341   1.430  10.640   0.533 -0.0896  0.2105  0.1505
 4278W        W 8342   4.156   7.297  10.975  0.1431 -0.2204 -0.1971
 4279W        W 8343   7.801   2.968   1.559  0.4280  0.0953  0.0776
 4280W        W 8344   3.200   7.249   8.137  0.0457 -0.0239 -0.2110
 4281W        W 8345   7.440   0.823  10.159  0.1400 -0.0813 -0.1666
 4282W        W 8346   8.207   5.170   2.186 -0.1993  0.1584 -0.2427
 4283W        W 8347   2.654   3.374   7.996 -0.3481 -0.1348  0.5501
 4284W        W 8348   9.642   6.204  10.395  0.1395  0.3323  0.3744
 4285W        W 8349   0.910   5.593  11.168  0.1599 -0.1833  0.0105
 4286W        W 8350   7.075   0.466   8.349 -0.0050  0.0259  0.1826
 4287W        W 8351   3.582   0.602   8.555  0.1560 -0.5041 -0.2873
 4288W        W 8352   9.628   0.875   8.731 -0.0091 -0.3302 -0.2441
 4289W        W 8353   5.589   2.017  11.593 -0.0500 -0.1457  0.2575
 4290W        W 8354   8.231  10.091   0.733  0.0064 -0.3371  0.1810
 4291W        W 8355   8.629   0.341   0.317 -0.1177 -0.1618 -0.2737
 4292W        W 8356   8.124   5.589   2.586  0.0672  0.1539  0.1705
 4293W        W 8357   6.390   6.825   9.626  0.1652  0.1182  0.2144
 4294W        W 8358   9.337   9.997  11.190  0.2478  0.2377 -0.0121
 4295W        W 8359   6.267   5.282   8.363 -0.1668  0.0342 -0.0546
 4296W        W 8360   4.743   1.358   1.917  0.4308  0.0583  0.0008
 4297W        W 8361   9.446   6.525   2.206  0.0553 -0.1705 -0.0154
 4298W        W 8362   6.058   6.045   8.534  0.0543 -0.0446  0.0545
 4299W        W 8363   0.243   7.171   4.457  0.0795 -0.2136  0.0618
 4300W        W 8364   1.128   9.810   3.371 -0.4768 -0.1258  0.0246
 4301W        W 8365   1.483  10.615   2.529 -0.2163  0.1024 -0.0239
 4302W        W 8366   3.656  10.619   8.850  0.0212 -0.2531  0.1076
 4303W        W 8367   8.790   7.814   3.323  0.1009 -0.3047 -0.4939
 4304W        W 8368   7.730   5.895   1.828  0.2122  0.0337 -0.0946
 4305W        W 8369   9.419   5.965   2.184  0.1226 -0.1864  0.5231
 4306W        W 8370   8.583   8.128   7.991 -0.0672  0.1611 -0.1627
 4307W        W 8371   8.733   8.773  11.451 -0.2810 -0.1339 -0.0678
 4308W        W 8372   6.081   3.384  11.490 -0.0223  0.0776 -0.0077
 4309W        W 8373   1.043   0.368  11.223 -0.1609 -0.0337  0.4108
 4310W        W 8374   4.713   3.779   2.313 -0.0449 -0.0023  0.0923
 4311W        W 8375   2.193   8.019   9.883  0.1200  0.1081  0.1801
 4312W        W 8376   5.455   7.711   1.675  0.0927  0.0843  0.1406
 4313W        W 8377   1.984   7.214   0.775  0.1498 -0.0021 -0.0089
 4314W        W 8378   6.932   7.793   8.720  0.0214  0.2142  0.0425
 4315W        W 8379   9.239   7.564   2.297  0.0493 -0.1104 -0.0647
 4316W        W 8380  10.236   7.398   3.726  0.2810 -0.0354  0.0058
 4317W        W 8381   2.115  10.044   7.824 -0.0795 -0.0453 -0.1742
 4318W        W 8382   1.924   9.852  11.461 -0.0042  0.5280 -0.3596
 4319W        W 8383   7.073   4.108   8.088 -0.1486  0.3283 -0.4442
 4320W        W 8384   3.245   2.166   1.666 -0.0681 -0.3858 -0.1077
 4321W        W 8385   4.108   6.726  10.776 -0.0727  0.2924 -0.0403
 4322W        W 8386   4.079   2.684   9.236 -0.0044 -0.0415  0.0986
 4323W        W 8387   8.810  10.520   8.287 -0.2400 -0.0028  0.0520
 4324W        W 8388   9.352   5.018   9.644  0.1774 -0.1581 -0.2895
 4325W        W 8389   6.428   1.486   3.393  0.1291  0.1167  0.1011
 4326W        W 8390   5.142   4.848   1.366  0.4011  0.2197 -0.1378
 4327W        W 8391   9.323   5.682   2.586  0.0807  0.2867  0.2328
 4328W        W 8392   1.378   7.271   0.788 -0.0498  0.0242  0.0352
 4329W        W 8393   6.824   6.602   9.043  0.4794 -0.2327 -0.3417
 4330W        W 8394   0.605   1.048   3.403 -0.2696 -0.2581 -0.0299
 4331W        W 8395   8.949   4.562   9.120  0.0215 -0.0880 -0.1320
 4332W        W 8396   2.629   4.840   9.317  0.0213  0.2988 -0.0766
 4333W        W 8397   7.499   8.716  10.033  0.2382 -0.2913 -0.0142
 4334W        W 8398   3.674   8.488  10.894 -0.0694 -0.1859 -0.1645
 4335W        W 8399   9.135   6.996  10.152  0.0620 -0.0811 -0.2835
 4336W        W 8400   9.395   7.639   3.130  0.1878  0.4290  0.1151
 4337W        W 8401   6.178   3.833   3.468  0.1249 -0.4119  0.0433
 4338W        W 8402   8.296   2.810  10.972 -0.4062 -0.3323 -0.3077
 4339W        W 8403   3.993  10.555   1.644 -0.2809  0.0685 -0.1339
 4340W        W 8404  10.270   7.994   4.440 -0.1970  0.3014  0.1506
 4341W        W 8405   1.937   3.364   1.260  0.0212 -0.1020  0.0701
 4342W        W 8406   4.225  10.008  10.528  0.0079  0.2647 -0.1896
 4343W        W 8407   4.890   4.724  11.145 -0.1067  0.1962 -0.1723
 4344W        W 8408   0.607   9.679   0.094  0.1465  0.1009  0.2169
 4345W        W 8409   3.864   0.933   1.170  0.1135 -0.4246 -0.0088
 4346W        W 8410   3.755   0.359   1.767 -0.1865 -0.2031  0.0702
 4347W        W 8411   4.702   3.994   9.385 -0.1490 -0.1648  0.4346
 4348W        W 8412   6.660  10.430   9.961  0.1046  0.0162  0.2622
 4349W        W 8413   2.891   2.220   1.044  0.3450 -0.1334 -0.2409
 4350W        W 8414   5.490   0.251   0.605 -0.0583 -0.1326  0.4496
 4351W        W 8415   6.536   2.711   9.877  0.4080 -0.2496 -0.0539
 4352W        W 8416   1.056  10.485   1.725 -0.0002 -0.1297 -0.0840
 4353W        W 8417   2.906   7.186  10.562 -0.1036  0.1150  0.1306
 4354W        W 8418   8.999   8.302  11.478  0.3376 -0.0849  0.1001
 4355W        W 8419   4.936   3.479   9.129  0.0790  0.0852 -0.2837
 4356W        W 8420   2.586   5.784   0.028 -0.1644 -0.3063 -0.2652
 4357W        W 8421   9.862   9.160   2.129 -0.0041  0.3366  0.0944
 4358W        W 8422   8.572   6.531   2.010 -0.1919 -0.2244  0.0042
 4359W        W 8423   7.123   4.382  10.866  0.0622  0.0624 -0.2614
 4360W        W 8424   5.998   7.182   9.150  0.1557  0.1914  0.1191
 4361W        W 8425   0.825   0.400   1.839 -0.1502 -0.2561  0.2110
 4362W        W 8426   5.516  10.170   8.003  0.4401 -0.4461  0.2985
 4363W        W 8427   6.792   8.289  11.357  0.2490  0.4741  0.0406
 4364W        W 8428   8.718   2.209   2.734  0.2576 -0.2988 -0.1334
 4365W        W 8429   8.654   4.446   1.635 -0.0675  0.0082  0.3162
 4366W        W 8430   2.602   3.370   2.990 -0.0776 -0.2968  0.0873
 4367W        W 8431   7.393   0.423   1.118 -0.1644 -0.0315 -0.1171
 4368W        W 8432   2.510  10.398   8.432  0.0513 -0.1631 -0.1850
 4369W        W 8433   1.670   3.290  10.231 -0.0878  0.0349 -0.0535
 4370W        W 8434   8.348   8.765   3.377 -0.1801  0.0215 -0.0061
 4371W        W 8435   9.930   6.287   0.492  0.0213  0.3205 -0.1644
 4372W        W 8436   5.599   2.915   8.836 -0.2100 -0.1861  0.2347
 4373W        W 8437  10.306   5.083   8.068 -0.0370 -0.0361 -0.0725
 4374W        W 8438   3.846   1.884   3.393 -0.0741 -0.0328  0.1698
 4375W        W 8439   3.199   5.791   7.912  0.0428 -0.3636 -0.2468
 4376W        W 8440   8.773   8.666   1.352 -0.1894 -0.1934 -0.1736
 4377W        W 8441   4.727   6.047   3.482 -0.0841  0.0792  0.1650
 4378W        W 8442   4.222   2.223  11.182  0.0739  0.2794  0.0859
 4379W        W 8443   6.551   6.221   8.918 -0.1249  0.3224 -0.0482
 4380W        W 8444   4.574   2.050  11.539 -0.7265  0.0970  0.0968
 4381W        W 8445   4.577   3.030   0.923  0.0462  0.0475 -0.1963
 4382W        W 8446   5.586   4.850   8.931  0.1646  0.4398  0.2713
 4383W        W 8447   5.914   0.400   0.019 -0.2680  0.1231  0.2054
 4384W        W 8448   4.400   7.757   3.744 -0.0408 -0.0587 -0.1463
 4385W        W 8449  10.536   9.953   0.322 -0.1196 -0.2543 -0.2152
 4386W        W 8450   5.548   5.395   0.523  0.0285 -0.1432 -0.2261
 4387W        W 8451   8.617   6.334   7.585 -0.0883  0.0183  0.2478
 4388W        W 8452   3.095   9.303   8.340  0.2022  0.1941 -0.1191
 4389W        W 8453   3.262   9.753   8.668 -0.0218 -0.0300 -0.0259
 4390W        W 8454   3.945   5.721   1.108  0.1723 -0.0997 -0.3441
 4391W        W 8455   4.344   4.683   2.715  0.0711 -0.0851  0.0266
 4392W        W 8456   7.270   6.439  11.128 -0.0751  0.2057  0.1459
 4393W        W 8457  10.158   6.153  11.125  0.0159  0.0314  0.2664
 4394W        W 8458   6.612   2.081   9.122 -0.0146  0.0566  0.2925
 4395W        W 8459   1.425   1.274  11.517 -0.0018  0.0858  0.0042
 4396W        W 8460   0.166   6.084  11.202 -0.0424 -0.1409 -0.2704
 4397W        W 8461   2.393   6.236   9.109  0.0162 -0.0100 -0.3950
 4398W        W 8462   7.175   6.838   2.593  0.2653  0.0788 -0.0434
 4399W        W 8463   5.982  10.024   9.468  0.1362 -0.1557  0.2730
 4400W        W 8464   8.777   3.438  10.889  0.3377  0.0415  0.0454
 4401W        W 8465   5.426  10.078   1.955  0.0291 -0.1999 -0.0056
 4402W        W 8466   9.241   1.061   1.689  0.0362  0.2994 -0.0087
 4403W        W 8467   2.563   7.084   9.887 -0.2363  0.0813  0.3466
 4404W        W 8468   0.842   7.302   9.016  0.0007  0.2083 -0.0340
 4405W        W 8469   9.571   9.869   9.554  0.0035  0.1534  0.0072
 4406W        W 8470   4.138   7.840   9.192 -0.0692  0.2016 -0.2533
 4407W        W 8471   9.580   4.590   1.515  0.0025  0.3994  0.0415
 4408W        W 8472   8.838   4.258   0.900 -0.2115  0.1017  0.1170
 4409W        W 8473   3.398   3.488   9.033  0.0842  0.2859 -0.0437
 4410W        W 8474   2.333   0.344   9.495  0.0925  0.0366 -0.2143
 4411W        W 8475   4.192   6.547   8.126 -0.1647  0.0775 -0.3805
 4412W        W 8476   7.768   3.266   2.648 -0.2765  0.2854 -0.1712
 4413W        W 8477   5.265   6.762   9.358 -0.1108 -0.1424  0.0535
 4414W        W 8478   4.963   8.285   4.185 -0.1231 -0.1134  0.0349
 4415W        W 8479   6.138   2.205   9.183  0.1790 -0.0711  0.3678
 4416W        W 8480   8.118   9.153   2.080 -0.1733 -0.1665 -0.1066
 4417W        W 8481   6.211   0.384   8.413 -0.1087 -0.0928 -0.0517
 4418W        W 8482   8.267   2.584   9.371 -0.3545  0.1336  0.2394
 4419W        W 8483   6.074   9.230  10.299  0.3335  0.0927  0.0021
 4420W        W 8484   4.379   0.974   8.946  0.0145  0.0970  0.1199
 4421W        W 8485   3.775   6.929   8.718 -0.2216 -0.0702  0.2515
 4422W        W 8486   8.060   8.794  10.812  0.1304 -0.1030 -0.0697
 4423W        W 8487   8.240   8.183   9.287 -0.3491  0.1516 -0.1092
 4424W        W 8488   4.083   0.208   9.470 -0.3323  0.3520 -0.2158
 4425W        W 8489   5.022   6.811  10.270  0.0037 -0.4894 -0.1480
 4426W        W 8490   0.146   2.571   0.711 -0.0031 -0.0213 -0.3939
 4427W        W 8491   2.122   9.230   4.250 -0.1751  0.1342  0.0743
 4428W        W 8492   6.031   8.429   3.035  0.0647 -0.0965  0.0066
 4429W        W 8493   0.497   4.795  11.552 -0.0397  0.1700 -0.1015
 4430W        W 8494   6.101   5.314   9.414 -0.0751 -0.0737  0.0597
 4431W        W 8495   4.310   5.060  10.043 -0.1249 -0.0298 -0.0657
 4432W        W 8496   7.310   3.172   2.838  0.2689 -0.2688 -0.0968
 4433W        W 8497   6.296   3.180   1.381 -0.1803 -0.0984  0.1869
 4434W        W 8498   3.754   6.979  10.623  0.0034  0.0807 -0.0509
 4435W        W 8499   8.206   2.043   8.469  0.1008  0.0124  0.2274
 4436W        W 8500   3.529   2.320   3.196  0.1808  0.1452 -0.0744
 4437W        W 8501   9.687   2.323   1.552 -0.2213 -0.0148 -0.0022
 4438W        W 8502   0.656   8.119   3.347 -0.1591  0.1029  0.0629
 4439W        W 8503  10.367   2.885  11.487 -0.1196  0.2943 -0.1097
 4440W        W 8504   3.828   6.854   0.204  0.2555 -0.0549 -0.1112
 4441W        W 8505   9.775   5.099   1.888  0.0556  0.0538 -0.0883
 4442W        W 8506  10.475   6.374   3.005 -0.3610  0.0424  0.1393
 4443W        W 8507   4.159   0.797   3.167  0.1110 -0.1148  0.0066
 4444W        W 8508   2.042   0.941   8.689 -0.5067  0.2659  0.1020
 4445W        W 8509   9.397  10.634   0.309 -0.1926  0.1626  0.0439
 4446W        W 8510   2.878   2.909   8.151 -0.2158 -0.1065  0.0999
 4447W        W 8511   4.361   1.980   2.690  0.2262  0.0430 -0.0656
 4448W        W 8512   5.346   1.604   7.590  0.0541 -0.0791  0.2098
 4449W        W 8513   4.537   2.225   0.509  0.1109 -0.4030  0.0010
 4450W        W 8514   1.346   1.149  10.517  0.1545  0.1644  0.3074
 4451W        W 8515   3.951   0.429  10.400 -0.1256  0.1610  0.3363
 4452W        W 8516   5.517   6.230   8.424 -0.1789 -0.3076 -0.1649
 4453W        W 8517   9.843   8.845   8.639 -0.0726  0.1477  0.0336
 4454W        W 8518  10.203   0.112   8.407 -0.0391  0.0328  0.0988
 4455W        W 8519   1.568  10.190   8.962 -0.1676  0.1654 -0.0421
 4456W        W 8520  10.008   9.571   0.415  0.2163 -0.0978 -0.2381
 4457W        W 8521   7.194   9.698   9.663  0.3391  0.2212 -0.3337
 4458W        W 8522   0.462   6.622   1.345 -0.0961 -0.5170  0.2380
 4459W        W 8523  10.138   5.612  11.377  0.0681 -0.1218  0.2790
 4460W        W 8524   6.869   3.356   3.472 -0.0546 -0.3226  0.0200
 4461W        W 8525   9.762  10.256   9.851 -0.2427  0.2944  0.3344
 4462W        W 8526   3.794   8.984   1.743 -0.0753 -0.0106 -0.0861
 4463W        W 8527   5.421   1.177   9.243 -0.1154  0.1498  0.0271
 4464W        W 8528   6.183   4.098   8.807 -0.1625  0.1912 -0.1571
 4465W        W 8529   4.563   7.477   2.784  0.0049 -0.0383  0.0724
 4466W        W 8530   9.502   0.192   1.314 -0.0669  0.0052 -0.0934
 4467W        W 8531   6.360   6.468   8.531  0.1659 -0.0628 -0.0089
 4468W        W 8532   4.019   1.056   0.435  0.1663  0.2804  0.1452
 4469W        W 8533   6.692   4.050  11.479 -0.1842  0.1007 -0.3697
 4470W        W 8534   4.024  10.616   3.496  0.4126 -0.1641  0.0373
 4471W        W 8535   7.753   4.784   9.554  0.1720 -0.0566  0.2599
 4472W        W 8536  10.506   6.200   8.717  0.0693 -0.2530  0.2604
 4473W        W 8537   5.812   4.736   3.816  0.0427 -0.0785 -0.0855
 4474W        W 8538   4.113   4.887   3.260 -0.2138 -0.1583  0.2367
 4475W        W 8539   8.062   6.148   0.114  0.3494  0.0730 -0.0359
 4476W        W 8540   5.823   8.330  10.487  0.0325 -0.1375  0.3993
 4477W        W 8541   0.146   0.382   0.530  0.1415  0.5329  0.1963
 4478W        W 8542   8.482   7.183  10.693 -0.3412 -0.2109 -0.2026
 4479W        W 8543   4.283   1.463   0.238 -0.1462 -0.0229 -0.0733
 4480W        W 8544   8.300   0.477   1.046 -0.1221 -0.3613 -0.1486
 4481W        W 8545   4.877   0.292   1.841 -0.0085  0.0057 -0.1254
 4482W        W 8546  10.388   8.673   9.731  0.1001  0.1787 -0.2238
 4483W        W 8547  10.489   2.569   8.464 -0.1968 -0.2291 -0.0510
 4484W        W 8548  10.380   3.302   9.073  0.0234  0.0219 -0.2888
 4485W        W 8549   3.189   4.428   1.849  0.0151 -0.1558 -0.1486
 4486W        W 8550   3.428  10.243   8.522  0.3358 -0.0295  0.0370
 4487W        W 8551   0.768   1.167   0.940 -0.3082  0.1937 -0.1424
 4488W        W 8552   9.195   7.726   1.607 -0.0029 -0.1960  0.1075
 4489W        W 8553   2.793   7.989   9.375 -0.2642  0.2479 -0.0999
 4490W        W 8554   3.143   1.115  10.189 -0.0560 -0.0108  0.0374
 4491W        W 8555   3.927   3.636   9.128  0.1548  0.0844  0.0149
 4492W        W 8556   3.068   3.706   8.692 -0.6068  0.1195  0.2494
 4493W        W 8557   9.200   0.415   9.409  0.2126  0.0659  0.4371
 4494W        W 8558   8.617   3.467   1.730 -0.0472 -0.2358  0.1821
 4495W        W 8559   2.758   2.026   3.519 -0.2489 -0.1414 -0.2397
 4496W        W 8560   8.621   9.988   0.388  0.2363  0.0329  0.0326
 4497W        W 8561   6.144   2.433   1.862 -0.0432 -0.3087  0.0899
 4498W        W 8562   8.648   5.207  10.479  0.0530  0.2919  0.1272
 4499W        W 8563   1.217   0.788   9.109  0.0863 -0.1902 -0.1596
 4500W        W 8564   8.233   9.185   3.038 -0.1760 -0.1036 -0.2218
 4501W        W 8565   3.671   6.051   0.868 -0.1237 -0.1218  0.1476
 4502W        W 8566   5.522   6.939   9.958 -0.3606 -0.3208  0.1611
 4503W        W 8567   7.581  10.377   9.878 -0.1164  0.3066 -0.1668
 4504W        W 8568   2.445   4.915   8.845  0.1205 -0.0117  0.2141
 4505W        W 8569   6.453   2.404   0.454  0.3492 -0.0512 -0.0636
 4506W        W 8570   5.284   4.778   9.482 -0.0018 -0.0635  0.2356
 4507W        W 8571   9.479   9.674   0.452 -0.2530 -0.1604 -0.0206
 4508W        W 8572   2.814   4.867   1.199  0.1357 -0.1971  0.0081
 4509W        W 8573   9.670   1.288   0.252 -0.0128  0.0821 -0.1220
 4510W        W 8574   2.133   2.229   1.481 -0.1303  0.0831  0.2096
 4511W        W 8575   2.640   6.602   2.159  0.0974 -0.4361  0.1657
 4512W        W 8576  10.145   0.400  10.462  0.1116 -0.0384 -0.0689
 4513W        W 8577   0.282   8.138   3.688 -0.0166  0.1226 -0.0163
 4514W        W 8578  10.441   7.757   1.627  0.1038  0.3063  0.1065
 4515W        W 8579   0.385   2.203   9.950 -0.2878  0.3847 -0.0541
 4516W        W 8580   7.284   8.323  10.498  0.0043 -0.1002  0.0936
 4517W        W 8581   3.258   7.561  10.829 -0.0357 -0.0496 -0.3008
 4518W        W 8582   4.614  10.343   9.521  0.1922  0.2800  0.4329
 4519W        W 8583  10.038   8.430   9.052 -0.0524 -0.1997  0.0074
 4520W        W 8584   4.285   5.932  11.477 -0.1069 -0.1055 -0.4991
 4521W        W 8585   7.252   4.958   0.218 -0.1365  0.1824 -0.0641
 4522W        W 8586   8.464   6.735   1.553  0.2631  0.1786 -0.1707
 4523W        W 8587   9.311   6.956  11.537  0.0781 -0.0282  0.0971
 4524W        W 8588   1.805   0.646   2.899  0.0925  0.2082  0.0402
 4525W        W 8589   8.529   0.327   2.113 -0.2214 -0.1938 -0.1505
 4526W        W 8590   1.858   7.490  10.637 -0.2287  0.0714 -0.1156
 4527W        W 8591   3.040   6.494   4.339  0.0355 -0.0790  0.2191
 4528W        W 8592   0.432   3.370   7.468  0.1351 -0.2132 -0.1391
 4529W        W 8593   0.366   6.029   8.609  0.1158  0.1145  0.1774
 4530W        W 8594   7.665   8.158   2.157 -0.1763 -0.0542  0.3576
 4531W        W 8595   2.107   3.458  10.002 -0.1078  0.0417  0.0759
 4532W        W 8596   5.329   5.415   0.076 -0.1228  0.0030 -0.1661
 4533W        W 8597   4.319   1.447   8.789  0.1357  0.0785  0.0389
 4534W        W 8598   8.239   0.507   9.713 -0.0701  0.1883  0.0558
 4535W        W 8599   7.840   6.446  10.395 -0.1306  0.1314 -0.1992
 4536W        W 8600   7.836   3.485   0.763 -0.0358  0.2370  0.2658
 4537W        W 8601   4.830   3.479   9.582  0.2952  0.1153  0.0697
 4538W        W 8602   7.632   8.122  10.023  0.1499 -0.0354 -0.1881
 4539W        W 8603   4.209   6.161   2.733 -0.0840  0.0798  0.2582
 4540W        W 8604   2.800   8.523   2.831  0.3982  0.3018 -0.0736
 4541W        W 8605   5.093   8.131   3.718  0.0256 -0.2494 -0.2776
 4542W        W 8606   8.696  10.301   0.903  0.0959 -0.3157  0.0755
 4543W        W 8607   3.042   7.331  10.048 -0.0985 -0.1931 -0.2750
 4544W        W 8608   3.280   7.760   2.257 -0.1730 -0.0836  0.2041
 4545W        W 8609   4.494   8.628   8.860  0.1743 -0.1969 -0.1549
 4546W        W 8610   5.483   2.577   1.595  0.1429  0.0186  0.4586
 4547W        W 8611   3.976   8.904   8.362  0.0366 -0.1058  0.1752
 4548W        W 8612   6.554   3.856   8.247 -0.0513  0.0767  0.2397
 4549W        W 8613   7.078   3.085   0.264 -0.1875  0.0171 -0.2528
 4550W        W 8614   7.015   3.010   3.204 -0.0405  0.2323  0.0531
 4551W        W 8615   0.226   1.313   0.696  0.2350  0.1075 -0.2446
 4552W        W 8616   3.635  10.461   2.008 -0.1985  0.3042  0.0871
 4553W        W 8617   1.607   4.453   3.018 -0.3021  0.1601 -0.0810
 4554W        W 8618   1.174   5.698   0.805  0.2195 -0.3837  0.3365
 4555W        W 8619   8.255  10.052   3.231 -0.1772 -0.1854  0.1667
 4556W        W 8620   9.663   4.053   0.221 -0.0547  0.2377 -0.0008
 4557W        W 8621  10.243   8.656   1.190 -0.3542  0.1892  0.0600
 4558W        W 8622   9.796   1.319   9.692 -0.1428 -0.0058  0.1101
 4559W        W 8623   2.471   3.561   1.691  0.2219 -0.5357 -0.1537
 4560W        W 8624   4.900   4.391   9.273 -0.0630  0.1545  0.3085
 4561W        W 8625   3.354  10.586   2.513  0.0952 -0.3727  0.0054
 4562W        W 8626   2.307   6.965   2.043  0.3431 -0.0871 -0.1088
 4563W        W 8627   7.038   9.829   1.514 -0.3793  0.2146 -0.2799
 4564W        W 8628   5.540   0.306   1.093  0.2219  0.0677 -0.0077
 4565W        W 8629   3.522   9.380   1.990 -0.0031 -0.0042 -0.1144
 4566W        W 8630   9.181   2.431   0.181  0.0592 -0.5425 -0.2667
 4567W        W 8631   1.899   6.356   2.848  0.2731  0.1222 -0.0515
 4568W        W 8632   7.410   4.058   9.915  0.1060 -0.2461  0.2020
 4569W        W 8633   4.097   9.532   9.081  0.1198  0.0437  0.1995
 4570W        W 8634   0.914   0.795   3.096  0.1013  0.0383  0.1057
 4571W        W 8635   9.993   7.584   2.814  0.2736  0.1474 -0.2963
 4572W        W 8636   9.297   7.069   3.659 -0.0649  0.1165 -0.3945
 4573W        W 8637   6.723   2.821   7.803 -0.1964 -0.0035  0.2022
 4574W        W 8638   6.367   8.865   3.248  0.0968  0.2415  0.0074
 4575W        W 8639   3.006   2.998   3.620  0.0657  0.1400  0.0540
 4576W        W 8640   0.480   0.333   9.791 -0.0013  0.0300 -0.0923
 4577W        W 8641   7.708   0.698   2.156 -0.2641 -0.2913  0.1756
 4578W        W 8642   6.947   5.724   4.539 -0.0114  0.2814  0.2100
 4579W        W 8643   4.667   6.990   2.758  0.0289 -0.1429  0.1862
 4580W        W 8644   5.460   2.104   7.579  0.1456 -0.0738 -0.2128
 4581W        W 8645   5.430   5.412   8.191  0.3262  0.3387 -0.3029
 4582W        W 8646   3.830   5.240   4.033  0.2081 -0.0038 -0.2923
 4583W        W 8647   4.713   3.708  10.028 -0.3558  0.0797 -0.1359
 4584W        W 8648   8.555   2.375  10.190  0.0726 -0.2225  0.0696
 4585W        W 8649   3.814   3.474   1.101 -0.3836  0.2602  0.0946
 4586W        W 8650   8.791  10.091  11.366 -0.0976 -0.1184  0.0047
 4587W        W 8651   3.827   7.750   2.370 -0.0764  0.1163  0.1099
 4588W        W 8652  10.338   5.228   1.322  0.0302 -0.1427  0.1031
 4589W        W 8653   7.688   2.863   9.823  0.0863  0.4846  0.3837
 4590W        W 8654   1.923   2.580  11.169  0.4311 -0.1447  0.1762
 4591W        W 8655   2.117   3.107  11.200  0.1557  0.1753 -0.0244
 4592W        W 8656   1.578   2.191   0.243 -0.1257  0.2585 -0.0712
 4593W        W 8657   9.182   5.263  10.525 -0.1394 -0.2795 -0.0195
 4594W        W 8658   4.137   4.107  10.836 -0.1727 -0.4035  0.0089
 4595W        W 8659   0.213   9.019   2.318 -0.3014  0.2266 -0.1849
 4596W        W 8660   6.661   8.147   1.011  0.3489 -0.0042 -0.0530
 4597W        W 8661   5.992   1.290  11.448 -0.0048 -0.0701  0.1692
 4598W        W 8662   7.511   4.815  10.418 -0.1397 -0.2698  0.3630
 4599W        W 8663   4.207   4.408   0.674  0.0276  0.0246  0.0838
 4600W        W 8664   1.313   2.088   1.370 -0.0420  0.4233  0.0786
 4601W        W 8665   0.417   6.573   8.363 -0.0806 -0.1440  0.1631
 4602W        W 8666   3.854   4.902   1.503  0.1532  0.2201 -0.0635
 4603W        W 8667   8.330   9.563   0.487 -0.2035  0.1490  0.0982
 4604W        W 8668   4.636   5.403   1.928 -0.0054 -0.0281  0.0276
 4605W        W 8669   5.688  10.043  11.473  0.0652 -0.0706 -0.2481
 4606W        W 8670   5.586  10.639   9.303  0.0503 -0.2789 -0.0846
 4607W        W 8671   7.013   7.900   0.789  0.1271 -0.2670 -0.1354
 4608W        W 8672   1.151   6.478   3.160  0.1495 -0.1664 -0.1396
 4609W        W 8673   0.499   5.286   2.956  0.1698  0.2735 -0.0726
 4610W        W 8674   2.500   5.423  10.788  0.2315 -0.0307 -0.1936
 4611W        W 8675   7.935   2.914   0.762  0.0419 -0.0478  0.0130
 4612W        W 8676   1.497  10.483   2.059  0.3105 -0.2076 -0.1630
 4613W        W 8677   6.118   0.347  11.011  0.2018  0.0242  0.1672
 4614W        W 8678   3.098   6.918   2.932  0.1105  0.1538  0.0246
 4615W        W 8679   5.589   7.546  10.340  0.2639 -0.1637  0.0127
 4616W        W 8680   8.061  10.580   2.016 -0.0915  0.1784 -0.3691
 4617W        W 8681   5.973   5.054  11.051 -0.1660  0.1011  0.1807
 4618W        W 8682   7.440   8.720   3.692 -0.0231  0.2018  0.0161
 4619W        W 8683   6.430   1.948  10.462  0.1024 -0.1331  0.0043
 4620W        W 8684   5.407   0.917  11.050  0.3343  0.1230  0.4540
 4621W        W 8685   3.332   1.134   2.443 -0.0985  0.1137  0.0352
 4622W        W 8686   4.860   0.533  10.494  0.3202  0.2121 -0.0148
 4623W        W 8687   1.478   7.335   2.158  0.0196 -0.3899  0.2103
 4624W        W 8688   6.790   0.245   9.806 -0.0072 -0.0807 -0.3009
 4625W        W 8689   8.484   6.045   3.201  0.0313 -0.0815 -0.0640
 4626W        W 8690   5.742  10.286   8.928 -0.1368  0.0661 -0.1937
 4627W        W 8691   5.604   1.299   3.065 -0.0552 -0.2858 -0.2453
 4628W        W 8692   2.371   4.136   1.740  0.1409 -0.0163  0.0864
 4629W        W 8693   5.435   5.607   2.151 -0.0811 -0.1143 -0.0537
 4630W        W 8694   5.808   7.325   1.547 -0.1308  0.2365  0.1525
 4631W        W 8695   7.012   1.846   1.006 -0.0323 -0.0769 -0.0308
 4632W        W 8696  10.286   7.058   8.875 -0.0411  0.3494  0.0439
 4633W        W 8697   9.623   1.555   1.144 -0.4848  0.1096 -0.0134
 4634W        W 8698   8.367   3.521   8.203 -0.2444 -0.2664 -0.0486
 4635W        W 8699   9.942   7.651   1.404 -0.0688  0.3514  0.0637
 4636W        W 8700   1.418   5.341   7.814 -0.0151 -0.0474  0.4735
 4637W        W 8701   0.127   2.099   0.517 -0.0877 -0.0704 -0.2364
 4638W        W 8702   1.411   6.857   3.368  0.1051  0.0789  0.0336
 4639W        W 8703   4.691   1.638   0.615  0.1107  0.3140 -0.1310
 4640W        W 8704   3.396   2.775   8.263 -0.4468 -0.0460 -0.1271
 4641W        W 8705   7.119   8.831   1.652 -0.0561  0.0898 -0.2462
 4642W        W 8706   9.142   4.468   1.334  0.1822  0.1999 -0.1211
 4643W        W 8707   0.045   2.913   7.647  0.2719  0.0931  0.0482
 4644W        W 8708   0.382   1.084  11.509  0.2693 -0.0122 -0.0011
 4645W        W 8709  10.472   1.593  10.783  0.0927 -0.4343 -0.2740
 4646W        W 8710   8.995   0.584   8.540 -0.0056 -0.0742  0.0856
 4647W        W 8711   9.356   5.247   2.854  0.1632  0.0412  0.3468
 4648W        W 8712   5.370   1.994   0.545  0.3302 -0.1850 -0.0242
 4649W        W 8713   8.056   5.006   3.412  0.1225  0.1635 -0.0136
 4650W        W 8714   9.652   0.907   3.313 -0.2573 -0.2596  0.3426
 4651W        W 8715   6.174   2.331   3.381  0.3058 -0.1735  0.1208
 4652W        W 8716   8.466   8.740   2.342  0.3820 -0.0596  0.2607
 4653W        W 8717   3.529   9.032   3.641 -0.0632  0.1162  0.4802
 4654W        W 8718   1.775   7.243   9.235  0.1655 -0.0415  0.2527
 4655W        W 8719  10.083   2.748   0.362  0.1986 -0.0516 -0.0782
 4656W        W 8720   4.578   8.505   3.078  0.1898 -0.1048 -0.4113
 4657W        W 8721   5.637   8.908   2.348  0.1038 -0.1936  0.0411
 4658W        W 8722   2.004   5.487   2.473  0.1181  0.0003  0.1355
 4659W        W 8723   5.722  10.289   3.053  0.1845 -0.2104  0.4210
 4660W        W 8724   4.733   5.583  10.713  0.0160 -0.2126 -0.1736
 4661W        W 8725   3.572   5.083   1.038  0.0083 -0.1018 -0.0037
 4662W        W 8726  10.611   8.234   7.939  0.0879 -0.0836 -0.1506
 4663W        W 8727   8.244   3.500   9.178  0.0851  0.2146  0.1823
 4664W        W 8728   2.822   3.210   8.873  0.0039  0.0345  0.2289
 4665W        W 8729   2.281   8.131   0.596  0.0978  0.0827  0.1549
 4666W        W 8730   4.820   1.420   2.416 -0.1932 -0.0081  0.1990
 4667W        W 8731   1.687   1.468   1.319 -0.4209  0.0611 -0.1041
 4668W        W 8732   6.048   2.144  11.239 -0.0140  0.0132  0.1700
 4669W        W 8733   9.572   1.827   0.606  0.0338 -0.0795 -0.0331
 4670W        W 8734   1.484   8.497   9.242 -0.0662 -0.0597  0.0615
 4671W        W 8735   0.558   8.372   0.852  0.1763 -0.2555  0.0636
 4672W        W 8736   5.314   1.591   0.248  0.1406  0.0718  0.0467
 4673W        W 8737   7.995   1.907   9.303 -0.3110  0.1449 -0.1376
 4674W        W 8738   1.728   8.668   0.275 -0.0337  0.0916  0.1557
 4675W        W 8739   9.447   0.570   2.207  0.0359 -0.1338 -0.2364
 4676W        W 8740   7.409   9.994   2.458 -0.0247  0.0476 -0.3061
 4677W        W 8741   9.173   8.156   3.041 -0.1404 -0.0961  0.0887
 4678W        W 8742  10.084   1.258   8.103 -0.1468  0.3711 -0.0215
 4679W        W 8743   5.946   4.458   2.652  0.1151  0.0299  0.2414
 4680W        W 8744  10.313   8.651   3.334  0.0043  0.2648 -0.1515
 4681W        W 8745   4.746   6.011   0.408  0.2692 -0.2360 -0.3935
 4682W        W 8746   3.822   6.076   3.939 -0.3499  0.1410 -0.0460
 4683W        W 8747   9.558   4.267   2.639 -0.1708  0.2031  0.0996
 4684W        W 8748   4.575   8.845   9.902  0.1624 -0.1663  0.1186
 4685W        W 8749   1.105   6.587  10.206 -0.0515  0.1358  0.0168
 4686W        W 8750   7.888   3.130   7.600 -0.1168 -0.1258  0.3996
 4687W        W 8751   7.930   9.496   9.569 -0.3479  0.0054 -0.0452
 4688W        W 8752   6.703   1.330  10.473 -0.1751  0.0036  0.0199
 4689W        W 8753   3.796   9.712  10.522 -0.1424 -0.0313  0.0139
 4690W        W 8754   3.389   8.183  10.271  0.0795 -0.0193 -0.3173
 4691W        W 8755   6.046   9.169  11.548 -0.0241 -0.2114 -0.0051
 4692W        W 8756   6.077   8.283   7.922 -0.3627  0.0196  0.1512
 4693W        W 8757   0.859   9.617   2.174  0.0737  0.4338  0.1600
 4694W        W 8758   9.445   7.761   3.924 -0.0588  0.0187  0.1452
 4695W        W 8759   1.707   9.202   1.873 -0.4063 -0.0281 -0.0936
 4696W        W 8760  10.506   8.667  11.180  0.1061  0.1409  0.0686
 4697W        W 8761   2.636   6.807   9.377 -0.0672 -0.1508 -0.6223
 4698W        W 8762   1.576   1.632  10.253  0.1594 -0.1929 -0.0376
 4699W        W 8763   8.490   6.881   2.362  0.0008 -0.0550  0.1150
 4700W        W 8764   3.733   9.053   2.743 -0.1482 -0.1786 -0.0479
 4701W        W 8765   0.371   6.423   2.224 -0.1640  0.0603 -0.2135
 4702W        W 8766   4.184   0.782   3.707  0.1047 -0.0906  0.0148
 4703W        W 8767   8.834   4.105   2.592 -0.3077  0.1533  0.1289
 4704W        W 8768   8.949   9.099   9.996 -0.0544  0.0828  0.0151
 4705W        W 8769  10.493  10.570   8.795  0.2167  0.4055 -0.0459
 4706W        W 8770   2.362   0.729   1.458 -0.2737  0.1745  0.1257
 4707W        W 8771   0.276   5.121  10.964  0.2892  0.2331  0.2218
 4708W        W 8772   5.557  10.195   9.684  0.2288 -0.0204  0.0230
 4709W        W 8773   5.735   3.931   9.567 -0.1532 -0.0990  0.0566
 4710W        W 8774   8.278   6.199   1.355 -0.3454  0.3203 -0.1266
 4711W        W 8775   0.247   8.456   9.489 -0.3619 -0.0608  0.0299
 4712W        W 8776   2.593   0.311   3.358 -0.2065  0.0756 -0.2240
 4713W        W 8777   2.592   0.638   0.944 -0.0519 -0.1176  0.0671
 4714W        W 8778   0.312   0.132   8.794  0.2205 -0.1733 -0.5262
 4715W        W 8779   5.814   8.864   1.588  0.1821 -0.1148  0.3941
 4716W        W 8780   3.613   4.071   1.950 -0.2242  0.1895  0.1122
 4717W        W 8781   1.581   7.540   8.616  0.2835 -0.1460  0.0357
 4718W        W 8782   4.001  10.178   1.036 -0.0873  0.1793 -0.0463
 4719W        W 8783   5.344   7.752   0.346 -0.2921 -0.1168  0.1060
 4720W        W 8784  10.086   7.987  10.898  0.0572 -0.1453 -0.1144
 4721W        W 8785   6.180   8.775  10.120 -0.0231 -0.1385  0.1066
 4722W        W 8786   8.218   7.606   0.412  0.0865 -0.2386 -0.0235
 4723W        W 8787   7.912   0.894  10.177 -0.0673  0.0770  0.1201
 4724W        W 8788   0.744  10.497   2.128 -0.1492 -0.0718 -0.0222
 4725W        W 8789   1.077   4.874   0.091  0.0858  0.1332 -0.1905
 4726W        W 8790   6.044   4.360   3.389  0.0786  0.0695 -0.1324
 4727W        W 8791   0.813   8.166  10.017 -0.1452 -0.1831 -0.1593
 4728W        W 8792   3.716   1.531   2.480  0.0737 -0.2513 -0.1671
 4729W        W 8793   1.666   4.775   1.662 -0.1386  0.2136 -0.2028
 4730W        W 8794  10.471   2.228   2.455  0.4576 -0.3626 -0.3230
 4731W        W 8795   4.312   4.608   0.056  0.2466 -0.1537  0.1227
 4732W        W 8796   4.393   3.672   8.417  0.2724  0.2866 -0.2440
 4733W        W 8797   7.507   2.518  10.143  0.3382  0.0401  0.0444
 4734W        W 8798   0.038   5.791   9.452 -0.1165 -0.0356  0.0204
 4735W        W 8799   9.164   1.612  10.752 -0.0505  0.1233 -0.0670
 4736W        W 8800   4.562   4.888   9.190 -0.0345 -0.0931 -0.0986
 4737W        W 8801   3.130   6.961   1.562 -0.3249  0.0397 -0.0578
 4738W        W 8802   1.136   1.172   1.336 -0.3099  0.0366 -0.0081
 4739W        W 8803   0.773   1.312   7.871 -0.2081  0.1016  0.3279
 4740W        W 8804   8.095   9.668   0.988  0.1497  0.0974  0.0524
 4741W        W 8805   4.340   1.048   8.431 -0.5279  0.0904 -0.0479
 4742W        W 8806   8.377   1.660   3.345  0.1995  0.1733 -0.1353
 4743W        W 8807   0.117   7.368  10.799  0.0273 -0.0813  0.0832
 4744W        W 8808  10.161   9.557   8.182  0.2883  0.0076 -0.0754
 4745W        W 8809   2.133   0.768   0.771 -0.2156  0.0914 -0.1260
 4746W        W 8810   5.666   0.479  11.170 -0.0683  0.2266 -0.2537
 4747W        W 8811   0.593  10.246   9.923 -0.2896 -0.1910  0.0014
 4748W        W 8812  10.390   5.336   9.778  0.0126 -0.3606  0.4662
 4749W        W 8813   7.609   6.956   1.746 -0.2151  0.2601  0.2569
 4750W        W 8814   0.169   8.042   3.164 -0.0937 -0.1292 -0.0320
 4751W        W 8815   7.882   1.841   2.462 -0.0187 -0.1507 -0.0930
 4752W        W 8816   4.133   7.262   2.944 -0.0041  0.0190  0.1239
 4753W        W 8817   4.942   2.806  10.490 -0.1370  0.1547  0.0235
 4754W        W 8818   3.170  10.570  10.668 -0.1884 -0.0600 -0.1158
 4755W        W 8819   6.533   8.246   8.736 -0.4243 -0.0953  0.0762
 4756W        W 8820   2.806   5.222   2.406  0.2044 -0.1791 -0.2126
 4757W        W 8821   2.270  10.124   9.508  0.0507  0.2237  0.1437
 4758W        W 8822   6.823   1.718  10.188  0.0410 -0.0584  0.2346
 4759W        W 8823   8.498   1.140   9.370 -0.0308 -0.1659  0.5158
 4760W        W 8824   6.138   6.312   3.879 -0.0806  0.1537 -0.1918
 4761W        W 8825   1.550   9.866  10.762  0.0315 -0.0787  0.1281
 4762W        W 8826   4.499   5.393   9.186 -0.1200  0.0229 -0.0834
 4763W        W 8827   2.271   0.202   2.146 -0.3160  0.1188 -0.0385
 4764W        W 8828   8.499   1.039  11.297  0.0535 -0.1509  0.1750
 4765W        W 8829   1.190   2.564   2.615  0.0181 -0.1299  0.0378
 4766W        W 8830   1.086   9.217   9.140  0.1566  0.3066 -0.4597
 4767W        W 8831   0.568   3.066  11.003 -0.0188 -0.2912 -0.1296
 4768W        W 8832  10.212   4.691   7.711 -0.1499  0.2237  0.2375
 4769W        W 8833   5.285   6.350  11.070 -0.0060 -0.1247  0.0992
 4770W        W 8834   6.915  10.406   0.544  0.0194  0.1600  0.0785
 4771W        W 8835   8.270   4.840   0.526  0.2242 -0.1709 -0.3174
 4772W        W 8836   8.829   3.650   8.979  0.1629 -0.1342 -0.1116
 4773W        W 8837   8.747   5.684   3.447 -0.1710  0.0237 -0.1107
 4774W        W 8838   3.807   3.397   4.008  0.1762 -0.0811  0.1676
 4775W        W 8839   2.653   2.142  10.942 -0.1004  0.2396 -0.2230
 4776W        W 8840   0.039   8.911   3.163  0.0957  0.0245  0.2413
 4777W        W 8841   4.847   4.494   2.156  0.1348 -0.1629 -0.1812
 4778W        W 8842   8.686   2.683  11.547 -0.3668  0.1222 -0.0086
 4779W        W 8843   1.719   9.186  11.083  0.0011  0.1400 -0.0712
 4780W        W 8844   7.030   5.205   3.345  0.0590 -0.0011 -0.0444
 4781W        W 8845   1.761   0.446   1.543  0.0725  0.0402 -0.0896
 4782W        W 8846   2.613   8.086   8.129 -0.2207  0.0872 -0.1196
 4783W        W 8847   3.593   0.857   1.623 -0.2144 -0.2387  0.0698
 4784W        W 8848   1.835   6.749   1.949  0.1098  0.1501  0.3268
 4785W        W 8849   6.420   9.149   0.913  0.1172  0.1977  0.2035
 4786W        W 8850   0.911   7.027   2.171  0.1335 -0.0150  0.2632
 4787W        W 8851   2.068   8.366   9.038  0.4686 -0.1883 -0.0394
 4788W        W 8852   8.522   4.548   9.410  0.1214 -0.0306  0.0005
 4789W        W 8853   1.299   8.863  10.901 -0.2256  0.1342  0.0100
 4790W        W 8854   3.424   6.490   0.775  0.0242 -0.0281 -0.2067
 4791W        W 8855   3.346  10.139   2.312 -0.0699 -0.1731  0.1784
 4792W        W 8856   7.445   8.767  10.714  0.0131 -0.2406 -0.0654
 4793W        W 8857   9.588   2.601   2.360 -0.0429 -0.1652  0.0408
 4794W        W 8858   0.868   4.997  11.285 -0.1036  0.1245 -0.1110
 4795W        W 8859   6.057   0.104  10.569  0.0426  0.0919  0.3684
 4796W        W 8860  10.207   1.111   2.440 -0.1958 -0.0112  0.2279
 4797W        W 8861   6.129   3.644   9.390 -0.2854  0.3735 -0.0545
 4798W        W 8862   1.200   7.799   1.508 -0.6075  0.0932 -0.0646
 4799W        W 8863   9.882   6.317   2.149  0.3059 -0.2502 -0.0730
 4800W        W 8864   9.989   7.954   1.835 -0.1906 -0.1943  0.0481
 4801W        W 8865  10.513   9.900   8.189 -0.3078 -0.4143 -0.2014
 4802W        W 8866   3.677   8.449   0.532  0.1165  0.1759 -0.1724
 4803W        W 8867  10.359   2.987   3.074 -0.1613  0.3571 -0.3541
 4804W        W 8868  10.063   9.108   0.504  0.1571  0.1907  0.1178
 4805W        W 8869   3.924   5.938   3.191 -0.1118 -0.2721 -0.1103
 4806W        W 8870   1.752   0.864   1.153 -0.0609 -0.1180 -0.0992
 4807W        W 8871   9.791   2.121   8.704 -0.0748  0.2664  0.1376
 4808W        W 8872   3.839   8.471   2.705 -0.0936  0.1195  0.4276
 4809W        W 8873   4.824   4.840   0.599  0.3478  0.1146  0.3310
 4810W        W 8874   7.397   2.240  11.388  0.0113 -0.0890 -0.3274
 4811W        W 8875   6.267   0.060   2.983 -0.1618 -0.0564  0.0683
 4812W        W 8876   6.266   5.250   2.120  0.2651  0.1694  0.1888
 4813W        W 8877   2.373   5.261   2.716  0.2800  0.2279 -0.0998
 4814W        W 8878   7.443   6.464  11.597  0.1209 -0.0578 -0.1900
 4815W        W 8879   8.082   6.575   2.505 -0.1130  0.0329 -0.0422
 4816W        W 8880   8.969   5.393   4.259  0.1495  0.1042  0.2458
 4817W        W 8881   5.356   9.618   2.857  0.0572 -0.2423  0.0245
 4818W        W 8882   3.581   7.972   9.780 -0.3753 -0.0803 -0.0110
 4819W        W 8883  10.476   7.201  10.417  0.1498  0.1495  0.1349
 4820W        W 8884   6.182   0.848   2.569  0.0343 -0.3023  0.0721
 4821W        W 8885   3.988   3.253   0.609 -0.0178 -0.0858  0.0340
 4822W        W 8886   7.466   0.474  11.050  0.0858  0.0361  0.1271
 4823W        W 8887   8.193   7.164   0.733 -0.2955 -0.2164 -0.0495
 4824W        W 8888   3.038   3.882   2.947 -0.1814 -0.1524  0.1821
 4825W        W 8889   2.570   9.590   2.067 -0.0108 -0.1824 -0.0052
 4826W        W 8890   3.151   4.424   2.862  0.2252  0.2868  0.0517
 4827W        W 8891   8.276   1.253  10.339 -0.4150 -0.0520  0.0185
 4828W        W 8892   9.364   8.039   3.510  0.0777 -0.1166  0.2209
 4829W        W 8893   3.114   5.567   9.809  0.0295 -0.0803  0.0756
 4830W        W 8894   6.117   3.610  10.050  0.4539  0.1353  0.1130
 4831W        W 8895   2.885   1.277   3.233  0.2936  0.4013 -0.0330
 4832W        W 8896   3.365   9.605   9.166 -0.1718  0.0356 -0.1289
 4833W        W 8897   6.437   3.198   2.473 -0.0760 -0.2633  0.3459
 4834W        W 8898   9.556   8.422   9.627 -0.0007 -0.0892  0.1998
 4835W        W 8899   7.772  10.217   2.928 -0.1559  0.1722  0.3530
 4836W        W 8900   8.282   9.833  10.701  0.4333  0.1038 -0.0459
 4837W        W 8901   4.201   1.796  11.494 -0.1020  0.2537  0.1043
 4838W        W 8902   2.724   8.457   3.354 -0.0657  0.0234 -0.0139
 4839W        W 8903   0.768   5.096   3.280 -0.2142 -0.2678  0.3860
 4840W        W 8904  10.252   0.483   1.171  0.1838  0.0917  0.1046
 4841W        W 8905   5.185   7.827  10.117  0.1478 -0.2613  0.2718
 4842W        W 8906   8.552   9.884   1.665  0.1777  0.1032 -0.1814
 4843W        W 8907   9.840   3.595   8.378  0.1775 -0.0254 -0.3556
 4844W        W 8908   3.748   5.909   8.567  0.0134  0.3939  0.1972
 4845W        W 8909   8.167   4.831   4.187 -0.0174 -0.0942  0.2535
 4846W        W 8910   3.713   0.743   7.207 -0.0241 -0.1676  0.1794
 4847W        W 8911   8.730   4.891   0.808  0.3188  0.3069 -0.0417
 4848W        W 8912   4.508   0.081   9.252 -0.1437 -0.4059  0.0722
 4849W        W 8913   8.733   8.395   9.299 -0.2322  0.1127 -0.0943
 4850W        W 8914   2.394   1.206  10.007 -0.2117  0.0132 -0.0970
 4851W        W 8915   2.030  10.243   3.356  0.1327 -0.1614 -0.2944
 4852W        W 8916   1.840   2.916   3.086  0.2049 -0.0482 -0.1591
 4853W        W 8917   0.405   4.719   8.474 -0.1550  0.0107  0.2754
 4854W        W 8918   4.579   3.180   4.589  0.2060  0.0597 -0.0001
 4855W        W 8919   0.581   2.123   2.287 -0.4811 -0.2534  0.3295
 4856W        W 8920   1.605   0.428   9.828  0.2920 -0.1813  0.0188
 4857W        W 8921  10.030   4.564   0.361 -0.2400  0.3368 -0.1012
 4858W        W 8922   2.712  10.621   9.473 -0.2118 -0.2092 -0.3624
 4859W        W 8923   8.579   8.098  10.301 -0.0757  0.1179  0.1258
 4860W        W 8924   6.223   8.228   1.207  0.1240 -0.2646  0.0279
 4861W        W 8925   1.080  10.360  10.031  0.2214 -0.0046  0.0295
 4862W        W 8926   4.130   9.612   2.177 -0.1304  0.0257 -0.4517
 4863W        W 8927   4.130   6.585  11.472  0.0861 -0.1935  0.0765
 4864W        W 8928   9.403   5.458   1.866  0.1280 -0.0698  0.0794
 4865W        W 8929   0.814   4.620   3.448 -0.0197  0.0412 -0.1213
 4866W        W 8930   1.269   8.043   7.810 -0.0617 -0.2406  0.0411
 4867W        W 8931   8.321   5.222  10.881  0.2130  0.2626 -0.1347
 4868W        W 8932   6.830   2.175   4.224 -0.1795 -0.1034 -0.1425
 4869W        W 8933   2.402   9.760  11.236  0.2323  0.3302  0.1783
 4870W        W 8934   7.256   2.069   2.889  0.1469  0.1788 -0.1876
 4871W        W 8935   8.195   6.241   1.892  0.4115  0.0302 -0.1003
 4872W        W 8936   8.403   6.943   8.613 -0.2038 -0.1452  0.0335
 4873W        W 8937   2.075   9.741  10.397  0.0512  0.1915 -0.1444
 4874W        W 8938   8.883   8.591  10.383 -0.2559 -0.1555 -0.0597
 4875W        W 8939   7.665   7.939   2.682 -0.0100  0.0285 -0.0247
 4876W        W 8940   7.231   4.540   9.548 -0.2067 -0.0718  0.2827
 4877W        W 8941   6.910   0.480  10.840  0.0838  0.2828  0.2303
 4878W        W 8942   9.873   2.483  10.722  0.2375 -0.0310 -0.1935
 4879W        W 8943   0.840   2.541   9.275 -0.0069 -0.0884 -0.0434
 4880W        W 8944   8.542   6.475   3.461 -0.0556 -0.2874 -0.0748
 4881W        W 8945   1.080   8.783   9.405  0.1606  0.0719  0.2093
 4882W        W 8946   1.229  10.424   7.598  0.1291 -0.1068  0.1539
 4883W        W 8947   0.596   2.214   8.276  0.0019  0.2637 -0.2797
 4884W        W 8948   5.922   7.355   4.795  0.0659 -0.0764  0.2989
 4885W        W 8949   9.064   8.711  10.939  0.3777  0.4285 -0.0546
 4886W        W 8950   5.157   5.257   8.993  0.3851  0.0252 -0.2158
 4887W        W 8951   8.087   6.972  11.163  0.2456  0.0809  0.1624
 4888W        W 8952   0.744   7.248   2.832  0.3356 -0.0866 -0.0101
 4889W        W 8953   0.106   3.278   1.339 -0.1730 -0.3027 -0.2598
 4890W        W 8954   3.730   7.001   9.338 -0.0275  0.5284  0.2173
 4891W        W 8955  10.451   3.881   3.131  0.0559  0.0886 -0.2230
 4892W        W 8956   4.434   6.432   9.262  0.3847  0.2732  0.1818
 4893W        W 8957   6.776   3.128   9.756  0.0007  0.1780 -0.0071
 4894W        W 8958   7.877   8.420   8.495 -0.3236  0.0771 -0.0417
 4895W        W 8959   3.006   2.054   7.488  0.0542  0.0477  0.0487
 4896W        W 8960   8.390   8.518   8.362 -0.3430  0.4355  0.1701
 4897W        W 8961  10.050   0.813   1.497  0.1316 -0.3490  0.0300
 4898W        W 8962   6.759   4.128   2.298 -0.0433  0.1395  0.2190
 4899W        W 8963   2.348   3.113   0.741  0.2803  0.1006 -0.0019
 4900W        W 8964   3.189   3.428   2.946 -0.1178  0.1760  0.0473
 4901W        W 8965   8.638   3.743   2.262 -0.0049 -0.1912  0.2690
 4902W        W 8966   2.800   5.885   4.119  0.2032  0.2853 -0.1406
 4903W        W 8967   6.873   6.339  10.848 -0.0206 -0.2065  0.2357
 4904W        W 8968   8.885   1.303  11.194 -0.2829 -0.1095 -0.3356
 4905W        W 8969   1.612   1.417  10.795  0.2603 -0.1568 -0.0063
 4906W        W 8970   9.273   8.359   9.081  0.1342  0.0170 -0.1363
 4907W        W 8971   3.528   9.617  11.561  0.0230  0.1960  0.1642
 4908W        W 8972   4.178   2.924   3.273 -0.2257 -0.1209  0.0366
 4909W        W 8973  10.305   0.068   3.206 -0.1636  0.1875 -0.0200
 4910W        W 8974   4.985   4.550  10.712  0.2474 -0.1539 -0.3318
 4911W        W 8975   8.484   2.315  10.989 -0.1213  0.3256 -0.3299
 4912W        W 8976   6.407   6.953   1.597 -0.3649 -0.1438  0.0657
 4913W        W 8977   5.254   7.613   3.635 -0.1598 -0.1645  0.1771
 4914W        W 8978   0.814   2.180   2.850 -0.0208 -0.3312 -0.2623
 4915W        W 8979   2.337   5.727   3.092  0.1484  0.1252  0.1976
 4916W        W 8980   9.917  10.642   8.875  0.0912  0.4660  0.1533
 4917W        W 8981   0.947   8.242   9.386 -0.1673  0.0440  0.0117
 4918W        W 8982   5.769   2.667   4.142  0.1931 -0.0646  0.0423
 4919W        W 8983   3.408   5.841   2.300  0.0645 -0.1297 -0.3250
 4920W        W 8984   5.059   3.094   0.685  0.1728  0.2801  0.0511
 4921W        W 8985   1.196  10.567   3.371  0.0632  0.3048  0.0428
 4922W        W 8986   5.559  10.143   0.976 -0.1405 -0.1406  0.0508
 4923W        W 8987   2.831   7.377   2.022  0.2965  0.0943 -0.1035
 4924W        W 8988   6.503   1.402   8.252  0.2590  0.3631  0.2243
 4925W        W 8989   0.696   9.853   8.922  0.0500 -0.1127  0.1008
 4926W        W 8990   2.766   6.961   7.842 -0.0732  0.0547 -0.2488
 4927W        W 8991   1.836   8.209   4.023 -0.2961  0.1459 -0.2150
 4928W        W 8992   2.856   2.252  11.448  0.1663  0.0954 -0.0160
 4929W        W 8993   3.412   2.405   1.275 -0.1333 -0.0036  0.5271
 4930W        W 8994   3.693   9.839   8.432  0.2175 -0.0574  0.0537
 4931W        W 8995   1.343   9.641   9.617 -0.1507 -0.1637  0.1365
 4932W        W 8996   5.787   6.971  10.399  0.0712 -0.1659 -0.3952
 4933W        W 8997   6.951   3.920   3.915 -0.0120  0.1148  0.0963
 4934W        W 8998   4.818   0.780   9.621  0.2778  0.1200  0.0895
 4935W        W 8999   8.624   6.583   8.903 -0.0959  0.1455 -0.1763
 4936W        W 9000   0.586   2.900   9.563  0.0234  0.0678  0.0343
 4937W        W 9001   5.148   3.454   0.293  0.4089  0.0611  0.1602
 4938W        W 9002   2.467   2.089   8.224  0.2902  0.1003  0.1740
 4939W        W 9003   9.011   9.750   9.697 -0.1750 -0.1337 -0.3894
 4940W        W 9004   6.806  10.309  10.718  0.3251  0.0640  0.0144
 4941W        W 9005   5.623   8.831   0.186  0.0819 -0.1826  0.2060
 4942W        W 9006   2.106   6.045   8.749  0.1562 -0.0267  0.0747
 4943W        W 9007  10.498   6.714   2.282  0.0783  0.0220 -0.3085
 4944W        W 9008   6.790   4.943   2.939  0.1706 -0.2848 -0.3113
 4945W        W 9009   6.811   8.326   2.435  0.1457  0.1169  0.2592
 4946W        W 9010   2.064   3.423   4.365  0.1134 -0.0496  0.1329
 4947W        W 9011   4.341   5.631   2.797  0.1658  0.0211 -0.0229
 4948W        W 9012   0.820   3.822   2.838 -0.3615  0.1470  0.0592
 4949W        W 9013   0.696   6.931   8.134 -0.1896 -0.3547  0.0228
 4950W        W 9014   0.155   3.094   9.279 -0.2205  0.0244 -0.2195
 4951W        W 9015   2.231  10.581   9.773  0.1302  0.2152  0.2588
 4952W        W 9016   4.511   4.206   2.394  0.1183 -0.0278  0.0370
 4953W        W 9017   6.741   4.305  10.447  0.4860 -0.2035 -0.0227
 4954W        W 9018   2.996   9.067   2.176  0.1508 -0.0149  0.0538
 4955W        W 9019   5.333   2.149   1.652 -0.0393  0.0176  0.0998
 4956W        W 9020   1.309   6.379   8.807 -0.0851 -0.0481 -0.4577
 4957W        W 9021  10.101   1.515  10.424 -0.2321 -0.3711 -0.1419
 4958W        W 9022   7.137   3.992   0.230 -0.2491 -0.0760 -0.0155
 4959W        W 9023   0.913   4.183   9.408 -0.0374  0.2295  0.1276
 4960W        W 9024   9.939   4.626   1.876  0.2717  0.0467  0.2879
 4961W        W 9025   9.738  10.278   3.129  0.0399 -0.1043  0.1628
 4962W        W 9026   5.349   8.945   8.842 -0.0907  0.1985  0.0129
 4963W        W 9027   9.666  10.338   2.593 -0.0301  0.1485  0.2555
 4964W        W 9028   3.842   5.099  10.314 -0.0228  0.1816 -0.0520
 4965W        W 9029   4.960   9.973   9.492 -0.2131 -0.0749 -0.0497
 4966W        W 9030   6.092   8.264   9.975 -0.2109  0.1926 -0.2991
 4967W        W 9031   3.190   6.509  11.134  0.0167 -0.3689  0.1306
 4968W        W 9032   4.314   4.520   8.237  0.2744  0.3014  0.1542
 4969W        W 9033   4.768   7.262  10.419  0.1839  0.2058  0.0133
 4970W        W 9034   6.059   3.460   2.191 -0.0409  0.0992 -0.2373
 4971W        W 9035   9.868   0.211   7.977  0.0703 -0.3120 -0.0348
 4972W        W 9036   9.062   7.146   1.365 -0.0171 -0.2140 -0.0568
 4973W        W 9037   0.727   3.790   3.458 -0.0775 -0.0048  0.1747
 4974W        W 9038   1.463   3.349   2.314  0.2362 -0.2209  0.0508
 4975W        W 9039   3.327   2.683   0.861  0.1807  0.1150 -0.2029
 4976W        W 9040   6.623   0.067  11.027  0.4650  0.1017  0.1692
 4977W        W 9041   9.919   8.675   1.636  0.2893  0.1658  0.2017
 4978W        W 9042   8.521  10.575  10.082 -0.1098  0.1056  0.1238
 4979W        W 9043   9.706   5.231   9.328 -0.0481  0.1370  0.2159
 4980W        W 9044   7.227  10.064  11.054 -0.2018  0.2354  0.1733
 4981W        W 9045   8.235   1.964   0.650  0.1997 -0.0684  0.1006
 4982W        W 9046   6.548   4.086   1.114  0.1731 -0.1740  0.2849
 4983W        W 9047   2.254   7.299   1.191 -0.2158 -0.1998  0.0441
 4984W        W 9048   8.613   1.165   0.963  0.2548  0.0041 -0.2644
 4985W        W 9049   3.974   4.915   0.771  0.2707 -0.0889  0.1683
 4986W        W 9050   6.561   3.021   9.328 -0.0432 -0.1207 -0.0639
 4987W        W 9051  10.080   9.985   9.521  0.0065 -0.0373  0.1462
 4988W        W 9052   4.484   6.532   1.309 -0.1644  0.1092 -0.0290
 4989W        W 9053   4.605   2.916   2.742 -0.1007  0.0581 -0.0765
 4990W        W 9054   2.560   6.635   8.936 -0.4272  0.1611 -0.0331
 4991W        W 9055   2.405   9.329   0.997 -0.0262  0.1584  0.0640
 4992W        W 9056   1.021   3.422   3.125 -0.0339 -0.0956 -0.2962
 4993W        W 9057   8.104   4.647  10.290  0.1678  0.1914 -0.0554
 4994W        W 9058   1.044   7.607   8.632  0.0954  0.0553 -0.0406
 4995W        W 9059   9.144   9.090   0.515 -0.3037  0.0001 -0.0565
 4996W        W 9060   7.334   7.272   0.867 -0.0277  0.0712  0.0049
 4997W        W 9061   5.000   8.818   2.979  0.1612 -0.1652 -0.3408
 4998W        W 9062   1.275   7.063   0.162  0.1330 -0.1222  0.2621
 4999W        W 9063  10.270  10.561  11.041  0.3952  0.1072 -0.0335
 5000W        W 9064   9.139   3.100   4.111  0.0294 -0.0211 -0.0315
 5001W        W 9065   3.075   0.327   8.166  0.2391  0.1868 -0.1650
 5002W        W 9066   8.591   2.015  10.582 -0.1646  0.1133 -0.2661
 5003W        W 9067   7.267   7.381   3.481  0.1584  0.0073  0.2459
 5004W        W 9068   0.178   0.409   1.021 -0.3518  0.2970 -0.0665
 5005W        W 9069   3.044  10.153   3.480 -0.2465  0.1702  0.0691
 5006W        W 9070   1.115   0.353   3.158 -0.0438 -0.1748 -0.0900
 5007W        W 9071   4.474   8.239   1.607 -0.0304  0.1946 -0.3652
 5008W        W 9072   6.948   6.989   1.753 -0.0833 -0.1111  0.1005
 5009W        W 9073  10.464   1.824   3.383 -0.0664  0.3091 -0.0178
 5010W        W 9074   2.230   4.256   3.230 -0.2630 -0.1636  0.1804
 5011W        W 9075   6.015   6.588  10.705  0.1012  0.0540 -0.0906
 5012W        W 9076   8.430   3.010   1.002  0.0099 -0.1632  0.3419
 5013W        W 9077   9.424   8.003  11.338 -0.1567 -0.4753  0.0620
 5014W        W 9078   7.370   5.245   7.651 -0.3107  0.3284 -0.2599
 5015W        W 9079   0.894   8.799   1.591 -0.0736  0.0450  0.2749
 5016W        W 9080   4.723   6.474   2.660  0.1394  0.3461 -0.2283
 5017W        W 9081   6.443   2.740   1.661 -0.0904 -0.0187  0.1904
 5018W        W 9082   1.506  10.169   3.357 -0.1586  0.0802 -0.2142
 5019W        W 9083   3.566  10.154  10.371 -0.0001  0.3042 -0.1214
 5020W        W 9084   0.579  10.056  10.848 -0.1731 -0.2284  0.1179
 5021W        W 9085   2.405   7.107  11.278  0.0379 -0.0892 -0.3413
 5022W        W 9086   7.450   6.121   0.851  0.0230  0.1510  0.1492
 5023W        W 9087   1.806   8.799  10.664 -0.4714  0.2016 -0.1326
 5024W        W 9088   6.255  10.148   9.876 -0.1833  0.0931  0.1521
 5025W        W 9089   0.697   7.380   4.303 -0.2198 -0.2171  0.2607
 5026W        W 9090   5.457   7.704  10.953 -0.1953  0.0954  0.1584
 5027W        W 9091   1.513   5.509   4.471 -0.1260 -0.0096  0.2505
 5028W        W 9092   3.704   2.813   3.103  0.0967  0.0926  0.1744
 5029W        W 9093   7.821   4.813  11.251  0.2705  0.0248 -0.2226
 5030W        W 9094  10.539   8.959  10.167 -0.0384 -0.1750 -0.0719
 5031W        W 9095   7.716   1.790   1.399 -0.1528  0.0737 -0.0674
 5032W        W 9096   2.834   0.801   9.056 -0.1122 -0.1774 -0.1611
 5033W        W 9097   0.622   0.972   2.080  0.0297 -0.1949  0.2347
 5034W        W 9098   0.049   1.403   9.304 -0.2996  0.2446 -0.2800
 5035W        W 9099   1.335   0.476   0.382 -0.0811 -0.1179  0.1762
 5036W        W 9100   4.275   1.173   2.753  0.2499 -0.0445 -0.3946
 5037W        W 9101   3.107   9.047   3.261  0.1239 -0.4012  0.1899
 5038W        W 9102   5.736   4.169   3.703 -0.2120 -0.5537  0.0355
 5039W        W 9103   7.930   9.506   0.008  0.0116 -0.0936  0.0577
 5040W        W 9104   6.051   0.492   1.405  0.1453  0.1061 -0.1833
 5041W        W 9105   6.978   3.599   1.895  0.1841  0.5013  0.3024
 5042W        W 9106   3.688   7.049   1.712  0.0250 -0.0109  0.0711
 5043W        W 9107   6.249   6.935  10.159  0.0815 -0.0991  0.0827
 5044W        W 9108   0.693   8.921   2.285 -0.0259 -0.0475 -0.0620
 5045W        W 9109   3.314   3.275   0.865  0.1561  0.0956 -0.0042
 5046W        W 9110   9.555   5.638   9.808  0.0029 -0.0448 -0.0717
 5047W        W 9111   6.229   7.095   3.911 -0.1614  0.0732  0.1745
 5048W        W 9112   1.316   0.746  10.116 -0.0719 -0.0153  0.2364
 5049W        W 9113   2.059   4.587   1.417  0.0066 -0.0920 -0.1964
 5050W        W 9114   7.909   9.235   0.416  0.3516 -0.0093  0.0683
 5051W        W 9115   6.042   8.808   0.612  0.1049  0.1409 -0.0116
 5052W        W 9116   9.052   3.044   0.489 -0.2158 -0.2383 -0.0249
 5053W        W 9117   4.320   9.221  11.525 -0.1566 -0.2794 -0.1174
 5054W        W 9118   6.873   2.871   3.644 -0.0935 -0.0505  0.0847
 5055W        W 9119   1.742   5.901  11.099 -0.0315  0.1152 -0.1592
 5056W        W 9120   8.760   3.255   0.117  0.1315  0.0886  0.0820
 5057W        W 9121   5.135   5.666   0.572 -0.0399  0.3234 -0.2499
 5058W        W 9122  10.392   4.037   0.833  0.0346  0.3099  0.1483
 5059W        W 9123   6.753   9.371  10.905 -0.2243 -0.1143  0.3100
 5060W        W 9124   9.022   3.695   9.482  0.1499  0.3150 -0.0441
 5061W        W 9125  10.597   0.723   1.429 -0.1068 -0.0880  0.0798
 5062W        W 9126  10.354  10.041   3.822 -0.2458  0.1519 -0.1273
 5063W        W 9127   9.627   1.393  10.723  0.0056  0.2454  0.2595
 5064W        W 9128   3.347   7.360   0.770  0.0639 -0.2527 -0.0271
 5065W        W 9129   3.091   8.973   2.755  0.0527  0.1745 -0.0964
 5066W        W 9130   9.881   3.872  10.094  0.1843 -0.0114  0.1798
 5067W        W 9131   5.237   7.137   0.130  0.0825  0.2897  0.2320
 5068W        W 9132   9.296   0.763   0.968 -0.1006 -0.0770 -0.3203
 5069W        W 9133   0.787   8.770  10.965  0.0300  0.2067 -0.1197
 5070W        W 9134   7.618   5.606   1.454  0.0283  0.0342 -0.2467
 5071W        W 9135   5.985   9.768  10.398 -0.0044  0.1966 -0.0085
 5072W        W 9136   3.748   9.215   9.239 -0.3097 -0.0326 -0.3165
 5073W        W 9137   2.419   1.856   1.842  0.3245  0.0327  0.2000
 5074W        W 9138   5.819   4.898   9.337 -0.0211  0.1545 -0.1241
 5075W        W 9139   1.015   5.201   0.505 -0.1594 -0.1054  0.1365
 5076W        W 9140   7.201   3.032  10.796 -0.1153  0.0584  0.0913
 5077W        W 9141   2.422   2.471  11.212  0.0794 -0.0044  0.1470
 5078W        W 9142   0.719   1.740  10.403  0.0439  0.1349 -0.1148
 5079W        W 9143   0.535   1.722   2.967  0.0149  0.1243 -0.1042
 5080W        W 9144   9.847   7.239   8.217  0.2349  0.2412  0.2471
 5081W        W 9145   7.348   7.332   2.643 -0.0231  0.1799  0.1220
 5082W        W 9146   4.838  10.338   3.061 -0.4081  0.0540 -0.1484
 5083W        W 9147   2.381   1.808   3.274 -0.2190 -0.3359  0.3050
 5084W        W 9148   5.791   7.648   3.575 -0.0932  0.1653 -0.1184
 5085W        W 9149   9.785   1.879   1.909 -0.0592  0.2910 -0.0833
 5086W        W 9150   1.257   0.629   1.086 -0.0996 -0.0306 -0.0246
 5087W        W 9151   3.315   1.947   9.544  0.0178 -0.2748 -0.1688
 5088W        W 9152   1.326   5.340  10.177 -0.3206  0.1088 -0.0926
 5089W        W 9153   3.898   2.121   7.590  0.1029  0.1850 -0.2145
 5090W        W 9154  10.531   8.488   2.905  0.1003  0.1861 -0.0856
 5091W        W 9155   7.911   3.217   3.374 -0.0471  0.0509 -0.0415
 5092W        W 9156   1.860   5.546   3.899 -0.1791  0.1014 -0.2657
 5093W        W 9157   0.472   8.147  10.417 -0.1814 -0.3769 -0.3536
 5094W        W 9158   7.244   6.842   9.973 -0.1854 -0.1662 -0.0224
 5095W        W 9159   3.701   3.411   9.516  0.0391 -0.2914 -0.2006
 5096W        W 9160   1.191   2.114  11.082 -0.0126  0.0629  0.1269
 5097W        W 9161   8.773   8.583   0.362 -0.1349  0.2448 -0.3131
 5098W        W 9162   8.339   4.810  11.157  0.2659 -0.3005  0.2370
 5099W        W 9163   2.971   2.404  10.696 -0.2647  0.3760  0.0551
 5100W        W 9164   9.920   0.765   8.237 -0.0721 -0.2893  0.0772
 5101W        W 9165   7.859   6.246   0.592 -0.0645 -0.4324  0.0336
 5102W        W 9166   0.226   9.663   9.091 -0.0267  0.0332 -0.1998
 5103W        W 9167   9.849   3.606   0.380  0.0147  0.0359 -0.1826
 5104W        W 9168  10.550   2.328   9.244  0.0860 -0.1541 -0.0808
 5105W        W 9169   8.890  10.606  11.043  0.0377  0.0527  0.0482
 5106W        W 9170   5.674   0.217   1.551 -0.0778 -0.1727 -0.1240
 5107W        W 9171   6.175   1.912   3.157 -0.3490  0.1240  0.0673
 5108W        W 9172  10.097   2.394   1.221  0.2014 -0.1769 -0.2286
 5109W        W 9173   3.431   8.373   7.341  0.0470  0.0991  0.0552
 5110W        W 9174   3.441   7.281   0.271 -0.3599 -0.1807  0.2414
 5111W        W 9175   2.532   8.830  11.373  0.1031  0.1183  0.0244
 5112W        W 9176   7.335   8.186   9.582 -0.2528  0.1757  0.2038
 5113W        W 9177   8.741   2.998  11.098 -0.0439 -0.3261  0.0957
 5114W        W 9178   4.907  10.411   3.587 -0.2510 -0.1132 -0.0711
 5115W        W 9179   8.548  10.551   1.886 -0.2010 -0.3318 -0.0477
 5116W        W 9180   7.088   7.558   1.266 -0.1525  0.3246  0.0803
 5117W        W 9181   3.241  10.390   0.561 -0.0758 -0.0117  0.2378
 5118W        W 9182   3.968   4.308   2.152 -0.2736  0.0342  0.1940
 5119W        W 9183   3.852   5.795   0.138  0.3576 -0.0093  0.0277
 5120W        W 9184   2.210   6.521   0.169 -0.1034  0.1250 -0.2040
 5121W        W 9185   0.944   3.495   1.010 -0.2989  0.2978 -0.1602
 5122W        W 9186   8.750   7.194   9.686 -0.1068 -0.0071  0.0035
 5123W        W 9187   7.313   1.555   1.319 -0.1741 -0.1082 -0.2298
 5124W        W 9188   8.313   3.865   3.434 -0.1739  0.1523  0.1674
 5125W        W 9189   1.650   7.921   1.349 -0.3103 -0.0311 -0.2338
 5126W        W 9190  10.278  10.294   2.126 -0.1145  0.2393  0.0004
 5127W        W 9191   6.506   4.936  10.206  0.0204 -0.2130  0.0449
 5128W        W 9192   9.006   7.373   0.076  0.1596  0.1731 -0.5005
 5129W        W 9193   6.870   1.738   2.560 -0.0361 -0.0452 -0.1294
 5130W        W 9194   7.743   3.333  10.070  0.3893 -0.2218 -0.0296
 5131W        W 9195   4.885   0.074  11.544 -0.1549 -0.3214 -0.2311
 5132W        W 9196   6.381   6.460   9.980 -0.0049  0.1448  0.0954
 5133W        W 9197   5.351   6.985   1.495  0.0855  0.1154 -0.3981
 5134W        W 9198   4.939   6.960   4.099 -0.0197 -0.3217  0.3959
 5135W        W 9199   3.639   3.092   2.121 -0.1752 -0.0322  0.1135
 5136W        W 9200   2.081   4.223   2.187 -0.1657 -0.0619  0.0418
 5137W        W 9201   0.032  10.539   2.865 -0.2599  0.1864 -0.0727
 5138W        W 9202   7.070   6.493   1.095 -0.1175  0.2384  0.0510
 5139W        W 9203   4.077   4.561   9.092  0.1007  0.0294  0.1086
 5140W        W 9204   1.149   3.932   1.242 -0.0788 -0.0084 -0.1289
 5141W        W 9205   0.429   8.793   1.885 -0.0750  0.1087  0.1247
 5142W        W 9206   8.590   2.588   3.670  0.2545  0.1156 -0.3300
 5143W        W 9207  10.218   1.868   2.258  0.0567  0.3772  0.0264
 5144W        W 9208  10.051   7.112   3.225  0.0969  0.3185  0.0819
 5145W        W 9209   5.254   7.996  11.363 -0.0398  0.1236 -0.1681
 5146W        W 9210   1.622   0.850   2.077  0.1413  0.1678  0.2274
 5147W        W 9211   6.623   1.050   1.428 -0.3472 -0.0600  0.1829
 5148W        W 9212   7.101   6.173   9.372 -0.1866  0.0322 -0.0418
 5149W        W 9213   5.995   7.254   0.798 -0.0343  0.2250  0.1787
 5150W        W 9214   5.031   9.633   0.967 -0.2678  0.1600 -0.2572
 5151W        W 9215   2.447   2.017   1.142 -0.1167 -0.2291 -0.1778
 5152W        W 9216   5.527   0.924  10.450  0.2051 -0.1255  0.1313
 5153W        W 9217   5.105   9.801   3.837 -0.1289  0.1380 -0.1681
 5154W        W 9218   2.792   4.523   0.838 -0.2317  0.0629  0.2809
 5155W        W 9219   2.750   7.590   2.513 -0.0379  0.0937  0.0154
 5156W        W 9220   8.352   4.180   2.260 -0.0999  0.1449 -0.5039
 5157W        W 9221   0.943   5.744   3.854 -0.1366 -0.0825 -0.0632
 5158W        W 9222   2.194   1.684  10.962 -0.1009  0.0141  0.0440
 5159W        W 9223   3.837   0.574   0.459  0.1939 -0.1638 -0.2747
 5160W        W 9224   9.565   7.405  10.698  0.0186  0.0192 -0.2396
 5161W        W 9225   3.789   1.574   1.101  0.0983  0.1655 -0.0851
 5162W        W 9226   3.460   2.800   3.540  0.0096 -0.0060 -0.0219
 5163W        W 9227   2.358   5.297   3.595 -0.0681  0.3772 -0.1241
 5164W        W 9228   9.689   6.041  11.265  0.1697 -0.3557  0.2135
 5165W        W 9229   7.448   2.743  11.172 -0.0747 -0.3426  0.1699
 5166W        W 9230   2.663   6.737   0.426 -0.1799  0.1096  0.3732
 5167W        W 9231   4.190   9.712   3.378 -0.1347  0.0807 -0.3398
 5168W        W 9232   3.858   0.576   7.648  0.1576  0.0098 -0.4494
 5169W        W 9233   4.076   2.673   0.536  0.3315 -0.1080 -0.1372
 5170W        W 9234   0.548   9.257   8.946 -0.0751 -0.1090 -0.1200
 5171W        W 9235   5.901   4.570  10.732 -0.2948 -0.1263  0.0059
 5172W        W 9236   6.554   9.969   0.690  0.0293 -0.2145 -0.4724
 5173W        W 9237   6.442   5.602  11.504  0.6455 -0.1789 -0.0833
 5174W        W 9238   4.897   8.109   1.239 -0.0714  0.3108  0.2648
 5175W        W 9239   4.094   7.251   2.456  0.2082 -0.1394  0.0448
 5176W        W 9240   1.201   6.409  11.214 -0.0863  0.1910 -0.0414
 5177W        W 9241   1.557   2.876   2.574 -0.0295 -0.2852 -0.1286
 5178W        W 9242   7.769   7.285   0.451 -0.1536  0.0996 -0.0903
 5179W        W 9243   0.468   7.220   3.903  0.1893  0.0960  0.2222
 5180W        W 9244   5.393   0.898   8.758 -0.2366 -0.0346 -0.0235
 5181W        W 9245   0.100   4.286   2.976 -0.0148  0.1190  0.4116
 5182W        W 9246  10.236   6.248   4.250 -0.0572  0.1515  0.2958
 5183W        W 9247   5.410   8.085   9.591  0.1474 -0.1761  0.1807
 5184W        W 9248   4.260   1.593   2.381  0.0185 -0.3200 -0.5028
 5185W        W 9249   0.403   7.058  11.563 -0.0449  0.2933  0.0980
 5186W        W 9250   1.700  10.568   3.566 -0.3717  0.1721  0.1830
 5187W        W 9251   0.407   9.431   8.145  0.0115 -0.4290  0.1525
 5188W        W 9252   9.739   3.804   3.038 -0.1439  0.0391 -0.0786
 5189W        W 9253   6.245   6.420   3.409  0.0023  0.1534  0.2052
 5190W        W 9254   4.852   4.164   7.578  0.1558  0.0928 -0.2022
 5191W        W 9255   4.204   7.591   3.232  0.3308 -0.3261 -0.2821
 5192W        W 9256   2.936   4.922   8.732 -0.2776 -0.3955  0.1414
 5193W        W 9257   5.129   4.522   0.355 -0.1280 -0.2381 -0.0971
 5194W        W 9258   6.512   4.497   0.088  0.1543 -0.0053 -0.3877
 5195W        W 9259   5.969   5.373  11.571  0.0076 -0.0205  0.0649
 5196W        W 9260   7.203   4.927   2.549  0.0124 -0.1802 -0.0306
 5197W        W 9261   8.631   4.009   0.481  0.0774 -0.2467 -0.0427
 5198W        W 9262   4.025   5.231   8.265 -0.2219  0.0499  0.0130
 5199W        W 9263   3.948   2.624  10.264  0.0203 -0.0937 -0.0218
 5200W        W 9264   3.405   0.764   0.255 -0.0043  0.1324  0.1086
 5201W        W 9265   5.152   6.554   0.213  0.2083 -0.0839 -0.0396
 5202W        W 9266   8.100   0.262  10.275  0.2496  0.0158 -0.1194
 5203W        W 9267   1.214  10.444   0.075 -0.1267 -0.0876 -0.0320
 5204W        W 9268   8.725   7.612   7.955 -0.2620 -0.1092 -0.2553
 5205W        W 9269   4.194   2.745  11.123  0.0546 -0.2900 -0.2640
 5206W        W 9270   6.417   1.918   1.758 -0.0821  0.2628  0.1000
 5207W        W 9271   4.712   1.640  11.071  0.2371 -0.5015 -0.0079
 5208W        W 9272   9.233   9.759   3.426 -0.0925  0.1979 -0.2060
 5209W        W 9273   0.410   9.936   8.127  0.0024  0.0637 -0.2171
 5210W        W 9274   2.839   0.500   9.515  0.0997  0.1201 -0.0796
 5211W        W 9275   2.702   4.381   3.131 -0.1956  0.2455  0.3606
 5212W        W 9276   1.265   3.388   3.968  0.0094  0.1020  0.1746
 5213W        W 9277   6.689   9.781  11.253 -0.3390 -0.1732 -0.3487
 5214W        W 9278   2.113   2.520   9.509 -0.1716 -0.2069  0.2637
 5215W        W 9279   6.829   7.798   1.700 -0.0678 -0.0581  0.1155
 5216W        W 9280   9.878   1.884   1.443 -0.0625  0.0527  0.1496
 5217W        W 9281   6.810   8.195  10.380  0.1253 -0.0522 -0.1192
 5218W        W 9282  10.200   8.472  10.210 -0.0575  0.0044 -0.0060
 5219W        W 9283  10.493   5.501   0.879  0.1647  0.2146 -0.3293
 5220W        W 9284   6.767   4.599   2.600  0.1885  0.0750  0.1098
 5221W        W 9285   1.724   6.371   0.396 -0.0057  0.1802  0.4130
 5222W        W 9286   2.361   6.824   8.338 -0.1844  0.2062  0.3872
 5223W        W 9287   0.188   6.568  10.377 -0.1903  0.1697  0.2360
 5224W        W 9288   0.223   5.271   7.688 -0.0872 -0.0042 -0.3536
 5225W        W 9289   7.587   5.527   2.674 -0.0589 -0.0605  0.3156
 5226W        W 9290   8.226   6.408  11.153 -0.3033  0.0727  0.1182
 5227W        W 9291   5.344   3.587   0.728  0.3047 -0.1975 -0.2750
 5228W        W 9292   1.125   3.844   2.433  0.2346  0.0412 -0.0867
 5229W        W 9293   5.616   2.141   8.918 -0.2492  0.1113 -0.4998
 5230W        W 9294   4.823   2.256  10.478 -0.0178 -0.0976 -0.3120
 5231W        W 9295   4.852   6.220   1.317  0.1627  0.0115 -0.0213
 5232W        W 9296   8.572   7.610   0.835 -0.1488 -0.0035  0.4593
 5233W        W 9297  10.022   6.372   8.483  0.2162 -0.1226 -0.1045
 5234W        W 9298   8.571   5.516   2.342  0.1339 -0.0342 -0.0519
 5235W        W 9299  10.199   5.973   1.914 -0.0098 -0.3552 -0.1548
 5236W        W 9300  10.150   4.444   9.956 -0.0300  0.0254 -0.1372
 5237W        W 9301   8.770   3.301   9.803 -0.3119 -0.2732 -0.0758
 5238W        W 9302   6.691   7.360   1.566  0.2577 -0.2773  0.2493
 5239W        W 9303   4.637   5.889   9.406 -0.0257 -0.2795 -0.0803
 5240W        W 9304   4.847   7.512   8.889  0.1077 -0.2414  0.0208
 5241W        W 9305   6.499   6.351   9.394  0.1144  0.1131 -0.1099
 5242W        W 9306   1.558   5.688   0.244  0.3328  0.0735 -0.1247
 5243W        W 9307   8.749   0.350   1.668 -0.0521 -0.0045  0.0716
 5244W        W 9308   6.069   9.010   1.194  0.1219 -0.0982  0.1083
 5245W        W 9309   4.739   6.458  11.066 -0.1716 -0.1054  0.0803
 5246W        W 9310   0.133   3.862   7.348  0.4580  0.1671 -0.4039
 5247W        W 9311   1.154   9.208   9.638  0.0036  0.0395  0.0061
 5248W        W 9312   5.828   1.785   9.297 -0.2196  0.0880  0.2566
 5249W        W 9313   4.457  10.082   9.122  0.0155  0.2384  0.0815
 5250W        W 9314   5.787  10.319  10.139 -0.3904 -0.0086  0.1310
 5251W        W 9315   2.862   1.764   0.761 -0.2723  0.2610  0.0669
 5252W        W 9316   2.939   8.045   1.435  0.2291 -0.0902  0.1308
 5253W        W 9317   7.165   7.017   1.333  0.0408 -0.1319  0.3187
 5254W        W 9318   7.157   9.995  11.522 -0.0280  0.4738 -0.3298
 5255W        W 9319   4.026   6.607   9.540 -0.0030  0.1059  0.0179
 5256W        W 9320   3.819   7.375   2.049  0.1884  0.2370  0.2330
 5257W        W 9321   3.687   4.219   0.589  0.0514 -0.0416  0.2944
 5258W        W 9322   5.095   0.994   1.721 -0.4094  0.2890  0.3222
 5259W        W 9323   7.193   4.734   3.067 -0.2144 -0.0349  0.1745
 5260W        W 9324  10.546   6.094   0.854  0.2268 -0.0606  0.0356
 5261W        W 9325   0.145   7.997   9.291  0.3075  0.0288  0.1060
 5262W        W 9326   3.414   5.755  10.683  0.1664  0.1273  0.1987
 5263W        W 9327   2.393   1.509   9.508 -0.1527 -0.1503 -0.0664
 5264W        W 9328   7.915   7.574  11.547 -0.0464 -0.1711  0.0276
 5265W        W 9329   6.595   7.680   0.035  0.0690 -0.2611  0.0176
 5266W        W 9330   5.887   3.194   9.181  0.0794  0.1366  0.0393
 5267W        W 9331   7.799   5.533   3.454 -0.0600  0.1767  0.1182
 5268W        W 9332   3.161   8.245   0.458  0.1932  0.0216  0.2601
 5269W        W 9333   1.007   0.206   2.309 -0.0847 -0.0601  0.0505
 5270W        W 9334   8.976   7.750  10.050  0.0729  0.1616  0.0181
 5271W        W 9335   4.380   2.460   2.569  0.1715 -0.2970  0.2342
 5272W        W 9336   0.409   2.484   3.532  0.1140  0.1267 -0.1809
 5273W        W 9337   2.952   2.425   8.352  0.1519 -0.0461  0.1404
 5274W        W 9338   3.584   4.459   1.465  0.2926  0.2513  0.2047
 5275W        W 9339   4.817   3.769   2.809 -0.1851 -0.1115  0.1490
 5276W        W 9340   5.875   5.812   9.366  0.0389  0.0694  0.1404
 5277W        W 9341   3.455  10.213  10.857  0.1230 -0.2980 -0.2355
 5278W        W 9342   9.958   5.948  10.057  0.0553 -0.2200 -0.0297
 5279W        W 9343   6.453   6.570  10.545  0.0272  0.1296  0.3051
 5280W        W 9344   1.127   1.191   0.313 -0.2250 -0.2215  0.0873
 5281W        W 9345   2.318   8.839   3.833 -0.0505  0.0838  0.2176
 5282W        W 9346   1.007   2.038   0.977  0.4046  0.0098  0.2594
 5283W        W 9347  10.499  10.248   1.103 -0.1273 -0.0258  0.3033
 5284W        W 9348   8.081   3.972   8.332  0.2714 -0.0856  0.3563
 5285W        W 9349   7.228   7.998   9.127  0.3379 -0.3144 -0.3002
 5286W        W 9350  10.600   2.317  10.185  0.1247 -0.0558  0.0483
 5287W        W 9351   0.417  10.093  10.356  0.0180  0.3572  0.0345
 5288W        W 9352   4.632   7.307   3.902  0.2182  0.0382 -0.2046
 5289W        W 9353   6.869   6.551  10.228 -0.4649  0.2827 -0.2095
 5290W        W 9354   8.631   8.819   1.871 -0.2344  0.2385 -0.2008
 5291W        W 9355   9.870  10.060   1.934 -0.0010 -0.0279 -0.3621
 5292W        W 9356   3.264   8.696   7.702 -0.2470 -0.1013  0.0773
 5293W        W 9357   2.820   5.855   9.275  0.1734 -0.0495  0.0426
 5294W        W 9358   4.900   6.045   4.813 -0.1938  0.1293 -0.0890
 5295W        W 9359   3.166   5.418   0.633  0.2626  0.2323 -0.0252
 5296W        W 9360   0.511   1.572  11.463 -0.0961  0.0085  0.0063
 5297W        W 9361   1.653   5.940   8.042  0.0072 -0.1044  0.0581
 5298W        W 9362   8.593   0.187   0.768  0.0701 -0.1868 -0.3225
 5299W        W 9363  10.137   3.411   2.830 -0.1752 -0.1028 -0.0948
 5300W        W 9364   1.827   7.025   3.115 -0.0476  0.1241 -0.1789
 5301W        W 9365  10.150   6.381   3.477  0.2285 -0.2918 -0.0141
 5302W        W 9366   2.155   0.714  11.136 -0.1029  0.1697 -0.1085
 5303W        W 9367   1.386  10.138   9.655  0.1378  0.1483 -0.1668
 5304W        W 9368  10.347   0.243   0.736  0.0672 -0.0690  0.0142
 5305W        W 9369   9.108   4.121   9.103  0.2536 -0.0781  0.2394
 5306W        W 9370   7.373   9.188   8.207  0.0257  0.1379  0.1488
 5307W        W 9371   2.929   2.502   3.495  0.0871  0.1192  0.2201
 5308W        W 9372   8.725   1.981   8.642  0.1149 -0.0263  0.1167
 5309W        W 9373   7.260   7.667   9.612  0.0846  0.0559 -0.2670
 5310W        W 9374   2.000   8.415  11.428  0.1817 -0.0278  0.0588
 5311W        W 9375   6.013   6.254   2.971 -0.0857 -0.0992 -0.0834
 5312W        W 9376   7.437  10.579   9.321 -0.0750  0.0807 -0.0014
 5313W        W 9377   9.794   3.988   8.796  0.0567  0.2184  0.1442
 5314W        W 9378   9.116   8.371   1.112 -0.1479 -0.0259  0.2350
 5315W        W 9379   9.691   4.930   0.574 -0.3424  0.1326 -0.0524
 5316W        W 9380   2.426   1.191   0.710 -0.3568 -0.0099 -0.1645
 5317W        W 9381   5.180   0.763   0.650  0.0076 -0.1093  0.2338
 5318W        W 9382   9.192   8.791   0.073 -0.2143  0.2677 -0.0116
 5319W        W 9383  10.089   2.634   1.724 -0.0299  0.0887 -0.1210
 5320W        W 9384   5.899  10.037   2.083 -0.4061 -0.1055 -0.2877
 5321W        W 9385   9.513   7.506   0.744 -0.4112  0.2308 -0.2846
 5322W        W 9386   1.682   1.389   9.244  0.0619  0.0504 -0.0801
 5323W        W 9387   4.256   8.361  10.154 -0.0496  0.1496 -0.0285
 5324W        W 9388   7.730  10.554  10.367  0.3231 -0.2473 -0.0969
 5325W        W 9389   4.799   4.806   0.064 -0.0024  0.1568  0.3370
 5326W        W 9390   1.029   8.482   4.111 -0.1711  0.5088 -0.1359
 5327W        W 9391   3.363   8.250   8.851 -0.1143 -0.0859 -0.0052
 5328W        W 9392   1.503   4.362  11.022 -0.1830  0.0703  0.1129
 5329W        W 9393   3.705   4.605   2.914 -0.0984 -0.0294  0.0782
 5330W        W 9394   0.542   9.736   2.601 -0.2323 -0.5938 -0.1336
 5331W        W 9395   1.624   2.172  10.274 -0.1369 -0.1380 -0.1077
 5332W        W 9396   3.848   6.174   9.419  0.1190 -0.5288  0.0684
 5333W        W 9397   2.875   8.439   1.072 -0.2201 -0.0967  0.4429
 5334W        W 9398   4.617   1.027  10.370 -0.1577 -0.0591 -0.0807
 5335W        W 9399   6.806   3.479  11.070 -0.0164  0.1583  0.0837
 5336W        W 9400   6.118   6.954   0.298  0.1306 -0.0459 -0.0404
 5337W        W 9401   1.428   0.775   3.231  0.1527 -0.1197  0.1420
 5338W        W 9402   2.814   9.411   2.975 -0.1741 -0.0600  0.0333
 5339W        W 9403   6.953   3.894   2.737 -0.0874 -0.3144  0.1807
 5340W        W 9404   4.433   0.336   3.547  0.0693 -0.1872  0.0495
 5341W        W 9405  10.043   2.967   2.101  0.2487 -0.2458 -0.0732
 5342W        W 9406   1.395   8.369   0.038 -0.2041 -0.1665 -0.0221
 5343W        W 9407   8.584   5.167   8.496 -0.1087 -0.2615 -0.1043
 5344W        W 9408   3.450   0.080   8.379  0.1928 -0.0404 -0.0286
 5345W        W 9409   2.994   6.914   9.718  0.2284  0.0784  0.0423
 5346W        W 9410   0.394   9.487   9.554 -0.0218 -0.0190 -0.0828
 5347W        W 9411   8.280   2.103   4.197  0.1700 -0.1902  0.1613
 5348W        W 9412   8.223  10.093   9.395 -0.3053 -0.1254  0.0323
 5349W        W 9413   6.098   1.851   3.627  0.0138 -0.2311 -0.0008
 5350W        W 9414   8.507   2.539   4.172 -0.4806  0.1398  0.0657
 5351W        W 9415   3.550   3.906  11.314 -0.2105 -0.2193 -0.3379
 5352W        W 9416   5.150   2.645   9.293  0.1249  0.1677 -0.0451
 5353W        W 9417   6.809   2.381   2.712  0.0244 -0.0950  0.3590
 5354W        W 9418   4.454   6.865   7.810  0.1044  0.1644  0.0583
 5355W        W 9419   3.357   7.305   3.172  0.3758 -0.0959 -0.3030
 5356W        W 9420   7.402   9.208   0.345 -0.1068 -0.1665 -0.0589
 5357W        W 9421  10.144   9.719   9.132  0.1870  0.2337  0.0432
 5358W        W 9422   8.539   6.062   2.224 -0.0202 -0.0712  0.0346
 5359W        W 9423   1.012  10.027   7.366  0.0370  0.2977 -0.2105
 5360W        W 9424   9.660   8.346   0.293  0.1443  0.0648  0.1539
 5361W        W 9425   7.042   7.547  11.412 -0.1555 -0.1747  0.0179
 5362W        W 9426   6.461   6.682   3.975 -0.2363  0.1746  0.1538
 5363W        W 9427   3.784   4.736   9.965  0.0110  0.0336 -0.0920
 5364W        W 9428   8.470   3.137  10.553 -0.0456 -0.3014  0.2046
 5365W        W 9429   7.051   5.283  10.576 -0.0158  0.2883 -0.0278
 5366W        W 9430  10.243   6.827   2.808 -0.0436  0.0767 -0.4682
 5367W        W 9431   9.490  10.123   0.633  0.2677 -0.2081 -0.2127
 5368W        W 9432   4.207   0.280   0.289  0.3736  0.1102  0.2880
 5369W        W 9433   2.004   9.554   0.783 -0.1080 -0.3165  0.1071
 5370W        W 9434   8.142   8.469  11.292 -0.1356 -0.0081  0.0380
 5371W        W 9435   2.643   8.916   3.079 -0.1625 -0.3087  0.0309
 5372W        W 9436   6.616   3.590   9.190  0.2431 -0.0736 -0.0965
 5373W        W 9437   6.601  10.538   2.014 -0.1920  0.2773  0.0130
 5374W        W 9438   0.739   0.618   1.127  0.1819 -0.1284 -0.1427
 5375W        W 9439   3.043  10.143  10.363 -0.2356  0.1225  0.0197
 5376W        W 9440   9.738   9.588  10.522 -0.1129  0.0998 -0.0602
 5377W        W 9441   6.263   6.429   1.136  0.0189  0.0171  0.0676
 5378W        W 9442   0.412   3.410   3.267 -0.0221  0.0727  0.2125
 5379W        W 9443   6.806   4.764   0.540  0.2411  0.0806  0.1144
 5380W        W 9444   6.249  10.352  10.988 -0.2172 -0.1700 -0.3385
 5381W        W 9445   6.914   8.587   0.123  0.1363  0.0574  0.0663
 5382W        W 9446   0.107   8.514   1.119  0.1995  0.1226  0.0321
 5383W        W 9447   3.882   6.933  11.192 -0.1447  0.1740 -0.1279
 5384W        W 9448   1.529   4.682   4.088 -0.0889 -0.2551  0.1494
 5385W        W 9449   3.730   9.873   1.999 -0.0336  0.0924  0.0255
 5386W        W 9450   2.364   2.667   9.897 -0.0736 -0.0793 -0.0276
 5387W        W 9451   7.101   3.945  10.352  0.4901 -0.0187 -0.1078
 5388W        W 9452   5.032  10.238   4.124 -0.0137  0.5932 -0.0645
 5389W        W 9453   6.919   0.014   9.348 -0.0579  0.0042 -0.0951
 5390W        W 9454  10.589   9.441   8.435  0.1658  0.1792  0.0488
 5391W        W 9455   3.092   3.631  10.471  0.0511 -0.1029 -0.2642
 5392W        W 9456   5.757   2.931   1.150  0.2233  0.2752 -0.4324
 5393W        W 9457   5.318   0.828   9.534  0.0389 -0.0431  0.0431
 5394W        W 9458   3.917   9.186   2.246  0.0971 -0.0947  0.2217
 5395W        W 9459   2.212   4.059   8.587 -0.1009  0.0143  0.0303
 5396W        W 9460   2.871   3.257   1.455 -0.0265  0.4696 -0.2574
 5397W        W 9461  10.090   6.065   0.026  0.1610 -0.1385  0.0188
 5398W        W 9462   5.296   7.897   0.831  0.0678 -0.1708  0.2737
 5399W        W 9463   1.213   7.957   0.234 -0.1140 -0.0957 -0.1099
 5400W        W 9464   7.704   1.808   2.945  0.3450  0.0719  0.0131
 5401W        W 9465   5.420   2.863  10.965 -0.0001 -0.0975  0.0576
 5402W        W 9466   7.393   7.286  10.017 -0.1663  0.2663  0.0361
 5403W        W 9467   2.423   4.353   9.537  0.1739 -0.1638 -0.0106
 5404W        W 9468  10.084   4.481   0.875  0.2665 -0.0847  0.0519
 5405W        W 9469   4.795   7.279   2.394 -0.0240  0.0782 -0.1049
 5406W        W 9470   7.354   2.108   1.274  0.0797  0.3298 -0.2907
 5407W        W 9471  10.533   9.165  11.022  0.1455 -0.0543 -0.1075
 5408W        W 9472   5.672   8.207  11.027  0.0301 -0.1456 -0.0956
 5409W        W 9473   0.272   2.572   8.249 -0.1408  0.1033 -0.0911
 5410W        W 9474   1.871   5.103   1.141 -0.2003 -0.0543 -0.0128
 5411W        W 9475   7.499   7.854   0.055  0.1503  0.0917  0.1755
 5412W        W 9476   9.574   7.495   1.889  0.2679  0.1664  0.2350
 5413W        W 9477  10.355   1.308   2.985 -0.1073  0.1449  0.0594
 5414W        W 9478   2.970   0.801   2.315 -0.0664 -0.0990  0.0624
 5415W        W 9479   3.526   4.135   2.807  0.0983 -0.2732  0.0218
 5416W        W 9480   2.671   8.551   8.324 -0.0520  0.1184 -0.3004
 5417W        W 9481   1.785   1.243   0.738 -0.1420  0.0813 -0.1239
 5418W        W 9482   6.278   9.478   1.406  0.0300 -0.2852  0.0805
 5419W        W 9483   7.498   4.133   9.187  0.1782 -0.1981  0.0808
 5420W        W 9484  10.306   4.263   0.015  0.2961 -0.0288  0.2426
 5421W        W 9485   7.652   1.997  11.040 -0.0193 -0.0644  0.0077
 5422W        W 9486   9.798   3.016   2.691  0.0006  0.2656 -0.2011
 5423W        W 9487  10.327   2.681   9.924 -0.2784 -0.1277 -0.1582
 5424W        W 9488   9.779   6.785   1.939 -0.1585  0.1352  0.2093
 5425W        W 9489  10.026   2.912   1.177  0.1705  0.4251 -0.0307
 5426W        W 9490   6.868   2.674   9.410 -0.0005 -0.1274 -0.2503
 5427W        W 9491   8.789   7.171   3.692  0.2998  0.1256 -0.1155
 5428W        W 9492   6.056   7.250   9.721 -0.2251 -0.0785 -0.1044
 5429W        W 9493   8.670   5.818   1.271 -0.2880  0.2184 -0.0245
 5430W        W 9494   3.813   0.985   8.858  0.0768 -0.2659 -0.2217
 5431W        W 9495   0.681   6.775  10.486 -0.0320  0.2399  0.2466
 5432W        W 9496   3.749   9.486   8.761  0.0556  0.3760 -0.0518
 5433W        W 9497   3.220   5.265   3.260  0.3004  0.1688 -0.0019
 5434W        W 9498   6.831   5.260   0.422 -0.0489 -0.3364  0.1698
 5435W        W 9499   8.891   0.028   9.598  0.0385  0.1514  0.0004
 5436W        W 9500   2.704   1.424   8.560  0.1510  0.0342  0.0552
 5437W        W 9501   3.046   3.525   0.492  0.1422 -0.1132 -0.2241
 5438W        W 9502   0.056   1.526   0.195 -0.5237 -0.1659  0.2289
 5439W        W 9503   1.799   1.503  11.277  0.0060  0.1188  0.0852
 5440W        W 9504   3.199   6.887   0.899 -0.0692  0.0157 -0.0977
 5441W        W 9505   0.119   9.952   1.425 -0.0101 -0.0919 -0.1421
 5442W        W 9506   6.573   0.643   8.597 -0.0764 -0.0910  0.0579
 5443W        W 9507   2.092   6.729   8.818  0.0396  0.0764 -0.2484
 5444W        W 9508   0.961   5.697   1.589 -0.0101 -0.1697  0.2633
 5445W        W 9509   7.801   6.329   3.939 -0.0101 -0.1446 -0.0205
 5446W        W 9510   9.049   0.869  11.321  0.0686  0.0296 -0.1354
 5447W        W 9511   4.581   8.396   0.198  0.1221  0.0596  0.1585
 5448W        W 9512   7.320   1.793  11.581  0.0850  0.2210  0.2290
 5449W        W 9513  10.141   5.932   2.429 -0.1945  0.3775  0.0030
 5450W        W 9514   6.367  10.298  10.361 -0.3365 -0.0855  0.1093
 5451W        W 9515   4.276   2.042   1.475  0.1093  0.1054 -0.5222
 5452W        W 9516   8.935   3.252   0.964  0.2890  0.1707  0.1837
 5453W        W 9517   4.091   3.128   9.528 -0.1147 -0.3047 -0.1362
 5454W        W 9518   1.232   4.185   2.762 -0.2129 -0.2122  0.0854
 5455W        W 9519   1.908   7.661   3.683 -0.3427 -0.4287  0.0574
 5456W        W 9520   9.549   6.437   4.407  0.0266  0.2038 -0.0114
 5457W        W 9521  10.383   7.629   3.133  0.0116  0.2285  0.2192
 5458W        W 9522   4.225   0.270   3.084 -0.1303  0.2641  0.0822
 5459W        W 9523   6.167   7.347   8.243 -0.1103  0.0786  0.0729
 5460W        W 9524   0.226  10.150   8.721 -0.0165 -0.2657 -0.2259
 5461W        W 9525   3.551   4.357   4.345  0.1001  0.0288 -0.1386
 5462W        W 9526  10.131   3.199  11.169  0.2096 -0.1414  0.2498
 5463W        W 9527   6.205   0.207   1.048 -0.1941  0.3581 -0.1270
 5464W        W 9528   2.094   3.589   0.371 -0.2716  0.1427 -0.0040
 5465W        W 9529   3.211   4.818   9.221  0.0358 -0.1257 -0.0908
 5466W        W 9530   5.256   9.470   1.374 -0.1568 -0.0848 -0.0999
 5467W        W 9531  10.635   0.624  10.587 -0.2205  0.2808 -0.1393
 5468W        W 9532   4.412   3.914   0.613 -0.0398  0.2388 -0.1318
 5469W        W 9533   4.746   7.673   3.384  0.0985  0.1849  0.0951
 5470W        W 9534   6.428   5.813   9.301  0.0515  0.2275 -0.1498
 5471W        W 9535   3.561   2.368   0.439 -0.1965 -0.0951  0.2431
 5472W        W 9536   1.031   0.868   1.819 -0.1389  0.1547 -0.1665
 5473W        W 9537   5.016   0.350   0.462 -0.2217  0.0347  0.1369
 5474W        W 9538   2.202   9.258  11.274 -0.1444  0.1664  0.1374
 5475W        W 9539   6.416   4.625   3.571 -0.0834  0.0611 -0.0540
 5476W        W 9540   8.916   8.160   4.734 -0.1106 -0.2821 -0.1549
 5477W        W 9541   0.079   3.733   3.560 -0.0895  0.2910 -0.2730
 5478W        W 9542   8.150   1.010   8.873  0.1453 -0.2914 -0.2483
 5479W        W 9543   9.438   4.103   8.440 -0.1889  0.1064 -0.0471
 5480W        W 9544   0.791   6.391   9.379 -0.0363 -0.0000 -0.0906
 5481W        W 9545   6.615   2.451  10.379 -0.2657  0.1508 -0.2413
 5482W        W 9546   0.277   6.994   9.695 -0.0319  0.2976 -0.2136
 5483W        W 9547   9.588   6.169   0.128  0.1194  0.0143 -0.1086
 5484W        W 9548   8.371   3.377   7.662 -0.4064  0.1113  0.1624
 5485W        W 9549   0.143   1.487   3.157 -0.4020 -0.0646  0.1255
 5486W        W 9550   6.526   4.553   8.996  0.2343 -0.4650  0.1467
 5487W        W 9551   4.554  10.033  10.961 -0.0358 -0.1233 -0.1497
 5488W        W 9552   4.640   7.887   9.207  0.2348  0.3967 -0.3150
 5489W        W 9553   6.961   3.838   9.836  0.0858  0.1063 -0.0860
 5490W        W 9554   4.273   7.062   9.585  0.1703  0.3348 -0.0111
 5491W        W 9555   2.258   4.338  10.109  0.2128 -0.0322 -0.0419
 5492W        W 9556   0.553   9.304   0.828 -0.1379  0.0349  0.0085
 5493W        W 9557   9.622   0.056   8.396 -0.1484 -0.1741 -0.2744
 5494W        W 9558   6.967  10.128   9.319  0.1018 -0.0224 -0.0672
 5495W        W 9559   1.096   2.968   2.861 -0.0583  0.0947 -0.0889
 5496W        W 9560   9.516   8.454   3.304  0.1494 -0.0440 -0.2562
 5497W        W 9561   9.777   6.992   8.664 -0.3700  0.0828  0.1114
 5498W        W 9562   5.921  10.251  10.650  0.1473 -0.4779  0.2058
 5499W        W 9563   8.181   7.285   2.133  0.3370 -0.0166 -0.0671
 5500W        W 9564  10.229   1.412   0.013 -0.4041 -0.1435 -0.0597
 5501W        W 9565   4.243   7.022   0.540  0.0367  0.0707  0.1285
 5502W        W 9566  10.470   0.759   0.798 -0.0424 -0.1180 -0.2140
 5503W        W 9567   9.771   4.650  11.246  0.0550 -0.2359 -0.1247
 5504W        W 9568   8.722  10.346   9.258  0.0371  0.0845  0.1188
 5505W        W 9569   0.145   1.336   2.699  0.0567  0.1821 -0.0580
 5506W        W 9570   6.751   4.597  11.159 -0.1390 -0.2070  0.0853
 5507W        W 9571   9.617   8.686   9.058 -0.0230  0.0302 -0.1209
 5508W        W 9572   3.506   2.668   8.877 -0.2391 -0.2239  0.1015
 5509W        W 9573   9.801   7.917   0.960  0.2569 -0.2033  0.1999
 5510W        W 9574   1.777   0.011  10.109 -0.2535  0.1644  0.2007
 5511W        W 9575   7.447   5.139   0.654  0.1248 -0.2880 -0.0308
 5512W        W 9576  10.323   9.141   3.626  0.2169 -0.2558  0.2180
 5513W        W 9577   6.659   9.798   2.398  0.0305  0.0699 -0.1136
 5514W        W 9578   6.440   0.509  10.647  0.2509  0.1541  0.0865
 5515W        W 9579   8.992   6.797   9.301  0.0971 -0.0448 -0.2959
 5516W        W 9580   9.145   6.669   0.805  0.0665 -0.1824  0.0240
 5517W        W 9581   1.159   8.017   1.103 -0.1946  0.1960  0.3554
 5518W        W 9582   1.734   6.050   1.254  0.1614 -0.1298 -0.1332
 5519W        W 9583   9.809   7.139   2.781 -0.0092 -0.0342  0.1841
 5520W        W 9584   2.439  10.067   3.485 -0.0373  0.0148 -0.5322
 5521W        W 9585   7.890   7.678   2.342  0.2446 -0.0444 -0.0089
 5522W        W 9586   3.376   3.796  10.126 -0.1227 -0.0120  0.0295
 5523W        W 9587   2.699   6.443  11.054 -0.0648  0.1312 -0.1557
 5524W        W 9588   8.642   2.151  11.557 -0.1005 -0.0777  0.2138
 5525W        W 9589   4.395   2.001   1.998  0.0811  0.1303  0.1111
 5526W        W 9590   5.830   3.872   0.935 -0.0395  0.2459 -0.1244
 5527W        W 9591   3.827   9.635  11.151 -0.1035  0.2447 -0.1042
 5528W        W 9592   6.401   1.506   0.199  0.0655  0.2091 -0.3255
 5529W        W 9593   6.072   2.681   3.030  0.1826  0.0780  0.2352
 5530W        W 9594   8.039   1.390   9.249  0.0534  0.1562  0.2335
 5531W        W 9595  10.211   6.929  11.424 -0.1751 -0.0467 -0.2950
 5532W        W 9596   8.511   3.135   2.848 -0.0828  0.1738 -0.2173
 5533W        W 9597   4.813   3.891   4.336  0.3376  0.0856 -0.0421
 5534W        W 9598   1.444   7.279  10.928 -0.1396 -0.1092  0.1481
 5535W        W 9599   7.135   5.210   4.299 -0.0838 -0.1379  0.3562
 5536W        W 9600   3.778   4.551   8.302 -0.0011  0.1112 -0.0321
 5537W        W 9601   0.853   4.871   1.000  0.1700  0.0088 -0.0768
 5538W        W 9602   0.107   0.245  10.863 -0.1966 -0.0251 -0.0413
 5539W        W 9603   3.982   4.515   1.145  0.1606 -0.0654 -0.1466
 5540W        W 9604   3.838   2.255   8.949  0.3875  0.0630  0.1163
 5541W        W 9605   7.298   9.383   1.692 -0.3789 -0.0277  0.0978
 5542W        W 9606   5.342   0.659   0.165 -0.1086  0.0119  0.5579
 5543W        W 9607   8.734   8.370   2.081  0.0745  0.0244 -0.1840
 5544W        W 9608   4.661   2.901  11.367  0.2190 -0.1533 -0.0964
 5545W        W 9609   0.248   7.325   2.693 -0.1453  0.0329  0.0451
 5546W        W 9610   2.266   9.532   0.090  0.4451  0.0042  0.1197
 5547W        W 9611   5.339   2.317   2.929  0.2235  0.0464  0.0470
 5548W        W 9612   1.700   0.376   7.871  0.0690 -0.4869 -0.1388
 5549W        W 9613   1.797   6.362   9.000 -0.1532  0.2138 -0.0208
 5550W        W 9614   1.311   6.106   0.288  0.2258  0.0657  0.1159
 5551W        W 9615   3.946   7.388   0.296 -0.1849 -0.0867 -0.2341
 5552W        W 9616   0.752   6.790  10.971  0.1066  0.0771 -0.4400
 5553W        W 9617   2.415   7.070   3.887  0.1167  0.2548  0.0228
 5554W        W 9618   8.274  10.043   2.714 -0.3420 -0.0936 -0.0562
 5555W        W 9619   6.382  10.175   2.303  0.2805  0.0323 -0.0605
 5556W        W 9620   5.649   8.398   2.491  0.3898  0.3707  0.2399
 5557W        W 9621   2.302   5.187   2.137 -0.2000 -0.0461 -0.1580
 5558W        W 9622   6.526   0.379   2.675 -0.1428 -0.5683  0.1382
 5559W        W 9623   7.118   9.180  10.033 -0.1943  0.1131  0.0162
 5560W        W 9624   2.457  10.427   1.790 -0.1032  0.1567 -0.0845
 5561W        W 9625   7.548   3.143   1.073 -0.0415 -0.1990  0.1748
 5562W        W 9626   4.091   1.524  11.087  0.5038  0.0379  0.1379
 5563W        W 9627   5.624   5.039  11.440 -0.3574  0.0573  0.0174
 5564W        W 9628   0.991   6.750   8.958  0.0858  0.3306  0.1355
 5565W        W 9629   4.849   2.048   3.188  0.2439  0.0847  0.1739
 5566W        W 9630   4.269   8.020   0.425  0.1006  0.0988  0.2234
 5567W        W 9631   0.017   7.497   0.705 -0.3208 -0.0964 -0.2497
 5568W        W 9632   3.306   3.656   1.224  0.0968 -0.1610 -0.0746
 5569W        W 9633   5.503   4.120   7.702  0.0802 -0.0910 -0.0756
 5570W        W 9634   3.154   1.542   9.345 -0.1873 -0.1345 -0.1599
 5571W        W 9635   4.438   4.578  10.732 -0.0031  0.0585 -0.0881
 5572W        W 9636   2.693   9.171  10.515  0.0877 -0.3730 -0.0922
 5573W        W 9637   9.963   7.059  10.703  0.1937  0.0569 -0.0091
 5574W        W 9638   3.226   0.097   7.157 -0.2371  0.1311 -0.0614
 5575W        W 9639   8.869   7.134   0.884 -0.0252  0.1846 -0.1039
 5576W        W 9640   0.854   4.376   8.531  0.2439  0.1301 -0.0495
 5577W        W 9641   3.365   0.725   9.724  0.0323  0.2506  0.2148
 5578W        W 9642   1.162   2.108   2.482 -0.0478  0.0912 -0.0884
 5579W        W 9643  10.219   6.423   2.550  0.2272  0.0643 -0.0258
 5580W        W 9644   5.206   1.308   2.105 -0.1214  0.1503  0.1803
 5581W        W 9645   7.993   2.408  10.094  0.0548  0.2165 -0.2946
 5582W        W 9646   2.146   3.159   1.753 -0.2459  0.1294 -0.1232
 5583W        W 9647   2.693   3.904   1.320  0.0432  0.1188 -0.0939
 5584W        W 9648   1.515   2.325  11.371 -0.1068  0.0673 -0.1107
 5585W        W 9649  10.532   1.978  11.177 -0.0577 -0.0369  0.0228
 5586W        W 9650   6.549   1.722  11.395  0.2373 -0.3266 -0.2789
 5587W        W 9651   0.904   3.852   9.038 -0.1173  0.1350  0.0262
 5588W        W 9652   5.507   5.199   1.310  0.0238  0.0441 -0.0971
 5589W        W 9653   1.221   6.698   9.674  0.1335  0.0297  0.1636
 5590W        W 9654   6.558   0.599   1.099  0.0276 -0.2278 -0.2142
 5591W        W 9655   9.563   0.407   0.666  0.2589  0.1291  0.2080
 5592W        W 9656   2.377   5.709   9.116  0.2564  0.1339  0.1473
 5593W        W 9657   5.691   2.290  10.072 -0.0411 -0.1913 -0.3366
 5594W        W 9658   2.080   3.822   3.379  0.0024 -0.1423 -0.1999
 5595W        W 9659   3.164   9.094   9.870  0.1843  0.0178  0.2687
 5596W        W 9660   0.623   8.574   8.681 -0.1087  0.2872 -0.2272
 5597W        W 9661   3.948   7.570   9.696  0.0489  0.0095  0.0515
 5598W        W 9662   9.975   3.438   2.376  0.1049  0.3570  0.3498
 5599W        W 9663   0.052   0.221   1.515 -0.1096 -0.2347  0.1078
 5600W        W 9664   5.552   1.264   1.710  0.0523 -0.1605 -0.1995
 5601W        W 9665   4.327   0.399  11.298 -0.1258 -0.0073  0.0382
 5602W        W 9666   1.198   3.995  10.133 -0.3444 -0.1097  0.1027
 5603W        W 9667   5.527   7.111   0.534  0.1891 -0.3416 -0.1926
 5604W        W 9668  10.582   4.364   4.476  0.1249 -0.1569  0.3210
 5605W        W 9669   3.300   4.682   3.399  0.0550  0.0866 -0.0182
 5606W        W 9670   1.695   3.787   9.982 -0.3294  0.0375 -0.1793
 5607W        W 9671   5.578   3.942   3.248 -0.0178 -0.0259  0.2001
 5608W        W 9672   6.243   7.752   0.880  0.0566  0.2689 -0.3533
 5609W        W 9673   2.959   2.454   2.472 -0.0638 -0.1533 -0.1193
 5610W        W 9674   7.464   6.950  10.822  0.1196  0.2437 -0.1835
 5611W        W 9675   8.022   3.296   3.842  0.2037 -0.1807 -0.0072
 5612W        W 9676   8.297   9.154   1.575 -0.4419  0.3184 -0.2271
 5613W        W 9677   6.221   3.723   1.750 -0.0621 -0.0700 -0.0454
 5614W        W 9678   3.837   5.864   1.559  0.0495  0.1061 -0.1389
 5615W        W 9679   5.922   5.674   9.869  0.0991 -0.2023  0.0061
 5616W        W 9680   8.996   7.589   8.723  0.1172  0.0746 -0.0002
 5617W        W 9681   0.883   6.882   7.656  0.0387 -0.0409 -0.0543
 5618W        W 9682   5.456   2.051   2.517  0.0843  0.1036 -0.1825
 5619W        W 9683   3.009   4.044   0.974 -0.1180 -0.1984  0.2940
 5620W        W 9684   9.642   9.635   2.151 -0.0785 -0.5659  0.2671
 5621W        W 9685   3.567  10.438   9.903  0.3126  0.0081 -0.0032
 5622W        W 9686   8.211   8.730   0.622 -0.3419 -0.0741  0.0708
 5623W        W 9687   8.635   9.191   2.166 -0.1671  0.0344 -0.0311
 5624W        W 9688   2.760   8.794   9.449  0.2263 -0.0767 -0.3237
 5625W        W 9689   4.498   1.849  10.251 -0.0100 -0.2618  0.0208
 5626W        W 9690   7.094  10.393   9.758  0.4735  0.2888  0.2125
 5627W        W 9691  10.007   5.496   7.993  0.0359 -0.0532 -0.1742
 5628W        W 9692   1.869   1.225   8.335  0.1274  0.0910 -0.3876
 5629W        W 9693   4.160   6.121   8.953  0.1650 -0.0487  0.0623
 5630W        W 9694   8.860   3.919   3.557 -0.1651 -0.2870  0.1808
 5631W        W 9695   8.107   2.656   2.075  0.1404  0.1097 -0.1424
 5632W        W 9696   0.319   2.606  10.825  0.1813 -0.2282  0.0753
 5633W        W 9697   8.588   1.438  10.797  0.1062  0.3742  0.0442
 5634W        W 9698   0.010   0.327   8.477  0.1565 -0.3448 -0.1883
 5635W        W 9699   7.909   4.176   3.019 -0.2386  0.2536  0.4260
 5636W        W 9700   9.298   5.573  10.949 -0.1603 -0.0129 -0.2678
 5637W        W 9701   6.679   7.155  11.537 -0.1564 -0.1778  0.0300
 5638W        W 9702  10.623   4.886   7.775 -0.1345 -0.2318  0.0166
 5639W        W 9703   1.427  10.640   9.707 -0.0846 -0.0883  0.3364
 5640W        W 9704   3.087   8.123  10.891 -0.3156  0.1911 -0.2435
 5641W        W 9705   8.811   0.981   3.848 -0.3480  0.1184 -0.0713
 5642W        W 9706   0.914   0.420  10.121 -0.1911  0.1922 -0.1039
 5643W        W 9707  10.615   5.402  10.588 -0.0436 -0.1730 -0.1842
 5644W        W 9708   4.186   1.713   9.369 -0.0175  0.0231  0.2557
 5645W        W 9709   2.019   4.486   0.408 -0.0623 -0.0762 -0.3392
 5646W        W 9710   5.920   8.953  10.716 -0.0197 -0.1397 -0.0228
 5647W        W 9711  10.402  10.596   9.319  0.4163  0.3199 -0.0467
 5648W        W 9712   0.595   2.023   3.376 -0.1881 -0.0007 -0.0390
 5649W        W 9713   7.051   1.764   8.923 -0.0958 -0.3766  0.0574
 5650W        W 9714  10.191   3.361   1.229  0.0745 -0.0419 -0.2352
 5651W        W 9715  10.607   3.407  10.967  0.2429 -0.2228 -0.2822
 5652W        W 9716  10.427   8.879  10.611 -0.0816 -0.0470  0.0713
 5653W        W 9717   8.936   7.807  11.341  0.1122 -0.2110  0.1669
 5654W        W 9718   6.619   9.944   1.897  0.1818 -0.0311  0.0364
 5655W        W 9719   4.995   8.858   4.133 -0.0097 -0.2297 -0.0373
 5656W        W 9720   7.613   2.684   1.086  0.1464  0.0012  0.1874
 5657W        W 9721   2.549   0.723   0.446  0.1001 -0.1153 -0.1415
 5658W        W 9722  10.565   7.076   1.061  0.1241  0.1002  0.1378
 5659W        W 9723   4.749   2.245   8.125  0.1407  0.0217  0.1961
 5660W        W 9724   9.063   0.439   0.574 -0.0626  0.1786  0.0980
 5661W        W 9725   2.021   7.295   9.689 -0.0222  0.0920  0.0772
 5662W        W 9726  10.600   2.496   0.263  0.0318 -0.4086  0.0527
 5663W        W 9727   9.185   2.047   9.966  0.0085  0.2040 -0.1021
 5664W        W 9728  10.541   2.450  11.258 -0.3867  0.2261 -0.4825
 5665W        W 9729   1.408   4.866   1.218 -0.0826  0.0380  0.0223
 5666W        W 9730   0.542   5.171   8.750  0.0839 -0.4479 -0.1421
 5667W        W 9731   2.506  10.441   3.130  0.0119  0.3072  0.1087
 5668W        W 9732   0.663   3.885   0.993  0.3001  0.1732  0.2009
 5669W        W 9733   0.803   1.306   2.890 -0.3509 -0.3673  0.0741
 5670W        W 9734   1.271   1.420   8.406  0.2254 -0.3466  0.0067
 5671W        W 9735   0.843   3.184   4.056  0.1865 -0.0250 -0.2748
 5672W        W 9736   1.358   3.264  10.724 -0.3330 -0.2672  0.1977
 5673W        W 9737   6.380   0.742   9.569  0.0446  0.0120 -0.3919
 5674W        W 9738  10.617   2.117   9.658  0.1133  0.2624 -0.3938
 5675W        W 9739   6.891   9.793  10.685 -0.1280 -0.1747  0.0761
 5676W        W 9740   7.005   9.663   2.007 -0.0892  0.2559 -0.0747
 5677W        W 9741   3.803   3.933   4.009  0.1592 -0.1548 -0.3521
 5678W        W 9742   9.255   6.728   8.851  0.0652  0.0005  0.2329
 5679W        W 9743   7.403   2.990   8.810  0.3594  0.3996  0.4212
 5680W        W 9744   9.521   5.009   8.385 -0.2543 -0.0858 -0.1217
 5681W        W 9745   4.479   4.129   1.393  0.0055 -0.0074 -0.1435
 5682W        W 9746   1.200   6.320   0.771 -0.0567 -0.0636  0.0781
 5683W        W 9747   1.988   6.355   3.614  0.0832  0.0508 -0.1035
 5684W        W 9748   3.030  10.037   7.194 -0.2253  0.1641 -0.1580
 5685W        W 9749   7.931   5.244   2.989 -0.0164 -0.1568  0.1317
 5686W        W 9750   6.236   7.321   1.249  0.2099  0.0809 -0.1760
 5687W        W 9751   7.867   3.928   1.071  0.1375  0.2040 -0.6174
 5688W        W 9752   2.962   9.344   9.494 -0.0133  0.1677 -0.0626
 5689W        W 9753   0.716   2.512   8.725  0.3697 -0.0280 -0.0734
 5690W        W 9754   0.613   5.409   3.620  0.0620 -0.3042  0.0383
 5691W        W 9755  10.457   0.886   7.795 -0.0500 -0.0441 -0.1077
 5692W        W 9756   8.183   4.702   9.771  0.2334 -0.2286  0.1370
 5693W        W 9757   3.951   7.995   3.538 -0.1504  0.2371  0.1022
 5694W        W 9758   1.661   5.254   1.543  0.1426 -0.1340  0.1861
 5695W        W 9759   5.041   8.708   0.180 -0.1063  0.1062  0.2741
 5696W        W 9760   1.669   1.174   3.012 -0.2653 -0.2727  0.2646
 5697W        W 9761   7.643   3.750   3.262 -0.2191 -0.2727 -0.0287
 5698W        W 9762   4.911   7.831   9.642 -0.1240  0.2671 -0.0950
 5699W        W 9763   9.511   6.713   9.288 -0.1564  0.0960 -0.1472
 5700W        W 9764   5.805   5.586   1.328 -0.1267 -0.0495 -0.0861
 5701W        W 9765   6.067   2.415   0.062 -0.0312  0.0682 -0.2378
 5702W        W 9766   1.936   8.949   2.759  0.0103  0.2741  0.1331
 5703W        W 9767   7.450   5.883   2.261 -0.2403  0.1912 -0.1728
 5704W        W 9768   6.973   1.447   9.813 -0.2990  0.1044 -0.0251
 5705W        W 9769   0.450   0.288  11.254  0.1186 -0.1743  0.0310
 5706W        W 9770   1.574   4.602   0.206 -0.2198 -0.1668  0.0291
 5707W        W 9771   1.950   8.756   1.766  0.1721 -0.1845 -0.1342
 5708W        W 9772  10.598   4.352  10.665 -0.1302 -0.3301 -0.0112
 5709W        W 9773   1.117   0.722   2.331 -0.3379 -0.1569 -0.0244
 5710W        W 9774  10.089   1.673   2.741 -0.0561  0.0572  0.0216
 5711W        W 9775   3.512   6.084  10.313 -0.3262  0.1662 -0.1521
 5712W        W 9776   7.286   1.727   0.561 -0.2125 -0.0997  0.0381
 5713W        W 9777   5.126   1.827  11.320  0.1374  0.0326  0.1425
 5714W        W 9778   5.943   6.224   9.605  0.0096  0.1407  0.0435
 5715W        W 9779  10.365   4.840   9.932 -0.1464 -0.0863 -0.4755
 5716W        W 9780   9.664   3.456  10.991  0.2170 -0.1763 -0.0181
 5717W        W 9781   8.824   6.423   2.485  0.0934 -0.1540 -0.1230
 5718W        W 9782   4.517   8.219   9.619  0.0726  0.0311 -0.3447
 5719W        W 9783  10.466   2.766   1.309 -0.1339  0.0925 -0.1658
 5720W        W 9784   4.664   6.104   8.919  0.0704  0.2580 -0.2770
 5721W        W 9785   3.357   9.349   2.961 -0.0836 -0.1257  0.2336
 5722W        W 9786   4.089   9.532   8.367 -0.4546  0.3194  0.0172
 5723W        W 9787   7.956   3.930   8.839  0.2526  0.1402 -0.3048
 5724W        W 9788   9.565   4.362   9.162 -0.2287  0.0908  0.0500
 5725W        W 9789   7.913   8.505  10.414  0.1969  0.3472 -0.0152
 5726W        W 9790   8.079   1.522   2.839  0.3821 -0.1945 -0.2545
 5727W        W 9791   8.231   1.690   3.828 -0.1060 -0.0075 -0.0317
 5728W        W 9792   3.704   1.250   1.982  0.1680 -0.1360  0.1664
 5729W        W 9793   0.239   8.859   0.814 -0.2468 -0.0054  0.2496
 5730W        W 9794   5.104   8.506   0.685 -0.3904 -0.0761 -0.1591
 5731W        W 9795   0.197   5.206  10.090 -0.0017 -0.4747 -0.1392
 5732W        W 9796   6.953   9.886   0.361 -0.0230 -0.2992 -0.1614
 5733W        W 9797   1.417   5.628   3.021  0.0033  0.1906  0.1718
 5734W        W 9798   4.387   4.418   9.459  0.0520  0.2211 -0.0971
 5735W        W 9799   2.683  10.627   8.009  0.0909 -0.0729 -0.0376
 5736W        W 9800   8.693   1.910   9.869 -0.0007  0.0487 -0.1769
 5737W        W 9801  10.296   7.204   9.774 -0.1660  0.0798  0.3180
 5738W        W 9802   8.226   2.107   2.056  0.0674  0.2176  0.4586
 5739W        W 9803   9.107   2.877   9.102  0.0318  0.0375  0.0447
 5740W        W 9804   6.660   6.166   3.868 -0.2309  0.3326 -0.0005
 5741W        W 9805   3.597   1.224  11.042 -0.0450  0.1334 -0.2746
 5742W        W 9806   2.347   7.909   2.406 -0.5426  0.0047  0.0957
 5743W        W 9807   9.925   8.304   3.574  0.0861 -0.1227  0.0956
 5744W        W 9808   1.755  10.186  11.057  0.2005  0.2049  0.0289
 5745W        W 9809   8.510   9.692  11.096 -0.2540  0.1003 -0.1061
 5746W        W 9810   3.880   3.919   2.401 -0.0469 -0.1278  0.0622
 5747W        W 9811   0.206   5.844   0.449 -0.3346  0.1230 -0.1874
 5748W        W 9812   5.340  10.574   8.813 -0.0467 -0.0625  0.0877
 5749W        W 9813   6.946   7.519   0.411  0.2282  0.0232  0.3299
 5750W        W 9814   4.798   3.834   3.853 -0.1875  0.1482  0.0988
 5751W        W 9815   7.500   7.298   9.173  0.0764  0.0437 -0.1305
 5752W        W 9816   9.057   0.206   2.616 -0.0075  0.0296  0.1129
 5753W        W 9817   5.148   5.114  11.349 -0.3203 -0.0021  0.1174
 5754W        W 9818   1.434   5.588   2.227 -0.1131 -0.1195  0.5469
 5755W        W 9819   0.740   1.983  11.398  0.0925  0.0001  0.1894
 5756W        W 9820   2.013   2.727   1.552 -0.0249 -0.0823 -0.1671
 5757W        W 9821   8.749   1.143   7.602  0.1553 -0.0109 -0.1106
 5758W        W 9822   0.910   6.979   0.701  0.2818 -0.2130 -0.0664
 5759W        W 9823   0.986   1.647   0.098 -0.2345 -0.1154 -0.2232
 5760W        W 9824   4.264   6.118   0.369  0.0488  0.1294 -0.1393
 5761W        W 9825   2.663   6.547   9.884 -0.2099  0.2777 -0.3897
 5762W        W 9826   8.847   6.247  10.581 -0.3149 -0.1108  0.0647
 5763W        W 9827   9.235   3.072  11.015  0.3628  0.3538 -0.1843
 5764W        W 9828   4.932   0.966  10.763  0.0038 -0.0776  0.0379
 5765W        W 9829   5.679   6.080   9.978  0.1507  0.3015 -0.0725
 5766W        W 9830   8.569   9.321   0.847  0.1470  0.0608  0.0012
 5767W        W 9831   6.141  10.463   9.158 -0.0728 -0.0034  0.2640
 5768W        W 9832   6.010   7.506   8.739 -0.1542 -0.0537 -0.2497
 5769W        W 9833   0.437   2.272   9.420  0.0888 -0.1583 -0.1687
 5770W        W 9834   5.714   3.839   1.479 -0.2009 -0.1576 -0.0718
 5771W        W 9835   2.877   1.259   0.474 -0.1269 -0.1059  0.2664
 5772W        W 9836   6.956   0.962   3.804  0.1954 -0.1108  0.0238
 5773W        W 9837   5.527   8.051   3.452 -0.0948  0.1446 -0.0816
 5774W        W 9838   5.429   6.569   7.605 -0.0838 -0.0978 -0.0755
 5775W        W 9839   6.911   8.293   1.755  0.2355 -0.2159 -0.0873
 5776W        W 9840   5.338   1.630   0.892  0.2049 -0.0780  0.0521
 5777W        W 9841   2.087   2.486   3.002  0.2125  0.0252 -0.1693
 5778W        W 9842   8.434   0.935   9.921  0.0587  0.3863  0.1059
 5779W        W 9843   0.167   2.304   8.790  0.2338  0.0087 -0.1299
 5780W        W 9844   4.491   9.885   0.599  0.0781 -0.2022  0.0562
 5781W        W 9845   8.660   6.634   7.970  0.1120 -0.1335  0.1086
 5782W        W 9846   5.095  10.526   2.670  0.1135 -0.1338 -0.3662
 5783W        W 9847   4.765   4.313  11.500  0.1945 -0.0982  0.1631
 5784W        W 9848   1.641   6.774   9.207 -0.0232 -0.0629 -0.1953
 5785W        W 9849   4.390   8.783   2.164 -0.1793 -0.2613  0.1403
 5786W        W 9850   3.875   8.614  11.338 -0.3613 -0.1802 -0.3271
 5787W        W 9851   0.169  10.066   2.653 -0.0684  0.0306 -0.3591
 5788W        W 9852   3.782   1.756   9.094  0.1297 -0.1481  0.5590
 5789W        W 9853   7.906   7.972   9.664  0.3746 -0.1052 -0.0448
 5790W        W 9854   0.963   0.587   9.602 -0.0346 -0.0270 -0.0709
 5791W        W 9855   7.500   8.783   9.539 -0.2698 -0.0737  0.0550
 5792W        W 9856   0.609   5.968   1.886 -0.3347  0.1544  0.0651
 5793W        W 9857   9.862   9.631   9.986  0.0062  0.1215 -0.0734
 5794W        W 9858   1.321   7.483   9.088 -0.0832  0.2519  0.1136
 5795W        W 9859   1.296   8.483   7.479 -0.0722 -0.0510  0.4331
 5796W        W 9860   2.598   1.065   9.472  0.1265 -0.0286  0.1862
 5797W        W 9861   7.095   9.870   8.932  0.0964  0.4604 -0.1006
 5798W        W 9862   3.137   3.208  11.161 -0.0093 -0.1750 -0.2757
 5799W        W 9863   1.111   4.745   3.838  0.0469  0.1821  0.2475
 5800W        W 9864   2.488   1.704   9.951 -0.2455  0.2768 -0.1789
 5801W        W 9865   6.697   5.753   1.579  0.3115 -0.0665 -0.0907
 5802W        W 9866   0.649   7.261   9.886 -0.0133 -0.1599 -0.1599
 5803W        W 9867   4.364   5.963   1.312 -0.1142  0.0787  0.0015
 5804W        W 9868   4.719   2.940   3.240  0.2775 -0.1534 -0.0553
 5805W        W 9869   5.024   6.317   9.358 -0.3431  0.1868 -0.0673
 5806W        W 9870   3.565   1.570   1.579  0.2478 -0.5168 -0.0246
 5807W        W 9871   1.964   7.216   4.038  0.0833 -0.0428  0.3881
 5808W        W 9872   6.153   4.048   2.249 -0.2282  0.1957  0.0900
 5809W        W 9873   8.151   5.334   9.646  0.3229  0.1414  0.0889
 5810W        W 9874   3.764   9.988   0.130 -0.2496 -0.2256  0.0209
 5811W        W 9875   2.408  10.394   0.750 -0.0806 -0.0465  0.2230
 5812W        W 9876   9.523   9.213   8.737  0.1367  0.0090 -0.1440
 5813W        W 9877   8.169   1.310   0.217 -0.0403 -0.0167  0.0357
 5814W        W 9878  10.296   7.109   1.946  0.1627 -0.2742  0.2824
 5815W        W 9879   9.057   5.294   0.701  0.0033 -0.0155 -0.2279
 5816W        W 9880   4.616   1.466   9.679  0.0712 -0.1752 -0.1819
 5817W        W 9881   0.441   3.171  10.156  0.1460  0.0943  0.1182
 5818W        W 9882   8.931   6.929  11.204 -0.0335  0.0096 -0.1412
 5819W        W 9883   3.471   4.190   8.567  0.0244 -0.5467 -0.0031
 5820W        W 9884   4.770   6.685  11.509 -0.0428 -0.0911 -0.0367
 5821W        W 9885   6.921  10.217   2.469  0.0225 -0.4183  0.0936
 5822W        W 9886   9.132   2.975  11.517 -0.1100  0.0780 -0.2130
 5823W        W 9887  10.391   5.666   8.969 -0.2916  0.0357 -0.0705
 5824W        W 9888   7.754   8.347   9.388  0.1066 -0.1275 -0.0672
 5825W        W 9889   0.444   4.720   3.132  0.2224 -0.2672  0.2019
 5826W        W 9890   5.435   9.382   0.806  0.0640 -0.1499 -0.1773
 5827W        W 9891   5.899   5.879   3.898 -0.1760  0.2583  0.0705
 5828W        W 9892   9.190   5.311   9.143  0.0809 -0.1465 -0.1695
 5829W        W 9893   3.975   0.112   8.386  0.1916 -0.0405 -0.2087
 5830W        W 9894   1.699   7.962  10.765  0.0518 -0.1310 -0.4014
 5831W        W 9895   0.470   8.456   2.366  0.0271  0.3590 -0.1238
 5832W        W 9896   5.827   4.383   8.608 -0.1690 -0.1146 -0.1567
 5833W        W 9897   7.619   1.920   7.857 -0.0205  0.1044 -0.0857
 5834W        W 9898   4.005   1.101   7.494  0.1512 -0.1181  0.1815
 5835W        W 9899   9.182   1.445   7.917  0.3441  0.1012 -0.1240
 5836W        W 9900   1.423   9.301  10.722  0.0448 -0.0411 -0.3109
 5837W        W 9901   9.142   2.356   1.207 -0.4555  0.1552 -0.1263
 5838W        W 9902   2.256   1.457   8.721 -0.0543  0.2007  0.1026
 5839W        W 9903   6.061   4.300   0.195 -0.1003 -0.1330  0.0534
 5840W        W 9904   7.830   7.730  11.036 -0.2341 -0.1717 -0.3329
 5841W        W 9905   8.413   7.650   9.044 -0.1091  0.0193 -0.3330
 5842W        W 9906   5.278   7.362   4.090 -0.2498  0.1752  0.1981
 5843W        W 9907   0.989   3.943  11.433 -0.0862  0.3048  0.2190
 5844W        W 9908   8.540   7.909   2.862  0.0967 -0.1073 -0.0196
 5845W        W 9909   7.873   2.937  11.360 -0.2023  0.1457 -0.0612
 5846W        W 9910   6.970   5.353   9.785  0.3722  0.0287 -0.0008
 5847W        W 9911   1.757   6.509   9.606 -0.1902 -0.1432  0.1960
 5848W        W 9912  10.430   3.271   2.100  0.1502  0.1116 -0.0181
 5849W        W 9913   2.777   3.446   2.046 -0.1754  0.1858 -0.0688
 5850W        W 9914   5.279   3.677   1.269 -0.2004  0.0107 -0.1344
 5851W        W 9915   6.827   5.764  10.700 -0.0875 -0.1238  0.1511
 5852W        W 9916   8.936   4.384  10.634  0.1380  0.3519 -0.1398
 5853W        W 9917   3.648   1.800   1.995  0.0095  0.2049 -0.2694
 5854W        W 9918   9.549   1.374   2.081  0.0686  0.0611 -0.2791
 5855W        W 9919   0.859   1.207  10.763 -0.2470 -0.0583  0.0001
 5856W        W 9920   0.799  10.237   7.796 -0.3927  0.0130  0.0306
 5857W        W 9921   3.112   8.165   2.503  0.1999  0.3706  0.0461
 5858W        W 9922   0.266   2.721  11.548 -0.1552  0.0490  0.3149
 5859W        W 9923   9.534   7.986  10.722 -0.0646  0.0784  0.1816
 5860W        W 9924  10.495   7.113   9.350  0.0348  0.2979  0.1282
 5861W        W 9925   3.489   1.330   9.006  0.1991 -0.0848 -0.0558
 5862W        W 9926   8.129   7.255  10.344  0.2991 -0.3440 -0.2481
 5863W        W 9927   7.723   7.534   9.689  0.2550 -0.0462  0.0162
 5864W        W 9928   3.424   6.613   2.759  0.1476 -0.2002  0.1531
 5865W        W 9929   0.139   5.775   3.667  0.3258 -0.0544  0.3199
 5866W        W 9930   3.180   2.537   7.869  0.2876 -0.0033  0.1642
 5867W        W 9931   4.337   3.798   2.658 -0.2792  0.4476  0.0065
 5868W        W 9932   8.231   2.590  11.427  0.0260 -0.0379  0.0951
 5869W        W 9933   4.466  10.560   3.819 -0.1151  0.1187  0.0392
 5870W        W 9934   8.594   3.850   0.922  0.0557 -0.0815  0.1788
 5871W        W 9935   2.211   6.163  10.972 -0.1235 -0.0087  0.2004
 5872W        W 9936   7.495   7.983   0.903  0.3300  0.0282 -0.0361
 5873W        W 9937   5.562   0.898   2.139 -0.0259 -0.0914 -0.1085
 5874W        W 9938   5.385   8.011   1.302  0.0325 -0.2553 -0.4019
 5875W        W 9939   0.188   6.045   3.214  0.1018  0.0989  0.0216
 5876W        W 9940   6.016   8.085   8.536  0.1679 -0.1102 -0.1470
 5877W        W 9941   4.703   1.355   9.126 -0.0915  0.1047 -0.2295
 5878W        W 9942   6.051   5.998   7.611  0.0638  0.0041 -0.1279
 5879W        W 9943   3.450   5.632   1.099  0.1401  0.1311  0.0546
 5880W        W 9944   7.503   0.504   0.496  0.1642  0.2007  0.1504
 5881W        W 9945   5.237   7.495   7.542  0.0420  0.0246 -0.0465
 5882W        W 9946   8.990   5.250   3.694 -0.0450 -0.0666 -0.1068
 5883W        W 9947   8.226   7.831   2.056 -0.0707 -0.0471  0.2889
 5884W        W 9948   7.145   9.598  11.224  0.2429  0.1997  0.4731
 5885W        W 9949   8.243   3.438  10.937  0.0618  0.2474  0.1912
 5886W        W 9950   7.033   3.643  11.444 -0.4587 -0.1793  0.2362
 5887W        W 9951   3.997   9.059   8.827 -0.1440  0.0407 -0.4005
 5888W        W 9952   5.185   3.929   9.201 -0.0296 -0.4696 -0.3916
 5889W        W 9953   4.453   3.574   9.134  0.3976 -0.4296  0.0213
 5890W        W 9954   4.904   6.579   4.557  0.1540 -0.1966 -0.1242
 5891W        W 9955   1.593   1.941  10.754  0.0923  0.0832  0.5242
 5892W        W 9956   1.893   2.516   3.876 -0.1519  0.0894  0.0658
 5893W        W 9957   2.903   2.607   2.011 -0.0899 -0.3564 -0.2299
 5894W        W 9958   5.964   9.651  11.558  0.1445 -0.4716 -0.1527
 5895W        W 9959   3.163   3.985   9.643 -0.1185 -0.0736 -0.2131
 5896W        W 9960   9.264   3.403   9.143  0.1363  0.0408 -0.1780
 5897W        W 9961   8.460   6.181   0.897  0.1931  0.1092  0.1913
 5898W        W 9962   5.475   9.603  11.306  0.0288  0.4150  0.0695
 5899W        W 9963   2.934   1.796  10.730  0.0430  0.1124  0.4117
 5900W        W 9964   7.280   4.919  10.809  0.2202 -0.2009 -0.2811
 5901W        W 9965   7.180   5.384  11.574  0.1472  0.0214  0.2819
 5902W        W 9966   2.124   1.237   9.142 -0.1356 -0.0843  0.3448
 5903W        W 9967   6.386   0.830   2.061 -0.2764  0.1886  0.1008
 5904W        W 9968   2.616   9.994   8.858  0.0995  0.0976 -0.0034
 5905W        W 9969   9.363   3.893  10.251 -0.0767  0.0972  0.0439
 5906W        W 9970   5.374   6.090   0.768  0.0279 -0.4178 -0.2576
 5907W        W 9971   3.623   6.102   2.743  0.2065  0.0773  0.0436
 5908W        W 9972   1.420   4.081   1.753  0.1541 -0.1472 -0.1873
 5909W        W 9973   9.755   3.861  10.594  0.2545 -0.1087  0.2371
 5910W        W 9974   0.419   8.918   9.886 -0.1577 -0.1539  0.0360
 5911W        W 9975   9.087   1.573   0.467 -0.2299 -0.1811 -0.2156
 5912W        W 9976   3.022   8.470   9.189  0.2257  0.1917  0.2813
 5913W        W 9977   0.606   2.884   2.008 -0.2488 -0.1014 -0.2247
 5914W        W 9978   3.763   4.397  11.452 -0.2180  0.0062  0.0296
 5915W        W 9979   6.049   5.920   4.370 -0.2162  0.1612 -0.2500
 5916W        W 9980   4.377   9.209   1.889  0.1271 -0.1151 -0.0982
 5917W        W 9981   7.809   0.841   2.811  0.0634 -0.0646 -0.2066
 5918W        W 9982   5.719   1.114   2.596 -0.1577  0.1037 -0.2965
 5919W        W 9983   8.153   7.945   0.949 -0.1102 -0.0808  0.2499
 5920W        W 9984   1.801   9.421   2.708  0.3308 -0.3033  0.0641
 5921W        W 9985   2.830   8.589  10.932 -0.0968 -0.0306  0.0362
 5922W        W 9986   1.142   9.119   8.253  0.2149 -0.2289 -0.1439
 5923W        W 9987   7.694   2.832   3.693 -0.2261  0.4103 -0.2777
 5924W        W 9988   4.083   1.645   9.840  0.0913 -0.3642 -0.4245
 5925W        W 9989   2.410  10.307   1.250  0.2314  0.1105 -0.0406
 5926W        W 9990   8.255   7.986   8.716  0.4437  0.1750  0.1779
 5927W        W 9991   4.427   1.097   9.419 -0.1361  0.1349  0.2037
 5928W        W 9992   5.439   3.855  11.116 -0.0115  0.4003 -0.1925
 5929W        W 9993   9.009   0.135   2.099  0.1949  0.2616  0.1140
 5930W        W 9994   0.602   4.259   9.897  0.1186 -0.0110 -0.1637
 5931W        W 9995   6.939   5.789   8.131  0.0450  0.0777  0.2133
 5932W        W 9996   8.263   6.558   0.274 -0.1752 -0.1046  0.1434
 5933W        W 9997   5.067  10.203  10.018 -0.1014 -0.0296  0.1694
 5934W        W 9998   8.245   2.998   8.994  0.2161  0.0714  0.0084
 5935W        W 9999   7.413   4.902   8.501  0.2368 -0.1267  0.2648
 5936W        W10000   4.832   2.184   1.731  0.4308  0.0232 -0.1210
 5937W        W10001   0.087   1.047   3.460 -0.2947  0.2965  0.0888
 5938W        W10002   9.638   4.366   9.949 -0.1687  0.0274  0.3093
 5939W        W10003   4.421   6.300   0.829  0.0421 -0.6398  0.0955
 5940W        W10004   9.505   0.854  11.473 -0.1530 -0.0287 -0.0431
 5941W        W10005   6.440   5.451   9.756 -0.2151  0.1960 -0.0688
 5942W        W10006   4.850   5.698   0.027 -0.2459 -0.0861 -0.0536
 5943W        W10007   3.318   3.057   0.021  0.0710 -0.1377  0.0106
 5944W        W10008   1.738   3.792   8.325  0.0537  0.1578  0.0504
 5945W        W10009   9.256   3.935  10.808 -0.2010 -0.0864  0.0697
 5946W        W10010   6.588   2.929  11.242  0.1002  0.1606 -0.0415
 5947W        W10011   3.515   5.740   0.514  0.3211  0.3467  0.1682
 5948W        W10012   9.585   3.438  10.161  0.1341 -0.0818  0.0506
 5949W        W10013   1.045   5.965   9.297 -0.1672  0.2460  0.1031
 5950W        W10014   5.368   1.334  10.149  0.2145  0.0217  0.1597
 5951W        W10015   4.448   2.759   9.665 -0.0708  0.0483  0.1457
 5952W        W10016   8.702   8.553   4.055  0.1017 -0.1877 -0.0075
 5953W        W10017   7.152   5.411   9.244  0.1016 -0.0693 -0.1897
 5954W        W10018   6.949   1.005   8.218  0.1854 -0.1925  0.2572
 5955W        W10019   4.635   0.051   2.868 -0.0665 -0.5200  0.0265
 5956W        W10020   5.724   3.596  10.563 -0.2970 -0.1998 -0.0591
 5957W        W10021   2.147   1.207  10.987 -0.2549  0.0836 -0.0682
 5958W        W10022   2.819   8.855   3.618  0.3617  0.3381  0.1451
 5959W        W10023   5.630   3.415   8.671  0.2070 -0.0955 -0.2328
 5960W        W10024   0.412   3.659   1.380  0.0900  0.0295 -0.0825
 5961W        W10025   6.275   8.321   0.633 -0.1551  0.0336  0.0903
 5962W        W10026   7.870   8.369   0.805  0.0447  0.0475 -0.2702
 5963W        W10027   7.864   1.162   2.455 -0.0050 -0.0412 -0.1792
 5964W        W10028   7.030   8.065   0.140  0.1156  0.1911  0.0185
 5965W        W10029   9.115   9.506   0.892 -0.1590  0.0372 -0.1943
 5966W        W10030   0.556   4.549  11.137  0.2753 -0.0139  0.1415
 5967W        W10031   2.661   7.326   3.476 -0.3079 -0.1088 -0.1805
 5968W        W10032   0.173   6.481   9.853 -0.2367 -0.0081  0.0518
 5969W        W10033   4.120   9.128   0.500  0.0852 -0.3663 -0.0702
 5970W        W10034   7.298   0.718  10.628  0.2542 -0.2083  0.1279
 5971W        W10035   2.256   6.642   1.610 -0.2001 -0.2045 -0.1371
 5972W        W10036   3.703  10.217   0.585 -0.2105  0.1282 -0.2713
 5973W        W10037  10.232   3.683  11.445 -0.0412 -0.1274  0.1778
 5974W        W10038   1.313   5.496   9.225  0.0456 -0.4893  0.2321
 5975W        W10039   1.336   8.910  10.289 -0.0481 -0.1783  0.1401
 5976W        W10040   1.469   6.793   0.665 -0.3496 -0.2490 -0.2202
 5977W        W10041   2.862   0.880   9.822 -0.1042  0.2284  0.0964
 5978W        W10042   9.383  10.448  10.923 -0.0896 -0.1294 -0.0622
 5979W        W10043   9.164   1.153  10.499 -0.0820  0.0408  0.1398
 5980W        W10044   1.677   4.442   8.993 -0.0805  0.1541  0.2576
 5981W        W10045   9.073   2.466   2.501 -0.1636 -0.1444 -0.1377
 5982W        W10046   6.866   8.098   2.922 -0.1719 -0.1892  0.0605
 5983W        W10047   3.239   8.492  11.172  0.1454 -0.0964  0.0448
 5984W        W10048   3.101   9.072   7.329 -0.1062  0.0747 -0.2418
 5985W        W10049   7.344   0.680   2.936 -0.1967 -0.1057  0.2435
 5986W        W10050   6.304   3.390   8.424 -0.2289 -0.2079  0.2124
 5987W        W10051   2.521   9.821   2.675  0.1480  0.3506  0.0995
 5988W        W10052   6.599   9.661   8.807 -0.0033  0.0424 -0.1675
 5989W        W10053   2.630   5.888  11.126 -0.3188  0.1263  0.5234
 5990W        W10054   1.444   6.871   1.587 -0.0170  0.0230  0.0786
 5991W        W10055   5.620   9.580   1.941  0.3152 -0.0714  0.0604
 5992W        W10056   2.116   0.728  10.446  0.1138  0.1158 -0.2353
 5993W        W10057   6.876   1.404   0.497  0.0754 -0.0718  0.1276
 5994W        W10058   5.357   8.866   3.328  0.2290  0.1557 -0.2664
 5995W        W10059   5.201   4.952   8.052  0.4058 -0.0761  0.2686
 5996W        W10060   9.086   6.457  10.982  0.1922 -0.1521 -0.4289
 5997W        W10061   7.666   9.078   2.340 -0.1189 -0.1995 -0.1244
 5998W        W10062   1.049   5.585   0.162  0.2431  0.0493 -0.2371
 5999W        W10063   2.561   2.239  10.445  0.0369  0.0427  0.0090
 6000W        W10064   5.235   0.720   3.849  0.1107 -0.3498  0.1512
 6001W        W10065   2.490   9.592  10.731  0.1362  0.1443  0.0848
 6002W        W10066   3.937   2.483   3.465  0.1656 -0.1156 -0.2781
 6003W        W10067   2.167   3.432   3.771 -0.2278  0.0970 -0.1330
 6004W        W10068   4.438   7.547   0.275 -0.1832  0.2007  0.2925
 6005W        W10069   1.227   2.208  10.612 -0.0311  0.3744  0.4542
 6006W        W10070   3.673   8.934   4.100 -0.2177  0.0275  0.1500
 6007W        W10071   9.186   9.490   8.973 -0.2866  0.0401 -0.3531
 6008W        W10072   6.729   4.535   9.515 -0.1112 -0.0815 -0.1212
 6009W        W10073   9.948   2.117   2.610 -0.1103 -0.1562 -0.3219
 6010W        W10074   3.234   2.500  11.209  0.1747  0.4127  0.3576
 6011W        W10075   4.012  10.236   2.283 -0.0088 -0.0796  0.0866
 6012W        W10076   3.124   1.021   9.376 -0.2382 -0.1994 -0.0853
 6013W        W10077   9.221   5.936   8.395  0.0237  0.0193 -0.1978
 6014W        W10078   7.060   2.337   9.079  0.1159 -0.3062 -0.3092
 6015W        W10079   9.132   2.092   0.547 -0.2293 -0.1745  0.0933
 6016W        W10080   9.700   4.323   2.173  0.1759  0.0858 -0.0196
 6017W        W10081   4.330   6.104   8.471  0.4827  0.1599 -0.0495
 6018W        W10082   5.968   2.059   2.465 -0.0662  0.2166 -0.0920
 6019W        W10083   8.955   8.895   9.139 -0.1467 -0.2514 -0.0253
 6020W        W10084   8.398   8.491   2.798  0.2938 -0.0406  0.1776
 6021W        W10085   9.471   0.368   8.880 -0.0725  0.3448  0.0392
 6022W        W10086   8.580   7.956   1.196 -0.0228 -0.2588  0.0547
 6023W        W10087   4.704   4.818   9.844 -0.2410 -0.1557 -0.1370
 6024W        W10088   1.483   9.084   2.895 -0.1164  0.0270 -0.2141
 6025W        W10089   3.110   7.581   9.551 -0.0964 -0.1976 -0.0850
 6026W        W10090   5.339   5.135   8.562  0.2021  0.1364  0.0226
 6027W        W10091   1.395   5.517  10.995  0.0067  0.3079 -0.0323
 6028W        W10092   8.490   0.621   8.781  0.1105  0.1093 -0.1237
 6029W        W10093   7.604   8.716  11.250  0.0551 -0.2669 -0.0443
 6030W        W10094   6.678   7.987   9.105 -0.1783 -0.0276 -0.4585
 6031W        W10095   3.190   1.946  11.129  0.0299 -0.1981 -0.3399
 6032W        W10096   6.130   9.980   8.927  0.0333 -0.1216 -0.1448
 6033W        W10097   3.071   7.811   8.155 -0.0884 -0.2405 -0.1674
 6034W        W10098  10.543   5.707   2.212  0.0654  0.0616 -0.0179
 6035W        W10099   5.057   6.154   7.726  0.0339  0.1594  0.0769
 6036W        W10100   6.878   8.879   2.498 -0.1013  0.2559  0.3701
 6037W        W10101   5.985   1.525   2.415  0.1279 -0.0750  0.1118
 6038W        W10102   5.085   7.088   8.339 -0.3298 -0.0750 -0.0782
 6039W        W10103   1.334   8.555   3.087 -0.3313  0.0989 -0.3344
 6040W        W10104   2.355   5.831   2.137  0.0010  0.0643 -0.0528
 6041W        W10105   6.163   8.621   9.607  0.2193  0.0332  0.0534
 6042W        W10106   8.289   4.967   1.120  0.1311  0.3448 -0.1506
 6043W        W10107   9.712   0.201  11.265  0.0185 -0.1582  0.0142
 6044W        W10108   2.349   7.537   3.820  0.0613 -0.0099  0.2226
 6045W        W10109   5.794   7.467   0.319 -0.0742 -0.0210  0.2436
 6046W        W10110  10.225   1.762   7.997 -0.2081 -0.1712  0.1001
 6047W        W10111   9.153  10.222   0.184  0.1200 -0.4002  0.2090
 6048W        W10112   0.471   4.256   3.393  0.0641  0.0209 -0.0245
 6049W        W10113   1.236   0.963  10.966 -0.2499 -0.0106 -0.0150
 6050W        W10114   6.651   0.406   2.151  0.1290 -0.0069 -0.0794
 6051W        W10115   4.129   3.033   1.262  0.2615 -0.1191  0.2810
 6052W        W10116   9.601   2.200   9.684 -0.3237 -0.1118  0.0257
 6053W        W10117   8.094   4.629   2.326 -0.2759 -0.0615 -0.1012
 6054W        W10118   6.549   9.903   1.418  0.0711 -0.4335  0.0887
 6055W        W10119   3.320   4.903   2.623 -0.0764 -0.0366 -0.0571
 6056W        W10120   1.522   9.544   2.291  0.0891  0.3043  0.2188
 6057W        W10121   7.632   3.886  10.302 -0.0004  0.0677  0.0249
 6058W        W10122   3.967   0.306   3.853  0.1930 -0.1423 -0.1566
 6059W        W10123   9.401   1.293   0.771 -0.1596 -0.1682  0.0512
 6060W        W10124   0.008   2.013   7.788 -0.3051 -0.3512 -0.0506
 6061W        W10125   5.337  10.615   9.961 -0.0796 -0.0665  0.0907
 6062W        W10126  10.570   5.886  10.654 -0.3557 -0.0767 -0.0590
 6063W        W10127   5.778   3.427   1.246 -0.1751 -0.1288  0.1559
 6064W        W10128  10.612   8.281   0.115  0.1087  0.3821  0.0723
 6065W        W10129   3.681   6.805   1.100 -0.2249 -0.1132  0.1454
 6066W        W10130   7.524   5.114   3.188  0.0985  0.1579 -0.1356
 6067W        W10131   8.527   2.349   3.270  0.0981  0.3061  0.0866
 6068W        W10132   4.353   6.848   2.371  0.1273 -0.2331  0.2081
 6069W        W10133   8.870   5.732   0.801  0.0864 -0.1887  0.1366
 6070W        W10134   8.999   1.003   0.626 -0.2052  0.1800 -0.2317
 6071W        W10135   3.369   1.576  11.363 -0.0216 -0.4581 -0.1558
 6072W        W10136   5.249  10.147   8.536  0.3009 -0.2425  0.2537
 6073W        W10137   2.529   5.900   1.361 -0.1242 -0.0939  0.0709
 6074W        W10138  10.592   3.008   0.389  0.0698 -0.0466  0.0165
 6075W        W10139   4.687   4.698   3.157 -0.3025  0.1242  0.1695
 6076W        W10140   1.459   6.544   0.023 -0.0246 -0.0548  0.0544
 6077W        W10141   3.076   6.877   2.264 -0.0375  0.0608 -0.1704
 6078W        W10142   0.609   3.081   9.011 -0.0105 -0.0338  0.1395
 6079W        W10143   5.311   1.799   2.964 -0.1800 -0.1757  0.0633
 6080W        W10144   2.530   6.983   3.114 -0.0972  0.0916 -0.0809
 6081W        W10145   3.193   7.758   2.816 -0.2234 -0.1008  0.2221
 6082W        W10146   6.431   3.977   7.641  0.1436  0.1379  0.1730
 6083W        W10147   0.470   0.522  10.342  0.1698 -0.1998  0.1688
 6084W        W10148   0.109   7.223   2.155 -0.0306  0.0618  0.0017
 6085W        W10149   7.902   2.119  11.441 -0.4235  0.2062 -0.1117
 6086W        W10150   3.142   7.764   1.800 -0.0734  0.1997  0.0341
 6087W        W10151   0.447   9.016  10.416  0.1701 -0.8463  0.4403
 6088W        W10152  10.064   4.782   2.325  0.2460 -0.3082 -0.0508
 6089W        W10153   9.306   1.100  11.016 -0.1403  0.0053 -0.2548
 6090W        W10154   5.702   5.992   8.886  0.0897 -0.4528 -0.2640
 6091W        W10155   3.187   6.689   8.057 -0.0971  0.0909 -0.1495
 6092W        W10156   6.119   9.280   8.871 -0.2029  0.2782 -0.1186
 6093W        W10157   1.146   2.947   1.370 -0.2133 -0.0514 -0.1134
 6094W        W10158   0.331   5.945   2.328 -0.3112  0.1605  0.0143
 6095W        W10159   7.303   3.578  10.061  0.1332  0.1112 -0.0351
 6096W        W10160   1.426   1.672   0.895 -0.0961  0.2515 -0.1587
 6097W        W10161   0.636   5.694   9.448 -0.1413  0.0207 -0.1770
 6098W        W10162   3.624   6.567   1.551  0.5684  0.2431 -0.2628
 6099W        W10163   6.344   5.982   9.791  0.0564  0.3634 -0.0598
 6100W        W10164   1.559   7.344   3.515  0.1299 -0.0878 -0.5317
 6101W        W10165   9.348   3.691   8.152  0.1077  0.1455 -0.2360
 6102W        W10166   5.085  10.467   9.424 -0.1403  0.0182 -0.0841
 6103W        W10167   0.709   4.926   4.243 -0.4213  0.2424  0.3503
 6104W        W10168   0.667   2.873   8.353 -0.5129 -0.0921 -0.1785
 6105W        W10169   7.155   9.257   1.257 -0.3485 -0.0738  0.0408
 6106W        W10170   4.629   4.259   0.876 -0.0459 -0.2407  0.1937
 6107W        W10171   8.203   0.430   0.515  0.1111 -0.1383  0.1110
 6108W        W10172   7.362   2.416   2.472 -0.0013 -0.1091 -0.1639
 6109W        W10173   5.077   4.291   2.545  0.1011 -0.0010 -0.1353
 6110W        W10174   8.786   1.357   1.941  0.2762  0.0892 -0.1242
 6111W        W10175   2.085   0.445   1.126  0.3661 -0.0531 -0.1485
 6112W        W10176   3.128   8.755   0.536 -0.3142 -0.1441 -0.1200
 6113W        W10177   3.330   4.640   0.064  0.1116 -0.0109  0.4165
 6114W        W10178   9.474  10.497   9.030  0.3171  0.0527 -0.2059
 6115W        W10179   4.961   2.029   7.735 -0.0520 -0.1190 -0.3802
 6116W        W10180   7.904   9.590   2.303  0.0413  0.1420  0.2628
 6117W        W10181   0.374   2.697   9.971 -0.0347 -0.2516  0.0896
 6118W        W10182   4.566   9.085   3.888 -0.1186 -0.1819 -0.0446
 6119W        W10183   2.312   0.650   3.645 -0.1716  0.0733  0.2838
 6120W        W10184   7.384   9.964   8.522  0.0434  0.0152  0.1347
 6121W        W10185   0.175   6.954   8.185  0.1827  0.0672 -0.0995
 6122W        W10186   8.730   3.248   9.255 -0.0356  0.2371  0.0239
 6123W        W10187   4.670   2.669  10.901 -0.3583 -0.1326  0.0983
 6124W        W10188   8.039   5.376   1.079 -0.0237 -0.0376 -0.1830
 6125W        W10189   8.863   9.862   9.244  0.0972 -0.0580  0.0156
 6126W        W10190   6.188   9.572   9.234 -0.0129 -0.0509 -0.2421
 6127W        W10191   8.312   6.271  10.676 -0.1849 -0.3155  0.2605
 6128W        W10192   8.470   5.555  10.126  0.0586 -0.1626  0.0027
 6129W        W10193  10.345   7.541   8.606  0.1451 -0.2886 -0.0472
 6130W        W10194   6.368   8.992   8.223 -0.0224 -0.1369 -0.0374
 6131W        W10195   5.355   9.062   1.898  0.1939 -0.0868  0.0874
 6132W        W10196   9.456   8.995   2.408 -0.0130 -0.1212 -0.0628
 6133W        W10197   6.083   8.910   2.664  0.0980 -0.0138 -0.1406
 6134W        W10198   9.783   8.979  11.258  0.3373 -0.1503 -0.0082
 6135W        W10199   9.605   7.909   9.725 -0.3015  0.4084 -0.2352
 6136W        W10200   1.904   1.003   1.689 -0.0894 -0.1640  0.1795
 6137W        W10201   3.398   7.053  11.363  0.0019  0.1911  0.0636
 6138W        W10202   2.205   0.708   1.969  0.0356  0.2291 -0.1522
 6139W        W10203   3.156   9.071   4.025  0.0829 -0.3066  0.0439
 6140W        W10204   2.413   9.322   0.519  0.0783 -0.0052 -0.0940
 6141W        W10205   7.342   2.219   9.754  0.0244 -0.0888  0.1538
 6142W        W10206   6.102   6.415  11.563  0.0807  0.0344  0.1511
 6143W        W10207   6.386   2.287   1.426  0.1349 -0.2466  0.1221
 6144W        W10208   6.124   0.527  10.202  0.0520 -0.0937 -0.0207
 6145W        W10209   7.285   2.347   8.669 -0.1984  0.1039  0.1847
 6146W        W10210   8.405  10.309  11.543  0.2032 -0.0644  0.0364
 6147W        W10211   4.951   7.588   1.019 -0.1465 -0.0324 -0.2693
 6148W        W10212   4.567   3.874  11.192  0.2159  0.0786 -0.1388
 6149W        W10213   7.183   0.483   2.113 -0.1460 -0.1381  0.0991
 6150W        W10214  10.223   4.858   2.785 -0.1389  0.2503  0.1595
 6151W        W10215   4.862   1.364  10.097 -0.1274 -0.0298 -0.1298
 6152W        W10216   7.351   7.979   1.749  0.1601 -0.0568 -0.1161
 6153W        W10217   1.752  10.347   2.942 -0.0826 -0.0596  0.4284
 6154W        W10218   1.760   5.362  11.496 -0.2549 -0.0730  0.2276
 6155W        W10219   3.123   2.141  10.266 -0.0454  0.1563  0.0531
 6156W        W10220   5.118   1.248   0.593  0.1214 -0.1455  0.3193
 6157W        W10221   1.664   0.660   0.714 -0.1554 -0.1253  0.1337
 6158W        W10222   0.172   3.126   4.142 -0.1008  0.1607  0.1785
 6159W        W10223   2.462   6.372  10.542 -0.0480  0.1748 -0.6194
 6160W        W10224   3.719   0.407   8.106  0.2282  0.2221  0.0174
 6161W        W10225  10.519   4.474   0.468  0.1849 -0.0434 -0.3451
 6162W        W10226   4.877  10.637  10.198 -0.4439  0.1087  0.1000
 6163W        W10227   1.076   7.496   2.470 -0.2198  0.1138  0.3898
 6164W        W10228   8.502   1.598   8.376 -0.1036 -0.1766  0.0091
 6165W        W10229   1.744   4.251   8.545 -0.0406  0.2114 -0.3141
 6166W        W10230   3.758   3.068   9.109 -0.1846 -0.0074  0.1163
 6167W        W10231   8.312   7.602   9.981 -0.0980 -0.2366  0.2118
 6168W        W10232   9.605   7.085  10.315  0.0419 -0.0825  0.1498
 6169W        W10233   1.549   7.212  10.236 -0.3613  0.3422 -0.1997
 6170W        W10234   8.140   4.336  10.817 -0.1014  0.1612  0.4731
 6171W        W10235   2.460   8.334   9.332 -0.2649 -0.0078  0.1180
 6172W        W10236   0.780   1.802   9.877 -0.0373  0.1800  0.5164
 6173W        W10237   3.310   8.033   9.363 -0.1250 -0.1964 -0.2277
 6174W        W10238   7.631   9.911  11.368  0.1193  0.0677  0.0716
 6175W        W10239   6.072   2.472   8.730  0.1439 -0.0367 -0.0131
 6176W        W10240   3.167   9.197  10.395  0.1804  0.1093  0.1079
 6177W        W10241   3.620   0.963   9.302 -0.1891 -0.0681  0.1670
 6178W        W10242   5.331   7.518   8.119  0.2553  0.0503  0.0952
 6179W        W10243   3.198   4.075   1.495 -0.0186 -0.0585  0.0057
 6180W        W10244   0.650   3.316   8.595  0.0105  0.2443 -0.6017
 6181W        W10245   8.871  10.267   8.697 -0.1495 -0.1055  0.1243
 6182W        W10246   8.892   0.545   9.033  0.0540 -0.1248  0.0805
 6183W        W10247   6.860   5.866  11.239 -0.1535 -0.2984  0.0088
 6184W        W10248   9.909   4.306  10.365  0.0149  0.1954 -0.1368
 6185W        W10249   5.680   4.572   3.115  0.0497  0.1324 -0.1265
 6186W        W10250   0.438  10.242   1.783  0.0985 -0.4067 -0.0094
 6187W        W10251   9.007   5.180  11.402 -0.3471 -0.0331  0.3667
 6188W        W10252   9.463   2.172   2.557  0.3028  0.0194  0.1126
 6189W        W10253  10.539   0.080   8.009 -0.2145 -0.0179 -0.2218
 6190W        W10254   7.789   4.978   1.384  0.0279  0.1892  0.1443
 6191W        W10255   7.228   3.530   2.460 -0.0041 -0.1521  0.2559
 6192W        W10256   1.485   0.867   8.605 -0.2320 -0.2277 -0.0270
 6193W        W10257   5.016   0.817   2.170 -0.0292  0.1472  0.1608
 6194W        W10258   0.564   1.343   9.436 -0.0809  0.1703 -0.4049
 6195W        W10259   9.591   2.720   0.226  0.1763 -0.2279 -0.0031
 6196W        W10260   9.379   7.115   0.967  0.0334  0.0813 -0.1461
 6197W        W10261   4.742   0.617   1.392 -0.4931  0.0686 -0.2521
 6198W        W10262   4.872   7.406   9.359  0.1393  0.0757 -0.2641
 6199W        W10263   2.476   2.987   1.281 -0.0731 -0.0707  0.0205
 6200W        W10264   0.992   7.511   0.415 -0.3069 -0.0634  0.1316
 6201W        W10265   9.142   8.065   9.458 -0.0198 -0.1226  0.0146
 6202W        W10266   5.108   5.632   9.398 -0.1609  0.5529  0.0202
 6203W        W10267   6.665   4.095   9.149  0.0921 -0.2652  0.0748
 6204W        W10268   6.316   5.092   3.223  0.1108  0.0616  0.1673
 6205W        W10269   8.104   4.416   0.318  0.1075  0.2934 -0.0626
 6206W        W10270   4.931   3.003   9.593 -0.1631 -0.0551 -0.1129
 6207W        W10271   7.307   7.769  10.185 -0.0605 -0.1990 -0.0310
 6208W        W10272   6.475   8.680   0.932  0.0040 -0.0928 -0.0533
 6209W        W10273   3.827   0.849   0.038 -0.0142  0.2921 -0.2625
 6210W        W10274   8.099   6.786  10.655  0.0563  0.1519  0.1314
 6211W        W10275  10.458   8.876   2.540  0.0611  0.1808  0.2628
 6212W        W10276   6.153   9.677   1.864 -0.0408 -0.1946  0.2796
 6213W        W10277  10.155   5.870   8.559 -0.1397 -0.2027 -0.0045
 6214W        W10278   1.741   3.431  11.010 -0.1483 -0.0557  0.0741
 6215W        W10279   0.138   4.760   9.185 -0.0552  0.3299  0.1165
 6216W        W10280   2.060   1.054   2.752 -0.1096  0.2937 -0.2786
 6217W        W10281   2.173   3.616   8.771  0.1435 -0.2568  0.1976
 6218W        W10282   5.329  10.608   1.946 -0.1320  0.2363 -0.1405
 6219W        W10283   0.175   9.123   4.170 -0.0700 -0.0083 -0.0730
 6220W        W10284   0.306   6.289   0.667  0.0779  0.1638 -0.1133
 6221W        W10285   1.980   4.657  10.947  0.1636  0.0171  0.0294
 6222W        W10286   6.503   5.641   2.385 -0.4388  0.1193 -0.0055
 6223W        W10287   8.189   4.192   9.694  0.0564  0.1014 -0.2115
 6224W        W10288   1.433   9.917   8.539  0.3105  0.0707 -0.2305
 6225W        W10289   1.935   5.113   7.903 -0.2276 -0.3054 -0.0520
 6226W        W10290   0.805   1.363   1.783  0.0570 -0.4081 -0.2904
 6227W        W10291   4.384   9.630   1.460  0.1929 -0.0854 -0.2033
 6228W        W10292   7.991   2.429   1.644 -0.2334  0.0175 -0.0239
 6229W        W10293   2.116   5.533  10.171  0.0089  0.1398  0.0444
 6230W        W10294   1.450   4.804   7.818 -0.0449 -0.3149 -0.3283
 6231W        W10295   1.815   8.404   3.073 -0.2403  0.0735  0.1722
 6232W        W10296   5.066   1.791  10.308  0.6451  0.1639  0.0257
 6233W        W10297   1.683   3.852   2.191 -0.3042  0.0984 -0.0260
 6234W        W10298   0.777   2.802  11.387 -0.0964 -0.1058  0.2900
 6235W        W10299   0.556   8.388   1.464  0.2026  0.1232  0.2103
 6236W        W10300   2.361   3.273  10.742 -0.0593 -0.0146  0.1708
 6237W        W10301   9.434   4.375  10.473  0.0353  0.0147  0.4016
 6238W        W10302   3.327   6.263   3.131 -0.1303  0.0025  0.0077
 6239W        W10303   5.177   0.148  11.151 -0.0384  0.4278  0.0382
 6240W        W10304   8.458   7.424   8.566 -0.0931  0.1624 -0.2809
 6241W        W10305   8.517   9.689   9.568 -0.2085  0.2400  0.3557
 6242W        W10306   0.893   7.428  10.976 -0.3069 -0.3111 -0.0731
 6243W        W10307   0.753   1.138   8.519 -0.1876 -0.5205 -0.0427
 6244W        W10308   0.714   4.136   0.571 -0.2148 -0.3289 -0.1288
 6245W        W10309   5.226  10.099   9.048 -0.2972 -0.2248 -0.0215
 6246W        W10310  10.449   4.144  10.225  0.2156  0.0816  0.0814
 6247W        W10311   2.502   3.468  10.323  0.0993  0.2702 -0.2525
 6248W        W10312   0.850   9.199   3.011 -0.2180 -0.2490 -0.2666
 6249W        W10313   1.471  10.612   1.559 -0.0763  0.1548 -0.1685
 6250W        W10314   7.873   2.258   1.067 -0.2718  0.0840  0.0518
 6251W        W10315   8.279   9.489   2.590 -0.0237 -0.2366  0.0959
 6252W        W10316   5.342   3.095  10.498 -0.3581 -0.2411  0.0837
 6253W        W10317   5.662   0.658   9.959 -0.5354 -0.0400  0.1367
 6254W        W10318  10.178   3.621  10.877 -0.2423 -0.0943  0.4246
 6255W        W10319   2.062   2.276   0.975  0.0630 -0.2032  0.2368
 6256W        W10320   6.373   5.597  10.614  0.0866  0.1093 -0.0312
 6257W        W10321   6.701   6.148   0.409 -0.0514  0.1323  0.0368
 6258W        W10322   2.808   7.914   2.167 -0.0622  0.3906 -0.2004
 6259W        W10323   8.598   2.085   8.101  0.1544 -0.1092  0.1645
 6260W        W10324   1.031   1.377   9.255 -0.0278 -0.0911  0.2627
 6261W        W10325   3.336   6.368   2.312 -0.1184  0.1341  0.2553
 6262W        W10326   6.022   5.915  11.338  0.3374  0.0481 -0.0354
 6263W        W10327   3.468   6.059  11.135 -0.2514 -0.1279 -0.2607
 6264W        W10328   1.165   0.893   8.181  0.0267 -0.1680  0.3047
 6265W        W10329   9.749   3.358   1.841  0.4377  0.1150  0.0801
 6266W        W10330   3.507   0.075  11.235  0.0286 -0.0878  0.1051
 6267W        W10331   9.801   5.395   2.692  0.0407 -0.1903  0.1717
 6268W        W10332   8.305   2.993   1.647  0.0279  0.0206 -0.3022
 6269W        W10333   4.682   4.590   1.225  0.2133  0.1556 -0.3561
 6270W        W10334   9.106   5.950   9.719  0.1363  0.0575  0.0234
 6271W        W10335   2.678   5.447   9.604  0.0922 -0.0616  0.1830
 6272W        W10336   5.501   7.297   9.158  0.0449  0.1601 -0.3692
 6273W        W10337   4.391   7.716   9.608  0.0483 -0.0761 -0.2041
 6274W        W10338   4.431   0.493   2.182 -0.3047  0.0977 -0.0179
 6275W        W10339   3.531   3.425   0.376 -0.0564  0.1141  0.0403
 6276W        W10340   3.440   4.364   9.359 -0.3106  0.0165 -0.0282
 6277W        W10341   9.851   0.747  11.056 -0.0196 -0.0496 -0.3630
 6278W        W10342   6.884   3.184   2.288  0.2110  0.0173  0.0994
 6279W        W10343   2.632   0.918   8.623 -0.0247  0.0440 -0.4951
 6280W        W10344   4.624   5.864  10.282  0.2823  0.2833 -0.3966
 6281W        W10345   5.180   4.093   0.601 -0.1884  0.2252 -0.0423
 6282W        W10346   5.752   9.502   9.513  0.0036  0.1578 -0.2504
 6283W        W10347   2.082   8.865   2.236  0.0336  0.1618  0.0102
 6284W        W10348   2.426   5.693   0.555 -0.1109 -0.1716 -0.0393
 6285W        W10349   6.415   6.921   0.749  0.1682  0.0326  0.0713
 6286W        W10350   3.137  10.294   9.724 -0.1808 -0.2537 -0.1183
 6287W        W10351   5.459   0.769   2.925 -0.0101 -0.1012  0.0447
 6288W        W10352   2.499   0.309  10.576 -0.4093 -0.0780  0.0979
 6289W        W10353   5.328   9.705   9.796  0.3515 -0.1180  0.0934
 6290W        W10354   9.571   2.658   1.217 -0.0753 -0.1923  0.1071
 6291W        W10355  10.166   0.988   3.346 -0.1114 -0.0640  0.2722
 6292W        W10356   8.511   9.222  11.250 -0.0198 -0.2342  0.1466
 6293W        W10357   5.917   2.846   1.656 -0.1547  0.0904 -0.0816
 6294W        W10358   8.529   6.794   0.700  0.1287  0.2217 -0.2689
 6295W        W10359   9.756   4.761  10.481  0.3031 -0.0099  0.0179
 6296W        W10360  10.019   0.747   8.992 -0.0797  0.0718 -0.2917
 6297W        W10361   8.114   6.562   1.133  0.4669  0.1535  0.2063
 6298W        W10362   1.750   9.337   3.327 -0.1646 -0.0572 -0.0859
 6299W        W10363   8.197  10.287   1.621  0.0152  0.3513  0.0178
 6300W        W10364   6.484   2.559   9.071 -0.2779  0.2243  0.0533
 6301W        W10365   0.174   8.565  10.406  0.1828 -0.1302 -0.1384
 6302W        W10366   4.143   5.669   4.077  0.1182  0.1572  0.1512
 6303W        W10367   5.277   2.689   4.251 -0.0921  0.1720  0.2305
 6304W        W10368   7.770   7.834   1.357  0.1487  0.0750 -0.3490
 6305W        W10369   2.039   9.916   0.372 -0.1017 -0.0600 -0.1647
 6306W        W10370   4.689   3.510   3.406 -0.0600  0.1348  0.0625
 6307W        W10371   8.956   3.277   2.771  0.0112  0.3655  0.5659
 6308W        W10372   7.284   2.133   1.850 -0.1503 -0.2935 -0.2786
 6309W        W10373   2.968   4.892  11.040  0.0910 -0.2079 -0.3255
 6310W        W10374   7.660   2.828   3.166 -0.0838 -0.0118  0.2058
 6311W        W10375   0.587   0.382  10.762  0.0187 -0.3402 -0.3144
 6312W        W10376   8.254   5.277   8.980  0.0001  0.2381  0.1631
 6313W        W10377   6.775  10.140   8.659 -0.1906 -0.0809 -0.2910
 6314W        W10378   4.198   3.868   8.838  0.1199 -0.2457 -0.1151
 6315W        W10379   0.221   5.453   2.573  0.1905  0.1517  0.2203
 6316W        W10380   1.895   5.049   9.462 -0.2122 -0.0339  0.1181
 6317W        W10381   3.540   4.580   0.916 -0.2787 -0.1545 -0.1319
 6318W        W10382   3.136   7.656   8.991  0.0678 -0.3873  0.0797
 6319W        W10383   9.984   2.189   9.201 -0.2845 -0.1597 -0.0441
 6320W        W10384  10.048   3.850   2.590 -0.0424 -0.1186 -0.0105
 6321W        W10385   3.477   6.506  11.518 -0.2967  0.1950 -0.0546
 6322W        W10386   3.052   4.905   4.077  0.1730 -0.1344 -0.2745
 6323W        W10387   8.506  10.080  10.265 -0.0500 -0.2069 -0.0716
 6324W        W10388   5.682   7.306   2.762  0.0861 -0.2150 -0.0919
 6325W        W10389   6.710   3.773   1.464  0.1791  0.0433  0.1680
 6326W        W10390   5.749   3.036  11.298 -0.0003  0.0631 -0.0370
 6327W        W10391   7.055   4.101   9.435  0.1316 -0.1037 -0.1251
 6328W        W10392   5.164   0.255   1.453  0.0855 -0.0784  0.2221
 6329W        W10393   2.432   2.011  11.444  0.0339 -0.1227 -0.0493
 6330W        W10394  10.277   4.237   1.838 -0.2061  0.0497 -0.2145
 6331W        W10395   6.945   2.347   0.126  0.3781 -0.0752 -0.3801
 6332W        W10396   3.018   6.049   4.573 -0.1011 -0.2013  0.0841
 6333W        W10397   6.935   4.655   1.495 -0.3318  0.3912  0.2830
 6334W        W10398   3.193   4.389   0.619  0.0885 -0.3798  0.0365
 6335W        W10399   4.433   5.815   0.811  0.0201  0.2233 -0.0536
 6336W        W10400   0.318   5.440   2.035 -0.3073 -0.0210  0.1684
 6337W        W10401   9.857   4.904  10.007 -0.2504  0.0873  0.1638
 6338W        W10402   3.789  10.555  10.859 -0.5318  0.0277 -0.2948
 6339W        W10403   0.087   3.798   8.566  0.0431  0.3303 -0.0437
 6340W        W10404   0.356   1.036   7.844  0.1900  0.2882  0.0101
 6341W        W10405   1.015   9.071   4.202 -0.3755 -0.2788  0.0397
 6342W        W10406   9.233   4.023   2.275 -0.0302 -0.0871  0.1096
 6343W        W10407   8.949   3.806   0.009  0.0343 -0.2201  0.2542
 6344W        W10408   6.333   9.864   8.444 -0.0256 -0.1685  0.0981
 6345W        W10409   6.006   3.167   3.908  0.0713 -0.5122  0.0037
 6346W        W10410   2.842   3.989   1.833  0.0495  0.0772 -0.0017
 6347W        W10411   3.327   8.162   1.007 -0.0203 -0.1111  0.0403
 6348W        W10412   9.842   3.135   3.214 -0.2692 -0.0207  0.1869
 6349W        W10413   3.300   2.101   8.268  0.2678 -0.2055 -0.2814
 6350W        W10414   6.297   9.150   9.802  0.0512 -0.0212 -0.2255
 6351W        W10415   0.211   4.451   0.165  0.0446  0.0681  0.3384
 6352W        W10416   0.380   9.530   2.121  0.3149 -0.1836 -0.1004
 6353W        W10417   8.947   4.313  11.407 -0.2131  0.0500  0.2102
 6354W        W10418   0.317   0.919   2.926 -0.1169 -0.0352 -0.1262
 6355W        W10419   1.992   9.652  10.902  0.0986 -0.1529  0.0166
 6356W        W10420   4.749  10.223   0.306  0.3172 -0.0877 -0.0177
 6357W        W10421   3.612   4.631   8.985 -0.0875  0.0539 -0.1540
 6358W        W10422   9.057   0.051   9.126  0.0058  0.3100  0.1067
 6359W        W10423   9.183   7.539   3.576 -0.1220  0.3029  0.0114
 6360W        W10424   1.376   9.332   8.739 -0.1796  0.1470 -0.1699
 6361W        W10425   2.630   2.942   0.361 -0.0125  0.0946  0.1964
 6362W        W10426   2.109   4.873   3.073  0.2034  0.1682 -0.0045
 6363W        W10427   1.152  10.263   0.662 -0.0769 -0.0911  0.0069
 6364W        W10428   5.846   9.820  10.949  0.2521 -0.1324  0.1874
 6365W        W10429   4.415   0.221  10.410  0.3069 -0.0556 -0.0496
 6366W        W10430   3.134   8.732   8.772 -0.0967 -0.1059 -0.0334
 6367W        W10431   5.513   9.868   3.270 -0.2827  0.0067 -0.1748
 6368W        W10432   4.449   8.378   8.400  0.3708 -0.0015 -0.2563
 6369W        W10433   3.011   2.568   9.110 -0.0139 -0.2410 -0.0204
 6370W        W10434   1.810   0.574  11.443 -0.1663  0.1792 -0.2722
 6371W        W10435   1.688   2.496   1.272  0.2764  0.0774 -0.1232
 6372W        W10436   4.563   1.129   0.534 -0.3867 -0.3407  0.3465
 6373W        W10437   1.204   9.886   9.174  0.1072  0.0223 -0.0170
 6374W        W10438  10.451   9.453   0.201 -0.1681 -0.2361 -0.0302
 6375W        W10439   2.924   0.865   0.135  0.1258 -0.4346 -0.0046
 6376W        W10440   0.546   2.663   2.519 -0.1066  0.1450 -0.1390
 6377W        W10441   9.226   1.735   3.279 -0.1124  0.4170  0.1333
 6378W        W10442   7.548   7.326   2.084  0.0010 -0.0082  0.5350
 6379W        W10443  10.591   9.492   3.905  0.1738  0.0204  0.0466
 6380W        W10444   1.150   8.733   2.073 -0.2545  0.0025  0.0388
 6381W        W10445   1.097   1.478  10.131  0.3711  0.1708  0.0608
 6382W        W10446   0.670   4.473   3.950 -0.0748 -0.0750 -0.2123
 6383W        W10447   7.104   5.554   0.716  0.0375  0.1122 -0.2351
 6384W        W10448   0.472   7.789   2.559  0.1116 -0.1085  0.0608
 6385W        W10449   1.643   3.046  11.336 -0.4012 -0.3009 -0.0197
 6386W        W10450   5.595   5.871  10.985 -0.1466  0.0205  0.1925
 6387W        W10451   5.666   6.678   0.201  0.0894  0.3372 -0.0453
 6388W        W10452   2.306   9.904   8.344 -0.0499  0.1178  0.0289
 6389W        W10453   5.470   7.221   3.435 -0.1366  0.1074 -0.3768
 6390W        W10454   5.000   9.144   8.263 -0.0902  0.1143 -0.1781
 6391W        W10455   9.211  10.240   9.451 -0.1494  0.3420  0.0261
 6392W        W10456   6.525   8.773   0.371  0.1261 -0.0199 -0.0866
 6393W        W10457   7.324   1.014   2.046 -0.2414  0.0762 -0.0429
 6394W        W10458   6.403   8.125   1.704 -0.1308 -0.1279  0.2556
 6395W        W10459   7.137   1.265  10.233  0.3848  0.0610  0.1054
 6396W        W10460  10.429   4.653   2.010  0.0233  0.1535 -0.0767
 6397W        W10461   7.552   7.536   3.042 -0.0472 -0.0658  0.0473
 6398W        W10462   1.858   4.393  11.364 -0.2170 -0.0723  0.0046
 6399W        W10463   7.835   9.994  10.835  0.4358  0.0870  0.1389
 6400W        W10464   2.369   0.283   0.459  0.0543  0.1236  0.0141
 6401W        W10465   5.489   0.364   9.592 -0.3981  0.0362 -0.0956
 6402W        W10466   2.047   6.415   8.409  0.1179  0.3944 -0.0135
 6403W        W10467   6.778   2.545   3.243  0.1328  0.1755 -0.0226
 6404W        W10468   9.673   6.077   2.610 -0.3497 -0.1904 -0.2561
 6405W        W10469   2.707   9.939   1.136  0.1678 -0.0781 -0.3201
 6406W        W10470   2.185   5.421   8.719 -0.0699  0.1488  0.0867
 6407W        W10471   6.336   4.552   8.567 -0.1699 -0.0865 -0.0002
 6408W        W10472   9.744   1.804   9.956  0.3232  0.1130  0.3736
 6409W        W10473   5.396   4.885   2.156 -0.0879 -0.0164 -0.0958
 6410W        W10474   3.667   7.762   0.005 -0.1470  0.3482 -0.1627
 6411W        W10475   9.416   2.868   3.100 -0.0885  0.4785 -0.0084
 6412W        W10476   4.788   1.770   8.789  0.0101  0.0046  0.1993
 6413W        W10477   5.393   8.820  10.465 -0.0227 -0.5402  0.0640
 6414W        W10478   4.249   3.606  10.888  0.2086 -0.0358 -0.1445
 6415W        W10479   5.925   9.240   0.759  0.1911  0.0842 -0.5411
 6416W        W10480   1.785   1.954   1.199 -0.5977  0.2802  0.1681
 6417W        W10481   3.826  10.226   3.293  0.0949 -0.2414 -0.2089
 6418W        W10482   0.822   2.621   0.506  0.0739  0.1631  0.2403
 6419W        W10483   9.305   3.431  10.600 -0.1518 -0.5202 -0.1240
 6420W        W10484   7.015   3.565   9.447 -0.1621  0.1326 -0.0713
 6421W        W10485   6.775   9.155   3.014 -0.0253  0.3578 -0.0986
 6422W        W10486   1.581   2.447   2.873 -0.1304 -0.1772  0.0221
 6423W        W10487   3.300   6.479  10.566  0.3026 -0.4626  0.2935
 6424W        W10488   6.706   5.177   2.398  0.0481 -0.1357  0.0479
 6425W        W10489   6.138   2.913   0.037 -0.3086 -0.3922  0.0862
 6426W        W10490   2.683   9.516   8.662 -0.0073  0.1198  0.0764
 6427W        W10491   3.737   9.106   1.220  0.2056 -0.1607 -0.1578
 6428W        W10492   3.107   3.357   8.292 -0.1271 -0.0610  0.3494
 6429W        W10493   0.466   4.596   2.146 -0.0419  0.2695  0.0435
 6430W        W10494   0.247   4.217   0.675 -0.0820 -0.0976  0.3692
 6431W        W10495   6.463   4.164   3.244 -0.0407 -0.0902 -0.0144
 6432W        W10496   7.885   3.487   8.101  0.3579  0.0041 -0.0114
 6433W        W10497   9.772   4.975   3.095 -0.0449 -0.1190 -0.1398
 6434W        W10498   0.695   6.276  10.314 -0.0606 -0.2660  0.1613
 6435W        W10499   5.235   1.810   8.137  0.1283  0.1324  0.4599
 6436W        W10500   5.538   0.444   9.084 -0.4433 -0.1697 -0.1838
 6437W        W10501   4.340   7.692  10.530  0.3491  0.2149 -0.0385
 6438W        W10502   3.658   4.640   1.923  0.0328  0.1869 -0.1256
 6439W        W10503   6.765   6.323   8.244 -0.0878 -0.1073 -0.2179
 6440W        W10504   9.166   1.253   0.053  0.1319 -0.0759  0.1462
 6441W        W10505   2.988   6.119  10.776 -0.1992  0.0864  0.1121
 6442W        W10506   1.047   8.450   0.901  0.4586  0.0579  0.1654
 6443W        W10507   3.184   6.817  10.212  0.2324 -0.1992 -0.0527
 6444W        W10508   4.198   8.807   2.648 -0.1948  0.2907  0.0173
 6445W        W10509   9.937   9.793   8.636  0.1853 -0.0866 -0.1766
 6446W        W10510   8.782  10.332   1.386 -0.0875 -0.0633 -0.1497
 6447W        W10511   3.135   4.730   9.734 -0.1313  0.1952  0.0218
 6448W        W10512   8.213   5.792  11.050  0.0136  0.0067  0.0663
 6449W        W10513   2.434   3.436   2.505 -0.1951 -0.1221 -0.1473
 6450W        W10514   9.638   8.987   9.659 -0.2043 -0.4244  0.0834
 6451W        W10515   1.172   3.423   1.496 -0.2382 -0.3590 -0.1176
 6452W        W10516   4.227   9.418   0.955 -0.1083 -0.0732  0.1639
 6453W        W10517   1.557   5.136   0.260 -0.5209 -0.0074  0.1641
 6454W        W10518   5.189   8.406  10.256  0.3355  0.0752  0.0614
 6455W        W10519   0.084   3.874   7.958  0.0179  0.1105 -0.2522
 6456W        W10520   3.306   1.904   1.262  0.0381  0.1106  0.2564
 6457W        W10521   5.352   3.817   2.808 -0.1128 -0.5221 -0.1737
 6458W        W10522   9.156   3.146  10.110  0.0323 -0.1618 -0.0517
 6459W        W10523   5.795   8.082   1.026 -0.0083 -0.1920  0.0063
 6460W        W10524   7.294   1.421   9.350  0.0216 -0.0449  0.2856
 6461W        W10525   5.401   1.993   9.538  0.0879 -0.0670 -0.0421
 6462W        W10526   2.909   7.065  11.545 -0.2126  0.0726 -0.0117
 6463W        W10527   7.384   1.855   2.282 -0.1453  0.0021  0.2396
 6464W        W10528   6.623   5.482  11.037 -0.0331  0.3706 -0.1007
 6465W        W10529   3.676   7.418   2.799  0.0569 -0.1117  0.1062
 6466W        W10530   9.956   0.822   9.484 -0.0804  0.0357  0.1184
 6467W        W10531   9.682   4.791   2.626  0.1303 -0.1209 -0.1173
 6468W        W10532   2.129   2.182   0.447  0.7467  0.3293  0.1435
 6469W        W10533   5.116   4.786   8.897 -0.2580  0.0817 -0.1233
 6470W        W10534   4.045   1.257   7.975  0.0130  0.0436  0.3303
 6471W        W10535  10.108   7.592   0.284 -0.2955  0.1380 -0.2097
 6472W        W10536   8.783   4.969   1.501 -0.1942 -0.0241  0.0655
 6473W        W10537   4.229   6.828   0.979 -0.0212 -0.2484 -0.3784
 6474W        W10538   1.437   0.215  11.564 -0.0426 -0.2005 -0.3056
 6475W        W10539   4.390   0.910   0.116 -0.1582 -0.1960 -0.0177
 6476W        W10540  10.054   7.657   9.674 -0.2757  0.1656 -0.0817
 6477W        W10541  10.503  10.078  11.223 -0.2394  0.1059 -0.0990
 6478W        W10542   7.106   9.476   0.692 -0.1620  0.0986  0.0234
 6479W        W10543   4.957   0.933   9.179 -0.4069  0.0610  0.4958
 6480W        W10544   1.529   3.700  10.495  0.0278 -0.3561 -0.1521
 6481W        W10545   0.002   6.706   8.651 -0.1328 -0.1813  0.1407
 6482W        W10546   1.224   5.030  10.932  0.0071  0.0696 -0.1748
 6483W        W10547   8.969   4.482   4.004  0.0313  0.0166 -0.2097
 6484W        W10548   1.151   4.723   2.091 -0.2228  0.2177  0.2372
 6485W        W10549   8.930   3.592   8.390 -0.1542 -0.0014  0.0029
 6486W        W10550   9.262   9.047  11.236 -0.3964  0.2030 -0.1412
 6487W        W10551   3.214   3.442   9.504 -0.1143  0.2046 -0.1961
 6488W        W10552   2.238   7.171   7.816 -0.0093 -0.2031 -0.1683
 6489W        W10553   0.984   7.095  10.260 -0.0200 -0.1062  0.1917
 6490W        W10554   6.128   2.681   9.335 -0.0767 -0.0304  0.0782
 6491W        W10555   5.400   3.344  10.937 -0.1318 -0.0225 -0.0909
 6492W        W10556   4.880   9.362   2.727  0.0525  0.4780 -0.1652
 6493W        W10557   4.000   5.718   0.608  0.1167 -0.0841  0.0808
 6494W        W10558   1.871   2.000   3.196 -0.1975  0.0453 -0.1409
 6495W        W10559   2.454   7.294   1.694 -0.1728  0.1235 -0.2678
 6496W        W10560   0.291   8.133   8.632 -0.2496  0.2602 -0.1395
 6497W        W10561   9.180   2.470   9.442  0.0470 -0.2368 -0.1620
 6498W        W10562   6.776   3.327   2.792 -0.0675  0.1189 -0.0149
 6499W        W10563   6.907   5.762   3.019  0.0740 -0.4617 -0.0269
 6500W        W10564   3.918   4.577  10.932 -0.2103  0.0786  0.1292
 6501W        W10565  10.426   8.322  10.684 -0.0593  0.3433 -0.1202
 6502W        W10566   1.056   9.820   2.586  0.4077  0.2130 -0.1092
 6503W        W10567   7.007   5.224   8.805  0.0713 -0.2045 -0.0760
 6504W        W10568   1.388  10.599  11.159  0.0107  0.0730  0.0095
 6505W        W10569   1.416   8.771   4.273 -0.0019  0.2241 -0.0652
 6506W        W10570   3.461   7.252   1.267  0.0815 -0.3536  0.2205
 6507W        W10571   4.974   0.342   9.398  0.0343 -0.0142  0.2286
 6508W        W10572   6.927   9.357   2.419 -0.1188 -0.1753  0.0330
 6509W        W10573   6.560   5.001   1.671  0.2536 -0.0794 -0.3970
 6510W        W10574   0.557   6.406   3.509 -0.0057 -0.2385 -0.3935
 6511W        W10575   7.359   0.194  10.625 -0.0889 -0.0651 -0.0179
 6512W        W10576   4.980   9.254   3.208  0.0915  0.0609 -0.1147
 6513W        W10577   1.247   2.722   0.029 -0.1206  0.1023 -0.0613
 6514W        W10578   1.017   1.711   2.080 -0.0576  0.1568  0.1683
 6515W        W10579   2.030   1.427   3.345  0.0273  0.1257 -0.1520
 6516W        W10580   1.856   2.012  11.229  0.0580  0.2872 -0.0423
 6517W        W10581   7.341   8.487   9.140 -0.1573 -0.2752  0.1015
 6518W        W10582   9.030   3.516   3.811 -0.0457  0.1014  0.0788
 6519W        W10583   2.338   9.341  10.203 -0.1169  0.1654  0.0468
 6520W        W10584   3.080   3.499   3.410  0.0192  0.1645  0.0886
 6521W        W10585   7.641   0.153   8.937 -0.0476 -0.0444  0.1219
 6522W        W10586   0.259   1.998  11.596 -0.0645 -0.0237 -0.1349
 6523W        W10587   9.590   8.686  10.906 -0.2448  0.0573  0.0202
 6524W        W10588   5.476   8.419  11.476 -0.0703  0.1984  0.2261
 6525W        W10589   3.495   0.314   2.170 -0.1137  0.1533 -0.5314
 6526W        W10590   1.442   8.141   2.808  0.1543  0.0689  0.1325
 6527W        W10591   2.829   7.922   8.652 -0.1345 -0.3103  0.4274
 6528W        W10592   3.996   6.040  10.214 -0.4819  0.0530 -0.1373
 6529W        W10593   0.943  10.098  10.459 -0.3895 -0.2419  0.1314
 6530W        W10594   7.715   4.675   3.189 -0.4047  0.2547  0.1496
 6531W        W10595   9.313   6.183   0.722 -0.5851 -0.0221  0.1625
 6532W        W10596   7.832   9.376  10.052  0.1298 -0.1989  0.2315
 6533W        W10597   3.279   7.279   1.917  0.2734 -0.2421 -0.1220
 6534W        W10598   8.945   9.168  10.871  0.1532  0.0581 -0.0002
 6535W        W10599   8.937  10.201   1.843 -0.0642  0.2006 -0.0964
 6536W        W10600   7.552   4.567   9.979 -0.2941 -0.1749  0.0762
 6537W        W10601   7.139   7.086  11.184  0.1373 -0.2047 -0.0405
 6538W        W10602   0.943   8.397   2.482  0.1745 -0.2064  0.2225
 6539W        W10603   8.780   4.991   0.317  0.3391  0.1450  0.1293
 6540W        W10604   0.008   0.222   9.890  0.1540 -0.0532 -0.0332
 6541W        W10605   1.735   2.776   4.269 -0.3115 -0.2063 -0.0638
 6542W        W10606  10.370   5.928   3.269 -0.1566 -0.4045  0.0507
 6543W        W10607  10.532   5.816   1.380  0.1034 -0.1134  0.1072
 6544W        W10608   0.602   7.713   8.486  0.2813 -0.1571  0.1506
 6545W        W10609   0.328   4.211  10.330  0.0843 -0.0725 -0.0765
 6546W        W10610   4.773   9.890   8.773 -0.1350  0.0424  0.3833
 6547W        W10611   4.185   8.249  11.173  0.0029 -0.1727 -0.0346
 6548W        W10612   7.860   5.552  10.101 -0.1274  0.4089 -0.0166
 6549W        W10613   3.531   8.399   2.307  0.1812 -0.1493 -0.2956
 6550W        W10614   1.842   9.643   8.196  0.1609  0.0000  0.4561
 6551W        W10615   3.781   2.553   2.425 -0.4966 -0.0213 -0.0152
 6552W        W10616   0.310   6.789   0.899  0.0673 -0.1972 -0.2082
 6553W        W10617   7.852   1.610  11.473 -0.1240 -0.0386  0.0285
 6554W        W10618   8.162   7.481   1.187  0.0830  0.0276 -0.0739
 6555W        W10619  10.625   3.794  10.659 -0.0218 -0.1209  0.1410
 6556W        W10620   2.707   6.867   1.753  0.0297  0.0537 -0.1166
 6557W        W10621   5.270  10.486   0.389 -0.1813  0.0099  0.1180
 6558W        W10622   9.978   6.409   1.484  0.0500  0.0052  0.2055
 6559W        W10623   3.232   7.567  11.365 -0.3442 -0.1210 -0.1536
 6560W        W10624   1.589   7.250  11.408 -0.0082 -0.2113  0.0349
 6561W        W10625   2.799   0.359   1.410 -0.1104  0.0050 -0.1231
 6562W        W10626  10.519   6.802   4.423 -0.2490  0.3613 -0.1679
 6563W        W10627   8.495   4.716  10.681 -0.0116  0.3626 -0.0196
 6564W        W10628   9.265   1.913   1.026 -0.1140  0.1245 -0.1105
 6565W        W10629   3.777   5.436  10.703 -0.0328  0.2793  0.1038
 6566W        W10630   6.178   8.427   2.443 -0.0414  0.2447  0.2597
 6567W        W10631  10.108   2.532   8.864  0.0046  0.1010 -0.0447
 6568W        W10632   3.277   8.799   1.939 -0.0173  0.1500  0.0021
 6569W        W10633  10.364   0.658   0.323  0.2842 -0.1428 -0.0713
 6570W        W10634   3.278   9.313   0.569 -0.0853 -0.0745  0.1236
 6571W        W10635   0.066   8.161   2.534  0.0876 -0.0147  0.0808
 6572W        W10636   2.513   2.737   8.414 -0.0828 -0.1369  0.2092
 6573W        W10637   9.973   1.730  10.916 -0.2257  0.1676 -0.1009
 6574W        W10638  10.191   2.005   7.179  0.3046  0.2087  0.1217
 6575W        W10639   3.976   3.394   2.398 -0.3058  0.2498 -0.1649
 6576W        W10640   7.264   6.768   2.119 -0.0554 -0.0062 -0.1165
 6577W        W10641   5.176   8.090   2.740 -0.2488 -0.2515 -0.0378
 6578W        W10642  10.276   0.502   9.990  0.0319  0.0304  0.1812
 6579W        W10643   0.578   9.673   1.657  0.0669  0.0048 -0.0747
 6580W        W10644  10.471   9.798   8.762  0.1492  0.1548  0.0300
 6581W        W10645   4.314   6.353   3.247  0.1022  0.4271 -0.1740
 6582W        W10646   7.315   3.031  10.296  0.0354 -0.0131  0.0386
 6583W        W10647   3.968   1.324   9.166  0.0398 -0.0637 -0.3195
 6584W        W10648   8.473   9.505   1.288 -0.2734 -0.1683 -0.2885
 6585W        W10649   2.236   6.680   7.863  0.0092  0.3806  0.0928
 6586W        W10650   3.323   0.808  11.010  0.0652 -0.1585 -0.3238
 6587W        W10651   2.092   1.082   2.202 -0.1801  0.0899 -0.1345
 6588W        W10652   9.316   3.733   3.334 -0.0239 -0.0861 -0.0525
 6589W        W10653   0.665   8.272  10.894 -0.0476  0.3227  0.1098
 6590W        W10654   0.179   3.057  10.653  0.2544 -0.2778 -0.0816
 6591W        W10655   1.923   8.488   0.672  0.0526 -0.0295 -0.1048
 6592W        W10656   4.416   7.390   9.208  0.2579 -0.0619 -0.1665
 6593W        W10657   8.743   6.889   0.235 -0.0037  0.4790 -0.1808
 6594W        W10658   5.278   0.498  10.807 -0.1880  0.2484  0.4376
 6595W        W10659   6.478   3.717   3.003  0.0237 -0.0238  0.1214
 6596W        W10660   0.480  10.076   0.411  0.0628 -0.0505 -0.0770
 6597W        W10661   4.638   4.578   1.755  0.0044  0.2565  0.1849
 6598W        W10662   6.042   6.655   9.299  0.4229  0.0283 -0.2267
 6599W        W10663   8.000   9.536  11.108 -0.0014  0.2708 -0.1092
 6600W        W10664  10.061   9.472   1.786 -0.0659 -0.0119  0.4457
 6601W        W10665   5.788   7.333  10.809  0.2887  0.0455  0.0024
 6602W        W10666   2.301   3.891  10.486 -0.0864  0.2199 -0.2439
 6603W        W10667   4.042   4.352   8.669 -0.2860 -0.2206  0.1568
 6604W        W10668   1.987   7.083   1.574 -0.0519  0.0971 -0.0939
 6605W        W10669   1.472   2.912   0.987  0.2730  0.0184  0.0498
 6606W        W10670   9.816   8.268  11.182 -0.2099  0.1934  0.0520
 6607W        W10671   5.037   3.796  11.439  0.1515 -0.1825  0.0260
 6608W        W10672   8.638   7.845  10.861  0.2603  0.2980 -0.4095
 6609W        W10673   9.429   6.350   3.076  0.0106  0.4241 -0.1754
 6610W        W10674   0.283   4.096   1.181 -0.1558 -0.2094  0.0628
 6611W        W10675   9.213   1.749   2.009 -0.0307 -0.3206  0.2183
 6612W        W10676   9.649   1.735   2.411 -0.2302 -0.2135 -0.2879
 6613W        W10677   5.611   2.960   0.634  0.2412  0.0634 -0.1151
 6614W        W10678   6.504   5.549   3.365  0.0839 -0.1750  0.0514
 6615W        W10679   5.644   6.771   9.005  0.0506 -0.3590 -0.0180
 6616W        W10680   2.538   0.317   9.062 -0.2054 -0.2800  0.0370
 6617W        W10681   4.176   8.719  10.953  0.2368 -0.0685 -0.1209
 6618W        W10682   3.940   2.063   2.359 -0.1451 -0.0096 -0.1306
 6619W        W10683   2.650   8.269   9.815  0.0394 -0.0572 -0.3060
 6620W        W10684   5.247   5.230   1.823  0.1784  0.2559 -0.1289
 6621W        W10685   0.073   2.714   3.314  0.2621  0.2498 -0.3293
 6622W        W10686   8.158   5.585  10.569  0.0403  0.0756 -0.0961
 6623W        W10687   3.198   6.092   9.377 -0.0527  0.1267 -0.1488
 6624W        W10688   7.821  10.042  10.287 -0.1393  0.1627 -0.2628
 6625W        W10689  10.220   3.494   3.356  0.0036  0.1828 -0.1015
 6626W        W10690   6.604   1.870   3.680  0.3080  0.1229  0.2038
 6627W        W10691  10.590   9.434   7.947 -0.3945 -0.0820  0.0114
 6628W        W10692   7.177   1.537   2.910 -0.2339  0.0669 -0.3694
 6629W        W10693   2.550   7.860   3.417 -0.0667  0.1747 -0.1165
 6630W        W10694   0.600   9.066   8.426  0.0770 -0.1246  0.0156
 6631W        W10695   8.761   7.434  11.097  0.1853  0.0988 -0.0283
 6632W        W10696   0.444   3.442   9.763  0.5339 -0.1865  0.1647
 6633W        W10697   6.246  10.572  11.487  0.1731  0.0082 -0.0029
 6634W        W10698   6.510   9.671   0.126  0.1783  0.1346  0.1075
 6635W        W10699   4.124   5.023   4.896  0.4745  0.3194  0.1205
 6636W        W10700  10.044   3.716   1.594  0.1434 -0.1408 -0.2494
 6637W        W10701   8.244   8.001  11.190  0.2125 -0.0276 -0.0173
 6638W        W10702   6.645   5.311   9.285 -0.1344  0.2011 -0.1932
 6639W        W10703   2.411   8.227   1.032 -0.0935  0.0935 -0.1016
 6640W        W10704   8.760   3.099   1.409  0.1898 -0.0668 -0.0117
 6641W        W10705  10.336   1.537   8.914  0.0348 -0.1184 -0.0846
 6642W        W10706   1.419   9.548  11.162  0.2901 -0.1641  0.2232
 6643W        W10707   8.027   4.351   9.228 -0.0522  0.0089  0.0332
 6644W        W10708   6.345   9.946  10.726 -0.1306  0.1481 -0.0671
 6645W        W10709   1.682   3.352   8.587 -0.2458 -0.0881  0.1287
 6646W        W10710   7.813   4.564   8.360 -0.0673 -0.0300  0.2069
 6647W        W10711   0.140   0.656   1.907  0.0350  0.3425  0.0905
 6648W        W10712  10.268   7.956   9.297 -0.1710 -0.0699 -0.3188
 6649W        W10713   4.421   6.773   1.863 -0.3326  0.1292 -0.2529
 6650W        W10714   8.006   8.980   9.813  0.0321  0.0525  0.0726
 6651W        W10715   0.339   7.082   0.467  0.2242  0.1441  0.3818
 6652W        W10716   9.777   0.338   9.313  0.1394  0.4777 -0.0843
 6653W        W10717   7.124   5.490  11.023  0.0508 -0.0742 -0.0872
 6654W        W10718   6.416   1.005  10.299  0.1247 -0.2305 -0.1506
 6655W        W10719   5.400   6.132   1.297 -0.1051 -0.0490  0.0230
 6656W        W10720   6.813   6.509   1.953  0.1041  0.1320  0.0050
 6657W        W10721   4.432   2.533   3.076  0.0409 -0.1425  0.0192
 6658W        W10722   2.220   8.530   9.766  0.2073  0.2376 -0.0423
 6659W        W10723   0.163   1.629  10.002  0.2810 -0.2197  0.1151
 6660W        W10724  10.113   6.101   8.084  0.1328  0.0746  0.0164
 6661W        W10725   6.126   5.924   1.336 -0.3717 -0.0813  0.2421
 6662W        W10726   7.295   2.244  10.903 -0.0780  0.0148  0.3117
 6663W        W10727  10.018   5.596   1.120  0.0274  0.3057 -0.1976
 6664W        W10728   2.832   4.501   4.595 -0.0783 -0.0270  0.0701
 6665W        W10729   8.930   3.318   3.321 -0.0547  0.0306 -0.1129
 6666W        W10730   2.537   6.978   4.858  0.0449 -0.0204 -0.0061
 6667W        W10731   1.926   9.717   8.648 -0.0233  0.0452  0.1629
 6668W        W10732   2.045   7.609   1.561 -0.3542 -0.2517 -0.2766
 6669W        W10733   5.755   0.626   0.411 -0.2917 -0.1649  0.2734
 6670W        W10734   3.476   1.492   3.867 -0.0325  0.1323 -0.2770
 6671W        W10735  10.287   0.644   8.557  0.0249  0.3732 -0.1866
 6672W        W10736   6.980   1.531   8.480 -0.0958 -0.2294 -0.4406
 6673W        W10737   4.740   5.321  11.239  0.1445 -0.1015  0.2359
 6674W        W10738   1.831   2.622   0.585 -0.0478  0.0547  0.2852
 6675W        W10739   1.430   8.899   8.977 -0.0005  0.0641  0.2904
 6676W        W10740   2.920   2.697   1.490 -0.1975 -0.3249 -0.1435
 6677W        W10741   7.652   5.652   0.841  0.2464  0.0579  0.2605
 6678W        W10742   3.128   4.453   1.189  0.0635  0.0275 -0.2046
 6679W        W10743   2.328   1.166   8.265 -0.1035 -0.0323  0.0136
 6680W        W10744   7.862   0.598   1.351 -0.2130 -0.0086  0.0190
 6681W        W10745  10.405  10.439   0.507  0.1096  0.1614 -0.1441
 6682W        W10746   2.600   0.349   9.920  0.1520  0.0106 -0.4080
 6683W        W10747   5.668   4.252   8.162 -0.1900  0.1051  0.0180
 6684W        W10748   2.614   3.283   3.579  0.2393  0.0988 -0.0102
 6685W        W10749   1.975  10.433   2.395 -0.0533  0.1002 -0.0654
 6686W        W10750   9.690   2.221  11.453  0.2776  0.0515 -0.0003
 6687W        W10751   6.402   2.191   2.264  0.1229  0.0309 -0.1612
 6688W        W10752   9.808   4.729   4.306 -0.0083  0.1844 -0.3453
 6689W        W10753   9.633   7.381   9.918  0.2533  0.1212  0.0912
 6690W        W10754   5.712   7.079  11.578  0.0251  0.0370  0.2273
 6691W        W10755   5.202   5.014  10.540  0.0381  0.3295  0.0162
 6692W        W10756   3.668   5.668   8.102 -0.0314 -0.2354 -0.1614
 6693W        W10757   0.722   4.153   1.406 -0.0298  0.2009 -0.0087
 6694W        W10758   0.038   4.398   9.735  0.0364 -0.0291 -0.2821
 6695W        W10759   4.975   5.404   1.375 -0.0132 -0.0848 -0.0488
 6696W        W10760   3.970   2.616   9.756  0.0257  0.3390  0.0298
 6697W        W10761   0.731   1.734   3.861  0.2353 -0.0073 -0.2247
 6698W        W10762   4.847   9.119   8.783  0.2675 -0.0782 -0.0959
 6699W        W10763   3.509   8.968   8.517  0.2500  0.0337  0.0367
 6700W        W10764   6.419   7.779   8.611  0.0224 -0.6617 -0.1223
 6701W        W10765   2.543   4.752   2.881 -0.3795 -0.2249  0.1199
 6702W        W10766   0.385   9.077   0.359  0.2188  0.3368  0.1297
 6703W        W10767   0.740   3.221   1.375 -0.0941 -0.1001  0.0200
 6704W        W10768   8.712   4.636   8.123 -0.2304  0.1453 -0.0379
 6705W        W10769   0.046   2.675   9.585 -0.0859 -0.0803 -0.1203
 6706W        W10770  10.397   9.268   2.188  0.0127  0.1268  0.0211
 6707W        W10771   1.841   8.027   2.382 -0.0833  0.2262 -0.1583
 6708W        W10772   5.422   7.560   4.510  0.1268 -0.2230  0.0318
 6709W        W10773   3.712   0.907   3.564  0.0226  0.0629  0.0968
 6710W        W10774   9.170   9.411   2.953  0.2676  0.0980  0.0995
 6711W        W10775  10.536   1.529   8.395  0.2103 -0.0976 -0.1257
 6712W        W10776  10.188   2.817   4.104  0.1274  0.3865  0.0356
 6713W        W10777   3.464   4.342   9.890  0.1823  0.0653  0.3402
 6714W        W10778   6.487   1.185   2.430  0.0612 -0.2048 -0.0440
 6715W        W10779   1.485   2.224   8.206  0.0202 -0.1973 -0.1494
 6716W        W10780   6.429   6.243   1.625 -0.2630 -0.1981 -0.1374
 6717W        W10781   9.949   5.420   0.599 -0.0786 -0.0930 -0.1402
 6718W        W10782   7.951   6.719   8.539  0.1687  0.1854  0.4624
 6719W        W10783   9.287   4.794   3.144 -0.0684  0.1188 -0.1601
 6720W        W10784   5.885   1.245  10.287 -0.0556  0.2428  0.0034
 6721W        W10785   3.537   5.326   0.219  0.1580 -0.3708 -0.0344
 6722W        W10786   1.003   8.181   2.994 -0.2699  0.2810  0.2810
 6723W        W10787   7.622   2.437   4.129  0.0638 -0.0393  0.0285
 6724W        W10788   5.781   0.795   9.371 -0.0551 -0.3804  0.1589
 6725W        W10789   2.631   9.662   9.526  0.1899 -0.1025  0.1229
 6726W        W10790   8.191   8.700   9.374 -0.4163 -0.3690  0.4552
 6727W        W10791   5.385   7.503   1.260  0.1671  0.0964 -0.0013
 6728W        W10792   5.471   7.457   9.755  0.2213 -0.0228 -0.0009
 6729W        W10793   1.749   4.894   8.695 -0.1346 -0.1039  0.0767
 6730W        W10794   3.637   6.995   4.136  0.0376  0.0233  0.0201
 6731W        W10795   3.340   5.306  10.928 -0.1497  0.3528  0.1966
 6732W        W10796   6.233   3.500  10.606 -0.0857 -0.2272 -0.1850
 6733W        W10797   8.115   2.891   0.263 -0.0347  0.2316 -0.1372
 6734W        W10798   7.464   6.805   0.703 -0.3039  0.3068 -0.1320
 6735W        W10799   4.908   9.059   9.336  0.3609  0.1782  0.1248
 6736W        W10800   3.923   6.214  10.697  0.0044  0.4545  0.0671
 6737W        W10801   0.734   4.338   2.897  0.0462 -0.1201 -0.0451
 6738W        W10802   1.266   1.607  11.148  0.0394 -0.0429  0.0326
 6739W        W10803   4.844   2.553   0.946 -0.1427 -0.0087 -0.0585
 6740W        W10804   9.948   9.410   3.283 -0.2670 -0.1936  0.0632
 6741W        W10805   2.931   4.083   2.525 -0.0770 -0.1556  0.0211
 6742W        W10806   2.068   4.066   9.754 -0.0715 -0.1258 -0.1011
 6743W        W10807   4.504   9.496   8.722  0.4931  0.2193 -0.3318
 6744W        W10808   0.735   2.113  10.852  0.0561 -0.0974  0.1910
 6745W        W10809   8.911   6.195   8.119 -0.2599 -0.0203  0.3884
 6746W        W10810  10.137   6.742   0.351  0.2370 -0.3395 -0.0249
 6747W        W10811   4.244  10.210  11.326 -0.3067  0.0779 -0.1056
 6748W        W10812   8.052   6.048   8.407  0.1256  0.1921 -0.1310
 6749W        W10813   7.627   3.365  10.550  0.0418  0.1521  0.2155
 6750W        W10814   4.741   5.063  10.818  0.2163  0.0167 -0.0250
 6751W        W10815   6.551   5.127  10.690 -0.0771 -0.1903  0.1344
 6752W        W10816   2.136   2.159  10.818 -0.0853 -0.1685 -0.1403
 6753W        W10817   0.677   6.783   3.815 -0.5229  0.0300 -0.1323
 6754W        W10818   3.103   7.268   7.608 -0.0211 -0.0900 -0.1156
 6755W        W10819   1.946   8.684   9.372 -0.1337 -0.0164  0.0792
 6756W        W10820   7.302   4.830   1.159  0.0777 -0.0965  0.0003
 6757W        W10821   3.227   2.695   4.043  0.2727  0.2206 -0.1038
 6758W        W10822  10.592   0.130  10.398 -0.0535 -0.1056  0.2142
 6759W        W10823   9.755   3.231   9.357  0.1391  0.2725  0.1292
 6760W        W10824   7.322   9.555  10.734 -0.2278 -0.1763 -0.0977
 6761W        W10825   7.176   4.449  10.344 -0.2798  0.0542  0.2466
 6762W        W10826   5.726   7.989  11.598  0.1579  0.1226  0.0366
 6763W        W10827   2.116   7.322   8.346 -0.3695  0.0939  0.1138
 6764W        W10828   3.186   0.367   8.796  0.0238  0.0483 -0.2084
 6765W        W10829  10.422   0.366   8.983  0.1481  0.0727  0.0298
 6766W        W10830   7.891  10.325  11.591  0.1778 -0.3915 -0.1060
 6767W        W10831   3.935  10.320   8.586 -0.1661 -0.2856 -0.2560
 6768W        W10832   4.143   2.383   8.551 -0.1622 -0.4733 -0.3386
 6769W        W10833   3.640   7.556   9.338 -0.2545  0.2818  0.3244
 6770W        W10834   6.554   4.077   9.670  0.2302 -0.2632  0.3480
 6771W        W10835   6.047   1.917   1.284  0.0375  0.0814 -0.2038
 6772W        W10836   5.738   6.570   2.106  0.1664  0.0609 -0.0107
 6773W        W10837  10.626   9.855  10.340  0.2633  0.5005 -0.1207
 6774W        W10838   5.122   9.915  11.273  0.0197 -0.0064  0.0932
 6775W        W10839   5.456   5.759   3.624 -0.0854  0.0627 -0.0863
 6776W        W10840   2.181   3.630   9.265 -0.3190 -0.1362  0.1570
 6777W        W10841   4.150   8.614   1.726  0.2723  0.3057  0.2333
 6778W        W10842   2.342   0.757   9.765 -0.2034  0.2506  0.0741
 6779W        W10843   2.574   3.193   8.464 -0.2635 -0.2224  0.2556
 6780W        W10844   7.600   1.146  10.515 -0.1775  0.1150 -0.1886
 6781W        W10845   6.076   1.785  11.590 -0.1215  0.3145 -0.1204
 6782W        W10846   2.558   0.854   2.810 -0.2889 -0.0144  0.1051
 6783W        W10847   3.115  10.173   8.937  0.0149  0.3693 -0.1302
 6784W        W10848   6.874   8.591   1.321 -0.1654  0.2790 -0.2969
 6785W        W10849  10.299   5.495   2.676 -0.1628 -0.1244  0.0090
 6786W        W10850   3.071   5.669  11.133 -0.0721  0.3858 -0.2056
 6787W        W10851   4.926   7.706  10.517  0.0762  0.1054 -0.0424
 6788W        W10852   7.126   8.400   0.924 -0.3336  0.0392 -0.0992
 6789W        W10853   7.932   8.207   1.733 -0.0988  0.0255 -0.0816
 6790W        W10854   8.155   6.813  10.146 -0.2808  0.0672 -0.1260
 6791W        W10855   1.828   6.844   3.652  0.0263 -0.1206  0.0761
 6792W        W10856   3.873   6.556   9.093  0.1591  0.0503  0.1950
 6793W        W10857   2.756   4.368  10.828  0.1892 -0.0161  0.0871
 6794W        W10858   7.948   5.808   3.065  0.1550 -0.0965 -0.1072
 6795W        W10859   1.276   9.999   2.106  0.2972 -0.0370  0.0380
 6796W        W10860   6.427   8.190   9.490 -0.0200  0.4219  0.0876
 6797W        W10861   5.264   8.234   0.285 -0.1249 -0.0318  0.0105
 6798W        W10862   2.658   7.527   0.062  0.4231  0.3320 -0.2462
 6799W        W10863   8.857   9.718   3.801  0.0760 -0.3028 -0.1331
 6800W        W10864   4.660   1.219   1.457 -0.0189  0.2974  0.0271
 6801W        W10865  10.363   9.916   2.622  0.1727  0.4095 -0.0056
 6802W        W10866   6.654   6.133   2.720  0.3294  0.0068  0.1005
 6803W        W10867   4.597   0.841  11.236 -0.0180  0.1927 -0.0603
 6804W        W10868   2.101   7.479  11.478 -0.4270 -0.1220 -0.0819
 6805W        W10869   7.874   2.991  10.834 -0.0547 -0.0698  0.2274
 6806W        W10870   6.830   0.866  10.554  0.2917  0.1995 -0.2366
 6807W        W10871   5.201   1.843   4.350  0.0318  0.2709  0.1729
 6808W        W10872   3.338   5.405   2.079 -0.1521  0.2032 -0.1035
 6809W        W10873   4.775   7.423   9.880 -0.0358  0.1340 -0.0356
 6810W        W10874   0.413   0.803   0.717  0.0454  0.1310  0.3801
 6811W        W10875   4.679   0.318   8.792  0.2741 -0.1194 -0.0704
 6812W        W10876   7.036   8.031   1.292 -0.0165 -0.2558 -0.1124
 6813W        W10877   6.268   7.057   7.786  0.2909  0.5277  0.0003
 6814W        W10878   3.431   2.203  10.822 -0.1977  0.3069 -0.1787
 6815W        W10879   2.015   3.801   1.736  0.0239 -0.1147  0.0783
 6816W        W10880   9.788   4.492   3.002  0.0419  0.1333  0.1979
 6817W        W10881   5.982   6.323  10.275 -0.0680 -0.2567  0.2805
 6818W        W10882   4.442   9.124   9.082 -0.0477 -0.1752 -0.2535
 6819W        W10883   1.588   9.688   3.583  0.1811 -0.2166 -0.3611
 6820W        W10884   0.403   4.018   8.980  0.1861  0.1605  0.1411
 6821W        W10885   1.275   1.654   9.594  0.0850 -0.1022  0.2397
 6822W        W10886   0.164   2.949   2.863  0.1433 -0.2940  0.0050
 6823W        W10887   1.248   9.300   3.373  0.1213  0.1546  0.1732
 6824W        W10888   7.941   5.318   1.691  0.2712 -0.3658 -0.0444
 6825W        W10889   6.246   6.897   4.392 -0.1799  0.2111  0.1441
 6826W        W10890   0.176   9.061   9.286 -0.0883 -0.1446  0.0810
 6827W        W10891   5.356   3.102   9.230 -0.0096  0.0372  0.0314
 6828W        W10892   2.601   9.912   0.203 -0.1860  0.0950  0.0309
 6829W        W10893   6.499   4.469  10.061  0.0059 -0.3059  0.1407
 6830W        W10894   1.062   8.800  11.380  0.0017  0.1903  0.4118
 6831W        W10895   9.557   0.598   9.675 -0.2739 -0.4264 -0.1340
 6832W        W10896   7.827   5.977   9.817 -0.0159  0.0861 -0.2005
 6833W        W10897   3.775   9.061  11.574 -0.1064 -0.0118 -0.0758
 6834W        W10898   1.549   7.834   1.912 -0.4398 -0.0505  0.0018
 6835W        W10899   4.584   6.501   0.412  0.0481 -0.2088 -0.0087
 6836W        W10900   2.827  10.066   2.386  0.0237  0.0007  0.3734
 6837W        W10901   7.453   8.484   1.753  0.0304 -0.2883  0.0872
 6838W        W10902   8.964   3.758   9.967 -0.4306 -0.1088  0.1788
 6839W        W10903   3.626   1.394   3.376 -0.3265 -0.0361  0.1409
 6840W        W10904   0.134   9.238  11.501 -0.3141 -0.1743  0.2292
 6841W        W10905   9.670   7.357   3.657  0.0452 -0.1403 -0.1563
 6842W        W10906   0.354   4.144  11.408  0.0694 -0.2671  0.1065
 6843W        W10907   0.834  10.454  10.890  0.1162  0.3189  0.1607
 6844W        W10908   8.048   6.155   3.453 -0.1074 -0.1070 -0.0891
 6845W        W10909   8.846   4.847  11.009  0.1489 -0.1491  0.1835
 6846W        W10910   9.932   5.435   8.482 -0.3363 -0.0203  0.1700
 6847W        W10911   0.994   0.718   8.639  0.0351 -0.2646 -0.3649
 6848W        W10912   1.098  10.543   1.251  0.2823 -0.2111  0.1066
 6849W        W10913   5.604   3.746   0.280  0.0337 -0.2910  0.0500
 6850W        W10914   5.328   2.997   2.444  0.0806 -0.2673 -0.0763
 6851W        W10915   3.795   7.275   3.335  0.0220 -0.0126 -0.0662
 6852W        W10916  10.566  10.121   9.568  0.3482  0.0216 -0.0515
 6853W        W10917   1.539   1.737   3.400 -0.5448  0.0500 -0.0103
 6854W        W10918   1.954   2.743   9.048  0.1042  0.0596  0.1056
 6855W        W10919   7.975   7.919   3.905  0.1546 -0.0421  0.0841
 6856W        W10920   4.905   9.441   9.644 -0.1146 -0.0990 -0.2567
 6857W        W10921   0.373   3.412   0.386 -0.2348  0.2193  0.1829
 6858W        W10922   7.960   2.447  11.008  0.0930  0.0632 -0.0775
 6859W        W10923   3.488   4.176   8.088 -0.0081  0.1699  0.0835
 6860W        W10924   3.292   5.816   8.479  0.2284  0.0985  0.1295
 6861W        W10925   0.802   5.531   2.112  0.0669 -0.0995  0.0546
 6862W        W10926   6.789   7.160   2.767  0.2009 -0.1631 -0.2078
 6863W        W10927   0.054   6.788  11.294 -0.0683  0.1047 -0.0816
 6864W        W10928   6.334   4.883   9.283 -0.1607 -0.1285  0.0633
 6865W        W10929   0.859   6.266   0.046 -0.0221  0.1682  0.1369
 6866W        W10930   3.956   7.224   1.156  0.0107  0.1464  0.3615
 6867W        W10931   8.520   5.942   0.453 -0.2434 -0.1556 -0.0020
 6868W        W10932   6.092   8.265  11.362  0.0993  0.2151  0.1080
 6869W        W10933   4.483   4.241   8.974 -0.1388 -0.3411 -0.1686
 6870W        W10934   4.975   0.292   0.960  0.2183 -0.3681 -0.1378
 6871W        W10935   3.585   2.884   7.800  0.1939  0.0024  0.1233
 6872W        W10936   8.519   8.153   9.748 -0.0374  0.0192 -0.0969
 6873W        W10937   5.354   4.319   2.148 -0.0667 -0.1214 -0.0274
 6874W        W10938  10.370   9.457  10.099 -0.3707  0.2077  0.0696
 6875W        W10939   2.707   3.816  10.817 -0.1231  0.0542 -0.3018
 6876W        W10940  10.537   8.871   0.308  0.1252 -0.0584 -0.1327
 6877W        W10941   3.621   0.085   9.378  0.1868 -0.0339 -0.0488
 6878W        W10942   9.878  10.627   0.555 -0.0526 -0.3465  0.4583
 6879W        W10943   4.901   2.655   9.912  0.0328  0.0188  0.1521
 6880W        W10944   8.765   6.653   9.896 -0.3248 -0.3391 -0.1049
 6881W        W10945   2.942   2.090   0.311  0.0341  0.1588  0.2501
 6882W        W10946   9.566   5.721  10.299  0.0270  0.7465 -0.2094
 6883W        W10947   6.668   8.904  10.016 -0.2829  0.0193 -0.2867
 6884W        W10948   6.672   2.903   1.130  0.0739 -0.0829  0.0646
 6885W        W10949   1.592   0.763   3.760  0.0719  0.0564  0.1271
 6886W        W10950   2.980   9.482  10.846  0.1859  0.0507 -0.1001
 6887W        W10951   8.517   3.633   2.731  0.1803 -0.0525 -0.0667
 6888W        W10952   9.922   6.536  11.574 -0.0672 -0.2761  0.2667
 6889W        W10953   2.735   1.541   2.197 -0.3274 -0.0448 -0.0174
 6890W        W10954   2.696   7.622  10.748  0.2974 -0.3381  0.0156
 6891W        W10955   9.845  10.077  10.367  0.1026 -0.1741  0.2819
 6892W        W10956   4.241   7.938  11.540  0.1165  0.1346  0.4542
 6893W        W10957   3.211   3.843   2.186  0.2216 -0.0849  0.1503
 6894W        W10958   9.726   9.425   7.866  0.0378 -0.4322  0.0680
 6895W        W10959   1.872   0.148   9.464  0.0577  0.5543 -0.0730
 6896W        W10960   1.675   2.786   9.516  0.1694  0.1133 -0.0807
 6897W        W10961   3.891   2.035   1.146  0.0351 -0.0929  0.1118
 6898W        W10962   9.275   4.418   9.570 -0.0129  0.2092  0.0000
 6899W        W10963   2.532   0.805  10.760  0.0912 -0.1738 -0.1004
 6900W        W10964   0.371   0.133   1.891  0.2379 -0.0336  0.1685
 6901W        W10965   8.567   0.281   2.709 -0.0987  0.1599  0.1551
 6902W        W10966   7.149   7.197   9.566  0.1702 -0.0332  0.2228
 6903W        W10967   0.736   7.217   3.472  0.0255 -0.3762 -0.1456
 6904W        W10968   5.185   9.949   0.154 -0.0790  0.0362  0.1157
 6905W        W10969   3.303   6.113   0.217  0.0233 -0.1026  0.2542
 6906W        W10970   9.706   6.493   8.873  0.0232  0.4982 -0.2237
 6907W        W10971   2.435   7.017   0.735  0.1138  0.0399 -0.1558
 6908W        W10972   2.392   7.024  10.696 -0.1126  0.0945 -0.1484
 6909W        W10973   0.471   1.243  11.048 -0.2177  0.1091  0.0308
 6910W        W10974   0.612   0.476   2.261 -0.3134 -0.1079  0.0225
 6911W        W10975   0.437   2.361  11.236 -0.1901  0.2739 -0.2571
 6912W        W10976   6.758   7.014   9.967  0.0203 -0.2105  0.3369
 6913W        W10977   0.112  10.142  10.781 -0.0652  0.3133  0.3827
 6914W        W10978   8.520   5.215  11.453  0.0311  0.2657 -0.1328
 6915W        W10979   0.233   1.850  10.455 -0.2681  0.0516  0.1855
 6916W        W10980   0.680   4.608   1.627  0.1905 -0.0402 -0.0218
 6917W        W10981   4.057   5.337   3.643 -0.1343  0.1029  0.1235
 6918W        W10982   4.868   0.991   1.041  0.0319  0.2231  0.2016
 6919W        W10983   7.443   9.554  10.241 -0.0277  0.0073  0.2978
 6920W        W10984   9.453   9.338   3.330  0.0569 -0.0875  0.1250
 6921W        W10985   3.296   9.139   1.601  0.0715  0.1765  0.0789
 6922W        W10986   0.113   4.326   8.702 -0.0677 -0.5710  0.3440
 6923W        W10987   7.871   8.391   0.296 -0.2250  0.2809 -0.2480
 6924W        W10988   7.249   6.879   3.531  0.0798 -0.1342  0.0179
 6925W        W10989   3.119   0.476  10.039  0.0511 -0.1953 -0.0489
 6926W        W10990   0.712   4.308   0.093  0.1842 -0.0245  0.2104
 6927W        W10991   5.925  10.577   9.674 -0.6929  0.0792 -0.0844
 6928W        W10992   7.152   3.599   3.068 -0.1289  0.0243  0.1657
 6929W        W10993   5.232   8.555   9.631  0.0009 -0.0270  0.0907
 6930W        W10994   7.844   2.010   8.803 -0.3133  0.1644 -0.1338
 6931W        W10995   5.799   8.827   8.991 -0.2703  0.3227  0.2111
 6932W        W10996   7.331   3.466  11.041 -0.1135  0.1461 -0.0341
 6933W        W10997   0.599   1.607   0.936  0.2458 -0.0038  0.1173
 6934W        W10998   1.259   0.948   2.794 -0.3227  0.1942  0.1670
 6935W        W10999   3.332   0.104   1.042 -0.1787 -0.0013  0.2393
 6936W        W11000   2.309   1.753   0.694 -0.0765 -0.3077 -0.1559
 6937W        W11001  10.493   3.318   0.836 -0.2021 -0.2005  0.1459
 6938W        W11002   7.400   5.828   9.032  0.1615 -0.0736  0.1886
 6939W        W11003   6.405   6.459  11.170  0.0193 -0.0126  0.1946
 6940W        W11004  10.051   7.965  10.265 -0.6180  0.1581 -0.3536
 6941W        W11005   0.818  10.367   9.245  0.1847  0.2713  0.1560
 6942W        W11006   8.196   2.507  10.513  0.2501 -0.0155  0.0794
 6943W        W11007   0.531   4.049   7.858 -0.2776  0.0319 -0.1032
 6944W        W11008   3.901   8.653   2.179 -0.1412 -0.1028  0.1573
 6945W        W11009   6.514   1.192  11.389  0.2597 -0.1689  0.1673
 6946W        W11010   7.566   3.614   9.083  0.1931 -0.0723 -0.1657
 6947W        W11011   0.061   4.904  10.586 -0.1354 -0.2483 -0.2206
 6948W        W11012   3.207   3.688   7.868  0.1807  0.2382  0.0645
 6949W        W11013   9.153   1.510   9.969 -0.0445 -0.0176 -0.0802
 6950W        W11014   9.308   5.532  11.501  0.1018  0.0734  0.1628
 6951W        W11015   5.426   9.945   1.495 -0.0684  0.0193  0.1455
 6952W        W11016   3.981  10.086  10.909  0.0093  0.0221  0.1347
 6953W        W11017   1.489   9.793   0.841  0.1131  0.0524 -0.1281
 6954W        W11018   6.810   6.382   9.771 -0.1647 -0.0988 -0.2829
 6955W        W11019   2.600  10.061   7.977  0.1932 -0.0898 -0.1513
 6956W        W11020   7.228  10.542  10.243  0.0361  0.2754  0.1059
 6957W        W11021   3.632   0.516   0.898  0.1153 -0.1664 -0.1996
 6958W        W11022   5.175  10.514   0.857  0.1321  0.2654 -0.0512
 6959W        W11023   0.029   9.202   9.761 -0.1798  0.0277 -0.1609
 6960W        W11024   8.152   3.848   0.666 -0.0424  0.0415  0.0077
 6961W        W11025   0.872   9.410   7.942  0.1748  0.0959  0.0219
 6962W        W11026   3.877   0.438   3.403  0.1797  0.0394  0.1996
 6963W        W11027   9.179   4.576   2.502 -0.1734  0.3543 -0.2869
 6964W        W11028   2.654  10.240  11.352  0.1421  0.2483 -0.1333
 6965W        W11029   0.632   1.176   0.422  0.0904  0.0373  0.2022
 6966W        W11030  10.582   1.806   2.847 -0.2826 -0.1644 -0.2134
 6967W        W11031  10.241   8.087   2.898 -0.0482 -0.0884  0.3846
 6968W        W11032  10.279   9.632   4.268 -0.1554 -0.2412 -0.1165
 6969W        W11033   9.187   4.362   3.529  0.2465 -0.3243 -0.0930
 6970W        W11034   3.044   5.736  10.281 -0.3399  0.1938  0.1525
 6971W        W11035   4.141   7.149   8.464  0.0468 -0.1442  0.2575
 6972W        W11036   2.185   0.556   8.420 -0.0100 -0.2082 -0.0623
 6973W        W11037   0.904   2.583  10.916 -0.1222 -0.1494  0.0395
 6974W        W11038   9.840   1.249  11.230  0.0344 -0.2014  0.0518
 6975W        W11039   8.946   4.799   3.572 -0.3194 -0.2817 -0.0524
 6976W        W11040   1.082   4.701   2.996 -0.0410 -0.2278  0.1356
 6977W        W11041   9.889   0.979   7.303 -0.2242 -0.0643 -0.1353
 6978W        W11042   4.510  10.166   2.127 -0.4652 -0.1529 -0.0664
 6979W        W11043   4.005   6.868   2.036 -0.0650  0.0400 -0.2297
 6980W        W11044   5.293   6.395   2.259  0.1755 -0.1703  0.3143
 6981W        W11045   7.657   5.278  10.745  0.3006  0.3416 -0.2784
 6982W        W11046   7.618   8.345   1.264  0.2476 -0.1496 -0.0165
 6983W        W11047   7.596   0.390  10.243 -0.1334  0.2814  0.1300
 6984W        W11048   5.082   9.110   0.413 -0.0657 -0.0119 -0.0680
 6985W        W11049   2.834   2.740  11.402 -0.0838  0.0139 -0.0687
 6986W        W11050   4.279   0.861   1.420  0.1087  0.0940  0.1447
 6987W        W11051   5.595   8.342   0.642  0.0183  0.0302 -0.0934
 6988W        W11052   7.003   4.843   9.220  0.1095  0.0923  0.1406
 6989W        W11053   5.875   3.057  10.667  0.0184  0.0402 -0.3234
 6990W        W11054   8.306   1.970   2.968 -0.0748  0.0005  0.6702
 6991W        W11055   2.180   6.735   1.105 -0.1079 -0.0362  0.0077
 6992W        W11056   1.820   9.244  10.323 -0.0520  0.2075  0.0889
 6993W        W11057   4.474   3.341   2.426  0.1084  0.2620 -0.0790
 6994W        W11058   2.385   2.864   7.881  0.1002  0.1961  0.0341
 6995W        W11059   6.096   3.793   0.377 -0.3018 -0.0846 -0.1106
 6996W        W11060   6.164   7.922   0.129  0.0455  0.0667 -0.4409
 6997W        W11061   1.671   0.456   8.789  0.3239 -0.3116  0.0329
 6998W        W11062   1.773   1.973   1.691  0.2848  0.0104 -0.0403
 6999W        W11063   6.974   6.195   1.625  0.1323 -0.0026  0.1696
 7000W        W11064   4.109   3.997   1.060 -0.2521  0.1173 -0.1262
 7001W        W11065   3.282   8.742  10.149 -0.2600  0.0009  0.0787
 7002W        W11066   2.050  10.186   7.314  0.0230 -0.0037  0.1889
 7003W        W11067   5.137   7.956   3.209 -0.2208 -0.3283 -0.0918
 7004W        W11068   2.772   6.351   9.449 -0.1534  0.0161 -0.1230
 7005W        W11069  10.454   2.892   8.091 -0.2306  0.0159  0.0614
 7006W        W11070   0.873   4.725   2.493  0.0562 -0.0262  0.0436
 7007W        W11071   8.898   8.548   9.913  0.0379  0.4587  0.4401
 7008W        W11072   1.464   3.368   1.083  0.0294 -0.1565 -0.2486
 7009W        W11073   4.545   5.623   3.818 -0.2957  0.0469  0.1914
 7010W        W11074   2.902   7.927   0.852  0.0149  0.1313  0.0088
 7011W        W11075   9.393   9.151   9.268  0.0963 -0.0208 -0.2143
 7012W        W11076   7.244   5.805   1.195 -0.0212 -0.3104  0.1399
 7013W        W11077   4.026   9.256   3.901  0.0038 -0.1177 -0.0132
 7014W        W11078   3.834   1.729   0.220  0.2983 -0.0491 -0.0288
 7015W        W11079   2.896   7.850   9.904 -0.0594  0.0621 -0.0451
 7016W        W11080   7.546   6.012   8.559  0.0156 -0.3053  0.1737
 7017W        W11081   4.159   1.601   3.009  0.0882  0.3714  0.1810
 7018W        W11082   1.645   5.714  10.081  0.0766 -0.0692  0.1637
 7019W        W11083   8.909   4.756   9.712 -0.0775  0.0405 -0.0115
 7020W        W11084  10.085   3.164   0.678  0.0587 -0.0353  0.0388
 7021W        W11085   6.191  10.188   3.184  0.1690 -0.2555  0.1958
 7022W        W11086   4.018   5.284   0.297  0.0247 -0.2108  0.0663
 7023W        W11087   0.828   9.564   9.831 -0.0709  0.2236  0.0031
 7024W        W11088   3.347   1.691   4.290 -0.0835 -0.0673 -0.0725
 7025W        W11089   5.664   6.003   2.485  0.1288  0.4532 -0.0978
 7026W        W11090   1.014   4.424  11.253  0.0741 -0.2274 -0.0390
 7027W        W11091   8.954  10.560   0.500  0.1779 -0.1318  0.4956
 7028W        W11092   5.072   5.335   2.298  0.0071  0.4031 -0.0015
 7029W        W11093  10.506   4.042  11.170 -0.0803  0.0989 -0.4040
 7030W        W11094   2.714   5.600   3.423 -0.1477 -0.1520  0.0797
 7031W        W11095   3.890   2.106   9.588  0.2332  0.0688 -0.3060
 7032W        W11096   3.561   7.995  11.158  0.1266 -0.2231 -0.0198
 7033W        W11097   0.950   2.914   2.372 -0.0380  0.1459 -0.1200
 7034W        W11098   6.236   4.538   9.621  0.0680  0.0540  0.2155
 7035W        W11099   0.986   3.412   2.563  0.0704  0.0479 -0.4973
 7036W        W11100   1.734   5.933   4.723 -0.1213 -0.0503  0.2491
 7037W        W11101   2.101   0.376  10.015  0.2434  0.4681 -0.1282
 7038W        W11102   7.330   6.500   1.535 -0.0229  0.0749  0.1576
 7039W        W11103   8.276   5.913   7.530 -0.1335  0.4624 -0.1249
 7040W        W11104   5.333   4.135   0.120 -0.0478  0.1565 -0.1677
 7041W        W11105   3.124   9.840   9.566  0.1251 -0.1909 -0.1019
 7042W        W11106   3.963   3.629   0.123 -0.2595  0.0315  0.1104
 7043W        W11107   2.598   2.341   1.695  0.0333 -0.3402 -0.0844
 7044W        W11108   8.127   2.759   3.480  0.0787  0.3206 -0.1541
 7045W        W11109   8.063   3.496   1.722  0.0047  0.1453  0.0700
 7046W        W11110   8.803   5.547   0.264  0.1417  0.1576  0.3243
 7047W        W11111   9.407  10.637   2.908  0.3450  0.3038  0.2449
 7048W        W11112   3.416   8.656   0.077 -0.2351  0.1713 -0.3136
 7049W        W11113   4.527   9.723  10.222  0.1846 -0.1850  0.0573
 7050W        W11114   4.132   7.778   2.759 -0.1916 -0.2829 -0.1942
 7051W        W11115   6.196   4.160   9.292 -0.0094 -0.0914 -0.0054
 7052W        W11116   4.488   0.453   8.347  0.3776  0.0197  0.4147
 7053W        W11117   0.267   3.197   2.340  0.2539  0.2621  0.0420
 7054W        W11118   2.011   5.549   1.401  0.0802 -0.2448 -0.1009
 7055W        W11119   0.700  10.274   0.867 -0.0023 -0.0965 -0.0993
 7056W        W11120   0.192   3.760   0.789 -0.0969  0.0428 -0.1350
 7057W        W11121   4.257   0.763   0.907  0.0765  0.0177  0.0097
 7058W        W11122   6.711   7.514   0.851 -0.0354  0.1074  0.1011
 7059W        W11123   1.271   2.486   1.607  0.1776  0.0636 -0.4204
 7060W        W11124   4.451   1.322  11.387  0.3089  0.2855 -0.0401
 7061W        W11125   5.755   5.491   8.613  0.0179 -0.1563 -0.1595
 7062W        W11126   1.355   2.694   3.276  0.0471  0.1623 -0.2117
 7063W        W11127   8.084   3.519  10.368  0.0387  0.0608 -0.0859
 7064W        W11128   9.752   2.935  10.889 -0.0213  0.0852  0.0564
 7065W        W11129   2.641   9.252  11.096 -0.1854  0.2791 -0.0123
 7066W        W11130   7.818   4.865   0.883 -0.1417  0.2741 -0.1351
 7067W        W11131   0.908   6.352   2.159  0.0378  0.1146 -0.0017
 7068W        W11132   2.831   1.904   8.473  0.3128  0.3218 -0.4463
 7069W        W11133   9.639   2.792   1.804  0.0067 -0.1883  0.1287
 7070W        W11134   0.187   5.299   9.443  0.2918  0.2650 -0.0545
 7071W        W11135   5.016   4.773   3.634  0.2158 -0.1767  0.3478
 7072W        W11136   3.168   4.876   2.131 -0.0339  0.1283  0.1602
 7073W        W11137   7.795   9.532  10.590 -0.1926  0.0767 -0.1985
 7074W        W11138   2.698   0.865   1.890 -0.0118  0.1987  0.0560
 7075W        W11139   9.394   5.016  10.999 -0.2033 -0.0751 -0.2151
 7076W        W11140   7.382   2.235   0.267  0.0912 -0.1425 -0.0177
 7077W        W11141   8.395   5.651   9.291 -0.1145  0.1076 -0.3108
 7078W        W11142   1.961  10.129   0.822  0.1235 -0.2076  0.2525
 7079W        W11143   8.393   1.265   3.697 -0.0161  0.1516  0.3352
 7080W        W11144   1.040   4.504   4.295  0.2490  0.2578  0.0247
 7081W        W11145   5.594   3.664  10.079 -0.4078 -0.0774 -0.2168
 7082W        W11146   8.146   1.087   3.162  0.0375 -0.1661  0.0995
 7083W        W11147   9.225   3.891   0.420  0.0033  0.1510  0.0149
 7084W        W11148   8.694   2.712   8.956  0.1359  0.1881 -0.1591
 7085W        W11149   0.868   1.880   9.375 -0.0351  0.0572  0.0263
 7086W        W11150   3.840   6.160   2.201 -0.1482 -0.1232  0.1611
 7087W        W11151   2.607   1.949   2.554  0.1280 -0.2530 -0.1464
 7088W        W11152   0.413   3.536  10.774  0.2521  0.2396 -0.3487
 7089W        W11153   8.815   5.612  11.361  0.0518  0.0244  0.1403
 7090W        W11154   1.195   8.516  10.064 -0.3440 -0.0194 -0.0399
 7091W        W11155   5.328   7.543   8.753  0.1438 -0.0160 -0.2104
 7092W        W11156   3.366   5.268  10.440 -0.3877  0.1298  0.2731
 7093W        W11157   0.618   2.260   3.893 -0.0294 -0.1127  0.3826
 7094W        W11158   9.211   7.946   0.233  0.2332 -0.0653  0.2018
 7095W        W11159   4.549   9.797   2.448  0.2035 -0.1316  0.1482
 7096W        W11160  10.609   1.374   2.195  0.0872 -0.0327 -0.2621
 7097W        W11161   0.349   4.701   0.689  0.0354 -0.1659  0.0360
 7098W        W11162   6.114   7.551   2.477 -0.0717  0.0980  0.2117
 7099W        W11163   8.932   0.141  10.162 -0.0638  0.3675 -0.2780
 7100W        W11164   3.759   6.545  10.334 -0.1076  0.0246  0.0700
 7101W        W11165   5.456   7.182  11.152 -0.0493 -0.1188  0.2194
 7102W        W11166   3.243   5.379   8.695  0.2763 -0.1455  0.2405
 7103W        W11167   2.673   4.457   7.940 -0.1041  0.0469 -0.2227
 7104W        W11168   6.314   0.798  11.580  0.0297  0.1248  0.5451
 7105W        W11169   3.774   3.325   8.608  0.2151 -0.2796 -0.2377
 7106W        W11170   5.776   7.597   8.333  0.0737 -0.0262  0.1435
 7107W        W11171   5.981   9.619   0.474  0.0881 -0.0752 -0.1112
 7108W        W11172   5.286   6.812   2.037 -0.1457  0.0492  0.2632
 7109W        W11173   1.610   5.467   3.445 -0.2573 -0.0811  0.1968
 7110W        W11174   6.210   9.113   1.783  0.0525  0.2265  0.2516
 7111W        W11175   6.909   2.129   0.583 -0.1969  0.0353 -0.0699
 7112W        W11176   4.196   9.586  10.799  0.0845 -0.1783  0.2046
 7113W        W11177   4.274   6.211   9.769 -0.1530 -0.0026  0.1726
 7114W        W11178   2.089   7.951  11.150  0.0326 -0.2233  0.2212
 7115W        W11179   4.305   3.498   1.005  0.0282  0.1032 -0.1871
 7116W        W11180   9.088   6.500  11.514 -0.4088 -0.2390 -0.1663
 7117W        W11181   7.356   3.451   0.371  0.1466  0.0667 -0.1325
 7118W        W11182   6.368   7.678   9.579  0.1841  0.0020  0.1086
 7119W        W11183   2.253   7.895   0.116  0.1533  0.3180  0.1760
 7120W        W11184   3.128   3.030   0.496  0.2954 -0.2230 -0.0964
 7121W        W11185   3.104   8.490   9.764 -0.1634  0.1578 -0.0368
 7122W        W11186  10.214   3.087   9.509 -0.1461 -0.2306  0.0599
 7123W        W11187   2.365   4.672  11.249 -0.1938 -0.3468  0.1974
 7124W        W11188   2.429   6.166  10.011  0.4255 -0.0661 -0.2817
 7125W        W11189   4.459   7.001   1.457  0.0019  0.2257  0.1386
 7126W        W11190  10.609   4.724   8.338 -0.2146  0.1332  0.1132
 7127W        W11191   8.364   2.131   3.638  0.0770 -0.3680 -0.0582
 7128W        W11192   7.944   3.716   9.866  0.0234 -0.4348 -0.3233
 7129W        W11193   7.582  10.598   1.160 -0.1286  0.0760  0.1069
 7130W        W11194   7.931   3.124   2.159  0.3160  0.2957  0.2105
 7131W        W11195  10.003   3.018   8.972 -0.1601 -0.3024 -0.5485
 7132W        W11196   3.549   6.531   3.938 -0.0768  0.1840  0.2275
 7133W        W11197   6.689   7.603   2.210  0.2001  0.0161  0.0701
 7134W        W11198   2.122   3.464   2.957  0.0997 -0.1315 -0.1627
 7135W        W11199   9.848   5.629   8.924  0.1083  0.0629  0.3945
 7136W        W11200   9.496   3.379   2.865  0.0598 -0.1487 -0.0941
 7137W        W11201   3.092  10.599  10.147  0.1610 -0.1257 -0.5048
 7138W        W11202   8.242   2.170   9.706 -0.1575  0.0136 -0.0382
 7139W        W11203   2.495   8.721   2.027 -0.4259  0.2242  0.2049
 7140W        W11204   3.321   2.539  10.409 -0.2419 -0.3625 -0.1446
 7141W        W11205  10.428   1.976   0.108  0.1251  0.1562 -0.4073
 7142W        W11206   2.560   5.889  10.591 -0.2165  0.0766  0.2888
 7143W        W11207   5.389   5.691   9.916  0.1465 -0.0242  0.0320
 7144W        W11208   9.615   2.452  10.181  0.3240  0.1030 -0.3782
 7145W        W11209   2.297   1.270   1.822  0.1048 -0.1541  0.1246
 7146W        W11210   9.834   0.911   1.947 -0.1152  0.0078 -0.1331
 7147W        W11211   3.623   1.772   0.690  0.1979  0.2805 -0.3475
 7148W        W11212   9.329   3.492   0.661 -0.3119  0.2088  0.4376
 7149W        W11213   4.530   7.477   1.301  0.1055 -0.1439  0.0643
 7150W        W11214   6.787   6.667   3.548 -0.1837  0.2541 -0.2591
 7151W        W11215   5.186   6.448   8.096 -0.2128  0.0508  0.0075
 7152W        W11216   7.900   5.671   8.770  0.2277  0.1866  0.1398
 7153W        W11217   1.067   8.371   1.400  0.0430  0.0907  0.2381
 7154W        W11218   0.669   0.397   0.528  0.0272  0.0602 -0.1529
 7155W        W11219   8.173   5.741   2.037  0.1466 -0.0992 -0.1028
 7156W        W11220  10.534   9.209   7.522  0.1277  0.0069  0.2427
 7157W        W11221   1.849   3.290   9.052 -0.1097 -0.0868 -0.0395
 7158W        W11222   3.708   7.708   1.043 -0.0692  0.1739 -0.0935
 7159W        W11223   6.191   7.041  10.776 -0.1675  0.0608  0.0944
 7160W        W11224   4.941   8.931  10.789  0.0825  0.0907 -0.1645
 7161W        W11225   7.050   4.345   1.146 -0.0231 -0.0144  0.2518
 7162W        W11226   9.208   8.082   8.692 -0.1620  0.1424 -0.0319
 7163W        W11227   4.158   2.094   3.753  0.0921  0.0620  0.2316
 7164W        W11228   6.423   5.917  11.022 -0.1682 -0.1874 -0.0696
 7165W        W11229   8.763   2.288   0.894  0.4227  0.0737  0.1766
 7166W        W11230   4.083  10.415   9.107 -0.0853 -0.3072  0.2112
 7167W        W11231   1.922   8.747   8.757 -0.1329 -0.1228  0.4302
 7168W        W11232   3.037   6.514   1.821  0.0757 -0.0445  0.1459
 7169W        W11233   8.673   6.722  10.665 -0.1554  0.1924 -0.3739
 7170W        W11234   5.878   2.395   1.340  0.3139 -0.1264  0.0173
 7171W        W11235   4.650   6.817   3.640  0.1374 -0.0651 -0.1175
 7172W        W11236   1.126   0.338   1.447 -0.0755  0.0029 -0.2524
 7173W        W11237   5.939   1.300   3.519 -0.0543  0.1643 -0.2188
 7174W        W11238   9.596   0.566   2.760  0.0006 -0.1633 -0.1568
 7175W        W11239   2.781  10.528  11.004  0.2280 -0.1463 -0.0613
 7176W        W11240   2.973   6.276   8.937 -0.4252 -0.1289 -0.0018
 7177W        W11241   0.786   8.813   0.626  0.0149  0.0850  0.1898
 7178W        W11242   9.977   6.820   3.681  0.1287  0.1544  0.1471
 7179W        W11243   6.038   7.402  10.414 -0.1732  0.1856  0.2720
 7180W        W11244   0.667   5.309   8.268  0.1008  0.1717  0.2643
 7181W        W11245   3.110   5.280   9.391  0.1831  0.0067 -0.1117
 7182W        W11246   9.645   2.395   2.934 -0.0937 -0.0563  0.0343
 7183W        W11247   2.974   5.115  10.050 -0.1313 -0.0880 -0.4943
 7184W        W11248   3.089   4.190   7.819  0.2014  0.0515  0.0612
 7185W        W11249   3.187   3.602   1.719 -0.3222  0.0678  0.1464
 7186W        W11250   3.043   7.703  10.392 -0.1265 -0.2582  0.0363
 7187W        W11251   2.719   1.651   2.960 -0.1484  0.0295 -0.1315
 7188W        W11252   5.677   6.473   2.716  0.1353  0.2242  0.0876
 7189W        W11253   2.609   1.336   9.060  0.0266 -0.1327  0.3790
 7190W        W11254   6.849   4.737   3.400 -0.1234 -0.0592  0.2519
 7191W        W11255   9.720   0.434   0.152  0.4188  0.0945 -0.0942
 7192W        W11256   6.997   7.561   9.174  0.0675  0.2787 -0.1434
 7193W        W11257   9.120   5.123   8.699 -0.2727  0.1060  0.0570
 7194W        W11258   4.028   4.112   0.214  0.0197 -0.1454 -0.2827
 7195W        W11259   6.491   8.624   2.719  0.0236 -0.0253 -0.1482
 7196W        W11260   4.416   3.410   3.000  0.0710  0.1099 -0.4709
 7197W        W11261   9.256   6.254   9.157  0.4280  0.0821  0.1007
 7198W        W11262   9.015   2.280   9.017 -0.0092  0.2479 -0.1472
 7199W        W11263   7.525   2.696   8.352 -0.0576 -0.0902 -0.0735
 7200W        W11264   5.128   6.996   8.921 -0.1489 -0.1727 -0.1540
 7201W        W11265   5.782   3.232  10.226  0.4004 -0.0279 -0.1538
 7202W        W11266   0.637   9.207  11.515  0.0753  0.1726  0.2743
 7203W        W11267   1.769   6.996  10.686  0.1244  0.0852 -0.1118
 7204W        W11268   2.275   9.902   3.064 -0.0455 -0.0351  0.2156
 7205W        W11269   6.544   1.192  10.912 -0.0594  0.2246 -0.1349
 7206W        W11270   3.898   6.569   2.499  0.1688 -0.2168  0.0190
 7207W        W11271   0.764   9.264   1.370 -0.2255 -0.0976 -0.0272
 7208W        W11272   2.022   8.446   2.622 -0.1257 -0.1326 -0.1930
 7209W        W11273   8.917   9.493   2.470 -0.2075 -0.1911  0.3195
 7210W        W11274   3.466   3.260  10.779 -0.0558 -0.1793  0.2664
 7211W        W11275   4.521   9.515   3.123  0.0865 -0.4515 -0.1023
 7212W        W11276   1.629   9.147   8.071  0.2778  0.0989 -0.1949
 7213W        W11277   6.141   0.646   0.829  0.1082  0.0896  0.2049
 7214W        W11278   3.272   1.031   3.406  0.3220  0.0292  0.3275
 7215W        W11279   0.339   2.829   1.448  0.1261  0.0789  0.0420
 7216W        W11280   0.384  10.014   9.392 -0.2853  0.4149 -0.1107
 7217W        W11281  10.628   3.982   0.310 -0.2534 -0.0844 -0.2725
 7218W        W11282   7.692   6.289   9.466 -0.4006 -0.0038 -0.0677
 7219W        W11283   1.764   0.740   8.212 -0.0173  0.1564 -0.0880
 7220W        W11284   6.641   9.057   1.317 -0.0030 -0.0688 -0.2069
 7221W        W11285   9.973   3.202   0.085 -0.1140 -0.1880  0.1319
 7222W        W11286   7.628   0.814   3.318  0.0205  0.2555  0.3595
 7223W        W11287   0.072   5.680   4.169  0.1146  0.2516  0.0378
 7224W        W11288   8.043   0.373   2.836  0.5317  0.1476 -0.6097
 7225W        W11289   2.418   0.697  11.523  0.0692 -0.1490 -0.1655
 7226W        W11290   4.343   2.732   4.528 -0.0764 -0.3759 -0.0658
 7227W        W11291   2.519   7.772   1.824 -0.0049  0.4950  0.0069
 7228W        W11292   8.153   8.711   1.714  0.2184  0.1220  0.1690
 7229W        W11293   4.005   2.464   1.382 -0.2558  0.0661  0.0192
 7230W        W11294   5.794   8.332   1.531 -0.0503 -0.0253 -0.2614
 7231W        W11295   7.149  10.192   1.978 -0.0182  0.4720  0.0413
 7232W        W11296   8.444   3.299   2.140  0.2620  0.2066 -0.2873
 7233W        W11297   0.341   1.765  11.019  0.3390  0.3319  0.1691
 7234W        W11298   4.746   0.002   1.337  0.0491 -0.0992  0.1011
 7235W        W11299   0.201   2.509   2.205  0.4619  0.1882 -0.0623
 7236W        W11300   2.069   8.885  11.588  0.3052 -0.2597 -0.2688
 7237W        W11301   3.569   7.132   4.682  0.1107  0.2185 -0.0382
 7238W        W11302   1.527   4.865   9.716  0.3354  0.0849  0.0902
 7239W        W11303   5.167   2.828   2.979 -0.3240 -0.2724  0.0209
 7240W        W11304   9.683   1.413  10.203  0.1220  0.0027  0.2350
 7241W        W11305   9.269  10.617  11.394  0.1969  0.0258 -0.0153
 7242W        W11306   2.867   1.885   1.478  0.0287  0.1964  0.1883
 7243W        W11307   5.065   9.169   3.710 -0.0837  0.1026  0.3021
 7244W        W11308   1.872   7.724   0.547 -0.0415 -0.2955 -0.0624
 7245W        W11309   6.021   0.863  11.110 -0.2166  0.2167  0.2007
 7246W        W11310  10.071   1.408   2.100  0.2872 -0.2027 -0.3016
 7247W        W11311   2.368   4.850  10.317  0.0317 -0.0506  0.0987
 7248W        W11312   1.070   9.669  11.554 -0.1077 -0.2348  0.1328
 7249W        W11313   9.086   7.256   1.961  0.1257 -0.0885  0.1708
 7250W        W11314   5.588   3.630   9.134 -0.3583 -0.1711  0.0856
 7251W        W11315   4.690   6.629   3.119  0.1720 -0.1830 -0.1394
 7252W        W11316  10.440   8.165   1.137 -0.0230 -0.1077  0.1286
 7253W        W11317   9.506   1.808   8.269 -0.0486  0.3446 -0.3596
 7254W        W11318   2.924   2.938   2.672 -0.0427  0.2888  0.0269
 7255W        W11319   1.352   7.702   3.036  0.2065  0.0276  0.0937
 7256W        W11320   2.845   8.711  10.437  0.0905  0.4185  0.4111
 7257W        W11321  10.162   1.296   7.589  0.2906  0.3223 -0.1549
 7258W        W11322   8.128   4.380  11.352  0.1902 -0.0587 -0.0851
 7259W        W11323   1.646   5.942   0.699  0.0885  0.0548 -0.2897
 7260W        W11324   4.001   0.025  11.328  0.3175 -0.0515 -0.2208
 7261W        W11325   0.253   7.581  10.388 -0.0418 -0.3238  0.1593
 7262W        W11326   3.201   8.582   3.368 -0.1535  0.1474  0.0875
 7263W        W11327   0.647   2.864   3.274  0.3436 -0.2094  0.0273
 7264W        W11328  10.048   0.586   2.555  0.0396  0.0429  0.0480
 7265W        W11329   5.664   7.110   1.106  0.1953  0.0181  0.0205
 7266W        W11330   1.705   3.222   3.869  0.1133 -0.2369 -0.0619
 7267W        W11331   8.411   9.651   2.117  0.2135 -0.1496  0.1400
 7268W        W11332   4.286   3.247  10.381  0.2885  0.2051 -0.1317
 7269W        W11333   3.570   1.701  10.925  0.0344  0.1619  0.3044
 7270W        W11334   9.024   9.523  11.205 -0.0824 -0.0671  0.2481
 7271W        W11335   7.212   4.180   3.569 -0.0776  0.1377 -0.1744
 7272W        W11336   1.815   6.432   0.897 -0.0640 -0.2346  0.0969
 7273W        W11337   9.716   8.080   9.266 -0.0495  0.2274 -0.1150
 7274W        W11338  10.166   5.848   0.542 -0.1316  0.0456  0.3129
 7275W        W11339   6.698   7.474   8.165  0.1294 -0.3125 -0.0553
 7276W        W11340   2.736   9.150   1.741  0.0637  0.0559  0.0165
 7277W        W11341   5.105   6.337  10.634 -0.3206  0.1212  0.0446
 7278W        W11342   9.900   1.432   0.748  0.0322  0.2151 -0.3246
 7279W        W11343   1.120   7.147   9.790 -0.0227 -0.1961 -0.1124
 7280W        W11344   1.674   8.462  11.014  0.0532  0.0417 -0.1300
 7281W        W11345   1.446   8.577   2.556  0.0998 -0.0702 -0.0860
 7282W        W11346   6.422   3.692   0.039  0.0484  0.0057 -0.2473
 7283W        W11347   5.027   5.712   7.483 -0.0628 -0.2463 -0.7054
 7284W        W11348   1.405   2.959   9.962  0.0844 -0.2628  0.0318
 7285W        W11349   1.311  10.330  10.626 -0.3648 -0.2421 -0.2283
 7286W        W11350   1.434   6.296   4.638  0.0790 -0.1314  0.1195
 7287W        W11351   1.525   5.911   9.035 -0.0843 -0.1533 -0.2192
 7288W        W11352   5.102   0.470   8.943 -0.1172  0.0266  0.2651
 7289W        W11353   5.744   5.313   1.802 -0.0273  0.2958 -0.3532
 7290W        W11354   0.387   7.867   9.992 -0.2190 -0.0327 -0.1395
 7291W        W11355   0.300   1.157   1.202  0.0757 -0.4189 -0.2147
 7292W        W11356   6.615   2.802   2.831  0.3424 -0.1118  0.0301
 7293W        W11357   4.994   6.140   4.289 -0.2419 -0.2302  0.0533
 7294W        W11358   3.110   0.269  11.047  0.2215  0.0163 -0.0290
 7295W        W11359   3.746   2.399  11.180  0.2459 -0.0071  0.0900
 7296W        W11360   2.761   4.259   9.891  0.0196 -0.0824  0.1639
 7297W        W11361   9.454   2.312   8.266  0.1404 -0.1746  0.2459
 7298W        W11362   1.091   5.642   9.854  0.1071  0.2332  0.0573
 7299W        W11363   3.029   3.014  10.240 -0.1448  0.0239 -0.1229
 7300W        W11364   5.235   5.113   2.733 -0.1030 -0.4846 -0.2470
 7301W        W11365   7.926   2.958  10.300 -0.4105 -0.0970 -0.1659
 7302W        W11366   4.279   2.377   0.961  0.0860 -0.1499 -0.3181
 7303W        W11367   8.716   2.521   2.179 -0.0420 -0.4272  0.1900
 7304W        W11368   1.097   7.123  11.280 -0.2020 -0.0184 -0.0366
 7305W        W11369   4.221   5.740  10.625  0.2575  0.0391 -0.2682
 7306W        W11370   5.470   3.008   3.892  0.0263 -0.0318 -0.1183
 7307W        W11371   3.268   5.669   9.080  0.2015  0.3339  0.1305
 7308W        W11372   1.295  10.440   9.274  0.1055  0.0615 -0.0627
 7309W        W11373   1.572  10.211  10.138 -0.0645  0.1333  0.2167
 7310W        W11374   6.252   6.915  11.370  0.0075  0.0768  0.1092
 7311W        W11375  10.552   3.534   2.516  0.0094  0.0782 -0.0700
 7312W        W11376   2.128   5.799   3.518  0.0154 -0.2335 -0.1155
 7313ION    NA+11377   1.402   2.112   2.018 -0.0668 -0.0934  0.1116
 7314ION    NA+11378   0.232   1.929   0.989 -0.0592  0.0685 -0.0478
 7315ION    NA+11379   3.627   8.942   9.768 -0.4084 -0.5113 -0.1129
 7316ION    NA+11380   0.576   8.210   9.066  0.1743  0.2943 -0.1527
 7317ION    NA+11381   0.515   1.163   7.402 -0.0709  0.3082  0.2423
 7318ION    NA+11382   6.904   2.078  11.147  0.1508  0.2219 -0.3919
 7319ION    NA+11383  10.639   4.044   2.547  0.2972 -0.0384 -0.1365
 7320ION    NA+11384   7.321   0.205   9.744  0.1321  0.0802 -0.2056
 7321ION    NA+11385   5.051   9.866   2.416  0.0205  0.0016  0.1015
 7322ION    NA+11386   9.046   0.265   1.034  0.2979  0.4770  0.2775
 7323ION    NA+11387   9.014   1.944   9.485 -0.0766  0.0787 -0.2818
 7324ION    NA+11388   8.114   1.852  10.774 -0.1691  0.0578 -0.3735
 7325ION    NA+11389   0.051   9.301  10.522  0.0270  0.0912  0.1264
 7326ION    NA+11390   3.012   9.541   1.716  0.0602 -0.1002 -0.1125
 7327ION    NA+11391   6.342   8.996  11.112  0.0498 -0.1905  0.3495
 7328ION    NA+11392   3.621   1.788   9.952  0.3301 -0.2511 -0.1836
 7329ION    NA+11393   7.056   8.707   9.816  0.0622 -0.1036 -0.4102
 7330ION    NA+11394   2.904  10.345   1.458 -0.0800  0.2900  0.1914
 7331ION    NA+11395   1.564   5.280   2.658  0.3904 -0.1737  0.0521
 7332ION    NA+11396   3.440   4.796  11.182 -0.1923  0.1045  0.0118
 7333ION    NA+11397   6.350   4.460   2.366  0.1648 -0.0736 -0.3249
 7334ION    NA+11398   5.523   5.456  11.195  0.0307  0.1634 -0.1245
 7335ION    NA+11399  10.396   6.658   9.637 -0.0557 -0.0310 -0.0545
 7336ION    NA+11400   8.187   4.353   1.810 -0.0311 -0.0733 -0.0571
 7337ION    NA+11401   6.718   2.759   4.095 -0.0957  0.1202 -0.0102
 7338ION    NA+11402   4.433   7.681   4.278 -0.1306  0.1802 -0.1685
 7339ION    NA+11403   8.394   7.519   2.559  0.0031  0.2046  0.0608
 7340ION    NA+11404   3.739   3.523  10.371 -0.0343 -0.1250 -0.1833
 7341ION    NA+11405   8.740   6.201   9.160 -0.0210 -0.0076 -0.2561
 7342ION    NA+11406   7.214   7.795   8.281  0.2602 -0.0812  0.2742
 7343ION    NA+11407   4.153  10.347   9.678 -0.0897  0.0246  0.0210
 7344ION    NA+11408  10.431   2.985   2.526  0.3128  0.1609 -0.3549
 7345ION    NA+11409   1.393   3.795  10.985 -0.1074  0.3204 -0.2569
 7346ION    NA+11410  10.197   9.311   0.909  0.1449  0.0782 -0.1505
 7347ION    NA+11411   4.522   2.937   7.742  0.1272 -0.0348 -0.1392
 7348ION    NA+11412   6.553   0.103   0.341  0.0150 -0.2261  0.0296
 7349ION    NA+11413   4.586   8.662   9.365 -0.2154 -0.1006 -0.0046
 7350ION    NA+11414   5.485   3.264   2.869 -0.3096  0.0460 -0.2880
 7351ION    NA+11415   3.095   0.787   0.601  0.0535 -0.4139 -0.1093
 7352ION    NA+11416   4.772   5.426   0.762  0.0057  0.0907  0.2395
 7353ION    NA+11417   8.536   6.077   3.738  0.0003  0.3790 -0.0709
 7354ION    NA+11418   0.315   1.790   8.107 -0.0544  0.0553 -0.0908
 7355ION    NA+11419   9.874   3.657   7.905 -0.1722  0.0446  0.1525
 7356ION    NA+11420   0.253   8.712  11.462 -0.0042  0.0395  0.1176
 7357ION    NA+11421   2.151   2.529  10.321 -0.0387  0.0845  0.0336
 7358ION    NA+11422   0.652   8.807   1.174  0.3697  0.1644 -0.0897
 7359ION    NA+11423  10.562   1.353  10.297  0.1350  0.0077  0.4105
 7360ION    NA+11424   5.024   1.235   9.597  0.0069 -0.1229 -0.2032
 7361ION    NA+11425   9.320   4.722  10.058 -0.0065  0.0140 -0.2802
 7362ION    NA+11426   3.827   9.700   7.951  0.0187  0.1114 -0.0199
 7363ION    NA+11427   3.122   1.421   1.326 -0.1012  0.3864  0.3556
 7364ION    NA+11428   2.536   3.402   4.181  0.1104  0.2116 -0.1378
 7365ION    NA+11429   2.300   7.327   4.532  0.3494  0.0236  0.0467
 7366ION    NA+11430   1.267   5.305  11.442 -0.1723  0.1982 -0.1052
 7367ION    NA+11431   5.268   9.561   9.328 -0.0644 -0.0636 -0.0355
 7368ION    NA+11432   5.022   9.711   3.312 -0.0921 -0.0931 -0.0419
 7369ION    NA+11433   4.680   6.951   9.295  0.1624 -0.0718  0.3239
 7370ION    NA+11434   7.598   1.257   3.011  0.0859 -0.1258  0.1790
 7371ION    NA+11435   7.398   0.840   2.498  0.1313  0.1528 -0.3662
 7372ION    NA+11436   4.908   6.706   1.646  0.0796  0.2351 -0.1305
 7373ION    NA+11437   3.201   3.603  11.528  0.1663  0.3703 -0.3157
 7374ION    NA+11438   3.110  10.006   0.160 -0.1245 -0.0497  0.1318
 7375ION    NA+11439   8.437   3.018   4.023 -0.0850 -0.3047  0.0815
 7376ION    NA+11440   5.658   9.367  10.628 -0.3333  0.1588  0.0906
 7377ION    NA+11441   2.821   9.114   0.704 -0.1453 -0.4006  0.2887
 7378ION    NA+11442   3.298   4.789  10.234 -0.1200  0.1855 -0.1367
 7379ION    NA+11443   9.244   1.145   8.996 -0.2313  0.0952 -0.0316
 7380ION    NA+11444   8.378  10.539   0.432  0.0382  0.2359 -0.0341
 7381ION    NA+11445   6.578   1.640   8.792 -0.2032 -0.0952  0.0326
 7382ION    NA+11446   9.527   1.488   1.616 -0.0565  0.0554  0.0885
 7383ION    NA+11447   9.696   8.834   0.127 -0.0310  0.2436 -0.2000
 7384ION    NA+11448   2.637   6.823   4.351  0.1304  0.1015  0.0597
 7385ION    NA+11449   0.755   9.945   3.805 -0.0767  0.0315  0.0911
 7386ION    NA+11450   5.472   8.342   9.165 -0.0588  0.3701  0.1418
 7387ION    NA+11451   8.661   7.887   1.819  0.0603 -0.1089  0.2709
 7388ION    NA+11452   4.821   7.939   0.379  0.1663  0.1718  0.0933
 7389ION    NA+11453   4.462   7.508  11.323  0.1552 -0.1182  0.0435
 7390ION    CL-11454   0.343   8.562   0.361  0.0928 -0.0797 -0.3602
 7391ION    CL-11455   8.406   8.290   1.693 -0.1804 -0.1096 -0.0278
 7392ION    CL-11456   0.195   9.691  10.984 -0.0911  0.2179 -0.1029
 7393ION    CL-11457   9.576   1.428   8.628  0.1471 -0.2635 -0.4294
 7394ION    CL-11458  10.374   8.873   0.774  0.1992  0.2110 -0.0535
 7395ION    CL-11459   2.672   0.290   8.541  0.1523 -0.0124  0.1131
 7396ION    CL-11460   7.873   3.019   8.431 -0.2146 -0.2254 -0.2340
 7397ION    CL-11461   7.031   5.145   1.559  0.0341  0.1673 -0.0476
 7398ION    CL-11462   4.022   8.517   9.679  0.1642 -0.1765 -0.4226
 7399ION    CL-11463   7.403  10.453   2.599 -0.0656 -0.1280  0.0780
 7400ION    CL-11464   2.762  10.051   1.873 -0.1222  0.2376  0.2853
 7401ION    CL-11465   1.284   4.164  10.614 -0.1850 -0.2033 -0.0323
 7402ION    CL-11466   7.727   2.153  10.574 -0.2742 -0.0153  0.2114
 7403ION    CL-11467  10.242   8.970  11.510  0.2367  0.0271  0.0064
 7404ION    CL-11468   2.896   9.408   1.255  0.0460 -0.1403  0.0142
 7405ION    CL-11469   3.596   4.902  10.712  0.1734  0.2956  0.1647
 7406ION    CL-11470   6.942   1.960   9.464 -0.0158  0.1482  0.1435
 7407ION    CL-11471   6.218   9.426  10.737 -0.1525 -0.1151 -0.1763
 7408ION    CL-11472   9.508   8.168   1.801 -0.4533  0.1325 -0.1333
 7409ION    CL-11473   9.821   7.154   0.218  0.0002  0.0779 -0.0625
 7410ION    CL-11474   6.137   0.450   2.292 -0.1882  0.0839 -0.0081
 7411ION    CL-11475  10.270  10.477   9.836  0.0827 -0.2086  0.0619
 7412ION    CL-11476   9.901   2.285   2.130 -0.0170 -0.0857  0.3653
 7413ION    CL-11477   5.299   6.057   0.261 -0.0076 -0.1915 -0.0932
 7414ION    CL-11478   8.038   2.418   3.157 -0.0646 -0.2303  0.0790
 7415ION    CL-11479   2.559   4.234   3.561 -0.2057  0.1985 -0.1020
 7416ION    CL-11480   9.310   1.310   2.608  0.1439 -0.0400  0.3054
 7417ION    CL-11481   5.032   8.637   9.093  0.1793 -0.3698 -0.2555
 7418ION    CL-11482   8.485   4.855   3.132  0.1297 -0.1325 -0.1770
 7419ION    CL-11483   8.799   4.757  10.305  0.0080 -0.0011  0.3900
 7420ION    CL-11484   5.432   9.051  10.898  0.0587  0.2010 -0.2848
 7421ION    CL-11485   1.284   3.040   8.377 -0.3388 -0.2079 -0.1822
 7422ION    CL-11486   3.589   7.745   3.201 -0.0046  0.1178 -0.0811
 7423ION    CL-11487   6.529   4.905   8.195  0.1635 -0.0057  0.2916
 7424ION    CL-11488   5.603   3.477   2.452 -0.1980  0.0187  0.0659
 7425ION    CL-11489   5.299  10.117   2.898 -0.2462 -0.0171  0.4358
 7426ION    CL-11490   8.123   3.564   2.447 -0.1479 -0.0484 -0.0344
 7427ION    CL-11491   4.044   6.786   1.455  0.0546  0.0352  0.2923
 7428ION    CL-11492   4.891   2.277   9.543  0.3263  0.0848 -0.0630
 7429ION    CL-11493   6.404   4.571   2.979 -0.0863 -0.2669 -0.0514
 7430ION    CL-11494   8.944   1.465   9.544 -0.0298 -0.0365 -0.1251
 7431ION    CL-11495   6.260   4.995   3.974 -0.0638  0.2191 -0.1691
 7432ION    CL-11496   8.714   7.525   2.156 -0.4769  0.0597  0.2586
 7433ION    CL-11497   6.172   9.588   2.352  0.0850  0.1530  0.0547
 7434ION    CL-11498   1.915   5.350   3.010 -0.1797 -0.0910 -0.0773
 7435ION    CL-11499   4.946   8.238   9.333  0.0279  0.0501 -0.2163
 7436ION    CL-11500   5.101   6.635   3.387 -0.1781 -0.3684 -0.1453
 7437ION    CL-11501   8.049   7.699   2.898 -0.2247 -0.2452  0.2126
 7438ION    CL-11502   1.834   2.455   9.917 -0.3212 -0.2155 -0.4410
 7439ION    CL-11503   4.719   0.551   0.068 -0.0364  0.3859  0.1510
 7440ION    CL-11504   5.700   1.726   3.304 -0.1535 -0.1128  0.0636
 7441ION    CL-11505   1.689   7.463   1.142 -0.1828 -0.3314 -0.0191
 7442ION    CL-11506  10.619   2.073   8.334 -0.2519 -0.2390  0.2211
 7443ION    CL-11507   3.433   3.289   9.985 -0.2263  0.3313  0.2978
 7444ION    CL-11508   5.684   8.077   2.912  0.0500  0.2079  0.2983
 7445ION    CL-11509  10.319   8.086   3.371 -0.2486 -0.0356 -0.1421
 7446ION    CL-11510   0.972   3.000   0.912  0.1498  0.1183  0.3109
 7447ION    CL-11511   7.943   4.860   1.873  0.3134  0.0049 -0.0119
 7448ION    CL-11512   4.920   6.643   8.509 -0.2244 -0.1550  0.1350
 7449ION    CL-11513   1.089   5.192   2.310  0.0180 -0.1040  0.0113
 7450ION    CL-11514   4.844   5.281   0.272  0.1748  0.0383 -0.0075
 7451ION    CL-11515   7.037   1.158   2.689  0.0588  0.0830  0.3754
 7452ION    CL-11516   4.784   8.038  11.463 -0.1828 -0.2750 -0.0337
 7453ION    CL-11517   0.738   6.066   0.983 -0.1077 -0.3852 -0.1359
 7454ION    CL-11518   8.840   6.161   8.608 -0.1514  0.0074  0.2093
 7455ION    CL-11519   4.067   3.865  11.305 -0.2291  0.0450  0.0384
 7456ION    CL-11520   2.613   4.654   8.463 -0.1413  0.1043  0.0511
 7457ION    CL-11521   4.068   0.609   8.591  0.0866  0.1267 -0.1367
 7458ION    CL-11522   6.088   0.214   0.465 -0.0342  0.0245  0.0668
 7459ION    CL-11523   9.980   5.080   0.957  0.0171 -0.2596  0.3446
 7460ION    CL-11524   6.893   2.028  10.648 -0.0746 -0.3573  0.0241
 7461ION    CL-11525   1.855   1.947   2.200  0.0499  0.1446  0.1671
 7462ION    CL-11526   2.864   1.158   0.947  0.0009  0.3094 -0.2211
 7463ION    CL-11527   8.650   2.245   9.379  0.1057  0.0028  0.0210
 7464ION    CL-11528   0.875   8.323  11.460  0.0203 -0.0654 -0.1053
 7465ION    CL-11529   4.285   7.070   0.048  0.3848 -0.3178 -0.0981
 7466ION    CL-11530   8.472   1.764   2.518  0.0780  0.2908 -0.2544
  10.64211  10.64211  11.59814
