Protein in INSANE! Membrane UpperLeaflet>POPC=1.0 LowerLeaflet>POPC=1.0
12676
    1AU     AUC    1   1.142   6.218   6.910 -0.0037  0.0001 -0.0787
    1AU     AUC    2   1.032   5.940   7.000  0.0056  0.0323 -0.0099
    1AU     AUC    3   1.253   6.109   7.151 -0.0099 -0.0730  0.0041
    1AU     AUC    4   1.008   6.320   6.654 -0.0156  0.0079  0.0807
    1AU     AUC    5   1.247   6.466   6.790 -0.0267 -0.0220 -0.0153
    1AU     AUC    6   1.300   6.232   6.670  0.0426  0.1449 -0.0745
    1AU     AUC    7   1.311   5.981   6.870  0.0849  0.0505  0.0186
    1AU     AUC    8   0.948   6.443   6.960 -0.0190  0.0617 -0.0257
    1AU     AUC    9   0.978   6.240   7.156  0.0508  0.0817 -0.0313
    1AU     AUC   10   1.211   6.422   7.117  0.0436  0.0182 -0.0171
    1AU     AUC   11   1.424   6.261   6.945  0.0456 -0.1088  0.0685
    1AU     AUC   12   0.839   6.152   6.881  0.0609 -0.0162 -0.0693
    1AU     AUC   13   1.049   6.027   6.693 -0.0746  0.1254 -0.0313
    1AU     AUC   14   0.950   5.671   7.093 -0.0101 -0.0487 -0.0520
    1AU     AUC   15   1.165   5.835   7.250 -0.0162  0.0059 -0.0016
    1AU     AUC   16   1.388   5.988   7.413 -0.0598 -0.0716  0.0282
    1AU     AUC   17   0.856   6.450   6.424  0.0412 -0.0773  0.0448
    1AU     AUC   18   1.102   6.595   6.565  0.0861 -0.0126 -0.0001
    1AU     AUC   19   1.329   6.731   6.710 -0.0352 -0.0125  0.0681
    1AU     AUC   20   1.467   6.207   6.410  0.1010 -0.0779  0.0357
    1AU     AUC   21   1.490   5.965   6.623 -0.0729 -0.0068 -0.0637
    1AU     AUC   22   1.504   5.728   6.838 -0.0495  0.0688  0.0597
    1AU     AUC   23   0.760   6.680   7.009 -0.0333 -0.0176 -0.0804
    1AU     AUC   24   0.769   6.451   7.199  0.0087  0.0784 -0.0362
    1AU     AUC   25   0.823   6.244   7.432 -0.0657 -0.0380 -0.0446
    1AU     AUC   26   1.277   6.636   7.314 -0.0154  0.0349 -0.1282
    1AU     AUC   27   1.502   6.485   7.158  0.0522 -0.0110 -0.0510
    1AU     AUC   28   1.726   6.338   7.002 -0.0294  0.0321  0.0402
    1AU     AUC   29   0.544   6.108   6.851 -0.0640  0.0329  0.0484
    1AU     AUC   30   0.761   5.969   6.680 -0.0486  0.0020  0.0154
    1AU     AUC   31   0.972   5.848   6.477  0.0224  0.1151 -0.0486
    1AU     AUC   32   1.353   6.300   7.369 -0.0135  0.0061 -0.0015
    1AU     AUC   33   1.554   6.172   7.194 -0.0651  0.0363  0.0374
    1AU     AUC   34   0.743   5.875   6.987  0.0996 -0.0733 -0.0307
    1AU     AUC   35   0.939   5.747   6.798  0.0068 -0.0465 -0.1250
    1AU     AUC   36   1.310   6.682   7.020 -0.0810 -0.0007  0.0477
    1AU     AUC   37   1.547   6.548   6.846 -0.0397 -0.0423 -0.0026
    1AU     AUC   38   0.689   6.252   6.626 -0.0947 -0.0697  0.0122
    1AU     AUC   39   0.923   6.145   6.444 -0.0153 -0.0336 -0.0515
    1AU     AUC   40   1.226   5.696   6.957  0.0074  0.0221 -0.0083
    1AU     AUC   41   1.442   5.866   7.125  0.0127  0.0134 -0.0024
    1AU     AUC   42   1.187   6.344   6.407  0.0017 -0.0185 -0.0632
    1AU     AUC   43   1.417   6.476   6.555  0.0000 -0.1081  0.0101
    1AU     AUC   44   0.870   5.944   7.278 -0.0554  0.0423 -0.0021
    1AU     AUC   45   1.099   6.120   7.406 -0.0601  0.0289 -0.0375
    1AU     AUC   46   0.817   6.572   6.702  0.0640  0.1753 -0.0012
    1AU     AUC   47   1.033   6.709   6.852  0.0275 -0.0606  0.0580
    1AU     AUC   48   1.597   6.285   6.710 -0.0572  0.0128  0.0493
    1AU     AUC   49   1.598   6.021   6.889  0.0472  0.0372 -0.0291
    1AU     AUC   50   1.005   6.654   7.157  0.0220 -0.0468 -0.1110
    1AU     AUC   51   1.057   6.433   7.378 -0.0335  0.0480  0.0162
    1AU     AUC   52   1.223   6.025   6.440  0.0171  0.0111 -0.0080
    1AU     AUC   53   1.214   5.773   6.653  0.0646  0.1510 -0.0353
    1AU     AUC   54   0.642   6.377   6.909  0.0744  0.0292 -0.0380
    1AU     AUC   55   0.678   6.154   7.145 -0.0190  0.0976  0.0063
    1AU    AUSL   56   1.576   6.307   7.432  0.0262  0.0089  0.1025
    1AU    AUSL   57   1.286   6.485   7.711 -0.0310  0.0407  0.0205
    1AU     AUL   58   1.610   6.485   7.870  0.1056  0.0151 -0.0069
    1AU       S   59   1.162   6.371   8.071 -0.0813 -0.1840 -0.0285
    1AU     LIG   60   1.446   6.546   8.357  0.1542 -0.1803  0.0789
    1AU     LIG   61   1.509   6.983   8.466  0.2438 -0.1101  0.1000
    1AU     LIG   62   1.555   7.300   8.320  0.0593 -0.0948 -0.1835
    1AU     LIG   63   1.825   7.415   7.937 -0.1354  0.1602 -0.2015
    1AU     LIG   64   2.104   7.203   7.676  0.4385  0.1610  0.1640
    1AU     LIG   65   2.353   7.452   7.383 -0.3595  0.3132 -0.3680
    1AU       S   66   2.080   6.605   7.520 -0.1397  0.0300  0.1837
    1AU     LIG   67   2.497   6.539   7.392  0.1094 -0.3701  0.2286
    1AU     LIG   68   2.906   6.325   7.236 -0.0652 -0.1918 -0.2013
    1AU     LIG   69   3.364   6.399   7.328  0.1212  0.0879  0.0167
    1AU     LIG   70   3.651   6.157   7.579  0.0079 -0.1526 -0.2386
    1AU     LIG   71   3.634   5.869   7.780  0.4159 -0.0822 -0.1741
    1AU     LIG   72   3.900   5.524   7.730  0.0912 -0.2610 -0.0512
    1AU    AUSL   73   1.527   6.728   7.504  0.0993 -0.0150 -0.0301
    1AU    AUSL   74   1.774   6.654   7.200  0.0346  0.0765  0.0085
    1AU     AUL   75   1.672   6.928   7.663 -0.0674 -0.0342  0.0350
    1AU       S   76   1.986   6.618   7.634  0.0469  0.1552 -0.0689
    1AU     LIG   77   2.418   6.737   7.858  0.3231  0.0513  0.1001
    1AU     LIG   78   2.585   7.042   7.841 -0.0506  0.1422 -0.0823
    1AU     LIG   79   2.878   7.351   7.457  0.0172  0.1462  0.1182
    1AU     LIG   80   2.939   7.355   7.014 -0.2334  0.2773 -0.2250
    1AU     LIG   81   2.865   7.057   6.675 -0.1616  0.5754 -0.1473
    1AU     LIG   82   2.525   6.981   6.369 -0.4768 -0.0389 -0.3931
    1AU       S   83   1.818   7.052   7.241 -0.0912  0.0550  0.2402
    1AU     LIG   84   2.283   6.985   7.288 -0.2166  0.1200 -0.2237
    1AU     LIG   85   2.624   7.009   7.198 -0.5173 -0.1774  0.0763
    1AU     LIG   86   3.126   6.870   7.079  0.2416  0.0011  0.1525
    1AU     LIG   87   3.594   6.791   7.005  0.1779  0.4428 -0.2113
    1AU     LIG   88   4.085   6.707   6.958  0.0550 -0.0134  0.2206
    1AU     LIG   89   4.333   6.375   6.875  0.1486  0.2630 -0.2365
    1AU    AUSL   90   1.956   6.288   7.242 -0.0571  0.0349 -0.0529
    1AU    AUSL   91   1.720   5.920   7.451 -0.0048 -0.0235 -0.0100
    1AU     AUL   92   1.824   6.181   7.635  0.0480 -0.0407 -0.1232
    1AU       S   93   2.122   6.302   7.289 -0.2089 -0.3901 -0.0101
    1AU     LIG   94   2.426   6.234   6.977  0.2130 -0.0219  0.1607
    1AU     LIG   95   2.686   5.939   6.937 -0.0614  0.0240 -0.3151
    1AU     LIG   96   3.051   5.856   7.055 -0.1122 -0.3143  0.0269
    1AU     LIG   97   3.518   5.887   7.176  0.1652  0.0012 -0.1854
    1AU     LIG   98   3.914   5.757   7.334  0.1373  0.4623 -0.1967
    1AU     LIG   99   4.320   5.667   7.482  0.2498 -0.2581 -0.2229
    1AU       S  100   1.996   5.709   7.609  0.0810 -0.3999  0.1866
    1AU     LIG  101   2.376   5.841   7.856  0.0978  0.1614  0.0536
    1AU     LIG  102   2.774   6.041   7.874  0.2956  0.1221  0.2109
    1AU     LIG  103   3.149   5.983   7.558  0.0998 -0.0050  0.0771
    1AU     LIG  104   3.333   5.551   7.506  0.0686  0.1021  0.0755
    1AU     LIG  105   3.621   5.294   7.245 -0.3864  0.2313  0.1426
    1AU     LIG  106   3.903   5.280   7.048 -0.4318  0.0088  0.0111
    1AU    AUSL  107   0.738   5.506   6.900  0.0079 -0.0561 -0.0293
    1AU    AUSL  108   0.969   5.482   6.531 -0.0498  0.0400  0.0216
    1AU     AUL  109   0.689   5.193   6.671  0.1041 -0.1035  0.1025
    1AU       S  110   0.193   5.303   6.822 -0.0378  0.4534  0.2501
    1AU     LIG  111   0.248   5.061   7.268 -0.0517  0.2647  0.2756
    1AU     LIG  112  -0.035   4.855   7.370  0.0416  0.2415  0.0633
    1AU     LIG  113  -0.459   4.697   7.227 -0.0640  0.0787 -0.1789
    1AU     LIG  114  -0.692   4.777   6.832 -0.1675 -0.0925  0.5354
    1AU     LIG  115  -0.822   4.537   6.405 -0.0270  0.2517 -0.4144
    1AU     LIG  116  -0.894   4.398   6.014  0.1079 -0.1399  0.0250
    1AU       S  117   1.105   4.982   6.607  0.0724 -0.4928 -0.1705
    1AU     LIG  118   1.270   4.574   6.532  0.0230 -0.0648 -0.1242
    1AU     LIG  119   1.472   4.249   6.731  0.0020 -0.3169  0.1531
    1AU     LIG  120   1.302   4.112   6.987  0.0652  0.4566 -0.0034
    1AU     LIG  121   0.971   3.786   7.140 -0.1378 -0.0871  0.1449
    1AU     LIG  122   0.616   3.505   7.153 -0.0053 -0.0682 -0.2814
    1AU     LIG  123   0.112   3.567   7.211 -0.0726  0.2896 -0.0254
    1AU    AUSL  124   0.396   5.745   6.857 -0.0669  0.0870  0.0523
    1AU    AUSL  125   0.629   5.622   7.279 -0.1390 -0.0329  0.0358
    1AU     AUL  126   0.531   5.382   7.123  0.0925  0.0589  0.0825
    1AU       S  127   0.246   5.561   7.462  0.2915  0.2735  0.1887
    1AU     LIG  128   0.549   5.198   7.617 -0.2508  0.3598  0.0761
    1AU     LIG  129   0.357   4.827   7.725  0.3219 -0.2161 -0.3349
    1AU     LIG  130   0.240   4.460   7.741 -0.0281 -0.1771 -0.2799
    1AU     LIG  131  -0.126   4.268   7.544  0.2115 -0.1147 -0.4785
    1AU     LIG  132  -0.202   3.821   7.509 -0.0971  0.2215 -0.3150
    1AU     LIG  133  -0.295   3.539   7.753 -0.3640 -0.0474 -0.1525
    1AU       S  134   0.121   5.528   6.884  0.5492 -0.1198  0.2203
    1AU     LIG  135  -0.189   5.401   7.199 -0.2183  0.0459  0.1831
    1AU     LIG  136  -0.589   5.225   7.216 -0.2086 -0.0370 -0.4111
    1AU     LIG  137  -1.085   5.332   7.305  0.0488  0.3548 -0.4135
    1AU     LIG  138  -1.295   5.260   7.578  0.0566 -0.0661 -0.2225
    1AU     LIG  139  -1.472   4.822   7.628  0.3045  0.1440 -0.0526
    1AU     LIG  140  -1.874   4.812   7.601 -0.1728 -0.1437  0.1993
    1AU    AUSL  141   0.773   5.813   6.643  0.0220 -0.0764 -0.0213
    1AU    AUSL  142   0.409   5.964   6.524  0.0345 -0.0132  0.0716
    1AU     AUL  143   0.498   5.588   6.526 -0.0024  0.0441  0.1010
    1AU       S  144   0.225   5.872   6.271  0.2939 -0.3294 -0.0728
    1AU     LIG  145  -0.030   5.621   6.436 -0.1921 -0.0099 -0.0134
    1AU     LIG  146  -0.265   5.342   6.634 -0.2241  0.0927  0.0442
    1AU     LIG  147  -0.223   4.985   6.825  0.2629  0.0095  0.2060
    1AU     LIG  148   0.086   4.753   6.871  0.1650  0.0675 -0.1802
    1AU     LIG  149   0.542   4.716   6.732  0.1347  0.0235 -0.0654
    1AU     LIG  150   0.794   4.684   6.477  0.5539  0.5230  0.0994
    1AU       S  151   0.234   5.658   6.877  0.2056 -0.0129  0.0507
    1AU     LIG  152  -0.042   6.001   6.701 -0.4430  0.0688 -0.0616
    1AU     LIG  153  -0.169   6.276   6.501  0.0399 -0.1230 -0.0758
    1AU     LIG  154  -0.198   6.558   6.216  0.0869  0.0801  0.3481
    1AU     LIG  155  -0.514   6.667   5.890 -0.1521  0.0423 -0.1960
    1AU     LIG  156  -0.763   6.872   5.581  0.1436  0.0718  0.0970
    1AU     LIG  157  -1.071   6.734   5.380  0.0592  0.2282 -0.2234
    1AU    AUSL  158   1.606   6.860   6.890 -0.0296  0.0175 -0.0532
    1AU    AUSL  159   1.892   6.550   6.812 -0.0391  0.0787 -0.0409
    1AU     AUL  160   1.982   6.749   6.980 -0.0404  0.0138 -0.1288
    1AU       S  161   1.920   7.185   7.083  0.2458 -0.0075  0.1950
    1AU     LIG  162   2.330   7.314   6.895 -0.4557  0.0962 -0.0826
    1AU     LIG  163   2.689   7.583   6.627 -0.4729  0.1720  0.1045
    1AU     LIG  164   3.095   7.569   6.551 -0.4351  0.1462  0.1071
    1AU     LIG  165   3.426   7.376   6.837  0.3251  0.2075  0.0701
    1AU     LIG  166   3.788   7.380   7.046  0.2371  0.2425 -0.0473
    1AU     LIG  167   4.223   7.291   7.216 -0.0133  0.1740 -0.0411
    1AU       S  168   2.115   6.972   6.613 -0.0328  0.1302 -0.0387
    1AU     LIG  169   2.154   7.357   6.162 -0.0853  0.1640 -0.0923
    1AU     LIG  170   2.189   7.342   5.805 -0.0665  0.0893  0.1377
    1AU     LIG  171   2.050   7.140   5.490  0.2500 -0.3427 -0.3100
    1AU     LIG  172   1.761   6.839   5.467 -0.3442 -0.0690 -0.2371
    1AU     LIG  173   1.763   6.507   5.740 -0.1830 -0.0237  0.0984
    1AU     LIG  174   1.715   6.121   5.769 -0.3231  0.0340  0.0849
    1AU    AUSL  175   1.367   6.641   7.147 -0.0058  0.0013  0.0835
    1AU    AUSL  176   1.257   7.077   6.839 -0.0380  0.1752 -0.0240
    1AU     AUL  177   1.504   7.119   6.891 -0.0135  0.0033  0.0359
    1AU       S  178   1.213   7.462   7.020  0.0473  0.2789  0.3690
    1AU     LIG  179   1.602   7.615   6.961  0.1600  0.3668  0.1342
    1AU     LIG  180   2.012   7.663   7.078 -0.3872  0.1172 -0.1512
    1AU     LIG  181   2.450   7.751   7.013  0.0396  0.0528 -0.4190
    1AU     LIG  182   2.907   7.785   7.165 -0.0282 -0.1131  0.0871
    1AU     LIG  183   3.115   8.052   7.113 -0.0440  0.1008 -0.0525
    1AU     LIG  184   3.576   8.310   7.126  0.0554 -0.2235  0.3530
    1AU       S  185   1.743   7.161   7.265  0.3923 -0.0769 -0.5306
    1AU     LIG  186   1.654   7.479   7.430  0.1656 -0.0817  0.0943
    1AU     LIG  187   1.839   7.904   7.471  0.1086 -0.2431  0.0518
    1AU     LIG  188   1.658   8.234   7.681 -0.2256 -0.2923  0.2705
    1AU     LIG  189   1.541   8.512   7.412 -0.2425  0.0209 -0.3839
    1AU     LIG  190   1.564   8.662   7.007  0.1646 -0.2444  0.0790
    1AU     LIG  191   1.822   8.494   6.683 -0.0560 -0.2248  0.1570
    1AU    AUSL  192   0.662   6.254   6.358  0.0227  0.0648  0.0278
    1AU    AUSL  193   0.389   6.325   6.726  0.0752  0.0684  0.0907
    1AU     AUL  194   0.262   6.304   6.389 -0.0120 -0.0568 -0.0147
    1AU       S  195   0.241   5.942   6.065  0.1618 -0.4463 -0.0176
    1AU     LIG  196   0.060   6.238   5.888  0.2093 -0.0213 -0.5268
    1AU     LIG  197   0.245   6.574   5.890  0.2754 -0.3539 -0.0272
    1AU     LIG  198   0.402   7.004   5.833 -0.1000 -0.1152  0.3023
    1AU     LIG  199   0.538   7.422   5.941  0.0048 -0.2155 -0.2099
    1AU     LIG  200   0.785   7.727   6.267  0.0137  0.0836  0.0606
    1AU     LIG  201   0.838   8.186   6.556 -0.0255  0.1097 -0.1727
    1AU       S  202   0.059   6.753   6.614  0.1337  0.1768  0.1962
    1AU     LIG  203  -0.460   6.789   6.724  0.1725  0.0640  0.0726
    1AU     LIG  204  -0.803   7.094   6.772 -0.1901  0.2746 -0.2193
    1AU     LIG  205  -0.928   7.249   7.169 -0.0655  0.0917 -0.1766
    1AU     LIG  206  -0.832   7.045   7.621  0.0181  0.1570 -0.1132
    1AU     LIG  207  -0.638   6.892   7.961 -0.0283 -0.0593  0.2146
    1AU     LIG  208  -0.681   6.455   8.058 -0.2476 -0.1816 -0.0239
    1AU    AUSL  209   0.713   5.844   6.240 -0.1387 -0.0740 -0.0771
    1AU    AUSL  210   0.928   6.324   6.055  0.0409  0.0713 -0.0521
    1AU     AUL  211   0.605   6.230   6.053  0.0196  0.0542 -0.1366
    1AU       S  212   0.925   6.134   5.713 -0.2043 -0.1415  0.1786
    1AU     LIG  213   1.100   6.543   5.512 -0.1428 -0.2091  0.2353
    1AU     LIG  214   1.581   6.368   5.308  0.0888  0.0392 -0.3420
    1AU     LIG  215   1.811   5.953   5.255 -0.0188 -0.2594 -0.0558
    1AU     LIG  216   1.917   5.507   5.281  0.4797 -0.2225  0.1997
    1AU     LIG  217   1.889   5.146   5.115  0.0117 -0.0463 -0.0621
    1AU     LIG  218   1.776   4.736   5.076 -0.1459 -0.1381  0.2550
    1AU       S  219   0.432   5.825   6.139  0.0201  0.1407  0.1453
    1AU     LIG  220   0.306   5.411   6.101  0.0329 -0.3753  0.1192
    1AU     LIG  221   0.131   5.043   6.406 -0.1808 -0.0431  0.1307
    1AU     LIG  222   0.153   4.562   6.409 -0.1307  0.0471 -0.0733
    1AU     LIG  223   0.338   4.267   6.663 -0.0413  0.0935 -0.0924
    1AU     LIG  224   0.675   3.920   6.724  0.1421  0.0210 -0.1382
    1AU     LIG  225   1.131   3.730   6.607 -0.1779  0.3030 -0.0803
    1AU    AUSL  226   1.484   5.454   7.044 -0.0407 -0.0194  0.0629
    1AU    AUSL  227   1.105   5.350   6.910 -0.0470 -0.0539 -0.0305
    1AU     AUL  228   1.541   5.213   6.812  0.1246  0.0293 -0.0475
    1AU       S  229   1.139   5.013   6.828 -0.2689 -0.1200 -0.1447
    1AU     LIG  230   1.049   4.623   6.965 -0.3488 -0.2227 -0.0872
    1AU     LIG  231   0.810   4.287   7.101 -0.3257 -0.0526  0.1571
    1AU     LIG  232   0.514   4.005   7.272 -0.2146 -0.0387 -0.0650
    1AU     LIG  233   0.319   4.020   7.559  0.2856 -0.1455 -0.1421
    1AU     LIG  234   0.125   3.869   7.911  0.1673 -0.0969 -0.1061
    1AU     LIG  235  -0.283   4.082   8.109  0.1628  0.1073  0.2209
    1AU       S  236   1.398   5.119   7.224 -0.1862  0.2545 -0.0801
    1AU     LIG  237   1.539   4.720   7.010 -0.0716 -0.3393  0.0321
    1AU     LIG  238   1.884   4.467   7.060  0.0852  0.1008 -0.0170
    1AU     LIG  239   2.349   4.247   6.868  0.0628  0.0585  0.2468
    1AU     LIG  240   2.744   4.158   7.102 -0.0452 -0.1092 -0.0723
    1AU     LIG  241   2.947   3.874   7.255  0.0839 -0.3972  0.1682
    1AU     LIG  242   2.877   3.429   7.348 -0.0418  0.1674 -0.1168
    1AU    AUSL  243   1.097   5.452   7.303  0.0611 -0.0028 -0.0106
    1AU    AUSL  244   1.232   5.708   7.628 -0.0798 -0.0815 -0.0611
    1AU     AUL  245   1.090   5.376   7.725  0.0704 -0.0508  0.0835
    1AU       S  246   1.229   5.208   7.351 -0.1149 -0.0294  0.0628
    1AU     LIG  247   1.112   4.756   7.437 -0.1869 -0.0780 -0.2139
    1AU     LIG  248   1.353   4.291   7.448 -0.3435  0.0256  0.0971
    1AU     LIG  249   1.817   4.040   7.524 -0.1016 -0.0080 -0.0771
    1AU     LIG  250   2.158   4.109   7.518 -0.2356  0.0471  0.2293
    1AU     LIG  251   2.400   3.749   7.228 -0.0509  0.0189 -0.1021
    1AU     LIG  252   2.666   3.479   6.956  0.4420 -0.1490 -0.1317
    1AU       S  253   0.882   5.660   8.037  0.1846  0.0372 -0.3376
    1AU     LIG  254   0.512   5.395   8.086 -0.0073  0.0641 -0.1569
    1AU     LIG  255   0.076   5.287   7.926 -0.4761 -0.1793  0.3709
    1AU     LIG  256  -0.410   5.217   7.822 -0.0876  0.1471  0.0710
    1AU     LIG  257  -0.698   5.048   7.746 -0.0389 -0.3903  0.5210
    1AU     LIG  258  -0.957   4.830   7.417  0.4447 -0.0044 -0.1320
    1AU     LIG  259  -1.435   4.776   7.139  0.1410 -0.0786  0.1402
    1AU    AUSL  260   1.386   5.773   7.270  0.0370  0.0301  0.0794
    1AU    AUSL  261   1.791   5.711   7.081 -0.0015  0.0331 -0.0313
    1AU     AUL  262   1.622   5.565   7.387 -0.0307 -0.0744  0.0121
    1AU       S  263   2.059   5.690   7.328  0.0050  0.0324 -0.2548
    1AU     LIG  264   2.353   5.560   7.055  0.0774 -0.0069 -0.2136
    1AU     LIG  265   2.495   5.221   7.030  0.3192  0.1993 -0.3288
    1AU     LIG  266   2.804   4.854   6.887  0.2868 -0.0599  0.0409
    1AU     LIG  267   3.103   4.525   6.901  0.0704 -0.0957  0.0164
    1AU     LIG  268   3.223   4.283   7.208  0.1237  0.1041 -0.3860
    1AU     LIG  269   3.144   4.147   7.612  0.2697  0.1183  0.1217
    1AU       S  270   1.465   5.165   7.445  0.1825  0.2395  0.1718
    1AU     LIG  271   1.674   4.702   7.502  0.2981 -0.2866 -0.1333
    1AU     LIG  272   2.081   4.607   7.515 -0.1617 -0.3765 -0.1910
    1AU     LIG  273   2.461   4.456   7.435  0.3969  0.2205  0.0828
    1AU     LIG  274   2.857   4.540   7.348  0.1773 -0.0533 -0.4936
    1AU     LIG  275   3.124   4.938   7.213  0.2149  0.3611  0.0635
    1AU     LIG  276   2.996   5.303   7.128  0.0967  0.3583  0.1132
    1AU    AUSL  277   1.529   6.497   6.203 -0.0871  0.1171 -0.0585
    1AU    AUSL  278   1.669   6.753   6.512  0.0183  0.1096 -0.0275
    1AU     AUL  279   1.881   6.505   6.220  0.0262  0.0625  0.0103
    1AU       S  280   1.819   6.918   6.479  0.0887  0.1457  0.1284
    1AU     LIG  281   1.756   7.277   6.552 -0.0228 -0.0881  0.0286
    1AU     LIG  282   1.666   7.644   6.266 -0.1145 -0.0831 -0.1287
    1AU     LIG  283   1.791   8.072   6.341  0.1801  0.0291 -0.1282
    1AU     LIG  284   2.137   8.369   6.238 -0.1749 -0.1075 -0.1453
    1AU     LIG  285   2.418   8.563   6.506 -0.0752 -0.0253  0.2293
    1AU     LIG  286   2.583   8.771   6.877  0.1616 -0.1808 -0.3573
    1AU       S  287   1.613   6.817   6.034 -0.0681 -0.3270 -0.1081
    1AU     LIG  288   1.973   6.899   5.943 -0.0867 -0.2192  0.0891
    1AU     LIG  289   2.280   6.682   6.054 -0.2363  0.0436  0.2700
    1AU     LIG  290   2.555   6.457   6.364 -0.2939 -0.1906 -0.3517
    1AU     LIG  291   2.706   6.029   6.421  0.1772  0.1646  0.2240
    1AU     LIG  292   3.027   5.736   6.591 -0.1090 -0.0049 -0.1400
    1AU     LIG  293   3.288   5.528   6.291 -0.3917 -0.3169 -0.2619
    1AU    AUSL  294   1.144   6.506   6.323 -0.0641 -0.0522  0.0130
    1AU    AUSL  295   1.344   6.148   6.084  0.0169  0.0027  0.0593
    1AU     AUL  296   1.289   6.420   5.951 -0.0211 -0.0316 -0.0075
    1AU       S  297   1.401   6.887   5.920 -0.4035  0.1662  0.1492
    1AU     LIG  298   1.381   7.115   5.546  0.0635  0.4945  0.3675
    1AU     LIG  299   1.403   6.868   5.131 -0.1310 -0.0263  0.1462
    1AU     LIG  300   1.436   6.605   4.847 -0.1463  0.3185  0.0701
    1AU     LIG  301   1.093   6.300   4.842 -0.0797 -0.0534  0.3016
    1AU     LIG  302   0.894   5.837   4.700 -0.1684  0.0316 -0.1697
    1AU     LIG  303   0.715   5.785   4.264 -0.3277 -0.1318  0.1240
    1AU       S  304   1.253   6.056   5.665  0.3578 -0.1331  0.0497
    1AU     LIG  305   1.589   5.702   5.589 -0.1723  0.0874  0.1111
    1AU     LIG  306   1.486   5.360   5.414  0.3949  0.1812 -0.1657
    1AU     LIG  307   1.394   5.048   5.042  0.0739 -0.1466 -0.0660
    1AU     LIG  308   1.159   4.887   4.719  0.2338  0.4378  0.1969
    1AU     LIG  309   1.328   4.904   4.241 -0.2898  0.0979 -0.1127
    1AU     LIG  310   1.696   5.205   4.120  0.3623 -0.1686  0.2714
    1AU    AUSL  311   1.311   6.872   6.370  0.0442  0.1057  0.0223
    1AU    AUSL  312   0.870   6.799   6.350  0.0415 -0.0257  0.0896
    1AU     AUL  313   0.999   6.773   6.063 -0.0489 -0.0438 -0.0661
    1AU       S  314   0.892   7.192   6.330  0.3026 -0.2780 -0.0065
    1AU     LIG  315   0.825   7.577   6.680  0.1683  0.3025 -0.1818
    1AU     LIG  316   0.851   7.906   6.963 -0.1348  0.0910  0.0791
    1AU     LIG  317   1.016   8.332   7.077 -0.0953  0.1136  0.1532
    1AU     LIG  318   1.076   8.725   7.139  0.6736 -0.2600 -0.3424
    1AU     LIG  319   1.191   8.846   7.542 -0.1145 -0.2134 -0.1974
    1AU     LIG  320   1.289   8.524   7.942  0.2264 -0.2060 -0.0562
    1AU       S  321   1.407   7.038   6.249  0.0754 -0.5508  0.1914
    1AU     LIG  322   1.199   7.488   6.032  0.1253  0.2646 -0.2927
    1AU     LIG  323   1.204   7.925   6.085 -0.0996  0.2233  0.2411
    1AU     LIG  324   1.471   8.339   6.058  0.1003  0.3160 -0.1800
    1AU     LIG  325   1.557   8.668   6.193  0.1950  0.1417  0.2157
    1AU     LIG  326   1.538   9.002   6.398 -0.1408 -0.2472 -0.1046
    1AU     LIG  327   1.343   9.158   6.653 -0.2187  0.3602 -0.1539
    1AU    AUSL  328   0.905   5.985   7.709 -0.0645 -0.0243  0.0425
    1AU    AUSL  329   1.342   6.091   7.679 -0.0377 -0.0532  0.0524
    1AU     AUL  330   1.297   5.802   7.886 -0.0276  0.0024  0.0604
    1AU       S  331   0.848   5.907   8.035  0.0829  0.0211  0.0682
    1AU     LIG  332   1.035   6.089   8.438 -0.1419  0.1036  0.0421
    1AU     LIG  333   1.321   6.204   8.714 -0.3616  0.0801 -0.1863
    1AU     LIG  334   1.692   6.139   8.697 -0.0024 -0.2776 -0.3489
    1AU     LIG  335   2.061   5.987   8.535 -0.0657  0.0371  0.4005
    1AU     LIG  336   2.386   6.104   8.220 -0.1500 -0.2316 -0.0095
    1AU     LIG  337   2.320   6.280   7.790 -0.1643  0.1934 -0.1037
    1AU       S  338   1.216   6.251   7.976 -0.0250  0.2649 -0.2181
    1AU     LIG  339   1.558   6.094   8.164  0.1807 -0.2685  0.0115
    1AU     LIG  340   1.796   5.765   8.075  0.3343 -0.0773  0.1289
    1AU     LIG  341   1.596   5.378   7.857 -0.2463 -0.1560  0.1572
    1AU     LIG  342   1.330   4.954   7.900 -0.3288 -0.2963  0.0172
    1AU     LIG  343   1.175   4.496   7.873  0.0494 -0.2967 -0.0485
    1AU     LIG  344   1.240   4.083   7.995 -0.1142  0.2199  0.0487
    1AU    AUSL  345   0.961   5.839   7.317  0.0376  0.1064  0.0633
    1AU    AUSL  346   0.561   5.998   7.476  0.0169 -0.0595 -0.0025
    1AU     AUL  347   0.730   5.631   7.567  0.0042  0.0318 -0.0665
    1AU       S  348   0.779   5.979   7.882  0.2058  0.0437  0.0532
    1AU     LIG  349   0.475   6.213   7.954  0.0766 -0.0591 -0.1668
    1AU     LIG  350   0.018   6.135   7.790  0.1850 -0.3110  0.1003
    1AU     LIG  351  -0.309   6.212   7.840 -0.1117  0.4905 -0.0883
    1AU     LIG  352  -0.717   6.010   7.835 -0.0166 -0.0521 -0.1747
    1AU     LIG  353  -0.992   5.692   7.694  0.0472 -0.0098 -0.0870
    1AU     LIG  354  -1.495   5.719   7.630 -0.0328  0.2036  0.0634
    1AU       S  355   0.292   5.738   7.631  0.2730 -0.1870  0.3875
    1AU     LIG  356  -0.229   5.663   7.675  0.0368 -0.2294 -0.0283
    1AU     LIG  357  -0.542   5.702   7.481  0.2437  0.1616 -0.2268
    1AU     LIG  358  -0.420   5.811   7.001 -0.0674  0.3788  0.2593
    1AU     LIG  359  -0.490   5.929   6.578 -0.1293  0.1293  0.2538
    1AU     LIG  360  -0.850   5.893   6.438 -0.1875 -0.2211  0.4917
    1AU     LIG  361  -1.326   5.985   6.708  0.3216  0.1888  0.1416
    1AU    AUSL  362   0.704   6.942   6.737 -0.0054 -0.0512  0.1082
    1AU    AUSL  363   0.542   6.617   6.486  0.0186  0.0474  0.0765
    1AU     AUL  364   0.552   6.858   6.283 -0.0205 -0.0096  0.0555
    1AU       S  365   0.218   6.826   6.631 -0.0374  0.2062  0.2079
    1AU     LIG  366   0.109   7.085   6.207  0.0657 -0.2490  0.1493
    1AU     LIG  367  -0.119   7.434   6.120  0.3148 -0.1540  0.1447
    1AU     LIG  368  -0.446   7.606   6.296 -0.0469  0.0035  0.1244
    1AU     LIG  369  -0.593   7.947   6.491 -0.0676  0.0567 -0.1972
    1AU     LIG  370  -0.546   8.073   6.898 -0.2810 -0.0241 -0.1429
    1AU     LIG  371  -0.400   8.360   7.083 -0.2751 -0.0271 -0.3377
    1AU       S  372   0.891   7.106   6.431  0.3918  0.1287 -0.2871
    1AU     LIG  373   0.420   7.314   6.473 -0.2521  0.0489  0.2029
    1AU     LIG  374   0.356   7.741   6.701  0.2013 -0.0278  0.2220
    1AU     LIG  375   0.368   7.845   7.164 -0.2718  0.0221 -0.2604
    1AU     LIG  376   0.747   8.011   7.438  0.2937 -0.2277  0.0293
    1AU     LIG  377   0.901   8.424   7.556  0.1348 -0.1201 -0.1132
    1AU     LIG  378   0.811   8.707   7.907 -0.0028 -0.0423  0.3650
    1AU    AUSL  379   1.085   6.750   6.697  0.0689  0.1312  0.0428
    1AU    AUSL  380   0.947   6.915   7.063  0.0010 -0.1198  0.0345
    1AU     AUL  381   0.871   7.142   6.908  0.0251  0.0274  0.0039
    1AU       S  382   1.049   7.463   7.152 -0.2782  0.0126  0.0316
    1AU     LIG  383   0.687   7.485   7.245 -0.0050 -0.3632 -0.3202
    1AU     LIG  384   0.406   7.513   7.577  0.1399 -0.0406  0.0743
    1AU     LIG  385   0.160   7.784   7.615 -0.2217 -0.1289 -0.1809
    1AU     LIG  386   0.341   8.191   7.709  0.0061  0.0903 -0.2511
    1AU     LIG  387   0.365   8.533   7.510  0.1462 -0.2964 -0.0100
    1AU     LIG  388   0.603   8.767   7.222 -0.1185  0.2650  0.3721
    1AU       S  389   0.959   7.157   6.431  0.0714 -0.2520 -0.2086
    1AU     LIG  390   1.260   7.481   6.518 -0.2757  0.1750 -0.1580
    1AU     LIG  391   1.272   7.887   6.606  0.1397 -0.0830 -0.2182
    1AU     LIG  392   1.369   8.241   6.602 -0.0630  0.1080  0.4068
    1AU     LIG  393   1.174   8.670   6.605  0.1334 -0.0025 -0.1057
    1AU     LIG  394   0.735   8.634   6.745 -0.1790  0.3779  0.0031
    1AU     LIG  395   0.516   8.340   6.982  0.3791 -0.0443  0.0281
    1AU    AUSL  396   1.966   6.149   6.776  0.0225  0.0328  0.0051
    1AU    AUSL  397   1.631   6.350   6.572 -0.0562 -0.0134 -0.0304
    1AU     AUL  398   2.084   6.330   6.588  0.0591 -0.0319 -0.0266
    1AU       S  399   2.123   6.783   6.525 -0.0757 -0.1162  0.3157
    1AU     LIG  400   2.438   6.704   6.864  0.0812 -0.0486  0.0628
    1AU     LIG  401   2.849   6.526   6.809  0.0565 -0.3418 -0.0078
    1AU     LIG  402   3.217   6.317   6.851  0.1420 -0.0910  0.0566
    1AU     LIG  403   3.510   5.989   6.612  0.3028  0.0572 -0.1773
    1AU     LIG  404   3.663   5.953   6.217 -0.0369  0.1870 -0.0555
    1AU     LIG  405   3.601   5.718   5.933 -0.0028  0.1169  0.0531
    1AU       S  406   2.271   5.879   6.559  0.0780  0.0994  0.2243
    1AU     LIG  407   2.480   5.520   6.582  0.1468  0.0442 -0.1070
    1AU     LIG  408   2.851   5.268   6.649 -0.0327 -0.2196 -0.1862
    1AU     LIG  409   3.214   5.031   6.737 -0.0227  0.0008  0.6376
    1AU     LIG  410   3.530   4.782   6.912 -0.6475  0.1928 -0.4325
    1AU     LIG  411   3.704   4.420   7.066 -0.0184  0.3050 -0.1429
    1AU     LIG  412   3.669   4.212   7.430  0.2085  0.1791 -0.3671
    1AU    AUSL  413   1.797   6.058   6.350 -0.0883  0.0053 -0.0684
    1AU    AUSL  414   1.548   5.566   6.456  0.0002  0.1113 -0.1161
    1AU     AUL  415   1.775   5.803   6.094  0.0502 -0.0537 -0.0110
    1AU       S  416   2.090   5.806   6.398  0.3328 -0.2217 -0.3258
    1AU     LIG  417   2.388   5.684   6.097  0.4105  0.0075 -0.1074
    1AU     LIG  418   2.671   5.246   6.149 -0.5062  0.1421 -0.1776
    1AU     LIG  419   2.953   5.042   6.048 -0.3362 -0.2483  0.0155
    1AU     LIG  420   3.290   4.918   6.224 -0.2738 -0.2416  0.0217
    1AU     LIG  421   3.450   4.568   6.419  0.0856 -0.1548 -0.1105
    1AU     LIG  422   3.870   4.460   6.518  0.3695 -0.0647 -0.2582
    1AU       S  423   1.596   5.371   6.164 -0.0887 -0.6360 -0.6483
    1AU     LIG  424   1.562   4.937   6.331  0.1703 -0.0628  0.2793
    1AU     LIG  425   1.721   4.817   6.579  0.3214 -0.4736  0.1620
    1AU     LIG  426   1.938   4.835   6.780  0.0818 -0.2844  0.1664
    1AU     LIG  427   2.309   4.783   7.062  0.1436 -0.1417  0.2795
    1AU     LIG  428   2.586   4.994   7.453  0.1292  0.7082  0.2555
    1AU     LIG  429   2.483   4.852   7.868 -0.0107 -0.0145 -0.1147
    1AU    AUSL  430   1.731   5.828   6.704 -0.0398  0.0489  0.0163
    1AU    AUSL  431   1.663   6.108   7.052  0.1111  0.0017  0.0308
    1AU     AUL  432   2.048   5.934   6.972  0.0336  0.0798  0.0481
    1AU       S  433   2.038   5.858   7.430 -0.0108 -0.0407  0.3347
    1AU     LIG  434   2.552   6.015   7.409 -0.0165 -0.0863 -0.2941
    1AU     LIG  435   2.800   5.643   7.496 -0.3124  0.0442  0.1792
    1AU     LIG  436   2.890   5.266   7.699  0.1667 -0.2299 -0.2660
    1AU     LIG  437   3.043   5.122   7.966 -0.4497  0.2772 -0.2523
    1AU     LIG  438   3.102   5.314   8.391 -0.5023  0.3364 -0.2514
    1AU     LIG  439   3.504   5.344   8.638 -0.3664 -0.1824  0.0637
    1AU       S  440   1.991   5.665   6.651 -0.2510  0.2178 -0.1487
    1AU     LIG  441   2.024   5.298   6.795 -0.1211 -0.1824  0.3179
    1AU     LIG  442   1.933   5.180   7.156 -0.1062 -0.0912 -0.2893
    1AU     LIG  443   2.094   5.134   7.569 -0.3334 -0.1480  0.1281
    1AU     LIG  444   2.331   5.355   7.888  0.0584 -0.0524 -0.1848
    1AU     LIG  445   2.660   5.501   8.211 -0.5657  0.0330  0.1797
    1AU     LIG  446   2.827   5.880   8.315 -0.1314  0.1047  0.1034
    1AU    AUSL  447   1.048   6.725   7.449  0.0615 -0.0420 -0.0123
    1AU    AUSL  448   1.025   6.288   7.485  0.0278 -0.0312  0.0576
    1AU     AUL  449   1.127   6.717   7.730  0.0321  0.0141 -0.0021
    1AU       S  450   0.723   6.982   7.790 -0.2355 -0.2549  0.1860
    1AU     LIG  451   0.812   7.404   7.786 -0.0515 -0.7077  0.0755
    1AU     LIG  452   1.043   7.642   7.665  0.0087 -0.2863 -0.0612
    1AU     LIG  453   1.211   8.031   7.451 -0.0126 -0.1679  0.4454
    1AU     LIG  454   1.497   8.056   7.132  0.2266 -0.0923  0.3973
    1AU     LIG  455   1.843   8.046   6.838 -0.0828  0.1973 -0.1562
    1AU     LIG  456   2.219   8.217   6.872 -0.3719 -0.0471  0.0187
    1AU       S  457   0.952   6.415   8.046 -0.0327 -0.1381  0.3687
    1AU     LIG  458   0.566   6.337   8.432 -0.3427 -0.0180  0.3779
    1AU     LIG  459   0.105   6.263   8.270 -0.2287  0.1325  0.1074
    1AU     LIG  460   0.057   5.752   8.080 -0.1183 -0.1551 -0.1070
    1AU     LIG  461  -0.246   5.584   8.367  0.2966 -0.2200 -0.4222
    1AU     LIG  462  -0.597   5.725   8.646 -0.2258  0.0694  0.2390
    1AU     LIG  463  -0.575   5.903   8.922 -0.2451 -0.0931 -0.3200
    1AU    AUSL  464   0.662   6.771   7.308 -0.0196  0.0195  0.0666
    1AU    AUSL  465   1.284   7.010   7.285 -0.0274 -0.0380  0.0931
    1AU     AUL  466   0.920   7.050   7.370  0.0009 -0.0542 -0.0682
    1AU       S  467   0.542   7.009   7.622  0.0900 -0.0795 -0.1264
    1AU     LIG  468   0.098   7.093   7.535 -0.3074 -0.0770  0.0864
    1AU     LIG  469  -0.248   7.164   7.449  0.0859  0.1481 -0.0209
    1AU     LIG  470  -0.487   7.397   7.536  0.1189 -0.0203  0.0980
    1AU     LIG  471  -0.730   7.568   7.870 -0.0324  0.0434 -0.2100
    1AU     LIG  472  -0.707   7.307   8.244 -0.1419  0.2842 -0.0872
    1AU     LIG  473  -0.472   7.357   8.661  0.0707  0.0354 -0.0467
    1AU       S  474   1.245   7.339   7.237 -0.2488 -0.3355  0.2796
    1AU     LIG  475   1.270   7.243   7.704 -0.1988  0.6341  0.1006
    1AU     LIG  476   1.215   7.074   8.064  0.3323  0.0538  0.0068
    1AU     LIG  477   0.964   6.932   8.258  0.2607  0.1908 -0.1270
    1AU     LIG  478   1.009   6.584   8.629  0.0381 -0.3714  0.0687
    1AU     LIG  479   0.855   6.297   8.878 -0.0395  0.2968 -0.0799
    1AU     LIG  480   0.532   6.055   9.276  0.1620 -0.0410  0.1509
    1AU    AUSL  481   0.702   6.494   7.635 -0.0202  0.0207 -0.0205
    1AU    AUSL  482   0.356   6.602   7.085  0.0470 -0.0643 -0.0524
    1AU     AUL  483   0.362   6.596   7.537  0.0119  0.0511 -0.0752
    1AU       S  484   0.020   6.700   7.179  0.1865 -0.0499  0.2706
    1AU     LIG  485  -0.124   7.031   6.987  0.2322 -0.0892 -0.3029
    1AU     LIG  486  -0.478   7.409   6.995 -0.0377 -0.0485 -0.3409
    1AU     LIG  487  -0.713   7.703   7.217 -0.1632  0.1039 -0.0152
    1AU     LIG  488  -1.074   7.736   7.462 -0.0537  0.3139 -0.2940
    1AU     LIG  489  -1.256   7.454   7.726 -0.1609  0.1391  0.1359
    1AU     LIG  490  -1.131   7.204   8.044 -0.1524  0.4035  0.1985
    1AU       S  491   0.679   6.750   7.775 -0.0017  0.0268 -0.3682
    1AU     LIG  492   0.136   6.757   7.927  0.3980 -0.1019  0.3697
    1AU     LIG  493  -0.282   6.658   7.689  0.1387  0.0008  0.0846
    1AU     LIG  494  -0.532   6.754   7.257  0.2759  0.0677  0.0816
    1AU     LIG  495  -0.928   6.662   7.013 -0.2151  0.2473  0.0859
    1AU     LIG  496  -1.324   6.930   7.105  0.0754  0.1650 -0.1689
    1AU     LIG  497  -1.413   7.399   7.277  0.1564  0.2857 -0.1476
    1AU    AUSL  498   1.183   5.676   6.258 -0.0467 -0.0142  0.0206
    1AU    AUSL  499   1.291   5.670   6.749  0.0491 -0.0211  0.0783
    1AU     AUL  500   1.211   5.377   6.432  0.0603 -0.0405 -0.0166
    1AU       S  501   1.420   5.346   6.021 -0.1437 -0.1160  0.0752
    1AU     LIG  502   1.068   5.389   5.747 -0.1699  0.0593  0.3099
    1AU     LIG  503   0.994   5.373   5.382  0.2850 -0.0473 -0.3580
    1AU     LIG  504   0.952   5.348   4.978 -0.0044  0.3517  0.0695
    1AU     LIG  505   1.051   5.376   4.562  0.4415  0.1631  0.2922
    1AU     LIG  506   1.080   5.535   4.120 -0.1245 -0.0304  0.2815
    1AU     LIG  507   1.243   5.957   4.044  0.1228 -0.1375  0.3040
    1AU       S  508   1.124   5.187   6.869  0.1428 -0.1827 -0.1311
    1AU     LIG  509   0.787   4.993   7.165  0.0007  0.1032  0.2949
    1AU     LIG  510   0.592   4.666   7.343  0.3533 -0.0391  0.1023
    1AU     LIG  511   0.222   4.412   7.169 -0.4300  0.1311  0.1158
    1AU     LIG  512  -0.172   4.273   6.853  0.0899 -0.0594 -0.1797
    1AU     LIG  513  -0.470   4.137   7.064 -0.7492  0.3044 -0.0573
    1AU     LIG  514  -0.756   4.000   7.404 -0.1709  0.3328  0.1511
    1AU    AUSL  515   1.426   5.967   6.440 -0.0239  0.0586 -0.0075
    1AU    AUSL  516   1.035   6.043   6.343 -0.0406 -0.0471 -0.0399
    1AU     AUL  517   1.334   5.835   6.051  0.0830 -0.0536  0.0113
    1AU       S  518   1.641   5.482   6.398  0.0484  0.2647 -0.1638
    1AU     LIG  519   2.133   5.304   6.306 -0.1630 -0.1729 -0.1051
    1AU     LIG  520   2.442   4.984   6.550 -0.1175  0.0496 -0.0268
    1AU     LIG  521   2.343   4.550   6.483 -0.1640  0.0052 -0.0788
    1AU     LIG  522   1.959   4.241   6.502 -0.2579 -0.0100 -0.3793
    1AU     LIG  523   1.819   3.864   6.869  0.0865 -0.0759 -0.3397
    1AU     LIG  524   1.507   3.651   7.213  0.1715 -0.1165 -0.1033
    1AU       S  525   0.963   5.914   5.853  0.0099  0.0674 -0.0229
    1AU     LIG  526   0.679   5.623   5.755 -0.0794 -0.0011  0.3145
    1AU     LIG  527   0.774   5.355   6.103  0.1680  0.3372 -0.4006
    1AU     LIG  528   0.905   5.004   6.103  0.0444  0.1627 -0.2459
    1AU     LIG  529   1.174   4.732   6.013 -0.0567  0.3741 -0.1347
    1AU     LIG  530   1.566   4.332   6.206 -0.2447 -0.0554 -0.0076
    1AU     LIG  531   1.565   3.913   6.410 -0.0476  0.0723 -0.1385
    1AU    AUSL  532   0.271   6.189   7.093 -0.0790  0.0874  0.0334
    1AU    AUSL  533   0.688   6.565   6.872  0.0969 -0.0793 -0.0335
    1AU     AUL  534   0.167   6.393   6.850 -0.0694 -0.0651 -0.0615
    1AU       S  535   0.263   6.896   6.705 -0.2588 -0.1882 -0.0383
    1AU     LIG  536  -0.063   7.327   6.638 -0.4254 -0.2743 -0.0292
    1AU     LIG  537  -0.166   7.725   6.707  0.2891 -0.2097 -0.1659
    1AU     LIG  538   0.005   8.083   6.801  0.1879  0.0284 -0.2091
    1AU     LIG  539   0.052   8.228   7.247 -0.1073  0.0631 -0.2941
    1AU     LIG  540  -0.105   8.393   7.598 -0.1882  0.3079  0.3850
    1AU     LIG  541  -0.121   8.119   7.928  0.0856 -0.4915 -0.2486
    1AU       S  542  -0.002   6.489   7.253 -0.1358 -0.0451 -0.3829
    1AU     LIG  543  -0.311   6.337   6.967  0.2306 -0.0612 -0.1988
    1AU     LIG  544  -0.837   6.202   7.133  0.0620 -0.0867 -0.0622
    1AU     LIG  545  -1.202   6.006   7.298  0.2767  0.2787  0.0228
    1AU     LIG  546  -1.509   5.813   7.169 -0.0003  0.0847 -0.0342
    1AU     LIG  547  -1.941   5.750   6.918  0.3557 -0.6019  0.5795
    1AU     LIG  548  -1.957   5.872   6.552 -0.1584 -0.2437  0.0496
    1AU    AUSL  549   0.625   6.346   7.263  0.0254  0.0464  0.0438
    1AU    AUSL  550   0.622   5.991   7.061  0.0560 -0.0570 -0.0568
    1AU     AUL  551   0.320   6.156   7.409 -0.0199 -0.0045  0.0446
    1AU       S  552   0.210   6.716   7.160  0.5429  0.3239  0.3217
    1AU     LIG  553   0.343   7.165   7.090 -0.1607  0.1286 -0.0731
    1AU     LIG  554   0.047   7.511   7.179 -0.2277  0.1035 -0.4657
    1AU     LIG  555  -0.212   7.794   7.358  0.0763  0.2466  0.0536
    1AU     LIG  556  -0.425   7.939   7.556  0.2439  0.0200  0.0902
    1AU     LIG  557  -0.790   8.189   7.311 -0.0099  0.1150 -0.1911
    1AU     LIG  558  -1.259   8.332   7.223  0.3589  0.2987  0.4327
    1AU       S  559   0.182   5.719   7.356  0.2080 -0.0492 -0.0359
    1AU     LIG  560  -0.125   5.982   7.324 -0.1958 -0.1918  0.1565
    1AU     LIG  561  -0.448   6.254   7.413 -0.5024  0.0592  0.3423
    1AU     LIG  562  -0.799   6.477   7.567 -0.0769 -0.3344 -0.1153
    1AU     LIG  563  -1.235   6.639   7.532  0.5317 -0.1492  0.5784
    1AU     LIG  564  -1.362   6.969   7.626  0.4346  0.0090  0.3162
    1AU     LIG  565  -1.590   7.005   7.948 -0.4369  0.0636 -0.2586
    2POPC   NC3  566   4.977   6.526   8.989 -0.3166  0.0464 -0.2394
    2POPC   PO4  567   5.276   6.939   8.853 -0.0133  0.0030  0.2450
    2POPC   GL1  568   4.921   6.877   8.558  0.0030 -0.0719  0.1941
    2POPC   GL2  569   4.781   6.596   8.557  0.4155 -0.1843  0.1686
    2POPC   C1A  570   4.709   6.760   8.139  0.2237  0.1155 -0.2080
    2POPC   D2A  571   4.359   7.014   7.886  0.0347  0.1183  0.1557
    2POPC   C3A  572   4.383   6.833   7.422  0.0329  0.0068  0.0401
    2POPC   C4A  573   4.631   6.786   7.046  0.0841 -0.1636  0.1944
    2POPC   C1B  574   4.584   6.262   8.258  0.0276 -0.3052  0.2643
    2POPC   C2B  575   4.503   6.124   7.872 -0.3359  0.2519  0.0142
    2POPC   C3B  576   4.772   6.017   7.478  0.1415 -0.1263 -0.1626
    2POPC   C4B  577   4.769   6.289   7.146  0.3870  0.1269  0.1617
    3POPC   NC3  578   9.072   2.514   9.181  0.1285 -0.0679 -0.0508
    3POPC   PO4  579   9.064   2.634   8.725  0.1779  0.3174  0.2682
    3POPC   GL1  580   9.411   2.566   8.493 -0.2043  0.0825 -0.2319
    3POPC   GL2  581   9.738   2.594   8.561  0.2926  0.2009 -0.2466
    3POPC   C1A  582   9.514   2.332   8.179 -0.1707 -0.0788 -0.2135
    3POPC   D2A  583   9.528   1.982   8.062  0.2815 -0.0690  0.2121
    3POPC   C3A  584   9.927   1.800   8.269  0.1991  0.2758  0.0058
    3POPC   C4A  585  10.220   1.648   8.434 -0.1174  0.1387  0.1209
    3POPC   C1B  586  10.118   2.727   8.324 -0.0273 -0.0455  0.0765
    3POPC   C2B  587  10.158   2.817   7.797  0.2013 -0.0332  0.0816
    3POPC   C3B  588  10.412   2.723   7.587 -0.0116  0.2965  0.1884
    3POPC   C4B  589  10.552   2.657   7.156 -0.0478 -0.3491  0.0355
    4POPC   NC3  590   2.625   6.993  10.253  0.4548  0.1017  0.1528
    4POPC   PO4  591   2.450   7.351  10.206 -0.0293 -0.0475  0.1051
    4POPC   GL1  592   2.371   7.476   9.857  0.2524  0.2081  0.1417
    4POPC   GL2  593   2.595   7.553   9.572 -0.0573  0.1057  0.0060
    4POPC   C1A  594   2.039   7.390   9.538  0.2093 -0.0213  0.0438
    4POPC   D2A  595   1.943   7.096   9.238  0.2952 -0.0352  0.0318
    4POPC   C3A  596   1.838   6.678   9.418  0.1971 -0.2150 -0.1730
    4POPC   C4A  597   1.609   6.370   9.506 -0.2944  0.1119  0.0196
    4POPC   C1B  598   2.395   7.483   9.094  0.0723  0.0620 -0.1852
    4POPC   C2B  599   2.329   7.364   8.598 -0.2527 -0.0331 -0.1113
    4POPC   C3B  600   2.171   7.216   8.264  0.0139 -0.3210  0.2850
    4POPC   C4B  601   1.902   6.955   8.170  0.2802 -0.0722 -0.0887
    5POPC   NC3  602   1.829   2.324   9.581  0.2134  0.3638  0.5544
    5POPC   PO4  603   1.898   2.290   9.076 -0.1115  0.2863  0.0604
    5POPC   GL1  604   1.877   2.279   8.637  0.1340 -0.1789  0.2563
    5POPC   GL2  605   1.931   1.921   8.631 -0.0607 -0.1138 -0.1872
    5POPC   C1A  606   2.098   2.485   8.240 -0.2278 -0.1086  0.2798
    5POPC   D2A  607   2.404   2.738   8.072  0.0001 -0.2044  0.0232
    5POPC   C3A  608   2.450   2.841   7.692  0.4468 -0.0024 -0.0089
    5POPC   C4A  609   2.445   2.565   7.411 -0.1995  0.1440 -0.0349
    5POPC   C1B  610   1.825   1.958   8.190 -0.3519 -0.4279  0.2872
    5POPC   C2B  611   1.965   2.202   7.847 -0.0935  0.2188  0.2413
    5POPC   C3B  612   1.990   2.465   7.509 -0.1427  0.0455 -0.4571
    5POPC   C4B  613   2.122   2.372   7.078  0.1007 -0.2136 -0.1450
    6POPC   NC3  614  10.142   0.890   8.917 -0.0213  0.2951  0.5000
    6POPC   PO4  615   9.774   0.774   8.878  0.0324 -0.0408 -0.0534
    6POPC   GL1  616   9.777   0.461   8.611  0.3194 -0.3061 -0.2601
    6POPC   GL2  617  10.099   0.407   8.641 -0.1711 -0.1336  0.4102
    6POPC   C1A  618   9.770   0.334   8.178 -0.2403  0.1865  0.1424
    6POPC   D2A  619   9.839  -0.024   7.939  0.2150 -0.1608 -0.4351
    6POPC   C3A  620   9.961   0.002   7.559  0.1146  0.2177 -0.0802
    6POPC   C4A  621   9.774   0.165   7.078  0.0205  0.4151  0.2449
    6POPC   C1B  622  10.111   0.662   8.269  0.1594  0.0831 -0.0693
    6POPC   C2B  623  10.012   0.919   8.012  0.1396  0.0711 -0.1981
    6POPC   C3B  624   9.787   0.923   7.594 -0.0876  0.0926 -0.0903
    6POPC   C4B  625   9.706   1.244   7.315  0.0024 -0.2688  0.3124
    7POPC   NC3  626   6.645   9.963   8.755  0.0568  0.2153 -0.1880
    7POPC   PO4  627   7.001  10.050   8.685 -0.1296  0.0120 -0.0193
    7POPC   GL1  628   6.995  10.208   8.268 -0.0995 -0.0094  0.2062
    7POPC   GL2  629   6.640  10.092   8.192 -0.1780 -0.1027 -0.1496
    7POPC   C1A  630   7.022  10.145   7.827  0.0440 -0.0090  0.1431
    7POPC   D2A  631   6.854  10.226   7.298 -0.0720 -0.1106 -0.0986
    7POPC   C3A  632   7.226  10.237   7.106 -0.1440  0.3243  0.1153
    7POPC   C4A  633   7.404  10.181   6.718 -0.3912  0.0408  0.1309
    7POPC   C1B  634   6.555  10.011   7.726 -0.1173 -0.3851 -0.0341
    7POPC   C2B  635   6.407   9.811   7.340  0.1252 -0.0032 -0.0380
    7POPC   C3B  636   6.318   9.559   6.898  0.0105 -0.2882  0.2023
    7POPC   C4B  637   6.401   9.147   6.900  0.0570 -0.1727  0.2295
    8POPC   NC3  638   8.340   2.858   8.749  0.0125  0.1013 -0.2527
    8POPC   PO4  639   8.585   2.526   8.602 -0.0381  0.1386  0.0399
    8POPC   GL1  640   8.759   2.862   8.418 -0.2256  0.0524 -0.0900
    8POPC   GL2  641   8.707   3.191   8.459 -0.1920  0.0679  0.0596
    8POPC   C1A  642   8.715   2.863   7.996 -0.0892  0.0589 -0.1571
    8POPC   D2A  643   8.685   2.803   7.548  0.0696  0.0964  0.1550
    8POPC   C3A  644   8.404   3.068   7.326 -0.3001 -0.1833  0.2574
    8POPC   C4A  645   8.004   2.949   7.040  0.0855  0.0699  0.3293
    8POPC   C1B  646   8.806   3.623   8.312  0.0396  0.1578 -0.3077
    8POPC   C2B  647   9.053   3.846   8.130  0.0858 -0.0456  0.2103
    8POPC   C3B  648   9.382   4.110   7.889 -0.3763 -0.2742  0.2394
    8POPC   C4B  649   9.665   4.504   7.695  0.2713  0.3126 -0.1753
    9POPC   NC3  650   3.980   2.549   9.017  0.2219 -0.3221  0.0067
    9POPC   PO4  651   4.095   2.944   9.302  0.0279  0.1765  0.0908
    9POPC   GL1  652   4.175   3.049   8.943 -0.4392 -0.0136  0.1418
    9POPC   GL2  653   4.270   3.349   8.867 -0.3487 -0.2524 -0.1415
    9POPC   C1A  654   4.049   3.119   8.451  0.2479  0.1421 -0.1462
    9POPC   D2A  655   4.101   3.209   8.044  0.0132  0.2702 -0.0539
    9POPC   C3A  656   3.748   3.020   7.903 -0.0437 -0.1175  0.1765
    9POPC   C4A  657   3.354   3.125   8.031 -0.0418 -0.0312  0.3249
    9POPC   C1B  658   4.545   3.234   8.551  0.2478 -0.1796  0.2237
    9POPC   C2B  659   4.660   3.131   8.152 -0.2326  0.2489 -0.1433
    9POPC   C3B  660   4.620   3.387   7.737  0.0266  0.0914  0.2206
    9POPC   C4B  661   4.975   3.326   7.432  0.3849 -0.0524  0.0927
   10POPC   NC3  662   5.127   2.352   9.205  0.1832  0.3513  0.1267
   10POPC   PO4  663   5.502   2.606   9.208  0.0088  0.1145  0.4963
   10POPC   GL1  664   5.588   2.766   8.825 -0.0009 -0.0651  0.0799
   10POPC   GL2  665   5.514   3.097   8.745  0.2687  0.0886  0.0535
   10POPC   C1A  666   5.560   2.580   8.389  0.0398  0.0253  0.3998
   10POPC   D2A  667   5.426   2.597   7.966  0.0814  0.1038  0.2720
   10POPC   C3A  668   5.600   2.652   7.604 -0.1479  0.2208  0.3295
   10POPC   C4A  669   5.591   2.398   7.182 -0.1215  0.1965  0.0898
   10POPC   C1B  670   5.952   2.951   8.418 -0.0593  0.0413 -0.0722
   10POPC   C2B  671   6.174   2.614   8.179  0.4282  0.2291 -0.1670
   10POPC   C3B  672   6.070   2.611   7.715 -0.1666  0.0865 -0.2885
   10POPC   C4B  673   5.932   2.986   7.418 -0.1562  0.4244  0.0451
   11POPC   NC3  674   3.214   2.115   9.019  0.0653  0.0120  0.0144
   11POPC   PO4  675   3.666   2.159   9.094 -0.1002 -0.3464 -0.1087
   11POPC   GL1  676   3.584   2.025   8.699  0.1322  0.1311  0.1183
   11POPC   GL2  677   3.920   1.869   8.545 -0.1450  0.0318 -0.0537
   11POPC   C1A  678   3.686   2.166   8.258 -0.0933 -0.2507  0.3806
   11POPC   D2A  679   3.629   2.553   7.887 -0.2905 -0.0870  0.0277
   11POPC   C3A  680   3.314   2.742   7.732  0.0772  0.1029 -0.1190
   11POPC   C4A  681   3.218   3.154   7.562 -0.1239 -0.2758 -0.0055
   11POPC   C1B  682   4.062   1.703   8.102 -0.2013 -0.0837  0.2054
   11POPC   C2B  683   4.006   1.682   7.662  0.1143 -0.2466  0.0355
   11POPC   C3B  684   3.910   1.873   7.359  0.0385 -0.3529 -0.1916
   11POPC   C4B  685   3.832   1.990   6.894  0.0144  0.0893 -0.1497
   12POPC   NC3  686   4.950   8.760   8.956  0.1805  0.0459 -0.1773
   12POPC   PO4  687   5.071   9.087   8.729 -0.1266  0.2308  0.2544
   12POPC   GL1  688   5.000   8.957   8.299 -0.0344 -0.0088  0.0602
   12POPC   GL2  689   5.308   9.139   8.153  0.1832 -0.0967  0.1834
   12POPC   C1A  690   4.874   9.112   7.884 -0.1982  0.1162  0.3757
   12POPC   D2A  691   4.791   9.554   7.680  0.0096 -0.3678 -0.0195
   12POPC   C3A  692   4.474   9.901   7.836  0.0504  0.4014 -0.1567
   12POPC   C4A  693   4.059   9.935   8.056 -0.0042  0.0344  0.0967
   12POPC   C1B  694   5.574   9.059   7.801 -0.1760  0.0066  0.2620
   12POPC   C2B  695   5.896   8.958   7.543 -0.3710  0.0633 -0.2854
   12POPC   C3B  696   5.927   8.872   7.123 -0.1857  0.0775 -0.3460
   12POPC   C4B  697   5.935   9.099   6.754  0.1819 -0.3943  0.0231
   13POPC   NC3  698   7.927   0.425   8.896  0.3663 -0.1058 -0.2101
   13POPC   PO4  699   7.609   0.174   8.787  0.1952  0.1810 -0.1960
   13POPC   GL1  700   7.668   0.234   8.387 -0.0026 -0.0764  0.0229
   13POPC   GL2  701   7.339   0.349   8.173  0.2201  0.0974  0.2293
   13POPC   C1A  702   7.928   0.253   8.002  0.1811  0.1012 -0.5765
   13POPC   D2A  703   8.076   0.295   7.593  0.2931 -0.0537 -0.3377
   13POPC   C3A  704   8.040   0.324   7.166 -0.1517  0.1815  0.1131
   13POPC   C4A  705   7.894   0.057   6.887  0.0712  0.0517  0.1273
   13POPC   C1B  706   7.508   0.075   7.911  0.1124 -0.2879 -0.2952
   13POPC   C2B  707   7.611   0.093   7.445 -0.0818 -0.0522 -0.1716
   13POPC   C3B  708   7.630  -0.253   7.197 -0.2750  0.0757  0.1134
   13POPC   C4B  709   7.605  -0.575   6.894  0.2190 -0.0659 -0.4543
   14POPC   NC3  710   3.023   3.032   9.367 -0.2453 -0.0932  0.1046
   14POPC   PO4  711   2.683   2.964   9.153 -0.2499 -0.0757 -0.1285
   14POPC   GL1  712   2.706   3.144   8.782  0.1135  0.1089 -0.2690
   14POPC   GL2  713   2.926   3.359   8.763 -0.3631 -0.1691  0.2908
   14POPC   C1A  714   2.583   3.367   8.396  0.0896  0.2019 -0.0145
   14POPC   D2A  715   2.851   3.607   8.224 -0.0415  0.1590  0.0214
   14POPC   C3A  716   2.940   3.650   7.751  0.1640 -0.2651  0.0628
   14POPC   C4A  717   3.358   3.620   7.543 -0.1040  0.2542  0.1263
   14POPC   C1B  718   3.005   3.093   8.413 -0.0907 -0.0600  0.0557
   14POPC   C2B  719   2.818   3.030   8.062  0.0098 -0.1213 -0.1952
   14POPC   C3B  720   2.591   3.349   7.787  0.0518  0.1759  0.2517
   14POPC   C4B  721   2.387   3.233   7.344 -0.4167 -0.2590 -0.0719
   15POPC   NC3  722   0.683   2.571   9.334 -0.1447 -0.0906 -0.0177
   15POPC   PO4  723   0.523   3.043   9.315 -0.0630 -0.1726 -0.3981
   15POPC   GL1  724   0.536   3.367   9.096  0.0043 -0.1942 -0.0557
   15POPC   GL2  725   0.702   3.615   9.169  0.3464  0.0782  0.0402
   15POPC   C1A  726   0.311   3.449   8.738 -0.3017 -0.0359  0.2953
   15POPC   D2A  727   0.368   3.743   8.325  0.0207  0.1061  0.3417
   15POPC   C3A  728   0.280   4.156   8.286 -0.1252 -0.0347 -0.0851
   15POPC   C4A  729  -0.019   4.534   8.313 -0.3312 -0.0484  0.1579
   15POPC   C1B  730   0.778   3.731   8.717 -0.1212 -0.0833 -0.1559
   15POPC   C2B  731   0.902   3.817   8.268 -0.2984  0.1354  0.3834
   15POPC   C3B  732   0.699   4.060   7.941 -0.0669  0.2124  0.2437
   15POPC   C4B  733   0.792   4.283   7.605  0.0585 -0.2353 -0.0632
   16POPC   NC3  734   5.244   5.324   9.195 -0.0776 -0.2385  0.1803
   16POPC   PO4  735   5.761   5.518   9.390 -0.0933  0.1535  0.3472
   16POPC   GL1  736   5.684   5.304   8.997  0.0316 -0.2589  0.1468
   16POPC   GL2  737   5.588   5.567   8.822 -0.1612 -0.1336 -0.1897
   16POPC   C1A  738   5.931   5.190   8.609  0.0477  0.1261 -0.3758
   16POPC   D2A  739   5.966   5.246   8.147  0.2482  0.0218 -0.1470
   16POPC   C3A  740   6.128   4.993   7.825 -0.0890  0.0733 -0.1171
   16POPC   C4A  741   6.428   4.898   7.525  0.1087 -0.2644 -0.2983
   16POPC   C1B  742   5.717   5.650   8.454 -0.2366  0.3406  0.0977
   16POPC   C2B  743   5.828   5.672   7.956 -0.2418 -0.0027  0.2224
   16POPC   C3B  744   5.977   5.862   7.591 -0.5343 -0.2011 -0.1196
   16POPC   C4B  745   6.179   6.158   7.273  0.1841  0.1225  0.3409
   17POPC   NC3  746   7.370   9.566   8.630  0.0754  0.3236 -0.0377
   17POPC   PO4  747   7.449   9.163   8.767  0.4591  0.0743  0.1412
   17POPC   GL1  748   7.303   9.115   8.339 -0.1539  0.0777  0.0561
   17POPC   GL2  749   7.260   8.838   8.222  0.2252 -0.0469  0.3319
   17POPC   C1A  750   7.351   9.368   8.011 -0.2078 -0.1384 -0.2005
   17POPC   D2A  751   7.619   9.455   7.625  0.1302 -0.2408 -0.1131
   17POPC   C3A  752   7.354   9.395   7.304  0.1177  0.2883 -0.0989
   17POPC   C4A  753   7.198   9.274   6.953  0.0023 -0.0151 -0.1703
   17POPC   C1B  754   7.364   8.884   7.761  0.0848 -0.1920  0.1511
   17POPC   C2B  755   7.286   8.707   7.425 -0.1514  0.2340 -0.2062
   17POPC   C3B  756   7.028   8.376   7.190  0.0476  0.0846 -0.1611
   17POPC   C4B  757   7.006   8.229   6.767  0.2760 -0.1197 -0.1121
   18POPC   NC3  758   4.503   5.630   9.147  0.2854 -0.0289 -0.2806
   18POPC   PO4  759   4.309   5.970   9.177  0.2627  0.0719  0.0463
   18POPC   GL1  760   3.971   5.991   8.987  0.0049 -0.0976  0.0266
   18POPC   GL2  761   3.819   5.705   9.072 -0.0003  0.2316 -0.1718
   18POPC   C1A  762   3.657   6.185   8.756 -0.0237  0.0185 -0.4875
   18POPC   D2A  763   3.618   6.107   8.259  0.2685 -0.1429 -0.0868
   18POPC   C3A  764   3.301   6.273   7.987  0.0361  0.2728 -0.2598
   18POPC   C4A  765   3.023   6.460   7.696  0.0289  0.0734 -0.0055
   18POPC   C1B  766   4.009   5.416   8.729  0.2257 -0.1042  0.0439
   18POPC   C2B  767   4.258   5.244   8.348 -0.0506 -0.1483  0.2373
   18POPC   C3B  768   4.231   5.037   7.906 -0.2046  0.3035 -0.0546
   18POPC   C4B  769   4.129   5.144   7.452  0.0203  0.0612 -0.2400
   19POPC   NC3  770   3.917   0.802   8.701 -0.1360 -0.2207 -0.0635
   19POPC   PO4  771   3.647   1.178   8.658 -0.0336  0.0239  0.1474
   19POPC   GL1  772   3.382   1.143   8.260 -0.0451  0.1764  0.1748
   19POPC   GL2  773   3.112   1.340   8.253 -0.2002  0.0225  0.2575
   19POPC   C1A  774   3.160   0.908   8.052  0.2843  0.2547  0.2571
   19POPC   D2A  775   3.343   0.842   7.649  0.1574  0.0411  0.1461
   19POPC   C3A  776   3.753   0.865   7.463  0.0399 -0.2528 -0.3800
   19POPC   C4A  777   3.670   1.024   6.970  0.0808  0.0007  0.3214
   19POPC   C1B  778   3.302   1.610   8.003 -0.1152  0.0726 -0.2843
   19POPC   C2B  779   3.554   1.795   7.680 -0.0983 -0.2209 -0.2008
   19POPC   C3B  780   3.425   2.131   7.372 -0.0312  0.2625  0.1705
   19POPC   C4B  781   3.485   2.581   7.158  0.2255 -0.1598 -0.0581
   20POPC   NC3  782   8.682   9.411   9.301 -0.0822 -0.0812  0.2307
   20POPC   PO4  783   8.575   9.218   8.908 -0.1705  0.0429  0.3535
   20POPC   GL1  784   8.548   9.353   8.416 -0.1393 -0.0162  0.2138
   20POPC   GL2  785   8.330   9.135   8.254 -0.1079 -0.2303 -0.3172
   20POPC   C1A  786   8.624   9.486   7.900  0.1531  0.2124 -0.0963
   20POPC   D2A  787   8.803   9.312   7.533  0.3961  0.0982 -0.2273
   20POPC   C3A  788   8.708   8.914   7.267 -0.1902  0.1741 -0.1264
   20POPC   C4A  789   8.619   8.659   6.901 -0.0662  0.0538 -0.0405
   20POPC   C1B  790   8.260   9.077   7.810  0.0719 -0.2549  0.0788
   20POPC   C2B  791   7.944   9.129   7.471 -0.2558 -0.0887  0.0289
   20POPC   C3B  792   7.711   9.134   7.114  0.1556 -0.0548  0.1710
   20POPC   C4B  793   7.548   9.110   6.640  0.0683 -0.1917  0.2004
   21POPC   NC3  794   5.547   0.521   8.797 -0.4117 -0.0149  0.1250
   21POPC   PO4  795   5.905   0.824   8.849 -0.0872  0.1189  0.0730
   21POPC   GL1  796   5.980   1.102   8.578  0.0530 -0.1461 -0.0311
   21POPC   GL2  797   6.279   1.178   8.605  0.0004 -0.0587  0.0580
   21POPC   C1A  798   5.870   1.192   8.203 -0.0541  0.2629  0.1400
   21POPC   D2A  799   5.815   1.120   7.804  0.2185 -0.2766 -0.1394
   21POPC   C3A  800   5.785   0.865   7.338 -0.3405 -0.1003 -0.0602
   21POPC   C4A  801   5.451   0.574   7.050 -0.0176  0.1708 -0.1733
   21POPC   C1B  802   6.396   1.207   8.227 -0.0400 -0.1216  0.2858
   21POPC   C2B  803   6.223   1.315   7.746 -0.0344 -0.0246  0.0342
   21POPC   C3B  804   6.000   1.309   7.325  0.1570 -0.3468  0.1924
   21POPC   C4B  805   6.113   1.279   6.930  0.0910  0.0016  0.0751
   22POPC   NC3  806   8.074   3.181   9.185 -0.2050  0.0750 -0.0898
   22POPC   PO4  807   7.912   3.044   8.780  0.0356 -0.4060 -0.5740
   22POPC   GL1  808   8.003   3.068   8.342 -0.0692  0.0959 -0.2119
   22POPC   GL2  809   8.269   2.931   8.237 -0.3538 -0.0378 -0.1197
   22POPC   C1A  810   7.912   3.244   7.995  0.0706 -0.2551  0.1980
   22POPC   D2A  811   8.071   3.310   7.622 -0.1818 -0.4056  0.1726
   22POPC   C3A  812   8.089   3.591   7.344 -0.0919  0.1256  0.0918
   22POPC   C4A  813   8.222   3.779   7.001 -0.2424 -0.2298  0.0233
   22POPC   C1B  814   8.407   3.281   8.044 -0.2594 -0.2697  0.0775
   22POPC   C2B  815   8.553   3.494   7.722  0.2220  0.4151 -0.0292
   22POPC   C3B  816   8.436   3.910   7.487 -0.0028  0.1736 -0.1104
   22POPC   C4B  817   8.369   4.340   7.501 -0.0412  0.0776  0.0278
   23POPC   NC3  818   8.126   9.024   8.756 -0.1105  0.3504 -0.0256
   23POPC   PO4  819   7.901   9.469   8.650 -0.0497  0.0373  0.0322
   23POPC   GL1  820   7.768   9.339   8.295 -0.0093  0.1191 -0.0612
   23POPC   GL2  821   7.907   9.422   8.029  0.0488 -0.3617  0.0324
   23POPC   C1A  822   7.828   8.936   8.059  0.1743  0.1056  0.2682
   23POPC   D2A  823   7.857   8.537   8.118 -0.2239  0.0108  0.2493
   23POPC   C3A  824   8.106   8.230   7.775  0.2504 -0.1773  0.1756
   23POPC   C4A  825   7.910   8.088   7.337  0.1080 -0.0178  0.0726
   23POPC   C1B  826   8.137   9.552   7.603 -0.1834  0.0746  0.0160
   23POPC   C2B  827   7.949   9.565   7.215  0.0390  0.3009  0.0682
   23POPC   C3B  828   8.145   9.831   6.897 -0.3747  0.1532  0.4661
   23POPC   C4B  829   8.001   9.949   6.510 -0.0977 -0.0155 -0.1466
   24POPC   NC3  830   2.458   9.361   9.184  0.4452 -0.1145  0.3005
   24POPC   PO4  831   2.588   9.377   8.759  0.1350 -0.3689 -0.2256
   24POPC   GL1  832   2.339   9.212   8.437  0.1374  0.0727 -0.0607
   24POPC   GL2  833   2.016   9.339   8.261 -0.1336  0.1903  0.0631
   24POPC   C1A  834   2.242   8.854   8.237 -0.3340 -0.2820 -0.0187
   24POPC   D2A  835   2.218   8.388   8.185 -0.3442  0.0869  0.0547
   24POPC   C3A  836   2.509   7.975   8.132  0.1685  0.2426 -0.4084
   24POPC   C4A  837   2.671   7.642   8.367 -0.1670 -0.2458  0.3127
   24POPC   C1B  838   2.286   9.408   7.928  0.2454  0.0593 -0.0033
   24POPC   C2B  839   2.377   9.167   7.520 -0.0956  0.1403  0.1070
   24POPC   C3B  840   2.204   8.807   7.236  0.1819 -0.3016  0.0176
   24POPC   C4B  841   1.985   8.437   7.273 -0.0385  0.2991 -0.0693
   25POPC   NC3  842   4.319   4.706   9.966 -0.3942 -0.5087  0.0559
   25POPC   PO4  843   4.092   4.435   9.625  0.2810  0.0804 -0.0579
   25POPC   GL1  844   4.232   4.609   9.282 -0.2364  0.2215  0.1784
   25POPC   GL2  845   4.622   4.581   9.080 -0.3509 -0.1931  0.0686
   25POPC   C1A  846   4.147   4.558   8.858  0.0065  0.0587 -0.1263
   25POPC   D2A  847   3.964   4.351   8.517  0.1281 -0.2982  0.1783
   25POPC   C3A  848   3.944   4.604   8.124  0.0171 -0.3190  0.3081
   25POPC   C4A  849   3.746   4.690   7.782  0.1747  0.1068  0.1951
   25POPC   C1B  850   4.741   4.546   8.696 -0.0926 -0.0168  0.2096
   25POPC   C2B  851   4.514   4.757   8.312  0.2991  0.2516 -0.1335
   25POPC   C3B  852   4.378   4.548   7.957  0.0293 -0.4042 -0.0158
   25POPC   C4B  853   4.362   4.663   7.611  0.0648 -0.1463 -0.1099
   26POPC   NC3  854   4.624   0.555   9.128  0.2746 -0.1462 -0.0565
   26POPC   PO4  855   4.732   0.263   8.832  0.1537  0.0995  0.0593
   26POPC   GL1  856   4.573   0.318   8.532  0.0237 -0.1291  0.0118
   26POPC   GL2  857   4.541   0.089   8.360  0.2817  0.2054 -0.2567
   26POPC   C1A  858   4.672   0.572   8.187  0.0873  0.0091  0.2444
   26POPC   D2A  859   5.088   0.732   8.073  0.0775 -0.0857 -0.0634
   26POPC   C3A  860   5.501   0.708   7.814  0.1171 -0.0145  0.0726
   26POPC   C4A  861   5.873   0.512   7.669  0.1393 -0.0362 -0.0714
   26POPC   C1B  862   4.409   0.198   7.997  0.0112  0.1271  0.3267
   26POPC   C2B  863   4.147   0.158   7.681 -0.1466 -0.1371  0.2793
   26POPC   C3B  864   4.136  -0.225   7.407 -0.0871  0.1013  0.1873
   26POPC   C4B  865   4.152  -0.390   7.059  0.1941 -0.1755  0.0352
   27POPC   NC3  866   3.234   9.660   8.855  0.1042 -0.0387  0.0987
   27POPC   PO4  867   3.187   9.179   8.683 -0.1127  0.2882 -0.2166
   27POPC   GL1  868   3.391   9.260   8.384  0.0198 -0.1381  0.0455
   27POPC   GL2  869   3.686   9.005   8.337 -0.1452  0.1569 -0.0139
   27POPC   C1A  870   3.247   9.189   7.965  0.3363 -0.1850 -0.3829
   27POPC   D2A  871   2.858   9.170   7.701 -0.0766 -0.0658 -0.1245
   27POPC   C3A  872   2.854   8.889   7.352 -0.0367  0.1381 -0.2440
   27POPC   C4A  873   3.101   8.595   7.210 -0.1912 -0.0895  0.3560
   27POPC   C1B  874   3.804   8.641   8.105 -0.0632  0.0284 -0.0449
   27POPC   C2B  875   3.884   8.639   7.656 -0.1277 -0.2520 -0.2114
   27POPC   C3B  876   3.991   8.493   7.317  0.0775 -0.0436 -0.1697
   27POPC   C4B  877   4.052   8.356   6.908  0.2514  0.0598  0.0969
   28POPC   NC3  878   9.361   4.061  10.111  0.2441 -0.1048 -0.1944
   28POPC   PO4  879   9.788   4.010  10.095 -0.1734  0.0286  0.1689
   28POPC   GL1  880   9.708   4.012   9.711 -0.1571 -0.2851  0.2255
   28POPC   GL2  881   9.861   4.192   9.624  0.0122  0.4478  0.1140
   28POPC   C1A  882   9.486   4.163   9.192 -0.1400 -0.1840 -0.3668
   28POPC   D2A  883   9.190   3.989   8.828 -0.0705  0.0448 -0.3889
   28POPC   C3A  884   8.765   4.204   8.785 -0.2646  0.1269 -0.1785
   28POPC   C4A  885   8.569   4.346   8.449  0.0928  0.1623 -0.1817
   28POPC   C1B  886  10.130   4.482   9.417 -0.1355 -0.1979  0.0068
   28POPC   C2B  887  10.260   4.790   9.106 -0.3212 -0.0506  0.1223
   28POPC   C3B  888  10.142   4.908   8.671  0.2491 -0.2348 -0.0714
   28POPC   C4B  889  10.037   5.040   8.311 -0.3688  0.3288 -0.1472
   29POPC   NC3  890   4.081   5.455   9.439 -0.0522  0.4468 -0.0411
   29POPC   PO4  891   3.775   5.407   9.720 -0.0130  0.2269  0.1944
   29POPC   GL1  892   3.551   5.592   9.500 -0.2117  0.1036  0.0014
   29POPC   GL2  893   3.251   5.401   9.444  0.2497 -0.0873 -0.1550
   29POPC   C1A  894   3.347   5.653   9.033 -0.2397  0.1163  0.2363
   29POPC   D2A  895   3.275   5.846   8.593 -0.0491  0.1072  0.1968
   29POPC   C3A  896   3.147   6.256   8.588  0.1832  0.0008  0.2558
   29POPC   C4A  897   3.328   6.588   8.400  0.3086 -0.4304  0.2212
   29POPC   C1B  898   2.823   5.472   9.311 -0.1927 -0.2421 -0.0456
   29POPC   C2B  899   2.344   5.556   9.244  0.1314  0.1039 -0.2284
   29POPC   C3B  900   1.886   5.328   9.292  0.2274 -0.2031 -0.4647
   29POPC   C4B  901   1.463   5.296   9.180 -0.0183 -0.0967  0.0974
   30POPC   NC3  902   3.126   1.276   8.778 -0.1113  0.0469  0.1051
   30POPC   PO4  903   3.252   1.648   8.894 -0.3345  0.0636  0.0075
   30POPC   GL1  904   2.971   1.822   8.544 -0.0646 -0.1317  0.2316
   30POPC   GL2  905   2.987   2.239   8.616  0.0085 -0.4554  0.4222
   30POPC   C1A  906   3.090   2.048   8.214  0.0197  0.1767  0.0900
   30POPC   D2A  907   3.266   2.185   7.835 -0.0221 -0.0731 -0.0150
   30POPC   C3A  908   3.036   2.409   7.411  0.5071 -0.0077 -0.2100
   30POPC   C4A  909   2.905   2.842   7.425 -0.0783  0.0611 -0.1003
   30POPC   C1B  910   2.735   2.664   8.444 -0.1004  0.1003 -0.0815
   30POPC   C2B  911   2.305   2.963   8.483 -0.1880 -0.4148 -0.1815
   30POPC   C3B  912   1.816   2.855   8.517 -0.0828  0.4700  0.2546
   30POPC   C4B  913   1.454   2.833   8.340  0.1893 -0.0726  0.1290
   31POPC   NC3  914   1.316   6.953  10.245  0.1961  0.3214 -0.0091
   31POPC   PO4  915   1.590   7.192   9.939 -0.1313 -0.1261  0.2557
   31POPC   GL1  916   1.449   6.954   9.712  0.0277  0.1916 -0.1091
   31POPC   GL2  917   1.154   6.778   9.671  0.0345  0.2027  0.0766
   31POPC   C1A  918   1.459   6.991   9.236 -0.0060 -0.0198 -0.0651
   31POPC   D2A  919   1.216   6.979   8.888 -0.1890  0.3732  0.5444
   31POPC   C3A  920   1.082   7.304   8.568 -0.2306  0.0737 -0.0803
   31POPC   C4A  921   1.104   7.581   8.182  0.5462 -0.0907  0.0284
   31POPC   C1B  922   0.894   7.067   9.330  0.0664 -0.0194 -0.0051
   31POPC   C2B  923   0.690   6.993   8.983 -0.2700 -0.3510 -0.0781
   31POPC   C3B  924   0.567   6.883   8.671  0.3888 -0.0575  0.0372
   31POPC   C4B  925   0.494   6.852   8.218  0.3436  0.3016 -0.0331
   32POPC   NC3  926   8.182   6.089   9.697  0.1561 -0.2726 -0.0021
   32POPC   PO4  927   8.166   5.678   9.573  0.1235 -0.3894 -0.0847
   32POPC   GL1  928   8.114   5.720   9.212  0.2627 -0.0981  0.3749
   32POPC   GL2  929   8.259   5.922   9.010 -0.0509  0.0257 -0.0010
   32POPC   C1A  930   7.875   5.516   8.881 -0.0123 -0.3313 -0.0086
   32POPC   D2A  931   7.729   5.606   8.475 -0.1719  0.2667  0.0609
   32POPC   C3A  932   7.866   5.562   7.961  0.1273 -0.0277  0.2847
   32POPC   C4A  933   7.832   5.549   7.568  0.0494  0.1224  0.1908
   32POPC   C1B  934   8.214   5.921   8.636  0.1053 -0.1643 -0.0618
   32POPC   C2B  935   8.206   5.774   8.323 -0.2187 -0.1244 -0.0427
   32POPC   C3B  936   8.508   5.596   8.198  0.1182 -0.0077  0.0239
   32POPC   C4B  937   8.761   5.293   8.402 -0.1948  0.1202 -0.0795
   33POPC   NC3  938   7.219   8.752   8.800 -0.0690 -0.0707 -0.2233
   33POPC   PO4  939   6.798   9.031   8.699 -0.2544  0.0071  0.1076
   33POPC   GL1  940   6.755   8.731   8.425 -0.0559 -0.1049 -0.1852
   33POPC   GL2  941   6.903   8.450   8.232 -0.2250  0.0211  0.3091
   33POPC   C1A  942   6.446   8.605   8.264  0.1822 -0.3125 -0.1901
   33POPC   D2A  943   6.045   8.531   7.928  0.3517 -0.2493  0.3521
   33POPC   C3A  944   6.118   8.291   7.650  0.2580  0.1654  0.2386
   33POPC   C4A  945   6.107   8.331   7.204  0.0228 -0.1372  0.2460
   33POPC   C1B  946   6.974   8.059   8.045  0.1643 -0.1344 -0.0901
   33POPC   C2B  947   7.355   7.912   7.988 -0.0064 -0.0260  0.0429
   33POPC   C3B  948   7.704   7.890   7.778 -0.3221 -0.2837  0.1011
   33POPC   C4B  949   8.162   7.727   7.687 -0.1503  0.0966  0.2000
   34POPC   NC3  950   1.511   0.883   9.498 -0.2175 -0.1881  0.0836
   34POPC   PO4  951   1.301   0.849   9.063 -0.0086 -0.3629  0.0933
   34POPC   GL1  952   1.361   0.805   8.587 -0.2243  0.1676 -0.0620
   34POPC   GL2  953   1.137   0.685   8.448 -0.0315  0.0522 -0.0257
   34POPC   C1A  954   1.579   0.586   8.209 -0.1032 -0.1419 -0.1301
   34POPC   D2A  955   1.221   0.509   7.915 -0.0783  0.0962 -0.0566
   34POPC   C3A  956   1.408   0.543   7.512  0.2098  0.1454  0.0309
   34POPC   C4A  957   1.690   0.381   7.250 -0.1454  0.0847 -0.1077
   34POPC   C1B  958   1.392   1.017   8.169  0.1575  0.0455 -0.0645
   34POPC   C2B  959   1.535   1.387   7.922 -0.2213 -0.0918  0.1972
   34POPC   C3B  960   1.606   1.780   7.731  0.0236 -0.1452  0.0514
   34POPC   C4B  961   1.735   1.983   7.329  0.0939  0.2142 -0.1202
   35POPC   NC3  962   0.583   4.264  10.185 -0.1309 -0.0852  0.0460
   35POPC   PO4  963   0.450   3.938   9.887 -0.0375  0.2115  0.1363
   35POPC   GL1  964   0.489   4.006   9.455  0.4295 -0.1675 -0.0106
   35POPC   GL2  965   0.368   4.353   9.145  0.1690  0.2117  0.0230
   35POPC   C1A  966   0.814   4.147   9.149  0.1882  0.1486 -0.0405
   35POPC   D2A  967   1.043   4.180   8.818 -0.1203  0.1434 -0.0956
   35POPC   C3A  968   0.913   4.289   8.366 -0.0104 -0.2656  0.1287
   35POPC   C4A  969   0.690   4.540   7.968  0.2709  0.0038 -0.4172
   35POPC   C1B  970   0.659   4.650   9.051  0.0553 -0.0832  0.1136
   35POPC   C2B  971   0.923   4.687   8.625 -0.0530  0.2814  0.0772
   35POPC   C3B  972   1.041   4.916   8.315  0.0316 -0.1266  0.3736
   35POPC   C4B  973   0.856   5.055   8.020  0.0161  0.2198 -0.4128
   36POPC   NC3  974  10.162   3.743   9.750  0.4577 -0.1352 -0.3940
   36POPC   PO4  975   9.819   3.456   9.538 -0.1680  0.0577  0.1433
   36POPC   GL1  976   9.731   3.740   9.291  0.0195 -0.0438 -0.0613
   36POPC   GL2  977   9.510   3.517   9.036  0.1643  0.0505  0.0278
   36POPC   C1A  978   9.887   3.963   8.934 -0.2288 -0.0837 -0.0751
   36POPC   D2A  979   9.807   4.196   8.525  0.1228 -0.1156 -0.0089
   36POPC   C3A  980   9.432   4.193   8.393  0.3174 -0.0039 -0.0735
   36POPC   C4A  981   9.012   4.341   8.240  0.2118  0.1169  0.3375
   36POPC   C1B  982   9.654   3.745   8.605 -0.0553 -0.1115  0.0858
   36POPC   C2B  983   9.560   3.720   8.265  0.0901  0.0745  0.1986
   36POPC   C3B  984   9.397   3.593   7.817  0.0048 -0.0162 -0.2150
   36POPC   C4B  985   9.011   3.706   7.610 -0.1995 -0.1392  0.0587
   37POPC   NC3  986   6.200   6.872   9.693  0.0941  0.1669 -0.0903
   37POPC   PO4  987   6.271   6.886   9.240 -0.2652 -0.1413  0.0315
   37POPC   GL1  988   6.293   6.803   8.785 -0.3521  0.0162  0.3058
   37POPC   GL2  989   6.382   6.479   8.622  0.1295 -0.1666 -0.2147
   37POPC   C1A  990   6.257   6.931   8.413 -0.3476 -0.0480  0.0203
   37POPC   D2A  991   6.257   6.715   8.000 -0.2021  0.2358 -0.1758
   37POPC   C3A  992   6.078   6.866   7.676 -0.3421 -0.1123  0.0262
   37POPC   C4A  993   5.808   6.975   7.303  0.0940 -0.0879 -0.0474
   37POPC   C1B  994   6.643   6.421   8.322  0.3521  0.1280  0.1405
   37POPC   C2B  995   6.996   6.433   8.044  0.2029 -0.3048 -0.1933
   37POPC   C3B  996   7.228   6.476   7.634 -0.2989 -0.2147  0.0252
   37POPC   C4B  997   7.542   6.303   7.352  0.0500  0.2089 -0.0183
   38POPC   NC3  998   3.485   4.544   9.749  0.0589 -0.0535  0.0186
   38POPC   PO4  999   3.166   4.234   9.679 -0.1857 -0.1478 -0.0776
   38POPC   GL1 1000   3.135   4.101   9.285  0.1179  0.3128  0.1501
   38POPC   GL2 1001   3.293   4.403   9.210  0.0358 -0.1673  0.1818
   38POPC   C1A 1002   3.332   4.089   8.818  0.2355  0.3957  0.0907
   38POPC   D2A 1003   3.392   4.401   8.546 -0.1712  0.1900  0.0749
   38POPC   C3A 1004   3.581   4.297   8.191 -0.0305  0.2691 -0.2660
   38POPC   C4A 1005   3.549   3.946   7.876 -0.3263  0.1016 -0.2251
   38POPC   C1B 1006   3.418   4.786   8.954 -0.0051 -0.3445  0.0621
   38POPC   C2B 1007   3.464   4.906   8.493  0.1667 -0.1038 -0.1752
   38POPC   C3B 1008   3.296   4.706   8.146 -0.1525 -0.0678 -0.0325
   38POPC   C4B 1009   3.246   4.704   7.658  0.6000  0.2226  0.0873
   39POPC   NC3 1010   3.714   4.151   9.584  0.0823  0.0817  0.2984
   39POPC   PO4 1011   4.016   3.873   9.412 -0.1698  0.0356  0.1621
   39POPC   GL1 1012   4.014   3.797   8.934  0.0010  0.1725 -0.0095
   39POPC   GL2 1013   3.751   3.655   8.758  0.1755 -0.0278  0.1266
   39POPC   C1A 1014   4.215   3.644   8.523 -0.1032 -0.1524 -0.2006
   39POPC   D2A 1015   4.352   3.589   8.200 -0.0555 -0.3621  0.1638
   39POPC   C3A 1016   4.242   3.669   7.832  0.0587  0.3443  0.3545
   39POPC   C4A 1017   4.330   3.761   7.403 -0.0617 -0.2416 -0.1989
   39POPC   C1B 1018   3.804   3.907   8.459  0.3031 -0.0949  0.0825
   39POPC   C2B 1019   4.030   4.022   8.101 -0.4109  0.1089 -0.0952
   39POPC   C3B 1020   4.104   4.155   7.700  0.1553  0.1176  0.0920
   39POPC   C4B 1021   4.190   4.189   7.155 -0.0596 -0.3764 -0.2187
   40POPC   NC3 1022   6.688   7.050   9.052 -0.0432  0.0028 -0.1678
   40POPC   PO4 1023   7.041   6.801   9.236 -0.1245  0.0181 -0.0333
   40POPC   GL1 1024   7.081   6.781   8.832 -0.0964 -0.2325  0.1957
   40POPC   GL2 1025   6.794   6.774   8.674 -0.1246  0.1485 -0.0052
   40POPC   C1A 1026   7.370   6.562   8.462  0.2579  0.2365 -0.1411
   40POPC   D2A 1027   7.533   6.475   8.005 -0.2342 -0.2071  0.0069
   40POPC   C3A 1028   7.701   6.854   7.691  0.0081  0.4763  0.1466
   40POPC   C4A 1029   7.501   6.834   7.367 -0.1106 -0.1322 -0.0030
   40POPC   C1B 1030   7.064   6.916   8.334 -0.0293  0.0802  0.1039
   40POPC   C2B 1031   7.278   6.981   7.917 -0.0595  0.0421  0.0799
   40POPC   C3B 1032   7.374   7.275   7.569  0.2074 -0.0122 -0.3073
   40POPC   C4B 1033   7.364   7.595   7.561  0.0361 -0.3386 -0.0077
   41POPC   NC3 1034   1.316   9.964   9.014  0.1485  0.0657 -0.0269
   41POPC   PO4 1035   0.968   9.745   9.019 -0.1237  0.0374 -0.0123
   41POPC   GL1 1036   1.107   9.519   8.664  0.1526  0.0099 -0.0201
   41POPC   GL2 1037   0.811   9.254   8.657  0.0186  0.0714 -0.0381
   41POPC   C1A 1038   1.199   9.010   8.563 -0.1340 -0.1535  0.1215
   41POPC   D2A 1039   1.155   8.598   8.418 -0.1866  0.1986  0.2927
   41POPC   C3A 1040   1.275   8.105   8.583  0.1841 -0.2464 -0.0889
   41POPC   C4A 1041   1.390   7.764   8.563  0.0078 -0.0178  0.1338
   41POPC   C1B 1042   1.057   9.249   8.178 -0.0627  0.0329  0.4067
   41POPC   C2B 1043   0.934   9.256   7.748 -0.5449  0.2352  0.1632
   41POPC   C3B 1044   0.890   9.205   7.325  0.2393 -0.2086 -0.3026
   41POPC   C4B 1045   0.749   9.221   6.951 -0.2347  0.0994 -0.0183
   42POPC   NC3 1046   0.128   9.272   9.402 -0.1998 -0.1546  0.0346
   42POPC   PO4 1047   0.122   9.318   8.997  0.2470  0.1270 -0.3459
   42POPC   GL1 1048   0.284   9.071   8.717  0.1812  0.0683  0.0104
   42POPC   GL2 1049   0.296   9.311   8.525 -0.0824  0.2137  0.1310
   42POPC   C1A 1050   0.255   8.711   8.509 -0.0097  0.3300 -0.1391
   42POPC   D2A 1051   0.263   8.607   7.990  0.1661  0.0131 -0.1708
   42POPC   C3A 1052  -0.003   8.906   7.748  0.0929  0.0291  0.1424
   42POPC   C4A 1053   0.096   9.026   7.375 -0.0557  0.1281 -0.2457
   42POPC   C1B 1054   0.585   9.509   8.219  0.0034  0.2455  0.1814
   42POPC   C2B 1055   0.870   9.701   7.961 -0.1452  0.1635  0.0885
   42POPC   C3B 1056   0.980   9.809   7.464 -0.3432  0.1823 -0.0131
   42POPC   C4B 1057   1.175   9.617   7.074 -0.1966 -0.1485 -0.0587
   43POPC   NC3 1058  10.034   7.101  10.631  0.1560 -0.3827  0.1281
   43POPC   PO4 1059  10.217   7.035  10.235 -0.0073 -0.2692 -0.2325
   43POPC   GL1 1060  10.200   7.257   9.869  0.2947 -0.3668  0.0202
   43POPC   GL2 1061   9.966   7.327   9.677  0.1320 -0.3481 -0.1588
   43POPC   C1A 1062  10.347   7.448   9.322  0.3434  0.0296 -0.1057
   43POPC   D2A 1063  10.749   7.537   9.120  0.0503  0.2561 -0.2320
   43POPC   C3A 1064  10.814   7.467   8.716 -0.1413  0.0550 -0.3879
   43POPC   C4A 1065  10.818   7.304   8.310  0.1240 -0.2444  0.0985
   43POPC   C1B 1066   9.901   7.193   9.277 -0.2432  0.0968 -0.1127
   43POPC   C2B 1067   9.884   6.940   8.952  0.0217 -0.1377  0.2052
   43POPC   C3B 1068   9.764   6.873   8.488  0.1322  0.0184  0.0540
   43POPC   C4B 1069   9.866   6.616   8.304  0.1177  0.1492  0.1326
   44POPC   NC3 1070   4.395   3.476   9.322 -0.0254 -0.0117 -0.0922
   44POPC   PO4 1071   4.847   3.685   9.458 -0.2136 -0.2787 -0.2790
   44POPC   GL1 1072   4.808   3.648   8.909 -0.2128  0.1556  0.0318
   44POPC   GL2 1073   4.543   3.811   8.895 -0.1717 -0.0962  0.2788
   44POPC   C1A 1074   4.750   3.681   8.442  0.0355  0.4309 -0.0555
   44POPC   D2A 1075   4.758   3.850   8.030 -0.1816 -0.0337  0.0438
   44POPC   C3A 1076   5.050   4.048   7.752  0.0931  0.2236  0.2880
   44POPC   C4A 1077   5.489   4.194   7.603  0.1222  0.0157 -0.0897
   44POPC   C1B 1078   4.362   4.126   8.845  0.0639 -0.0636  0.1483
   44POPC   C2B 1079   4.514   4.219   8.389 -0.1167 -0.4817  0.0672
   44POPC   C3B 1080   4.864   4.385   8.118  0.4575  0.2768 -0.1432
   44POPC   C4B 1081   4.842   4.706   7.879 -0.0062  0.1032 -0.0978
   45POPC   NC3 1082   9.335   3.072   8.969 -0.1050 -0.0552  0.1699
   45POPC   PO4 1083   9.682   3.044   8.722 -0.3036  0.0097 -0.1209
   45POPC   GL1 1084   9.695   3.139   8.320  0.0056  0.2171 -0.1380
   45POPC   GL2 1085   9.676   3.248   8.063  0.0225  0.1311  0.0397
   45POPC   C1A 1086  10.119   3.419   8.373 -0.4488  0.1329 -0.1166
   45POPC   D2A 1087  10.157   3.814   8.509 -0.3136 -0.4442 -0.1315
   45POPC   C3A 1088  10.409   3.967   8.794  0.1475  0.1998 -0.1919
   45POPC   C4A 1089  10.752   4.153   8.734  0.1424 -0.0389  0.1436
   45POPC   C1B 1090   9.704   2.743   8.022 -0.1476 -0.0740  0.0580
   45POPC   C2B 1091   9.785   2.462   7.766 -0.1703  0.0639  0.3461
   45POPC   C3B 1092  10.048   2.181   7.591  0.0527 -0.1920  0.0074
   45POPC   C4B 1093  10.392   2.099   7.397 -0.1959 -0.1810  0.0643
   46POPC   NC3 1094   3.529   8.429   9.102  0.0475 -0.1466 -0.1373
   46POPC   PO4 1095   3.293   8.802   9.145  0.0241  0.0771 -0.0931
   46POPC   GL1 1096   3.268   8.700   8.705 -0.0153  0.1692 -0.0433
   46POPC   GL2 1097   3.637   8.552   8.606 -0.1852 -0.2419 -0.0648
   46POPC   C1A 1098   3.186   8.738   8.223 -0.2298 -0.2508 -0.2330
   46POPC   D2A 1099   3.143   8.558   7.815  0.0375 -0.0473 -0.0590
   46POPC   C3A 1100   3.282   8.184   7.550 -0.0746 -0.1559  0.0087
   46POPC   C4A 1101   3.284   7.704   7.657 -0.1092 -0.0824  0.0792
   46POPC   C1B 1102   3.577   8.244   8.318  0.2204  0.0985 -0.1178
   46POPC   C2B 1103   3.616   8.189   7.993  0.1349  0.1424  0.1750
   46POPC   C3B 1104   3.820   8.170   7.647  0.1910  0.2067 -0.0691
   46POPC   C4B 1105   3.931   7.905   7.271 -0.1792 -0.3587 -0.1028
   47POPC   NC3 1106   7.074   1.059   9.192 -0.1746  0.1342 -0.1091
   47POPC   PO4 1107   6.841   0.616   8.997 -0.1372  0.1013  0.0078
   47POPC   GL1 1108   6.975   0.823   8.546 -0.2393 -0.0521  0.2019
   47POPC   GL2 1109   6.825   0.598   8.336 -0.0353 -0.2891  0.4068
   47POPC   C1A 1110   7.185   0.827   8.179 -0.2141 -0.1789 -0.1514
   47POPC   D2A 1111   7.197   0.783   7.791  0.1376  0.2652  0.3329
   47POPC   C3A 1112   7.070   0.439   7.633 -0.0802  0.2406 -0.2192
   47POPC   C4A 1113   6.806   0.495   7.274  0.1213  0.1821  0.3710
   47POPC   C1B 1114   6.784   0.350   8.052  0.1168 -0.1146 -0.2095
   47POPC   C2B 1115   6.512   0.364   7.671  0.1796  0.0676  0.2798
   47POPC   C3B 1116   6.289   0.106   7.317  0.1197 -0.1658  0.1865
   47POPC   C4B 1117   5.940  -0.239   7.082 -0.1585 -0.1270  0.0987
   48POPC   NC3 1118   5.930   1.933   8.994  0.3580  0.3019  0.1722
   48POPC   PO4 1119   6.306   2.006   8.786  0.0436 -0.0028  0.0719
   48POPC   GL1 1120   6.143   2.051   8.365  0.1234  0.2309  0.0281
   48POPC   GL2 1121   5.893   2.077   8.408  0.0920  0.0260 -0.1149
   48POPC   C1A 1122   6.284   2.069   7.955 -0.0457 -0.0381 -0.0890
   48POPC   D2A 1123   6.437   2.256   7.573  0.0696 -0.1669  0.0189
   48POPC   C3A 1124   6.613   2.065   7.279  0.1185 -0.2044  0.2438
   48POPC   C4A 1125   6.450   1.752   6.883  0.2110 -0.2005  0.2293
   48POPC   C1B 1126   5.770   2.265   8.040  0.1242 -0.0683  0.2139
   48POPC   C2B 1127   5.390   2.117   7.807 -0.0507  0.1131  0.0938
   48POPC   C3B 1128   5.431   1.955   7.406 -0.2154 -0.2225  0.1527
   48POPC   C4B 1129   5.834   1.806   7.125 -0.2621  0.1535  0.0350
   49POPC   NC3 1130   6.176  10.036   8.529  0.2564  0.0211 -0.1752
   49POPC   PO4 1131   6.365   9.519   8.739  0.0848  0.2107 -0.3563
   49POPC   GL1 1132   6.756   9.649   8.390  0.0204  0.0930  0.1002
   49POPC   GL2 1133   6.934   9.421   8.427  0.0739  0.2245 -0.1005
   49POPC   C1A 1134   6.890   9.681   7.963  0.0794 -0.0527 -0.2262
   49POPC   D2A 1135   6.901   9.409   7.524 -0.2724 -0.1441  0.1230
   49POPC   C3A 1136   6.765   9.442   7.092 -0.0628  0.1950 -0.2225
   49POPC   C4A 1137   6.732   9.458   6.665 -0.0679  0.0654 -0.0884
   49POPC   C1B 1138   6.895   9.085   8.023 -0.0605 -0.1580  0.2352
   49POPC   C2B 1139   6.856   8.871   7.707  0.1107 -0.1626  0.3365
   49POPC   C3B 1140   6.941   8.967   7.270 -0.1062  0.2143 -0.0065
   49POPC   C4B 1141   6.829   8.920   6.882 -0.1995 -0.0268  0.0720
   50POPC   NC3 1142   0.376  10.171   8.802  0.1491  0.0684 -0.0108
   50POPC   PO4 1143   0.266  10.642   8.970  0.0600  0.0515 -0.0291
   50POPC   GL1 1144   0.450  10.743   8.569 -0.0785  0.1611  0.1598
   50POPC   GL2 1145   0.790  10.469   8.504 -0.0442 -0.1332 -0.3190
   50POPC   C1A 1146   0.735  10.902   8.178  0.0622 -0.0849  0.0232
   50POPC   D2A 1147   0.729  10.708   7.725 -0.1303  0.1548 -0.3566
   50POPC   C3A 1148   0.401  10.581   7.517 -0.1035  0.1049 -0.0921
   50POPC   C4A 1149  -0.019  10.611   7.296  0.1191 -0.2990 -0.0247
   50POPC   C1B 1150   0.939  10.419   8.123 -0.0210 -0.1559  0.0229
   50POPC   C2B 1151   0.701  10.215   7.833  0.1559 -0.1825 -0.0782
   50POPC   C3B 1152   0.627  10.055   7.354  0.1665  0.0498  0.3059
   50POPC   C4B 1153   0.623  10.022   6.867  0.0227 -0.1670 -0.0489
   51POPC   NC3 1154   8.757   0.741   8.964 -0.2607 -0.0827  0.0763
   51POPC   PO4 1155   8.937   0.301   8.917  0.2587  0.1557 -0.3054
   51POPC   GL1 1156   8.786   0.473   8.488  0.1147 -0.0410 -0.2099
   51POPC   GL2 1157   8.534   0.282   8.283  0.1695  0.0127 -0.1462
   51POPC   C1A 1158   9.061   0.542   8.102  0.1727  0.0096 -0.0725
   51POPC   D2A 1159   9.062   0.535   7.656  0.2048  0.1458  0.0232
   51POPC   C3A 1160   8.803   0.651   7.315 -0.1120 -0.0321  0.2031
   51POPC   C4A 1161   8.796   0.392   6.991 -0.1020  0.0667  0.1274
   51POPC   C1B 1162   8.330   0.012   7.913  0.0933  0.1186  0.3766
   51POPC   C2B 1163   8.439  -0.295   7.720 -0.0976 -0.2701 -0.0457
   51POPC   C3B 1164   8.543  -0.476   7.340 -0.3539  0.2518  0.0318
   51POPC   C4B 1165   8.421  -0.844   7.065 -0.1173 -0.1679 -0.2553
   52POPC   NC3 1166   8.552   5.413   9.392  0.2313 -0.0860 -0.0004
   52POPC   PO4 1167   8.679   5.053   9.492  0.1081  0.1573 -0.2067
   52POPC   GL1 1168   8.433   4.930   9.130 -0.0036 -0.0097  0.0160
   52POPC   GL2 1169   8.110   5.136   8.985 -0.0468 -0.1742  0.2546
   52POPC   C1A 1170   8.651   4.812   8.667 -0.2276  0.1329 -0.3453
   52POPC   D2A 1171   8.745   4.805   8.223 -0.1175 -0.0681 -0.1448
   52POPC   C3A 1172   8.526   4.541   7.964  0.3608  0.0926  0.1544
   52POPC   C4A 1173   8.180   4.259   8.022  0.2852  0.0058 -0.1373
   52POPC   C1B 1174   7.787   5.006   8.706 -0.2311 -0.0056  0.0722
   52POPC   C2B 1175   7.788   5.079   8.178 -0.1154 -0.2675 -0.0019
   52POPC   C3B 1176   7.897   5.016   7.803  0.0890  0.2407 -0.0796
   52POPC   C4B 1177   7.958   5.115   7.399  0.2230 -0.0483  0.0901
   53POPC   NC3 1178   8.427   9.896   8.680  0.1068 -0.1209 -0.3683
   53POPC   PO4 1179   8.777  10.106   8.577 -0.3446  0.4570  0.0725
   53POPC   GL1 1180   9.038  10.282   8.266  0.1208  0.2090  0.2334
   53POPC   GL2 1181   8.865  10.256   7.946 -0.1273 -0.0164 -0.1722
   53POPC   C1A 1182   9.337  10.219   7.938 -0.1259  0.1191 -0.2101
   53POPC   D2A 1183   9.458  10.273   7.512  0.1411 -0.2885  0.2444
   53POPC   C3A 1184   9.233  10.521   7.216 -0.2896 -0.0638  0.2539
   53POPC   C4A 1185   9.344  10.650   6.774  0.2585 -0.1169  0.1257
   53POPC   C1B 1186   8.626  10.651   7.864 -0.1461  0.1018 -0.3734
   53POPC   C2B 1187   8.341  10.922   7.551  0.0103 -0.0818 -0.1670
   53POPC   C3B 1188   7.991  11.004   7.327  0.4992  0.1722  0.1315
   53POPC   C4B 1189   7.859  11.455   7.224  0.0693 -0.1822 -0.1447
   54POPC   NC3 1190   7.070   4.640   9.419  0.2308  0.2590  0.2789
   54POPC   PO4 1191   7.201   5.143   9.418 -0.1256  0.0119 -0.2252
   54POPC   GL1 1192   7.379   4.955   9.113 -0.1622  0.0268  0.1917
   54POPC   GL2 1193   7.797   4.812   9.227  0.0924 -0.1094  0.0964
   54POPC   C1A 1194   7.224   4.743   8.672  0.4342 -0.3771  0.0640
   54POPC   D2A 1195   7.298   4.748   8.272 -0.1682  0.1152  0.2143
   54POPC   C3A 1196   7.375   4.785   7.839  0.1946  0.1240 -0.1204
   54POPC   C4A 1197   7.505   4.833   7.402 -0.1701  0.2692  0.0349
   54POPC   C1B 1198   7.722   4.521   8.866  0.1373 -0.2953  0.0154
   54POPC   C2B 1199   7.747   4.605   8.423 -0.0606  0.1988 -0.0020
   54POPC   C3B 1200   7.803   4.556   7.955  0.0517  0.1837 -0.3141
   54POPC   C4B 1201   7.854   4.494   7.572 -0.0607  0.1520 -0.1684
   55POPC   NC3 1202   8.316   7.142  10.180 -0.0858 -0.2391  0.0556
   55POPC   PO4 1203   8.475   6.962   9.752  0.3629 -0.1495 -0.0858
   55POPC   GL1 1204   8.563   6.840   9.336 -0.2055  0.0961 -0.1500
   55POPC   GL2 1205   8.693   6.722   9.118 -0.0398  0.0534  0.1150
   55POPC   C1A 1206   8.357   7.133   9.011 -0.1533  0.0102 -0.0726
   55POPC   D2A 1207   7.928   7.364   9.005  0.0721  0.1248  0.0882
   55POPC   C3A 1208   7.797   7.544   8.576 -0.1500  0.0226 -0.0371
   55POPC   C4A 1209   8.123   7.700   8.237  0.0982 -0.1432 -0.2136
   55POPC   C1B 1210   8.887   7.273   8.955  0.0240 -0.4765 -0.0261
   55POPC   C2B 1211   9.232   7.602   8.877  0.0683  0.0963  0.1250
   55POPC   C3B 1212   9.406   7.769   8.518  0.0885  0.0507  0.0158
   55POPC   C4B 1213   9.684   8.066   8.237  0.0247  0.2485  0.2950
   56POPC   NC3 1214   0.030   7.766  10.116 -0.0404 -0.0228  0.0337
   56POPC   PO4 1215   0.405   7.503   9.929  0.0427  0.3367 -0.5170
   56POPC   GL1 1216   0.212   7.811   9.622  0.0475  0.1449 -0.0530
   56POPC   GL2 1217   0.542   7.953   9.554 -0.3010  0.3457 -0.1503
   56POPC   C1A 1218   0.232   7.927   9.140 -0.1097 -0.2153 -0.2536
   56POPC   D2A 1219  -0.122   8.042   8.870  0.0504 -0.0380  0.0554
   56POPC   C3A 1220  -0.210   7.773   8.458  0.2824 -0.0923 -0.0540
   56POPC   C4A 1221  -0.268   7.642   7.959  0.1018 -0.0426  0.1080
   56POPC   C1B 1222   0.936   7.800   9.300 -0.0925  0.0528 -0.0598
   56POPC   C2B 1223   1.154   7.412   9.128  0.1855 -0.1110  0.3231
   56POPC   C3B 1224   1.582   7.276   8.867 -0.2276  0.0786 -0.1067
   56POPC   C4B 1225   1.922   7.507   8.897  0.0767  0.1189  0.3286
   57POPC   NC3 1226   1.465   6.028  10.140  0.2102 -0.1662 -0.1924
   57POPC   PO4 1227   1.199   5.799   9.916  0.1911 -0.2076 -0.0587
   57POPC   GL1 1228   1.213   5.607   9.446  0.0536  0.1327  0.0225
   57POPC   GL2 1229   0.973   5.489   9.315 -0.3037 -0.1952 -0.3541
   57POPC   C1A 1230   0.943   5.846   9.037 -0.4266 -0.0019 -0.0509
   57POPC   D2A 1231   0.570   5.599   8.863 -0.1011 -0.0916  0.2135
   57POPC   C3A 1232   0.215   5.636   9.051 -0.1060 -0.1594  0.0019
   57POPC   C4A 1233  -0.080   5.914   9.207 -0.2964  0.3816  0.0305
   57POPC   C1B 1234   0.998   5.354   8.909 -0.3021 -0.1066 -0.1957
   57POPC   C2B 1235   1.303   5.203   8.660  0.1153  0.1791  0.1958
   57POPC   C3B 1236   1.539   4.972   8.460 -0.1311  0.1765  0.4415
   57POPC   C4B 1237   1.875   4.963   7.999  0.1835 -0.2814  0.0291
   58POPC   NC3 1238   6.396   6.043   9.013  0.1923  0.0243  0.0082
   58POPC   PO4 1239   6.753   5.993   9.056  0.1628  0.0848  0.0859
   58POPC   GL1 1240   6.716   5.894   8.618 -0.1912 -0.0307 -0.0118
   58POPC   GL2 1241   6.484   5.924   8.499  0.2634 -0.2744  0.1457
   58POPC   C1A 1242   6.929   5.984   8.248  0.0837  0.2561 -0.0418
   58POPC   D2A 1243   7.108   5.939   7.771  0.1107 -0.2685  0.2493
   58POPC   C3A 1244   6.965   6.144   7.484 -0.0055 -0.1106 -0.0619
   58POPC   C4A 1245   6.651   6.285   7.230  0.0959 -0.1513  0.2809
   58POPC   C1B 1246   6.354   5.530   8.370 -0.2329  0.1303  0.1048
   58POPC   C2B 1247   6.473   5.123   8.135 -0.3899  0.1067 -0.1733
   58POPC   C3B 1248   6.636   4.679   7.994  0.0138  0.1206  0.0347
   58POPC   C4B 1249   6.944   4.434   8.354 -0.0291  0.1323 -0.1207
   59POPC   NC3 1250   0.982   3.344   9.483 -0.3743 -0.1396 -0.0571
   59POPC   PO4 1251   1.042   2.892   9.338 -0.1845  0.2271 -0.0074
   59POPC   GL1 1252   0.847   2.984   8.951  0.1253  0.0914  0.2129
   59POPC   GL2 1253   0.547   3.006   8.791 -0.0474 -0.4506  0.2021
   59POPC   C1A 1254   0.849   2.900   8.479 -0.3149  0.0341  0.2445
   59POPC   D2A 1255   1.096   2.849   7.955 -0.2377  0.1202 -0.2209
   59POPC   C3A 1256   1.419   3.179   7.815  0.0432  0.0348  0.2258
   59POPC   C4A 1257   1.713   3.406   7.575 -0.0896  0.1667  0.1585
   59POPC   C1B 1258   0.371   3.117   8.327 -0.0403  0.3526  0.0366
   59POPC   C2B 1259   0.242   3.370   7.948  0.2156  0.0002  0.0515
   59POPC   C3B 1260   0.199   3.209   7.556  0.1931 -0.0529  0.0023
   59POPC   C4B 1261   0.532   3.070   7.386  0.0424  0.4996 -0.0686
   60POPC   NC3 1262   6.874   8.369   8.759  0.0368  0.2309  0.1633
   60POPC   PO4 1263   7.042   8.018   8.855 -0.1726 -0.0830  0.0527
   60POPC   GL1 1264   7.364   8.128   8.464 -0.2814  0.1319  0.1453
   60POPC   GL2 1265   7.397   8.386   8.368 -0.1741  0.0566  0.3931
   60POPC   C1A 1266   7.757   8.064   8.324  0.0677  0.0203  0.1626
   60POPC   D2A 1267   8.204   8.189   8.301  0.4098  0.0154  0.0305
   60POPC   C3A 1268   8.488   7.993   8.029  0.5201  0.0923 -0.3640
   60POPC   C4A 1269   8.540   7.582   8.009 -0.1355 -0.1078 -0.2763
   60POPC   C1B 1270   7.362   8.426   7.986 -0.3794  0.0771 -0.0557
   60POPC   C2B 1271   7.674   8.460   7.642 -0.0950  0.3028  0.1308
   60POPC   C3B 1272   8.085   8.648   7.529 -0.1906 -0.0127  0.2690
   60POPC   C4B 1273   8.199   8.863   7.145 -0.5714  0.2426  0.3620
   61POPC   NC3 1274   8.999   7.672   9.744 -0.0086  0.0808  0.1315
   61POPC   PO4 1275   9.018   7.217   9.846  0.0199 -0.0727 -0.1134
   61POPC   GL1 1276   9.082   6.939   9.409 -0.0131  0.0857 -0.3280
   61POPC   GL2 1277   9.191   6.672   9.399 -0.3271  0.2492  0.1879
   61POPC   C1A 1278   9.389   7.004   9.101  0.3521 -0.1553  0.0035
   61POPC   D2A 1279   9.326   7.099   8.698  0.1770  0.3814  0.2250
   61POPC   C3A 1280   9.302   6.815   8.342  0.0951  0.4377 -0.2159
   61POPC   C4A 1281   9.107   6.726   7.986  0.0776 -0.3847 -0.1751
   61POPC   C1B 1282   9.104   6.622   8.949  0.1201 -0.1023  0.3715
   61POPC   C2B 1283   8.989   6.500   8.506  0.0092 -0.2188 -0.0098
   61POPC   C3B 1284   8.672   6.564   8.157 -0.0702 -0.1569 -0.1913
   61POPC   C4B 1285   8.515   6.512   7.781 -0.0140  0.0231  0.1177
   62POPC   NC3 1286   6.739   1.897   9.060  0.0230  0.0282  0.4525
   62POPC   PO4 1287   6.964   1.476   8.984  0.1005  0.0896  0.0851
   62POPC   GL1 1288   6.786   1.437   8.534  0.2506 -0.3056  0.4750
   62POPC   GL2 1289   6.472   1.621   8.458  0.1117  0.0333 -0.1179
   62POPC   C1A 1290   6.831   1.197   8.116 -0.1062  0.2282 -0.0745
   62POPC   D2A 1291   6.732   0.872   7.743  0.2211  0.1961  0.0100
   62POPC   C3A 1292   6.535   0.958   7.340  0.1050  0.3951 -0.0253
   62POPC   C4A 1293   6.518   1.336   7.220  0.1176  0.1370 -0.1840
   62POPC   C1B 1294   6.112   1.623   8.122  0.1610 -0.1373  0.2085
   62POPC   C2B 1295   5.843   1.736   7.764 -0.2167 -0.0573 -0.1695
   62POPC   C3B 1296   5.509   1.474   7.422 -0.3919  0.1086 -0.1937
   62POPC   C4B 1297   5.290   1.048   7.404  0.0945  0.3546 -0.3823
   63POPC   NC3 1298   9.772   8.582   9.273 -0.0890 -0.1522  0.0846
   63POPC   PO4 1299   9.861   9.011   9.126 -0.0058 -0.1056 -0.0756
   63POPC   GL1 1300  10.041   8.931   8.784 -0.0656 -0.0956 -0.2315
   63POPC   GL2 1301   9.794   8.844   8.556 -0.1191  0.1886  0.0330
   63POPC   C1A 1302  10.119   9.030   8.302  0.2299 -0.1559  0.1293
   63POPC   D2A 1303  10.288   9.342   8.034 -0.1760  0.0838 -0.0937
   63POPC   C3A 1304  10.395   9.397   7.685 -0.1128 -0.1586 -0.0827
   63POPC   C4A 1305  10.737   9.551   7.457  0.2305 -0.0372 -0.0897
   63POPC   C1B 1306   9.663   9.103   8.222 -0.1679 -0.1484 -0.0205
   63POPC   C2B 1307   9.815   9.309   7.825 -0.0639 -0.0231 -0.1829
   63POPC   C3B 1308   9.794   9.259   7.403 -0.0879 -0.2335  0.0817
   63POPC   C4B 1309  10.026   9.372   6.988  0.0858 -0.1594 -0.3429
   64POPC   NC3 1310   8.198   4.154   9.397 -0.0619  0.0685  0.2379
   64POPC   PO4 1311   8.222   4.591   9.499  0.0283  0.1574 -0.1793
   64POPC   GL1 1312   8.224   4.513   9.044 -0.0455 -0.0147 -0.0190
   64POPC   GL2 1313   8.216   4.154   8.876  0.0147  0.2743  0.0589
   64POPC   C1A 1314   8.217   4.695   8.681  0.2814  0.0027  0.1144
   64POPC   D2A 1315   8.225   4.797   8.235 -0.2449  0.0859 -0.0427
   64POPC   C3A 1316   8.392   5.113   8.076 -0.0109  0.5027  0.4750
   64POPC   C4A 1317   8.289   5.344   7.745  0.2399  0.1557  0.1926
   64POPC   C1B 1318   7.921   4.070   8.483 -0.1521  0.0395  0.1347
   64POPC   C2B 1319   7.732   4.022   8.087  0.1333 -0.2998  0.0103
   64POPC   C3B 1320   7.352   4.264   8.079 -0.1532 -0.1449 -0.0294
   64POPC   C4B 1321   7.063   4.411   7.860 -0.2040  0.0826  0.1815
   65POPC   NC3 1322   2.903   8.509   9.907  0.0620  0.0622 -0.0732
   65POPC   PO4 1323   2.656   8.455   9.532  0.1772 -0.1458 -0.0759
   65POPC   GL1 1324   2.754   8.322   9.127  0.1213 -0.0592  0.0113
   65POPC   GL2 1325   3.045   8.280   9.058 -0.0809  0.1238 -0.0795
   65POPC   C1A 1326   2.708   8.250   8.593  0.0433  0.0732  0.2874
   65POPC   D2A 1327   2.704   8.400   8.148  0.2152  0.2339 -0.0095
   65POPC   C3A 1328   2.776   8.260   7.730  0.1135  0.1544 -0.0380
   65POPC   C4A 1329   2.591   7.872   7.593  0.0890  0.2649 -0.1758
   65POPC   C1B 1330   3.199   8.185   8.574  0.0789  0.0238  0.1649
   65POPC   C2B 1331   3.124   7.934   8.184  0.1158  0.2643  0.0818
   65POPC   C3B 1332   2.843   7.635   7.932  0.0592  0.3208  0.1517
   65POPC   C4B 1333   2.416   7.521   7.918  0.1905  0.1036 -0.1727
   66POPC   NC3 1334   3.826   3.328   9.147 -0.1240  0.0168  0.1111
   66POPC   PO4 1335   3.370   3.370   9.110  0.2695  0.3177  0.3169
   66POPC   GL1 1336   3.373   3.296   8.628 -0.2072 -0.0119 -0.4596
   66POPC   GL2 1337   3.626   3.342   8.444  0.1680 -0.1258  0.1158
   66POPC   C1A 1338   3.348   3.693   8.272 -0.0212  0.0532  0.0410
   66POPC   D2A 1339   3.139   4.127   8.220  0.0065 -0.0940  0.1388
   66POPC   C3A 1340   2.746   4.072   8.062 -0.0981 -0.1970  0.1906
   66POPC   C4A 1341   2.608   3.998   7.673  0.0750  0.0315  0.0985
   66POPC   C1B 1342   3.767   3.547   8.048 -0.0320  0.3950 -0.1542
   66POPC   C2B 1343   3.872   3.460   7.623  0.2654 -0.0671  0.0923
   66POPC   C3B 1344   3.899   3.665   7.262 -0.0554  0.0739  0.0338
   66POPC   C4B 1345   3.430   3.824   7.110 -0.0771 -0.0269 -0.4253
   67POPC   NC3 1346   1.607   4.276  10.594  0.1871 -0.2984 -0.0365
   67POPC   PO4 1347   1.466   4.561  10.348  0.1150  0.2470  0.3732
   67POPC   GL1 1348   1.479   4.468   9.953  0.0831  0.0431 -0.0486
   67POPC   GL2 1349   1.629   4.683   9.804  0.2046 -0.0758  0.1875
   67POPC   C1A 1350   1.195   4.329   9.564 -0.1564 -0.0991  0.1608
   67POPC   D2A 1351   1.388   4.353   9.190 -0.0357 -0.1164  0.0391
   67POPC   C3A 1352   1.563   4.130   8.889  0.1464 -0.0883  0.3326
   67POPC   C4A 1353   1.782   3.725   8.792 -0.1684 -0.0891 -0.0187
   67POPC   C1B 1354   1.730   4.848   9.409 -0.4662 -0.1216 -0.0740
   67POPC   C2B 1355   1.650   4.940   8.923 -0.0781  0.1828  0.0134
   67POPC   C3B 1356   1.881   5.266   8.824 -0.2646 -0.0268 -0.4428
   67POPC   C4B 1357   1.947   5.688   8.876  0.1146 -0.1048  0.3968
   68POPC   NC3 1358   5.118   5.497   9.668  0.0065  0.3703  0.1114
   68POPC   PO4 1359   4.787   5.316   9.367 -0.1250  0.1480 -0.1499
   68POPC   GL1 1360   4.711   5.197   8.931  0.1295 -0.0182 -0.1829
   68POPC   GL2 1361   5.037   5.086   8.811  0.2832  0.2479  0.0778
   68POPC   C1A 1362   4.465   4.934   8.753  0.2754  0.3338  0.1585
   68POPC   D2A 1363   3.972   4.941   8.576  0.0004  0.0098 -0.2843
   68POPC   C3A 1364   3.801   5.083   8.106  0.2166 -0.4090 -0.2212
   68POPC   C4A 1365   3.500   5.149   7.753  0.0728  0.2562  0.2386
   68POPC   C1B 1366   5.317   5.214   8.443 -0.0012  0.1430  0.2675
   68POPC   C2B 1367   5.496   5.208   8.006 -0.0761 -0.2661  0.2062
   68POPC   C3B 1368   5.593   5.086   7.625  0.0838 -0.0582  0.3159
   68POPC   C4B 1369   5.511   4.981   7.158  0.0540  0.2422 -0.1196
   69POPC   NC3 1370   9.391   8.863   9.091 -0.0353  0.4241 -0.0078
   69POPC   PO4 1371   9.285   8.586   9.307  0.0048 -0.0705 -0.2826
   69POPC   GL1 1372   9.446   8.270   8.965  0.1669 -0.0834 -0.2431
   69POPC   GL2 1373   9.241   8.082   9.125 -0.1191  0.1048 -0.3022
   69POPC   C1A 1374   9.691   8.337   8.644 -0.3970  0.1780 -0.1513
   69POPC   D2A 1375  10.063   8.398   8.554  0.2402 -0.0251  0.1898
   69POPC   C3A 1376  10.367   8.238   8.335 -0.0859 -0.1129 -0.0198
   69POPC   C4A 1377  10.416   7.841   8.115  0.1519  0.1500  0.1071
   69POPC   C1B 1378   9.019   8.071   8.670  0.1884  0.2367  0.1107
   69POPC   C2B 1379   9.223   8.311   8.375  0.0675  0.0747  0.0454
   69POPC   C3B 1380   9.539   8.547   8.179  0.3895 -0.0065  0.0449
   69POPC   C4B 1381   9.980   8.602   8.075 -0.3374  0.2694  0.0615
   70POPC   NC3 1382   7.849   3.957   9.144 -0.1223 -0.2006 -0.0695
   70POPC   PO4 1383   8.202   3.722   9.085 -0.2694 -0.2196  0.0038
   70POPC   GL1 1384   8.045   3.603   8.706  0.0516 -0.1095  0.1461
   70POPC   GL2 1385   8.345   3.518   8.542 -0.1247 -0.2156  0.1790
   70POPC   C1A 1386   7.878   3.594   8.315  0.5189 -0.0645  0.2888
   70POPC   D2A 1387   8.058   3.760   7.901 -0.0157 -0.1170 -0.2813
   70POPC   C3A 1388   7.963   4.037   7.654 -0.0608  0.1855  0.0178
   70POPC   C4A 1389   7.895   4.113   7.217 -0.1809  0.0912  0.1691
   70POPC   C1B 1390   8.336   3.854   8.335  0.4214 -0.4815  0.4055
   70POPC   C2B 1391   8.601   3.970   8.027 -0.1267  0.2088  0.1443
   70POPC   C3B 1392   8.785   4.186   7.709  0.2076  0.1521  0.0343
   70POPC   C4B 1393   9.143   4.343   7.557  0.2429  0.3301 -0.1646
   71POPC   NC3 1394   1.496   7.867   9.975  0.2475  0.1818 -0.3875
   71POPC   PO4 1395   1.671   8.304   9.852  0.2792  0.0066 -0.0494
   71POPC   GL1 1396   1.651   8.092   9.419 -0.1225  0.1715  0.1437
   71POPC   GL2 1397   1.383   7.965   9.474 -0.1086 -0.0086  0.0602
   71POPC   C1A 1398   1.985   7.901   9.159  0.1758  0.0785 -0.0001
   71POPC   D2A 1399   2.273   7.906   8.772 -0.1408  0.0066 -0.0482
   71POPC   C3A 1400   2.676   7.824   8.832  0.2515  0.0656 -0.1039
   71POPC   C4A 1401   3.212   7.765   8.849  0.1825  0.0822  0.0206
   71POPC   C1B 1402   1.283   7.998   9.089 -0.1536 -0.2589 -0.2089
   71POPC   C2B 1403   0.972   7.816   8.797  0.1283  0.0241  0.2010
   71POPC   C3B 1404   0.712   7.839   8.419  0.0106 -0.1196 -0.5354
   71POPC   C4B 1405   0.678   7.856   7.972  0.5039 -0.0337 -0.2189
   72POPC   NC3 1406   1.251   0.273   8.707 -0.0218 -0.3422 -0.0157
   72POPC   PO4 1407   1.726  -0.024   8.757  0.2799  0.1971  0.1042
   72POPC   GL1 1408   1.694  -0.131   8.376 -0.0359 -0.0054  0.2079
   72POPC   GL2 1409   1.532   0.104   8.229 -0.0980 -0.2300  0.2782
   72POPC   C1A 1410   1.790  -0.481   8.103  0.1414 -0.1035  0.0942
   72POPC   D2A 1411   1.817  -0.726   7.790 -0.2428  0.0045 -0.2055
   72POPC   C3A 1412   2.056  -0.497   7.547  0.0618 -0.2157  0.0126
   72POPC   C4A 1413   2.290  -0.539   7.185 -0.1739 -0.0207  0.2963
   72POPC   C1B 1414   1.230   0.057   7.782 -0.1065 -0.1116 -0.1688
   72POPC   C2B 1415   1.106   0.101   7.358  0.1388 -0.5086  0.0022
   72POPC   C3B 1416   0.860   0.284   6.994  0.0858  0.1227  0.0847
   72POPC   C4B 1417   0.442   0.489   6.893 -0.1322  0.0047  0.2497
   73POPC   NC3 1418   9.302   6.937  10.245 -0.0802  0.1036 -0.1644
   73POPC   PO4 1419   9.449   6.684   9.946  0.0179 -0.1642  0.1052
   73POPC   GL1 1420   9.677   6.444   9.632 -0.1932 -0.0622  0.1958
   73POPC   GL2 1421   9.703   6.683   9.381  0.2831  0.2721 -0.1296
   73POPC   C1A 1422   9.775   6.172   9.402 -0.1093  0.1491  0.0400
   73POPC   D2A 1423   9.362   5.978   9.400  0.0173  0.0555 -0.0491
   73POPC   C3A 1424   9.209   6.168   9.140  0.1204  0.0949  0.0362
   73POPC   C4A 1425   9.136   6.084   8.749 -0.1908  0.0071 -0.1250
   73POPC   C1B 1426   9.566   6.512   8.990  0.1269 -0.2575 -0.1455
   73POPC   C2B 1427   9.498   6.384   8.627  0.2515  0.2477  0.0860
   73POPC   C3B 1428   9.418   6.045   8.315 -0.0175  0.3983  0.0721
   73POPC   C4B 1429   9.538   5.571   8.071 -0.0554  0.1417 -0.1481
   74POPC   NC3 1430   6.900   2.333   8.833 -0.2714  0.1688 -0.1594
   74POPC   PO4 1431   7.329   2.303   8.847  0.0739  0.0979 -0.1600
   74POPC   GL1 1432   7.176   2.373   8.328  0.3767 -0.2178 -0.2717
   74POPC   GL2 1433   7.420   2.219   8.091  0.4027  0.2339  0.2320
   74POPC   C1A 1434   7.121   2.663   8.020 -0.0486 -0.1229 -0.0452
   74POPC   D2A 1435   6.774   2.697   7.605  0.1971 -0.1168 -0.1664
   74POPC   C3A 1436   6.947   2.876   7.261  0.2152 -0.2888 -0.0857
   74POPC   C4A 1437   7.081   3.098   6.853  0.0719  0.0940  0.5273
   74POPC   C1B 1438   6.983   1.936   8.217 -0.2197  0.0768 -0.0070
   74POPC   C2B 1439   6.693   1.673   7.979 -0.1515  0.2925  0.3490
   74POPC   C3B 1440   6.595   1.654   7.561  0.0010 -0.0616  0.1049
   74POPC   C4B 1441   6.257   1.763   7.306 -0.1280  0.1254  0.2963
   75POPC   NC3 1442   3.991   9.855   8.697  0.1045  0.0707  0.2756
   75POPC   PO4 1443   3.621  10.188   8.724  0.0584 -0.1678  0.1191
   75POPC   GL1 1444   3.385  10.439   8.444 -0.0452  0.0210 -0.4291
   75POPC   GL2 1445   3.479  10.731   8.256 -0.4206 -0.1781 -0.2333
   75POPC   C1A 1446   2.970  10.700   8.175 -0.1781 -0.1326 -0.1955
   75POPC   D2A 1447   2.850  10.839   7.742  0.0313  0.0738  0.4008
   75POPC   C3A 1448   2.668  11.129   7.410  0.0463 -0.2442 -0.8761
   75POPC   C4A 1449   2.408  11.246   7.044  0.1801  0.1325 -0.2280
   75POPC   C1B 1450   3.376  10.513   7.873  0.0625 -0.3089  0.4208
   75POPC   C2B 1451   3.166  10.568   7.454  0.0878  0.2236 -0.0799
   75POPC   C3B 1452   3.000  10.793   7.214 -0.3169  0.0031  0.2330
   75POPC   C4B 1453   2.861  11.068   6.884 -0.0726  0.0711  0.2113
   76POPC   NC3 1454   3.954   7.309   9.281  0.0363 -0.1192 -0.0557
   76POPC   PO4 1455   4.327   7.114   9.200  0.0848 -0.0380 -0.0726
   76POPC   GL1 1456   4.371   7.072   8.752  0.0462 -0.1296 -0.1167
   76POPC   GL2 1457   4.390   7.348   8.474 -0.1567 -0.0330 -0.1377
   76POPC   C1A 1458   4.209   6.834   8.354  0.0161  0.0374  0.0737
   76POPC   D2A 1459   4.187   6.501   7.912  0.2071 -0.2290 -0.1284
   76POPC   C3A 1460   3.950   6.638   7.497  0.1182  0.1216 -0.2401
   76POPC   C4A 1461   3.891   6.977   7.373  0.2207 -0.1971  0.2120
   76POPC   C1B 1462   4.545   7.419   8.074  0.3519 -0.2718  0.1688
   76POPC   C2B 1463   4.548   7.501   7.641 -0.0513  0.0177  0.1608
   76POPC   C3B 1464   4.500   7.681   7.214 -0.1052  0.4263  0.1464
   76POPC   C4B 1465   4.173   7.665   6.808 -0.1235  0.1866 -0.1002
   77POPC   NC3 1466   8.843   3.441   9.367 -0.2929 -0.1795  0.0468
   77POPC   PO4 1467   9.018   3.531   8.891 -0.2275 -0.3435  0.0710
   77POPC   GL1 1468   9.264   3.303   8.516 -0.1255  0.0498  0.1391
   77POPC   GL2 1469   9.252   3.021   8.455  0.5947  0.1848 -0.1806
   77POPC   C1A 1470   9.149   3.252   8.068  0.1163  0.0984  0.1435
   77POPC   D2A 1471   8.987   3.181   7.702 -0.0699  0.0268 -0.1835
   77POPC   C3A 1472   9.152   2.871   7.231 -0.0065 -0.2799 -0.3666
   77POPC   C4A 1473   8.977   2.719   6.766  0.0336  0.3278 -0.3061
   77POPC   C1B 1474   9.194   2.708   8.064  0.4727 -0.2829 -0.0823
   77POPC   C2B 1475   9.319   2.697   7.707  0.0306  0.2930 -0.1355
   77POPC   C3B 1476   9.645   2.972   7.565  0.1589 -0.1313 -0.4619
   77POPC   C4B 1477   9.883   3.233   7.345  0.0703  0.1053  0.0442
   78POPC   NC3 1478   5.342   7.920   8.998  0.0236  0.1111 -0.0540
   78POPC   PO4 1479   5.384   8.370   8.928  0.1317  0.0054 -0.0946
   78POPC   GL1 1480   5.525   8.211   8.539 -0.0756  0.0633  0.1381
   78POPC   GL2 1481   5.613   7.967   8.580 -0.0142 -0.2488 -0.0299
   78POPC   C1A 1482   5.233   8.177   8.184  0.0216  0.1006 -0.2699
   78POPC   D2A 1483   5.219   8.259   7.821  0.0281  0.0804  0.1958
   78POPC   C3A 1484   5.310   7.979   7.375 -0.2380 -0.2175 -0.0609
   78POPC   C4A 1485   5.369   8.025   6.943  0.1643 -0.1841  0.1407
   78POPC   C1B 1486   5.488   7.770   8.203  0.3815  0.0897 -0.4738
   78POPC   C2B 1487   5.153   7.715   7.816 -0.2002 -0.0546  0.0936
   78POPC   C3B 1488   5.035   7.526   7.478 -0.0149  0.1314  0.2432
   78POPC   C4B 1489   4.824   7.299   7.143 -0.1815  0.4077 -0.2457
   79POPC   NC3 1490   3.984   7.854   9.839 -0.3018  0.0973 -0.1414
   79POPC   PO4 1491   3.636   7.632   9.611 -0.1234  0.0558  0.2878
   79POPC   GL1 1492   3.488   7.422   9.184 -0.2483  0.0196  0.1983
   79POPC   GL2 1493   3.695   7.512   8.922 -0.1419 -0.0178  0.0471
   79POPC   C1A 1494   3.393   7.109   8.997  0.2317  0.0451 -0.0120
   79POPC   D2A 1495   3.183   7.058   8.647  0.2340 -0.0188 -0.0589
   79POPC   C3A 1496   3.406   7.024   8.235 -0.0254  0.1130  0.1801
   79POPC   C4A 1497   3.418   6.854   7.778  0.3518  0.1267 -0.0864
   79POPC   C1B 1498   3.407   7.464   8.526 -0.0426  0.2783 -0.1594
   79POPC   C2B 1499   3.171   7.475   8.255  0.1731  0.1104 -0.3166
   79POPC   C3B 1500   3.081   7.190   7.879 -0.1505  0.1246 -0.1855
   79POPC   C4B 1501   2.976   6.911   7.569  0.3947  0.0451 -0.4180
   80POPC   NC3 1502   8.686   4.939   9.957  0.2566  0.1183 -0.1447
   80POPC   PO4 1503   8.923   5.282   9.885 -0.5451 -0.1874  0.0268
   80POPC   GL1 1504   9.051   5.344   9.499 -0.3886  0.0467  0.0348
   80POPC   GL2 1505   9.013   5.597   9.436 -0.0487  0.3838 -0.2915
   80POPC   C1A 1506   9.294   5.085   9.145  0.5536 -0.0879 -0.1529
   80POPC   D2A 1507   9.392   5.268   8.718 -0.1457 -0.0377  0.3030
   80POPC   C3A 1508   9.446   5.159   8.318 -0.0926  0.2033 -0.5925
   80POPC   C4A 1509   9.128   5.298   8.060 -0.0487 -0.2601  0.1506
   80POPC   C1B 1510   9.171   5.631   9.008  0.0151  0.1395 -0.1146
   80POPC   C2B 1511   9.120   5.648   8.502 -0.0725  0.0903  0.0115
   80POPC   C3B 1512   8.992   5.878   8.096 -0.0317 -0.3322  0.0732
   80POPC   C4B 1513   8.950   6.157   7.762 -0.0885 -0.0184 -0.0717
   81POPC   NC3 1514   5.809   4.728   9.756 -0.0199  0.0194 -0.0554
   81POPC   PO4 1515   5.530   5.022   9.694  0.1011 -0.0841  0.2501
   81POPC   GL1 1516   5.665   4.878   9.258  0.1049  0.1048 -0.0169
   81POPC   GL2 1517   6.011   4.718   9.251  0.0594 -0.2323  0.0835
   81POPC   C1A 1518   5.537   4.890   8.782  0.2165  0.0869 -0.0409
   81POPC   D2A 1519   5.377   4.604   8.511  0.2439  0.1038 -0.1234
   81POPC   C3A 1520   5.128   4.750   8.299  0.1185 -0.0103  0.1472
   81POPC   C4A 1521   4.875   5.071   8.279 -0.2291  0.1320  0.4314
   81POPC   C1B 1522   6.123   4.825   8.858 -0.0611 -0.1380  0.0130
   81POPC   C2B 1523   6.449   5.084   8.730  0.0077  0.1076  0.0284
   81POPC   C3B 1524   6.817   4.982   8.482  0.0800 -0.0067  0.0944
   81POPC   C4B 1525   6.979   5.016   8.020 -0.4534  0.1377 -0.1064
   82POPC   NC3 1526   7.328   2.793   9.096  0.0136 -0.0634 -0.2418
   82POPC   PO4 1527   6.949   2.849   8.915  0.2068 -0.1003  0.0860
   82POPC   GL1 1528   6.679   2.844   8.557 -0.2011  0.1339  0.0878
   82POPC   GL2 1529   6.479   2.530   8.555 -0.1353 -0.0286  0.2831
   82POPC   C1A 1530   6.610   2.844   8.143 -0.3518  0.4869 -0.0409
   82POPC   D2A 1531   6.241   3.075   7.876 -0.1906  0.2321  0.1507
   82POPC   C3A 1532   5.813   2.967   7.974  0.2799 -0.1078  0.1425
   82POPC   C4A 1533   5.467   3.089   8.232  0.2082 -0.0118  0.0023
   82POPC   C1B 1534   6.720   2.339   8.198  0.4569  0.4203  0.1532
   82POPC   C2B 1535   6.980   2.254   7.799 -0.1095  0.0524  0.2253
   82POPC   C3B 1536   7.269   1.830   7.764  0.1186  0.0936  0.0182
   82POPC   C4B 1537   7.459   1.549   7.459 -0.0228  0.0781  0.4867
   83POPC   NC3 1538   5.068   1.380   8.930  0.1795 -0.1766 -0.0411
   83POPC   PO4 1539   4.667   1.351   9.157 -0.0816  0.0419 -0.3008
   83POPC   GL1 1540   4.581   1.597   8.830  0.0578 -0.0754 -0.0220
   83POPC   GL2 1541   4.647   1.311   8.602  0.1125  0.1155 -0.1783
   83POPC   C1A 1542   4.425   1.734   8.461 -0.4164  0.0633  0.3719
   83POPC   D2A 1543   4.239   2.151   8.167  0.0326 -0.0370  0.0173
   83POPC   C3A 1544   4.127   2.568   8.314  0.3255  0.1402 -0.3506
   83POPC   C4A 1545   3.698   2.765   8.356  0.0082  0.1196 -0.1948
   83POPC   C1B 1546   4.521   1.050   8.213  0.1235  0.0394  0.0707
   83POPC   C2B 1547   4.767   1.055   7.881  0.1496 -0.3350  0.0711
   83POPC   C3B 1548   4.740   0.998   7.409 -0.1248 -0.1730 -0.2856
   83POPC   C4B 1549   4.545   1.073   7.064  0.3077 -0.0139  0.1541
   84POPC   NC3 1550   3.356   0.827   9.137  0.0600 -0.1131 -0.0985
   84POPC   PO4 1551   2.917   0.861   8.964  0.0302  0.0423 -0.3610
   84POPC   GL1 1552   2.833   1.016   8.534 -0.1285  0.3537 -0.2208
   84POPC   GL2 1553   2.692   1.357   8.545  0.0120 -0.0361 -0.2827
   84POPC   C1A 1554   2.663   0.921   8.182  0.0944 -0.2340  0.0845
   84POPC   D2A 1555   2.396   0.678   7.998  0.2944 -0.0362  0.0121
   84POPC   C3A 1556   2.587   0.245   7.931  0.0744  0.4118 -0.0158
   84POPC   C4A 1557   2.989  -0.019   7.756 -0.2858 -0.1068  0.0094
   84POPC   C1B 1558   2.659   1.480   8.156 -0.0475  0.2391  0.1264
   84POPC   C2B 1559   2.825   1.796   7.882 -0.0621  0.2397 -0.0265
   84POPC   C3B 1560   3.001   1.759   7.569 -0.0248  0.0433  0.1703
   84POPC   C4B 1561   3.027   1.933   7.136  0.0901  0.0192  0.2076
   85POPC   NC3 1562   2.137   8.400   9.557  0.0147  0.3160 -0.1657
   85POPC   PO4 1563   2.257   8.489   9.087 -0.4497 -0.1793 -0.1073
   85POPC   GL1 1564   2.338   8.558   8.687 -0.2424 -0.5861 -0.0320
   85POPC   GL2 1565   2.718   8.772   8.552 -0.1844 -0.1416  0.1580
   85POPC   C1A 1566   1.906   8.499   8.523  0.3057 -0.3614  0.0139
   85POPC   D2A 1567   1.594   8.342   8.288 -0.0246  0.4364 -0.0246
   85POPC   C3A 1568   1.515   7.970   8.095  0.1702  0.2944 -0.1505
   85POPC   C4A 1569   1.478   7.755   7.818 -0.2474 -0.3000  0.0030
   85POPC   C1B 1570   2.732   8.910   8.136 -0.0322 -0.0060  0.1729
   85POPC   C2B 1571   2.618   8.782   7.786 -0.2235 -0.0250 -0.1847
   85POPC   C3B 1572   2.576   8.514   7.379 -0.1017 -0.2005  0.1746
   85POPC   C4B 1573   2.674   8.242   7.039  0.0005 -0.0642  0.1763
   86POPC   NC3 1574   2.575   4.946   9.979  0.0290  0.2559 -0.1115
   86POPC   PO4 1575   2.990   4.761   9.809  0.1193  0.2211  0.1970
   86POPC   GL1 1576   2.857   4.529   9.413 -0.1349  0.1924 -0.1374
   86POPC   GL2 1577   2.684   4.286   9.506 -0.0161 -0.0989  0.0667
   86POPC   C1A 1578   2.719   4.821   9.019 -0.1627  0.1436  0.0716
   86POPC   D2A 1579   3.051   5.173   8.963 -0.1288 -0.0423  0.0776
   86POPC   C3A 1580   2.811   5.441   8.740 -0.1697 -0.3609 -0.4336
   86POPC   C4A 1581   2.377   5.518   8.632  0.1818  0.1784 -0.0301
   86POPC   C1B 1582   2.453   4.351   9.090  0.0238 -0.2329 -0.2557
   86POPC   C2B 1583   2.463   4.640   8.651  0.1588 -0.0905 -0.2204
   86POPC   C3B 1584   2.716   4.568   8.280  0.0905 -0.0713  0.1868
   86POPC   C4B 1585   2.833   4.482   7.851 -0.0741 -0.1237 -0.1396
   87POPC   NC3 1586   8.166   8.192   9.274  0.2627  0.0170 -0.2842
   87POPC   PO4 1587   8.601   8.332   9.256 -0.1683  0.1948  0.2095
   87POPC   GL1 1588   8.577   8.341   8.793 -0.1796 -0.0278  0.3435
   87POPC   GL2 1589   8.379   8.008   8.794 -0.0685  0.0442 -0.0260
   87POPC   C1A 1590   8.713   8.301   8.370  0.3071 -0.3309 -0.1057
   87POPC   D2A 1591   8.883   8.465   8.026 -0.2101 -0.0300 -0.1496
   87POPC   C3A 1592   8.943   8.187   7.733  0.0035 -0.0618  0.2602
   87POPC   C4A 1593   8.679   7.870   7.534 -0.0253 -0.1734 -0.0046
   87POPC   C1B 1594   8.684   7.817   8.409  0.0514 -0.0168 -0.4037
   87POPC   C2B 1595   9.045   7.816   8.123  0.3031  0.0336 -0.2909
   87POPC   C3B 1596   9.390   8.077   7.895  0.2148  0.1284  0.0373
   87POPC   C4B 1597   9.647   8.406   7.704  0.0778  0.2036 -0.0565
   88POPC   NC3 1598   6.679   5.513   9.241 -0.2413 -0.0530  0.1232
   88POPC   PO4 1599   6.757   5.020   9.427  0.1977  0.3323  0.1409
   88POPC   GL1 1600   6.543   4.695   9.178  0.1105 -0.1192 -0.0962
   88POPC   GL2 1601   6.719   4.527   8.935 -0.1461 -0.3277 -0.2212
   88POPC   C1A 1602   6.286   4.386   8.999  0.0104 -0.2954 -0.3745
   88POPC   D2A 1603   6.171   3.953   8.855 -0.2258  0.0207  0.1933
   88POPC   C3A 1604   5.780   3.899   8.611 -0.0489 -0.1764 -0.0288
   88POPC   C4A 1605   5.578   3.838   8.303 -0.2506  0.1261 -0.0717
   88POPC   C1B 1606   6.431   4.596   8.570 -0.0340 -0.0608 -0.1200
   88POPC   C2B 1607   6.166   4.755   8.273  0.2685  0.3974  0.1195
   88POPC   C3B 1608   5.744   4.791   8.144  0.1139 -0.2879 -0.3390
   88POPC   C4B 1609   5.350   4.729   7.834 -0.2861  0.1379 -0.0820
   89POPC   NC3 1610   7.951   2.599   8.520  0.3583 -0.2382 -0.2070
   89POPC   PO4 1611   7.726   2.331   8.487  0.2312  0.0075  0.1757
   89POPC   GL1 1612   7.935   2.270   8.050 -0.0397 -0.0127  0.3231
   89POPC   GL2 1613   7.922   2.509   8.015 -0.0102 -0.0389  0.3082
   89POPC   C1A 1614   8.130   1.968   7.821 -0.1590  0.1129  0.2250
   89POPC   D2A 1615   8.244   2.071   7.433 -0.1050  0.0830 -0.1098
   89POPC   C3A 1616   8.289   2.531   7.465 -0.1279 -0.1188  0.0731
   89POPC   C4A 1617   8.208   2.868   7.714  0.1040  0.1639  0.0873
   89POPC   C1B 1618   7.579   2.643   7.833  0.1555  0.0238 -0.1635
   89POPC   C2B 1619   7.286   2.555   7.496 -0.0330 -0.3090 -0.1884
   89POPC   C3B 1620   7.006   2.432   7.114 -0.1005 -0.0096 -0.1724
   89POPC   C4B 1621   6.817   2.728   6.729 -0.5052  0.4741 -0.1368
   90POPC   NC3 1622   4.779   7.314   8.813 -0.1379  0.1430 -0.4507
   90POPC   PO4 1623   5.235   7.382   9.055 -0.0804  0.0587  0.2131
   90POPC   GL1 1624   5.369   7.406   8.663  0.0012  0.2229 -0.0841
   90POPC   GL2 1625   5.128   7.451   8.405 -0.2265  0.1230 -0.0197
   90POPC   C1A 1626   5.591   7.284   8.272 -0.0310 -0.2280  0.0156
   90POPC   D2A 1627   5.843   7.086   8.134 -0.1295  0.2098 -0.3166
   90POPC   C3A 1628   5.718   6.685   7.985  0.1955  0.0671 -0.1763
   90POPC   C4A 1629   5.735   6.515   7.516  0.1665  0.1962 -0.1398
   90POPC   C1B 1630   4.989   7.335   7.980  0.1859 -0.3729 -0.1358
   90POPC   C2B 1631   4.835   7.042   7.680  0.1365  0.2431  0.1208
   90POPC   C3B 1632   4.866   6.614   7.541 -0.1804 -0.2857  0.0267
   90POPC   C4B 1633   5.246   6.399   7.750  0.1056 -0.1498  0.0835
   91POPC   NC3 1634   7.432   7.701   9.096 -0.1663  0.0092 -0.1365
   91POPC   PO4 1635   7.619   7.356   9.416  0.1550  0.2625 -0.1734
   91POPC   GL1 1636   7.495   7.058   9.054 -0.1348 -0.2144  0.0868
   91POPC   GL2 1637   7.676   6.745   8.932 -0.1291 -0.3173  0.0763
   91POPC   C1A 1638   7.521   7.047   8.567  0.1443  0.2225  0.0731
   91POPC   D2A 1639   7.808   6.920   8.211 -0.1389 -0.0437 -0.2424
   91POPC   C3A 1640   8.232   7.112   8.336 -0.0954 -0.1370  0.0417
   91POPC   C4A 1641   8.508   7.384   8.575 -0.3147  0.0559 -0.1843
   91POPC   C1B 1642   7.991   6.937   8.719 -0.1660 -0.0698  0.0610
   91POPC   C2B 1643   8.504   6.804   8.639 -0.2836  0.1769 -0.1321
   91POPC   C3B 1644   8.866   7.028   8.445  0.0067 -0.1068  0.3335
   91POPC   C4B 1645   8.995   7.462   8.438  0.3568 -0.2274 -0.1955
   92POPC   NC3 1646   3.823   1.565   8.924  0.0498 -0.1361 -0.3276
   92POPC   PO4 1647   4.138   1.290   8.798 -0.3300 -0.6613  0.0535
   92POPC   GL1 1648   4.058   1.185   8.369  0.1760 -0.0057  0.1156
   92POPC   GL2 1649   3.854   0.913   8.239  0.0979 -0.0120 -0.0431
   92POPC   C1A 1650   3.757   1.360   8.013  0.2464  0.1335  0.0554
   92POPC   D2A 1651   3.528   1.289   7.642 -0.1172  0.2368 -0.1973
   92POPC   C3A 1652   3.004   1.228   7.648  0.1268 -0.3182  0.0527
   92POPC   C4A 1653   2.520   1.375   7.648 -0.0362 -0.1961 -0.1093
   92POPC   C1B 1654   3.796   0.674   7.893  0.1156  0.1985  0.0295
   92POPC   C2B 1655   3.725   0.349   7.494  0.1517  0.1158 -0.1001
   92POPC   C3B 1656   3.815   0.065   7.059 -0.3204  0.1449 -0.1948
   92POPC   C4B 1657   3.766   0.154   6.612 -0.0480 -0.1143  0.2187
   93POPC   NC3 1658   7.085   7.311   9.509 -0.0366 -0.2738 -0.0972
   93POPC   PO4 1659   7.058   7.373   8.966  0.0937 -0.3744 -0.2547
   93POPC   GL1 1660   7.178   7.588   8.568  0.2359 -0.0196  0.1615
   93POPC   GL2 1661   7.016   7.685   8.403  0.1378  0.0759  0.2308
   93POPC   C1A 1662   7.364   7.462   8.092 -0.0541  0.4666 -0.1893
   93POPC   D2A 1663   7.770   7.405   7.857  0.1863  0.1463  0.3661
   93POPC   C3A 1664   7.811   7.475   7.367 -0.2459  0.0732  0.3001
   93POPC   C4A 1665   8.174   7.645   7.132  0.2090 -0.0628  0.1107
   93POPC   C1B 1666   6.894   7.584   7.972 -0.1845  0.2122 -0.2319
   93POPC   C2B 1667   6.749   7.411   7.552 -0.2381  0.2616  0.0651
   93POPC   C3B 1668   6.408   7.100   7.343 -0.0447  0.0733  0.0185
   93POPC   C4B 1669   6.279   6.663   7.188 -0.3435 -0.2931 -0.1747
   94POPC   NC3 1670   7.443   6.097   9.433  0.1655 -0.0699 -0.4286
   94POPC   PO4 1671   7.124   5.780   9.469  0.0839  0.0954  0.1409
   94POPC   GL1 1672   7.285   5.682   9.102 -0.1530  0.0207 -0.1887
   94POPC   GL2 1673   7.193   5.858   8.914  0.0912 -0.1149  0.0203
   94POPC   C1A 1674   7.401   5.304   8.774  0.3000 -0.0049  0.2335
   94POPC   D2A 1675   7.333   5.326   8.387 -0.0995 -0.0368  0.1139
   94POPC   C3A 1676   7.030   5.415   8.326  0.2821 -0.0346 -0.0658
   94POPC   C4A 1677   6.809   5.474   7.933 -0.3850 -0.0791  0.0445
   94POPC   C1B 1678   7.344   5.958   8.504  0.2748 -0.1444  0.0973
   94POPC   C2B 1679   7.501   5.919   8.124 -0.0043  0.1857  0.0271
   94POPC   C3B 1680   7.611   6.019   7.738  0.0347  0.1392 -0.0051
   94POPC   C4B 1681   7.435   5.819   7.341  0.2911 -0.0708 -0.0681
   95POPC   NC3 1682   1.173   4.908  10.009  0.0112 -0.0950 -0.0115
   95POPC   PO4 1683   0.738   4.824   9.905  0.0772  0.1424  0.1787
   95POPC   GL1 1684   0.863   4.955   9.541  0.1727 -0.3746  0.1630
   95POPC   GL2 1685   1.199   4.995   9.471 -0.3227 -0.4657 -0.1845
   95POPC   C1A 1686   0.561   5.138   9.274 -0.1238 -0.0196 -0.1941
   95POPC   D2A 1687   0.404   5.177   8.815  0.1410  0.1147  0.0142
   95POPC   C3A 1688   0.688   5.288   8.526 -0.2635  0.2532  0.2874
   95POPC   C4A 1689   0.938   5.603   8.515  0.0134 -0.4256  0.1576
   95POPC   C1B 1690   1.137   4.846   9.063  0.0552  0.1407  0.0086
   95POPC   C2B 1691   1.377   4.562   8.666 -0.0310 -0.0145 -0.1343
   95POPC   C3B 1692   1.434   4.462   8.283 -0.0472  0.1698 -0.0137
   95POPC   C4B 1693   1.676   4.468   7.940 -0.1635  0.1481 -0.1575
   96POPC   NC3 1694   7.490   6.885   9.529  0.0652 -0.1325 -0.0572
   96POPC   PO4 1695   7.712   6.513   9.392 -0.0071  0.1640 -0.0460
   96POPC   GL1 1696   7.926   6.285   9.120 -0.0159 -0.0375  0.0838
   96POPC   GL2 1697   7.710   6.079   8.851 -0.5706  0.1620  0.1839
   96POPC   C1A 1698   8.200   6.485   8.758 -0.0081  0.1000  0.1406
   96POPC   D2A 1699   8.231   6.423   8.406 -0.0561 -0.1699  0.0750
   96POPC   C3A 1700   8.213   6.694   8.033  0.2242 -0.1115 -0.2535
   96POPC   C4A 1701   8.130   7.082   7.802 -0.2193 -0.0862 -0.2752
   96POPC   C1B 1702   7.833   6.124   8.428 -0.2124 -0.1574 -0.3611
   96POPC   C2B 1703   8.023   6.107   7.970  0.0802 -0.4489 -0.1943
   96POPC   C3B 1704   8.116   5.924   7.696 -0.1813 -0.0556 -0.0303
   96POPC   C4B 1705   8.247   5.716   7.409 -0.3001 -0.1297  0.0636
   97POPC   NC3 1706   3.926   7.818   9.236  0.1721  0.0469 -0.0567
   97POPC   PO4 1707   3.972   8.308   9.066  0.0026 -0.1098 -0.2069
   97POPC   GL1 1708   4.158   8.309   8.700  0.2191  0.0330  0.0331
   97POPC   GL2 1709   4.114   7.949   8.671 -0.0918 -0.0925  0.1022
   97POPC   C1A 1710   4.201   8.454   8.387  0.4138 -0.1827  0.3071
   97POPC   D2A 1711   4.248   8.453   7.945  0.0283  0.0463 -0.1134
   97POPC   C3A 1712   4.330   8.286   7.583 -0.0886  0.0661 -0.1390
   97POPC   C4A 1713   4.437   8.219   7.221  0.0687 -0.1164 -0.0350
   97POPC   C1B 1714   3.855   7.733   8.412 -0.0427 -0.2316 -0.1616
   97POPC   C2B 1715   3.611   7.716   8.027 -0.0970  0.3270 -0.1061
   97POPC   C3B 1716   3.568   7.352   7.880  0.0465 -0.1848 -0.2741
   97POPC   C4B 1717   3.381   7.242   7.391  0.0165  0.1638 -0.1566
   98POPC   NC3 1718   6.960   3.628   9.188  0.1697 -0.0658  0.0742
   98POPC   PO4 1719   7.207   4.044   9.336 -0.2639  0.0494 -0.3273
   98POPC   GL1 1720   7.016   4.080   8.971 -0.1257 -0.1559  0.1918
   98POPC   GL2 1721   7.214   4.322   8.922 -0.0234 -0.1620 -0.2542
   98POPC   C1A 1722   6.633   4.028   8.669  0.2542 -0.1466  0.0132
   98POPC   D2A 1723   6.380   3.725   8.369  0.0090 -0.1025  0.0483
   98POPC   C3A 1724   6.458   3.676   7.897  0.0048 -0.2672  0.1174
   98POPC   C4A 1725   6.501   3.944   7.525  0.0269 -0.0088 -0.0607
   98POPC   C1B 1726   7.461   4.210   8.594  0.0498  0.0301 -0.1108
   98POPC   C2B 1727   7.354   3.832   8.361 -0.1656  0.0793  0.2687
   98POPC   C3B 1728   7.510   3.572   7.938  0.0812  0.0459 -0.0516
   98POPC   C4B 1729   7.668   3.620   7.557  0.1176  0.0972 -0.0212
   99POPC   NC3 1730   1.698   3.477   9.977 -0.2895 -0.0744 -0.1411
   99POPC   PO4 1731   1.948   3.827  10.017  0.0438  0.4375 -0.1236
   99POPC   GL1 1732   1.742   3.935   9.630 -0.1090 -0.0451 -0.8098
   99POPC   GL2 1733   1.755   4.279   9.540 -0.0744 -0.3632  0.1023
   99POPC   C1A 1734   1.476   3.831   9.338  0.1751 -0.0210  0.1561
   99POPC   D2A 1735   1.184   3.700   9.059  0.0672  0.0659  0.1087
   99POPC   C3A 1736   1.301   3.807   8.595  0.3078  0.1303  0.0010
   99POPC   C4A 1737   1.559   4.011   8.366 -0.0433 -0.0693 -0.2301
   99POPC   C1B 1738   2.047   4.007   9.176  0.3079 -0.2078  0.0340
   99POPC   C2B 1739   2.123   4.098   8.798 -0.1547  0.0024  0.1547
   99POPC   C3B 1740   2.076   3.980   8.395  0.0946 -0.1580 -0.2505
   99POPC   C4B 1741   1.861   3.931   7.999 -0.2106 -0.1947  0.1741
  100POPC   NC3 1742   7.431   9.969   8.975  0.3303  0.2227  0.2525
  100POPC   PO4 1743   7.957   9.971   8.923 -0.1380  0.2128  0.0460
  100POPC   GL1 1744   7.728   9.912   8.434 -0.0052  0.1347  0.2107
  100POPC   GL2 1745   7.501  10.002   8.406  0.2101 -0.2152 -0.2420
  100POPC   C1A 1746   7.912   9.945   7.996 -0.4901  0.1209 -0.1253
  100POPC   D2A 1747   7.887   9.941   7.629 -0.2253 -0.2140  0.0895
  100POPC   C3A 1748   8.176  10.060   7.320 -0.1410 -0.1077  0.1340
  100POPC   C4A 1749   8.520  10.431   7.375 -0.0389 -0.0423 -0.2357
  100POPC   C1B 1750   7.381   9.852   8.014 -0.0283  0.0541 -0.1628
  100POPC   C2B 1751   7.339   9.849   7.581  0.2929 -0.1911  0.2037
  100POPC   C3B 1752   7.089   9.786   7.337 -0.3091 -0.0531  0.0937
  100POPC   C4B 1753   7.075   9.789   6.917  0.0071  0.0193  0.1250
  101POPC   NC3 1754   9.097   9.221   9.037  0.1905  0.0971 -0.0806
  101POPC   PO4 1755   9.084   9.141   8.672  0.2405  0.0641  0.0595
  101POPC   GL1 1756   9.184   9.142   8.306  0.1797 -0.2994  0.1163
  101POPC   GL2 1757   9.194   8.895   8.157  0.0068 -0.2280  0.3176
  101POPC   C1A 1758   9.238   9.318   7.866 -0.1955  0.1733 -0.0136
  101POPC   D2A 1759   9.241   9.184   7.393  0.0782 -0.1926 -0.0407
  101POPC   C3A 1760   9.432   9.294   7.013 -0.1638 -0.3621 -0.2299
  101POPC   C4A 1761   9.454   9.121   6.694  0.0198 -0.1198 -0.3628
  101POPC   C1B 1762   9.487   8.853   7.756  0.3068  0.1375 -0.0600
  101POPC   C2B 1763   9.732   8.787   7.430  0.0507  0.0660  0.2959
  101POPC   C3B 1764   9.845   8.851   6.991  0.0028  0.2553  0.0216
  101POPC   C4B 1765   9.744   8.505   6.645  0.2671 -0.1040 -0.0325
  102POPC   NC3 1766   0.213   6.688   9.876  0.0498 -0.2135 -0.0647
  102POPC   PO4 1767   0.609   6.748   9.909  0.2417  0.1844  0.2684
  102POPC   GL1 1768   0.565   6.639   9.442 -0.4267  0.4299  0.0112
  102POPC   GL2 1769   0.777   6.459   9.443 -0.0964 -0.0434 -0.0207
  102POPC   C1A 1770   0.442   6.512   9.077 -0.0939  0.2683  0.0501
  102POPC   D2A 1771   0.301   6.147   8.846  0.1684 -0.0739  0.0600
  102POPC   C3A 1772  -0.057   6.006   8.734 -0.2818  0.0459  0.1002
  102POPC   C4A 1773  -0.305   6.100   8.446 -0.0362 -0.2685  0.0967
  102POPC   C1B 1774   1.222   6.521   9.238  0.1878 -0.0348 -0.0655
  102POPC   C2B 1775   1.562   6.562   8.980  0.3943 -0.3920 -0.0590
  102POPC   C3B 1776   1.867   6.665   8.704  0.0327  0.0643 -0.0154
  102POPC   C4B 1777   2.185   6.908   8.731  0.0992 -0.2280  0.0090
  103POPC   NC3 1778   0.128   5.638   9.877  0.0769 -0.0722 -0.3121
  103POPC   PO4 1779  -0.315   5.360   9.795 -0.1542  0.0562 -0.1642
  103POPC   GL1 1780  -0.485   5.224   9.499  0.1012 -0.1484  0.1040
  103POPC   GL2 1781  -0.676   5.492   9.425 -0.0193 -0.1239 -0.0307
  103POPC   C1A 1782  -0.434   5.007   9.080 -0.0288  0.0505  0.0846
  103POPC   D2A 1783  -0.541   4.732   8.619  0.0894 -0.1280 -0.1389
  103POPC   C3A 1784  -0.494   4.589   8.185 -0.0374 -0.3805  0.1265
  103POPC   C4A 1785  -0.144   4.770   7.909  0.2117  0.1887  0.1999
  103POPC   C1B 1786  -0.369   5.513   9.094 -0.1345 -0.0863  0.1593
  103POPC   C2B 1787  -0.114   5.395   8.822  0.0461  0.2280 -0.0941
  103POPC   C3B 1788   0.196   5.483   8.512 -0.1230  0.1497  0.0678
  103POPC   C4B 1789   0.430   5.854   8.399  0.0767 -0.1059  0.1356
  104POPC   NC3 1790   2.726   3.810   9.627 -0.0707  0.2070 -0.3679
  104POPC   PO4 1791   2.687   3.336   9.546 -0.0969  0.1192  0.4123
  104POPC   GL1 1792   2.462   3.487   9.105 -0.0256 -0.1998 -0.0360
  104POPC   GL2 1793   2.467   3.781   9.190 -0.4065  0.0609 -0.1450
  104POPC   C1A 1794   2.290   3.623   8.756  0.0877 -0.1790  0.1296
  104POPC   D2A 1795   2.558   3.853   8.499 -0.0622  0.0338 -0.1373
  104POPC   C3A 1796   2.350   3.725   8.104  0.0260  0.1367  0.1419
  104POPC   C4A 1797   2.168   3.627   7.688 -0.2354 -0.0956 -0.0288
  104POPC   C1B 1798   2.803   4.015   8.913  0.1113 -0.0601  0.0821
  104POPC   C2B 1799   2.895   4.438   8.776  0.0521 -0.1748  0.0715
  104POPC   C3B 1800   2.996   4.869   8.565  0.3564  0.3703 -0.2478
  104POPC   C4B 1801   2.655   5.019   8.295 -0.0846 -0.2182 -0.2822
  105POPC   NC3 1802   4.513   1.782   9.402  0.0316 -0.0843  0.2808
  105POPC   PO4 1803   4.683   2.119   9.031  0.0131  0.1052  0.2124
  105POPC   GL1 1804   4.691   2.351   8.616  0.0959  0.1059  0.2193
  105POPC   GL2 1805   4.607   2.790   8.617  0.1363  0.2068  0.2084
  105POPC   C1A 1806   4.702   2.078   8.146  0.1217  0.1362  0.0474
  105POPC   D2A 1807   4.396   1.980   7.732 -0.0184  0.2043  0.0118
  105POPC   C3A 1808   3.928   2.145   7.786  0.2036  0.0775  0.1622
  105POPC   C4A 1809   3.822   2.404   7.442 -0.5694  0.0765 -0.0184
  105POPC   C1B 1810   4.634   2.617   8.248  0.0809 -0.0739  0.0098
  105POPC   C2B 1811   4.432   2.702   7.913 -0.1416 -0.0898  0.0496
  105POPC   C3B 1812   4.162   2.851   7.633  0.2443 -0.1560 -0.0099
  105POPC   C4B 1813   3.777   2.955   7.428 -0.0521 -0.0087 -0.1666
  106POPC   NC3 1814   8.058   1.841   8.655 -0.0487 -0.0382  0.0037
  106POPC   PO4 1815   7.848   1.453   8.737 -0.0695 -0.0954  0.1373
  106POPC   GL1 1816   7.580   1.694   8.541 -0.1511 -0.5274  0.1534
  106POPC   GL2 1817   7.638   1.861   8.295 -0.1439 -0.3773  0.1130
  106POPC   C1A 1818   7.243   1.545   8.231  0.0215 -0.1208  0.1262
  106POPC   D2A 1819   7.229   1.288   7.913 -0.2508 -0.2803 -0.0134
  106POPC   C3A 1820   7.006   1.376   7.636 -0.1330 -0.3896 -0.3371
  106POPC   C4A 1821   7.034   1.526   7.241 -0.0600 -0.2074 -0.0331
  106POPC   C1B 1822   7.739   1.678   7.886  0.0784  0.3294 -0.0289
  106POPC   C2B 1823   7.950   1.671   7.448  0.4244  0.1802 -0.0817
  106POPC   C3B 1824   8.322   1.664   7.136 -0.1135  0.1596 -0.1362
  106POPC   C4B 1825   8.606   1.877   6.996 -0.0063  0.0086  0.3127
  107POPC   NC3 1826   3.669   9.035   8.809  0.0515  0.0287  0.0085
  107POPC   PO4 1827   3.719   9.502   8.900  0.2033 -0.2025  0.0460
  107POPC   GL1 1828   3.849   9.425   8.445  0.0491 -0.0249 -0.0183
  107POPC   GL2 1829   4.149   9.479   8.309  0.1509  0.1877  0.0915
  107POPC   C1A 1830   3.764   9.565   7.964  0.1371  0.0210 -0.4705
  107POPC   D2A 1831   3.763   9.683   7.484  0.4449 -0.2232  0.2533
  107POPC   C3A 1832   3.693   9.452   7.127 -0.2746 -0.1034  0.0992
  107POPC   C4A 1833   3.680   9.744   6.753 -0.0133  0.0662  0.0048
  107POPC   C1B 1834   4.316   9.408   7.914  0.0958  0.0743  0.1805
  107POPC   C2B 1835   4.347   9.522   7.444 -0.0101 -0.0915 -0.0382
  107POPC   C3B 1836   4.595   9.149   7.295 -0.0242  0.1453  0.0467
  107POPC   C4B 1837   4.477   8.761   7.204 -0.0642  0.0195 -0.1598
  108POPC   NC3 1838   2.589   1.600   9.480 -0.1781 -0.1805  0.0388
  108POPC   PO4 1839   2.338   1.733   9.076 -0.0046 -0.1995 -0.0670
  108POPC   GL1 1840   2.431   1.766   8.625  0.1968 -0.2902 -0.0587
  108POPC   GL2 1841   2.208   1.574   8.402  0.1939 -0.2892 -0.4251
  108POPC   C1A 1842   2.541   2.036   8.292  0.1814  0.1928 -0.2829
  108POPC   D2A 1843   2.595   2.255   7.931 -0.0976 -0.2405  0.0052
  108POPC   C3A 1844   2.923   2.545   7.947 -0.2904  0.0839  0.3106
  108POPC   C4A 1845   3.174   2.643   8.233 -0.0542 -0.1017 -0.1030
  108POPC   C1B 1846   2.230   1.768   7.973 -0.2619 -0.1076  0.1681
  108POPC   C2B 1847   2.404   1.976   7.584  0.0062 -0.0618  0.1505
  108POPC   C3B 1848   2.552   2.108   7.137  0.2035 -0.1664 -0.4580
  108POPC   C4B 1849   2.599   1.771   6.797 -0.1902 -0.0868 -0.0007
  109POPC   NC3 1850   0.310   2.646   9.058 -0.2970  0.1268 -0.0759
  109POPC   PO4 1851   0.516   2.207   9.072  0.0826 -0.0195  0.3751
  109POPC   GL1 1852   0.634   2.072   8.715  0.1303 -0.0456  0.2125
  109POPC   GL2 1853   0.491   1.835   8.664 -0.2099 -0.1432 -0.0157
  109POPC   C1A 1854   0.871   1.907   8.275 -0.2218  0.3589 -0.1776
  109POPC   D2A 1855   0.990   1.553   7.996  0.3513 -0.1255 -0.0938
  109POPC   C3A 1856   0.796   1.451   7.564  0.0573  0.4575 -0.2616
  109POPC   C4A 1857   0.864   1.443   7.243  0.2082 -0.3071 -0.0530
  109POPC   C1B 1858   0.360   2.010   8.279 -0.0266 -0.3959 -0.1701
  109POPC   C2B 1859   0.061   1.838   7.969 -0.1487  0.0197 -0.0355
  109POPC   C3B 1860   0.286   1.457   7.692 -0.0888 -0.0821  0.2894
  109POPC   C4B 1861   0.299   1.345   7.272 -0.1295 -0.0837 -0.2586
  110POPC   NC3 1862   9.651   6.244  10.098 -0.1980  0.2055 -0.0236
  110POPC   PO4 1863  10.125   6.290   9.931  0.3437 -0.1882 -0.2491
  110POPC   GL1 1864  10.224   6.414   9.473  0.1361  0.2971 -0.1904
  110POPC   GL2 1865  10.211   6.834   9.411 -0.3192  0.1490  0.0628
  110POPC   C1A 1866  10.086   6.435   9.039 -0.1137  0.1932  0.3537
  110POPC   D2A 1867  10.218   6.631   8.657  0.0783 -0.3995 -0.0639
  110POPC   C3A 1868  10.284   6.997   8.418  0.0334  0.0333 -0.0098
  110POPC   C4A 1869   9.965   7.172   8.135  0.0207  0.1156  0.0339
  110POPC   C1B 1870  10.385   6.925   9.085 -0.2160 -0.3057  0.0053
  110POPC   C2B 1871  10.372   7.181   8.867  0.1407 -0.0333  0.0396
  110POPC   C3B 1872  10.087   7.519   8.930  0.0276 -0.0128 -0.1448
  110POPC   C4B 1873   9.691   7.670   9.035  0.0807  0.2276 -0.1644
  111POPC   NC3 1874   2.683   5.436  10.241  0.2217 -0.1832 -0.0728
  111POPC   PO4 1875   3.002   5.711  10.427 -0.2005  0.2112 -0.2386
  111POPC   GL1 1876   2.928   5.697   9.887 -0.2404  0.2030 -0.2743
  111POPC   GL2 1877   2.682   5.874   9.762 -0.0834  0.0160 -0.6095
  111POPC   C1A 1878   3.108   5.869   9.518  0.1072  0.0383  0.4865
  111POPC   D2A 1879   3.170   6.123   9.077  0.0522  0.1233 -0.1305
  111POPC   C3A 1880   2.850   5.904   8.895 -0.1182 -0.0101 -0.1569
  111POPC   C4A 1881   2.382   5.921   8.944 -0.1857 -0.0299  0.1077
  111POPC   C1B 1882   2.660   6.003   9.406  0.0093 -0.1595  0.0297
  111POPC   C2B 1883   2.755   6.331   9.116 -0.0834 -0.0771 -0.0170
  111POPC   C3B 1884   2.996   6.650   9.022  0.1184  0.1416 -0.0235
  111POPC   C4B 1885   3.355   6.607   8.916 -0.2075 -0.0181  0.3137
  112POPC   NC3 1886   8.842   2.168   8.769  0.1830 -0.0130 -0.2023
  112POPC   PO4 1887   8.513   1.915   8.871  0.0079 -0.0447 -0.0875
  112POPC   GL1 1888   8.550   2.025   8.375 -0.1951 -0.0317  0.2721
  112POPC   GL2 1889   8.314   2.196   8.346 -0.2177 -0.0511  0.3353
  112POPC   C1A 1890   8.756   1.980   7.986 -0.2208 -0.0768  0.0492
  112POPC   D2A 1891   9.080   1.831   7.741  0.1519  0.2330  0.0873
  112POPC   C3A 1892   9.094   2.013   7.275 -0.1780  0.1841  0.0931
  112POPC   C4A 1893   9.276   2.315   6.946  0.1937  0.3395  0.3357
  112POPC   C1B 1894   8.486   2.407   7.943 -0.2279  0.4884 -0.0999
  112POPC   C2B 1895   8.757   2.289   7.551 -0.0998 -0.1633 -0.0211
  112POPC   C3B 1896   8.792   2.389   7.093  0.2214  0.1910 -0.2986
  112POPC   C4B 1897   8.478   2.662   7.031  0.0592 -0.0163  0.0717
  113POPC   NC3 1898   8.463   0.224   8.857 -0.1119  0.0327  0.0602
  113POPC   PO4 1899   8.322   0.621   9.109  0.1429 -0.1258  0.2562
  113POPC   GL1 1900   8.378   0.712   8.617  0.2417  0.0487 -0.2338
  113POPC   GL2 1901   8.133   0.610   8.427 -0.1321  0.2141 -0.0974
  113POPC   C1A 1902   8.521   0.971   8.373  0.1500  0.0585 -0.1190
  113POPC   D2A 1903   8.742   0.939   7.969 -0.1065 -0.1289  0.0759
  113POPC   C3A 1904   8.669   1.132   7.577 -0.1298  0.0687 -0.1504
  113POPC   C4A 1905   8.345   1.177   7.312 -0.0256 -0.0224  0.0843
  113POPC   C1B 1906   8.182   0.826   8.004 -0.1282  0.0304  0.1080
  113POPC   C2B 1907   8.132   1.234   7.828 -0.1978  0.0111 -0.2753
  113POPC   C3B 1908   8.417   1.602   7.671  0.0192 -0.1711  0.0790
  113POPC   C4B 1909   8.742   1.698   7.385  0.1041  0.0788 -0.0621
  114POPC   NC3 1910   2.919   7.940   9.470 -0.0174 -0.1306 -0.1357
  114POPC   PO4 1911   3.114   7.599   9.613 -0.2397  0.0600 -0.1348
  114POPC   GL1 1912   2.980   7.439   9.249 -0.0492 -0.0982 -0.4006
  114POPC   GL2 1913   2.964   7.124   9.270 -0.1202 -0.2191 -0.0829
  114POPC   C1A 1914   2.840   7.348   8.830 -0.0536  0.0759 -0.3339
  114POPC   D2A 1915   2.746   7.168   8.345 -0.0567 -0.2573  0.0365
  114POPC   C3A 1916   2.898   6.805   8.140  0.0360  0.0533 -0.0498
  114POPC   C4A 1917   2.779   6.442   8.176  0.0422  0.1754  0.1433
  114POPC   C1B 1918   2.609   6.881   9.084 -0.2532  0.2608  0.0335
  114POPC   C2B 1919   2.640   6.738   8.571  0.2142 -0.1010 -0.2023
  114POPC   C3B 1920   2.325   6.624   8.331  0.0208  0.0190  0.2028
  114POPC   C4B 1921   1.929   6.415   8.227 -0.0181 -0.2282 -0.0632
  115POPC   NC3 1922   5.427   1.489   9.277 -0.0728  0.0321  0.1458
  115POPC   PO4 1923   5.455   1.746   8.909 -0.1309 -0.0404 -0.1630
  115POPC   GL1 1924   5.468   1.810   8.512 -0.3339 -0.2195  0.1225
  115POPC   GL2 1925   5.386   2.054   8.339  0.0909 -0.3640 -0.2327
  115POPC   C1A 1926   5.520   1.512   8.098 -0.0217  0.2261 -0.0905
  115POPC   D2A 1927   5.312   1.300   7.837 -0.2026 -0.1732  0.0615
  115POPC   C3A 1928   4.958   1.440   7.650  0.0902  0.0375 -0.2038
  115POPC   C4A 1929   4.571   1.475   7.468  0.0024 -0.0624  0.2722
  115POPC   C1B 1930   5.108   2.325   8.287 -0.1546 -0.1407  0.2932
  115POPC   C2B 1931   4.964   2.418   7.887  0.2223  0.0841  0.0281
  115POPC   C3B 1932   4.691   2.379   7.510  0.0718  0.0217 -0.2609
  115POPC   C4B 1933   4.362   2.406   7.336 -0.1838  0.0307 -0.2007
  116POPC   NC3 1934   0.598  10.000   9.226 -0.2142  0.0669  0.2219
  116POPC   PO4 1935   0.888  10.253   8.985 -0.2257  0.1005  0.2055
  116POPC   GL1 1936   0.819   9.938   8.603 -0.0896  0.0458  0.0390
  116POPC   GL2 1937   1.114   9.999   8.511  0.5811  0.2403 -0.0060
  116POPC   C1A 1938   0.549   9.994   8.256 -0.0176  0.0600  0.2204
  116POPC   D2A 1939   0.350   9.817   7.878  0.0839 -0.1238  0.1232
  116POPC   C3A 1940   0.219  10.127   7.756  0.1318  0.0262 -0.2161
  116POPC   C4A 1941  -0.100  10.556   7.808  0.0794  0.0502  0.0751
  116POPC   C1B 1942   1.273   9.893   8.144  0.1207 -0.1053 -0.1194
  116POPC   C2B 1943   1.348   9.557   7.850 -0.0356  0.1412  0.0614
  116POPC   C3B 1944   1.393   9.382   7.474  0.4036 -0.1627 -0.1257
  116POPC   C4B 1945   1.483   9.209   7.098  0.2573 -0.0306 -0.3251
  117POPC   NC3 1946   5.693   7.589   8.945  0.1250 -0.2842  0.2030
  117POPC   PO4 1947   6.048   7.779   8.807  0.3293 -0.0118 -0.1823
  117POPC   GL1 1948   5.996   7.566   8.473  0.0772 -0.1570 -0.2147
  117POPC   GL2 1949   6.356   7.617   8.406 -0.1247  0.1034 -0.2378
  117POPC   C1A 1950   5.954   7.564   8.072  0.1244 -0.3313  0.3088
  117POPC   D2A 1951   6.060   7.352   7.674  0.2482 -0.0200 -0.2548
  117POPC   C3A 1952   6.007   7.472   7.273  0.1723  0.1419 -0.0080
  117POPC   C4A 1953   5.931   7.554   6.837 -0.3811  0.2366 -0.1883
  117POPC   C1B 1954   6.432   7.266   8.077 -0.1194 -0.0626  0.1241
  117POPC   C2B 1955   6.749   7.069   7.895 -0.0103  0.0961 -0.1678
  117POPC   C3B 1956   6.775   6.655   7.621 -0.1526  0.0609 -0.1145
  117POPC   C4B 1957   6.488   6.390   7.702 -0.4148 -0.1507 -0.0663
  118POPC   NC3 1958   6.437   8.025   9.064  0.0614  0.0595  0.2868
  118POPC   PO4 1959   6.416   8.436   8.871  0.1348 -0.1297 -0.0294
  118POPC   GL1 1960   6.066   8.222   8.574 -0.0372  0.2352 -0.1842
  118POPC   GL2 1961   5.941   8.492   8.433  0.3143  0.1074 -0.1965
  118POPC   C1A 1962   6.190   8.075   8.092 -0.1645 -0.0856  0.1318
  118POPC   D2A 1963   6.506   7.866   7.843 -0.0358 -0.0380 -0.1239
  118POPC   C3A 1964   6.402   7.729   7.462  0.0184 -0.0225  0.1294
  118POPC   C4A 1965   6.487   7.543   7.048 -0.1522  0.3656  0.0963
  118POPC   C1B 1966   5.733   8.218   8.108  0.2039  0.0303 -0.1641
  118POPC   C2B 1967   5.683   7.973   7.822 -0.0400 -0.1559 -0.4148
  118POPC   C3B 1968   5.927   7.879   7.604 -0.2808  0.0399  0.3374
  118POPC   C4B 1969   5.778   7.919   7.109 -0.2581  0.5381 -0.1575
  119POPC   NC3 1970   0.290   8.754   9.930  0.1739  0.0833 -0.2726
  119POPC   PO4 1971  -0.048   8.774   9.607 -0.3090 -0.1242  0.0250
  119POPC   GL1 1972   0.203   8.754   9.195  0.1341  0.0072  0.0884
  119POPC   GL2 1973   0.524   8.919   9.111 -0.0198  0.0063 -0.1979
  119POPC   C1A 1974   0.275   8.366   8.912 -0.0444 -0.0104  0.0861
  119POPC   D2A 1975   0.322   7.863   8.705  0.2507  0.1815  0.1078
  119POPC   C3A 1976   0.187   7.457   8.404  0.1203 -0.1099 -0.0282
  119POPC   C4A 1977   0.267   7.281   7.984 -0.0104  0.1065  0.4351
  119POPC   C1B 1978   0.806   8.780   8.813 -0.1353 -0.1503  0.0523
  119POPC   C2B 1979   0.728   8.857   8.390 -0.2346 -0.3098  0.2115
  119POPC   C3B 1980   0.508   9.047   8.109  0.2251 -0.0050  0.0546
  119POPC   C4B 1981   0.487   9.006   7.647  0.0324 -0.2047  0.1117
  120POPC   NC3 1982   4.079   8.776   8.924  0.0640 -0.1521  0.2324
  120POPC   PO4 1983   4.155   9.071   8.672 -0.0740  0.2033 -0.1705
  120POPC   GL1 1984   4.175   8.954   8.249 -0.3162  0.0926 -0.0775
  120POPC   GL2 1985   4.515   8.879   8.199 -0.1421  0.1480  0.0743
  120POPC   C1A 1986   3.950   9.110   7.961 -0.1484  0.0228  0.1019
  120POPC   D2A 1987   3.664   9.164   7.611  0.0359 -0.1945 -0.0488
  120POPC   C3A 1988   3.612   8.893   7.296 -0.0850 -0.0750 -0.3173
  120POPC   C4A 1989   3.524   8.759   6.936 -0.1230 -0.0175  0.2553
  120POPC   C1B 1990   4.487   8.901   7.703  0.0131  0.0031  0.4262
  120POPC   C2B 1991   4.136   9.017   7.450  0.3194  0.2583 -0.1318
  120POPC   C3B 1992   4.096   9.057   7.115  0.4140 -0.2141 -0.1745
  120POPC   C4B 1993   3.956   8.833   6.700 -0.3092  0.0166 -0.4682
  121POPC   NC3 1994   9.936   9.561   8.748  0.3429 -0.1750  0.0970
  121POPC   PO4 1995  10.143   9.922   9.018 -0.2548  0.1891  0.2323
  121POPC   GL1 1996  10.098  10.073   8.559  0.1127 -0.0934  0.1023
  121POPC   GL2 1997  10.323   9.837   8.447 -0.0191  0.2979  0.0042
  121POPC   C1A 1998  10.258  10.315   8.211  0.1030 -0.1427 -0.0337
  121POPC   D2A 1999  10.560  10.505   8.106  0.1410  0.2779 -0.0837
  121POPC   C3A 2000  10.464  10.867   7.929 -0.1520  0.0380  0.1887
  121POPC   C4A 2001  10.278  11.184   7.560 -0.1223  0.0131  0.0468
  121POPC   C1B 2002  10.015   9.726   8.109  0.0969 -0.0730 -0.1654
  121POPC   C2B 2003  10.005   9.744   7.725  0.0038 -0.1472  0.1414
  121POPC   C3B 2004  10.230   9.704   7.271 -0.3407 -0.1440 -0.2221
  121POPC   C4B 2005  10.488   9.433   7.021  0.2621  0.0242 -0.0103
  122POPC   NC3 2006   4.357  10.112   8.849 -0.1671  0.1530 -0.0828
  122POPC   PO4 2007   4.198  10.550   8.869 -0.3643 -0.0906 -0.2995
  122POPC   GL1 2008   3.997  10.588   8.518 -0.0508  0.1854  0.0493
  122POPC   GL2 2009   4.069  10.294   8.428 -0.0035  0.2130  0.2679
  122POPC   C1A 2010   4.169  10.760   8.197 -0.0282  0.0726  0.0303
  122POPC   D2A 2011   4.322  10.937   7.874 -0.2320  0.1892  0.3228
  122POPC   C3A 2012   4.642  10.768   7.650 -0.4521 -0.0412  0.0158
  122POPC   C4A 2013   5.061  10.721   7.398 -0.0893  0.0213 -0.1877
  122POPC   C1B 2014   3.835  10.404   8.040  0.2669  0.1078  0.0319
  122POPC   C2B 2015   3.687  10.132   7.732 -0.0166 -0.0539  0.2016
  122POPC   C3B 2016   3.349  10.066   7.373 -0.0805 -0.0862 -0.2207
  122POPC   C4B 2017   3.340  10.145   6.955  0.0888 -0.0715  0.1201
  123POPC   NC3 2018   9.561   1.253   9.121  0.1587  0.1119  0.2098
  123POPC   PO4 2019   9.942   1.311   9.039  0.1736  0.0926 -0.2101
  123POPC   GL1 2020   9.919   1.311   8.623 -0.0693  0.2099 -0.0113
  123POPC   GL2 2021   9.920   1.057   8.506  0.6240 -0.1435  0.0580
  123POPC   C1A 2022   9.771   1.376   8.133  0.3683  0.2634 -0.1107
  123POPC   D2A 2023   9.949   1.406   7.735 -0.2492 -0.0920  0.1945
  123POPC   C3A 2024  10.123   1.641   7.402  0.0443 -0.1813 -0.2971
  123POPC   C4A 2025   9.902   2.002   7.103 -0.0708  0.1234  0.1203
  123POPC   C1B 2026  10.368   1.126   8.357 -0.0673  0.0652  0.0661
  123POPC   C2B 2027  10.688   1.093   8.018  0.0870 -0.1668 -0.0500
  123POPC   C3B 2028  10.781   1.001   7.601 -0.0254  0.1044  0.0646
  123POPC   C4B 2029  10.639   0.852   7.227 -0.0006  0.1142  0.0867
  124POPC   NC3 2030   3.108   0.394   8.918  0.0136  0.1682 -0.0574
  124POPC   PO4 2031   3.064  -0.052   8.737 -0.1137 -0.0928  0.2900
  124POPC   GL1 2032   3.094  -0.283   8.384  0.1657  0.2267  0.0835
  124POPC   GL2 2033   2.871  -0.284   8.261  0.2777  0.1260 -0.0379
  124POPC   C1A 2034   3.269  -0.445   7.899  0.2621 -0.0583 -0.2091
  124POPC   D2A 2035   3.286  -0.636   7.418  0.1443  0.0148 -0.1076
  124POPC   C3A 2036   3.112  -0.460   7.100  0.1169  0.0804  0.2971
  124POPC   C4A 2037   2.774  -0.277   7.047 -0.0314  0.1638 -0.3926
  124POPC   C1B 2038   2.641  -0.411   7.926 -0.0681 -0.2494 -0.1043
  124POPC   C2B 2039   2.735  -0.610   7.579  0.2560 -0.0407 -0.1098
  124POPC   C3B 2040   2.799  -0.801   7.196  0.1707  0.1587 -0.0595
  124POPC   C4B 2041   2.766  -0.782   6.769  0.0281 -0.1318 -0.0954
  125POPC   NC3 2042   8.005   1.267   9.165 -0.1808 -0.0097  0.3001
  125POPC   PO4 2043   8.002   0.935   8.832  0.0107  0.1594  0.0799
  125POPC   GL1 2044   7.719   0.937   8.578 -0.1039  0.1371 -0.1410
  125POPC   GL2 2045   7.540   0.657   8.581  0.0901  0.0021 -0.3486
  125POPC   C1A 2046   7.618   1.151   8.163 -0.3463 -0.0266 -0.3929
  125POPC   D2A 2047   7.683   1.129   7.664  0.1030  0.5265 -0.3581
  125POPC   C3A 2048   7.377   1.084   7.348 -0.0246  0.1642  0.0060
  125POPC   C4A 2049   7.023   1.019   7.290  0.2519 -0.1420  0.1051
  125POPC   C1B 2050   7.688   0.677   8.119 -0.4705  0.0569 -0.2128
  125POPC   C2B 2051   7.631   0.497   7.694 -0.1223 -0.0220  0.1378
  125POPC   C3B 2052   7.446   0.623   7.331 -0.1322  0.0300 -0.3240
  125POPC   C4B 2053   7.272   0.602   6.993 -0.4892  0.3830  0.0407
  126POPC   NC3 2054   9.647   4.888   9.881 -0.1368  0.1579  0.1583
  126POPC   PO4 2055   9.535   4.470   9.985 -0.1154 -0.2251  0.0982
  126POPC   GL1 2056   9.429   4.473   9.605 -0.0868 -0.1018 -0.0769
  126POPC   GL2 2057   9.657   4.673   9.414 -0.1050  0.1740  0.0313
  126POPC   C1A 2058   9.194   4.624   9.212  0.0214 -0.0656  0.1841
  126POPC   D2A 2059   9.115   4.510   8.781  0.0316  0.0640  0.2101
  126POPC   C3A 2060   9.223   4.741   8.458  0.2009 -0.2823 -0.1486
  126POPC   C4A 2061   9.228   4.631   7.942  0.3627 -0.1129 -0.1748
  126POPC   C1B 2062   9.820   4.484   9.035  0.0857  0.3258 -0.0050
  126POPC   C2B 2063  10.224   4.422   8.765 -0.0845 -0.2443 -0.1202
  126POPC   C3B 2064  10.635   4.614   8.582 -0.1034  0.1255  0.0635
  126POPC   C4B 2065  10.659   4.897   8.312 -0.2983 -0.2005  0.2718
  127POPC   NC3 2066   8.886   6.725   9.817  0.2544  0.1131 -0.1529
  127POPC   PO4 2067   8.661   6.281   9.895  0.0292  0.3444 -0.3485
  127POPC   GL1 2068   8.729   6.344   9.442 -0.3049 -0.0294 -0.1570
  127POPC   GL2 2069   8.408   6.335   9.228 -0.2516 -0.2067  0.0618
  127POPC   C1A 2070   8.770   6.012   9.224  0.4062 -0.0838  0.3858
  127POPC   D2A 2071   8.692   5.794   8.821  0.1806  0.1189  0.0057
  127POPC   C3A 2072   8.415   5.383   8.710 -0.0250 -0.1197 -0.3009
  127POPC   C4A 2073   8.149   5.253   8.458 -0.1361  0.0927  0.1080
  127POPC   C1B 2074   8.670   6.301   8.835  0.2336 -0.1840 -0.2187
  127POPC   C2B 2075   8.682   6.088   8.407 -0.0326  0.1387  0.2190
  127POPC   C3B 2076   8.521   6.098   8.020 -0.2435  0.3180  0.0290
  127POPC   C4B 2077   8.499   6.144   7.444 -0.2162 -0.2199  0.0156
  128POPC   NC3 2078   2.022   1.479   8.862 -0.0835  0.4908 -0.1398
  128POPC   PO4 2079   1.500   1.711   8.784 -0.3285  0.5056 -0.2920
  128POPC   GL1 2080   1.445   1.962   8.434  0.3716 -0.2183  0.0052
  128POPC   GL2 2081   1.431   1.726   8.283  0.0168  0.1640  0.1017
  128POPC   C1A 2082   1.604   2.386   8.184 -0.1616 -0.1077  0.1034
  128POPC   D2A 2083   1.686   2.762   7.934  0.2603 -0.0965  0.3129
  128POPC   C3A 2084   1.933   3.129   8.060 -0.0200  0.5132 -0.0050
  128POPC   C4A 2085   2.010   3.406   8.394 -0.0570  0.0505 -0.2321
  128POPC   C1B 2086   1.281   2.038   7.984  0.2149 -0.2520  0.0877
  128POPC   C2B 2087   1.317   2.439   7.701 -0.0368 -0.0120 -0.4508
  128POPC   C3B 2088   1.205   2.839   7.430 -0.0442  0.3189 -0.1540
  128POPC   C4B 2089   1.473   3.074   7.202  0.0571  0.2025  0.0064
  129POPC   NC3 2090   4.815   0.865   8.791 -0.0646  0.0254 -0.2780
  129POPC   PO4 2091   5.104   1.000   8.484 -0.0691  0.2300  0.2210
  129POPC   GL1 2092   5.015   1.325   8.209  0.1802 -0.0047 -0.0090
  129POPC   GL2 2093   4.993   1.637   8.451  0.0371 -0.3500 -0.1348
  129POPC   C1A 2094   4.622   1.540   8.003 -0.0160  0.3697 -0.1870
  129POPC   D2A 2095   4.254   1.266   7.869  0.3944  0.1007  0.0815
  129POPC   C3A 2096   4.130   1.234   7.439 -0.2407  0.3152 -0.0325
  129POPC   C4A 2097   3.902   1.434   7.100  0.1272 -0.0549 -0.0830
  129POPC   C1B 2098   5.044   1.824   8.001 -0.0697  0.0158  0.0253
  129POPC   C2B 2099   4.883   1.932   7.579  0.1942  0.0858 -0.0546
  129POPC   C3B 2100   4.577   1.972   7.156 -0.0375  0.0473  0.1272
  129POPC   C4B 2101   4.396   1.630   6.960 -0.0656 -0.1107 -0.0847
  130POPC   NC3 2102   5.631   3.987   9.741  0.0464  0.2694  0.0517
  130POPC   PO4 2103   5.692   4.310   9.541  0.1927  0.0630 -0.0245
  130POPC   GL1 2104   5.972   4.202   9.249  0.1708  0.0705  0.1673
  130POPC   GL2 2105   6.085   3.923   9.319 -0.2091  0.0903 -0.2225
  130POPC   C1A 2106   5.851   4.401   8.754  0.1224 -0.0096  0.0489
  130POPC   D2A 2107   5.755   4.362   8.349  0.3332  0.1570  0.3022
  130POPC   C3A 2108   6.158   4.218   8.271  0.3380 -0.3940 -0.0065
  130POPC   C4A 2109   6.638   4.181   8.071 -0.0589 -0.3098  0.0071
  130POPC   C1B 2110   5.717   3.767   9.095 -0.0816 -0.0643  0.2099
  130POPC   C2B 2111   5.308   3.798   8.812 -0.0705 -0.1119  0.0168
  130POPC   C3B 2112   5.158   4.052   8.454 -0.1916 -0.0004 -0.1222
  130POPC   C4B 2113   5.351   4.276   8.099 -0.0500 -0.0533  0.0941
  131POPC   NC3 2114   2.291   3.102   9.437  0.1361  0.0619 -0.1129
  131POPC   PO4 2115   1.888   2.996   9.425 -0.0366  0.0057 -0.1678
  131POPC   GL1 2116   1.628   3.151   9.042  0.2771 -0.0671  0.0206
  131POPC   GL2 2117   1.401   3.185   9.073  0.1505 -0.2252 -0.1139
  131POPC   C1A 2118   1.577   3.292   8.578 -0.2411 -0.1836  0.0082
  131POPC   D2A 2119   1.580   3.585   8.142  0.1076 -0.0309 -0.2011
  131POPC   C3A 2120   1.251   3.655   7.838  0.1019  0.0637 -0.3126
  131POPC   C4A 2121   0.981   3.836   7.625 -0.0572  0.0629 -0.0935
  131POPC   C1B 2122   1.112   3.314   8.696 -0.1888  0.0571  0.0663
  131POPC   C2B 2123   1.008   3.332   8.317 -0.1687  0.1778  0.4589
  131POPC   C3B 2124   0.711   3.424   7.939 -0.0221  0.1514 -0.1063
  131POPC   C4B 2125   0.537   3.574   7.614 -0.4501  0.2401  0.1324
  132POPC   NC3 2126   4.749   7.926   9.442  0.0591 -0.0207  0.0108
  132POPC   PO4 2127   4.866   7.818   9.035 -0.1226 -0.1369  0.2481
  132POPC   GL1 2128   4.608   7.791   8.566  0.0716  0.3163 -0.2836
  132POPC   GL2 2129   4.566   8.080   8.453  0.1385 -0.3506  0.1446
  132POPC   C1A 2130   4.725   7.903   8.071  0.2150  0.0718 -0.1498
  132POPC   D2A 2131   4.699   7.997   7.602 -0.0606  0.0855 -0.0477
  132POPC   C3A 2132   4.916   8.354   7.361 -0.2220 -0.0239  0.0233
  132POPC   C4A 2133   5.208   8.454   7.201  0.0806 -0.1501  0.1834
  132POPC   C1B 2134   4.186   7.948   8.123 -0.2819 -0.0337  0.0417
  132POPC   C2B 2135   4.166   7.814   7.755 -0.1740 -0.0605  0.2632
  132POPC   C3B 2136   3.856   7.505   7.535 -0.1126 -0.2382  0.1137
  132POPC   C4B 2137   3.495   7.743   7.250  0.0467  0.1336  0.1296
  133POPC   NC3 2138   9.821   2.181   8.893  0.1336 -0.0248  0.2550
  133POPC   PO4 2139   9.323   2.139   8.928 -0.0254  0.0269 -0.0152
  133POPC   GL1 2140   9.229   2.001   8.475  0.0670 -0.0919 -0.2175
  133POPC   GL2 2141   9.020   2.280   8.321  0.0331  0.0482 -0.1666
  133POPC   C1A 2142   9.071   1.741   8.229 -0.1263 -0.0432 -0.0167
  133POPC   D2A 2143   8.861   1.444   7.919  0.1547  0.3229  0.0011
  133POPC   C3A 2144   9.106   1.313   7.489  0.1831 -0.0166  0.0106
  133POPC   C4A 2145   9.312   0.932   7.287  0.1005 -0.0641  0.1325
  133POPC   C1B 2146   9.100   2.279   7.896  0.3300 -0.1964 -0.0184
  133POPC   C2B 2147   9.385   2.214   7.567 -0.1173 -0.2885 -0.2038
  133POPC   C3B 2148   9.573   2.431   7.287  0.0016  0.0379 -0.0289
  133POPC   C4B 2149   9.984   2.590   7.272  0.2555  0.1446 -0.1116
  134POPC   NC3 2150   5.481   9.484   8.588  0.0218 -0.0875  0.0557
  134POPC   PO4 2151   5.877   9.609   8.547 -0.3574 -0.1644 -0.1456
  134POPC   GL1 2152   6.238   9.595   8.287  0.0178  0.1314 -0.1700
  134POPC   GL2 2153   6.210   9.840   8.047 -0.0317  0.0037 -0.0874
  134POPC   C1A 2154   6.494   9.467   7.868  0.0633 -0.1075  0.1967
  134POPC   D2A 2155   6.412   9.294   7.502  0.1481  0.1028 -0.0480
  134POPC   C3A 2156   6.452   8.790   7.372  0.2224  0.0191 -0.0453
  134POPC   C4A 2157   6.568   8.469   6.974 -0.2470  0.1094 -0.1710
  134POPC   C1B 2158   6.076   9.688   7.699 -0.0419 -0.2376 -0.1079
  134POPC   C2B 2159   5.967   9.459   7.297  0.1166 -0.2257  0.1685
  134POPC   C3B 2160   5.639   9.275   7.084 -0.2943 -0.0899 -0.1023
  134POPC   C4B 2161   5.450   8.915   6.818 -0.2793  0.0274 -0.1654
  135POPC   NC3 2162   1.766   8.551   9.272  0.2051 -0.0743 -0.1480
  135POPC   PO4 2163   1.678   8.923   9.243 -0.1754 -0.1708  0.1696
  135POPC   GL1 2164   1.671   8.905   8.831  0.0914  0.1604 -0.1684
  135POPC   GL2 2165   1.795   9.182   8.643  0.1254 -0.3518  0.0684
  135POPC   C1A 2166   1.595   8.829   8.305  0.0142  0.0453 -0.0068
  135POPC   D2A 2167   1.794   8.712   8.011  0.1089 -0.1891 -0.0571
  135POPC   C3A 2168   2.069   8.656   7.787 -0.3466  0.1071 -0.0250
  135POPC   C4A 2169   2.221   8.248   7.641  0.0976  0.1685 -0.0053
  135POPC   C1B 2170   1.523   9.324   8.261  0.0872 -0.0144 -0.0274
  135POPC   C2B 2171   1.495   9.062   7.890  0.1811  0.0269  0.0319
  135POPC   C3B 2172   1.795   8.936   7.531  0.1937  0.2065  0.0108
  135POPC   C4B 2173   1.954   9.270   7.303  0.2140 -0.1176  0.3277
  136POPC   NC3 2174   2.303   5.772  10.163  0.3443  0.0318 -0.0293
  136POPC   PO4 2175   2.396   5.465   9.819  0.1169  0.0893 -0.1376
  136POPC   GL1 2176   2.085   5.713   9.594 -0.1226 -0.1073  0.1191
  136POPC   GL2 2177   1.738   5.809   9.637  0.0940 -0.0661  0.0990
  136POPC   C1A 2178   2.051   5.980   9.263 -0.0315  0.0548  0.0463
  136POPC   D2A 2179   2.042   6.360   9.135  0.2478  0.2529  0.1775
  136POPC   C3A 2180   2.373   6.440   8.884  0.0084  0.0857  0.1371
  136POPC   C4A 2181   2.642   6.278   8.579  0.1392  0.0825  0.0890
  136POPC   C1B 2182   1.476   5.998   9.226  0.0061  0.0124 -0.1689
  136POPC   C2B 2183   1.412   5.734   8.908 -0.0631 -0.0183 -0.0366
  136POPC   C3B 2184   1.472   5.708   8.476 -0.0215 -0.0177  0.3351
  136POPC   C4B 2185   1.302   5.411   8.207 -0.1320 -0.0524  0.0946
  137POPC   NC3 2186   5.821   5.919   9.094 -0.1094 -0.1176  0.2771
  137POPC   PO4 2187   5.446   6.282   9.120 -0.2685  0.0881  0.0693
  137POPC   GL1 2188   5.290   6.415   8.657 -0.0564  0.1175 -0.4820
  137POPC   GL2 2189   5.419   6.661   8.398 -0.0346  0.3236 -0.1041
  137POPC   C1A 2190   5.101   6.375   8.256  0.3920  0.3430  0.2223
  137POPC   D2A 2191   5.002   6.038   7.995 -0.2284 -0.1929 -0.3725
  137POPC   C3A 2192   4.747   5.772   8.251 -0.0671  0.0691 -0.0981
  137POPC   C4A 2193   4.705   5.513   8.503  0.2701  0.1713  0.2808
  137POPC   C1B 2194   5.189   6.871   8.017  0.0532  0.3170  0.0423
  137POPC   C2B 2195   5.522   7.180   7.724  0.2167  0.2141 -0.1674
  137POPC   C3B 2196   5.546   7.491   7.569  0.0616  0.3472 -0.0298
  137POPC   C4B 2197   5.410   7.551   7.148  0.1233 -0.2412  0.0116
  138POPC   NC3 2198   8.407   8.729   9.025 -0.1962  0.0201 -0.2558
  138POPC   PO4 2199   8.074   8.484   8.841  0.2196  0.0792  0.0001
  138POPC   GL1 2200   8.342   8.683   8.475  0.0698  0.2623  0.3452
  138POPC   GL2 2201   8.718   8.828   8.440  0.1316 -0.1255  0.0517
  138POPC   C1A 2202   8.367   8.568   8.010 -0.0646 -0.1191 -0.1174
  138POPC   D2A 2203   8.537   8.480   7.581 -0.2996 -0.1932 -0.0034
  138POPC   C3A 2204   8.348   8.195   7.258  0.0956  0.3878 -0.0675
  138POPC   C4A 2205   8.623   7.803   7.004 -0.0468 -0.1119  0.1087
  138POPC   C1B 2206   8.713   8.966   7.962 -0.3106 -0.0404 -0.2159
  138POPC   C2B 2207   8.989   8.839   7.652  0.2771 -0.0484  0.0740
  138POPC   C3B 2208   9.229   8.704   7.232 -0.1411 -0.1809 -0.0475
  138POPC   C4B 2209   9.143   8.598   6.775 -0.3758  0.0833 -0.2987
  139POPC   NC3 2210   3.417   7.173   9.626  0.1468  0.0912  0.0253
  139POPC   PO4 2211   3.790   6.882   9.563  0.0309  0.0457 -0.0442
  139POPC   GL1 2212   3.926   6.899   9.070  0.1035 -0.1998  0.0709
  139POPC   GL2 2213   4.004   6.536   8.817 -0.0558 -0.1517  0.0280
  139POPC   C1A 2214   3.816   7.157   8.614 -0.1252  0.1631 -0.0334
  139POPC   D2A 2215   3.990   7.325   8.219  0.0746 -0.0414 -0.1815
  139POPC   C3A 2216   3.844   6.939   8.002  0.1075 -0.0085 -0.0520
  139POPC   C4A 2217   3.765   6.641   8.203  0.0868 -0.0196 -0.0505
  139POPC   C1B 2218   4.078   6.273   8.395  0.4110 -0.0104 -0.0385
  139POPC   C2B 2219   4.075   6.064   8.097 -0.1064  0.2971  0.0895
  139POPC   C3B 2220   4.275   5.707   7.970 -0.0643 -0.0495  0.0348
  139POPC   C4B 2221   4.601   5.393   8.003  0.1169  0.1943 -0.5119
  140POPC   NC3 2222   5.401   8.883   9.080 -0.1570 -0.0454  0.0810
  140POPC   PO4 2223   5.596   9.061   8.818 -0.0200 -0.2220 -0.3309
  140POPC   GL1 2224   5.473   8.719   8.564  0.1307  0.0445 -0.1162
  140POPC   GL2 2225   5.166   8.572   8.518 -0.2973  0.0872 -0.0422
  140POPC   C1A 2226   5.456   8.623   8.134 -0.1463  0.0319 -0.1683
  140POPC   D2A 2227   5.599   8.555   7.700  0.4507  0.3365  0.0534
  140POPC   C3A 2228   5.668   8.356   7.391  0.0098 -0.1636 -0.0957
  140POPC   C4A 2229   5.665   8.492   6.972 -0.5477 -0.1187 -0.3020
  140POPC   C1B 2230   4.770   8.486   8.236  0.0006 -0.0849 -0.3182
  140POPC   C2B 2231   4.816   8.577   7.851  0.0705  0.0057 -0.1827
  140POPC   C3B 2232   5.148   8.725   7.600 -0.0299 -0.3101 -0.1065
  140POPC   C4B 2233   5.466   8.882   7.294 -0.3042 -0.0193  0.0319
  141POPC   NC3 2234   4.596   9.208   8.548 -0.2165  0.0896  0.2436
  141POPC   PO4 2235   4.554   9.792   8.465 -0.0568  0.1487 -0.1537
  141POPC   GL1 2236   4.922   9.992   8.079  0.0379  0.1264 -0.3478
  141POPC   GL2 2237   5.102  10.214   8.118 -0.4196 -0.0425  0.0847
  141POPC   C1A 2238   5.055   9.987   7.572  0.1136 -0.2497  0.2070
  141POPC   D2A 2239   5.384  10.231   7.298  0.0907 -0.1075 -0.1484
  141POPC   C3A 2240   5.454  10.457   7.573  0.0407 -0.0221  0.2083
  141POPC   C4A 2241   5.631  10.392   7.953  0.3426  0.1194  0.0521
  141POPC   C1B 2242   4.971  10.414   7.777  0.0064  0.0398  0.0755
  141POPC   C2B 2243   4.663  10.258   7.463 -0.1663 -0.0366 -0.0561
  141POPC   C3B 2244   4.272  10.480   7.176  0.0355 -0.0504  0.0696
  141POPC   C4B 2245   3.950  10.845   6.966 -0.0961 -0.1949 -0.1655
  142POPC   NC3 2246   1.268   1.281   8.683  0.0108 -0.2751 -0.5833
  142POPC   PO4 2247   0.864   1.135   8.868  0.1413 -0.0010 -0.0102
  142POPC   GL1 2248   0.748   1.292   8.573 -0.0217  0.0620  0.2439
  142POPC   GL2 2249   0.881   1.210   8.337 -0.1326  0.2472 -0.3317
  142POPC   C1A 2250   0.522   1.526   8.235 -0.2110 -0.3510  0.0930
  142POPC   D2A 2251   0.574   1.801   7.837  0.2765 -0.0088 -0.1600
  142POPC   C3A 2252   0.892   1.942   7.650  0.1466 -0.0566  0.0995
  142POPC   C4A 2253   1.164   1.893   7.349  0.0961 -0.4833 -0.1361
  142POPC   C1B 2254   0.970   1.092   7.937  0.1521  0.0640 -0.0301
  142POPC   C2B 2255   1.260   1.218   7.578  0.0593 -0.0696  0.5092
  142POPC   C3B 2256   1.422   1.511   7.363  0.0438 -0.1568 -0.3357
  142POPC   C4B 2257   1.424   1.724   6.932  0.0180 -0.0153  0.0355
  143POPC   NC3 2258   2.623   9.910   8.660  0.3622  0.0422 -0.1604
  143POPC   PO4 2259   2.239  10.181   8.669 -0.2327 -0.3176  0.2097
  143POPC   GL1 2260   2.175  10.270   8.310 -0.1372 -0.0771 -0.1643
  143POPC   GL2 2261   2.012  10.537   8.118 -0.1348 -0.1208  0.1727
  143POPC   C1A 2262   2.159  10.105   7.845  0.0830  0.1695  0.2926
  143POPC   D2A 2263   2.459  10.015   7.519  0.1569  0.2438 -0.1689
  143POPC   C3A 2264   2.604  10.335   7.295 -0.0227 -0.1949  0.0142
  143POPC   C4A 2265   2.450  10.759   7.129  0.1655  0.3031 -0.1385
  143POPC   C1B 2266   1.732  10.451   7.757  0.0608  0.0233 -0.1331
  143POPC   C2B 2267   1.646   9.994   7.739  0.0806  0.0197  0.0667
  143POPC   C3B 2268   1.477   9.862   7.397 -0.5202 -0.0621  0.0145
  143POPC   C4B 2269   1.732   9.721   7.191  0.1064  0.1446  0.0076
  144POPC   NC3 2270   2.333   0.507   8.477  0.1108  0.2631 -0.1008
  144POPC   PO4 2271   2.333   0.752   8.823 -0.0144 -0.1372 -0.1029
  144POPC   GL1 2272   2.280   1.059   8.481  0.2030 -0.1928  0.0057
  144POPC   GL2 2273   1.972   0.850   8.308  0.2219 -0.1084  0.1810
  144POPC   C1A 2274   2.013   1.255   8.076 -0.2454  0.0163 -0.1821
  144POPC   D2A 2275   2.027   1.231   7.653 -0.3017  0.0392 -0.0718
  144POPC   C3A 2276   2.188   0.820   7.449 -0.1086 -0.2297 -0.0295
  144POPC   C4A 2277   2.229   0.340   7.593  0.0709  0.0359  0.0299
  144POPC   C1B 2278   1.867   0.739   7.823  0.2088 -0.2951  0.0382
  144POPC   C2B 2279   1.664   0.939   7.446 -0.3642 -0.3054  0.1340
  144POPC   C3B 2280   1.373   1.088   7.011 -0.0664  0.0713 -0.3774
  144POPC   C4B 2281   1.112   1.354   6.793  0.1107 -0.4491  0.1636
  145POPC   NC3 2282   6.397   2.878   8.994  0.0228  0.0683  0.0325
  145POPC   PO4 2283   6.130   3.164   9.175 -0.0584  0.0738 -0.0730
  145POPC   GL1 2284   6.020   3.383   8.821 -0.1741 -0.0526  0.0842
  145POPC   GL2 2285   6.311   3.238   8.622  0.1353  0.0117  0.1724
  145POPC   C1A 2286   5.808   3.435   8.443  0.2871  0.3220  0.2368
  145POPC   D2A 2287   6.050   3.517   8.031  0.0202  0.0041  0.0987
  145POPC   C3A 2288   5.704   3.493   7.739  0.0494 -0.0464 -0.0912
  145POPC   C4A 2289   5.393   3.102   7.638  0.0757  0.2508 -0.3700
  145POPC   C1B 2290   6.598   3.319   8.277  0.2033 -0.0343 -0.5684
  145POPC   C2B 2291   6.777   3.283   7.910 -0.0504  0.2365 -0.3100
  145POPC   C3B 2292   7.137   3.395   7.652 -0.1925  0.1882 -0.1186
  145POPC   C4B 2293   7.131   3.436   7.231 -0.0779 -0.0165  0.1504
  146POPC   NC3 2294   4.187   6.457   9.290 -0.1434 -0.0938  0.3481
  146POPC   PO4 2295   4.479   6.665   9.023 -0.0548  0.0646  0.0049
  146POPC   GL1 2296   4.404   6.240   8.771 -0.0793  0.0290  0.0015
  146POPC   GL2 2297   4.588   5.998   8.750 -0.1906 -0.2506  0.0083
  146POPC   C1A 2298   4.254   5.789   8.468  0.2583 -0.1431 -0.2771
  146POPC   D2A 2299   3.873   5.696   8.361 -0.1429 -0.1598  0.1028
  146POPC   C3A 2300   3.547   5.512   8.133 -0.0073 -0.0505 -0.3713
  146POPC   C4A 2301   3.199   5.649   8.014 -0.0739 -0.1413  0.1159
  146POPC   C1B 2302   4.987   6.045   8.607 -0.1735 -0.0824 -0.0717
  146POPC   C2B 2303   5.216   5.681   8.456 -0.2027 -0.0141 -0.2457
  146POPC   C3B 2304   5.125   5.476   8.046  0.0598  0.0238  0.0068
  146POPC   C4B 2305   5.114   5.169   7.689  0.2273  0.2592 -0.0662
  147POPC   NC3 2306   9.287  10.141   8.706  0.0934  0.0269 -0.1204
  147POPC   PO4 2307   9.395   9.715   8.929  0.0491 -0.0943  0.1002
  147POPC   GL1 2308   9.387   9.615   8.544  0.3996  0.3139 -0.0205
  147POPC   GL2 2309   9.038   9.659   8.388  0.0659  0.2037  0.3517
  147POPC   C1A 2310   9.531   9.644   8.119 -0.2008  0.0476  0.3840
  147POPC   D2A 2311   9.552   9.806   7.726 -0.0538 -0.0965  0.2609
  147POPC   C3A 2312   9.263   9.723   7.424  0.3865  0.1212  0.1258
  147POPC   C4A 2313   9.044   9.594   7.125 -0.1429 -0.1433 -0.0117
  147POPC   C1B 2314   9.003   9.728   7.899  0.0340 -0.3503  0.2621
  147POPC   C2B 2315   8.943  10.023   7.528  0.1251 -0.2786  0.3390
  147POPC   C3B 2316   8.835  10.008   7.045  0.0417 -0.3280 -0.4141
  147POPC   C4B 2317   8.439  10.236   6.959  0.3148 -0.2713  0.2592
  148POPC   NC3 2318   5.722   6.626   8.924 -0.1165  0.1531  0.0695
  148POPC   PO4 2319   6.054   6.423   9.034 -0.2038 -0.0682 -0.4095
  148POPC   GL1 2320   5.953   6.122   8.651 -0.3423  0.2533 -0.0360
  148POPC   GL2 2321   5.650   6.088   8.622 -0.2031  0.0241 -0.2380
  148POPC   C1A 2322   6.073   6.055   8.310  0.1357  0.1179 -0.2997
  148POPC   D2A 2323   6.182   6.122   8.037 -0.0123  0.2047  0.3476
  148POPC   C3A 2324   6.582   5.906   7.912 -0.2105 -0.0162 -0.1695
  148POPC   C4A 2325   6.505   5.843   7.557  0.1598 -0.2478  0.1904
  148POPC   C1B 2326   5.465   6.088   8.332 -0.0193  0.2708 -0.2699
  148POPC   C2B 2327   5.544   6.064   7.897 -0.3651  0.0047 -0.1701
  148POPC   C3B 2328   5.488   5.982   7.440 -0.1030  0.1259  0.1328
  148POPC   C4B 2329   5.149   5.980   7.096  0.1371 -0.1385 -0.0799
  149POPC   NC3 2330   6.491   0.721   8.679  0.1929  0.1628 -0.3131
  149POPC   PO4 2331   6.166   0.255   8.826 -0.1149  0.1527  0.0296
  149POPC   GL1 2332   5.948   0.302   8.453  0.0878 -0.2123  0.0218
  149POPC   GL2 2333   6.012   0.618   8.328  0.0974  0.1014 -0.3534
  149POPC   C1A 2334   6.104   0.196   7.988 -0.0586  0.0858  0.1218
  149POPC   D2A 2335   5.979  -0.008   7.652  0.0997  0.3691  0.0747
  149POPC   C3A 2336   5.608  -0.285   7.681 -0.1182 -0.0771  0.0460
  149POPC   C4A 2337   5.488  -0.510   7.304  0.2272 -0.0585 -0.1879
  149POPC   C1B 2338   6.277   0.714   8.010 -0.0030  0.0825  0.4093
  149POPC   C2B 2339   6.208   0.849   7.713  0.3155 -0.1534  0.1083
  149POPC   C3B 2340   6.188   0.586   7.225 -0.0751  0.2726  0.0564
  149POPC   C4B 2341   5.835   0.278   7.224  0.2335 -0.0725  0.1586
  150POPC   NC3 2342  10.034   1.890   9.438  0.0849  0.2363 -0.0333
  150POPC   PO4 2343  10.244   2.172   9.165  0.3516 -0.2624 -0.1743
  150POPC   GL1 2344  10.353   2.293   8.733 -0.0248  0.2868  0.0346
  150POPC   GL2 2345  10.135   2.230   8.448  0.0481 -0.0622  0.0991
  150POPC   C1A 2346  10.665   2.510   8.409  0.0720  0.1713 -0.2736
  150POPC   D2A 2347  10.787   2.745   8.076  0.0095  0.1880  0.1721
  150POPC   C3A 2348  10.971   2.661   7.598 -0.2592 -0.0203 -0.0640
  150POPC   C4A 2349  10.917   2.230   7.307 -0.0177  0.0459  0.2206
  150POPC   C1B 2350  10.249   2.366   8.031 -0.1476 -0.2033 -0.1747
  150POPC   C2B 2351  10.650   2.285   7.808 -0.3642 -0.1567  0.1027
  150POPC   C3B 2352  11.089   2.342   8.024 -0.0351  0.0098  0.0887
  150POPC   C4B 2353  11.308   2.471   8.324 -0.0534 -0.0647  0.1014
  151POPC   NC3 2354   4.934  10.095   8.588  0.5129  0.1065  0.0101
  151POPC   PO4 2355   5.272   9.890   8.482 -0.0114 -0.2958 -0.0051
  151POPC   GL1 2356   5.374   9.635   8.085 -0.1231  0.0877  0.0036
  151POPC   GL2 2357   5.722   9.426   8.108  0.0117  0.1336  0.2724
  151POPC   C1A 2358   5.238   9.535   7.733 -0.2192 -0.0336  0.0520
  151POPC   D2A 2359   5.111   9.195   7.338  0.0997 -0.2177 -0.4103
  151POPC   C3A 2360   5.005   8.826   7.008  0.2880  0.1075  0.0638
  151POPC   C4A 2361   4.753   8.493   6.858  0.0232 -0.0161 -0.1805
  151POPC   C1B 2362   6.082   9.208   7.991  0.0818 -0.1635 -0.0973
  151POPC   C2B 2363   6.374   8.920   7.904  0.2381 -0.4440 -0.2238
  151POPC   C3B 2364   6.583   8.483   7.801 -0.0135  0.0018 -0.2457
  151POPC   C4B 2365   6.591   8.292   7.508  0.1552 -0.0108 -0.2439
  152POPC   NC3 2366   6.439   3.580   9.064  0.1340 -0.3305  0.3062
  152POPC   PO4 2367   6.664   3.275   9.132  0.1678  0.0401 -0.3550
  152POPC   GL1 2368   6.847   3.336   8.698  0.1914  0.0501 -0.0375
  152POPC   GL2 2369   6.984   3.608   8.654  0.0991 -0.0834  0.0293
  152POPC   C1A 2370   7.110   3.229   8.371 -0.0234 -0.0234  0.0073
  152POPC   D2A 2371   7.436   3.055   8.107  0.1478 -0.2293  0.3004
  152POPC   C3A 2372   7.528   3.081   7.694  0.1879 -0.2033  0.2075
  152POPC   C4A 2373   7.659   3.124   7.310 -0.2753 -0.0989  0.4738
  152POPC   C1B 2374   6.869   3.708   8.280 -0.0477 -0.1208  0.0222
  152POPC   C2B 2375   6.989   3.908   7.954  0.0436  0.0767  0.1841
  152POPC   C3B 2376   7.037   3.865   7.487 -0.2387 -0.0671  0.0070
  152POPC   C4B 2377   6.783   3.825   7.147  0.1813 -0.0923  0.1824
  153POPC   NC3 2378   1.127   9.256   9.094 -0.3003 -0.1376 -0.3257
  153POPC   PO4 2379   1.039   9.141   9.458 -0.2311  0.3107  0.2182
  153POPC   GL1 2380   0.932   8.627   9.262 -0.1348  0.0952  0.2605
  153POPC   GL2 2381   1.056   8.369   9.425 -0.3282 -0.2440 -0.2169
  153POPC   C1A 2382   1.257   8.509   8.900 -0.0847 -0.0174  0.0898
  153POPC   D2A 2383   1.637   8.246   8.923  0.2093 -0.3334 -0.1766
  153POPC   C3A 2384   1.846   7.976   8.506  0.0023  0.0444  0.0592
  153POPC   C4A 2385   2.003   7.877   8.081  0.1331 -0.0929  0.0300
  153POPC   C1B 2386   0.727   8.177   9.074 -0.4709 -0.0751  0.0685
  153POPC   C2B 2387   0.613   8.262   8.605  0.0523  0.1722 -0.2644
  153POPC   C3B 2388   0.721   8.332   8.246  0.0105 -0.0464 -0.1839
  153POPC   C4B 2389   1.066   8.074   7.896 -0.1426 -0.3055 -0.0195
  154POPC   NC3 2390   8.667   1.578   9.158  0.1514  0.0393  0.0213
  154POPC   PO4 2391   8.951   1.204   9.154 -0.3509  0.2215  0.2502
  154POPC   GL1 2392   9.134   1.182   8.741 -0.0338  0.1055  0.7127
  154POPC   GL2 2393   9.432   1.028   8.641  0.2140  0.0370 -0.0263
  154POPC   C1A 2394   9.091   1.046   8.295 -0.2657 -0.1511 -0.0393
  154POPC   D2A 2395   9.331   1.089   7.872  0.0587 -0.2588 -0.0542
  154POPC   C3A 2396   9.460   1.509   7.726  0.0525 -0.3125  0.1181
  154POPC   C4A 2397   9.705   1.841   7.620 -0.2156  0.0326  0.0649
  154POPC   C1B 2398   9.561   0.838   8.221 -0.1435 -0.0727 -0.1114
  154POPC   C2B 2399   9.481   0.528   7.866 -0.1667 -0.1297  0.3602
  154POPC   C3B 2400   9.759   0.457   7.478 -0.3173  0.0848 -0.2523
  154POPC   C4B 2401   9.715   0.672   7.028  0.1982  0.2477  0.1814
  155POPC   NC3 2402   1.946   4.316   9.955 -0.3643 -0.0344 -0.0158
  155POPC   PO4 2403   2.148   4.731   9.954  0.0300  0.1657  0.0672
  155POPC   GL1 2404   2.345   4.745   9.595 -0.0603 -0.0944  0.3469
  155POPC   GL2 2405   2.221   4.530   9.486  0.3131 -0.1711 -0.3041
  155POPC   C1A 2406   2.233   4.958   9.204  0.0457 -0.3723  0.1797
  155POPC   D2A 2407   2.393   5.134   8.883  0.0489  0.1965  0.1853
  155POPC   C3A 2408   2.200   5.067   8.474  0.2041 -0.1559  0.0830
  155POPC   C4A 2409   1.836   5.393   8.368  0.0076 -0.0373  0.2346
  155POPC   C1B 2410   1.942   4.529   9.069  0.1903 -0.1858 -0.0948
  155POPC   C2B 2411   1.873   4.531   8.624  0.0885  0.0452  0.0052
  155POPC   C3B 2412   2.213   4.485   8.240  0.1852  0.0768  0.0648
  155POPC   C4B 2413   2.289   4.409   7.908 -0.1238  0.0396  0.2089
  156POPC   NC3 2414   5.421   2.848   9.656  0.4360  0.0002  0.2229
  156POPC   PO4 2415   5.035   2.747   9.438  0.5221 -0.0874 -0.1160
  156POPC   GL1 2416   5.178   2.933   9.016  0.2829  0.3068  0.1176
  156POPC   GL2 2417   5.095   2.616   8.794  0.0485 -0.1004 -0.1685
  156POPC   C1A 2418   5.059   3.221   8.692  0.2968 -0.0645  0.2962
  156POPC   D2A 2419   5.213   3.502   8.350 -0.0800 -0.2316 -0.1978
  156POPC   C3A 2420   5.216   3.585   7.892 -0.1257  0.0221  0.3089
  156POPC   C4A 2421   5.351   3.719   7.456  0.1085  0.2786 -0.1082
  156POPC   C1B 2422   5.071   2.798   8.417 -0.2003  0.1301 -0.1201
  156POPC   C2B 2423   5.034   2.871   8.017 -0.1330  0.0570  0.0013
  156POPC   C3B 2424   4.820   2.943   7.719  0.3471 -0.0113 -0.1353
  156POPC   C4B 2425   4.571   2.911   7.333  0.0526 -0.2424 -0.3852
  157POPC   NC3 2426   9.311   3.469   4.787 -0.1728 -0.1510  0.2874
  157POPC   PO4 2427   9.127   3.440   5.166 -0.0065 -0.0269 -0.1662
  157POPC   GL1 2428   9.273   3.627   5.526 -0.1400 -0.0765 -0.0486
  157POPC   GL2 2429   9.584   3.515   5.385  0.1153  0.1442  0.0788
  157POPC   C1A 2430   9.182   3.723   5.890 -0.3331 -0.2266 -0.1948
  157POPC   D2A 2431   9.343   3.853   6.250 -0.3736 -0.2896 -0.1718
  157POPC   C3A 2432   9.242   4.013   6.701  0.2995 -0.0812 -0.2048
  157POPC   C4A 2433   9.309   4.338   7.071  0.0409 -0.0297  0.0614
  157POPC   C1B 2434   9.695   3.615   5.931 -0.0605 -0.1203 -0.4174
  157POPC   C2B 2435   9.578   3.290   6.289 -0.1036 -0.0642 -0.0208
  157POPC   C3B 2436   9.368   3.450   6.601 -0.3040 -0.0114  0.2277
  157POPC   C4B 2437   9.342   3.312   7.053  0.1328 -0.2723 -0.0984
  158POPC   NC3 2438   4.784   1.247   4.932  0.2001  0.0095 -0.0133
  158POPC   PO4 2439   4.477   1.043   5.059 -0.4602  0.0384  0.0221
  158POPC   GL1 2440   4.701   1.149   5.415 -0.0050 -0.0850  0.3371
  158POPC   GL2 2441   4.938   1.055   5.435  0.0835 -0.0801 -0.4008
  158POPC   C1A 2442   4.980   1.294   5.859  0.0292 -0.0009  0.0548
  158POPC   D2A 2443   4.987   1.530   6.245 -0.2234 -0.1269 -0.1296
  158POPC   C3A 2444   5.372   1.653   6.447  0.0818  0.3164 -0.0153
  158POPC   C4A 2445   5.806   1.599   6.616 -0.1756  0.2338 -0.2378
  158POPC   C1B 2446   4.561   1.112   5.852 -0.3083 -0.0773  0.2227
  158POPC   C2B 2447   4.582   0.954   6.228  0.2232  0.3007 -0.3562
  158POPC   C3B 2448   4.886   0.803   6.603  0.0963  0.3230  0.0153
  158POPC   C4B 2449   5.029   0.828   6.977  0.0659  0.0523 -0.0594
  159POPC   NC3 2450   7.985   6.044   5.036  0.2141  0.0686  0.0963
  159POPC   PO4 2451   8.075   5.802   5.367 -0.4925 -0.0966 -0.1490
  159POPC   GL1 2452   7.998   5.776   5.790 -0.0774  0.3686 -0.2292
  159POPC   GL2 2453   7.790   5.900   6.003  0.0876  0.0451 -0.1999
  159POPC   C1A 2454   8.063   5.534   6.216 -0.4783  0.2719 -0.0848
  159POPC   D2A 2455   7.986   5.422   6.698  0.0874  0.2121  0.1011
  159POPC   C3A 2456   8.227   5.238   6.979  0.3500  0.1713 -0.2415
  159POPC   C4A 2457   8.461   5.157   7.326 -0.1162  0.0322  0.1182
  159POPC   C1B 2458   7.767   5.817   6.500  0.0986 -0.1997 -0.0351
  159POPC   C2B 2459   7.637   5.975   6.815 -0.0214  0.0746 -0.0801
  159POPC   C3B 2460   7.221   6.110   6.995 -0.3301  0.1916  0.0433
  159POPC   C4B 2461   7.095   6.551   7.172 -0.3633 -0.2780  0.0472
  160POPC   NC3 2462   6.172   2.485   5.611  0.1932 -0.3057  0.0583
  160POPC   PO4 2463   5.870   2.806   5.610 -0.0524  0.2851  0.2915
  160POPC   GL1 2464   5.886   2.977   6.001 -0.0317  0.0814  0.1889
  160POPC   GL2 2465   6.014   3.295   6.059 -0.0074  0.4888 -0.2635
  160POPC   C1A 2466   5.733   2.887   6.457  0.2222  0.0123 -0.2436
  160POPC   D2A 2467   5.445   2.547   6.637  0.2326  0.0090 -0.1767
  160POPC   C3A 2468   5.637   2.133   6.701  0.1512  0.1960  0.0958
  160POPC   C4A 2469   6.046   2.045   6.690 -0.0748 -0.1600  0.0377
  160POPC   C1B 2470   5.959   3.324   6.443  0.2990 -0.1136  0.2623
  160POPC   C2B 2471   6.207   3.434   6.724 -0.1996 -0.0921 -0.0629
  160POPC   C3B 2472   6.483   3.765   6.571 -0.0647  0.3791 -0.3352
  160POPC   C4B 2473   6.919   4.007   6.481  0.1279  0.1338 -0.1533
  161POPC   NC3 2474   5.616   4.810   5.378 -0.2540  0.0989 -0.0154
  161POPC   PO4 2475   5.555   4.777   5.785 -0.1892 -0.5491  0.1134
  161POPC   GL1 2476   5.520   4.711   6.278 -0.0707  0.0476 -0.0393
  161POPC   GL2 2477   5.433   4.511   6.416 -0.1575  0.1305  0.2975
  161POPC   C1A 2478   5.180   4.926   6.548 -0.1373 -0.2064  0.0243
  161POPC   D2A 2479   4.965   5.116   6.934 -0.3481  0.0082 -0.3226
  161POPC   C3A 2480   5.087   4.788   7.325  0.3106  0.1168 -0.1448
  161POPC   C4A 2481   5.018   4.499   7.501 -0.0607 -0.0978 -0.1464
  161POPC   C1B 2482   5.434   4.194   6.701  0.1007 -0.1530  0.0983
  161POPC   C2B 2483   5.657   3.943   7.077  0.0614 -0.0120  0.0244
  161POPC   C3B 2484   5.828   3.828   7.397 -0.1644  0.0876  0.1847
  161POPC   C4B 2485   6.033   3.934   7.803 -0.0187 -0.0681 -0.0153
  162POPC   NC3 2486   9.840   9.885   5.183 -0.1284 -0.0262  0.0943
  162POPC   PO4 2487   9.448   9.966   5.055 -0.1481 -0.0944  0.0900
  162POPC   GL1 2488   9.409  10.037   5.483  0.2157  0.0732 -0.0796
  162POPC   GL2 2489   9.706   9.918   5.677  0.0445 -0.0161  0.0920
  162POPC   C1A 2490   9.198  10.051   5.848 -0.0785 -0.2605 -0.3898
  162POPC   D2A 2491   8.967  10.119   6.238  0.0149  0.1194  0.2051
  162POPC   C3A 2492   9.170  10.075   6.652 -0.0035  0.0669 -0.0425
  162POPC   C4A 2493   9.415  10.045   7.044 -0.3521 -0.2006 -0.0904
  162POPC   C1B 2494   9.760   9.703   5.986 -0.1145  0.1157 -0.0535
  162POPC   C2B 2495   9.890   9.216   5.951  0.0803  0.0750  0.0933
  162POPC   C3B 2496   9.529   9.108   6.151  0.1837  0.0967  0.1505
  162POPC   C4B 2497   9.352   8.723   6.338 -0.1021 -0.0722 -0.0172
  163POPC   NC3 2498   1.746   6.338   3.203  0.0643  0.2918 -0.0691
  163POPC   PO4 2499   1.394   6.487   3.061  0.4656  0.1263  0.0485
  163POPC   GL1 2500   1.377   6.541   3.571 -0.1417  0.0757  0.0436
  163POPC   GL2 2501   1.606   6.417   3.732  0.1054 -0.3009 -0.1494
  163POPC   C1A 2502   1.238   6.690   3.999 -0.2837 -0.0298  0.0668
  163POPC   D2A 2503   1.105   6.382   4.357  0.3366  0.1598  0.1103
  163POPC   C3A 2504   1.411   5.929   4.548 -0.0145 -0.0589  0.3085
  163POPC   C4A 2505   1.552   5.654   4.320 -0.0339 -0.2807  0.1440
  163POPC   C1B 2506   1.988   6.518   3.953  0.2944  0.0217 -0.1389
  163POPC   C2B 2507   2.078   6.473   4.389 -0.0954  0.3733 -0.0805
  163POPC   C3B 2508   2.302   6.147   4.560  0.0832  0.0694 -0.0837
  163POPC   C4B 2509   2.736   6.052   4.556  0.2294 -0.1968  0.2385
  164POPC   NC3 2510   1.708   2.454   4.921  0.0869 -0.3128  0.0926
  164POPC   PO4 2511   1.475   2.337   5.295  0.0736 -0.0381  0.0859
  164POPC   GL1 2512   1.301   2.763   5.540  0.0530  0.0233  0.0622
  164POPC   GL2 2513   1.565   2.984   5.800  0.3488 -0.0901 -0.1376
  164POPC   C1A 2514   1.042   2.891   5.914 -0.2944 -0.0280  0.0492
  164POPC   D2A 2515   0.715   2.802   6.210  0.2733  0.1142  0.1935
  164POPC   C3A 2516   0.758   2.851   6.621  0.1190 -0.0828  0.2338
  164POPC   C4A 2517   0.528   3.048   6.911 -0.1789 -0.1836 -0.1948
  164POPC   C1B 2518   1.430   3.031   6.260  0.2066 -0.0022 -0.3727
  164POPC   C2B 2519   1.217   3.195   6.658 -0.4665  0.0420  0.0764
  164POPC   C3B 2520   1.011   3.153   7.047  0.1189  0.0456  0.1554
  164POPC   C4B 2521   0.992   3.310   7.489  0.0965 -0.1736  0.0545
  165POPC   NC3 2522   6.001   6.225   5.462  0.0155 -0.1022 -0.0559
  165POPC   PO4 2523   5.638   6.663   5.265  0.2520 -0.2386  0.0049
  165POPC   GL1 2524   5.955   6.852   5.552  0.2015  0.1491  0.2389
  165POPC   GL2 2525   6.065   6.612   5.784  0.1345 -0.0703 -0.1128
  165POPC   C1A 2526   6.058   7.107   5.906  0.1783 -0.1964 -0.1444
  165POPC   D2A 2527   6.086   7.523   6.135 -0.1146 -0.1646 -0.1014
  165POPC   C3A 2528   5.727   7.796   6.115 -0.3029 -0.0388 -0.1966
  165POPC   C4A 2529   5.685   8.088   5.736 -0.2463 -0.0441 -0.1428
  165POPC   C1B 2530   6.115   6.562   6.261  0.0439  0.2496  0.0526
  165POPC   C2B 2531   6.355   6.715   6.651  0.1309  0.1686  0.2036
  165POPC   C3B 2532   6.727   6.866   6.953 -0.2645  0.0719 -0.2863
  165POPC   C4B 2533   6.992   7.019   7.354  0.0918 -0.0500 -0.2541
  166POPC   NC3 2534   4.777   2.183   5.325 -0.0618 -0.0736  0.3985
  166POPC   PO4 2535   4.766   1.751   5.090 -0.1164 -0.1070  0.1920
  166POPC   GL1 2536   4.603   1.611   5.353 -0.1040  0.0803  0.0409
  166POPC   GL2 2537   4.291   1.492   5.341  0.0293  0.2071 -0.2049
  166POPC   C1A 2538   4.523   1.569   5.776 -0.0350 -0.0835  0.0788
  166POPC   D2A 2539   4.391   1.451   6.239 -0.1955  0.0969 -0.1655
  166POPC   C3A 2540   4.648   1.265   6.584  0.0378 -0.2030  0.1077
  166POPC   C4A 2541   4.931   1.331   7.050  0.0541  0.0658 -0.0971
  166POPC   C1B 2542   4.035   1.407   5.665 -0.1503  0.2366 -0.2866
  166POPC   C2B 2543   4.098   1.267   5.919  0.1330  0.0687  0.3228
  166POPC   C3B 2544   4.088   1.009   6.199  0.5281 -0.0888  0.0525
  166POPC   C4B 2545   4.093   1.220   6.662 -0.1802  0.4423  0.1484
  167POPC   NC3 2546   8.940   3.000   5.091 -0.1346 -0.0076 -0.1969
  167POPC   PO4 2547   8.499   3.109   5.322 -0.2530  0.1734  0.1454
  167POPC   GL1 2548   8.481   3.236   5.679 -0.1760 -0.0504 -0.0503
  167POPC   GL2 2549   8.267   3.063   5.776  0.0462  0.5056 -0.1682
  167POPC   C1A 2550   8.622   3.427   6.115 -0.1726  0.0698 -0.2351
  167POPC   D2A 2551   8.880   3.686   6.447  0.4309  0.0548 -0.0941
  167POPC   C3A 2552   8.881   3.550   6.828 -0.2955  0.2975 -0.0158
  167POPC   C4A 2553   8.801   3.529   7.253  0.2382  0.1193 -0.1889
  167POPC   C1B 2554   7.866   3.104   6.038  0.0066  0.0664  0.1722
  167POPC   C2B 2555   7.837   2.893   6.390  0.0758  0.0222  0.0098
  167POPC   C3B 2556   8.048   2.472   6.642  0.1505 -0.0703  0.2285
  167POPC   C4B 2557   8.101   2.297   6.966  0.0193  0.0802 -0.0081
  168POPC   NC3 2558   2.932   4.720   4.476  0.0948  0.1852 -0.0767
  168POPC   PO4 2559   3.285   4.382   4.548 -0.1524 -0.0982  0.2743
  168POPC   GL1 2560   3.377   4.192   5.036  0.1860  0.3848 -0.1250
  168POPC   GL2 2561   3.506   4.432   5.252 -0.0808  0.0445 -0.0161
  168POPC   C1A 2562   3.303   3.954   5.421  0.0555 -0.1184 -0.1816
  168POPC   D2A 2563   3.132   4.126   5.899  0.0595  0.0342  0.2703
  168POPC   C3A 2564   3.129   4.448   6.092  0.0562 -0.2662 -0.2724
  168POPC   C4A 2565   2.821   4.737   6.402 -0.0636 -0.1026 -0.0622
  168POPC   C1B 2566   3.041   4.380   5.514 -0.2345 -0.0798  0.5079
  168POPC   C2B 2567   2.888   4.604   5.722  0.1207  0.0631 -0.1306
  168POPC   C3B 2568   2.504   4.738   5.954 -0.2085 -0.1783 -0.1742
  168POPC   C4B 2569   2.093   4.873   6.083 -0.2196 -0.1142  0.1333
  169POPC   NC3 2570   9.748   2.618   5.131 -0.2110  0.0595 -0.0966
  169POPC   PO4 2571   9.328   2.577   4.989  0.0178 -0.3523 -0.0055
  169POPC   GL1 2572   9.353   2.394   5.398 -0.0865  0.1272  0.0802
  169POPC   GL2 2573   9.576   2.598   5.636 -0.1138 -0.1173 -0.0442
  169POPC   C1A 2574   9.194   2.220   5.844 -0.2177  0.0008  0.0847
  169POPC   D2A 2575   8.924   2.242   6.186  0.2344 -0.1574 -0.3104
  169POPC   C3A 2576   8.840   2.724   6.281 -0.1151 -0.1996  0.0020
  169POPC   C4A 2577   8.469   2.869   6.413 -0.3026 -0.4793 -0.0745
  169POPC   C1B 2578   9.843   2.667   5.955  0.0974 -0.1854 -0.2484
  169POPC   C2B 2579   9.888   2.811   6.431 -0.0306 -0.2153 -0.0024
  169POPC   C3B 2580   9.906   3.313   6.719  0.2149  0.0648 -0.0756
  169POPC   C4B 2581   9.857   3.655   7.009  0.2407  0.0969  0.0668
  170POPC   NC3 2582   9.520   6.881   4.275 -0.1817 -0.2888 -0.0622
  170POPC   PO4 2583   9.524   6.356   4.222 -0.3455 -0.0863 -0.3255
  170POPC   GL1 2584   9.756   6.316   4.525  0.1922 -0.1160  0.2648
  170POPC   GL2 2585   9.696   6.619   4.674  0.3133 -0.2055 -0.0730
  170POPC   C1A 2586  10.164   6.228   4.692  0.4404 -0.1995 -0.3337
  170POPC   D2A 2587  10.460   6.236   5.014  0.0768 -0.2080 -0.3072
  170POPC   C3A 2588  10.650   5.864   5.129  0.0141 -0.1394  0.0276
  170POPC   C4A 2589  11.028   5.826   5.210  0.1760 -0.0138  0.0291
  170POPC   C1B 2590  10.037   6.601   4.992  0.2076  0.3144  0.1211
  170POPC   C2B 2591  10.486   6.709   4.910  0.0578  0.0156  0.0212
  170POPC   C3B 2592  10.633   6.913   5.275  0.2049 -0.0825  0.1398
  170POPC   C4B 2593  10.657   7.322   5.369  0.0948 -0.0565 -0.2334
  171POPC   NC3 2594   6.280   3.591   4.855 -0.3892  0.1874  0.0696
  171POPC   PO4 2595   6.387   3.594   5.302 -0.3284  0.0606  0.1807
  171POPC   GL1 2596   6.485   3.511   5.781 -0.0966  0.2474 -0.0236
  171POPC   GL2 2597   6.652   3.645   5.900 -0.0268 -0.1831 -0.0600
  171POPC   C1A 2598   6.416   3.349   6.231  0.1365 -0.0642  0.0242
  171POPC   D2A 2599   6.655   3.272   6.598 -0.3395 -0.2013 -0.4286
  171POPC   C3A 2600   6.577   3.308   7.087  0.3913 -0.0529 -0.3950
  171POPC   C4A 2601   6.679   3.495   7.453  0.2618  0.0246 -0.0095
  171POPC   C1B 2602   6.197   3.745   6.096  0.1317  0.0258 -0.0056
  171POPC   C2B 2603   5.975   3.874   6.340 -0.1585 -0.1906 -0.2725
  171POPC   C3B 2604   5.977   3.943   6.699  0.1116 -0.1033 -0.0287
  171POPC   C4B 2605   6.233   3.793   7.069  0.1761 -0.0014 -0.3543
  172POPC   NC3 2606   5.913   5.884   4.854 -0.3482 -0.1054 -0.3733
  172POPC   PO4 2607   5.955   5.731   5.225 -0.0395 -0.3380  0.1198
  172POPC   GL1 2608   5.987   5.607   5.697 -0.1827 -0.1107 -0.0288
  172POPC   GL2 2609   5.740   5.364   5.814 -0.1192  0.4287  0.0551
  172POPC   C1A 2610   5.928   5.745   6.122  0.3495  0.4577 -0.1119
  172POPC   D2A 2611   6.013   5.967   6.452 -0.0703 -0.0394  0.2405
  172POPC   C3A 2612   6.187   5.789   6.734 -0.2557  0.1049 -0.2712
  172POPC   C4A 2613   6.301   5.634   7.144  0.0942 -0.0020  0.3514
  172POPC   C1B 2614   5.768   5.281   6.268  0.1521 -0.0212 -0.1746
  172POPC   C2B 2615   5.455   5.382   6.608  0.0408  0.0750 -0.1282
  172POPC   C3B 2616   5.317   5.441   6.926 -0.1734  0.1605 -0.3269
  172POPC   C4B 2617   5.362   5.532   7.275 -0.1765  0.1419 -0.2235
  173POPC   NC3 2618   8.276   8.095   4.438  0.0330 -0.1992 -0.0984
  173POPC   PO4 2619   8.482   7.929   4.876 -0.1604  0.1485  0.0998
  173POPC   GL1 2620   8.278   7.908   5.249 -0.3365  0.1379  0.0946
  173POPC   GL2 2621   8.518   8.087   5.347 -0.2975  0.0177  0.0156
  173POPC   C1A 2622   8.051   8.039   5.665  0.4689 -0.3415  0.0468
  173POPC   D2A 2623   7.965   8.293   5.986 -0.0647  0.1676 -0.1432
  173POPC   C3A 2624   8.207   8.171   6.366  0.2653  0.0556 -0.1510
  173POPC   C4A 2625   8.509   8.300   6.626 -0.0334 -0.0164  0.1482
  173POPC   C1B 2626   8.560   7.998   5.730  0.2332 -0.1812  0.2291
  173POPC   C2B 2627   8.655   8.089   6.146 -0.1415 -0.2785  0.0396
  173POPC   C3B 2628   9.043   8.206   6.385  0.1833  0.1574 -0.4117
  173POPC   C4B 2629   9.216   8.133   6.792 -0.0596 -0.2833  0.0341
  174POPC   NC3 2630   3.988   6.514   3.928 -0.0770  0.3042 -0.1918
  174POPC   PO4 2631   3.980   6.916   4.276  0.1454 -0.0838  0.4263
  174POPC   GL1 2632   3.792   6.979   4.741 -0.0477  0.1157 -0.0502
  174POPC   GL2 2633   3.933   7.142   5.007  0.0033 -0.0370  0.2361
  174POPC   C1A 2634   3.568   6.830   5.113 -0.2235 -0.1192 -0.0309
  174POPC   D2A 2635   3.434   6.560   5.491  0.1619 -0.3371  0.2240
  174POPC   C3A 2636   3.065   6.758   5.851  0.3215  0.0145 -0.0121
  174POPC   C4A 2637   2.984   6.726   6.120 -0.2936  0.1632  0.0970
  174POPC   C1B 2638   3.752   7.326   5.429 -0.0102  0.2134 -0.1658
  174POPC   C2B 2639   3.589   7.626   5.813 -0.0046  0.2329 -0.0621
  174POPC   C3B 2640   3.709   7.935   6.121  0.5307 -0.2687 -0.1389
  174POPC   C4B 2641   3.942   8.183   6.443  0.1629 -0.2241  0.1075
  175POPC   NC3 2642   5.617   0.576   4.571  0.0734 -0.1562  0.0379
  175POPC   PO4 2643   5.630   0.202   4.822  0.1845  0.0082  0.2117
  175POPC   GL1 2644   5.671   0.227   5.373  0.2399  0.0620  0.0749
  175POPC   GL2 2645   5.747   0.527   5.504  0.1474 -0.1940  0.0970
  175POPC   C1A 2646   5.792   0.037   5.784  0.1499 -0.1203 -0.2909
  175POPC   D2A 2647   6.065   0.012   6.075  0.1459  0.0344  0.1031
  175POPC   C3A 2648   5.950   0.280   6.430  0.0175 -0.3412  0.1398
  175POPC   C4A 2649   5.724   0.172   6.762  0.0435 -0.1558 -0.0213
  175POPC   C1B 2650   5.864   0.905   5.791  0.0698 -0.0668  0.1543
  175POPC   C2B 2651   6.137   1.237   5.918 -0.0860  0.1600  0.0593
  175POPC   C3B 2652   5.992   1.637   6.125  0.1007 -0.2545 -0.2705
  175POPC   C4B 2653   5.738   1.981   6.249  0.4718  0.0120  0.1893
  176POPC   NC3 2654   0.099  10.030   4.785  0.0205  0.0025 -0.0886
  176POPC   PO4 2655   0.062   9.685   4.995 -0.0539 -0.0046  0.3859
  176POPC   GL1 2656   0.304   9.505   5.350  0.1327 -0.0842  0.0925
  176POPC   GL2 2657   0.126   9.228   5.336  0.3346 -0.1781 -0.0178
  176POPC   C1A 2658   0.477   9.670   5.731 -0.1379 -0.2618  0.1133
  176POPC   D2A 2659   0.588   9.432   6.089 -0.1224 -0.2352 -0.3432
  176POPC   C3A 2660   0.342   9.098   6.398  0.2942  0.0668  0.0871
  176POPC   C4A 2661   0.302   8.980   6.797  0.2342 -0.1274 -0.3406
  176POPC   C1B 2662   0.264   9.079   5.705 -0.0044  0.2492 -0.1923
  176POPC   C2B 2663   0.076   8.896   6.038 -0.2658 -0.2581  0.1502
  176POPC   C3B 2664   0.031   8.620   6.387  0.3506 -0.0883  0.1276
  176POPC   C4B 2665   0.069   8.548   6.784 -0.0194  0.0818 -0.4513
  177POPC   NC3 2666   1.407  10.171   5.289 -0.4403 -0.1223  0.0798
  177POPC   PO4 2667   1.278  10.616   5.319  0.1019  0.2647 -0.0234
  177POPC   GL1 2668   1.201  10.403   5.755 -0.1270  0.0875  0.1735
  177POPC   GL2 2669   1.410  10.180   5.758  0.2655 -0.0597  0.0040
  177POPC   C1A 2670   0.932  10.344   6.088  0.1120 -0.0104 -0.3922
  177POPC   D2A 2671   0.739  10.480   6.503  0.1552 -0.1248 -0.2724
  177POPC   C3A 2672   0.539  10.805   6.406 -0.1134  0.2367 -0.1911
  177POPC   C4A 2673   0.330  11.164   6.715  0.0459 -0.0881  0.0583
  177POPC   C1B 2674   1.747  10.114   5.929  0.3685 -0.1416 -0.0032
  177POPC   C2B 2675   1.879   9.985   6.384 -0.1053  0.0782  0.0645
  177POPC   C3B 2676   1.898  10.086   6.757 -0.0843  0.0692 -0.0669
  177POPC   C4B 2677   2.011  10.221   7.255  0.2497  0.0588 -0.0656
  178POPC   NC3 2678   7.980   7.254   4.757  0.1396  0.1428  0.0929
  178POPC   PO4 2679   8.447   7.410   4.820  0.0112 -0.3347  0.2252
  178POPC   GL1 2680   8.602   7.487   5.288 -0.0129  0.2546 -0.0345
  178POPC   GL2 2681   8.385   7.546   5.613 -0.0419  0.0726  0.0717
  178POPC   C1A 2682   8.850   7.428   5.722  0.2359 -0.0798  0.2996
  178POPC   D2A 2683   9.202   7.166   5.937 -0.3066 -0.0233 -0.1155
  178POPC   C3A 2684   9.116   7.260   6.321  0.2381 -0.3861 -0.0149
  178POPC   C4A 2685   8.948   7.359   6.794  0.3692  0.5061  0.0063
  178POPC   C1B 2686   8.468   7.352   6.021  0.4285  0.0346 -0.0472
  178POPC   C2B 2687   8.577   7.188   6.488 -0.1376  0.0388 -0.0401
  178POPC   C3B 2688   8.363   7.155   6.956  0.1580  0.1137  0.0854
  178POPC   C4B 2689   8.277   7.178   7.354  0.0894 -0.2058 -0.3731
  179POPC   NC3 2690   2.385   8.618   4.704 -0.0117  0.1614 -0.0067
  179POPC   PO4 2691   2.805   8.851   4.618 -0.1937  0.0004  0.2883
  179POPC   GL1 2692   2.790   8.689   5.056 -0.0825  0.0889  0.0580
  179POPC   GL2 2693   2.630   8.322   5.023  0.4590  0.0385  0.1933
  179POPC   C1A 2694   2.904   8.365   5.425 -0.0774  0.1424 -0.1934
  179POPC   D2A 2695   2.747   8.030   5.644 -0.4363  0.2064  0.0775
  179POPC   C3A 2696   3.024   7.980   5.907 -0.1661  0.2226 -0.2103
  179POPC   C4A 2697   3.120   7.790   6.157 -0.1674  0.2291 -0.0693
  179POPC   C1B 2698   2.422   8.062   5.328 -0.0783 -0.0274  0.1437
  179POPC   C2B 2699   2.323   7.957   5.833  0.1944  0.1229  0.3747
  179POPC   C3B 2700   2.394   7.804   6.229 -0.1736 -0.2749  0.0232
  179POPC   C4B 2701   2.185   7.690   6.593  0.1400 -0.2143  0.3351
  180POPC   NC3 2702   4.722   7.025   4.860  0.0971 -0.2142  0.4121
  180POPC   PO4 2703   4.273   6.991   4.720  0.0252 -0.0414 -0.0006
  180POPC   GL1 2704   4.382   7.020   5.233  0.1472  0.1147 -0.0171
  180POPC   GL2 2705   4.456   6.722   5.407 -0.2140  0.1347  0.0038
  180POPC   C1A 2706   4.323   7.311   5.505 -0.0358  0.0973 -0.4362
  180POPC   D2A 2707   4.014   7.367   5.911  0.2707 -0.2687 -0.0587
  180POPC   C3A 2708   3.903   7.056   6.268 -0.2004 -0.2852 -0.0558
  180POPC   C4A 2709   3.766   7.010   6.583 -0.3081  0.2446 -0.0379
  180POPC   C1B 2710   4.296   6.768   5.807  0.1002  0.0052 -0.2510
  180POPC   C2B 2711   4.040   6.566   6.223 -0.2963  0.0018 -0.1848
  180POPC   C3B 2712   3.757   6.515   6.615 -0.1867  0.3705 -0.3482
  180POPC   C4B 2713   3.806   6.339   7.059  0.0688 -0.1929 -0.0207
  181POPC   NC3 2714   7.817   4.940   5.098 -0.0732  0.0561  0.0251
  181POPC   PO4 2715   7.850   4.524   5.156 -0.1651 -0.2538  0.0907
  181POPC   GL1 2716   8.056   4.514   5.419 -0.0436 -0.0496  0.0871
  181POPC   GL2 2717   8.146   4.846   5.522  0.3393  0.1424 -0.1731
  181POPC   C1A 2718   8.227   4.329   5.806 -0.0897  0.2550 -0.2966
  181POPC   D2A 2719   8.107   4.349   6.205  0.0930 -0.1359  0.2047
  181POPC   C3A 2720   8.446   4.576   6.434 -0.1078 -0.1879  0.1675
  181POPC   C4A 2721   8.523   4.928   6.669  0.0833 -0.1922  0.1807
  181POPC   C1B 2722   8.292   4.826   5.929 -0.1222 -0.2470  0.0410
  181POPC   C2B 2723   8.369   5.082   6.257 -0.2335 -0.1951  0.3757
  181POPC   C3B 2724   8.467   5.400   6.518 -0.1346 -0.0033 -0.1441
  181POPC   C4B 2725   8.761   5.464   6.749  0.2089  0.0924 -0.1060
  182POPC   NC3 2726   4.005   1.210   4.996 -0.2127 -0.0926 -0.2925
  182POPC   PO4 2727   3.826   0.764   4.872 -0.2534  0.1582 -0.3100
  182POPC   GL1 2728   4.046   0.678   5.272 -0.1603 -0.1110 -0.1039
  182POPC   GL2 2729   4.162   0.944   5.457  0.2399  0.1377  0.0063
  182POPC   C1A 2730   3.754   0.410   5.686 -0.0436 -0.1287 -0.2673
  182POPC   D2A 2731   3.857   0.270   6.118  0.2103 -0.3696  0.0898
  182POPC   C3A 2732   3.938   0.600   6.488  0.0959  0.3107 -0.1718
  182POPC   C4A 2733   4.307   0.776   6.653 -0.1224 -0.4738 -0.3295
  182POPC   C1B 2734   4.272   0.706   5.821 -0.0696  0.0994 -0.0072
  182POPC   C2B 2735   4.487   0.454   6.099 -0.0787 -0.1118 -0.5001
  182POPC   C3B 2736   4.265   0.159   6.377 -0.0995 -0.0131 -0.1451
  182POPC   C4B 2737   4.285   0.011   6.755  0.1864 -0.1807  0.0047
  183POPC   NC3 2738   8.376   1.175   4.981 -0.2820  0.0836 -0.0069
  183POPC   PO4 2739   8.750   0.853   4.915  0.4272 -0.2529 -0.2205
  183POPC   GL1 2740   8.670   0.858   5.427  0.0015  0.0521 -0.0895
  183POPC   GL2 2741   8.270   0.989   5.476 -0.0041 -0.1154 -0.1666
  183POPC   C1A 2742   8.483   0.664   5.783 -0.2163  0.1304 -0.5245
  183POPC   D2A 2743   8.350   0.653   6.271  0.0376  0.2693 -0.0935
  183POPC   C3A 2744   8.274   0.525   6.713  0.1755 -0.1627 -0.1944
  183POPC   C4A 2745   8.384   0.708   7.073 -0.2954 -0.2786  0.0592
  183POPC   C1B 2746   8.250   1.059   5.921  0.3110  0.1335 -0.1293
  183POPC   C2B 2747   8.558   1.072   6.378 -0.0919  0.1096 -0.2908
  183POPC   C3B 2748   8.701   0.858   6.661 -0.0507  0.3464 -0.1045
  183POPC   C4B 2749   9.008   0.873   6.894 -0.1280  0.0105 -0.1187
  184POPC   NC3 2750   7.558   8.316   4.952  0.0676  0.0892  0.0777
  184POPC   PO4 2751   7.263   7.995   5.235  0.0432 -0.0208 -0.2678
  184POPC   GL1 2752   7.029   7.980   5.591  0.1701  0.2212 -0.3936
  184POPC   GL2 2753   6.924   8.386   5.420 -0.0181  0.2272 -0.3010
  184POPC   C1A 2754   7.126   7.899   5.991  0.0700 -0.2539 -0.1257
  184POPC   D2A 2755   7.311   7.942   6.415  0.2379  0.0468 -0.0287
  184POPC   C3A 2756   7.194   7.612   6.720 -0.0993 -0.3536  0.1199
  184POPC   C4A 2757   6.841   7.341   6.824 -0.1165  0.1181  0.0529
  184POPC   C1B 2758   7.049   8.408   5.800 -0.1750 -0.3213 -0.1629
  184POPC   C2B 2759   7.487   8.313   6.107  0.1513 -0.0214  0.1990
  184POPC   C3B 2760   7.649   8.426   6.472 -0.2205 -0.0036 -0.0596
  184POPC   C4B 2761   7.492   8.256   6.834 -0.4699 -0.1161 -0.0219
  185POPC   NC3 2762   3.042   6.134   3.144 -0.1439 -0.2175 -0.1976
  185POPC   PO4 2763   3.121   5.928   3.520 -0.0539 -0.1741  0.2654
  185POPC   GL1 2764   2.833   5.924   3.835 -0.1080 -0.3729  0.0725
  185POPC   GL2 2765   2.937   5.706   4.174 -0.0829 -0.0193  0.2509
  185POPC   C1A 2766   2.500   6.222   4.008  0.0895 -0.0028 -0.0331
  185POPC   D2A 2767   2.566   6.591   4.280 -0.0153  0.0255  0.1265
  185POPC   C3A 2768   2.568   6.536   4.704 -0.0304 -0.0231  0.0906
  185POPC   C4A 2769   2.652   6.315   5.092  0.2154 -0.2797 -0.0504
  185POPC   C1B 2770   2.501   5.812   4.201 -0.2212  0.1104  0.1212
  185POPC   C2B 2771   2.086   5.977   3.968  0.1335  0.3013 -0.2270
  185POPC   C3B 2772   1.691   6.139   4.179 -0.4578  0.0069 -0.3340
  185POPC   C4B 2773   1.598   6.458   4.300  0.0850  0.1290  0.1421
  186POPC   NC3 2774   7.029   7.482   5.416  0.0375  0.2934 -0.2361
  186POPC   PO4 2775   6.843   7.109   5.679 -0.0248 -0.0301 -0.0462
  186POPC   GL1 2776   6.898   7.185   6.023 -0.3867 -0.2478 -0.1601
  186POPC   GL2 2777   7.145   7.439   5.932  0.3926 -0.2111  0.1391
  186POPC   C1A 2778   7.106   7.115   6.369 -0.2436 -0.0170  0.0105
  186POPC   D2A 2779   7.261   6.979   6.735  0.1478  0.0030 -0.0587
  186POPC   C3A 2780   7.290   7.319   7.088 -0.0759 -0.0260  0.0407
  186POPC   C4A 2781   7.046   7.614   7.164 -0.1236  0.1445 -0.1157
  186POPC   C1B 2782   6.947   7.595   6.301  0.0269 -0.3696 -0.0743
  186POPC   C2B 2783   6.747   7.827   6.721 -0.0615  0.0938  0.2782
  186POPC   C3B 2784   6.716   7.978   7.131 -0.0049  0.2273 -0.2182
  186POPC   C4B 2785   6.963   7.955   7.560 -0.1764 -0.1557  0.2468
  187POPC   NC3 2786   0.968   8.833   4.360 -0.1169 -0.0752 -0.1987
  187POPC   PO4 2787   0.751   9.175   4.499 -0.3579  0.3286 -0.1160
  187POPC   GL1 2788   0.733   9.055   4.890 -0.1924  0.0546  0.1324
  187POPC   GL2 2789   0.394   8.894   5.067 -0.0446  0.0247 -0.1576
  187POPC   C1A 2790   0.803   9.061   5.280 -0.1416 -0.2787 -0.0787
  187POPC   D2A 2791   0.810   9.036   5.719 -0.1555 -0.3694  0.0532
  187POPC   C3A 2792   0.650   8.778   5.885 -0.0813  0.3496 -0.1997
  187POPC   C4A 2793   0.556   8.620   6.271  0.1452  0.0112 -0.3207
  187POPC   C1B 2794   0.680   8.581   5.351 -0.2719  0.0909 -0.4030
  187POPC   C2B 2795   0.781   8.330   5.656  0.1985  0.2896 -0.4229
  187POPC   C3B 2796   0.555   8.211   6.040 -0.3187 -0.2636 -0.1854
  187POPC   C4B 2797   0.368   8.249   6.499 -0.0487  0.0225 -0.0161
  188POPC   NC3 2798   0.447   2.122   5.245  0.3200  0.1674  0.2168
  188POPC   PO4 2799   0.302   2.432   5.436 -0.1037  0.0323  0.0805
  188POPC   GL1 2800  -0.032   2.509   5.645  0.1261 -0.0793 -0.0925
  188POPC   GL2 2801   0.022   2.852   5.606 -0.0778 -0.1244 -0.0291
  188POPC   C1A 2802   0.175   2.731   6.066  0.2630  0.2155  0.1974
  188POPC   D2A 2803   0.259   2.652   6.458 -0.0210  0.0419 -0.2223
  188POPC   C3A 2804  -0.001   2.729   6.789  0.3634 -0.0705  0.0530
  188POPC   C4A 2805   0.066   3.084   7.097  0.1368  0.1026 -0.0355
  188POPC   C1B 2806  -0.134   3.127   6.068  0.0786 -0.1402  0.0434
  188POPC   C2B 2807   0.123   3.146   6.515 -0.2292  0.0385  0.3096
  188POPC   C3B 2808   0.256   3.473   6.719 -0.1352  0.2667  0.2625
  188POPC   C4B 2809   0.173   3.851   6.828  0.2244 -0.1414 -0.1264
  189POPC   NC3 2810   1.726   7.913   3.740 -0.1464 -0.1075 -0.3031
  189POPC   PO4 2811   1.766   8.167   4.211  0.0710 -0.0688  0.0372
  189POPC   GL1 2812   1.906   8.118   4.713 -0.0642  0.0990 -0.3490
  189POPC   GL2 2813   2.051   8.334   4.924  0.1149 -0.2340  0.0543
  189POPC   C1A 2814   1.821   7.937   5.028  0.1292 -0.0756 -0.2385
  189POPC   D2A 2815   1.561   7.850   5.357  0.1092  0.0212  0.3168
  189POPC   C3A 2816   1.200   7.643   5.541  0.1379  0.0563  0.0313
  189POPC   C4A 2817   0.868   7.824   5.748  0.2538  0.1141  0.1017
  189POPC   C1B 2818   2.253   8.547   5.340 -0.2226  0.2734  0.0522
  189POPC   C2B 2819   2.435   8.461   5.752  0.0148 -0.0892 -0.1778
  189POPC   C3B 2820   2.622   8.218   6.089 -0.0550 -0.0385  0.1939
  189POPC   C4B 2821   2.689   8.146   6.499 -0.1096  0.1264 -0.0101
  190POPC   NC3 2822   6.875   5.460   5.192  0.0768  0.4115  0.1976
  190POPC   PO4 2823   7.241   5.518   5.553 -0.0676  0.3266 -0.0686
  190POPC   GL1 2824   7.481   5.400   5.958  0.0488 -0.3363 -0.0960
  190POPC   GL2 2825   7.413   5.116   6.204  0.1487 -0.0543  0.0558
  190POPC   C1A 2826   7.318   5.492   6.495  0.0291  0.0509  0.0670
  190POPC   D2A 2827   7.108   5.613   6.941 -0.2015  0.0485  0.0596
  190POPC   C3A 2828   6.958   5.633   7.318  0.1045  0.0315  0.1555
  190POPC   C4A 2829   6.635   5.336   7.420 -0.0011 -0.0172  0.0996
  190POPC   C1B 2830   7.553   5.097   6.620  0.3966  0.0074  0.0158
  190POPC   C2B 2831   7.601   5.275   6.976  0.0232  0.0810  0.1048
  190POPC   C3B 2832   7.757   5.553   7.099 -0.0042  0.1396 -0.1143
  190POPC   C4B 2833   7.905   6.019   7.224 -0.0423  0.5026 -0.1397
  191POPC   NC3 2834   1.087   1.487   5.348 -0.0707  0.0300 -0.1918
  191POPC   PO4 2835   0.716   1.638   5.266 -0.2092  0.1199 -0.1005
  191POPC   GL1 2836   0.647   1.876   5.639  0.1159  0.1258  0.3258
  191POPC   GL2 2837   0.711   2.166   5.638 -0.0420  0.0387  0.2817
  191POPC   C1A 2838   0.601   1.865   6.116  0.0847  0.0437  0.1215
  191POPC   D2A 2839   0.867   1.695   6.455  0.0468 -0.0683  0.3363
  191POPC   C3A 2840   0.918   1.876   6.871 -0.1888  0.1871  0.5641
  191POPC   C4A 2841   1.154   2.309   6.878 -0.1298  0.1776  0.1831
  191POPC   C1B 2842   0.945   2.198   5.944 -0.0121  0.1085 -0.2599
  191POPC   C2B 2843   0.905   2.201   6.419  0.0416 -0.0082  0.0196
  191POPC   C3B 2844   0.674   2.404   6.793  0.2722 -0.0691 -0.1954
  191POPC   C4B 2845   0.814   2.699   7.068  0.0131 -0.1601 -0.2801
  192POPC   NC3 2846   0.812   5.278   3.368 -0.0422 -0.0966 -0.0805
  192POPC   PO4 2847   0.833   4.918   3.579  0.0998 -0.0281  0.1087
  192POPC   GL1 2848   0.885   4.757   3.993 -0.0254  0.1176 -0.4017
  192POPC   GL2 2849   0.600   4.625   4.034 -0.1250 -0.2671  0.3264
  192POPC   C1A 2850   0.790   4.977   4.354 -0.1211  0.1079  0.1945
  192POPC   D2A 2851   0.704   5.010   4.704 -0.2935  0.1866  0.0739
  192POPC   C3A 2852   0.795   4.903   5.096  0.6933  0.0997  0.0837
  192POPC   C4A 2853   0.718   5.029   5.601  0.4153  0.2550  0.0469
  192POPC   C1B 2854   0.816   4.441   4.380  0.4246  0.0888 -0.2552
  192POPC   C2B 2855   0.736   4.463   4.909  0.1240  0.2467 -0.0270
  192POPC   C3B 2856   0.808   4.204   5.325 -0.0366  0.0412 -0.1462
  192POPC   C4B 2857   0.442   4.053   5.560  0.0862  0.0696  0.0107
  193POPC   NC3 2858   1.799  10.062   4.697 -0.1678 -0.1345 -0.0798
  193POPC   PO4 2859   1.513   9.764   4.931 -0.0868  0.0890 -0.1032
  193POPC   GL1 2860   1.610   9.691   5.360 -0.0653  0.3093 -0.2198
  193POPC   GL2 2861   1.372   9.707   5.484  0.0576  0.0996 -0.1499
  193POPC   C1A 2862   1.773   9.355   5.582 -0.1554  0.1551  0.2375
  193POPC   D2A 2863   1.720   9.303   6.032 -0.2088  0.1715 -0.0007
  193POPC   C3A 2864   1.571   9.509   6.384 -0.3685  0.0982 -0.0732
  193POPC   C4A 2865   1.497   9.781   6.706  0.1257 -0.1481 -0.2727
  193POPC   C1B 2866   1.219   9.446   5.839 -0.0721 -0.2355  0.1594
  193POPC   C2B 2867   1.029   9.538   6.283  0.1404 -0.0179  0.1871
  193POPC   C3B 2868   0.618   9.600   6.592  0.0182  0.1657  0.2784
  193POPC   C4B 2869   0.251   9.761   6.597  0.0192  0.1707  0.0743
  194POPC   NC3 2870   3.845   5.030   4.613 -0.1498  0.0286  0.2472
  194POPC   PO4 2871   3.408   4.918   4.565 -0.0180  0.3218  0.5004
  194POPC   GL1 2872   3.092   5.006   4.880 -0.0558 -0.1687  0.0831
  194POPC   GL2 2873   3.130   4.661   4.927 -0.1109  0.1041 -0.2590
  194POPC   C1A 2874   2.937   5.203   5.246  0.0915  0.0067  0.1051
  194POPC   D2A 2875   2.705   5.084   5.583 -0.1372 -0.0016  0.0158
  194POPC   C3A 2876   2.316   5.303   5.781  0.2678 -0.2910  0.0083
  194POPC   C4A 2877   1.974   5.436   5.772  0.2791  0.2449 -0.2688
  194POPC   C1B 2878   2.768   4.675   5.162 -0.2419 -0.0856 -0.0836
  194POPC   C2B 2879   2.356   4.784   5.331  0.0191  0.1624  0.2142
  194POPC   C3B 2880   2.075   4.857   5.583 -0.0187 -0.2911  0.2293
  194POPC   C4B 2881   1.696   4.941   5.665 -0.1371 -0.0826 -0.2168
  195POPC   NC3 2882   3.988   4.615   5.215  0.0170 -0.2216  0.2960
  195POPC   PO4 2883   3.992   5.174   5.079 -0.0069 -0.1174  0.0937
  195POPC   GL1 2884   4.133   5.502   5.422  0.2787 -0.0573 -0.0249
  195POPC   GL2 2885   4.147   5.812   5.294 -0.1789 -0.1578  0.2924
  195POPC   C1A 2886   4.068   5.545   5.811 -0.0732  0.0481 -0.0878
  195POPC   D2A 2887   4.119   5.482   6.207 -0.1907  0.0756 -0.0896
  195POPC   C3A 2888   3.795   5.467   6.535 -0.1970 -0.2004 -0.2064
  195POPC   C4A 2889   3.423   5.502   6.822 -0.0235  0.1117  0.4688
  195POPC   C1B 2890   4.429   5.903   5.651  0.1515 -0.1995  0.2570
  195POPC   C2B 2891   4.169   6.010   6.058  0.0084 -0.3005  0.2896
  195POPC   C3B 2892   4.000   5.962   6.586 -0.3625  0.2175 -0.3403
  195POPC   C4B 2893   4.092   5.725   6.877 -0.2071 -0.1848 -0.1275
  196POPC   NC3 2894   3.300   0.216   4.915 -0.0373 -0.4060  0.1387
  196POPC   PO4 2895   3.092  -0.092   5.156 -0.0206  0.1658  0.2725
  196POPC   GL1 2896   3.267   0.382   5.408  0.2894 -0.0488  0.0921
  196POPC   GL2 2897   3.483   0.605   5.291 -0.0752  0.0751  0.1243
  196POPC   C1A 2898   3.211   0.562   5.810  0.0723 -0.0000 -0.0068
  196POPC   D2A 2899   3.561   0.730   6.062  0.2867  0.0814  0.1468
  196POPC   C3A 2900   3.588   1.094   6.351  0.0665  0.0378  0.4094
  196POPC   C4A 2901   3.665   1.445   6.601 -0.2010  0.3030  0.0732
  196POPC   C1B 2902   3.615   0.997   5.553 -0.2633 -0.0199  0.2244
  196POPC   C2B 2903   3.615   1.259   5.891  0.0330 -0.0898 -0.0946
  196POPC   C3B 2904   3.369   1.486   6.146  0.0104 -0.0913 -0.2181
  196POPC   C4B 2905   3.077   1.536   6.434 -0.2399 -0.1978  0.0835
  197POPC   NC3 2906   1.869   8.606   4.476  0.1726  0.1861  0.0651
  197POPC   PO4 2907   2.020   9.008   4.751  0.0365  0.2887  0.0030
  197POPC   GL1 2908   2.327   8.954   5.122  0.2343  0.3701  0.2042
  197POPC   GL2 2909   2.158   9.217   5.260 -0.0072 -0.2431  0.0837
  197POPC   C1A 2910   2.469   8.918   5.550  0.0209  0.1095 -0.1769
  197POPC   D2A 2911   2.463   8.853   6.082 -0.0992 -0.1676  0.6209
  197POPC   C3A 2912   1.983   8.821   6.278 -0.0641  0.0421  0.1027
  197POPC   C4A 2913   1.889   8.995   6.747 -0.1995 -0.2002 -0.1026
  197POPC   C1B 2914   1.807   8.882   5.335 -0.2725  0.0399 -0.1674
  197POPC   C2B 2915   1.449   8.554   5.379 -0.3361 -0.2497 -0.3477
  197POPC   C3B 2916   1.171   8.597   5.593 -0.2598  0.0438  0.0252
  197POPC   C4B 2917   1.027   8.397   6.081 -0.2174  0.2846  0.4684
  198POPC   NC3 2918   6.272   7.755   5.056 -0.3328  0.0212 -0.3285
  198POPC   PO4 2919   6.581   7.391   5.165  0.1071  0.0730  0.2769
  198POPC   GL1 2920   6.589   7.741   5.508 -0.2329  0.0902 -0.0463
  198POPC   GL2 2921   6.395   7.396   5.732  0.0168  0.0109  0.1989
  198POPC   C1A 2922   6.580   8.134   5.728  0.0777 -0.0613  0.1367
  198POPC   D2A 2923   6.410   8.428   5.935 -0.2554 -0.2456  0.2395
  198POPC   C3A 2924   6.516   8.739   5.584 -0.0669  0.2944 -0.0630
  198POPC   C4A 2925   6.916   8.850   5.501  0.1323 -0.2865 -0.3124
  198POPC   C1B 2926   6.563   7.627   6.026  0.2408 -0.1508  0.4139
  198POPC   C2B 2927   6.621   8.005   6.207 -0.0444 -0.2416 -0.1571
  198POPC   C3B 2928   6.743   8.347   6.352 -0.2776 -0.1715  0.2182
  198POPC   C4B 2929   6.841   8.717   6.178  0.0176  0.0649 -0.1083
  199POPC   NC3 2930   4.591   3.025   5.419  0.4084  0.2558 -0.2286
  199POPC   PO4 2931   4.426   3.422   5.444 -0.0112 -0.0515 -0.2372
  199POPC   GL1 2932   4.199   3.177   5.838 -0.0710 -0.1390  0.0416
  199POPC   GL2 2933   4.451   2.920   5.858 -0.1661 -0.1545 -0.2161
  199POPC   C1A 2934   4.010   3.226   6.170  0.1366  0.2434 -0.0242
  199POPC   D2A 2935   4.021   2.923   6.564  0.0597 -0.0920  0.4049
  199POPC   C3A 2936   3.722   2.990   6.848 -0.1249 -0.0140  0.0896
  199POPC   C4A 2937   3.544   3.240   7.123 -0.1182 -0.1971  0.0111
  199POPC   C1B 2938   4.537   3.102   6.264 -0.3031  0.0064  0.2079
  199POPC   C2B 2939   4.667   3.383   6.601  0.0134 -0.3047 -0.0041
  199POPC   C3B 2940   4.566   3.318   7.028  0.3205 -0.2094 -0.3226
  199POPC   C4B 2941   4.201   3.266   7.343  0.2251 -0.1847 -0.0572
  200POPC   NC3 2942   8.776   8.635   4.086 -0.2280  0.4991 -0.2498
  200POPC   PO4 2943   8.706   8.996   4.276 -0.1326 -0.0720 -0.1733
  200POPC   GL1 2944   8.902   8.740   4.676  0.0013  0.0066 -0.1078
  200POPC   GL2 2945   8.692   8.978   4.826 -0.0342  0.0886 -0.1752
  200POPC   C1A 2946   9.251   8.843   5.029  0.1598  0.1033  0.5314
  200POPC   D2A 2947   9.647   8.766   5.126 -0.2429 -0.1136  0.1248
  200POPC   C3A 2948   9.561   8.447   5.381 -0.0967 -0.0319 -0.0581
  200POPC   C4A 2949   9.411   8.125   5.617  0.2303 -0.0529 -0.0673
  200POPC   C1B 2950   8.633   8.953   5.265 -0.3113  0.1915 -0.0068
  200POPC   C2B 2951   8.889   8.881   5.556  0.0903 -0.1040 -0.0161
  200POPC   C3B 2952   8.841   8.847   6.039  0.0719  0.3057  0.5497
  200POPC   C4B 2953   8.786   8.636   6.422  0.0844 -0.0637 -0.1833
  201POPC   NC3 2954   7.604   4.056   5.102 -0.5700  0.1505  0.4768
  201POPC   PO4 2955   7.280   3.916   5.364  0.0168  0.1348 -0.0107
  201POPC   GL1 2956   7.449   3.912   5.723 -0.0398 -0.0125 -0.0890
  201POPC   GL2 2957   7.421   4.145   5.927  0.1336 -0.1525  0.2064
  201POPC   C1A 2958   7.862   3.970   5.993 -0.4169 -0.1968  0.0012
  201POPC   D2A 2959   8.033   3.951   6.509  0.0049 -0.1056  0.0947
  201POPC   C3A 2960   7.712   3.903   6.797  0.2441 -0.3366 -0.0444
  201POPC   C4A 2961   7.537   3.665   7.055 -0.2845 -0.1713 -0.0831
  201POPC   C1B 2962   7.078   3.792   6.026 -0.0067  0.1405 -0.0990
  201POPC   C2B 2963   7.000   3.424   6.194  0.0046 -0.0088 -0.1347
  201POPC   C3B 2964   7.252   3.098   6.390 -0.4614 -0.2639 -0.1879
  201POPC   C4B 2965   7.625   3.105   6.769  0.3556 -0.2007  0.0086
  202POPC   NC3 2966   3.836   2.431   5.273 -0.0564 -0.1970 -0.2325
  202POPC   PO4 2967   3.444   2.418   5.149  0.0037 -0.1863 -0.2352
  202POPC   GL1 2968   3.368   2.279   5.551  0.1541 -0.0128 -0.2633
  202POPC   GL2 2969   3.641   2.209   5.674  0.0496  0.0303  0.1567
  202POPC   C1A 2970   3.301   2.473   5.969 -0.0121 -0.0155  0.1285
  202POPC   D2A 2971   3.309   2.389   6.347  0.2336  0.1410 -0.1122
  202POPC   C3A 2972   3.310   2.753   6.668 -0.2052 -0.0960 -0.1718
  202POPC   C4A 2973   3.158   2.972   7.022 -0.2555  0.1139  0.1189
  202POPC   C1B 2974   3.744   2.312   6.058  0.0682  0.0642  0.1626
  202POPC   C2B 2975   3.809   2.445   6.516 -0.3228  0.2737  0.2252
  202POPC   C3B 2976   3.899   2.524   6.919 -0.1985  0.0094  0.0464
  202POPC   C4B 2977   4.101   2.792   7.092  0.0858 -0.1964  0.1585
  203POPC   NC3 2978   6.007   4.968   5.687  0.0158  0.2584 -0.1250
  203POPC   PO4 2979   6.370   4.931   5.899 -0.3937  0.0186 -0.1250
  203POPC   GL1 2980   6.662   5.000   6.336 -0.3278  0.4308 -0.1045
  203POPC   GL2 2981   6.936   5.018   6.253 -0.0015 -0.0344 -0.1108
  203POPC   C1A 2982   6.762   4.650   6.582  0.2509 -0.1495  0.1284
  203POPC   D2A 2983   6.902   4.400   6.869 -0.2509  0.4931 -0.2595
  203POPC   C3A 2984   7.063   4.618   7.228 -0.1860 -0.1432 -0.2019
  203POPC   C4A 2985   6.940   4.862   7.510  0.5286 -0.2066  0.1005
  203POPC   C1B 2986   7.064   5.002   6.674  0.1914 -0.0611 -0.3083
  203POPC   C2B 2987   7.160   5.079   7.103  0.2763 -0.1769 -0.1116
  203POPC   C3B 2988   7.372   5.320   7.434  0.0491  0.1109 -0.2110
  203POPC   C4B 2989   7.315   5.460   7.886 -0.1382 -0.2787 -0.3220
  204POPC   NC3 2990   7.155   1.790   5.098  0.0875 -0.0927  0.0655
  204POPC   PO4 2991   7.159   1.450   5.449 -0.0449 -0.1417  0.1493
  204POPC   GL1 2992   7.240   1.577   5.829  0.2013  0.2692  0.1272
  204POPC   GL2 2993   6.985   1.595   6.077  0.0732  0.0223  0.3347
  204POPC   C1A 2994   7.645   1.731   5.910 -0.1450 -0.0707  0.1508
  204POPC   D2A 2995   8.068   2.059   5.920 -0.4067 -0.0614 -0.0661
  204POPC   C3A 2996   8.261   1.999   6.281  0.2562  0.1380 -0.0113
  204POPC   C4A 2997   8.112   1.868   6.661  0.0571  0.1235 -0.0839
  204POPC   C1B 2998   7.087   1.082   6.135 -0.1615 -0.2330  0.3284
  204POPC   C2B 2999   7.368   0.918   6.312 -0.0369  0.1580  0.0138
  204POPC   C3B 3000   7.889   0.947   6.451  0.0540 -0.1063 -0.0969
  204POPC   C4B 3001   8.156   1.125   6.843 -0.0701  0.1934 -0.0870
  205POPC   NC3 3002   6.780   5.859   5.761  0.2319 -0.4544  0.0828
  205POPC   PO4 3003   6.738   5.453   5.684 -0.2160  0.1357 -0.0221
  205POPC   GL1 3004   6.434   5.589   5.989  0.1922  0.4052 -0.0945
  205POPC   GL2 3005   6.230   5.319   6.222 -0.2797 -0.2485  0.1023
  205POPC   C1A 3006   6.521   5.802   6.326  0.0465 -0.2152  0.3930
  205POPC   D2A 3007   6.491   6.272   6.497 -0.5784  0.0618 -0.1851
  205POPC   C3A 3008   6.170   6.307   6.792 -0.0893 -0.0492 -0.0649
  205POPC   C4A 3009   5.764   6.297   7.030 -0.1079  0.1809 -0.2340
  205POPC   C1B 3010   6.258   5.271   6.617 -0.3349  0.1420  0.1525
  205POPC   C2B 3011   6.579   5.177   6.866 -0.2224 -0.3334  0.1275
  205POPC   C3B 3012   6.661   4.786   7.027 -0.3403 -0.1968 -0.2638
  205POPC   C4B 3013   6.628   4.411   7.306 -0.0685  0.0602  0.0668
  206POPC   NC3 3014   3.924   1.719   4.896  0.0587  0.0442 -0.2403
  206POPC   PO4 3015   3.687   1.954   5.251  0.2197  0.0014  0.4103
  206POPC   GL1 3016   4.074   1.974   5.564 -0.2282 -0.3988 -0.0730
  206POPC   GL2 3017   4.427   2.067   5.617 -0.3159 -0.2998  0.2456
  206POPC   C1A 3018   4.173   1.969   6.018  0.0322  0.1653  0.2130
  206POPC   D2A 3019   4.216   2.223   6.340  0.1577  0.1537 -0.1787
  206POPC   C3A 3020   4.334   2.635   6.310  0.1150 -0.1453 -0.1781
  206POPC   C4A 3021   4.454   2.944   6.716  0.2053 -0.2938  0.2271
  206POPC   C1B 3022   4.638   2.427   5.871  0.1752 -0.0673  0.0754
  206POPC   C2B 3023   4.847   2.505   6.214 -0.3780  0.0402 -0.4276
  206POPC   C3B 3024   4.960   2.746   6.620 -0.0818 -0.1217  0.5748
  206POPC   C4B 3025   4.885   2.992   6.968  0.3819 -0.1807  0.1902
  207POPC   NC3 3026   8.660   6.540   4.737  0.0094  0.0446 -0.0243
  207POPC   PO4 3027   8.680   6.922   4.891  0.0393 -0.1605 -0.2642
  207POPC   GL1 3028   8.721   6.979   5.396  0.0700  0.1430  0.0386
  207POPC   GL2 3029   8.434   7.036   5.512  0.0927 -0.1328  0.0188
  207POPC   C1A 3030   8.840   6.890   5.832  0.1706  0.1028 -0.0003
  207POPC   D2A 3031   9.147   6.638   6.063  0.2250 -0.2528  0.1383
  207POPC   C3A 3032   9.473   6.801   6.292 -0.0296 -0.1099 -0.8137
  207POPC   C4A 3033   9.803   7.052   6.319  0.0812 -0.2975 -0.1547
  207POPC   C1B 3034   8.119   7.086   5.800  0.0350 -0.1138  0.1199
  207POPC   C2B 3035   7.986   7.317   6.124 -0.0172 -0.4760 -0.0706
  207POPC   C3B 3036   8.051   7.328   6.599 -0.0931 -0.0692 -0.0114
  207POPC   C4B 3037   7.856   7.095   7.021 -0.2091  0.0598  0.3403
  208POPC   NC3 3038   5.237   1.964   5.131 -0.0857  0.3400 -0.2282
  208POPC   PO4 3039   5.509   1.887   5.485  0.0117  0.2587  0.1911
  208POPC   GL1 3040   5.423   1.667   5.793 -0.1744 -0.2085  0.0819
  208POPC   GL2 3041   5.310   1.880   5.997 -0.2776 -0.0652 -0.0505
  208POPC   C1A 3042   5.567   1.379   6.069 -0.1067 -0.1059 -0.0689
  208POPC   D2A 3043   5.842   1.146   6.319 -0.1968 -0.0532  0.0128
  208POPC   C3A 3044   5.951   0.809   6.269 -0.0493 -0.2595  0.0804
  208POPC   C4A 3045   6.365   0.509   6.276  0.1649  0.3274 -0.0256
  208POPC   C1B 3046   5.114   2.107   6.304 -0.1410  0.1155 -0.2681
  208POPC   C2B 3047   5.144   2.168   6.728 -0.0164  0.4029 -0.2316
  208POPC   C3B 3048   5.023   2.270   7.184 -0.0836 -0.3935  0.0600
  208POPC   C4B 3049   5.163   2.665   7.431  0.0090 -0.1662 -0.3191
  209POPC   NC3 3050   8.952   1.860   5.063 -0.1399 -0.2610 -0.0898
  209POPC   PO4 3051   8.935   2.219   5.268 -0.0561 -0.0876  0.2453
  209POPC   GL1 3052   8.773   2.431   5.638 -0.3515  0.1734  0.0464
  209POPC   GL2 3053   8.722   2.782   5.672  0.1152  0.0491 -0.3171
  209POPC   C1A 3054   8.496   2.412   6.062  0.0562  0.1850 -0.1628
  209POPC   D2A 3055   8.057   2.519   6.087 -0.3158 -0.3019 -0.2034
  209POPC   C3A 3056   7.723   2.348   6.234 -0.0015 -0.4884  0.3708
  209POPC   C4A 3057   7.697   1.945   6.420  0.5650 -0.1202 -0.0798
  209POPC   C1B 3058   9.094   2.757   5.792  0.2234 -0.1508 -0.1039
  209POPC   C2B 3059   9.389   2.743   6.182  0.0854  0.2985 -0.0280
  209POPC   C3B 3060   9.424   2.889   6.622 -0.0330  0.1338  0.0598
  209POPC   C4B 3061   9.747   2.885   6.999 -0.1268 -0.3977 -0.4065
  210POPC   NC3 3062   3.511   8.140   4.531 -0.0927 -0.2258  0.1940
  210POPC   PO4 3063   3.661   8.286   4.898  0.0290 -0.2495  0.0586
  210POPC   GL1 3064   3.533   8.553   5.233  0.1113  0.0694 -0.0575
  210POPC   GL2 3065   3.332   8.534   5.346  0.1291 -0.1657 -0.2452
  210POPC   C1A 3066   3.723   8.788   5.615  0.4158  0.0996  0.1594
  210POPC   D2A 3067   3.760   9.124   5.951 -0.2109 -0.2817 -0.2643
  210POPC   C3A 3068   3.490   9.578   5.894  0.0626 -0.0969  0.2110
  210POPC   C4A 3069   3.148   9.787   5.707 -0.1552  0.0778  0.0332
  210POPC   C1B 3070   3.337   8.388   5.798 -0.1275  0.0707 -0.0487
  210POPC   C2B 3071   3.349   8.347   6.215 -0.1297  0.0591  0.1587
  210POPC   C3B 3072   3.419   8.081   6.531  0.1066 -0.1955  0.1597
  210POPC   C4B 3073   3.674   7.789   6.782  0.3901 -0.2640 -0.0487
  211POPC   NC3 3074   1.688   1.855   4.916 -0.1094 -0.1035 -0.0203
  211POPC   PO4 3075   1.460   1.755   5.228 -0.1263 -0.4403 -0.0214
  211POPC   GL1 3076   1.365   1.817   5.655 -0.0313  0.1410  0.0236
  211POPC   GL2 3077   1.566   2.148   5.752 -0.2301  0.2017  0.2155
  211POPC   C1A 3078   1.237   1.840   6.103 -0.3182 -0.0581 -0.1266
  211POPC   D2A 3079   1.325   1.994   6.547  0.0766 -0.1031  0.0050
  211POPC   C3A 3080   1.803   1.970   6.626  0.1096  0.1629 -0.3332
  211POPC   C4A 3081   2.092   1.884   7.027  0.2140 -0.4136  0.1978
  211POPC   C1B 3082   1.362   2.487   6.059  0.0582  0.1249 -0.2314
  211POPC   C2B 3083   1.201   2.617   6.497 -0.0377  0.3374  0.2583
  211POPC   C3B 3084   1.327   2.760   6.852 -0.0538 -0.0456 -0.0708
  211POPC   C4B 3085   1.691   3.014   6.754 -0.2478 -0.4517 -0.1262
  212POPC   NC3 3086   8.656   4.357   4.862 -0.1047  0.2238  0.1929
  212POPC   PO4 3087   8.451   4.690   5.159 -0.2467 -0.0915  0.0051
  212POPC   GL1 3088   8.675   4.972   5.380  0.0871  0.2496 -0.0013
  212POPC   GL2 3089   8.722   4.707   5.646 -0.0093  0.0134 -0.3304
  212POPC   C1A 3090   8.862   5.164   5.626 -0.1462  0.4233 -0.1228
  212POPC   D2A 3091   9.212   5.302   5.697  0.0868  0.0638  0.1469
  212POPC   C3A 3092   9.299   5.311   6.101 -0.2570  0.0418  0.1336
  212POPC   C4A 3093   9.571   5.100   6.417  0.0707  0.3151  0.0328
  212POPC   C1B 3094   8.787   4.715   6.098 -0.0527 -0.1209  0.0717
  212POPC   C2B 3095   8.957   5.078   6.332 -0.0877  0.4134  0.1865
  212POPC   C3B 3096   9.249   5.430   6.588  0.2612 -0.1064  0.0189
  212POPC   C4B 3097   9.283   5.699   6.991 -0.0860 -0.0216 -0.2075
  213POPC   NC3 3098   4.960   8.372   4.860  0.3288 -0.0427 -0.1224
  213POPC   PO4 3099   4.933   8.002   4.728 -0.1401  0.3929 -0.0442
  213POPC   GL1 3100   5.008   7.985   5.148  0.2386 -0.0506  0.0719
  213POPC   GL2 3101   5.209   7.749   5.205 -0.2037 -0.1789  0.2076
  213POPC   C1A 3102   4.802   7.919   5.584  0.3423 -0.2692 -0.0354
  213POPC   D2A 3103   4.751   8.011   6.072  0.0155  0.1116 -0.0109
  213POPC   C3A 3104   4.851   8.498   6.286  0.0403 -0.0351 -0.0612
  213POPC   C4A 3105   4.831   8.949   6.532 -0.1144  0.3293 -0.3063
  213POPC   C1B 3106   5.271   7.857   5.616  0.0403  0.3770 -0.0301
  213POPC   C2B 3107   5.208   7.750   6.012  0.0872  0.1121  0.1223
  213POPC   C3B 3108   4.967   7.563   6.307  0.0248  0.0194  0.2014
  213POPC   C4B 3109   4.710   7.623   6.687 -0.2990 -0.2278  0.0466
  214POPC   NC3 3110   2.456   9.886   5.049  0.1092 -0.3055  0.4061
  214POPC   PO4 3111   2.047  10.055   5.117  0.0079 -0.2155 -0.1190
  214POPC   GL1 3112   2.090   9.748   5.513 -0.0603  0.2996 -0.2171
  214POPC   GL2 3113   2.268  10.005   5.658 -0.0597  0.0677 -0.2470
  214POPC   C1A 3114   2.073   9.719   5.995  0.0905 -0.1479  0.1817
  214POPC   D2A 3115   2.126   9.385   6.327  0.4504  0.0429  0.1865
  214POPC   C3A 3116   2.336   9.193   6.649  0.2331  0.2219 -0.0138
  214POPC   C4A 3117   2.346   9.242   6.983  0.1138 -0.0034 -0.1520
  214POPC   C1B 3118   2.574   9.758   5.826 -0.2759 -0.3405 -0.1288
  214POPC   C2B 3119   2.575   9.565   6.227  0.2779  0.0085  0.0739
  214POPC   C3B 3120   2.355   9.731   6.690 -0.1577 -0.0885 -0.2238
  214POPC   C4B 3121   1.997   9.541   6.854  0.1884  0.2655  0.0904
  215POPC   NC3 3122   3.211   2.764   4.547  0.0352  0.4638 -0.3168
  215POPC   PO4 3123   2.861   3.035   4.696 -0.1763  0.2641  0.0635
  215POPC   GL1 3124   2.687   3.004   5.099  0.0720  0.0966  0.1647
  215POPC   GL2 3125   2.556   2.741   5.376 -0.0881  0.1775  0.0180
  215POPC   C1A 3126   2.587   3.373   5.420 -0.0095 -0.1694  0.0153
  215POPC   D2A 3127   2.279   3.711   5.368 -0.0831  0.0460 -0.1591
  215POPC   C3A 3128   1.920   3.824   5.521 -0.1047  0.0097  0.1647
  215POPC   C4A 3129   1.686   4.022   5.820 -0.2926 -0.0417 -0.0508
  215POPC   C1B 3130   2.317   2.934   5.605  0.0792 -0.0541  0.3089
  215POPC   C2B 3131   2.495   3.157   5.985  0.0779  0.1893 -0.0604
  215POPC   C3B 3132   2.900   3.397   6.228  0.2733 -0.0233  0.0199
  215POPC   C4B 3133   3.158   3.729   6.313  0.1247 -0.0332  0.0644
  216POPC   NC3 3134   2.990   9.232   4.799  0.2212 -0.1340 -0.0853
  216POPC   PO4 3135   3.004   9.590   4.993 -0.3141  0.0028 -0.1374
  216POPC   GL1 3136   2.945   9.355   5.375  0.1273  0.0281  0.0686
  216POPC   GL2 3137   2.635   9.366   5.414 -0.2342  0.0522 -0.2795
  216POPC   C1A 3138   2.948   9.321   5.787 -0.4225 -0.1587  0.0018
  216POPC   D2A 3139   2.816   9.076   6.256 -0.4100 -0.3039  0.1887
  216POPC   C3A 3140   3.100   8.966   6.650  0.2592 -0.2633  0.1469
  216POPC   C4A 3141   3.243   9.172   7.035  0.2442 -0.0527  0.3598
  216POPC   C1B 3142   2.320   9.345   5.781 -0.0286  0.1943 -0.1918
  216POPC   C2B 3143   2.050   8.945   5.802 -0.3023 -0.0089 -0.0178
  216POPC   C3B 3144   1.925   8.588   5.795 -0.1142 -0.3126  0.2565
  216POPC   C4B 3145   1.880   8.250   5.534 -0.2322 -0.1652  0.3123
  217POPC   NC3 3146   5.147   3.753   5.561 -0.2894  0.1244 -0.1670
  217POPC   PO4 3147   5.606   3.677   5.453  0.1921  0.0300  0.0142
  217POPC   GL1 3148   5.652   3.531   5.803  0.0297 -0.2475 -0.2172
  217POPC   GL2 3149   5.674   3.741   5.962  0.0331 -0.1395  0.0989
  217POPC   C1A 3150   5.552   3.286   6.152 -0.0055  0.0851  0.1720
  217POPC   D2A 3151   5.342   3.202   6.572 -0.0097 -0.3235 -0.2335
  217POPC   C3A 3152   5.070   3.486   6.870  0.1788  0.2195 -0.0040
  217POPC   C4A 3153   4.980   3.901   6.730 -0.1252  0.1660 -0.1752
  217POPC   C1B 3154   5.461   3.767   6.401  0.2091 -0.1478 -0.4271
  217POPC   C2B 3155   5.679   3.523   6.805  0.0777 -0.0567 -0.0548
  217POPC   C3B 3156   5.885   3.391   7.183 -0.2726 -0.0734  0.2062
  217POPC   C4B 3157   6.164   3.468   7.484  0.0614  0.4177  0.0892
  218POPC   NC3 3158   6.344   4.167   5.360 -0.2464  0.3340  0.0065
  218POPC   PO4 3159   6.553   4.253   5.782  0.1934  0.4538  0.0404
  218POPC   GL1 3160   6.495   4.237   6.180  0.2730 -0.1651 -0.1126
  218POPC   GL2 3161   6.443   4.540   6.203 -0.1019 -0.0643  0.1408
  218POPC   C1A 3162   6.439   4.233   6.637  0.2447 -0.1976  0.1934
  218POPC   D2A 3163   6.172   4.294   7.017 -0.1298  0.0528 -0.0732
  218POPC   C3A 3164   6.125   4.297   7.484 -0.1384 -0.1396  0.0183
  218POPC   C4A 3165   6.248   4.428   7.829 -0.0107  0.1488 -0.2409
  218POPC   C1B 3166   6.258   4.767   6.597 -0.0897 -0.1953  0.1162
  218POPC   C2B 3167   6.163   4.871   6.924 -0.1766 -0.5157 -0.2897
  218POPC   C3B 3168   6.006   4.854   7.272  0.0636 -0.0989 -0.3302
  218POPC   C4B 3169   5.808   4.647   7.606 -0.1643  0.0654 -0.3046
  219POPC   NC3 3170   0.053   2.486   5.010 -0.0958  0.0112  0.0323
  219POPC   PO4 3171   0.009   2.075   4.987 -0.0738 -0.2431 -0.0465
  219POPC   GL1 3172   0.041   1.930   5.331  0.1157 -0.2322  0.0337
  219POPC   GL2 3173   0.255   1.681   5.394 -0.0140 -0.0824  0.1294
  219POPC   C1A 3174  -0.035   1.984   5.762 -0.3034 -0.1837 -0.0677
  219POPC   D2A 3175  -0.011   2.220   6.129 -0.3715 -0.0731  0.2869
  219POPC   C3A 3176  -0.218   2.323   6.385  0.0014 -0.1910 -0.0528
  219POPC   C4A 3177  -0.390   2.414   6.765 -0.1020 -0.3279  0.0048
  219POPC   C1B 3178   0.181   1.543   5.902  0.4015  0.2302  0.0314
  219POPC   C2B 3179  -0.081   1.680   6.188 -0.0492  0.0036  0.1364
  219POPC   C3B 3180  -0.068   1.934   6.639  0.0739 -0.1016 -0.0508
  219POPC   C4B 3181   0.138   2.282   6.869  0.2775 -0.1512  0.2309
  220POPC   NC3 3182   3.656   3.082   5.198 -0.1076  0.0543 -0.2550
  220POPC   PO4 3183   4.074   2.943   5.365 -0.0697 -0.0327 -0.0061
  220POPC   GL1 3184   3.782   2.760   5.663  0.1370 -0.0903  0.1780
  220POPC   GL2 3185   3.461   2.779   5.576  0.1743 -0.0233  0.2027
  220POPC   C1A 3186   3.712   2.795   6.119 -0.1894 -0.1980 -0.0268
  220POPC   D2A 3187   3.577   3.137   6.358  0.2569 -0.2022 -0.3044
  220POPC   C3A 3188   3.227   3.352   6.649 -0.1869  0.2132  0.2306
  220POPC   C4A 3189   3.042   3.775   6.778  0.1279 -0.0205  0.1552
  220POPC   C1B 3190   3.339   3.015   5.859 -0.1698  0.3270  0.0553
  220POPC   C2B 3191   3.096   2.938   6.211 -0.1085  0.0194 -0.0232
  220POPC   C3B 3192   2.746   3.047   6.530 -0.1853  0.0324 -0.1771
  220POPC   C4B 3193   2.559   2.942   6.914 -0.0866 -0.1431  0.2511
  221POPC   NC3 3194   4.979   9.880   5.223 -0.1743 -0.0576 -0.0218
  221POPC   PO4 3195   5.173   9.568   5.140 -0.1460  0.0779 -0.1356
  221POPC   GL1 3196   5.051   9.540   5.595  0.0855 -0.2785 -0.2304
  221POPC   GL2 3197   5.110   9.224   5.681 -0.0002 -0.1196 -0.2239
  221POPC   C1A 3198   4.882   9.795   6.008  0.0355 -0.2868 -0.2003
  221POPC   D2A 3199   5.014   9.996   6.397  0.0710 -0.3153  0.0724
  221POPC   C3A 3200   4.758   9.825   6.768  0.1160 -0.1020  0.0822
  221POPC   C4A 3201   4.970   9.669   7.204 -0.2757  0.1490 -0.0385
  221POPC   C1B 3202   5.598   9.134   5.759 -0.0176 -0.2124 -0.0472
  221POPC   C2B 3203   6.015   9.037   5.687  0.1024 -0.0676 -0.2738
  221POPC   C3B 3204   6.232   8.915   6.055  0.2025  0.0299  0.1013
  221POPC   C4B 3205   6.273   8.829   6.465  0.1939  0.1345  0.0571
  222POPC   NC3 3206   3.121   8.407   4.401 -0.3483 -0.0902 -0.0859
  222POPC   PO4 3207   2.699   8.291   4.531 -0.1903  0.4455 -0.0408
  222POPC   GL1 3208   3.004   8.104   4.727 -0.1039  0.2134  0.1539
  222POPC   GL2 3209   3.171   8.211   5.000  0.1709  0.1365  0.0861
  222POPC   C1A 3210   2.806   7.877   5.123 -0.2701  0.1089  0.0203
  222POPC   D2A 3211   2.588   7.625   5.467 -0.0218 -0.0646 -0.0862
  222POPC   C3A 3212   2.696   7.568   5.885  0.1060 -0.0540 -0.0017
  222POPC   C4A 3213   2.887   7.339   6.165  0.3733  0.0998 -0.0471
  222POPC   C1B 3214   3.203   8.006   5.406  0.3956 -0.0759 -0.0383
  222POPC   C2B 3215   3.114   7.570   5.583  0.2048 -0.0015 -0.1367
  222POPC   C3B 3216   2.918   7.190   5.677 -0.1746  0.4433 -0.0766
  222POPC   C4B 3217   2.573   7.016   5.865  0.2862 -0.2208  0.0434
  223POPC   NC3 3218   3.106   1.213   4.603 -0.2187 -0.0212  0.2050
  223POPC   PO4 3219   2.949   1.317   4.971 -0.2676 -0.2193  0.0814
  223POPC   GL1 3220   2.944   1.355   5.425 -0.3306 -0.1408  0.1596
  223POPC   GL2 3221   3.211   1.233   5.560  0.1561  0.1310  0.1485
  223POPC   C1A 3222   2.935   1.571   5.901  0.3577  0.0791 -0.1388
  223POPC   D2A 3223   2.654   1.370   6.254  0.0853 -0.1109 -0.0436
  223POPC   C3A 3224   2.753   1.293   6.712 -0.1640  0.0688 -0.3326
  223POPC   C4A 3225   2.865   1.446   7.211  0.1241  0.1683  0.0791
  223POPC   C1B 3226   3.034   1.084   5.892  0.2596  0.0166  0.0154
  223POPC   C2B 3227   3.100   1.030   6.232 -0.0948  0.2314 -0.1685
  223POPC   C3B 3228   3.254   1.153   6.709 -0.1778  0.3238  0.0011
  223POPC   C4B 3229   3.268   1.069   7.240  0.0275 -0.2976 -0.0431
  224POPC   NC3 3230   3.352   9.508   4.537  0.4114  0.0900  0.1388
  224POPC   PO4 3231   3.666   9.400   4.680  0.0981 -0.0046 -0.1171
  224POPC   GL1 3232   3.506   9.260   5.105  0.2161  0.1911  0.2172
  224POPC   GL2 3233   3.247   9.021   5.150  0.0529  0.1304  0.0827
  224POPC   C1A 3234   3.379   9.196   5.560  0.0591 -0.3544 -0.2186
  224POPC   D2A 3235   3.282   8.912   5.886  0.2856 -0.0481  0.1415
  224POPC   C3A 3236   3.289   9.216   6.251 -0.4874 -0.1695  0.0707
  224POPC   C4A 3237   3.203   9.551   6.609 -0.4508 -0.0111  0.1633
  224POPC   C1B 3238   2.913   8.863   5.554  0.0261  0.0988  0.1155
  224POPC   C2B 3239   2.861   8.629   5.890  0.1169 -0.2042  0.3124
  224POPC   C3B 3240   2.931   8.583   6.299 -0.0324  0.1008 -0.0021
  224POPC   C4B 3241   3.071   8.419   6.692  0.2580 -0.2220 -0.0788
  225POPC   NC3 3242   6.791   2.207   5.225  0.0062 -0.0037 -0.2311
  225POPC   PO4 3243   6.529   2.141   5.633  0.1175 -0.0197 -0.0831
  225POPC   GL1 3244   6.651   2.036   6.026 -0.0514 -0.3583 -0.4206
  225POPC   GL2 3245   6.332   2.007   6.160  0.0248  0.1890  0.0521
  225POPC   C1A 3246   6.676   1.862   6.451 -0.0537  0.2318 -0.1212
  225POPC   D2A 3247   6.896   1.853   6.851  0.2075  0.0019 -0.0945
  225POPC   C3A 3248   7.280   1.986   7.279 -0.0566 -0.0706 -0.2019
  225POPC   C4A 3249   7.598   2.171   7.578  0.0177 -0.1612 -0.1298
  225POPC   C1B 3250   6.441   2.283   6.449 -0.1484 -0.2479  0.2810
  225POPC   C2B 3251   6.538   2.268   6.866  0.0375  0.0234  0.0797
  225POPC   C3B 3252   6.506   2.634   7.152 -0.1484 -0.1532 -0.2345
  225POPC   C4B 3253   6.440   2.983   7.393 -0.0560  0.2185 -0.2162
  226POPC   NC3 3254   3.152   2.022   5.189 -0.3498  0.3095  0.0134
  226POPC   PO4 3255   3.241   1.685   5.203  0.1211 -0.0568 -0.1692
  226POPC   GL1 3256   3.320   1.801   5.664 -0.0876  0.0826  0.0332
  226POPC   GL2 3257   3.679   1.775   5.896 -0.0926  0.1841 -0.2610
  226POPC   C1A 3258   3.207   1.928   6.105  0.2731 -0.0794 -0.0509
  226POPC   D2A 3259   3.517   1.902   6.480 -0.2067  0.0261 -0.1656
  226POPC   C3A 3260   3.373   1.732   6.853 -0.0328 -0.0121 -0.2530
  226POPC   C4A 3261   3.444   1.628   7.229 -0.0907  0.0129  0.0539
  226POPC   C1B 3262   3.882   1.601   6.160 -0.2706  0.0569 -0.0236
  226POPC   C2B 3263   4.106   1.763   6.544 -0.1280  0.1851  0.3009
  226POPC   C3B 3264   4.272   2.160   6.819 -0.2542  0.4074  0.1298
  226POPC   C4B 3265   4.613   2.418   6.755  0.1026 -0.1540 -0.4396
  227POPC   NC3 3266   0.619   1.119   5.198 -0.0729 -0.2565  0.0864
  227POPC   PO4 3267   1.008   0.999   5.432  0.3026 -0.1100 -0.2772
  227POPC   GL1 3268   1.247   0.878   5.723  0.1044 -0.2512  0.2680
  227POPC   GL2 3269   1.450   0.616   5.748 -0.1460  0.3687  0.0099
  227POPC   C1A 3270   1.341   0.995   6.105 -0.2674  0.1903 -0.0867
  227POPC   D2A 3271   1.331   0.891   6.571  0.1648 -0.0317 -0.2271
  227POPC   C3A 3272   1.232   0.542   6.832 -0.0342  0.5152 -0.0121
  227POPC   C4A 3273   1.473   0.149   6.739  0.1917  0.1988 -0.1501
  227POPC   C1B 3274   1.769   0.403   5.980 -0.1904 -0.0739  0.1403
  227POPC   C2B 3275   2.115   0.157   6.168  0.0906  0.4932  0.0912
  227POPC   C3B 3276   2.353  -0.106   6.335  0.0018  0.1521  0.0143
  227POPC   C4B 3277   2.673  -0.027   6.413  0.0601  0.2645  0.0187
  228POPC   NC3 3278   8.716   7.268   4.441 -0.1202 -0.1338  0.2483
  228POPC   PO4 3279   9.200   7.300   4.340 -0.0553 -0.0916  0.0484
  228POPC   GL1 3280   9.392   7.264   4.739  0.1932 -0.1356 -0.0700
  228POPC   GL2 3281   9.126   7.205   4.909  0.0551  0.1224  0.0207
  228POPC   C1A 3282   9.493   6.960   5.113  0.1307 -0.0301  0.1494
  228POPC   D2A 3283   9.582   6.612   5.148  0.5435  0.0952 -0.0518
  228POPC   C3A 3284   9.937   6.399   5.416 -0.2437 -0.1031 -0.0030
  228POPC   C4A 3285  10.383   6.434   5.440 -0.0982  0.0811  0.0910
  228POPC   C1B 3286   9.152   7.327   5.334 -0.1512 -0.1777 -0.0146
  228POPC   C2B 3287   9.318   7.492   5.591  0.2375  0.0216 -0.0427
  228POPC   C3B 3288   9.676   7.616   5.727  0.1274 -0.3227  0.3688
  228POPC   C4B 3289   9.981   7.835   5.906  0.0063 -0.1561  0.0001
  229POPC   NC3 3290   0.868   2.537   5.301 -0.2232 -0.0908 -0.0307
  229POPC   PO4 3291   0.562   2.732   5.052  0.0806  0.2398 -0.0210
  229POPC   GL1 3292   0.665   2.924   5.521 -0.4867  0.0709 -0.1188
  229POPC   GL2 3293   0.634   2.674   5.709  0.0916  0.1005  0.1685
  229POPC   C1A 3294   0.468   3.105   5.853 -0.0297 -0.0704 -0.6240
  229POPC   D2A 3295   0.415   3.433   6.166  0.0361  0.0608 -0.0352
  229POPC   C3A 3296   0.350   3.790   6.319  0.0233 -0.1782 -0.1201
  229POPC   C4A 3297   0.030   4.032   6.366  0.0660  0.3518  0.0953
  229POPC   C1B 3298   0.464   2.340   6.170 -0.4548  0.3427 -0.0312
  229POPC   C2B 3299   0.355   2.091   6.456 -0.1215  0.0699 -0.0103
  229POPC   C3B 3300   0.395   1.899   6.854 -0.3216  0.4412 -0.1274
  229POPC   C4B 3301   0.516   1.748   7.189  0.4213 -0.1419  0.0903
  230POPC   NC3 3302   5.992   0.520   5.041  0.2118  0.0843 -0.0447
  230POPC   PO4 3303   6.426   0.445   5.043 -0.3787  0.3150  0.0378
  230POPC   GL1 3304   6.731   0.490   5.372 -0.1096  0.1467 -0.0317
  230POPC   GL2 3305   6.966   0.451   5.390  0.1050  0.1187  0.1694
  230POPC   C1A 3306   6.723   0.476   5.795 -0.3211  0.2311 -0.0385
  230POPC   D2A 3307   6.880   0.342   6.172 -0.2228  0.2676 -0.3265
  230POPC   C3A 3308   6.478   0.095   6.468  0.0624  0.2761 -0.1079
  230POPC   C4A 3309   6.181   0.182   6.857  0.2749 -0.0845 -0.0490
  230POPC   C1B 3310   7.305   0.499   5.698 -0.2641 -0.0151  0.1365
  230POPC   C2B 3311   7.408   0.345   6.084 -0.3821 -0.2665 -0.0587
  230POPC   C3B 3312   7.313   0.440   6.515 -0.0078 -0.2800  0.0415
  230POPC   C4B 3313   6.951   0.339   6.687 -0.2271 -0.1289 -0.0390
  231POPC   NC3 3314   7.488   5.953   5.563 -0.3346 -0.1936  0.2040
  231POPC   PO4 3315   7.360   6.347   5.383 -0.1379  0.0387  0.0598
  231POPC   GL1 3316   7.550   6.564   5.654  0.0344 -0.1770 -0.1889
  231POPC   GL2 3317   7.546   6.376   5.907  0.4163  0.1520 -0.0080
  231POPC   C1A 3318   7.941   6.657   5.986 -0.0315  0.2958  0.2386
  231POPC   D2A 3319   8.305   6.815   6.294  0.1080  0.1279 -0.0964
  231POPC   C3A 3320   8.365   6.715   6.781 -0.0137  0.0801 -0.1358
  231POPC   C4A 3321   8.453   6.683   7.261 -0.0374 -0.0378  0.4326
  231POPC   C1B 3322   7.836   6.347   6.351  0.2545 -0.3516  0.0816
  231POPC   C2B 3323   7.986   6.356   6.774  0.3718  0.0932 -0.2687
  231POPC   C3B 3324   7.949   6.588   7.144  0.0674 -0.3790 -0.0823
  231POPC   C4B 3325   8.034   6.438   7.552  0.1350 -0.2874  0.1784
  232POPC   NC3 3326   6.863   4.674   5.816 -0.2372  0.0349  0.0627
  232POPC   PO4 3327   7.195   4.736   5.470  0.1398  0.0919 -0.1257
  232POPC   GL1 3328   7.340   4.689   5.953  0.0284  0.0560 -0.0522
  232POPC   GL2 3329   7.640   4.580   6.022 -0.1120  0.0933  0.0561
  232POPC   C1A 3330   7.336   4.571   6.442 -0.3399 -0.0795 -0.1608
  232POPC   D2A 3331   7.430   4.630   6.835  0.2049 -0.1082 -0.0147
  232POPC   C3A 3332   7.859   4.789   6.965 -0.0647  0.2061  0.1658
  232POPC   C4A 3333   8.274   4.681   7.078  0.4480 -0.1232  0.1176
  232POPC   C1B 3334   7.568   4.148   6.402  0.0722 -0.2919  0.0062
  232POPC   C2B 3335   7.291   4.161   6.733 -0.1337 -0.1292  0.0295
  232POPC   C3B 3336   7.366   4.173   7.166 -0.0084  0.0369  0.0931
  232POPC   C4B 3337   7.486   4.069   7.618  0.1568 -0.0049  0.1589
  233POPC   NC3 3338   3.587   6.034   3.661 -0.0710  0.1294  0.1017
  233POPC   PO4 3339   3.783   6.107   4.138  0.4422  0.1797  0.2489
  233POPC   GL1 3340   3.703   6.073   4.620  0.1572  0.4485  0.0909
  233POPC   GL2 3341   3.365   6.036   4.509 -0.1829 -0.2410  0.2470
  233POPC   C1A 3342   3.559   5.806   4.955  0.4790  0.0558 -0.2314
  233POPC   D2A 3343   3.077   5.534   4.870  0.2658  0.0868  0.2449
  233POPC   C3A 3344   2.755   5.788   5.056 -0.1017 -0.0196 -0.1800
  233POPC   C4A 3345   2.297   5.924   4.979  0.0140  0.2123  0.1044
  233POPC   C1B 3346   3.135   6.027   4.889  0.0399 -0.2611  0.2379
  233POPC   C2B 3347   3.126   5.991   5.275  0.0492 -0.1797  0.2102
  233POPC   C3B 3348   3.103   5.615   5.543 -0.1421  0.1328  0.0217
  233POPC   C4B 3349   2.720   5.684   5.799 -0.0923 -0.3885 -0.1535
  234POPC   NC3 3350   4.159   0.208   5.079 -0.0753  0.1968  0.0062
  234POPC   PO4 3351   3.824   0.230   4.945  0.3117 -0.1730  0.0249
  234POPC   GL1 3352   3.738   0.105   5.338 -0.1145 -0.2070 -0.1673
  234POPC   GL2 3353   3.562  -0.042   5.334  0.1015 -0.1746 -0.2228
  234POPC   C1A 3354   3.876  -0.106   5.768  0.1741  0.1707 -0.0984
  234POPC   D2A 3355   3.915  -0.287   6.182  0.0930  0.3425 -0.1659
  234POPC   C3A 3356   3.495  -0.252   6.198 -0.0830  0.1102 -0.0801
  234POPC   C4A 3357   3.060  -0.291   6.150  0.0511 -0.0664 -0.1347
  234POPC   C1B 3358   3.399   0.014   5.774 -0.0794  0.1656  0.3641
  234POPC   C2B 3359   3.325   0.209   6.183  0.2347  0.1212  0.2722
  234POPC   C3B 3360   3.218   0.159   6.547 -0.0251  0.1951  0.0085
  234POPC   C4B 3361   2.908   0.182   6.874 -0.0364  0.2507 -0.2465
  235POPC   NC3 3362   2.387   2.838   3.978  0.1434  0.2195 -0.2897
  235POPC   PO4 3363   2.321   2.998   4.400 -0.1772 -0.1792 -0.5376
  235POPC   GL1 3364   2.093   3.406   4.648  0.3264  0.2541 -0.2093
  235POPC   GL2 3365   1.754   3.646   4.901 -0.0163  0.1005 -0.1979
  235POPC   C1A 3366   2.271   3.811   4.891 -0.1164 -0.3241  0.0904
  235POPC   D2A 3367   1.911   4.058   5.055 -0.1443  0.0900  0.2010
  235POPC   C3A 3368   2.008   4.384   5.361 -0.0445  0.1183 -0.3296
  235POPC   C4A 3369   2.090   4.422   5.867 -0.2122 -0.0442 -0.1464
  235POPC   C1B 3370   1.985   3.360   5.142  0.3182 -0.1230  0.2258
  235POPC   C2B 3371   2.038   3.333   5.647 -0.0898  0.1197 -0.0050
  235POPC   C3B 3372   2.176   3.538   6.039 -0.1344 -0.4381  0.3375
  235POPC   C4B 3373   2.187   3.973   6.023  0.1771 -0.1929  0.2048
  236POPC   NC3 3374   1.899   2.057   5.327  0.2049  0.1228 -0.1849
  236POPC   PO4 3375   2.369   2.089   5.170  0.4021  0.1852  0.1121
  236POPC   GL1 3376   2.207   2.181   5.690  0.0702  0.1185  0.0680
  236POPC   GL2 3377   2.434   2.449   5.903  0.0189 -0.1538 -0.2052
  236POPC   C1A 3378   1.916   2.431   6.034  0.0241 -0.0886  0.0036
  236POPC   D2A 3379   1.712   2.508   6.400 -0.3791  0.1660  0.2439
  236POPC   C3A 3380   1.684   2.401   6.771  0.2491 -0.0155  0.1491
  236POPC   C4A 3381   1.535   2.459   7.211 -0.0125 -0.2563 -0.1580
  236POPC   C1B 3382   2.286   2.673   6.270 -0.1754 -0.1004  0.3443
  236POPC   C2B 3383   2.108   2.648   6.689 -0.3438  0.0789 -0.3310
  236POPC   C3B 3384   2.127   2.871   7.146  0.1055 -0.2273  0.2560
  236POPC   C4B 3385   1.949   2.935   7.559 -0.0821  0.2098  0.0235
  237POPC   NC3 3386   8.476   6.045   5.211  0.0895  0.0770  0.1307
  237POPC   PO4 3387   8.289   6.391   5.113  0.1440 -0.2412  0.2903
  237POPC   GL1 3388   8.570   6.519   5.458  0.4169  0.0955 -0.0764
  237POPC   GL2 3389   8.424   6.535   5.804  0.0695 -0.0481  0.2870
  237POPC   C1A 3390   8.936   6.333   5.660 -0.2451  0.0158 -0.2767
  237POPC   D2A 3391   9.036   6.170   6.103  0.1166  0.0239  0.0382
  237POPC   C3A 3392   9.019   6.447   6.487  0.0818 -0.3698 -0.0893
  237POPC   C4A 3393   8.953   6.817   6.598 -0.0616 -0.1832  0.1540
  237POPC   C1B 3394   8.634   6.501   6.125 -0.0041  0.0750  0.1335
  237POPC   C2B 3395   8.464   6.318   6.520 -0.2495  0.1640 -0.1321
  237POPC   C3B 3396   8.458   6.221   6.926 -0.2341 -0.1505 -0.0732
  237POPC   C4B 3397   8.815   6.423   7.033 -0.1123  0.0724  0.1172
  238POPC   NC3 3398   5.337   7.659   4.710  0.0003 -0.0284  0.0528
  238POPC   PO4 3399   5.712   7.585   5.003  0.1020 -0.3435  0.3263
  238POPC   GL1 3400   5.799   7.759   5.329 -0.0759 -0.1903  0.1454
  238POPC   GL2 3401   6.026   7.957   5.421  0.0604  0.3165 -0.2356
  238POPC   C1A 3402   5.900   7.534   5.685 -0.0112  0.1886  0.1663
  238POPC   D2A 3403   5.575   7.318   5.926  0.1943 -0.0708 -0.0425
  238POPC   C3A 3404   5.483   7.267   6.373 -0.0455 -0.1681  0.1658
  238POPC   C4A 3405   5.156   7.339   6.670  0.0366 -0.2617 -0.4414
  238POPC   C1B 3406   6.169   8.004   5.843 -0.1603 -0.1984  0.3360
  238POPC   C2B 3407   6.141   8.010   6.327 -0.1789 -0.1050 -0.0459
  238POPC   C3B 3408   5.830   8.058   6.592  0.3193  0.0786 -0.0226
  238POPC   C4B 3409   5.510   7.725   6.617  0.1964 -0.2218 -0.3064
  239POPC   NC3 3410   5.709   9.557   5.049  0.3308 -0.0982  0.1485
  239POPC   PO4 3411   6.026   9.509   4.876 -0.1525  0.0456  0.0252
  239POPC   GL1 3412   6.087   9.262   5.251 -0.0590 -0.1494 -0.0192
  239POPC   GL2 3413   6.030   9.528   5.426  0.0592  0.0336  0.1463
  239POPC   C1A 3414   6.459   9.304   5.489  0.0800 -0.2116  0.1378
  239POPC   D2A 3415   6.948   9.348   5.489 -0.0359  0.1676  0.5050
  239POPC   C3A 3416   7.099   9.162   5.858 -0.2091  0.2195 -0.0124
  239POPC   C4A 3417   7.105   9.237   6.410 -0.1104 -0.1984  0.1560
  239POPC   C1B 3418   6.040   9.598   5.877 -0.1151  0.0490 -0.1234
  239POPC   C2B 3419   5.813   9.694   6.164  0.3478  0.0221 -0.0650
  239POPC   C3B 3420   5.528   9.880   6.411 -0.1422 -0.1682 -0.2176
  239POPC   C4B 3421   5.356   9.916   6.867 -0.2178 -0.0032  0.3243
  240POPC   NC3 3422   3.918   9.529   5.079 -0.4644 -0.0961  0.1358
  240POPC   PO4 3423   4.340   9.523   4.968 -0.3003  0.0025 -0.0832
  240POPC   GL1 3424   4.304   9.215   5.235 -0.0045 -0.0379 -0.1009
  240POPC   GL2 3425   4.064   9.231   5.431 -0.6103  0.1614 -0.3611
  240POPC   C1A 3426   4.541   9.066   5.500  0.0299 -0.3077  0.1884
  240POPC   D2A 3427   4.224   8.928   5.858 -0.0013 -0.0598  0.3242
  240POPC   C3A 3428   4.278   9.052   6.303 -0.3370  0.0252 -0.1355
  240POPC   C4A 3429   4.576   9.350   6.438 -0.1363  0.1774 -0.0739
  240POPC   C1B 3430   4.041   9.522   5.742  0.0628 -0.1142 -0.0691
  240POPC   C2B 3431   4.097   9.481   6.101 -0.0345  0.0036  0.0473
  240POPC   C3B 3432   3.717   9.452   6.294  0.1899 -0.1815  0.1062
  240POPC   C4B 3433   3.562   9.215   6.705  0.0250 -0.2440 -0.1791
  241POPC   NC3 3434   8.291   5.145   5.131 -0.1738  0.0605  0.0762
  241POPC   PO4 3435   8.445   5.601   5.005 -0.0569 -0.4299  0.1330
  241POPC   GL1 3436   8.628   5.574   5.382 -0.0630  0.1935 -0.0305
  241POPC   GL2 3437   8.384   5.400   5.541  0.2601 -0.0809 -0.2961
  241POPC   C1A 3438   8.791   5.557   5.905  0.2739  0.0481  0.1939
  241POPC   D2A 3439   8.869   5.632   6.264  0.0643 -0.2568  0.1700
  241POPC   C3A 3440   8.590   5.951   6.197 -0.0686  0.0920  0.2477
  241POPC   C4A 3441   8.222   6.162   6.150 -0.1071 -0.0727  0.1551
  241POPC   C1B 3442   8.003   5.278   5.828  0.0180  0.2652 -0.3499
  241POPC   C2B 3443   7.866   5.060   6.156 -0.3150  0.0342 -0.0373
  241POPC   C3B 3444   7.888   4.757   6.428  0.1550  0.0466 -0.0118
  241POPC   C4B 3445   8.006   4.375   6.731 -0.1131 -0.1455 -0.0254
  242POPC   NC3 3446   9.952   7.642   4.029 -0.1359  0.4138  0.0799
  242POPC   PO4 3447   9.917   7.237   4.214 -0.1070 -0.1439  0.0688
  242POPC   GL1 3448  10.075   6.876   4.316 -0.0394  0.0747 -0.0609
  242POPC   GL2 3449  10.127   6.904   4.583 -0.1347  0.1437 -0.0175
  242POPC   C1A 3450  10.476   6.562   4.444 -0.2386 -0.0715  0.1562
  242POPC   D2A 3451  10.780   6.318   4.659 -0.1244 -0.2604 -0.0748
  242POPC   C3A 3452  10.853   6.356   5.218  0.1505  0.0968 -0.0441
  242POPC   C4A 3453  10.839   6.599   5.649 -0.1192 -0.0011 -0.0003
  242POPC   C1B 3454   9.988   7.084   4.968 -0.0472 -0.1630  0.1888
  242POPC   C2B 3455  10.184   6.919   5.368  0.1512  0.1365 -0.2023
  242POPC   C3B 3456  10.081   6.960   5.730 -0.0126 -0.3168  0.0325
  242POPC   C4B 3457   9.703   7.168   5.868 -0.1872 -0.0969 -0.1250
  243POPC   NC3 3458   7.631   2.715   5.299 -0.1108  0.2723 -0.0099
  243POPC   PO4 3459   7.841   2.321   5.473  0.2141 -0.0782 -0.2118
  243POPC   GL1 3460   7.566   2.194   5.764 -0.1340  0.1667 -0.3552
  243POPC   GL2 3461   7.142   2.420   5.774 -0.2459 -0.1586  0.4018
  243POPC   C1A 3462   7.306   2.164   6.141 -0.2016 -0.1039 -0.0910
  243POPC   D2A 3463   7.158   1.901   6.374 -0.0041 -0.3274  0.1223
  243POPC   C3A 3464   7.356   1.718   6.845 -0.2141  0.1771 -0.1691
  243POPC   C4A 3465   7.740   1.788   7.016  0.1400  0.1948  0.0256
  243POPC   C1B 3466   7.292   2.647   6.071 -0.0097 -0.0139 -0.1191
  243POPC   C2B 3467   7.378   2.679   6.526 -0.1668 -0.0744  0.0796
  243POPC   C3B 3468   7.442   2.673   7.019  0.1895 -0.3173 -0.0028
  243POPC   C4B 3469   7.745   2.533   7.291 -0.2482 -0.3270 -0.1298
  244POPC   NC3 3470   8.058   1.990   4.620  0.2363 -0.0351 -0.2922
  244POPC   PO4 3471   8.444   1.857   4.841  0.1891  0.1153 -0.1219
  244POPC   GL1 3472   8.547   1.633   5.259  0.1160 -0.0159 -0.0637
  244POPC   GL2 3473   8.549   1.372   5.439 -0.0804 -0.0255 -0.1043
  244POPC   C1A 3474   8.170   1.691   5.622 -0.0064 -0.2076  0.1272
  244POPC   D2A 3475   8.173   1.560   6.014 -0.0015  0.1050  0.0150
  244POPC   C3A 3476   8.152   1.424   6.341 -0.1253  0.2449  0.2368
  244POPC   C4A 3477   7.869   1.474   6.589  0.3809  0.1725  0.0763
  244POPC   C1B 3478   8.720   1.211   5.846  0.2072 -0.0331 -0.1131
  244POPC   C2B 3479   9.127   1.319   6.108  0.0838 -0.0474  0.1415
  244POPC   C3B 3480   9.447   1.268   6.342 -0.2988  0.0966  0.1313
  244POPC   C4B 3481   9.425   1.211   6.768  0.1516  0.1624 -0.0446
  245POPC   NC3 3482   0.813   0.245   5.124  0.4605  0.1548  0.0869
  245POPC   PO4 3483   0.794   0.610   5.147  0.1645 -0.3656  0.1930
  245POPC   GL1 3484   0.841   0.542   5.577 -0.4296 -0.0029  0.3194
  245POPC   GL2 3485   0.589   0.667   5.640  0.1197 -0.1126 -0.2645
  245POPC   C1A 3486   0.954   0.613   6.033 -0.1206 -0.3154  0.1753
  245POPC   D2A 3487   1.255   0.447   6.275  0.3585 -0.2662  0.0861
  245POPC   C3A 3488   1.397   0.030   6.260 -0.0817  0.0116 -0.2073
  245POPC   C4A 3489   1.386  -0.352   6.104 -0.0677  0.2491 -0.0440
  245POPC   C1B 3490   0.188   0.614   5.913  0.1326  0.1142  0.1871
  245POPC   C2B 3491   0.037   0.539   6.377  0.1132 -0.2418  0.1319
  245POPC   C3B 3492  -0.059   0.578   6.845 -0.0581  0.1923 -0.0890
  245POPC   C4B 3493  -0.068   1.006   7.077 -0.2294 -0.0315  0.2577
  246POPC   NC3 3494   6.297   8.721   4.354  0.0630 -0.2671 -0.0787
  246POPC   PO4 3495   6.114   8.828   4.811 -0.0497  0.1040 -0.0136
  246POPC   GL1 3496   6.053   8.658   5.230 -0.0856 -0.0277 -0.1263
  246POPC   GL2 3497   5.772   8.784   5.288 -0.0515  0.0148  0.0078
  246POPC   C1A 3498   6.035   8.506   5.636  0.2822 -0.1704  0.3288
  246POPC   D2A 3499   5.921   8.500   6.082 -0.2867 -0.0541 -0.0952
  246POPC   C3A 3500   5.753   8.533   6.477  0.0198  0.0270 -0.3424
  246POPC   C4A 3501   5.256   8.470   6.651  0.4057 -0.0316  0.3971
  246POPC   C1B 3502   5.599   8.661   5.677  0.4868 -0.1399 -0.1065
  246POPC   C2B 3503   5.412   8.667   6.092  0.3914 -0.2438  0.3454
  246POPC   C3B 3504   5.285   8.869   6.345  0.0198  0.0410  0.4558
  246POPC   C4B 3505   5.416   9.317   6.563  0.0915 -0.0335  0.2365
  247POPC   NC3 3506   9.243   5.920   4.532  0.0659  0.0832  0.0124
  247POPC   PO4 3507   8.841   6.066   4.644 -0.1900  0.2479 -0.1268
  247POPC   GL1 3508   9.007   5.787   4.976 -0.1389 -0.0451  0.0190
  247POPC   GL2 3509   9.349   5.861   5.024 -0.1425 -0.0843 -0.2846
  247POPC   C1A 3510   9.096   5.746   5.508 -0.1036  0.0223  0.1498
  247POPC   D2A 3511   9.263   5.783   5.940 -0.1391 -0.1214 -0.3355
  247POPC   C3A 3512   9.677   5.653   6.150  0.1578  0.0877 -0.2325
  247POPC   C4A 3513   9.920   5.911   6.120  0.3906 -0.3301 -0.2249
  247POPC   C1B 3514   9.279   6.157   5.342 -0.3175  0.0127  0.4359
  247POPC   C2B 3515   9.598   6.147   5.744  0.2402  0.3323  0.3443
  247POPC   C3B 3516   9.553   6.248   6.171 -0.0939  0.0596  0.0353
  247POPC   C4B 3517   9.515   6.388   6.585 -0.1296  0.0214 -0.0463
  248POPC   NC3 3518   2.594   7.862   4.311  0.0364 -0.0133 -0.1974
  248POPC   PO4 3519   2.444   7.437   4.239 -0.2065 -0.0112  0.2605
  248POPC   GL1 3520   2.328   7.425   4.655 -0.1806  0.2337  0.1632
  248POPC   GL2 3521   1.925   7.344   4.740  0.0152 -0.1758  0.1344
  248POPC   C1A 3522   2.231   7.559   5.075  0.1816 -0.3622  0.1267
  248POPC   D2A 3523   2.035   7.707   5.479 -0.0152 -0.0290 -0.2727
  248POPC   C3A 3524   1.683   7.489   5.632 -0.1628 -0.2141  0.0442
  248POPC   C4A 3525   1.692   7.301   5.917 -0.0106  0.2731 -0.1491
  248POPC   C1B 3526   1.676   7.424   5.046 -0.2091  0.1853 -0.0115
  248POPC   C2B 3527   1.304   7.358   5.050  0.0861  0.0399  0.2979
  248POPC   C3B 3528   1.138   7.312   4.652  0.0192 -0.1794  0.0702
  248POPC   C4B 3529   1.006   7.713   4.523 -0.1089 -0.1939  0.2036
  249POPC   NC3 3530   4.819   4.250   5.341  0.0614 -0.1266 -0.4991
  249POPC   PO4 3531   5.064   4.210   5.716  0.0584 -0.0097  0.0623
  249POPC   GL1 3532   4.973   4.336   6.036  0.0808  0.0161  0.1453
  249POPC   GL2 3533   5.016   4.681   6.055  0.0356  0.0933 -0.1366
  249POPC   C1A 3534   4.951   4.294   6.483 -0.0745 -0.1450 -0.0174
  249POPC   D2A 3535   4.985   4.461   6.881  0.0238  0.2145 -0.0106
  249POPC   C3A 3536   4.673   4.295   7.137  0.0226  0.1745  0.0115
  249POPC   C4A 3537   4.569   4.163   7.674  0.0382 -0.1233 -0.2240
  249POPC   C1B 3538   4.739   4.763   6.364  0.1128  0.1476 -0.1181
  249POPC   C2B 3539   4.618   4.755   6.741 -0.0614  0.1692 -0.1557
  249POPC   C3B 3540   4.570   4.774   7.170  0.2070  0.1465  0.0292
  249POPC   C4B 3541   4.645   5.093   7.485 -0.0099 -0.0720 -0.0468
  250POPC   NC3 3542   8.727   9.450   4.603 -0.0672  0.0084 -0.0259
  250POPC   PO4 3543   9.131   9.307   4.562 -0.0633  0.0418  0.2300
  250POPC   GL1 3544   9.075   9.302   5.028  0.1407  0.2285 -0.0046
  250POPC   GL2 3545   9.105   9.602   5.252 -0.0540  0.1625 -0.0220
  250POPC   C1A 3546   9.316   9.155   5.398 -0.1544  0.1132 -0.0138
  250POPC   D2A 3547   9.537   8.941   5.642 -0.4271  0.2307 -0.1107
  250POPC   C3A 3548   9.376   8.588   5.837  0.2501  0.0358 -0.0229
  250POPC   C4A 3549   9.492   8.248   6.039 -0.2588 -0.2130 -0.1913
  250POPC   C1B 3550   9.301   9.580   5.674 -0.1691  0.1506 -0.5179
  250POPC   C2B 3551   9.247   9.528   6.110 -0.2700  0.0324 -0.1586
  250POPC   C3B 3552   9.085   9.197   6.361  0.1017 -0.2480 -0.5243
  250POPC   C4B 3553   9.016   9.119   6.812  0.2877  0.1662 -0.0137
  251POPC   NC3 3554   5.120   0.242   5.049  0.1830 -0.0384 -0.0276
  251POPC   PO4 3555   4.741   0.122   5.174  0.1339 -0.1053 -0.1635
  251POPC   GL1 3556   4.729  -0.167   5.582  0.2954 -0.1445 -0.0217
  251POPC   GL2 3557   4.484  -0.281   5.415  0.0214  0.1202 -0.1321
  251POPC   C1A 3558   4.382  -0.178   5.963  0.3575  0.1323  0.0715
  251POPC   D2A 3559   4.511  -0.234   6.327  0.0979  0.1785  0.1437
  251POPC   C3A 3560   4.197  -0.482   6.547 -0.1909 -0.0194 -0.1142
  251POPC   C4A 3561   4.070  -0.846   6.687  0.1598  0.1824 -0.0605
  251POPC   C1B 3562   4.492  -0.602   5.686 -0.0027 -0.1160  0.1186
  251POPC   C2B 3563   4.575  -0.892   5.954 -0.2193 -0.0805 -0.0658
  251POPC   C3B 3564   4.702  -1.290   6.042  0.0526  0.1183  0.1791
  251POPC   C4B 3565   4.995  -1.436   5.707 -0.2212  0.2602 -0.0586
  252POPC   NC3 3566   0.353   7.058   3.400  0.2378 -0.0752  0.1381
  252POPC   PO4 3567   0.398   7.423   3.602  0.2140 -0.1140 -0.3626
  252POPC   GL1 3568   0.255   7.334   4.019 -0.1375 -0.0776 -0.0175
  252POPC   GL2 3569   0.169   7.479   4.319 -0.1565 -0.1602  0.0659
  252POPC   C1A 3570   0.328   7.058   4.330  0.1268 -0.0006  0.0712
  252POPC   D2A 3571   0.248   7.242   4.819  0.0593  0.1209  0.0740
  252POPC   C3A 3572   0.472   7.669   4.919  0.1094 -0.1543 -0.3023
  252POPC   C4A 3573   0.873   7.692   5.141  0.0757  0.0530 -0.0176
  252POPC   C1B 3574   0.612   7.390   4.517 -0.0008 -0.0354 -0.1456
  252POPC   C2B 3575   0.726   7.212   4.889  0.0581  0.0021  0.3848
  252POPC   C3B 3576   0.944   7.134   5.318  0.0087  0.1578 -0.0416
  252POPC   C4B 3577   0.853   7.169   5.760 -0.3163  0.0225  0.2276
  253POPC   NC3 3578   8.897   5.926   4.153  0.0651 -0.0106  0.1096
  253POPC   PO4 3579   9.232   5.516   4.218  0.0762  0.0435 -0.1300
  253POPC   GL1 3580   9.645   5.533   4.316 -0.2336 -0.1952 -0.1710
  253POPC   GL2 3581   9.805   5.880   4.336  0.1875  0.3121  0.1158
  253POPC   C1A 3582   9.774   5.654   4.775 -0.3533 -0.0894  0.2483
  253POPC   D2A 3583   9.872   6.026   5.087 -0.0619 -0.1185  0.0535
  253POPC   C3A 3584  10.199   5.974   5.387  0.0516  0.1533  0.1315
  253POPC   C4A 3585  10.658   6.098   5.563  0.2019  0.2988 -0.1683
  253POPC   C1B 3586  10.122   5.492   4.455  0.2527 -0.1062  0.2966
  253POPC   C2B 3587  10.090   5.230   4.684  0.4280 -0.0336 -0.5480
  253POPC   C3B 3588   9.777   5.203   5.000 -0.0396 -0.1065  0.0674
  253POPC   C4B 3589   9.381   5.412   5.151  0.0451 -0.0075  0.3190
  254POPC   NC3 3590   9.415   5.047   4.162  0.0852  0.3291 -0.2021
  254POPC   PO4 3591   9.213   4.784   4.484 -0.2757  0.0640  0.2200
  254POPC   GL1 3592   9.367   4.828   4.938 -0.0428  0.4357  0.0663
  254POPC   GL2 3593   9.182   4.971   5.252  0.0056 -0.1160  0.1059
  254POPC   C1A 3594   9.491   4.470   5.302  0.1196 -0.0991  0.1191
  254POPC   D2A 3595   9.559   4.122   5.628  0.0192  0.0281  0.0233
  254POPC   C3A 3596   9.822   4.125   6.015  0.0330 -0.0074  0.3202
  254POPC   C4A 3597   9.757   4.240   6.391  0.3525  0.0313 -0.2021
  254POPC   C1B 3598   9.589   4.983   5.495  0.2233 -0.5256  0.1413
  254POPC   C2B 3599   9.959   5.092   5.602 -0.0479  0.0485  0.1338
  254POPC   C3B 3600  10.426   5.069   5.662  0.0361  0.2320 -0.1014
  254POPC   C4B 3601  10.607   4.877   6.013 -0.0364 -0.1587  0.2512
  255POPC   NC3 3602   9.895   1.772   4.707  0.1734  0.0747 -0.1941
  255POPC   PO4 3603   9.818   1.721   5.099  0.2138 -0.2342 -0.1856
  255POPC   GL1 3604   9.827   1.722   5.580 -0.1202 -0.2422  0.0963
  255POPC   GL2 3605   9.453   1.816   5.618  0.2103  0.1257  0.0525
  255POPC   C1A 3606   9.706   2.120   5.899 -0.0161 -0.0466 -0.0886
  255POPC   D2A 3607   9.479   2.214   6.259 -0.2202  0.1933  0.2303
  255POPC   C3A 3608   9.527   1.908   6.648  0.0402  0.1092  0.0113
  255POPC   C4A 3609   9.122   1.621   6.848  0.1585  0.1091 -0.2146
  255POPC   C1B 3610   9.561   1.665   6.042  0.1511  0.1585 -0.0820
  255POPC   C2B 3611   9.783   1.561   6.508  0.0300  0.0736  0.0995
  255POPC   C3B 3612   9.775   1.574   6.955 -0.1181  0.1926 -0.0438
  255POPC   C4B 3613   9.480   1.651   7.230 -0.1129 -0.3696 -0.1534
  256POPC   NC3 3614   4.505   5.605   5.003 -0.2688  0.1053 -0.2183
  256POPC   PO4 3615   4.473   5.175   5.319 -0.2209 -0.0410 -0.2179
  256POPC   GL1 3616   4.234   5.006   5.704 -0.1373  0.2919  0.5177
  256POPC   GL2 3617   3.796   4.984   5.537  0.0174 -0.0209  0.1536
  256POPC   C1A 3618   4.388   4.979   6.087 -0.0094 -0.0869 -0.2480
  256POPC   D2A 3619   4.496   5.290   6.513 -0.1754 -0.1267 -0.0840
  256POPC   C3A 3620   4.446   5.376   6.996 -0.0460  0.1461  0.2499
  256POPC   C4A 3621   4.784   5.527   7.377 -0.0279 -0.2266  0.0075
  256POPC   C1B 3622   3.762   5.091   5.972 -0.0132  0.0984  0.0579
  256POPC   C2B 3623   3.935   5.021   6.319  0.0663 -0.2770 -0.3089
  256POPC   C3B 3624   4.177   4.832   6.656  0.1777 -0.1731 -0.1057
  256POPC   C4B 3625   4.133   4.665   7.023 -0.1571 -0.0147 -0.0352
  257POPC   NC3 3626   8.157   3.331   5.067  0.3578  0.0551 -0.0499
  257POPC   PO4 3627   8.192   3.655   5.332 -0.4246  0.2993 -0.1646
  257POPC   GL1 3628   8.139   3.542   5.722  0.2492 -0.0457 -0.1035
  257POPC   GL2 3629   8.413   3.804   5.825  0.0740  0.0987 -0.0219
  257POPC   C1A 3630   8.159   3.518   6.201  0.2408  0.4519  0.3199
  257POPC   D2A 3631   8.076   3.403   6.593  0.2981  0.1634 -0.0589
  257POPC   C3A 3632   8.310   3.240   6.785 -0.0223 -0.0446  0.0662
  257POPC   C4A 3633   8.717   3.079   6.955  0.1251 -0.1831 -0.1718
  257POPC   C1B 3634   8.465   3.972   6.239  0.0130  0.4937 -0.1117
  257POPC   C2B 3635   8.519   4.049   6.635 -0.2550  0.2343 -0.0614
  257POPC   C3B 3636   8.655   4.278   7.041  0.2928 -0.0213  0.2095
  257POPC   C4B 3637   8.936   4.008   7.155 -0.2961 -0.2301  0.2277
  258POPC   NC3 3638   5.709   1.440   5.392 -0.0610 -0.0607 -0.0756
  258POPC   PO4 3639   5.388   1.187   5.100  0.1193  0.0791 -0.3693
  258POPC   GL1 3640   5.420   0.926   5.495  0.1150  0.1393  0.0610
  258POPC   GL2 3641   5.211   0.611   5.494  0.3141 -0.0048 -0.2135
  258POPC   C1A 3642   5.351   0.898   5.952  0.1541  0.4493 -0.2028
  258POPC   D2A 3643   5.135   1.075   6.291  0.0037 -0.1398  0.2128
  258POPC   C3A 3644   5.276   1.218   6.652 -0.0841  0.1720 -0.1344
  258POPC   C4A 3645   5.589   1.282   7.002  0.0395  0.1831  0.3909
  258POPC   C1B 3646   5.336   0.348   5.841 -0.2909 -0.6027  0.1254
  258POPC   C2B 3647   5.657   0.479   6.063 -0.2344 -0.0160  0.1275
  258POPC   C3B 3648   6.039   0.462   5.875 -0.0542  0.0130  0.0954
  258POPC   C4B 3649   6.316   0.708   5.716  0.0894 -0.2443 -0.2028
  259POPC   NC3 3650   9.605   1.236   5.301  0.2704  0.0693  0.1039
  259POPC   PO4 3651   9.290   1.562   5.258 -0.2824 -0.2319  0.1730
  259POPC   GL1 3652   8.976   1.597   5.568  0.0368  0.5592 -0.0698
  259POPC   GL2 3653   8.866   1.878   5.570 -0.0927  0.1283  0.0756
  259POPC   C1A 3654   9.027   1.743   5.983 -0.1158 -0.1479 -0.0907
  259POPC   D2A 3655   9.149   1.793   6.387 -0.0463  0.1341  0.0921
  259POPC   C3A 3656   8.883   2.031   6.587  0.2280 -0.4093  0.0677
  259POPC   C4A 3657   8.594   2.373   6.594  0.1651  0.0431  0.4254
  259POPC   C1B 3658   8.566   1.879   5.876  0.0027 -0.1880  0.0913
  259POPC   C2B 3659   8.629   1.641   6.293 -0.1008  0.2157  0.0839
  259POPC   C3B 3660   8.547   1.470   6.701 -0.1133  0.3433 -0.1234
  259POPC   C4B 3661   8.746   1.294   7.036  0.2874 -0.3417  0.1487
  260POPC   NC3 3662   2.692   2.560   4.789  0.1659 -0.2131  0.3791
  260POPC   PO4 3663   3.039   2.413   4.833 -0.3235  0.1909  0.0604
  260POPC   GL1 3664   2.980   2.492   5.295 -0.0355  0.1037  0.1492
  260POPC   GL2 3665   2.815   2.249   5.511  0.0615 -0.0987  0.0448
  260POPC   C1A 3666   2.872   2.678   5.743  0.0781  0.1660  0.1973
  260POPC   D2A 3667   2.880   2.494   6.162  0.2156  0.1721  0.1509
  260POPC   C3A 3668   2.806   2.520   6.552 -0.0297 -0.0233  0.1810
  260POPC   C4A 3669   2.865   2.492   6.966  0.1822  0.3213  0.1491
  260POPC   C1B 3670   2.733   2.067   5.916 -0.0615  0.1655  0.1387
  260POPC   C2B 3671   2.699   1.925   6.311  0.0253 -0.0144  0.0132
  260POPC   C3B 3672   2.991   2.023   6.623 -0.4667  0.0598 -0.0184
  260POPC   C4B 3673   3.319   2.260   6.844 -0.0747 -0.1570 -0.2427
  261POPC   NC3 3674   4.017   8.481   4.665  0.0067 -0.0845 -0.1348
  261POPC   PO4 3675   4.051   8.002   4.612 -0.1744  0.2046 -0.2807
  261POPC   GL1 3676   3.983   7.762   5.076  0.0471 -0.3121  0.1094
  261POPC   GL2 3677   3.745   7.929   5.222 -0.1804 -0.1060  0.3639
  261POPC   C1A 3678   4.010   7.720   5.534  0.0359 -0.0317  0.0426
  261POPC   D2A 3679   4.254   8.032   5.697 -0.3052 -0.0003 -0.3043
  261POPC   C3A 3680   4.281   7.905   6.189 -0.3307  0.0190  0.1216
  261POPC   C4A 3681   4.523   8.094   6.540  0.1291 -0.2348 -0.3883
  261POPC   C1B 3682   3.833   8.210   5.508  0.0109  0.5012  0.2274
  261POPC   C2B 3683   3.908   8.377   5.908  0.0848 -0.0815 -0.2424
  261POPC   C3B 3684   3.871   8.719   6.193 -0.2687 -0.1123 -0.2261
  261POPC   C4B 3685   3.541   8.794   6.380 -0.1304  0.0296  0.0303
  262POPC   NC3 3686   2.549   4.115   3.873 -0.0976  0.2005  0.0158
  262POPC   PO4 3687   2.410   4.325   4.212 -0.0013  0.0417  0.2989
  262POPC   GL1 3688   2.120   4.325   4.548 -0.1402  0.0723 -0.0309
  262POPC   GL2 3689   1.805   4.455   4.597 -0.3167  0.1322  0.3191
  262POPC   C1A 3690   2.223   4.655   4.850  0.0816 -0.0807 -0.1771
  262POPC   D2A 3691   2.143   5.059   4.674  0.2598 -0.2871  0.2240
  262POPC   C3A 3692   2.186   5.432   4.780 -0.4006  0.1828 -0.1834
  262POPC   C4A 3693   2.513   5.604   4.622 -0.0119 -0.0244 -0.0574
  262POPC   C1B 3694   1.672   4.890   4.636 -0.0354  0.0225 -0.1157
  262POPC   C2B 3695   1.704   5.319   4.728  0.0995  0.1546  0.1138
  262POPC   C3B 3696   1.591   5.636   4.936  0.1949  0.3039 -0.1121
  262POPC   C4B 3697   1.303   5.945   5.214  0.3334  0.1219  0.1685
  263POPC   NC3 3698   9.848   1.316   4.715 -0.0913  0.0960  0.1033
  263POPC   PO4 3699   9.892   0.990   5.001 -0.1030  0.0380  0.1363
  263POPC   GL1 3700   9.986   0.743   5.381 -0.0144  0.0870  0.1771
  263POPC   GL2 3701   9.928   0.517   5.260  0.0899  0.0844  0.1699
  263POPC   C1A 3702   9.861   0.786   5.809 -0.2656  0.0574 -0.1096
  263POPC   D2A 3703   9.511   0.929   6.040  0.0243  0.1872  0.1333
  263POPC   C3A 3704   9.633   0.671   6.371  0.1653  0.0380  0.1919
  263POPC   C4A 3705   9.781   0.375   6.596  0.2059  0.2197  0.1936
  263POPC   C1B 3706   9.795   0.301   5.555 -0.0673  0.0805  0.2605
  263POPC   C2B 3707   9.439   0.428   5.793  0.0912  0.2739 -0.2283
  263POPC   C3B 3708   9.192   0.332   6.137 -0.1251 -0.1471 -0.0038
  263POPC   C4B 3709   8.880   0.387   6.456  0.2897  0.0716 -0.0438
  264POPC   NC3 3710   7.126   6.767   5.471  0.2274 -0.0257  0.2596
  264POPC   PO4 3711   7.374   7.102   5.521 -0.0503  0.1438 -0.1293
  264POPC   GL1 3712   7.372   6.986   5.947  0.0263  0.0797  0.1765
  264POPC   GL2 3713   7.515   7.116   6.116 -0.2493  0.4518  0.2868
  264POPC   C1A 3714   7.406   6.660   6.300  0.2153 -0.3143 -0.0903
  264POPC   D2A 3715   7.339   6.237   6.431  0.0789  0.1400  0.2360
  264POPC   C3A 3716   6.982   6.042   6.526 -0.3460 -0.0878 -0.1432
  264POPC   C4A 3717   6.685   5.940   6.888 -0.1705  0.0292 -0.0853
  264POPC   C1B 3718   7.573   7.443   6.416  0.0575 -0.0100 -0.0375
  264POPC   C2B 3719   7.684   7.588   6.866  0.0328 -0.0150  0.0552
  264POPC   C3B 3720   7.487   7.843   7.116 -0.1397 -0.3775  0.1134
  264POPC   C4B 3721   7.388   8.149   7.367  0.0352  0.0133  0.0828
  265POPC   NC3 3722   5.081   6.017   5.248  0.2373  0.0912 -0.1116
  265POPC   PO4 3723   4.956   6.431   5.278 -0.0496 -0.2270  0.1684
  265POPC   GL1 3724   4.807   6.299   5.670 -0.1257  0.2033 -0.1487
  265POPC   GL2 3725   5.126   6.064   5.855  0.1940 -0.1759 -0.1655
  265POPC   C1A 3726   4.686   6.403   6.131  0.0903 -0.2457 -0.1339
  265POPC   D2A 3727   4.431   6.204   6.410 -0.0150  0.2166  0.0404
  265POPC   C3A 3728   4.440   5.754   6.428  0.3512 -0.0533  0.0971
  265POPC   C4A 3729   4.586   5.493   6.004  0.2443 -0.1603 -0.2672
  265POPC   C1B 3730   4.883   5.910   6.211 -0.0109 -0.2051  0.0509
  265POPC   C2B 3731   4.858   6.171   6.589  0.1636  0.1742 -0.0367
  265POPC   C3B 3732   4.729   6.535   6.675 -0.2494 -0.0136  0.2573
  265POPC   C4B 3733   4.352   6.772   6.560 -0.0768 -0.0597  0.3628
  266POPC   NC3 3734   5.510   4.257   5.997 -0.0307 -0.1412 -0.2891
  266POPC   PO4 3735   5.911   4.395   5.813 -0.1252 -0.0096  0.2377
  266POPC   GL1 3736   5.959   4.380   6.126 -0.0870 -0.0439 -0.1913
  266POPC   GL2 3737   6.003   4.743   6.210  0.1868 -0.3595  0.0077
  266POPC   C1A 3738   5.914   4.401   6.600  0.3309 -0.0708  0.1528
  266POPC   D2A 3739   5.756   4.590   6.942 -0.5276  0.3176  0.0221
  266POPC   C3A 3740   5.476   4.456   7.198 -0.0415  0.1874  0.1101
  266POPC   C4A 3741   5.174   4.103   7.183  0.0271 -0.1082  0.0686
  266POPC   C1B 3742   5.767   4.973   6.621  0.0403  0.1892 -0.2327
  266POPC   C2B 3743   5.889   5.387   6.904  0.0400 -0.2912 -0.0585
  266POPC   C3B 3744   5.942   5.425   7.398  0.4038  0.1622 -0.2100
  266POPC   C4B 3745   6.255   5.458   7.759 -0.2134 -0.1245  0.0454
  267POPC   NC3 3746   6.178   0.008   4.915  0.2102 -0.0935 -0.1241
  267POPC   PO4 3747   5.941  -0.191   5.176  0.1103 -0.1768  0.0610
  267POPC   GL1 3748   5.564  -0.291   5.501  0.2754 -0.2029 -0.2286
  267POPC   GL2 3749   5.535  -0.566   5.552  0.0197 -0.0199  0.2950
  267POPC   C1A 3750   5.358  -0.177   5.964  0.2123  0.0043  0.3613
  267POPC   D2A 3751   5.375   0.140   6.328  0.2827  0.0103  0.1259
  267POPC   C3A 3752   5.214   0.207   6.749 -0.0813  0.0755  0.3396
  267POPC   C4A 3753   4.968   0.113   7.004 -0.0827  0.2320 -0.0576
  267POPC   C1B 3754   5.353  -0.679   6.015 -0.4779 -0.0373 -0.3943
  267POPC   C2B 3755   5.044  -0.679   6.396  0.0448 -0.0708  0.3544
  267POPC   C3B 3756   4.934  -0.889   6.852  0.1993  0.2111 -0.0904
  267POPC   C4B 3757   4.467  -0.769   6.962  0.1623 -0.0836 -0.0792
  268POPC   NC3 3758   4.406   7.474   4.830 -0.1715  0.2948 -0.3599
  268POPC   PO4 3759   4.815   7.486   5.072  0.3630 -0.4875  0.1583
  268POPC   GL1 3760   4.824   7.459   5.503  0.1636 -0.0235  0.2412
  268POPC   GL2 3761   5.072   7.390   5.606 -0.1014 -0.3609  0.1513
  268POPC   C1A 3762   4.691   7.505   5.845  0.0040 -0.1255 -0.1098
  268POPC   D2A 3763   4.428   7.459   6.247  0.1583  0.2474  0.3678
  268POPC   C3A 3764   3.936   7.520   6.381  0.1563  0.0070  0.1471
  268POPC   C4A 3765   3.555   7.473   6.305 -0.0280  0.0277  0.0129
  268POPC   C1B 3766   5.125   7.161   5.965  0.0721 -0.2424  0.1054
  268POPC   C2B 3767   5.117   6.928   6.318  0.0135 -0.2268  0.1253
  268POPC   C3B 3768   5.128   6.896   6.856 -0.1108  0.2891  0.1719
  268POPC   C4B 3769   5.274   7.029   7.297  0.0102 -0.1434 -0.0550
  269POPC   NC3 3770   9.619   3.315   4.008  0.2196 -0.2829  0.0276
  269POPC   PO4 3771   9.617   3.188   4.442  0.3517  0.1135  0.0338
  269POPC   GL1 3772   9.886   3.273   4.864  0.2946 -0.2934 -0.0193
  269POPC   GL2 3773   9.904   3.107   5.151 -0.1014 -0.0373  0.4274
  269POPC   C1A 3774   9.934   3.773   5.018 -0.0757  0.0731 -0.0078
  269POPC   D2A 3775   9.900   4.235   5.152  0.0515 -0.2362 -0.0048
  269POPC   C3A 3776  10.162   4.169   5.556  0.0190  0.1155 -0.2092
  269POPC   C4A 3777  10.364   4.255   5.991  0.1323  0.0378  0.2847
  269POPC   C1B 3778   9.726   3.111   5.660 -0.0869 -0.1544 -0.2393
  269POPC   C2B 3779   9.362   3.200   5.862 -0.0460 -0.2535 -0.0544
  269POPC   C3B 3780   9.065   3.177   6.136  0.0887  0.1210  0.2528
  269POPC   C4B 3781   8.924   3.163   6.492 -0.1219  0.0191 -0.0229
  270POPC   NC3 3782   9.550   9.488   4.847 -0.0042  0.2415  0.3013
  270POPC   PO4 3783   9.909   9.369   4.830 -0.0905  0.1486 -0.1911
  270POPC   GL1 3784   9.789   9.243   5.219 -0.2525  0.2740 -0.2520
  270POPC   GL2 3785   9.836   9.477   5.422 -0.0279  0.2262 -0.2447
  270POPC   C1A 3786   9.984   8.919   5.524 -0.0347  0.1699  0.1986
  270POPC   D2A 3787   9.928   8.569   5.771  0.1420  0.1678  0.0054
  270POPC   C3A 3788   9.797   8.693   6.094  0.1432  0.0900 -0.4207
  270POPC   C4A 3789   9.868   8.980   6.495  0.0094  0.0644 -0.1887
  270POPC   C1B 3790  10.188   9.480   5.740  0.1207  0.0797 -0.0708
  270POPC   C2B 3791  10.279   9.497   6.155 -0.1350 -0.2045  0.1776
  270POPC   C3B 3792  10.071   9.482   6.499 -0.0041  0.0187 -0.0348
  270POPC   C4B 3793   9.683   9.532   6.430  0.3141 -0.2631  0.2763
  271POPC   NC3 3794   6.948  10.079   4.479 -0.1277  0.2871  0.0803
  271POPC   PO4 3795   7.264  10.025   4.829  0.0422 -0.5281  0.1231
  271POPC   GL1 3796   7.348   9.942   5.228 -0.0602 -0.0212 -0.1905
  271POPC   GL2 3797   7.123  10.154   5.306 -0.2020 -0.2194  0.1523
  271POPC   C1A 3798   7.272   9.746   5.564  0.0208 -0.2036  0.0781
  271POPC   D2A 3799   7.488   9.618   5.887 -0.2725 -0.0132 -0.0586
  271POPC   C3A 3800   7.753   9.239   5.860  0.0646 -0.0587  0.3266
  271POPC   C4A 3801   7.939   8.820   5.756 -0.0221 -0.1061 -0.1563
  271POPC   C1B 3802   7.094  10.259   5.765 -0.1594  0.1200  0.3778
  271POPC   C2B 3803   7.005  10.076   6.205  0.0424  0.2687  0.0807
  271POPC   C3B 3804   6.872  10.026   6.592 -0.1093  0.1398  0.1962
  271POPC   C4B 3805   6.592  10.001   6.929 -0.2387 -0.2291  0.0786
  272POPC   NC3 3806   7.900   8.948   4.661  0.2278 -0.0182  0.0961
  272POPC   PO4 3807   7.943   8.579   4.632 -0.4112 -0.0608 -0.0446
  272POPC   GL1 3808   8.240   8.777   4.947  0.3393  0.2442 -0.0683
  272POPC   GL2 3809   8.205   9.156   5.043 -0.1890 -0.1698  0.2356
  272POPC   C1A 3810   8.304   8.566   5.482  0.3826 -0.1712  0.1916
  272POPC   D2A 3811   8.461   8.446   5.870 -0.0872 -0.3789  0.2804
  272POPC   C3A 3812   8.257   8.671   6.220  0.0033  0.1029  0.2757
  272POPC   C4A 3813   8.022   8.924   6.502 -0.1088 -0.1014 -0.2400
  272POPC   C1B 3814   8.154   9.122   5.393  0.1065  0.1624 -0.0512
  272POPC   C2B 3815   8.410   8.967   5.802 -0.0026  0.2152 -0.1907
  272POPC   C3B 3816   8.512   9.113   6.234  0.2671  0.1223 -0.0753
  272POPC   C4B 3817   8.562   9.045   6.631 -0.1035  0.0805  0.1363
  273POPC   NC3 3818   0.860   3.353   4.599  0.0366  0.0097 -0.2568
  273POPC   PO4 3819   0.479   3.563   4.685 -0.1512 -0.0998  0.0144
  273POPC   GL1 3820   0.231   3.484   5.038 -0.0657 -0.0964  0.2364
  273POPC   GL2 3821   0.191   3.098   5.103 -0.1090  0.0895  0.4114
  273POPC   C1A 3822   0.106   3.699   5.409 -0.1264 -0.1034 -0.1659
  273POPC   D2A 3823  -0.000   3.735   5.863  0.3001  0.0738  0.1282
  273POPC   C3A 3824  -0.135   3.594   6.293 -0.3056 -0.0633 -0.1054
  273POPC   C4A 3825  -0.480   3.791   6.580 -0.1190 -0.1504  0.3286
  273POPC   C1B 3826   0.362   3.274   5.428  0.1000  0.1182  0.0725
  273POPC   C2B 3827   0.541   3.587   5.734  0.2428  0.1347  0.1641
  273POPC   C3B 3828   0.690   3.931   5.994 -0.2200 -0.4541  0.1090
  273POPC   C4B 3829   0.570   4.280   6.239 -0.0639 -0.0258  0.0800
  274POPC   NC3 3830   5.723   8.562   4.864  0.0862 -0.0849  0.0058
  274POPC   PO4 3831   5.326   8.625   5.094 -0.0793 -0.0219 -0.1025
  274POPC   GL1 3832   5.157   8.416   5.394  0.0140 -0.0663 -0.0431
  274POPC   GL2 3833   4.856   8.387   5.373  0.1349 -0.3592 -0.0935
  274POPC   C1A 3834   5.182   8.274   5.864  0.0029 -0.3448 -0.1154
  274POPC   D2A 3835   5.378   8.186   6.271 -0.0949 -0.2063  0.2539
  274POPC   C3A 3836   5.041   7.981   6.596 -0.0464  0.1054 -0.0829
  274POPC   C4A 3837   4.897   8.007   7.041 -0.0534  0.1293  0.2262
  274POPC   C1B 3838   4.617   8.463   5.659  0.0773 -0.0006 -0.4148
  274POPC   C2B 3839   4.377   8.453   6.093  0.2211 -0.0933  0.0985
  274POPC   C3B 3840   4.343   8.565   6.504 -0.0673  0.1084 -0.2175
  274POPC   C4B 3841   4.453   8.965   6.783 -0.0694 -0.0277  0.0425
  275POPC   NC3 3842   6.952   0.330   4.854  0.3620 -0.1977 -0.0282
  275POPC   PO4 3843   6.697   0.002   5.025  0.1001 -0.1992  0.2133
  275POPC   GL1 3844   6.644  -0.001   5.435  0.1446 -0.0356 -0.0822
  275POPC   GL2 3845   6.719  -0.263   5.507 -0.2480  0.0680 -0.1379
  275POPC   C1A 3846   6.598  -0.025   5.920  0.0719  0.1559 -0.3125
  275POPC   D2A 3847   6.554  -0.377   6.261  0.0506  0.1313 -0.1907
  275POPC   C3A 3848   6.184  -0.263   6.547  0.1570  0.1382 -0.1495
  275POPC   C4A 3849   5.851  -0.564   6.734  0.2186 -0.0006  0.1696
  275POPC   C1B 3850   6.931  -0.565   5.914  0.0988 -0.1857  0.0407
  275POPC   C2B 3851   6.585  -0.838   5.968 -0.1219  0.0296 -0.2096
  275POPC   C3B 3852   6.272  -0.859   6.319 -0.0357  0.1074 -0.0729
  275POPC   C4B 3853   5.801  -1.122   6.271  0.2129  0.2120 -0.0851
  276POPC   NC3 3854   1.762   3.419   4.250  0.0788 -0.0264 -0.0771
  276POPC   PO4 3855   1.508   3.119   4.419 -0.1869  0.3459 -0.2540
  276POPC   GL1 3856   1.302   3.237   4.795  0.0073  0.3216  0.0573
  276POPC   GL2 3857   1.390   3.574   4.584 -0.3331  0.3478  0.2040
  276POPC   C1A 3858   1.267   3.545   5.082  0.1418  0.1195 -0.1966
  276POPC   D2A 3859   1.377   3.976   5.011 -0.1973 -0.0114 -0.1351
  276POPC   C3A 3860   1.433   4.088   5.362 -0.4072  0.1292 -0.1836
  276POPC   C4A 3861   1.553   4.488   5.675 -0.0593 -0.2813 -0.3497
  276POPC   C1B 3862   1.278   4.065   4.533  0.1414  0.2568 -0.0729
  276POPC   C2B 3863   1.392   4.453   4.829 -0.0124 -0.0877 -0.1917
  276POPC   C3B 3864   1.196   4.602   5.234 -0.0873 -0.5202 -0.0700
  276POPC   C4B 3865   1.189   4.890   5.522 -0.3265  0.2224  0.2089
  277POPC   NC3 3866   0.298   0.551   5.237  0.1585  0.3366  0.2032
  277POPC   PO4 3867   0.172   0.161   5.153 -0.2059  0.3546  0.0255
  277POPC   GL1 3868   0.052   0.116   5.524  0.0073 -0.1543 -0.1149
  277POPC   GL2 3869   0.004  -0.210   5.493  0.3236 -0.1133 -0.0804
  277POPC   C1A 3870  -0.190   0.288   5.954 -0.2627  0.2040 -0.1824
  277POPC   D2A 3871  -0.557   0.163   6.161  0.2487 -0.0576 -0.1193
  277POPC   C3A 3872  -0.678  -0.235   6.322 -0.2106 -0.1273  0.0417
  277POPC   C4A 3873  -0.978  -0.579   6.615  0.0909 -0.2765 -0.0300
  277POPC   C1B 3874  -0.035  -0.247   5.953  0.2394 -0.0485  0.0150
  277POPC   C2B 3875  -0.128  -0.209   6.319  0.0445  0.0676  0.0707
  277POPC   C3B 3876  -0.302  -0.296   6.808 -0.2481  0.1716 -0.1547
  277POPC   C4B 3877  -0.458  -0.490   7.171 -0.0339 -0.2460 -0.2156
  278POPC   NC3 3878   0.650   2.901   4.238  0.1782  0.0275  0.0610
  278POPC   PO4 3879   0.861   2.798   4.634 -0.1451 -0.0674  0.1459
  278POPC   GL1 3880   0.908   3.100   5.054  0.0007 -0.3277  0.0612
  278POPC   GL2 3881   0.661   3.276   5.066 -0.1708 -0.0509 -0.2084
  278POPC   C1A 3882   1.054   3.240   5.440  0.1627  0.0912  0.1615
  278POPC   D2A 3883   1.152   3.354   5.847 -0.1787 -0.0944 -0.3114
  278POPC   C3A 3884   0.914   3.351   6.246 -0.2294  0.1665  0.3603
  278POPC   C4A 3885   0.696   3.462   6.587 -0.0995  0.2582 -0.0213
  278POPC   C1B 3886   0.784   3.717   5.313 -0.4581  0.0184  0.0780
  278POPC   C2B 3887   1.051   3.782   5.582 -0.1292  0.1284  0.0347
  278POPC   C3B 3888   1.212   3.865   6.015 -0.2358  0.1987 -0.1790
  278POPC   C4B 3889   1.072   4.185   6.275  0.0653  0.1349 -0.2712
  279POPC   NC3 3890   0.998   9.767   4.713 -0.2058  0.0011  0.0550
  279POPC   PO4 3891   0.951   9.875   5.079  0.1961 -0.0379  0.1170
  279POPC   GL1 3892   0.925  10.095   5.456 -0.0437 -0.4595  0.1189
  279POPC   GL2 3893   0.604  10.214   5.620  0.2150  0.1280  0.1268
  279POPC   C1A 3894   0.927   9.864   5.875 -0.1226  0.1396  0.0181
  279POPC   D2A 3895   0.701   9.887   6.161 -0.0992 -0.1519  0.1177
  279POPC   C3A 3896   1.003  10.005   6.460  0.1826  0.0600 -0.0076
  279POPC   C4A 3897   1.115  10.058   6.908 -0.2644  0.2516 -0.1533
  279POPC   C1B 3898   0.369  10.305   5.918  0.0239 -0.4845  0.0956
  279POPC   C2B 3899   0.291  10.286   6.356  0.0963 -0.0149  0.0006
  279POPC   C3B 3900   0.071  10.249   6.760 -0.2683 -0.0270  0.0888
  279POPC   C4B 3901   0.175  10.145   7.194  0.0160 -0.0982 -0.1129
  280POPC   NC3 3902   3.255   6.946   4.510  0.0027  0.1837  0.0225
  280POPC   PO4 3903   3.377   7.328   4.423  0.3467 -0.0311  0.0195
  280POPC   GL1 3904   3.135   7.313   4.831 -0.0225 -0.0000 -0.1497
  280POPC   GL2 3905   3.409   7.278   5.027  0.1675  0.0396  0.0802
  280POPC   C1A 3906   2.878   7.368   5.113  0.0509 -0.1713 -0.0368
  280POPC   D2A 3907   2.501   7.157   5.397 -0.2684 -0.0231  0.3718
  280POPC   C3A 3908   2.384   6.773   5.317 -0.2070  0.3827  0.0444
  280POPC   C4A 3909   2.196   6.299   5.411  0.2013  0.0010  0.1424
  280POPC   C1B 3910   3.304   7.086   5.414  0.3255  0.2952 -0.0954
  280POPC   C2B 3911   3.355   7.215   5.900 -0.1640 -0.0203  0.0091
  280POPC   C3B 3912   3.374   7.054   6.348 -0.1694  0.2245 -0.0245
  280POPC   C4B 3913   3.298   6.769   6.576  0.2638 -0.0653  0.1957
  281POPC   NC3 3914   1.668   7.768   3.268  0.3898 -0.0717  0.0258
  281POPC   PO4 3915   1.657   7.355   3.554  0.2072 -0.0530 -0.1401
  281POPC   GL1 3916   1.562   7.256   3.897 -0.2223 -0.0625  0.0587
  281POPC   GL2 3917   1.666   6.921   3.866  0.1037  0.3755  0.1789
  281POPC   C1A 3918   1.598   7.401   4.281  0.2896 -0.2917  0.3752
  281POPC   D2A 3919   1.534   7.651   4.612 -0.1401 -0.1259  0.0169
  281POPC   C3A 3920   1.300   7.863   4.896  0.1637 -0.2110  0.2151
  281POPC   C4A 3921   0.777   8.086   4.840  0.0315  0.0178 -0.0204
  281POPC   C1B 3922   1.872   6.933   4.296 -0.1587  0.0636 -0.1907
  281POPC   C2B 3923   2.225   6.898   4.529 -0.3460 -0.5220 -0.1508
  281POPC   C3B 3924   2.415   7.000   4.903 -0.0386  0.1790  0.3299
  281POPC   C4B 3925   2.758   6.907   4.964 -0.1298 -0.0731 -0.0565
  282POPC   NC3 3926   3.660   4.017   4.524  0.0503  0.2616 -0.2544
  282POPC   PO4 3927   3.890   4.133   5.002 -0.0434 -0.1530  0.1601
  282POPC   GL1 3928   4.029   4.067   5.380  0.2102  0.0092  0.1638
  282POPC   GL2 3929   4.205   3.850   5.551 -0.1313  0.2179  0.1867
  282POPC   C1A 3930   3.664   4.170   5.689  0.0066 -0.1694 -0.3129
  282POPC   D2A 3931   3.567   4.114   6.114  0.0000 -0.0683 -0.2446
  282POPC   C3A 3932   3.640   3.832   6.323  0.0252 -0.1144  0.0839
  282POPC   C4A 3933   3.686   3.551   6.646  0.2639  0.0533  0.2567
  282POPC   C1B 3934   4.044   3.678   5.903 -0.1469 -0.0748  0.2539
  282POPC   C2B 3935   3.610   3.528   5.856  0.2998  0.1601 -0.0248
  282POPC   C3B 3936   3.117   3.535   5.735 -0.3204 -0.2125  0.2431
  282POPC   C4B 3937   2.929   3.096   5.526 -0.0308  0.1199 -0.1552
  283POPC   NC3 3938   4.827   4.301   4.871 -0.2244  0.0788 -0.2937
  283POPC   PO4 3939   4.490   4.359   4.990  0.2146  0.3146  0.0129
  283POPC   GL1 3940   4.424   4.459   5.471 -0.3671 -0.1280  0.1608
  283POPC   GL2 3941   4.660   4.663   5.656 -0.3870 -0.1848  0.0139
  283POPC   C1A 3942   4.083   4.420   5.823  0.2372  0.1477  0.3310
  283POPC   D2A 3943   3.807   4.523   6.046  0.0893  0.1435  0.3072
  283POPC   C3A 3944   3.424   4.658   5.774 -0.2679 -0.2348  0.0921
  283POPC   C4A 3945   3.223   4.824   5.421  0.0586  0.0382 -0.0280
  283POPC   C1B 3946   4.484   4.519   6.007  0.1571 -0.0633 -0.0517
  283POPC   C2B 3947   4.314   4.415   6.330  0.3039 -0.0011  0.1554
  283POPC   C3B 3948   4.285   4.327   6.685  0.1838  0.0307 -0.3543
  283POPC   C4B 3949   3.912   3.974   6.848  0.0525  0.0656 -0.0982
  284POPC   NC3 3950   6.692   1.410   5.250 -0.3944 -0.0938  0.1025
  284POPC   PO4 3951   6.534   1.767   5.254  0.1695  0.0164 -0.0630
  284POPC   GL1 3952   6.629   1.546   5.699 -0.1420  0.1783  0.0529
  284POPC   GL2 3953   6.670   1.162   5.710 -0.2051  0.0714  0.1542
  284POPC   C1A 3954   6.546   1.450   6.069  0.1116 -0.0053  0.0224
  284POPC   D2A 3955   6.327   1.442   6.491  0.1460 -0.3155 -0.1299
  284POPC   C3A 3956   6.394   1.095   6.439  0.4016  0.0876  0.2990
  284POPC   C4A 3957   6.448   0.654   6.752  0.0126 -0.0442 -0.0611
  284POPC   C1B 3958   6.621   0.886   6.060  0.0148 -0.0094 -0.0930
  284POPC   C2B 3959   6.882   0.798   6.492  0.0646  0.4451  0.1836
  284POPC   C3B 3960   7.069   0.946   6.734 -0.1030  0.0060 -0.0011
  284POPC   C4B 3961   7.499   1.158   6.809 -0.1528  0.0559  0.0808
  285POPC   NC3 3962   0.044   4.316   4.272 -0.0024 -0.1619  0.0014
  285POPC   PO4 3963  -0.375   4.181   4.382  0.2463  0.0324 -0.0268
  285POPC   GL1 3964  -0.081   4.378   4.737 -0.0331  0.1427  0.0653
  285POPC   GL2 3965  -0.139   4.690   4.698  0.4126 -0.0653  0.0377
  285POPC   C1A 3966   0.129   4.402   5.160 -0.4100 -0.1781 -0.2995
  285POPC   D2A 3967   0.488   4.624   5.384  0.0566 -0.1718 -0.1304
  285POPC   C3A 3968   0.692   4.416   5.787  0.2115  0.0783  0.0538
  285POPC   C4A 3969   1.127   4.267   5.743 -0.1038  0.2573 -0.1905
  285POPC   C1B 3970  -0.213   4.742   5.120  0.0019  0.0763 -0.0181
  285POPC   C2B 3971  -0.153   4.640   5.583  0.3115  0.0404 -0.1922
  285POPC   C3B 3972  -0.178   4.634   6.012 -0.3200  0.0414  0.0933
  285POPC   C4B 3973  -0.285   4.701   6.419 -0.0079 -0.2127 -0.2918
  286POPC   NC3 3974   3.270   7.040   4.004 -0.2560  0.2316  0.1925
  286POPC   PO4 3975   3.580   6.633   4.237 -0.0388  0.0138 -0.1826
  286POPC   GL1 3976   3.445   6.508   4.637 -0.3205  0.2149  0.0060
  286POPC   GL2 3977   3.100   6.431   4.563  0.0551 -0.2230  0.1698
  286POPC   C1A 3978   3.536   6.278   5.040  0.0196  0.0392  0.2477
  286POPC   D2A 3979   3.593   6.080   5.387 -0.0910 -0.0583 -0.0356
  286POPC   C3A 3980   3.615   5.593   5.443 -0.0052 -0.0158  0.3254
  286POPC   C4A 3981   3.327   5.265   5.731  0.1099 -0.1655  0.3687
  286POPC   C1B 3982   3.103   6.594   5.104  0.1672  0.1132 -0.2675
  286POPC   C2B 3983   2.872   6.384   5.555  0.1151 -0.1348 -0.0024
  286POPC   C3B 3984   2.639   6.216   5.808 -0.0689  0.2143 -0.1299
  286POPC   C4B 3985   2.295   6.163   6.090  0.1436 -0.0856 -0.0140
  287POPC   NC3 3986   9.395   9.267   3.943 -0.0493 -0.0370 -0.0758
  287POPC   PO4 3987   9.688   8.891   4.142  0.0300 -0.0415 -0.1826
  287POPC   GL1 3988   9.586   8.528   4.467 -0.4517 -0.3359 -0.2168
  287POPC   GL2 3989   9.752   8.321   4.331 -0.1268 -0.3375  0.1731
  287POPC   C1A 3990   9.563   8.285   4.818  0.2686  0.0409  0.1730
  287POPC   D2A 3991   9.667   8.033   5.081  0.1386 -0.0070 -0.3085
  287POPC   C3A 3992   9.689   7.583   5.097 -0.2248 -0.0185  0.0322
  287POPC   C4A 3993   9.824   7.276   5.406 -0.4492 -0.1083  0.2259
  287POPC   C1B 3994   9.863   7.954   4.581  0.0194  0.1363  0.0837
  287POPC   C2B 3995  10.040   7.547   4.756  0.3580 -0.0963  0.0518
  287POPC   C3B 3996  10.207   7.504   5.206  0.1877 -0.3745  0.0339
  287POPC   C4B 3997  10.279   7.446   5.650 -0.2530 -0.1499  0.1856
  288POPC   NC3 3998  10.102   8.695   4.369 -0.2661  0.3705  0.3134
  288POPC   PO4 3999  10.552   8.895   4.483  0.1962  0.3086 -0.0869
  288POPC   GL1 4000  10.409   8.561   4.746 -0.1059  0.2034  0.0036
  288POPC   GL2 4001  10.051   8.452   4.755  0.2088 -0.0858  0.2068
  288POPC   C1A 4002  10.509   8.330   5.131 -0.2323 -0.4339  0.4328
  288POPC   D2A 4003  10.706   7.954   5.340  0.0319  0.4206 -0.0025
  288POPC   C3A 4004  10.548   7.822   5.729  0.0155  0.2866  0.2754
  288POPC   C4A 4005  10.440   7.823   6.131  0.1267  0.2312 -0.0497
  288POPC   C1B 4006  10.025   8.424   5.215 -0.0366  0.2511  0.2968
  288POPC   C2B 4007  10.378   8.476   5.593 -0.1018  0.2722  0.1793
  288POPC   C3B 4008  10.293   8.237   5.954 -0.0801  0.0787  0.2451
  288POPC   C4B 4009   9.958   8.197   6.306 -0.3354 -0.1880  0.0349
  289POPC   NC3 4010   5.455   7.282   5.347 -0.0701  0.0062  0.1313
  289POPC   PO4 4011   5.212   7.223   4.940  0.0578 -0.2872 -0.1379
  289POPC   GL1 4012   4.919   6.958   5.309 -0.3075 -0.1933  0.1399
  289POPC   GL2 4013   5.267   6.866   5.576  0.2334 -0.0437  0.2568
  289POPC   C1A 4014   4.786   6.977   5.729 -0.0149  0.1454 -0.0129
  289POPC   D2A 4015   4.649   6.941   6.143 -0.0019 -0.1984  0.0196
  289POPC   C3A 4016   4.713   7.146   6.556 -0.0667 -0.1633 -0.0121
  289POPC   C4A 4017   4.323   7.209   6.755  0.1466 -0.2855  0.0809
  289POPC   C1B 4018   5.085   6.621   5.920 -0.2178  0.0581 -0.2820
  289POPC   C2B 4019   5.252   6.343   6.314  0.0913  0.1977 -0.1243
  289POPC   C3B 4020   5.253   6.394   6.788  0.3306 -0.1919  0.2462
  289POPC   C4B 4021   5.260   6.486   7.203  0.3601  0.0773  0.4965
  290POPC   NC3 4022   2.256   2.809   4.850  0.1844  0.4116  0.2045
  290POPC   PO4 4023   2.141   2.540   5.183 -0.0373 -0.0045 -0.1074
  290POPC   GL1 4024   1.819   2.793   5.321  0.1396  0.0875 -0.0026
  290POPC   GL2 4025   1.897   2.680   5.573 -0.3038  0.0021 -0.1772
  290POPC   C1A 4026   1.554   3.149   5.301 -0.0266  0.0321  0.0108
  290POPC   D2A 4027   1.541   3.503   5.567  0.2765 -0.0770  0.2314
  290POPC   C3A 4028   1.595   3.543   6.028 -0.2097  0.3574 -0.1473
  290POPC   C4A 4029   1.775   3.420   6.414  0.1210 -0.0936 -0.1930
  290POPC   C1B 4030   1.963   2.983   6.025 -0.0636 -0.0902  0.2176
  290POPC   C2B 4031   2.140   3.137   6.423 -0.3378 -0.0382 -0.0927
  290POPC   C3B 4032   2.137   3.263   6.796 -0.1185  0.1967 -0.3174
  290POPC   C4B 4033   1.990   3.430   7.181 -0.1023 -0.2534  0.2031
  291POPC   NC3 4034   5.501   5.722   5.443 -0.1678 -0.1012 -0.0776
  291POPC   PO4 4035   5.551   6.162   5.324 -0.0822 -0.1175  0.0049
  291POPC   GL1 4036   5.520   6.392   5.689 -0.0097 -0.4828  0.1087
  291POPC   GL2 4037   5.628   5.998   5.859 -0.0779  0.0193 -0.2119
  291POPC   C1A 4038   5.612   6.761   5.936 -0.2376  0.0447 -0.1164
  291POPC   D2A 4039   5.700   6.809   6.283  0.1308  0.0619  0.1764
  291POPC   C3A 4040   6.036   7.074   6.435 -0.1630 -0.0223 -0.1617
  291POPC   C4A 4041   6.174   7.091   6.909  0.0589 -0.1576 -0.0968
  291POPC   C1B 4042   5.704   6.281   6.106 -0.0420 -0.0407 -0.3484
  291POPC   C2B 4043   5.744   6.391   6.551  0.2076  0.1199 -0.0254
  291POPC   C3B 4044   5.669   6.736   6.833  0.0210  0.0491  0.1059
  291POPC   C4B 4045   5.609   7.100   6.824 -0.1484 -0.3721  0.1042
  292POPC   NC3 4046   6.651   9.356   4.825  0.0431  0.1524 -0.1354
  292POPC   PO4 4047   7.044   9.128   4.832 -0.4479  0.1151  0.0098
  292POPC   GL1 4048   7.245   8.973   5.132  0.0034 -0.0038 -0.0595
  292POPC   GL2 4049   7.334   8.715   5.300  0.0800 -0.1680 -0.0112
  292POPC   C1A 4050   7.418   9.155   5.498  0.0917 -0.2274 -0.0363
  292POPC   D2A 4051   7.768   9.426   5.419  0.1866  0.2096  0.0810
  292POPC   C3A 4052   7.778   9.878   5.538  0.3268  0.3140  0.0264
  292POPC   C4A 4053   7.575  10.285   5.670  0.0015 -0.0790  0.0669
  292POPC   C1B 4054   7.437   8.708   5.754 -0.0051 -0.6354 -0.1237
  292POPC   C2B 4055   7.345   8.778   6.218 -0.1284  0.2832  0.1600
  292POPC   C3B 4056   7.200   8.662   6.536 -0.0441  0.1467 -0.1485
  292POPC   C4B 4057   7.334   8.719   6.924  0.0442  0.1768  0.0892
  293POPC   NC3 4058   2.453   0.178   5.349  0.1547 -0.1627  0.2435
  293POPC   PO4 4059   2.632   0.483   5.206  0.0234 -0.0636 -0.0964
  293POPC   GL1 4060   2.753   0.501   5.600 -0.0325 -0.0420 -0.0020
  293POPC   GL2 4061   2.679   0.097   5.766  0.0464 -0.2420 -0.1728
  293POPC   C1A 4062   2.589   0.865   5.941  0.0065  0.2018  0.0700
  293POPC   D2A 4063   2.595   0.883   6.427 -0.0699  0.0549  0.0516
  293POPC   C3A 4064   2.554   0.395   6.614  0.0359 -0.0967  0.1308
  293POPC   C4A 4065   2.389   0.100   6.821  0.0055  0.2487 -0.0218
  293POPC   C1B 4066   2.675   0.324   6.092  0.0338 -0.0395 -0.3731
  293POPC   C2B 4067   3.018   0.575   6.293 -0.1127 -0.0689  0.2105
  293POPC   C3B 4068   3.361   0.641   6.631 -0.0851  0.1700 -0.0971
  293POPC   C4B 4069   3.469   0.439   7.018 -0.0790 -0.0220  0.3069
  294POPC   NC3 4070   9.191   7.973   3.522  0.0162  0.0494  0.1914
  294POPC   PO4 4071   9.007   8.186   3.887 -0.0787  0.2362 -0.2176
  294POPC   GL1 4072   9.284   8.084   4.300 -0.1375 -0.2534 -0.1958
  294POPC   GL2 4073   9.352   7.832   4.545  0.1265 -0.1612  0.0160
  294POPC   C1A 4074   9.040   8.207   4.758  0.0448 -0.1260  0.0225
  294POPC   D2A 4075   9.089   8.292   5.201  0.1616 -0.4978 -0.1277
  294POPC   C3A 4076   8.960   8.294   5.580  0.0546 -0.0130 -0.1135
  294POPC   C4A 4077   8.939   8.404   5.917 -0.0862 -0.2510  0.3633
  294POPC   C1B 4078   9.219   7.810   5.033  0.0093  0.1500  0.0669
  294POPC   C2B 4079   8.960   7.816   5.398 -0.3340 -0.1095 -0.2767
  294POPC   C3B 4080   9.064   7.886   5.848  0.0992 -0.0190  0.1736
  294POPC   C4B 4081   9.323   7.698   6.128 -0.0143  0.2901 -0.0641
  295POPC   NC3 4082   2.643   1.705   5.084 -0.1667  0.2405 -0.1124
  295POPC   PO4 4083   2.447   1.283   5.108 -0.0357 -0.0773 -0.0873
  295POPC   GL1 4084   2.387   1.352   5.576  0.2173  0.5174  0.1887
  295POPC   GL2 4085   2.425   1.710   5.587  0.3749 -0.0143  0.0415
  295POPC   C1A 4086   2.274   1.218   5.981  0.0819 -0.1261 -0.2708
  295POPC   D2A 4087   2.165   1.174   6.356  0.0779 -0.0682  0.0394
  295POPC   C3A 4088   2.219   1.386   6.762 -0.2997  0.1697 -0.0677
  295POPC   C4A 4089   2.321   1.546   7.242 -0.2541 -0.3406  0.0110
  295POPC   C1B 4090   2.376   1.702   6.017  0.2277  0.1100  0.0008
  295POPC   C2B 4091   2.122   1.642   6.385 -0.3151  0.2671 -0.1386
  295POPC   C3B 4092   1.671   1.444   6.593 -0.0568  0.3625  0.2032
  295POPC   C4B 4093   1.302   1.401   6.383 -0.2251 -0.0864  0.1306
  296POPC   NC3 4094   0.898   7.801   3.527  0.0399  0.4518  0.1031
  296POPC   PO4 4095   1.256   7.708   3.574  0.0802  0.2694  0.1686
  296POPC   GL1 4096   1.076   7.470   3.854 -0.2897  0.0842 -0.3673
  296POPC   GL2 4097   0.696   7.541   4.019 -0.1696  0.0703  0.3310
  296POPC   C1A 4098   1.127   7.151   4.160 -0.1312  0.0504  0.4011
  296POPC   D2A 4099   1.332   6.905   4.420  0.0111 -0.2394 -0.2351
  296POPC   C3A 4100   1.568   7.056   4.666  0.0896 -0.0710 -0.0665
  296POPC   C4A 4101   1.917   6.869   4.946  0.3307 -0.1392 -0.1713
  296POPC   C1B 4102   0.462   7.842   4.432 -0.0689 -0.1479  0.1141
  296POPC   C2B 4103   0.167   8.017   4.692  0.1354  0.0122 -0.2294
  296POPC   C3B 4104   0.013   7.973   5.031  0.0819  0.3449 -0.3070
  296POPC   C4B 4105  -0.044   7.991   5.435 -0.0753 -0.0893 -0.1202
  297POPC   NC3 4106   4.399   3.785   5.102 -0.1478  0.1990  0.0334
  297POPC   PO4 4107   4.784   3.741   5.213  0.0617  0.1394  0.2308
  297POPC   GL1 4108   4.645   3.873   5.680 -0.1889  0.1224 -0.2010
  297POPC   GL2 4109   4.713   3.615   5.779  0.2033 -0.2116  0.3204
  297POPC   C1A 4110   4.433   4.029   5.977 -0.3036  0.2215 -0.0209
  297POPC   D2A 4111   4.073   4.010   6.294 -0.0401 -0.2238  0.0651
  297POPC   C3A 4112   4.136   3.582   6.506 -0.2341  0.3493  0.4451
  297POPC   C4A 4113   4.094   3.336   6.883  0.4041 -0.1863 -0.1394
  297POPC   C1B 4114   4.627   3.622   6.173 -0.0650 -0.0501  0.2943
  297POPC   C2B 4115   4.533   3.928   6.502  0.3384 -0.0916 -0.1031
  297POPC   C3B 4116   4.529   3.819   6.912 -0.0865 -0.2471 -0.1540
  297POPC   C4B 4117   4.783   3.787   7.230 -0.1869  0.2426 -0.3965
  298POPC   NC3 4118   2.222   0.780   4.996  0.1047 -0.0183  0.1312
  298POPC   PO4 4119   2.042   0.608   5.308 -0.2290 -0.0657  0.0736
  298POPC   GL1 4120   2.032   0.705   5.622 -0.3279 -0.4505 -0.3402
  298POPC   GL2 4121   2.259   0.503   5.807 -0.2345 -0.2300 -0.1416
  298POPC   C1A 4122   1.815   0.867   5.946 -0.0777  0.0583  0.0388
  298POPC   D2A 4123   1.797   0.853   6.246 -0.0008  0.1714 -0.2958
  298POPC   C3A 4124   1.805   0.470   6.487  0.0911 -0.2449  0.1036
  298POPC   C4A 4125   1.961   0.362   6.826 -0.1295  0.0410 -0.1012
  298POPC   C1B 4126   2.220   0.668   6.227  0.0326  0.1384 -0.2090
  298POPC   C2B 4127   2.244   0.723   6.713 -0.2107 -0.0880  0.1919
  298POPC   C3B 4128   1.908   0.888   6.992  0.1984  0.2017  0.3533
  298POPC   C4B 4129   1.823   1.324   7.061  0.0493  0.0437 -0.1524
  299POPC   NC3 4130   8.125   7.349   5.216  0.3023 -0.1146  0.1457
  299POPC   PO4 4131   7.753   7.455   5.188 -0.0111 -0.1788 -0.1893
  299POPC   GL1 4132   7.826   7.521   5.637 -0.2205  0.4748  0.0332
  299POPC   GL2 4133   7.525   7.739   5.603 -0.2216 -0.2482 -0.0442
  299POPC   C1A 4134   8.206   7.771   6.063  0.1560  0.2516 -0.1723
  299POPC   D2A 4135   8.376   7.731   6.512 -0.1755 -0.2076 -0.1517
  299POPC   C3A 4136   8.821   7.671   6.389 -0.0396 -0.0974 -0.1797
  299POPC   C4A 4137   9.304   7.583   6.672  0.0972 -0.0323  0.2042
  299POPC   C1B 4138   7.653   7.825   6.052 -0.0128 -0.0037 -0.5260
  299POPC   C2B 4139   7.793   7.937   6.513 -0.5224  0.1279  0.1159
  299POPC   C3B 4140   8.063   8.153   6.853  0.3042  0.0890 -0.1592
  299POPC   C4B 4141   7.879   8.517   7.096  0.0525 -0.1136  0.0165
  300POPC   NC3 4142   9.080   0.063   4.996  0.0252 -0.3619 -0.3252
  300POPC   PO4 4143   8.714  -0.260   4.984 -0.2422 -0.0514 -0.0369
  300POPC   GL1 4144   8.774  -0.186   5.384  0.1239  0.1789  0.0815
  300POPC   GL2 4145   8.594   0.039   5.453 -0.1157  0.1673 -0.0274
  300POPC   C1A 4146   8.701  -0.370   5.789 -0.3534  0.0889  0.2836
  300POPC   D2A 4147   8.382  -0.312   6.153  0.1331  0.2588  0.3858
  300POPC   C3A 4148   8.318  -0.637   6.490 -0.0849  0.1552  0.3242
  300POPC   C4A 4149   7.993  -0.834   6.764 -0.2225  0.2179  0.0770
  300POPC   C1B 4150   8.142  -0.012   5.650  0.3150 -0.1199 -0.0524
  300POPC   C2B 4151   8.025  -0.034   6.014  0.4108  0.0517  0.0974
  300POPC   C3B 4152   7.584  -0.154   6.231  0.0951  0.0963  0.0426
  300POPC   C4B 4153   7.258  -0.448   6.440 -0.1235  0.2483 -0.0195
  301POPC   NC3 4154   4.934   0.738   5.096  0.5228  0.3204  0.2363
  301POPC   PO4 4155   4.540   0.596   5.229 -0.2649  0.1158 -0.0558
  301POPC   GL1 4156   4.643   0.632   5.557 -0.2610  0.1440  0.1627
  301POPC   GL2 4157   4.751   0.309   5.615  0.0431  0.0561 -0.1432
  301POPC   C1A 4158   4.868   0.696   5.879 -0.0402  0.0227 -0.1381
  301POPC   D2A 4159   5.102   0.554   6.253 -0.5089 -0.1335  0.1079
  301POPC   C3A 4160   5.468   0.737   6.522 -0.2715 -0.1385  0.0250
  301POPC   C4A 4161   5.823   0.872   6.756  0.0832 -0.3349  0.0436
  301POPC   C1B 4162   4.950   0.091   6.020 -0.2643  0.1029  0.2494
  301POPC   C2B 4163   4.746   0.269   6.537 -0.0966  0.1084  0.1864
  301POPC   C3B 4164   4.630   0.522   6.997  0.0035 -0.0447  0.1796
  301POPC   C4B 4165   4.260   0.743   7.384 -0.2920 -0.2581 -0.0366
  302POPC   NC3 4166   7.709   0.768   4.768  0.1913  0.1836 -0.4518
  302POPC   PO4 4167   7.938   0.928   5.100 -0.1071 -0.1067  0.0875
  302POPC   GL1 4168   7.832   1.026   5.545  0.2215 -0.2882  0.0471
  302POPC   GL2 4169   7.816   1.320   5.625 -0.0234  0.1242 -0.0098
  302POPC   C1A 4170   7.762   0.780   5.904  0.1571 -0.2031 -0.0460
  302POPC   D2A 4171   8.033   0.521   5.936 -0.2639 -0.3442 -0.0150
  302POPC   C3A 4172   7.941   0.414   6.364  0.0820  0.1237 -0.5135
  302POPC   C4A 4173   7.742   0.602   6.823 -0.0351 -0.0642 -0.0152
  302POPC   C1B 4174   7.725   1.297   6.074  0.0009 -0.3057 -0.0180
  302POPC   C2B 4175   7.432   1.531   6.298  0.0286 -0.0366  0.0577
  302POPC   C3B 4176   7.052   1.446   6.520  0.0205 -0.1463 -0.2850
  302POPC   C4B 4177   6.769   1.356   6.799 -0.2102  0.0342 -0.1610
  303POPC   NC3 4178   2.677   5.283   3.828 -0.1666  0.1660  0.0261
  303POPC   PO4 4179   2.654   4.807   4.022 -0.0539  0.0176 -0.0981
  303POPC   GL1 4180   2.415   5.056   4.270 -0.0604 -0.2565  0.1397
  303POPC   GL2 4181   2.717   5.267   4.336 -0.2097 -0.0539  0.0606
  303POPC   C1A 4182   2.135   5.437   4.295 -0.4367  0.0674  0.2627
  303POPC   D2A 4183   1.919   5.802   4.547  0.0775  0.2476 -0.3048
  303POPC   C3A 4184   1.736   6.155   4.786  0.0615 -0.2892  0.0990
  303POPC   C4A 4185   2.102   6.388   4.909 -0.2623 -0.2755 -0.0157
  303POPC   C1B 4186   2.659   5.222   4.872  0.0604  0.2969 -0.0278
  303POPC   C2B 4187   2.430   5.296   5.199  0.0847 -0.0529  0.0113
  303POPC   C3B 4188   2.388   5.643   5.388 -0.3883  0.0342  0.0412
  303POPC   C4B 4189   2.131   5.844   5.591 -0.3163 -0.2657  0.0235
  304POPC   NC3 4190   1.546   8.927   3.885 -0.1971  0.2025  0.2439
  304POPC   PO4 4191   1.548   8.935   4.425  0.0839 -0.1240  0.1805
  304POPC   GL1 4192   1.203   8.800   4.775  0.1416 -0.4955 -0.2316
  304POPC   GL2 4193   1.244   8.912   5.146 -0.0732 -0.2551 -0.1370
  304POPC   C1A 4194   1.052   8.466   5.069 -0.1882  0.0198 -0.1302
  304POPC   D2A 4195   1.037   8.096   5.345 -0.2212  0.2323 -0.0691
  304POPC   C3A 4196   1.304   8.114   5.646 -0.0162 -0.0932 -0.0364
  304POPC   C4A 4197   1.649   7.923   5.866 -0.2044  0.0591  0.1630
  304POPC   C1B 4198   1.319   9.074   5.497  0.1362  0.1893  0.0852
  304POPC   C2B 4199   1.407   9.010   5.829 -0.2249  0.2099 -0.0305
  304POPC   C3B 4200   1.105   8.982   6.160 -0.2830 -0.1070 -0.0090
  304POPC   C4B 4201   0.876   9.023   6.538  0.0246  0.0851 -0.1272
  305POPC   NC3 4202   5.220   2.945   5.213  0.1682  0.0192 -0.0875
  305POPC   PO4 4203   5.128   2.497   5.213 -0.0069  0.0131  0.0546
  305POPC   GL1 4204   5.198   2.207   5.608 -0.0226  0.0136  0.1287
  305POPC   GL2 4205   4.896   1.891   5.676 -0.0335  0.2706 -0.2310
  305POPC   C1A 4206   5.419   2.391   5.958 -0.1775 -0.0235 -0.0566
  305POPC   D2A 4207   5.423   2.767   6.107  0.2936 -0.1367  0.0593
  305POPC   C3A 4208   5.076   3.012   6.139  0.0244 -0.2070 -0.1730
  305POPC   C4A 4209   5.057   3.391   6.218 -0.0419 -0.2273  0.0277
  305POPC   C1B 4210   4.747   1.987   6.015 -0.0189 -0.0615 -0.1319
  305POPC   C2B 4211   4.621   1.856   6.419  0.1026 -0.1222 -0.0034
  305POPC   C3B 4212   4.886   1.683   6.748  0.1183  0.0024 -0.1043
  305POPC   C4B 4213   5.303   1.643   7.029 -0.0060  0.3872 -0.2517
  306POPC   NC3 4214   0.174   5.656   2.930 -0.2680 -0.0184 -0.0883
  306POPC   PO4 4215   0.369   5.724   3.347  0.0865  0.0242  0.2111
  306POPC   GL1 4216   0.593   5.895   3.738 -0.0647  0.0456  0.1074
  306POPC   GL2 4217   0.946   5.858   3.668  0.2533  0.0127  0.0322
  306POPC   C1A 4218   0.378   6.175   3.986  0.0496 -0.1288 -0.3386
  306POPC   D2A 4219   0.174   5.979   4.238  0.2847 -0.0665 -0.0166
  306POPC   C3A 4220   0.314   5.884   4.531 -0.2368  0.3228 -0.1202
  306POPC   C4A 4221   0.022   5.760   4.865 -0.0993 -0.2410  0.0444
  306POPC   C1B 4222   0.854   6.309   3.868  0.1485 -0.1930 -0.1213
  306POPC   C2B 4223   0.723   6.678   4.023  0.1112  0.3510 -0.5520
  306POPC   C3B 4224   0.780   6.839   4.514 -0.0966  0.3919 -0.0755
  306POPC   C4B 4225   0.906   6.745   4.919  0.0230 -0.0033  0.1158
  307POPC   NC3 4226   4.936   5.099   5.602 -0.2690  0.2178  0.0295
  307POPC   PO4 4227   5.359   5.183   5.529  0.0610  0.3247  0.0006
  307POPC   GL1 4228   5.198   5.456   5.851 -0.0164 -0.0010  0.2369
  307POPC   GL2 4229   5.273   5.111   6.067 -0.0524 -0.2452 -0.2030
  307POPC   C1A 4230   5.353   5.638   6.184 -0.0832  0.2025  0.1481
  307POPC   D2A 4231   5.482   5.919   6.334  0.1890  0.0420 -0.1142
  307POPC   C3A 4232   5.572   5.908   6.793  0.1235  0.2108  0.2678
  307POPC   C4A 4233   5.786   5.813   7.094  0.0307 -0.2958 -0.3195
  307POPC   C1B 4234   4.946   5.305   6.296  0.0062  0.1287  0.6409
  307POPC   C2B 4235   4.863   5.630   6.694 -0.0121 -0.1282 -0.0812
  307POPC   C3B 4236   4.532   5.880   6.965 -0.1519 -0.3537 -0.0969
  307POPC   C4B 4237   4.269   6.148   7.305  0.4398  0.0722 -0.2036
  308POPC   NC3 4238   0.265   4.480   3.657 -0.0188 -0.1031  0.0897
  308POPC   PO4 4239  -0.063   4.652   3.937 -0.4867  0.2023 -0.1842
  308POPC   GL1 4240   0.107   4.934   4.244  0.1193 -0.0221 -0.0466
  308POPC   GL2 4241   0.376   4.738   4.477  0.0241 -0.1772  0.1840
  308POPC   C1A 4242   0.405   5.288   4.399  0.1735 -0.1339 -0.4357
  308POPC   D2A 4243   0.530   5.476   4.786  0.2860  0.2429  0.2266
  308POPC   C3A 4244   0.508   5.322   5.169  0.2570 -0.1951 -0.0148
  308POPC   C4A 4245   0.266   5.502   5.506 -0.0108 -0.3875  0.2519
  308POPC   C1B 4246   0.289   4.803   4.915  0.0936  0.0959  0.0405
  308POPC   C2B 4247   0.087   5.105   5.141 -0.2452  0.0325 -0.0706
  308POPC   C3B 4248  -0.167   5.480   5.275  0.1594 -0.1652  0.0253
  308POPC   C4B 4249  -0.545   5.710   5.426  0.2008 -0.0109 -0.3592
  309POPC   NC3 4250   0.384   0.787   4.398 -0.1174 -0.0835  0.0172
  309POPC   PO4 4251   0.223   0.915   4.886  0.1011 -0.0003 -0.2610
  309POPC   GL1 4252   0.148   1.137   5.322 -0.1807 -0.0134  0.1307
  309POPC   GL2 4253  -0.134   1.319   5.417  0.3049  0.3099 -0.2489
  309POPC   C1A 4254   0.212   1.094   5.763 -0.0363  0.1170  0.3825
  309POPC   D2A 4255   0.256   1.143   6.161 -0.1949  0.1577 -0.2370
  309POPC   C3A 4256   0.440   1.473   6.483 -0.2708  0.4258  0.1294
  309POPC   C4A 4257   0.577   1.446   6.839  0.1829  0.1612 -0.3647
  309POPC   C1B 4258  -0.292   1.327   5.824  0.0320 -0.0784 -0.0202
  309POPC   C2B 4259  -0.272   1.120   6.171 -0.1177  0.0029  0.1695
  309POPC   C3B 4260  -0.203   1.098   6.599  0.0027 -0.0356 -0.1633
  309POPC   C4B 4261   0.066   1.458   6.856  0.2349 -0.5404  0.1543
  310POPC   NC3 4262   7.966   9.956   4.515 -0.1635 -0.0850 -0.1996
  310POPC   PO4 4263   8.282   9.772   4.596 -0.2058  0.2267  0.0156
  310POPC   GL1 4264   8.298   9.661   5.032 -0.2092 -0.0841  0.0341
  310POPC   GL2 4265   8.568   9.453   5.132  0.0498  0.0330  0.1173
  310POPC   C1A 4266   8.246   9.656   5.430 -0.1672  0.0705  0.1519
  310POPC   D2A 4267   8.290   9.492   5.798 -0.0241  0.0962 -0.1512
  310POPC   C3A 4268   7.974   9.601   6.069  0.0011 -0.0755 -0.3922
  310POPC   C4A 4269   7.737   9.522   6.390  0.1084  0.0904 -0.0781
  310POPC   C1B 4270   8.756   9.353   5.574 -0.0040  0.0258  0.2220
  310POPC   C2B 4271   8.797   9.361   5.982 -0.0112  0.0041 -0.0745
  310POPC   C3B 4272   8.823   9.624   6.296 -0.0229 -0.2679 -0.0571
  310POPC   C4B 4273   8.722   9.610   6.774 -0.2511  0.0262 -0.1364
  311POPC   NC3 4274   6.265   6.623   5.196  0.1037  0.0137 -0.0767
  311POPC   PO4 4275   6.442   6.414   5.521  0.2539 -0.0614 -0.3220
  311POPC   GL1 4276   6.515   6.529   5.946  0.2002  0.0409 -0.0621
  311POPC   GL2 4277   6.511   6.871   5.958 -0.1344 -0.2020  0.2431
  311POPC   C1A 4278   6.787   6.707   6.294 -0.1519  0.1200  0.1505
  311POPC   D2A 4279   7.017   6.526   6.700  0.1882  0.1505 -0.0453
  311POPC   C3A 4280   7.527   6.572   6.798 -0.1809  0.1747  0.0833
  311POPC   C4A 4281   7.809   6.805   6.594  0.2337  0.1308  0.3580
  311POPC   C1B 4282   6.521   7.190   6.317 -0.1032  0.1449  0.0478
  311POPC   C2B 4283   6.390   7.520   6.545  0.1948  0.1515  0.0239
  311POPC   C3B 4284   6.240   7.944   6.846  0.1783  0.3185 -0.0121
  311POPC   C4B 4285   6.189   8.363   6.726  0.1609 -0.1655 -0.5561
  312POPC   NC3 4286   1.576   0.774   5.296  0.1769  0.1067 -0.0759
  312POPC   PO4 4287   1.510   1.210   5.237 -0.2713 -0.3005  0.2986
  312POPC   GL1 4288   1.504   1.260   5.666  0.0579  0.4149 -0.3371
  312POPC   GL2 4289   1.140   1.368   5.803 -0.3240 -0.2926 -0.0999
  312POPC   C1A 4290   1.691   1.562   6.006 -0.1203  0.2246  0.2366
  312POPC   D2A 4291   1.941   1.958   6.069  0.0271  0.0045  0.2043
  312POPC   C3A 4292   2.254   2.180   6.331 -0.1450  0.0173 -0.0897
  312POPC   C4A 4293   2.399   2.231   6.663  0.1942  0.3362 -0.1527
  312POPC   C1B 4294   0.832   1.306   6.108 -0.2599  0.3813 -0.0971
  312POPC   C2B 4295   0.826   1.102   6.520  0.0680  0.1507 -0.3764
  312POPC   C3B 4296   0.887   0.912   6.958 -0.1960 -0.0370 -0.1342
  312POPC   C4B 4297   0.981   0.787   7.346 -0.0280  0.4668 -0.1262
  313POPC   NC3 4298   8.700   3.671   5.375 -0.1672  0.2909 -0.0167
  313POPC   PO4 4299   8.918   3.944   5.114  0.1000  0.0815  0.0717
  313POPC   GL1 4300   9.039   4.160   5.434  0.3096  0.0867  0.1113
  313POPC   GL2 4301   8.983   4.537   5.278 -0.1378  0.3055  0.0713
  313POPC   C1A 4302   8.850   4.181   5.873  0.0412  0.0263  0.0599
  313POPC   D2A 4303   8.893   4.235   6.324 -0.1835 -0.2854 -0.0501
  313POPC   C3A 4304   8.936   4.631   6.569 -0.0808  0.1913  0.1331
  313POPC   C4A 4305   9.076   5.017   6.831 -0.3053  0.2721 -0.2263
  313POPC   C1B 4306   9.218   4.750   5.711  0.1924 -0.2225  0.0477
  313POPC   C2B 4307   9.543   4.859   5.943  0.2757  0.0859 -0.0914
  313POPC   C3B 4308   9.886   5.212   6.099  0.5397  0.2148  0.1238
  313POPC   C4B 4309  10.078   5.622   5.821  0.2356  0.2291  0.3920
  314POPC   NC3 4310   6.709   3.203   5.402  0.0407  0.0375 -0.1382
  314POPC   PO4 4311   6.389   2.919   5.629  0.1057 -0.0721  0.1185
  314POPC   GL1 4312   6.343   2.859   6.078  0.1068  0.2578  0.1634
  314POPC   GL2 4313   6.354   2.546   6.026 -0.0185  0.0259  0.1468
  314POPC   C1A 4314   6.317   2.881   6.469  0.0082  0.0381 -0.1677
  314POPC   D2A 4315   6.187   2.944   6.988  0.4364  0.0536  0.4859
  314POPC   C3A 4316   5.730   2.952   6.945 -0.0335 -0.1308 -0.1750
  314POPC   C4A 4317   5.382   2.992   7.054 -0.0547 -0.1039 -0.1508
  314POPC   C1B 4318   5.934   2.513   6.247 -0.1427  0.1606 -0.0019
  314POPC   C2B 4319   6.083   2.547   6.710  0.0120  0.0470  0.2192
  314POPC   C3B 4320   6.096   2.314   7.136  0.0318  0.1907  0.0097
  314POPC   C4B 4321   5.920   2.163   7.526  0.2087 -0.1240 -0.2883
  315POPC   NC3 4322   6.709   2.589   5.686  0.2170  0.1172  0.2144
  315POPC   PO4 4323   7.079   2.694   5.403 -0.0032  0.1637 -0.0844
  315POPC   GL1 4324   7.211   2.972   5.731 -0.0852  0.0924  0.1942
  315POPC   GL2 4325   6.863   3.082   5.833  0.1086  0.0563  0.0564
  315POPC   C1A 4326   7.412   3.330   5.953 -0.2296 -0.2533 -0.1402
  315POPC   D2A 4327   7.683   3.536   6.255  0.0478 -0.2107 -0.0306
  315POPC   C3A 4328   7.425   3.578   6.488  0.1178  0.0901 -0.0089
  315POPC   C4A 4329   7.125   3.607   6.708 -0.1429  0.0109  0.1210
  315POPC   C1B 4330   6.805   2.899   6.229  0.1159  0.3799 -0.3834
  315POPC   C2B 4331   6.891   2.420   6.338  0.1599 -0.1365  0.1058
  315POPC   C3B 4332   7.069   2.293   6.663  0.0045  0.1818 -0.2317
  315POPC   C4B 4333   7.556   2.178   6.854 -0.1236  0.0224 -0.0954
  316POPC   NC3 4334   9.110   0.443   4.392 -0.0553  0.0930  0.0552
  316POPC   PO4 4335   9.133   0.483   4.788  0.1952 -0.0152 -0.1711
  316POPC   GL1 4336   9.008   0.539   5.287  0.2239  0.0563  0.1594
  316POPC   GL2 4337   9.060   0.313   5.467  0.1880  0.1406 -0.0668
  316POPC   C1A 4338   9.095   0.767   5.708  0.2983 -0.1799  0.2291
  316POPC   D2A 4339   8.958   0.808   6.065 -0.3106 -0.0770 -0.2585
  316POPC   C3A 4340   9.132   0.866   6.441 -0.1522  0.1258 -0.1436
  316POPC   C4A 4341   8.958   1.241   6.570 -0.0284 -0.0267 -0.1999
  316POPC   C1B 4342   8.823   0.316   5.809 -0.1779 -0.0866 -0.0947
  316POPC   C2B 4343   8.530   0.190   5.993 -0.0962  0.1172 -0.1481
  316POPC   C3B 4344   8.500   0.095   6.378 -0.0324  0.2241  0.0544
  316POPC   C4B 4345   8.593  -0.171   6.593 -0.2962  0.0890  0.1540
  317POPC   NC3 4346   4.446   5.807   4.467 -0.0932  0.0861 -0.0501
  317POPC   PO4 4347   4.333   6.040   4.747  0.4858  0.2351  0.0189
  317POPC   GL1 4348   4.005   6.271   5.101  0.0134  0.1566 -0.0770
  317POPC   GL2 4349   4.103   6.595   5.090  0.3021 -0.0656 -0.0562
  317POPC   C1A 4350   4.026   6.287   5.511 -0.2293 -0.0454  0.1347
  317POPC   D2A 4351   3.780   6.356   5.793 -0.0624  0.1021  0.0226
  317POPC   C3A 4352   3.408   6.204   5.810  0.2169 -0.1018 -0.2826
  317POPC   C4A 4353   3.082   5.931   6.017  0.4100  0.0414 -0.2654
  317POPC   C1B 4354   3.942   6.843   5.447 -0.2993  0.3569 -0.0841
  317POPC   C2B 4355   3.738   6.858   5.780 -0.3390  0.0089  0.3087
  317POPC   C3B 4356   3.525   6.624   6.125  0.2027  0.1469  0.3048
  317POPC   C4B 4357   3.202   6.310   6.335  0.1448 -0.0054 -0.0229
  318POPC   NC3 4358   2.978   3.585   4.700 -0.1944  0.1776  0.2318
  318POPC   PO4 4359   3.001   4.027   4.747  0.0608  0.0464 -0.0851
  318POPC   GL1 4360   2.833   4.148   5.098 -0.3616 -0.1600  0.0252
  318POPC   GL2 4361   2.511   4.238   5.184 -0.0397  0.3047  0.0656
  318POPC   C1A 4362   2.774   3.931   5.475  0.0658  0.3553 -0.0416
  318POPC   D2A 4363   2.638   3.735   5.891 -0.1589  0.2045 -0.1672
  318POPC   C3A 4364   2.557   3.790   6.384 -0.0873  0.2611 -0.1760
  318POPC   C4A 4365   2.169   3.802   6.564 -0.1487 -0.1091  0.0393
  318POPC   C1B 4366   2.500   4.292   5.625 -0.2018 -0.0320 -0.1848
  318POPC   C2B 4367   2.647   4.287   6.085 -0.1416 -0.3759 -0.2671
  318POPC   C3B 4368   2.919   4.196   6.493 -0.0663 -0.0523  0.1412
  318POPC   C4B 4369   3.446   4.094   6.686  0.1166 -0.0299 -0.0652
  319W        W 4370   6.068   0.765   3.168  0.0280 -0.1138 -0.2386
  320W        W 4371   7.998   1.561  13.564 -0.1260 -0.1494 -0.0445
  321W        W 4372   9.033   7.990   0.723  0.0977 -0.2674  0.0193
  322W        W 4373   6.998   4.060  11.583 -0.0790  0.0708 -0.1423
  323W        W 4374   6.100   7.327   9.551  0.4134  0.1465  0.2272
  324W        W 4375   1.266   7.207  13.336  0.2845  0.2234 -0.3827
  325W        W 4376   3.575   1.897  13.153 -0.0077 -0.0657  0.0896
  326W        W 4377   2.046   6.118   9.911 -0.2064 -0.0866  0.2112
  327W        W 4378   2.923   9.276  11.018 -0.1843  0.2658 -0.0472
  328W        W 4379   7.052   1.455  10.174 -0.3086 -0.1283 -0.0006
  329W        W 4380   6.205   2.046  12.532 -0.0698 -0.0453 -0.0658
  330W        W 4381   9.227   1.892   0.151 -0.0281  0.2240 -0.3099
  331W        W 4382   9.266   0.539   1.120 -0.0019 -0.0551  0.0299
  332W        W 4383   0.429   3.560  13.083 -0.2630 -0.0828  0.0119
  333W        W 4384   4.062   6.069   1.137 -0.2182  0.3030  0.0196
  334W        W 4385   3.493  10.152  11.882  0.3325  0.0689 -0.0863
  335W        W 4386   5.772   1.609  12.106  0.0572  0.1049  0.0948
  336W        W 4387   3.984   4.978   9.611 -0.3516  0.3696  0.2085
  337W        W 4388   6.719   4.936  12.397 -0.2039  0.0983 -0.1684
  338W        W 4389   6.566   0.747   1.599  0.2850 -0.0227 -0.0978
  339W        W 4390   3.307   9.751   2.551  0.2745 -0.1149  0.2562
  340W        W 4391   1.726   0.887   4.793 -0.3621  0.2030 -0.0103
  341W        W 4392   2.367   0.098  12.912  0.0628  0.1689  0.1980
  342W        W 4393   5.458   1.286   8.620 -0.0477 -0.0323  0.1850
  343W        W 4394   4.281   8.327   3.794  0.0650 -0.2535 -0.0135
  344W        W 4395   9.784   7.784  11.611 -0.3713  0.3345  0.2096
  345W        W 4396  10.068   5.633   3.415  0.2126  0.0428 -0.2498
  346W        W 4397   8.047   4.750   1.173  0.3113  0.0098  0.0116
  347W        W 4398   2.032   6.286   0.254 -0.0473  0.2494  0.1327
  348W        W 4399   5.329   2.076  10.831 -0.1553 -0.0546 -0.1020
  349W        W 4400   5.446   1.159   0.341 -0.1642  0.0227  0.1117
  350W        W 4401   2.850   8.053  12.264 -0.1111 -0.2003  0.0953
  351W        W 4402   5.721   4.489  11.315 -0.0261  0.2079 -0.1687
  352W        W 4403   7.653   8.709   0.613  0.4191  0.3632 -0.1729
  353W        W 4404   3.567   4.546  12.494 -0.1413  0.0841 -0.1977
  354W        W 4405   9.833   5.229   2.185  0.2490 -0.0575  0.3106
  355W        W 4406   1.571   8.192   1.759 -0.2009 -0.1598 -0.1492
  356W        W 4407   1.533   3.997  10.119  0.1459 -0.2116 -0.1747
  357W        W 4408   7.351   5.803   1.988 -0.0329  0.2316 -0.0712
  358W        W 4409   6.791   5.676  12.961 -0.3151 -0.1036 -0.0498
  359W        W 4410   2.214   5.285   3.263 -0.3550 -0.0945 -0.1755
  360W        W 4411   9.631  10.038   8.378  0.0881 -0.1728  0.1798
  361W        W 4412   9.675   1.258  12.427  0.1222 -0.1971  0.0001
  362W        W 4413   0.688   2.082  12.037  0.2052 -0.2428 -0.0843
  363W        W 4414   6.185   0.833  12.949  0.2496 -0.0669 -0.0553
  364W        W 4415   7.482   3.583   4.861  0.3756  0.0396 -0.2941
  365W        W 4416   9.692   2.795  11.529  0.1910  0.2643 -0.1865
  366W        W 4417   9.301   1.661   4.700 -0.1649  0.2821 -0.4170
  367W        W 4418   6.217   5.488   8.884  0.0997  0.2978  0.1051
  368W        W 4419   9.003   0.618  13.860  0.1669 -0.0510  0.0604
  369W        W 4420   0.337   3.496   1.771  0.0022  0.2903 -0.0756
  370W        W 4421   6.726   9.758   1.547  0.4601  0.1361  0.2209
  371W        W 4422   9.578   3.676  10.409  0.0576  0.2169  0.0436
  372W        W 4423   3.834   4.128   0.143  0.1768 -0.2097 -0.1535
  373W        W 4424   6.133   8.599   3.217  0.3292 -0.0735 -0.0575
  374W        W 4425   0.780   8.465  13.724  0.2695 -0.2635 -0.1755
  375W        W 4426   1.489   8.854   0.420  0.1947 -0.2758 -0.0142
  376W        W 4427   1.239   9.775   0.298  0.0966 -0.0061 -0.2598
  377W        W 4428   9.417   4.547  12.759 -0.0365 -0.0648  0.1549
  378W        W 4429   1.930   6.801   1.953 -0.0427 -0.0206 -0.1310
  379W        W 4430   4.042   4.670  13.090  0.4770  0.0144 -0.3000
  380W        W 4431   9.799   6.290  13.643 -0.2435  0.2236 -0.0320
  381W        W 4432   7.650   1.257  11.967  0.3062  0.1821  0.2945
  382W        W 4433   6.462   0.759  13.370 -0.1103 -0.1885 -0.0765
  383W        W 4434   7.856  10.130  10.809  0.4100  0.0864  0.2871
  384W        W 4435   0.663   0.328  10.416  0.1752 -0.1713 -0.0346
  385W        W 4436   4.496   3.496   1.302  0.4600 -0.0257 -0.2039
  386W        W 4437   7.841   3.325  13.916  0.0527 -0.0984  0.1438
  387W        W 4438   1.311   7.101   1.451 -0.0047  0.1530  0.2021
  388W        W 4439   7.759   6.476   5.098  0.1599 -0.2721 -0.1981
  389W        W 4440   3.303   9.601   3.609 -0.2935  0.0261 -0.0286
  390W        W 4441  10.126   2.557   3.844  0.2787 -0.1819  0.1522
  391W        W 4442   1.114   0.601  13.175  0.2099 -0.2270  0.0391
  392W        W 4443   2.618   7.443   0.823  0.1458  0.1560  0.2873
  393W        W 4444   7.129   7.232  12.416 -0.0462  0.1974  0.2665
  394W        W 4445   8.451   5.500  13.248  0.1321  0.3125 -0.0720
  395W        W 4446   5.455   7.775  10.796  0.0329  0.0476  0.1940
  396W        W 4447   6.047   4.896   5.059  0.0508  0.0663 -0.0556
  397W        W 4448   4.581   1.951  10.274  0.2072  0.3182 -0.0697
  398W        W 4449   1.285   5.710  11.843 -0.0563  0.0412  0.1439
  399W        W 4450   0.522   7.429  11.944  0.0360 -0.0748 -0.0628
  400W        W 4451   5.879   7.446   3.140  0.3016 -0.1859 -0.1155
  401W        W 4452   1.340   8.240  12.852  0.1749  0.2622  0.2840
  402W        W 4453   3.707   9.997   2.331 -0.1718 -0.0709  0.1131
  403W        W 4454   7.008   8.650  13.270  0.1574  0.0486  0.2182
  404W        W 4455   5.948   2.529   3.991 -0.1174  0.2319  0.0562
  405W        W 4456   4.640   6.960  10.581  0.1093 -0.3844 -0.0023
  406W        W 4457   1.796   2.781  10.684 -0.1585 -0.0457 -0.0038
  407W        W 4458   1.942   4.774  13.078  0.1294 -0.1617 -0.1630
  408W        W 4459   0.214   4.501   2.741  0.2923 -0.1760  0.0021
  409W        W 4460   1.642   1.316   3.238  0.0174 -0.4430  0.0894
  410W        W 4461   8.552   7.803  12.184  0.0531 -0.1252 -0.3975
  411W        W 4462   0.540   5.639   1.363 -0.3094  0.0620 -0.0700
  412W        W 4463   3.865   4.545  12.020  0.1408 -0.1730  0.0379
  413W        W 4464   6.151   7.656  12.209  0.1752 -0.2983  0.3272
  414W        W 4465   9.288   3.946   2.082 -0.0227  0.1229 -0.1596
  415W        W 4466   0.306   7.952  10.501 -0.3500 -0.1696  0.1222
  416W        W 4467   7.292   0.833   4.426  0.0499  0.3629 -0.3329
  417W        W 4468   5.558   7.532  13.304  0.0582  0.1682 -0.1188
  418W        W 4469   2.670   8.892  11.819  0.0113 -0.1391 -0.0640
  419W        W 4470   3.669   1.165  12.443 -0.1671  0.3026  0.0429
  420W        W 4471   9.868   2.336   0.076  0.0233 -0.0489  0.1702
  421W        W 4472   3.205   6.170   2.297  0.1794 -0.3176  0.0552
  422W        W 4473   0.627   2.930   3.413 -0.0248  0.0315 -0.2211
  423W        W 4474   9.759   4.823  10.546 -0.0891  0.0070  0.2883
  424W        W 4475   0.385   2.586   4.581 -0.2965  0.2045  0.1906
  425W        W 4476   8.030   2.518   3.606  0.3750 -0.1642 -0.0386
  426W        W 4477   6.960   4.132  12.637 -0.0043  0.1788 -0.0494
  427W        W 4478   6.138   0.393   4.566 -0.3325  0.1207 -0.2651
  428W        W 4479   1.723   4.762   1.049  0.0573 -0.0087  0.1223
  429W        W 4480   0.060   7.114  13.130  0.0049  0.1459  0.3580
  430W        W 4481   7.416   2.865  11.402 -0.1146 -0.1732 -0.2349
  431W        W 4482   9.753   2.794   4.114  0.3860 -0.2467  0.2303
  432W        W 4483   5.575   6.497   9.837  0.4617 -0.0135  0.0183
  433W        W 4484   7.968   5.116   2.976 -0.1681  0.1601 -0.0250
  434W        W 4485   1.347   8.707  12.990 -0.0369  0.0451 -0.0688
  435W        W 4486   5.762   9.319  12.377  0.1166 -0.0737  0.1887
  436W        W 4487   6.474   8.922  12.841 -0.0008  0.1211 -0.0395
  437W        W 4488   7.027   3.043  13.791 -0.0293  0.3500 -0.3799
  438W        W 4489   6.215   6.536   2.004  0.2942 -0.2623  0.0927
  439W        W 4490   1.950   9.639  11.057 -0.0283 -0.0808 -0.1886
  440W        W 4491   2.253   0.930  10.210  0.1275 -0.0208  0.0375
  441W        W 4492   9.589   9.006   4.616  0.0224 -0.0723 -0.1555
  442W        W 4493   0.155   5.733  11.903 -0.2839  0.1692 -0.0472
  443W        W 4494   1.349   8.372   0.723  0.2603 -0.0985  0.2314
  444W        W 4495   0.356   8.970  11.913 -0.5054  0.0170  0.2096
  445W        W 4496   8.539   4.697   1.805 -0.1426  0.3191 -0.2755
  446W        W 4497   1.505   0.619  10.596  0.0775  0.1241  0.0054
  447W        W 4498   9.776   8.164   9.930  0.0395 -0.1642 -0.1990
  448W        W 4499   2.519   5.979   0.519  0.2013  0.0478 -0.4482
  449W        W 4500  10.078   1.155  11.026 -0.0009  0.0586 -0.1347
  450W        W 4501   2.292   6.360  10.647 -0.1835 -0.1417  0.1929
  451W        W 4502   5.672   4.520   3.693  0.3718 -0.1312 -0.0612
  452W        W 4503   0.736   9.708   0.181  0.0371  0.0006  0.0325
  453W        W 4504   0.392   8.399   1.564  0.1012  0.2182  0.1407
  454W        W 4505   2.508   9.182   3.937 -0.3019  0.1825  0.1458
  455W        W 4506   8.710   1.630   3.991 -0.4614 -0.0546  0.2137
  456W        W 4507   6.041   4.792   2.661  0.1670 -0.1681 -0.1141
  457W        W 4508   9.518   4.483  13.904 -0.0366 -0.1861 -0.3474
  458W        W 4509   6.547   2.977  11.381 -0.0353 -0.0189 -0.0039
  459W        W 4510   5.291   9.525  11.274  0.3541  0.1357  0.2796
  460W        W 4511   0.453   3.349   0.299  0.2939  0.0020 -0.0202
  461W        W 4512   0.824   7.307   3.348 -0.2844  0.1125  0.1063
  462W        W 4513   1.874   1.840   9.329  0.1581  0.2509  0.0247
  463W        W 4514   4.713   0.308  13.634 -0.1782  0.2075 -0.0674
  464W        W 4515   6.665   0.245   1.991 -0.2518 -0.0080  0.0661
  465W        W 4516   9.443   6.483  13.301  0.3586 -0.2515  0.0829
  466W        W 4517   8.606   1.376   0.287  0.1496  0.1262  0.3601
  467W        W 4518   3.381   6.294   2.749  0.0307 -0.1270 -0.2563
  468W        W 4519   5.511   2.048   9.307  0.0054  0.0324 -0.1391
  469W        W 4520   1.087   4.430   3.122 -0.2595  0.0247  0.0999
  470W        W 4521   5.236   3.075  10.516  0.3566 -0.0896 -0.0398
  471W        W 4522   1.396   9.211   1.684  0.1737  0.1304  0.0430
  472W        W 4523   6.080   0.431  11.559 -0.4898 -0.1186 -0.2099
  473W        W 4524   7.179   9.719   1.321  0.3306  0.1561 -0.0184
  474W        W 4525   0.743   6.780   1.453 -0.1539 -0.2405  0.1657
  475W        W 4526   3.037   2.119   3.913  0.1517 -0.1827 -0.2163
  476W        W 4527   6.614   4.935   4.512 -0.2181  0.0942 -0.0071
  477W        W 4528   1.735   6.824  11.693  0.0792 -0.0432  0.4565
  478W        W 4529   7.628   3.994   9.650 -0.1786  0.2337 -0.2454
  479W        W 4530   8.874   5.052   2.908 -0.0421  0.2156 -0.1498
  480W        W 4531   8.476   1.429   1.135  0.1342 -0.1561  0.4744
  481W        W 4532   3.827   8.799   1.602 -0.1945 -0.0665 -0.3696
  482W        W 4533   0.740   2.356   2.260  0.0118 -0.0227 -0.0947
  483W        W 4534   6.978   0.912  10.738  0.1148  0.2429  0.0229
  484W        W 4535   7.151   0.335   8.649 -0.0480 -0.1420  0.2210
  485W        W 4536   6.976  10.053  13.105 -0.0852 -0.1079 -0.1381
  486W        W 4537   6.368   8.957   2.718 -0.4183 -0.1636 -0.0624
  487W        W 4538   4.695   5.285  10.063  0.4091  0.2704  0.0960
  488W        W 4539   3.820   1.347   9.729  0.3555  0.0870  0.3347
  489W        W 4540   5.237   6.203   9.570  0.3720  0.1178  0.0029
  490W        W 4541   4.155   6.912   1.761  0.2672 -0.1801  0.2381
  491W        W 4542   2.488   5.723  12.057  0.0672 -0.0478  0.1780
  492W        W 4543   8.382   3.860   2.195  0.3195 -0.3087 -0.1034
  493W        W 4544   2.368   6.084  11.120 -0.0190 -0.0999  0.1687
  494W        W 4545   3.277   4.844  12.186 -0.1445 -0.1216 -0.0900
  495W        W 4546   5.400  10.110   4.449 -0.0417  0.3796  0.1497
  496W        W 4547   9.465   0.091   2.995 -0.0394  0.2882 -0.3165
  497W        W 4548   1.829   3.732   3.292 -0.1208 -0.1986 -0.0271
  498W        W 4549   4.480   5.415   0.036 -0.3746  0.0139  0.0912
  499W        W 4550   8.309   9.951  13.020  0.0393 -0.0678  0.2464
  500W        W 4551   4.900   7.808  12.025 -0.0071 -0.0658 -0.0077
  501W        W 4552   5.193  10.047   3.276 -0.1168  0.0475 -0.1295
  502W        W 4553   1.549   8.006   2.725  0.0027 -0.2193 -0.0990
  503W        W 4554   8.985   9.944   0.883 -0.2330 -0.0838 -0.2567
  504W        W 4555   5.763   4.800  10.242 -0.0222  0.0765  0.2959
  505W        W 4556   0.498   7.127  10.251  0.1914 -0.1116  0.0972
  506W        W 4557   6.151   9.930   8.993 -0.2952 -0.5717 -0.1728
  507W        W 4558   4.663   1.279  10.144 -0.5159  0.3513  0.0216
  508W        W 4559   0.494   0.985  11.180 -0.1138  0.1437  0.2524
  509W        W 4560   2.674   7.551  10.638  0.1271 -0.1435  0.0410
  510W        W 4561   1.859   7.666  12.997 -0.0355 -0.1538 -0.1049
  511W        W 4562   8.973   5.528   2.892  0.3026  0.0358 -0.1230
  512W        W 4563   6.789   8.304  12.340 -0.0025  0.1388 -0.1719
  513W        W 4564  10.140   1.019   9.775  0.0362 -0.0312  0.1081
  514W        W 4565   0.093   4.825   1.459  0.0684 -0.0367 -0.0841
  515W        W 4566   4.230   2.809  12.023  0.0739 -0.1006 -0.2450
  516W        W 4567  10.075   4.958   3.510  0.1145  0.0614 -0.1459
  517W        W 4568   7.256   3.940  10.008  0.1257  0.0977  0.0226
  518W        W 4569   0.788   9.435   2.934 -0.1321  0.2950 -0.0409
  519W        W 4570   0.026   3.059   9.254 -0.2192  0.1569  0.0163
  520W        W 4571   7.257   2.649  13.604 -0.0930 -0.0788 -0.0013
  521W        W 4572   6.375   3.647   3.058  0.2390  0.3530 -0.1208
  522W        W 4573  10.016   0.165  13.308 -0.2118  0.2387 -0.0256
  523W        W 4574   5.995   2.954  12.205  0.0125  0.2707  0.3212
  524W        W 4575   5.880   6.111  13.583 -0.2735  0.3115 -0.1409
  525W        W 4576   1.749   1.263   2.011  0.0168  0.2344  0.2802
  526W        W 4577  10.047   5.256   2.916 -0.0067 -0.0103 -0.0413
  527W        W 4578   3.238   3.561  10.216  0.1828 -0.0508 -0.0810
  528W        W 4579   8.521   7.358  10.588 -0.1277 -0.1347  0.1008
  529W        W 4580   0.605   1.256   9.340 -0.1343 -0.3820  0.3579
  530W        W 4581   3.115   3.331   4.271 -0.2430 -0.1059  0.0873
  531W        W 4582   6.119   7.659  10.250  0.1793  0.1264  0.1495
  532W        W 4583   6.102   4.657   4.576 -0.3559 -0.1924 -0.0095
  533W        W 4584   2.390   6.483   0.533  0.1279 -0.0073  0.0556
  534W        W 4585   5.476   3.658  11.008  0.3406  0.1242  0.2372
  535W        W 4586   7.322   0.519  11.441  0.0943  0.2918 -0.0170
  536W        W 4587   1.919   4.082  12.096  0.0873 -0.4388 -0.0539
  537W        W 4588   8.101   1.480  10.091 -0.0353  0.0455 -0.0608
  538W        W 4589   4.811   4.816   1.617  0.2398 -0.1869 -0.2271
  539W        W 4590   4.636   3.391   9.983  0.1162 -0.2020 -0.1137
  540W        W 4591   0.227   4.492  11.366  0.1665 -0.2198 -0.0449
  541W        W 4592   3.552   2.519  10.032  0.1456 -0.0018  0.1255
  542W        W 4593   2.870   0.568   1.758 -0.1316  0.1163  0.0978
  543W        W 4594   8.964   6.827  10.669  0.3992  0.0908  0.0815
  544W        W 4595   8.378   8.807  11.917  0.0145 -0.1520 -0.1239
  545W        W 4596   4.129   6.965  10.841  0.0496  0.0181 -0.0314
  546W        W 4597   8.213   0.327  10.065 -0.0384  0.3489  0.0693
  547W        W 4598   6.217   6.084   5.937  0.1498 -0.0683 -0.0476
  548W        W 4599   1.879   0.285   4.310 -0.3386  0.0702  0.0838
  549W        W 4600   8.713   8.971  13.306  0.1332 -0.1043  0.1762
  550W        W 4601   5.316  10.182   3.827  0.0083 -0.0108  0.3578
  551W        W 4602   2.993   4.750  11.308 -0.2389  0.0213  0.0306
  552W        W 4603   8.023   0.999   0.646 -0.2946 -0.0039  0.3592
  553W        W 4604   8.580   9.792   3.770 -0.2098 -0.2295  0.0417
  554W        W 4605   3.660   1.722   9.390  0.0760 -0.0191 -0.1642
  555W        W 4606   9.445   0.966   1.511 -0.1754 -0.1780  0.1333
  556W        W 4607   1.265   1.847   4.366  0.2385  0.1252  0.0827
  557W        W 4608   1.287  10.021  10.360 -0.3841 -0.1348  0.0331
  558W        W 4609   2.481   0.281   1.906  0.1304 -0.1366 -0.1043
  559W        W 4610   6.707   9.130   0.766  0.1474  0.0110  0.0741
  560W        W 4611   5.306   4.996  10.267 -0.4465  0.0604 -0.4673
  561W        W 4612   5.908   8.442   2.317  0.0576 -0.2159 -0.1690
  562W        W 4613   8.029   6.888   9.281  0.0946  0.0120 -0.1496
  563W        W 4614   0.142   8.566  13.108  0.4466  0.0389 -0.3084
  564W        W 4615   3.949   8.399  13.433  0.2377  0.1866 -0.0521
  565W        W 4616   5.151   2.532  10.630 -0.1902  0.2600  0.2340
  566W        W 4617   4.333   8.878  12.669 -0.2197  0.1360  0.1272
  567W        W 4618   7.870   4.663  12.866  0.1947 -0.0573 -0.1576
  568W        W 4619   8.197   2.316   8.837  0.2983 -0.0792 -0.0727
  569W        W 4620   5.101   5.734  10.845  0.1139 -0.0835  0.2120
  570W        W 4621   5.396   1.024   9.107 -0.1277 -0.1480 -0.2085
  571W        W 4622   9.607   0.419  12.320 -0.1906  0.2242  0.0456
  572W        W 4623   7.589   8.670   9.736  0.0366 -0.2055  0.2458
  573W        W 4624   5.925  10.112  10.697 -0.0147  0.2402  0.0855
  574W        W 4625   5.093   2.081   8.771 -0.1032  0.2173 -0.0519
  575W        W 4626   0.520   5.698  11.161  0.1074  0.1452 -0.2805
  576W        W 4627   3.919   4.368   2.127 -0.0891  0.1530 -0.1950
  577W        W 4628   6.659   9.458  11.462 -0.3277 -0.3627 -0.1646
  578W        W 4629   3.351   5.107  11.478  0.0508 -0.1909 -0.4049
  579W        W 4630   0.926   0.994   0.019 -0.0146 -0.0426  0.0959
  580W        W 4631   1.886   2.982   2.654  0.2163 -0.0911  0.0689
  581W        W 4632   7.785   8.970   3.129 -0.1834  0.0008 -0.0210
  582W        W 4633   8.957   4.283  11.475 -0.1611  0.2480 -0.0346
  583W        W 4634   8.524   2.925   4.777 -0.1066  0.1614  0.1444
  584W        W 4635   0.522   3.836  12.554 -0.0035 -0.3245 -0.0344
  585W        W 4636   4.536   3.371  12.126 -0.0464 -0.1548 -0.1139
  586W        W 4637   8.580   4.664  10.378 -0.1491 -0.0793 -0.1460
  587W        W 4638   1.570   6.336  12.391  0.3699 -0.0357  0.4868
  588W        W 4639   9.605   5.169  13.552 -0.0822 -0.0011 -0.0304
  589W        W 4640   3.083   2.932  11.468  0.3684  0.3000  0.0513
  590W        W 4641   1.472   5.010  13.031  0.0134 -0.0331 -0.1158
  591W        W 4642   1.745   2.332  10.613  0.2674  0.2531  0.0604
  592W        W 4643   7.675   4.686  10.082  0.3351  0.0913  0.2096
  593W        W 4644   8.145   9.790   3.992  0.1869  0.2204 -0.2649
  594W        W 4645   3.241   8.659   4.818  0.1055 -0.2592 -0.1456
  595W        W 4646   3.021   9.040   3.101  0.0299 -0.1367 -0.1564
  596W        W 4647   1.101   8.005   0.985  0.1488 -0.2120 -0.0220
  597W        W 4648   0.284   7.626   2.055 -0.0740  0.0385  0.2424
  598W        W 4649   9.988   5.709   3.910 -0.1197 -0.2040  0.2867
  599W        W 4650   5.329   2.941   0.454 -0.1167  0.2524  0.1217
  600W        W 4651   0.324   1.268   1.250  0.2980 -0.3615  0.2548
  601W        W 4652   4.618   0.981   2.902 -0.2035 -0.0964 -0.0536
  602W        W 4653   1.980   0.116   1.866 -0.0804  0.1441 -0.0124
  603W        W 4654   1.613   4.599  12.677 -0.0306 -0.2729 -0.1765
  604W        W 4655   6.145   6.273   0.092 -0.1345 -0.0762 -0.0247
  605W        W 4656   2.122   3.124   8.962  0.2630 -0.0823  0.0026
  606W        W 4657   5.300   8.092   3.391  0.4282  0.2407 -0.0770
  607W        W 4658   8.068   8.890   4.193  0.1813 -0.0692  0.0889
  608W        W 4659   7.038   0.182   3.365 -0.0060 -0.4684  0.3635
  609W        W 4660   4.112   9.881  12.574 -0.0259  0.0560 -0.1198
  610W        W 4661   8.517   9.228  11.736 -0.1859 -0.0412  0.0697
  611W        W 4662   3.906   1.395  13.174  0.0632  0.2246 -0.1150
  612W        W 4663   5.841   7.590   1.708  0.0231 -0.1049  0.1414
  613W        W 4664   9.823   3.174   2.538  0.1967 -0.1478 -0.0486
  614W        W 4665   9.078   8.110   2.527  0.1405 -0.0909 -0.1521
  615W        W 4666   8.110   6.066  12.961 -0.1028  0.3522 -0.0644
  616W        W 4667   7.267   4.676   3.844  0.0824  0.1396 -0.0664
  617W        W 4668   7.046   5.893   5.301 -0.1736  0.2659 -0.0330
  618W        W 4669   3.539   9.703   0.510  0.1046 -0.2224 -0.0979
  619W        W 4670   9.694  10.066   9.007  0.1618  0.0059 -0.1249
  620W        W 4671   7.286   1.225   8.671  0.0633  0.2751  0.1346
  621W        W 4672   3.516   1.680   1.503  0.0627  0.0911 -0.0034
  622W        W 4673   0.866   7.685  12.660 -0.1497  0.0165 -0.1152
  623W        W 4674   5.985   1.566  11.618  0.2794 -0.3627 -0.3195
  624W        W 4675   9.733   3.017   9.250 -0.0073  0.2116 -0.0788
  625W        W 4676   3.322   1.214   1.711  0.1860  0.0162 -0.0360
  626W        W 4677   2.687   3.479  10.054  0.3419 -0.0732  0.0634
  627W        W 4678   2.731   5.096   1.651  0.1140  0.2961 -0.0249
  628W        W 4679   9.005   1.032   9.954 -0.0489 -0.0672  0.2259
  629W        W 4680   1.088   1.617   3.084 -0.0069  0.1073 -0.0204
  630W        W 4681   6.853   2.540   4.797 -0.2406  0.0097 -0.1231
  631W        W 4682   6.229   0.937   9.679  0.3246  0.1256 -0.0972
  632W        W 4683   9.108   3.524  11.771  0.0827 -0.0167 -0.2022
  633W        W 4684   5.101   4.713   4.699 -0.0558  0.1037  0.2780
  634W        W 4685   1.248   3.190   9.883  0.0902  0.3376 -0.1521
  635W        W 4686   6.868   7.369  10.213 -0.2003  0.0979 -0.0933
  636W        W 4687   7.744   5.461   5.453  0.0008  0.0701  0.0617
  637W        W 4688   4.825   6.542  10.833  0.1138  0.1939  0.2059
  638W        W 4689   4.070   2.043  10.435  0.3265  0.0044  0.2218
  639W        W 4690   5.074   7.148   9.672 -0.4208 -0.0075 -0.2000
  640W        W 4691   4.061   8.762   5.212  0.1252  0.2720 -0.0732
  641W        W 4692   0.976   2.939   1.652 -0.1343  0.1276 -0.0671
  642W        W 4693   6.672   8.029   0.527  0.0480 -0.1089  0.0002
  643W        W 4694   5.903   2.020   0.321 -0.1486  0.0267  0.1012
  644W        W 4695   2.512   0.423   1.415 -0.3129  0.2855  0.1450
  645W        W 4696   7.760   1.214   2.704 -0.1151 -0.1476  0.2187
  646W        W 4697   3.744   4.586   4.351 -0.3140  0.1726 -0.0874
  647W        W 4698  10.000   4.920  12.160  0.1193 -0.2364 -0.2858
  648W        W 4699   0.682   0.628   0.658  0.0595 -0.3283  0.2330
  649W        W 4700   0.682   1.687   9.848 -0.0666 -0.2886  0.0930
  650W        W 4701   0.215   3.694   3.709  0.1392 -0.2102  0.2302
  651W        W 4702   1.407   3.629   3.562  0.3646 -0.1932 -0.1438
  652W        W 4703   3.487   7.748   1.835  0.0176  0.0429 -0.1286
  653W        W 4704   6.193   8.200   1.508  0.0364 -0.0408 -0.2131
  654W        W 4705   7.137   8.513   3.856  0.0026 -0.1335 -0.0835
  655W        W 4706   8.587   1.626   3.450  0.0947 -0.1615 -0.2998
  656W        W 4707   9.903   9.677   0.230  0.0270  0.0104 -0.0801
  657W        W 4708   3.073   2.350  10.376  0.3305  0.4457 -0.0219
  658W        W 4709   9.493   5.860  12.196 -0.3160  0.2113  0.0856
  659W        W 4710   6.619   0.613   0.252  0.2063 -0.0771 -0.1407
  660W        W 4711   4.128  10.141   9.711 -0.1192 -0.2694  0.1469
  661W        W 4712   3.494   1.269   9.234 -0.1204 -0.0597 -0.0818
  662W        W 4713   3.547   0.730  12.198 -0.1351  0.1032 -0.1613
  663W        W 4714   0.533   8.825   0.653 -0.0195 -0.2696 -0.0083
  664W        W 4715   6.064   7.502   3.586 -0.0121  0.0637 -0.1156
  665W        W 4716   0.154   7.399  13.592 -0.3628  0.0323 -0.3521
  666W        W 4717   5.740   8.897   0.979  0.0410  0.0172  0.1330
  667W        W 4718   9.331   6.010   2.623  0.2736 -0.1384 -0.1338
  668W        W 4719   7.731  10.172   3.479 -0.0730  0.1560  0.0253
  669W        W 4720   4.561   6.433   3.824 -0.3353 -0.0948 -0.0373
  670W        W 4721   0.487   2.366  10.015 -0.2294 -0.0206 -0.0973
  671W        W 4722   4.178   2.574  10.290  0.1073 -0.0232  0.1328
  672W        W 4723   8.913   6.116  11.282  0.0109  0.0743 -0.0463
  673W        W 4724   6.766   8.225   1.677  0.4505  0.3478  0.2369
  674W        W 4725   2.336   7.781  10.960  0.2708  0.4377 -0.1191
  675W        W 4726   9.703   3.202  10.612  0.1909  0.0066 -0.1087
  676W        W 4727   8.345   1.091   3.234 -0.1505  0.0714 -0.1620
  677W        W 4728   6.169   3.606  13.001  0.0043  0.1375 -0.0400
  678W        W 4729   7.266   4.455  11.688 -0.2050  0.0942  0.1336
  679W        W 4730   0.695   2.648   1.431  0.2237  0.2658 -0.0466
  680W        W 4731   8.335   4.495   4.287 -0.0527 -0.5388  0.0040
  681W        W 4732  10.194   2.284   3.003  0.1267  0.2675 -0.1776
  682W        W 4733   2.295   3.443  11.105  0.2124  0.0039  0.2689
  683W        W 4734   0.846   5.213   1.042 -0.0450 -0.1929  0.2660
  684W        W 4735   2.678   3.295  11.453 -0.0843 -0.0663 -0.3190
  685W        W 4736   8.127   9.364  13.642 -0.1636 -0.0177 -0.0449
  686W        W 4737   1.607   5.288   1.031  0.0749  0.2498 -0.0424
  687W        W 4738  10.131   3.563   2.106 -0.1686  0.0754  0.0273
  688W        W 4739   4.185   8.636   0.121  0.1558  0.2821 -0.0914
  689W        W 4740   6.708   1.640   0.153 -0.0802  0.1383  0.0041
  690W        W 4741  10.054   1.030  10.287 -0.2003 -0.2893 -0.0554
  691W        W 4742   5.858   1.071  12.185 -0.1864 -0.1613  0.1695
  692W        W 4743   5.610   9.848   0.690 -0.0410 -0.4678  0.3438
  693W        W 4744   3.320   2.270  13.482  0.1141 -0.0412  0.1147
  694W        W 4745   2.019   2.564  13.041 -0.0185  0.1131 -0.2285
  695W        W 4746   5.921   6.987  13.731 -0.3961  0.1156  0.1199
  696W        W 4747   2.972   7.232   3.025  0.3310  0.0147  0.2102
  697W        W 4748   4.333   2.896  12.611 -0.0489  0.1858  0.5256
  698W        W 4749   0.026   9.313   3.160  0.0650  0.0102  0.0600
  699W        W 4750   8.201   2.214  11.765 -0.3317 -0.2809 -0.1758
  700W        W 4751   3.274   5.296  11.943  0.1547 -0.0894  0.0031
  701W        W 4752   7.810   6.779   1.259 -0.1527  0.1136  0.0304
  702W        W 4753   9.335   8.741   8.627  0.2169 -0.0554 -0.0743
  703W        W 4754   0.430   0.452   2.874 -0.0362 -0.1033  0.1515
  704W        W 4755   5.227   2.673   3.102  0.2770 -0.1796 -0.1648
  705W        W 4756   2.022   9.278   9.443  0.0517 -0.0144  0.2241
  706W        W 4757   0.723   4.776  12.640 -0.2995 -0.0283 -0.2869
  707W        W 4758   8.638   8.696   0.242  0.0565 -0.3990  0.1138
  708W        W 4759   4.559   2.234   2.393 -0.2020  0.1149  0.0821
  709W        W 4760   3.936   6.409   1.685 -0.0601  0.0377  0.1317
  710W        W 4761   3.532   5.051   3.607 -0.3293 -0.3723  0.0997
  711W        W 4762   9.554   9.524   2.423  0.0758 -0.0031 -0.1794
  712W        W 4763   3.283   4.973  12.642 -0.2096  0.1364 -0.0685
  713W        W 4764   9.493   2.082  12.364  0.2120 -0.0071 -0.1906
  714W        W 4765   1.296   4.124  12.873  0.2097 -0.0967  0.2616
  715W        W 4766   2.354   3.377  13.318 -0.2022  0.0977 -0.2543
  716W        W 4767   1.044   0.439   4.142  0.2039  0.1076 -0.0451
  717W        W 4768   8.762   5.898  11.720  0.0870  0.0306 -0.0712
  718W        W 4769   9.279   8.278  12.408  0.1497 -0.2485  0.0753
  719W        W 4770   7.110   9.858   2.671 -0.0957  0.0923  0.1929
  720W        W 4771  10.127   1.780   8.867 -0.0027  0.0886  0.0073
  721W        W 4772   3.038   2.334   0.103 -0.2070 -0.1080  0.2633
  722W        W 4773   3.381   7.293   2.094  0.1858  0.4355 -0.2859
  723W        W 4774   6.719   0.551  10.410 -0.0583 -0.3652 -0.0941
  724W        W 4775   8.778   3.057   3.659 -0.2763 -0.0781  0.0987
  725W        W 4776   1.379   2.351  12.556 -0.1705 -0.6012  0.3843
  726W        W 4777   6.328   1.515   4.321 -0.0685  0.0753 -0.1547
  727W        W 4778   4.268   8.443   1.444 -0.1880  0.1319  0.4237
  728W        W 4779   0.420   1.186   2.141  0.1203  0.1050 -0.2156
  729W        W 4780   0.490   1.666  12.614  0.0274  0.3215  0.2143
  730W        W 4781   5.458   1.722  10.519 -0.0185 -0.3505  0.0992
  731W        W 4782   5.890   5.313  11.348 -0.3862 -0.0216 -0.1973
  732W        W 4783   6.902   8.870   1.126  0.0519  0.0135  0.2589
  733W        W 4784   4.141   0.540   2.089  0.3076  0.3681 -0.0431
  734W        W 4785   4.007   9.092   2.259 -0.0293 -0.0666 -0.0622
  735W        W 4786   7.270   6.192   4.931 -0.2893 -0.1089  0.3421
  736W        W 4787  10.137   9.272  11.568 -0.3051 -0.2861 -0.1166
  737W        W 4788   0.926   3.245  11.014  0.0033  0.1584  0.3450
  738W        W 4789   1.188   1.360  13.128  0.2533  0.1157  0.1086
  739W        W 4790   2.585   6.443   3.252  0.2028  0.0680  0.2945
  740W        W 4791   6.884   6.515   3.664 -0.0663 -0.4144 -0.1711
  741W        W 4792   6.418   1.641  12.824  0.0889  0.0762 -0.0756
  742W        W 4793   7.649   5.375   9.252 -0.0810  0.1171 -0.3833
  743W        W 4794   2.338   8.894   9.388 -0.0702  0.1460 -0.0374
  744W        W 4795   6.674   7.539   4.622  0.1052  0.1210  0.0859
  745W        W 4796   9.948   3.972   1.137  0.2652 -0.2490 -0.0840
  746W        W 4797   5.738   7.865   9.976 -0.0367  0.0761 -0.0752
  747W        W 4798   6.176   8.742  10.153 -0.3837 -0.1031  0.0723
  748W        W 4799   8.470   8.937   2.430 -0.1730 -0.0058 -0.4276
  749W        W 4800   6.979   3.793  10.440  0.0091 -0.1862  0.2170
  750W        W 4801   3.640   1.890  11.798 -0.0564  0.1757  0.3416
  751W        W 4802   4.535   8.962   3.621 -0.0873 -0.3395  0.1749
  752W        W 4803   4.641   0.357  10.610  0.1353  0.0148  0.3024
  753W        W 4804   3.132   0.690   0.565 -0.3423 -0.0220 -0.3317
  754W        W 4805   7.341   0.902  11.078  0.0532 -0.3134 -0.0743
  755W        W 4806   9.109   2.821   9.609  0.0601 -0.0404  0.0362
  756W        W 4807   1.488   1.472   3.971 -0.1726 -0.0327  0.2820
  757W        W 4808   7.238   0.945   1.850 -0.0506  0.1200  0.0589
  758W        W 4809   1.495   5.201   1.937 -0.0595 -0.1395 -0.3244
  759W        W 4810   2.351   4.882  11.478 -0.1058 -0.2377 -0.0192
  760W        W 4811   4.586   8.033   1.609 -0.1377  0.1170  0.0703
  761W        W 4812   1.266   2.677   9.873 -0.1672 -0.3531 -0.1254
  762W        W 4813   9.994   3.426   9.003  0.2154 -0.1096  0.0357
  763W        W 4814   0.890   5.618  12.709  0.0020  0.2300 -0.0648
  764W        W 4815   6.367   4.575   2.376 -0.2717  0.0271  0.0277
  765W        W 4816   7.025   0.538   1.579 -0.1391  0.1840  0.1314
  766W        W 4817   1.071   4.250   0.321  0.1262 -0.1292  0.1674
  767W        W 4818   1.436   0.493   3.593 -0.6456 -0.0534 -0.0616
  768W        W 4819   6.765   3.997  13.569  0.3686  0.0919 -0.2018
  769W        W 4820   1.623   9.714   9.545  0.3174 -0.3521 -0.0157
  770W        W 4821   5.727   5.370  10.569  0.0827  0.0349 -0.0045
  771W        W 4822   7.660   5.016   5.655  0.1275  0.2084  0.1253
  772W        W 4823   3.870   1.629   2.757 -0.1378  0.0147 -0.1258
  773W        W 4824   2.491   6.218  12.019  0.1151 -0.3660  0.2293
  774W        W 4825   6.219   5.148   9.260  0.0858 -0.0094  0.0574
  775W        W 4826   5.637   8.997   0.472  0.1916  0.0550 -0.0233
  776W        W 4827   3.661   3.389  10.507  0.1706 -0.0570  0.3499
  777W        W 4828   4.263   5.247   3.112  0.2224 -0.4554 -0.1621
  778W        W 4829   3.717   8.081  12.272  0.2244 -0.0287 -0.2362
  779W        W 4830   5.049   3.602   2.260 -0.3090 -0.4478  0.1301
  780W        W 4831   2.481   9.663  11.042  0.1759  0.2027 -0.0008
  781W        W 4832   7.195   5.893  11.680 -0.0629 -0.0980 -0.1942
  782W        W 4833   3.979   2.706  11.086 -0.3020 -0.0085  0.2250
  783W        W 4834   5.664   7.280   4.610  0.0878  0.0673 -0.0017
  784W        W 4835   5.368   1.286   0.823  0.0797 -0.1759  0.0435
  785W        W 4836   9.845   1.667  10.651 -0.2718  0.1001 -0.1409
  786W        W 4837   6.126   4.073   2.901 -0.1457 -0.1805  0.0884
  787W        W 4838   3.889   3.112   4.736  0.1162  0.1381 -0.1740
  788W        W 4839   7.486   1.559  10.485 -0.0050  0.2334 -0.0081
  789W        W 4840   2.173   7.819  11.716 -0.0850 -0.3006  0.1657
  790W        W 4841   4.369   8.392   0.547 -0.0343 -0.0739 -0.0327
  791W        W 4842   2.195   9.245  12.078 -0.2905  0.0979 -0.1414
  792W        W 4843   6.473   8.976   3.246  0.0933  0.0108  0.1741
  793W        W 4844   7.024   5.695   0.370 -0.4108  0.0297  0.1243
  794W        W 4845   2.832   5.143  11.526  0.0064  0.1018 -0.1890
  795W        W 4846   8.319   8.975   1.860  0.0457 -0.0586 -0.0983
  796W        W 4847   8.780   6.266  12.537 -0.0435 -0.2390  0.0120
  797W        W 4848   2.411   4.015   0.774  0.3793  0.1372 -0.0124
  798W        W 4849   7.156  10.111   0.721 -0.0129  0.2798 -0.2049
  799W        W 4850   5.168   0.084   9.920  0.1026  0.1262  0.0175
  800W        W 4851   0.306   2.946  12.067 -0.1260 -0.2248  0.1614
  801W        W 4852   1.358   7.843   4.075  0.2603 -0.1451 -0.2999
  802W        W 4853   7.606   1.861  13.568  0.0003  0.2264  0.2027
  803W        W 4854   9.420   7.714  13.609  0.3194  0.2020  0.2599
  804W        W 4855   2.107   1.169   4.075  0.1273 -0.1203  0.0148
  805W        W 4856   8.842   4.545   2.709 -0.0434  0.0702 -0.0022
  806W        W 4857   4.141   1.100  12.856 -0.0811  0.1636  0.0012
  807W        W 4858   8.777   1.870   0.498 -0.2693 -0.1623  0.0906
  808W        W 4859   6.753   3.043   4.217 -0.0133 -0.0884 -0.0596
  809W        W 4860   8.883   9.376   3.821  0.1469  0.1285  0.1668
  810W        W 4861   7.026   6.332   4.103 -0.1066 -0.2946  0.1691
  811W        W 4862   6.787   9.952   2.024  0.0831 -0.2880  0.1593
  812W        W 4863   8.487   2.297  10.569  0.0238 -0.0370 -0.5408
  813W        W 4864   5.449   8.065   9.504  0.0427  0.1503 -0.2249
  814W        W 4865   8.515   6.209  10.944  0.3437 -0.0427 -0.0584
  815W        W 4866   1.874   8.918  12.318 -0.4651  0.1209  0.2322
  816W        W 4867   9.855   4.798   1.685  0.0930  0.3696  0.0737
  817W        W 4868   8.973   8.737  10.539  0.0136  0.0810  0.0480
  818W        W 4869   8.464   8.944   3.856  0.1982  0.1149  0.0665
  819W        W 4870   1.157   2.893  12.689 -0.1686 -0.0917 -0.1053
  820W        W 4871   1.637   3.100   0.256  0.1422  0.1035  0.0610
  821W        W 4872   7.709  10.054  13.766 -0.2817  0.0226  0.0317
  822W        W 4873   1.887   5.842   0.349 -0.0467 -0.0270 -0.1064
  823W        W 4874   0.716   4.273   1.096  0.0969 -0.2207 -0.1389
  824W        W 4875   9.469   3.408  13.658  0.1619  0.0840  0.0056
  825W        W 4876   8.106   6.445  10.653  0.2397  0.0573 -0.2665
  826W        W 4877   4.291   5.392  10.980 -0.3727 -0.2366  0.0845
  827W        W 4878   6.226   8.231  11.819 -0.1728 -0.2334 -0.0156
  828W        W 4879   5.150   4.867  11.853 -0.0008 -0.0241 -0.2650
  829W        W 4880   1.493   6.442  11.390 -0.3711 -0.2390 -0.2506
  830W        W 4881   3.121   1.729  13.722 -0.2452  0.0304 -0.3975
  831W        W 4882   9.662   9.735   1.535 -0.0531  0.1419  0.1683
  832W        W 4883   0.766   6.901  12.531  0.0639  0.1457  0.3309
  833W        W 4884   4.328   2.216   0.626  0.0664 -0.1031 -0.0678
  834W        W 4885   9.756   3.608   3.003  0.0061 -0.1146 -0.1801
  835W        W 4886   5.225   1.269   3.947  0.0777  0.1416 -0.1246
  836W        W 4887   2.922   7.170   9.866 -0.1945 -0.1518 -0.1078
  837W        W 4888   8.734   6.190   1.879  0.1236  0.2797  0.3052
  838W        W 4889   6.069   2.105  11.507  0.2213 -0.3206 -0.1538
  839W        W 4890   1.015   7.238  13.830 -0.0706 -0.0679  0.2099
  840W        W 4891   3.078   7.604   0.139 -0.0849 -0.2779 -0.1516
  841W        W 4892   1.707   4.191   1.239 -0.1720 -0.0870 -0.1244
  842W        W 4893   4.188   0.572   3.867  0.0745 -0.1138 -0.3262
  843W        W 4894   1.151   4.160   2.720  0.0278 -0.3207  0.2613
  844W        W 4895   3.202   3.100   3.569  0.1622  0.1751  0.2200
  845W        W 4896   8.652   9.800   4.290  0.0683 -0.1154 -0.1586
  846W        W 4897   7.169   3.510   1.468  0.1604  0.1605 -0.3581
  847W        W 4898   3.081   5.613   3.133 -0.0501 -0.2838 -0.1630
  848W        W 4899   1.378   0.663   2.521  0.1879 -0.2429  0.0770
  849W        W 4900   6.853   3.359   1.127 -0.0519  0.1104 -0.0464
  850W        W 4901   2.737   6.865   1.319  0.0568 -0.0952  0.1095
  851W        W 4902   0.585   2.353   0.604  0.2432  0.1591  0.0493
  852W        W 4903   7.357   9.703   0.157  0.0693  0.0081 -0.0897
  853W        W 4904   2.846   5.385  10.774  0.1757 -0.0171 -0.2213
  854W        W 4905   4.553   8.927  10.481  0.0700 -0.1992  0.4546
  855W        W 4906   1.893   8.408   1.050 -0.1357  0.0877 -0.1662
  856W        W 4907   6.932   2.724  10.717 -0.2231  0.2927  0.2445
  857W        W 4908   7.937   8.451   1.039  0.0363 -0.1339  0.0568
  858W        W 4909   8.405   3.000  13.310  0.0305  0.1388  0.2737
  859W        W 4910   1.914   4.577   1.521  0.0653  0.0818 -0.0719
  860W        W 4911   8.956   3.263   5.603 -0.0275 -0.0169 -0.1496
  861W        W 4912   1.702   3.393  13.314 -0.0889 -0.0243  0.0881
  862W        W 4913   9.936   9.305   3.942 -0.0649 -0.0417 -0.1961
  863W        W 4914   9.387   6.105  12.979 -0.0458  0.0960 -0.0621
  864W        W 4915   6.881   4.061   3.999  0.0220 -0.1884 -0.1832
  865W        W 4916   7.604   5.781  12.862  0.0623 -0.0200  0.0851
  866W        W 4917   1.617   3.159  10.398 -0.1020  0.1065 -0.1311
  867W        W 4918   5.366   6.175  13.711  0.0984 -0.1907  0.0699
  868W        W 4919   5.872   1.639   4.406  0.0253 -0.0831 -0.2934
  869W        W 4920   8.403   2.865   2.090 -0.4438  0.1683 -0.1588
  870W        W 4921   2.935   5.335  12.397 -0.1501  0.1168  0.1707
  871W        W 4922   8.105   4.461   0.734  0.1289  0.0736 -0.1548
  872W        W 4923   0.732   3.073  11.449  0.2256  0.2644 -0.4871
  873W        W 4924   0.813   1.276  12.658  0.0781 -0.2456 -0.0791
  874W        W 4925   9.279   3.520   2.842  0.2639  0.4617  0.1876
  875W        W 4926   1.308   1.121  10.845  0.3019  0.0266 -0.2390
  876W        W 4927   5.528   8.741   1.468 -0.2235  0.3476  0.2086
  877W        W 4928   4.548   8.256  12.286 -0.1674  0.2888 -0.2000
  878W        W 4929   7.585   4.663   4.291  0.3520 -0.1676 -0.4976
  879W        W 4930   4.464   5.636   9.657 -0.3219 -0.1736  0.0258
  880W        W 4931   7.050   6.594  11.312  0.0837  0.2083  0.1461
  881W        W 4932   2.341   1.457  11.751  0.2095 -0.2990  0.2657
  882W        W 4933   7.406   0.401   0.598 -0.1363 -0.0494 -0.1506
  883W        W 4934   4.905   0.953   9.296 -0.0065  0.2792  0.2587
  884W        W 4935   4.325   2.147  13.701 -0.0582 -0.5348  0.0957
  885W        W 4936   7.113   0.791   4.917  0.0970  0.1056 -0.2860
  886W        W 4937   6.343   5.009   4.096 -0.3785 -0.0055 -0.1234
  887W        W 4938   0.991   0.113  10.004  0.1786 -0.0733  0.1148
  888W        W 4939   0.743   6.824  13.845 -0.2083 -0.1470 -0.0391
  889W        W 4940   3.897   5.927   9.539 -0.1820  0.0135 -0.0588
  890W        W 4941   4.262   8.529   2.408 -0.1695  0.1266 -0.0554
  891W        W 4942   5.911   6.517  11.894  0.0068  0.1759 -0.1614
  892W        W 4943   5.362   0.433   9.445  0.1492 -0.0716 -0.1400
  893W        W 4944   0.901   8.015  13.521 -0.0825 -0.1333  0.1715
  894W        W 4945   7.719   7.425  12.327  0.1345 -0.0206  0.0778
  895W        W 4946   9.342   2.971   5.401 -0.1666 -0.5338 -0.2154
  896W        W 4947   4.368   3.664   2.948 -0.0991  0.0230  0.1907
  897W        W 4948   7.770   8.069   4.570 -0.2959 -0.0448 -0.2167
  898W        W 4949   6.658   3.550   2.073 -0.3319  0.1239  0.1110
  899W        W 4950  10.134   8.086  11.269  0.0607  0.3235  0.0281
  900W        W 4951   6.197   6.719  11.367  0.1324 -0.1021 -0.0491
  901W        W 4952   1.645   4.725  13.520  0.2464 -0.2684 -0.1386
  902W        W 4953   1.341   1.863   3.642  0.1207  0.0755 -0.0021
  903W        W 4954   5.801   2.944   1.380 -0.2861  0.0226  0.1977
  904W        W 4955   8.427   9.599   9.678 -0.0307  0.2266 -0.0017
  905W        W 4956   8.065   4.621   3.735  0.1023  0.0435  0.4575
  906W        W 4957   2.650   5.218  11.972 -0.1451 -0.0214 -0.0252
  907W        W 4958   7.941   9.723  13.245 -0.0366  0.0509 -0.0554
  908W        W 4959   3.947   1.323   3.164  0.0628 -0.2499 -0.1165
  909W        W 4960   3.421   2.136  11.283 -0.1611  0.3260 -0.0839
  910W        W 4961   9.524   9.328   9.296 -0.1656 -0.2224 -0.2508
  911W        W 4962   2.853   7.884  10.933 -0.2138 -0.0147 -0.1379
  912W        W 4963   6.105   3.628   3.836  0.0978 -0.2628  0.3100
  913W        W 4964   2.904   8.451  11.791 -0.0078 -0.2660 -0.2054
  914W        W 4965   2.404   1.166   2.528  0.1356 -0.0136  0.1359
  915W        W 4966   3.624   8.398   0.931 -0.1790  0.1401 -0.1123
  916W        W 4967   3.735   8.817   0.310  0.1465 -0.2425  0.3364
  917W        W 4968   8.632   3.608   1.067  0.2678  0.2340 -0.2405
  918W        W 4969  10.040   4.751  12.668 -0.2270  0.1614  0.1050
  919W        W 4970   2.700   1.126  10.277 -0.1361  0.0529 -0.0147
  920W        W 4971   9.091   3.708  12.227  0.2129 -0.2147  0.0805
  921W        W 4972   0.269   8.407   2.470 -0.0525 -0.0652  0.0155
  922W        W 4973   9.373   0.701   9.783 -0.0931  0.2041 -0.0230
  923W        W 4974   3.391   8.992  11.041  0.0167  0.2280 -0.3413
  924W        W 4975   3.621   0.908   3.140  0.2122 -0.0151  0.2742
  925W        W 4976   5.966   3.678  11.325 -0.1527  0.0399  0.1782
  926W        W 4977   8.230   0.513   5.402  0.0640  0.2911  0.0114
  927W        W 4978   6.520   3.554  12.650 -0.0801  0.2132 -0.2424
  928W        W 4979   4.596   7.514   3.921 -0.0110  0.0044 -0.2208
  929W        W 4980   2.657   5.988   2.340 -0.1598 -0.0451 -0.1395
  930W        W 4981   8.930   6.279  10.712  0.0282 -0.3195  0.0456
  931W        W 4982   4.860   2.182  13.804 -0.1786  0.1163 -0.2747
  932W        W 4983   7.577   0.655   2.079  0.2269  0.1707 -0.4388
  933W        W 4984   7.553   5.595   3.660 -0.0389 -0.0550 -0.1600
  934W        W 4985   1.987   7.496   3.980 -0.1134 -0.1739  0.2786
  935W        W 4986   5.730   0.758  10.970 -0.2243 -0.0473 -0.0163
  936W        W 4987   1.956   2.088  13.408  0.0220 -0.3850  0.2075
  937W        W 4988   6.234   4.556  10.143 -0.3276  0.5060  0.0538
  938W        W 4989   9.987   9.481  13.269 -0.3258  0.2190 -0.0502
  939W        W 4990   5.823   9.886   9.391  0.0567 -0.1146  0.1076
  940W        W 4991   7.715   2.626  12.932 -0.1077  0.2630 -0.3129
  941W        W 4992   8.358   0.099  10.906  0.0320  0.0641  0.0087
  942W        W 4993   4.872   7.447   4.521  0.0295 -0.0976 -0.1894
  943W        W 4994   1.946   3.069   0.751  0.1823 -0.1594 -0.0443
  944W        W 4995   7.746   8.975   5.136  0.2362  0.1346  0.1501
  945W        W 4996   9.972   8.518   3.374 -0.3347  0.2885  0.0908
  946W        W 4997   3.039   5.507   0.286 -0.0821  0.1858 -0.0894
  947W        W 4998   2.877   6.995   2.100 -0.0181  0.1908  0.1499
  948W        W 4999   4.709   5.582  13.166 -0.0754 -0.1833 -0.1245
  949W        W 5000   9.266   7.385   1.794  0.1154 -0.0038 -0.2258
  950W        W 5001   8.569   7.415   3.547 -0.2455 -0.0621  0.0850
  951W        W 5002   4.626   0.579   0.455 -0.0394  0.0996  0.0417
  952W        W 5003   3.781   8.078  10.724 -0.0108  0.0349 -0.0533
  953W        W 5004   6.955   8.570   4.948 -0.0799 -0.1040  0.0331
  954W        W 5005   9.653   3.965   2.421 -0.0886 -0.1635 -0.0738
  955W        W 5006   5.542   0.741   8.362 -0.0710  0.2685  0.2577
  956W        W 5007   0.468   4.840   2.334 -0.0308  0.3763  0.1665
  957W        W 5008   6.013   7.460   4.152 -0.1422  0.0841 -0.0401
  958W        W 5009   8.742   1.111  13.179 -0.1248 -0.0600  0.1989
  959W        W 5010   2.114   1.259  13.173  0.3292 -0.1551  0.1672
  960W        W 5011   6.490   2.124  10.703 -0.0389 -0.2188 -0.0374
  961W        W 5012   0.191   7.699  11.554 -0.0344 -0.1448 -0.0766
  962W        W 5013   5.305  10.120   9.470  0.4384  0.0503 -0.1157
  963W        W 5014   5.488   1.579  11.680  0.0345  0.4056  0.3244
  964W        W 5015   2.891   8.130   1.778 -0.1016 -0.1240  0.0048
  965W        W 5016   2.995   4.509  12.515 -0.1810 -0.2164 -0.0230
  966W        W 5017   7.518   3.495   0.637 -0.2495  0.1005  0.1569
  967W        W 5018   3.478   6.582   3.773  0.1107  0.0520  0.2651
  968W        W 5019   5.424   7.944  13.513  0.1588  0.1083 -0.0869
  969W        W 5020   0.882   9.196  11.719  0.1818 -0.3013  0.1657
  970W        W 5021   3.983   2.246   4.832  0.1244 -0.1504 -0.2142
  971W        W 5022   1.891   6.677  12.135  0.0915 -0.1330  0.0333
  972W        W 5023   9.668   0.718  10.979 -0.1536 -0.1057 -0.2624
  973W        W 5024   4.936   7.492  11.579  0.1122 -0.2908  0.2856
  974W        W 5025   7.976   4.742   0.348 -0.0466 -0.1280 -0.3968
  975W        W 5026   0.578   9.415   9.176  0.0379 -0.0121 -0.2050
  976W        W 5027   0.001   3.406   4.494  0.0136 -0.1375  0.0404
  977W        W 5028   6.504   5.591   1.079  0.3180 -0.0301  0.1860
  978W        W 5029   4.846   3.510   2.972 -0.0825  0.2847  0.1448
  979W        W 5030   4.420   9.004   4.315 -0.1572 -0.0853 -0.1954
  980W        W 5031   1.212   6.646   1.171  0.0074  0.1468 -0.2351
  981W        W 5032   5.897   5.012   1.185 -0.1444  0.1314  0.0865
  982W        W 5033   3.609   1.025  12.947  0.1066  0.1581  0.3831
  983W        W 5034   2.721   6.541  10.473 -0.1560  0.2047  0.0644
  984W        W 5035   1.821   5.880   2.985  0.3878  0.0051 -0.1425
  985W        W 5036   1.209   9.886  10.913  0.2978  0.0086  0.0888
  986W        W 5037   1.788   0.721   1.151  0.0205 -0.0339  0.0276
  987W        W 5038   8.786   8.374   0.582  0.0910 -0.1217  0.1373
  988W        W 5039   8.548   8.514  10.853 -0.1785  0.2519  0.1970
  989W        W 5040   5.157   1.637  10.172  0.1145  0.0322  0.2366
  990W        W 5041   2.385   4.638   0.923 -0.1231  0.2658  0.2472
  991W        W 5042   7.469   5.149  10.150  0.2360  0.0026  0.1735
  992W        W 5043   4.223   3.244   0.428 -0.1334  0.0554  0.1909
  993W        W 5044   5.826   5.919   2.825  0.1809  0.0385 -0.1864
  994W        W 5045   1.765   8.125   2.222  0.1035  0.1295  0.0762
  995W        W 5046   7.616   5.451  12.498 -0.3269 -0.2167 -0.1654
  996W        W 5047   4.984   7.398  12.948  0.0011 -0.0340 -0.1168
  997W        W 5048   2.219   1.415  13.703  0.2945 -0.0821 -0.0061
  998W        W 5049   8.128   3.783  10.560  0.0473 -0.0205 -0.1463
  999W        W 5050   2.153   1.869   1.408 -0.1891 -0.3774 -0.0240
 1000W        W 5051   1.760   3.781  12.894  0.1197 -0.0349 -0.0424
 1001W        W 5052   7.984   6.804  10.287 -0.0340  0.1266  0.0697
 1002W        W 5053   6.795   7.555  12.177  0.0429 -0.3811  0.1107
 1003W        W 5054   7.966   3.572   2.340 -0.0309 -0.0358  0.2502
 1004W        W 5055   4.811   6.255  13.801  0.3013 -0.1470 -0.4179
 1005W        W 5056   4.456   9.377  13.344 -0.0180  0.3026  0.0273
 1006W        W 5057   4.014   9.221   9.146  0.1727  0.0519  0.2211
 1007W        W 5058   1.416   7.106   0.189  0.0939  0.1643 -0.1807
 1008W        W 5059   1.291   0.890  13.507  0.0728 -0.0767  0.1741
 1009W        W 5060   2.956   2.324   4.319 -0.2160  0.0211  0.1207
 1010W        W 5061   6.401   8.522   2.407 -0.1269  0.0169 -0.0840
 1011W        W 5062   9.778   9.334  10.682  0.0994  0.0732  0.3979
 1012W        W 5063   0.062   0.715   3.051  0.1602 -0.2674 -0.0215
 1013W        W 5064   3.358   4.902   2.884  0.0560  0.1313  0.1144
 1014W        W 5065   7.670   2.744   5.817 -0.1940  0.0766  0.0454
 1015W        W 5066   6.135   9.211   3.510  0.1647 -0.0719 -0.2273
 1016W        W 5067   5.721   4.459  13.786 -0.0275  0.2758 -0.2918
 1017W        W 5068   0.699   1.276   1.653 -0.0464  0.0824 -0.0155
 1018W        W 5069   5.127   1.877  11.489  0.1389 -0.0484  0.1438
 1019W        W 5070   9.279   1.684  13.620 -0.2199 -0.2387  0.3330
 1020W        W 5071   4.157   7.749  10.306  0.0455  0.1642 -0.0515
 1021W        W 5072   1.305   1.179   2.305  0.2716 -0.4872  0.0621
 1022W        W 5073   6.323   4.377  10.643 -0.0138  0.2230  0.1975
 1023W        W 5074   4.418   7.043   0.771 -0.0242  0.1913  0.0777
 1024W        W 5075   2.493   9.392   4.888  0.0019 -0.0265 -0.3375
 1025W        W 5076   0.822   2.339  11.172 -0.1618  0.0023 -0.1817
 1026W        W 5077   4.810   4.284   1.852  0.3284  0.0367 -0.2042
 1027W        W 5078   4.756   9.397   5.207 -0.1229 -0.1472  0.0443
 1028W        W 5079   8.044   9.857   9.452 -0.1592  0.0031 -0.1490
 1029W        W 5080   1.158   3.481   1.065  0.0728 -0.1131 -0.0921
 1030W        W 5081   1.586   2.515   4.056 -0.0749  0.0662 -0.1109
 1031W        W 5082   7.455   6.357  11.807  0.1405  0.1683  0.0896
 1032W        W 5083   0.465   4.098  13.199 -0.0810  0.2070 -0.2114
 1033W        W 5084   5.150   3.673   3.610  0.0429 -0.3944  0.1431
 1034W        W 5085   0.702   6.273  10.300 -0.0148 -0.1402 -0.3009
 1035W        W 5086   2.989   5.324  13.715 -0.0037 -0.1479 -0.3619
 1036W        W 5087   9.982   7.645   1.970 -0.0519 -0.1622 -0.0820
 1037W        W 5088   4.760   2.408   0.848  0.0281 -0.2231  0.2073
 1038W        W 5089   0.629   4.285   2.286 -0.2620 -0.1173 -0.1122
 1039W        W 5090   3.647   1.470   5.355 -0.1964 -0.1164  0.0611
 1040W        W 5091   3.271   6.557  10.577  0.2672  0.1377 -0.1889
 1041W        W 5092   7.079   7.172   2.806 -0.0692  0.3650 -0.0171
 1042W        W 5093   2.947   9.470   9.619 -0.0057 -0.3045 -0.0197
 1043W        W 5094   8.211   1.824   0.210  0.0737 -0.0570 -0.0426
 1044W        W 5095   8.172   9.897  13.617 -0.0876  0.1697 -0.0338
 1045W        W 5096   1.514   9.818   3.888 -0.1797  0.1359  0.2154
 1046W        W 5097   4.277   5.314   4.684  0.0647 -0.1790  0.1885
 1047W        W 5098   4.440   7.741  10.766 -0.0371  0.1399  0.2440
 1048W        W 5099   0.811   1.618   1.206  0.0813  0.2391 -0.2000
 1049W        W 5100   7.892   2.572  12.018  0.3185 -0.1487 -0.1469
 1050W        W 5101   4.731   2.255  11.832  0.0638  0.2293  0.1949
 1051W        W 5102   5.666   9.083   4.821 -0.6438  0.0366 -0.1219
 1052W        W 5103   8.712   2.015   2.366 -0.0696  0.1827 -0.0480
 1053W        W 5104   6.034   9.186  12.831  0.0943 -0.0545 -0.4013
 1054W        W 5105   5.985   3.214   4.729 -0.1748  0.2666 -0.1622
 1055W        W 5106   8.355   3.821   3.763  0.3085 -0.0201  0.3195
 1056W        W 5107   9.959   2.759   3.191  0.0740  0.2214  0.1963
 1057W        W 5108   9.384   5.350   9.930 -0.4803  0.0276 -0.3289
 1058W        W 5109   9.760   8.173  12.079  0.2914 -0.2588 -0.0954
 1059W        W 5110   7.234   4.744  10.408  0.0243  0.1165 -0.3073
 1060W        W 5111   8.495   7.947   9.590  0.0681  0.1798 -0.2622
 1061W        W 5112   8.614   8.299   2.461  0.1214  0.1776 -0.1411
 1062W        W 5113   3.980   7.564   0.653 -0.1168  0.1819  0.0534
 1063W        W 5114   4.697   4.381   3.358 -0.1662 -0.0128  0.3050
 1064W        W 5115   2.985   6.357  12.230  0.2203 -0.0180  0.0729
 1065W        W 5116   4.745   2.695   4.984 -0.1325 -0.0262 -0.0781
 1066W        W 5117   1.978   8.708   1.493  0.1267 -0.0341 -0.0087
 1067W        W 5118  10.062   5.281  11.759 -0.0665 -0.0559 -0.2006
 1068W        W 5119   7.740   0.717  10.784 -0.0874 -0.1361  0.3052
 1069W        W 5120   6.436   4.731   0.152  0.0401 -0.1706 -0.2228
 1070W        W 5121   9.008   8.449   1.041 -0.2877  0.0866  0.0247
 1071W        W 5122   8.333   9.472   1.754 -0.0743  0.0125  0.0172
 1072W        W 5123   6.668   4.962  11.454 -0.1992  0.2103  0.2317
 1073W        W 5124   8.804   3.633  13.139 -0.1012 -0.1794  0.1129
 1074W        W 5125   5.072   6.931   2.425 -0.1298 -0.0684  0.2558
 1075W        W 5126   0.894   0.096  13.350  0.0100 -0.2641  0.2629
 1076W        W 5127   7.449   7.047   2.423 -0.0445  0.0201 -0.1640
 1077W        W 5128  10.191   7.896   2.420  0.0088  0.0764 -0.0857
 1078W        W 5129   5.874   1.078   0.078 -0.0505 -0.1332  0.0552
 1079W        W 5130   7.738   5.617   1.653 -0.0080  0.0742  0.1940
 1080W        W 5131   4.653   9.884  10.563 -0.6275  0.3992  0.1761
 1081W        W 5132   5.217   6.522  12.041  0.0444 -0.1469  0.1212
 1082W        W 5133   2.134   8.498  12.408  0.1419  0.0544  0.3312
 1083W        W 5134   8.010   4.255   4.040  0.1105 -0.1103  0.0511
 1084W        W 5135   6.006   9.272  11.909  0.0788 -0.3008 -0.1404
 1085W        W 5136   2.695   9.666   1.466  0.2004 -0.1919  0.0378
 1086W        W 5137   3.254   3.880  10.596 -0.1734 -0.0747  0.0560
 1087W        W 5138   4.073   4.042   0.642  0.1109 -0.3338 -0.2216
 1088W        W 5139   8.283   8.714  13.259  0.0415  0.0970  0.0573
 1089W        W 5140   4.726   7.022   4.303  0.0944  0.0724  0.4019
 1090W        W 5141   6.222   5.281  10.325  0.1276 -0.5569  0.0581
 1091W        W 5142   4.113   4.497   4.707 -0.2201 -0.2411  0.1207
 1092W        W 5143   6.163   9.689  12.119  0.1840 -0.1885 -0.0691
 1093W        W 5144   9.360   3.809  12.689  0.0518 -0.1922  0.3245
 1094W        W 5145   9.166   8.814   3.013 -0.0717  0.0499 -0.2035
 1095W        W 5146   2.665   1.131  13.219  0.0075  0.3045 -0.2072
 1096W        W 5147   1.325   6.920   2.679 -0.0450 -0.3438  0.0105
 1097W        W 5148   4.968   4.835   4.188  0.2973  0.0454 -0.1523
 1098W        W 5149   6.134   4.002   9.931  0.0156 -0.0782  0.0968
 1099W        W 5150   8.368   7.160  13.474 -0.4018  0.2712  0.1349
 1100W        W 5151   1.588   4.999   1.470 -0.0760  0.0882  0.3393
 1101W        W 5152   3.266   3.307  11.233 -0.0650  0.0154 -0.0435
 1102W        W 5153   9.756   8.988  11.415 -0.1786  0.0343 -0.2445
 1103W        W 5154   1.338   0.363   3.049 -0.1350  0.2804  0.1019
 1104W        W 5155   3.626   2.695   4.801  0.0937  0.2986  0.4502
 1105W        W 5156   4.305   5.333   2.216  0.0318 -0.2756 -0.1332
 1106W        W 5157   1.795   8.288   0.528  0.1919  0.0171  0.2080
 1107W        W 5158   9.168   1.338   1.674  0.1576 -0.1882  0.1633
 1108W        W 5159   6.316   6.880   2.398  0.2336 -0.0216  0.1079
 1109W        W 5160   4.745   4.468   0.322 -0.0814 -0.2549 -0.0441
 1110W        W 5161   0.586   3.111   2.072 -0.0332 -0.2332  0.1543
 1111W        W 5162   5.728   6.082   1.512  0.1907  0.0104  0.1510
 1112W        W 5163   4.453   6.094  13.245 -0.2123  0.1496 -0.0172
 1113W        W 5164   1.555   1.462   9.498  0.0833 -0.0178  0.3794
 1114W        W 5165   1.276   2.583   1.529 -0.2058 -0.1405  0.0367
 1115W        W 5166   4.801   8.782   4.525  0.3079 -0.2436 -0.2952
 1116W        W 5167   9.277   5.998   1.905  0.0355 -0.1516  0.0177
 1117W        W 5168   6.802   4.395   4.701 -0.1950  0.1271  0.2318
 1118W        W 5169   6.623   0.330  11.401 -0.0120  0.0070 -0.3549
 1119W        W 5170   6.411   1.009   4.359  0.0734 -0.0914 -0.0347
 1120W        W 5171   4.421   1.479   0.527  0.2523  0.0702 -0.0095
 1121W        W 5172   2.327   4.300   1.697 -0.0985  0.1182 -0.1703
 1122W        W 5173   4.161   3.743   0.222  0.0769  0.0522 -0.0643
 1123W        W 5174   4.223   7.394  12.299 -0.5197 -0.0699 -0.0555
 1124W        W 5175   6.230   6.325  10.932 -0.0888 -0.1437 -0.2729
 1125W        W 5176   1.829   6.342   2.704  0.2912  0.1403  0.2085
 1126W        W 5177   3.199   9.973   1.519  0.2988  0.0369  0.0209
 1127W        W 5178   3.746   3.086  10.016  0.1590  0.0484 -0.2202
 1128W        W 5179   5.043   5.902   3.194  0.1612  0.1021 -0.2399
 1129W        W 5180   1.679   9.178  10.435  0.2270 -0.0564  0.1404
 1130W        W 5181   0.257   3.306  11.767 -0.1031 -0.3308  0.1928
 1131W        W 5182   9.427   1.395   0.057  0.1832 -0.0586  0.0467
 1132W        W 5183   1.068   9.092   3.919 -0.1692  0.2241  0.0537
 1133W        W 5184   0.987   5.741   3.144  0.1586 -0.0140  0.1008
 1134W        W 5185   4.597   9.977   4.429  0.2509 -0.2691 -0.0419
 1135W        W 5186   1.913   8.232   3.249 -0.2362  0.0247  0.1292
 1136W        W 5187   6.160   1.337   4.732  0.0651 -0.1762 -0.1420
 1137W        W 5188   0.390   2.345   0.061  0.1170  0.2043  0.2274
 1138W        W 5189   6.600   9.738   9.174  0.1120  0.3062  0.1047
 1139W        W 5190   0.627   9.256   0.406  0.1236  0.1066  0.2566
 1140W        W 5191   1.262   9.564   3.105  0.0253  0.0116 -0.0868
 1141W        W 5192   7.604   4.869  12.426  0.1009  0.1139  0.3177
 1142W        W 5193   8.085   1.507   3.534  0.2606  0.4119  0.2087
 1143W        W 5194   5.265   5.463  12.107  0.0688  0.0564  0.0499
 1144W        W 5195   5.616   6.792   4.645  0.1497 -0.1649 -0.3134
 1145W        W 5196   6.671   0.305  13.255 -0.1136 -0.0552 -0.0147
 1146W        W 5197   9.579   0.114  13.658  0.2063 -0.3898  0.1293
 1147W        W 5198   4.941   5.240  10.561  0.0721 -0.0105 -0.0573
 1148W        W 5199   8.567   2.624   1.143  0.0793 -0.2560 -0.2686
 1149W        W 5200   7.348   4.956  10.881 -0.0345 -0.6657 -0.0341
 1150W        W 5201   1.023   7.114  12.129  0.1474 -0.3055 -0.1271
 1151W        W 5202   6.024   0.642   0.418 -0.3018 -0.1633  0.5054
 1152W        W 5203   7.405   8.640  10.297 -0.2705  0.1117  0.1528
 1153W        W 5204   6.149   1.898   9.874  0.2674 -0.0827 -0.0945
 1154W        W 5205   0.894   0.443   0.156  0.1631  0.0624 -0.5504
 1155W        W 5206   1.202   9.078  10.169  0.0608 -0.2063  0.2373
 1156W        W 5207   6.581   3.593  10.155  0.1040  0.0262 -0.1259
 1157W        W 5208   1.367   3.173  11.431  0.0666 -0.1515  0.1686
 1158W        W 5209   1.333   8.553   4.129  0.3538 -0.1442  0.1494
 1159W        W 5210   0.654   6.327   0.169  0.1998 -0.0759 -0.0422
 1160W        W 5211   7.178   2.790  12.793  0.0546 -0.1445 -0.4041
 1161W        W 5212   1.231   5.373   1.359 -0.1708  0.0875  0.0390
 1162W        W 5213   6.043   6.252   3.784 -0.0035 -0.0297 -0.1474
 1163W        W 5214   9.267   1.267  11.447 -0.2681 -0.1164  0.0168
 1164W        W 5215   8.583   7.836  13.086  0.3292 -0.0550  0.2831
 1165W        W 5216   8.543   4.256   5.408 -0.1380 -0.1270 -0.0815
 1166W        W 5217   0.076   4.505  13.386  0.1146 -0.1081 -0.1298
 1167W        W 5218   3.840   5.555  10.212  0.1384 -0.0134  0.0486
 1168W        W 5219   1.701   6.688   2.342 -0.0460  0.0995  0.0137
 1169W        W 5220   8.865   3.783   3.144 -0.3844 -0.3776 -0.2581
 1170W        W 5221   1.254   0.448   9.471  0.1113  0.1691  0.3562
 1171W        W 5222   6.832   0.887   2.687 -0.1667 -0.0527 -0.1930
 1172W        W 5223   7.759   1.347   9.587 -0.0869  0.2138  0.0363
 1173W        W 5224   9.179   8.876   4.255 -0.1333 -0.0858 -0.0628
 1174W        W 5225   6.516   0.260  13.752  0.2993 -0.0780  0.0771
 1175W        W 5226   9.524   6.949  10.643 -0.2233 -0.0661 -0.3226
 1176W        W 5227   7.918   6.393   3.773  0.1394 -0.0701  0.2896
 1177W        W 5228   7.100   3.788   1.954 -0.3381 -0.0231 -0.3293
 1178W        W 5229   0.049   6.206  12.109 -0.1016  0.0062  0.2143
 1179W        W 5230   8.001   8.771   2.283  0.0757 -0.1375 -0.1782
 1180W        W 5231   7.590   7.375  11.466  0.3575 -0.0881 -0.0614
 1181W        W 5232   3.250   9.892   9.550  0.2658 -0.0925 -0.2796
 1182W        W 5233   9.317   1.134  12.759  0.0423 -0.3528 -0.1747
 1183W        W 5234   3.733   3.653  10.019 -0.2669 -0.2521 -0.1672
 1184W        W 5235   3.143   5.411   3.602 -0.2120 -0.0164 -0.0085
 1185W        W 5236   6.958   2.538   0.121 -0.0054 -0.5318  0.0661
 1186W        W 5237   7.845   3.818  13.662  0.2063  0.0759 -0.0040
 1187W        W 5238   5.027   5.530   2.796 -0.0336 -0.1224 -0.0068
 1188W        W 5239   2.023   1.290  11.398  0.0109 -0.2554 -0.0782
 1189W        W 5240   6.970   6.935   0.309 -0.2212  0.0611 -0.0840
 1190W        W 5241   5.891   2.134   3.703 -0.0316 -0.2358 -0.2257
 1191W        W 5242   9.069   3.477   0.781 -0.0232 -0.1414 -0.1792
 1192W        W 5243   3.260   3.704   9.707  0.1329 -0.3209 -0.0261
 1193W        W 5244   0.119   5.567   0.068 -0.1272 -0.1250 -0.0621
 1194W        W 5245   4.344   7.694   0.214  0.1347  0.0038  0.1995
 1195W        W 5246   0.355   1.772   1.283 -0.2628 -0.4716 -0.1102
 1196W        W 5247   6.431  10.028  10.921  0.0015  0.0415 -0.0760
 1197W        W 5248   8.608   5.401  11.881  0.0838 -0.2493 -0.1819
 1198W        W 5249   0.016   2.163   1.281 -0.1708 -0.1459  0.1902
 1199W        W 5250   9.082   7.737  11.390 -0.1157  0.0426  0.1918
 1200W        W 5251   5.808   7.952  11.985  0.2664  0.0501  0.1413
 1201W        W 5252   8.938   4.801  11.135 -0.0658 -0.1845  0.0331
 1202W        W 5253   4.278   6.813  12.143 -0.1030 -0.0709 -0.0206
 1203W        W 5254   8.775   1.062   0.787  0.0566  0.1293 -0.0694
 1204W        W 5255   2.924   0.903   1.402 -0.1227 -0.5081  0.1900
 1205W        W 5256   8.345   4.756   2.763  0.0587  0.0752 -0.0407
 1206W        W 5257   8.117   0.724   4.374 -0.1658  0.0065 -0.2532
 1207W        W 5258  10.084   7.547  11.081 -0.3857 -0.2401 -0.1814
 1208W        W 5259   6.336   1.265  13.365  0.1214 -0.0856  0.3679
 1209W        W 5260   8.756   2.319   2.808 -0.0598  0.2139  0.0976
 1210W        W 5261   6.019   1.149  11.009  0.1985 -0.1247 -0.0061
 1211W        W 5262   6.801  10.063  13.572 -0.0823  0.0022  0.1243
 1212W        W 5263   2.500   8.822  12.689 -0.3174 -0.0926 -0.0448
 1213W        W 5264   2.991   1.365   0.275 -0.0458  0.1007 -0.0938
 1214W        W 5265   8.955   8.375   3.327 -0.2504  0.2070 -0.2922
 1215W        W 5266   6.764   0.122   4.059  0.0548  0.1865  0.2808
 1216W        W 5267   7.446   5.319   2.132  0.2413  0.0072  0.0719
 1217W        W 5268   0.269   2.812  12.658 -0.0728  0.1383  0.1448
 1218W        W 5269   5.330   9.616   4.630  0.0398  0.1430 -0.2294
 1219W        W 5270   0.450   6.514  12.754 -0.0205  0.0534  0.3135
 1220W        W 5271   4.275   2.847   1.339 -0.3680 -0.0752 -0.2604
 1221W        W 5272   5.874   6.445   4.876  0.0828  0.1494  0.0634
 1222W        W 5273   5.253   8.804   3.439 -0.0521  0.2448  0.2652
 1223W        W 5274   8.201   5.583   3.508 -0.1561  0.0510 -0.1778
 1224W        W 5275   4.126   6.592   0.974 -0.0455 -0.2547 -0.2430
 1225W        W 5276   0.003   1.529   0.980 -0.1297  0.0792 -0.1129
 1226W        W 5277   4.904   0.227   9.399 -0.0512  0.2655  0.0382
 1227W        W 5278   0.292   8.688  12.284  0.0927 -0.0962 -0.0489
 1228W        W 5279   8.095   8.656   9.510 -0.2629  0.1970 -0.2652
 1229W        W 5280   0.897   5.354   9.822 -0.0679  0.4186 -0.3002
 1230W        W 5281   5.284   8.724   4.062 -0.0481 -0.0503  0.2566
 1231W        W 5282   6.990   5.314  11.129  0.2650 -0.2597 -0.1628
 1232W        W 5283   9.702   8.529  13.748 -0.1492  0.1596 -0.2252
 1233W        W 5284   3.466   6.765  11.003 -0.3236 -0.0188 -0.2833
 1234W        W 5285   4.972   9.753   4.160  0.4068 -0.0631 -0.0144
 1235W        W 5286   7.352   9.359   4.071 -0.0690 -0.2028 -0.5477
 1236W        W 5287   2.845   8.599   3.254  0.1246 -0.2010 -0.3118
 1237W        W 5288   0.951   9.683   2.258 -0.2527 -0.0415  0.0907
 1238W        W 5289   7.670   6.453  10.384 -0.0840  0.1495 -0.0028
 1239W        W 5290   5.815   6.307   1.083 -0.2340 -0.5202 -0.2147
 1240W        W 5291   3.402   7.213   2.660 -0.1960 -0.0724 -0.1498
 1241W        W 5292   8.886   3.509  13.896 -0.0003 -0.0713  0.2659
 1242W        W 5293   4.187   5.718   4.036  0.3334 -0.0014  0.1385
 1243W        W 5294   0.243   1.895   2.767 -0.0103  0.0923 -0.4161
 1244W        W 5295   3.939   2.572   3.203  0.0570  0.2704  0.0614
 1245W        W 5296   6.360   3.289   2.603  0.0048 -0.0696 -0.2995
 1246W        W 5297   6.254   6.584   1.015 -0.0350  0.0160  0.3194
 1247W        W 5298   3.402   0.162  12.855 -0.0206  0.2799 -0.2167
 1248W        W 5299   4.616   6.180   1.179 -0.2149  0.1814 -0.0206
 1249W        W 5300   6.985   4.951  13.297  0.2831  0.0986  0.1110
 1250W        W 5301   7.110   7.957   1.928  0.0947  0.0842  0.0681
 1251W        W 5302   8.144   4.762   3.279  0.0808 -0.1804  0.1025
 1252W        W 5303   0.980   0.914  11.277  0.0633 -0.2852  0.0191
 1253W        W 5304   3.028   2.861  12.004  0.1260  0.0245  0.0493
 1254W        W 5305   6.476   7.712   4.112  0.2866 -0.2623 -0.0337
 1255W        W 5306   0.816   7.704  12.151 -0.2104 -0.0308 -0.3246
 1256W        W 5307   8.618   6.313  12.108  0.1816 -0.1740  0.1178
 1257W        W 5308   3.447   4.230  12.083  0.0072 -0.1663 -0.1913
 1258W        W 5309   5.515   2.667   4.874 -0.1876  0.3036 -0.0640
 1259W        W 5310   1.596   3.260  12.692  0.0803  0.1558  0.0609
 1260W        W 5311   8.263   0.593  11.105  0.0873 -0.1097  0.2505
 1261W        W 5312   1.144   4.091  11.156  0.2861  0.0733  0.1454
 1262W        W 5313   9.549   1.827   9.779  0.0296 -0.0703 -0.0320
 1263W        W 5314   8.776   4.034  11.049  0.0558 -0.2973 -0.0760
 1264W        W 5315   2.304   0.543  13.882 -0.3013  0.0836 -0.0167
 1265W        W 5316   2.554  10.062  13.481 -0.1444  0.0360 -0.0969
 1266W        W 5317   4.538   7.789   4.453 -0.1584 -0.1075  0.4753
 1267W        W 5318   5.405   2.672   5.557  0.2373 -0.0813  0.1461
 1268W        W 5319   6.513   3.856   4.441 -0.2802 -0.1178  0.1477
 1269W        W 5320   2.753   1.769   2.371 -0.2806 -0.1276  0.0220
 1270W        W 5321   1.517   7.033  11.243 -0.2628  0.0837  0.3965
 1271W        W 5322   0.516   0.917   9.675  0.1198  0.1008 -0.1767
 1272W        W 5323   1.923   4.557   0.081 -0.0202  0.0699 -0.0948
 1273W        W 5324   9.901   4.518  11.398  0.0509 -0.0488  0.2265
 1274W        W 5325   7.823   7.683  12.758 -0.0495 -0.1348 -0.2580
 1275W        W 5326   9.537   4.230  13.339  0.1925 -0.0100 -0.1035
 1276W        W 5327   8.003   3.512   0.947  0.0334 -0.0954 -0.0782
 1277W        W 5328   7.323   0.115   9.688  0.3270 -0.0580 -0.2465
 1278W        W 5329   1.869   7.140  10.792  0.0322  0.5126 -0.0309
 1279W        W 5330   7.383   1.649  13.076  0.0257 -0.3263 -0.3546
 1280W        W 5331   9.099   1.764   2.619  0.2278  0.0691  0.0616
 1281W        W 5332   2.505   5.451   0.400  0.0117 -0.3466  0.1113
 1282W        W 5333   7.312   5.350  11.589  0.0300  0.1188  0.4823
 1283W        W 5334   8.447   0.829   1.270  0.2708 -0.3890  0.2205
 1284W        W 5335   3.141   6.881  13.015  0.0985  0.1082 -0.1428
 1285W        W 5336   2.191   1.840  10.508  0.1922  0.1548  0.3117
 1286W        W 5337   0.363   8.028   2.853 -0.1971  0.1304 -0.0944
 1287W        W 5338   8.590   5.743   3.168 -0.1450 -0.3242  0.3114
 1288W        W 5339   9.804   2.175   5.343 -0.0326  0.0253  0.0792
 1289W        W 5340   6.428   9.980  13.910 -0.1047  0.1800 -0.0073
 1290W        W 5341   5.120   1.893  11.990 -0.1690 -0.0499  0.1594
 1291W        W 5342   6.838   5.652   1.943  0.0861 -0.2093 -0.0258
 1292W        W 5343   8.031   8.008  13.749  0.1763  0.0152 -0.2754
 1293W        W 5344   9.868   5.766  10.800  0.0463 -0.0668 -0.1127
 1294W        W 5345   1.704   7.597  13.830  0.1187 -0.0004  0.3867
 1295W        W 5346   0.973   8.876   1.845  0.0609  0.0780  0.0200
 1296W        W 5347   9.005   0.683  13.202 -0.4307 -0.0470 -0.2091
 1297W        W 5348   5.347   2.032   0.059 -0.2486 -0.1275  0.0569
 1298W        W 5349   2.387   5.728   3.716 -0.3109 -0.1375 -0.0093
 1299W        W 5350   7.292   5.143   4.263 -0.2085 -0.2141  0.2257
 1300W        W 5351   1.165   2.213   3.935 -0.1630  0.2082  0.0350
 1301W        W 5352   0.324   6.640  13.204  0.0207  0.0665  0.0008
 1302W        W 5353   5.187   9.016   0.869 -0.1509 -0.0331 -0.0264
 1303W        W 5354   7.898   4.512  13.328 -0.0388 -0.2133  0.0799
 1304W        W 5355   4.366   5.246   1.021  0.1418  0.0117 -0.3160
 1305W        W 5356  10.180   6.924   0.440  0.1534  0.2653  0.2562
 1306W        W 5357   4.349   3.211   4.999  0.0435  0.1986 -0.2917
 1307W        W 5358   6.498   4.871  13.324 -0.1168 -0.4301  0.0588
 1308W        W 5359   3.778  10.141   0.225  0.4673  0.2037 -0.1305
 1309W        W 5360   5.844   5.937  12.582 -0.0734 -0.0608  0.0431
 1310W        W 5361   7.449   1.520   9.132 -0.0497 -0.0702 -0.0945
 1311W        W 5362   6.416   3.178   9.605 -0.0395  0.0696  0.0223
 1312W        W 5363   2.838   2.185  12.308 -0.0930 -0.1200  0.1645
 1313W        W 5364   8.409   4.988  11.988  0.4264  0.0005 -0.1384
 1314W        W 5365   9.310   9.943   2.038 -0.0945 -0.0170  0.2446
 1315W        W 5366   7.549   4.949  13.318  0.4679  0.2685  0.2147
 1316W        W 5367   8.062   1.208   0.142 -0.2237 -0.1159  0.1205
 1317W        W 5368   5.187   9.857   0.350  0.0783 -0.1229  0.4593
 1318W        W 5369   8.361   4.348   1.329 -0.0804  0.2150  0.2306
 1319W        W 5370   3.406   7.144  11.285  0.1194  0.0565 -0.1247
 1320W        W 5371   2.071   0.122   0.379 -0.0501  0.1720 -0.0937
 1321W        W 5372  10.072   8.230  10.407 -0.1187 -0.3767 -0.0198
 1322W        W 5373   1.971   6.393   1.515 -0.0467  0.0681 -0.0749
 1323W        W 5374   7.650   1.654   1.334 -0.0110 -0.3639 -0.2069
 1324W        W 5375   3.919   5.465  12.568 -0.0575 -0.0885 -0.1345
 1325W        W 5376   1.288   2.407  13.015 -0.1770 -0.0167 -0.0183
 1326W        W 5377   1.931   4.231   3.298  0.1551  0.0691 -0.3154
 1327W        W 5378   7.814   0.886  12.793 -0.2525 -0.0099 -0.3412
 1328W        W 5379   5.563   2.165   2.419  0.0467  0.0492  0.0591
 1329W        W 5380   4.468   6.994   1.295  0.0531 -0.4036 -0.1734
 1330W        W 5381   5.212   9.536   3.007  0.2242 -0.0154  0.0195
 1331W        W 5382   1.901   6.115  10.886 -0.1987 -0.0654 -0.3053
 1332W        W 5383   9.141   5.377  10.463  0.0106 -0.0152  0.3233
 1333W        W 5384   0.983   0.535  12.646 -0.0407 -0.2245  0.0709
 1334W        W 5385   3.216   5.176  10.390  0.1472 -0.0361 -0.0934
 1335W        W 5386   5.089   2.347   1.697 -0.0767  0.0020  0.0353
 1336W        W 5387   6.217   9.250  13.596  0.2362 -0.2973 -0.0939
 1337W        W 5388   3.097   2.102   9.927  0.3547  0.3909 -0.0134
 1338W        W 5389   9.779   5.305  11.162 -0.1708 -0.3189  0.2412
 1339W        W 5390   1.874   8.632  10.592  0.0294 -0.0795  0.0799
 1340W        W 5391   1.674   0.264   4.990  0.0112  0.1474 -0.0786
 1341W        W 5392   8.007   4.950  11.014 -0.2681 -0.1868 -0.0670
 1342W        W 5393  10.077   8.976   3.512  0.0078 -0.1291  0.1227
 1343W        W 5394   1.747   3.011   4.007  0.1492  0.2178  0.0815
 1344W        W 5395   8.924   6.301  13.243 -0.1656 -0.0734 -0.3677
 1345W        W 5396   5.967   3.845   5.200 -0.0687 -0.2849 -0.1268
 1346W        W 5397   9.312   4.407   1.888  0.1437  0.1609  0.2332
 1347W        W 5398   1.851   7.496   1.003  0.1492  0.0448 -0.4831
 1348W        W 5399   7.283   3.001   9.858 -0.0991  0.0420  0.0832
 1349W        W 5400   6.517   6.510   1.537  0.1073  0.0169 -0.0465
 1350W        W 5401   0.476   2.153  12.551  0.1023  0.2681  0.1665
 1351W        W 5402   1.928   9.927   4.245 -0.0995  0.4368 -0.0054
 1352W        W 5403   5.898   3.868   0.638 -0.0375 -0.0770  0.2023
 1353W        W 5404   3.125   9.334  13.667  0.0098 -0.0270 -0.0370
 1354W        W 5405   3.217   2.845   5.070 -0.2340  0.0705  0.6008
 1355W        W 5406   4.461  10.033   4.888  0.1215  0.2493 -0.1508
 1356W        W 5407   9.900   1.002   3.202  0.0403  0.1670  0.1513
 1357W        W 5408   6.347   3.795   2.421 -0.1765 -0.3166 -0.2622
 1358W        W 5409  10.141   5.221   0.425  0.0300  0.3084  0.1218
 1359W        W 5410   1.480   4.575   1.877 -0.1176  0.1022  0.0036
 1360W        W 5411   8.614   2.971   4.276  0.2665 -0.1856  0.3860
 1361W        W 5412   9.072   2.350   0.091 -0.2709  0.0161 -0.0981
 1362W        W 5413   2.939   5.137   3.188 -0.2702  0.0613  0.0811
 1363W        W 5414   9.674   8.579   2.927 -0.0556 -0.1034  0.0271
 1364W        W 5415   2.789   9.792   2.949 -0.1261  0.1283 -0.0570
 1365W        W 5416   1.937   6.046   1.192  0.3391 -0.0038  0.0200
 1366W        W 5417   0.533   9.337  13.708  0.0732  0.3863  0.0440
 1367W        W 5418   7.253   5.632  12.096  0.0673  0.1032  0.1895
 1368W        W 5419   6.422   1.431  10.850  0.0136  0.2308 -0.0306
 1369W        W 5420   9.448   1.904  10.501 -0.2492 -0.2271  0.5064
 1370W        W 5421   7.847   0.106  12.079  0.1283  0.0058 -0.1194
 1371W        W 5422   7.339   9.926  10.777  0.2697 -0.3103  0.0829
 1372W        W 5423   7.348   6.449   9.090 -0.1961  0.2909  0.2398
 1373W        W 5424   2.401   4.419  12.796 -0.0886  0.1376 -0.1939
 1374W        W 5425   8.575   0.333   0.083 -0.7036 -0.1318 -0.0205
 1375W        W 5426   7.575   4.412   0.653  0.1721 -0.1443  0.3631
 1376W        W 5427   0.972   0.409   4.670 -0.0048 -0.0109 -0.0506
 1377W        W 5428   8.886   5.941   2.333  0.3159 -0.1787  0.1128
 1378W        W 5429   4.811   6.292   1.667 -0.1517 -0.1725  0.1085
 1379W        W 5430   2.141   1.902   0.556  0.1076  0.1945 -0.0176
 1380W        W 5431   0.986   5.739   2.603  0.0702  0.3442  0.2205
 1381W        W 5432   3.626   6.392   2.147  0.2071  0.1175  0.1004
 1382W        W 5433   6.659   4.004   0.536 -0.0835  0.0463  0.4668
 1383W        W 5434   9.630   1.276   2.600  0.1206  0.2073  0.4313
 1384W        W 5435   6.585   1.765  13.568  0.0118  0.0611  0.2980
 1385W        W 5436   8.589   8.184   1.076  0.1966  0.1544 -0.3754
 1386W        W 5437   2.738   7.577  13.719 -0.0022  0.3300 -0.0037
 1387W        W 5438   2.587   1.301   2.100 -0.0369 -0.0034 -0.2502
 1388W        W 5439   3.351   1.272  13.859 -0.2085 -0.0464 -0.0407
 1389W        W 5440   6.998   1.777   2.409 -0.0522  0.3368  0.0117
 1390W        W 5441   5.097   3.456   1.290 -0.1048 -0.0809  0.0878
 1391W        W 5442   7.210   5.063   2.785  0.0829 -0.0423  0.0323
 1392W        W 5443   8.603   3.418   3.415  0.2973 -0.1794  0.1470
 1393W        W 5444   7.181   3.516  10.841  0.1248  0.1268  0.0215
 1394W        W 5445   5.986   1.245   4.010  0.3182  0.2223 -0.1290
 1395W        W 5446   6.962   0.541   3.897 -0.1814  0.1279 -0.2183
 1396W        W 5447   1.702   8.705   4.927 -0.3595 -0.0203 -0.2025
 1397W        W 5448   4.601   4.284  12.319 -0.0686 -0.0110  0.0177
 1398W        W 5449   5.373   1.492  13.700 -0.3709 -0.2794 -0.1150
 1399W        W 5450   1.897   7.627   2.723 -0.0129 -0.3030  0.2194
 1400W        W 5451   4.313   1.870  12.550 -0.2850 -0.0253  0.2174
 1401W        W 5452   9.146   1.651   8.924  0.0128  0.2859  0.1502
 1402W        W 5453   9.169   0.497   1.670 -0.0144 -0.1192 -0.0714
 1403W        W 5454   3.436   9.099   3.379  0.3471 -0.0312 -0.1416
 1404W        W 5455   6.566   6.428  11.347  0.1985  0.1789 -0.2601
 1405W        W 5456   1.871   8.053  11.159 -0.0494  0.1596  0.0280
 1406W        W 5457   5.973   7.533  12.917 -0.0897  0.1004  0.3670
 1407W        W 5458   1.664   9.350  11.375  0.0510  0.2295 -0.1351
 1408W        W 5459   9.249   1.588   9.414 -0.1674 -0.0218 -0.0868
 1409W        W 5460   6.813   7.619   1.704 -0.1433  0.1218  0.1888
 1410W        W 5461   6.471   9.392  13.016  0.1080  0.1189 -0.1556
 1411W        W 5462   3.512   2.004  10.313 -0.1384  0.1424  0.1436
 1412W        W 5463   9.123   9.762   4.746  0.0384  0.2211  0.3358
 1413W        W 5464  10.127   5.277  13.632 -0.1132  0.1670 -0.0588
 1414W        W 5465   6.697   3.424  11.710  0.2176 -0.0710  0.1868
 1415W        W 5466   6.721   6.158  13.131  0.1074 -0.1229  0.1098
 1416W        W 5467   6.888   8.621   2.589 -0.0222 -0.1139  0.1243
 1417W        W 5468   4.473   1.276   9.647 -0.1632 -0.1422  0.0512
 1418W        W 5469   4.545   6.158   5.224 -0.1578 -0.2601  0.1050
 1419W        W 5470   8.622   0.275  10.448 -0.1986  0.1838  0.1139
 1420W        W 5471   3.306   6.058  12.889  0.0153  0.3981 -0.2706
 1421W        W 5472   9.011   5.226  13.378  0.2014  0.2212 -0.1659
 1422W        W 5473   8.692   5.666  10.269 -0.1719  0.0560  0.2391
 1423W        W 5474   1.220   9.700   1.354 -0.1199 -0.1630  0.4764
 1424W        W 5475   7.266   4.268   2.272  0.1867  0.0291 -0.1640
 1425W        W 5476   7.502   3.730  10.453 -0.0327  0.2666  0.1023
 1426W        W 5477   6.759   2.010   4.790 -0.0073 -0.0474  0.0740
 1427W        W 5478   0.777   0.592  11.654  0.1922  0.4850  0.0945
 1428W        W 5479   8.724   3.966  13.529  0.0648 -0.1416  0.2609
 1429W        W 5480   0.389   8.173   2.031 -0.0906 -0.0613 -0.1833
 1430W        W 5481   8.539   6.610   0.157  0.1565 -0.2510  0.0825
 1431W        W 5482   9.424   0.288  10.072 -0.2513 -0.1983  0.0076
 1432W        W 5483   4.607   0.979  12.603 -0.0532  0.0868  0.1557
 1433W        W 5484  10.197   0.702   3.993 -0.0845  0.2186 -0.0031
 1434W        W 5485   5.180   9.195   0.382 -0.0582  0.1126 -0.0232
 1435W        W 5486   9.256   2.113  10.070 -0.0034 -0.0017  0.3278
 1436W        W 5487   3.649   0.821   0.168  0.0615 -0.2308 -0.1416
 1437W        W 5488   1.401   0.337   1.146 -0.0746 -0.0699 -0.1335
 1438W        W 5489   5.123   6.224  11.690 -0.1354  0.1809 -0.0190
 1439W        W 5490   4.389   6.505   1.457 -0.1623  0.0496 -0.0944
 1440W        W 5491   7.082   7.781   2.683  0.0922 -0.1366  0.0315
 1441W        W 5492   3.946   8.193   3.403  0.2205  0.1181  0.1558
 1442W        W 5493   4.054   7.428   2.063  0.2705 -0.1404 -0.1468
 1443W        W 5494   6.680   4.967   3.061  0.1393 -0.1644  0.0603
 1444W        W 5495   9.210   3.416  10.724 -0.0107  0.2575  0.0041
 1445W        W 5496   4.952   3.453  10.354  0.0240 -0.6029  0.1163
 1446W        W 5497   7.724   3.436   9.023  0.2416 -0.0854  0.2309
 1447W        W 5498   9.198   8.500   0.041  0.3424  0.1948  0.1266
 1448W        W 5499   5.762   5.299   5.291  0.1480  0.1468  0.0554
 1449W        W 5500   7.070   1.695  13.702 -0.1707  0.0165 -0.0459
 1450W        W 5501   3.893   6.015  12.153  0.1845 -0.1900  0.0930
 1451W        W 5502   9.607   0.567  10.484  0.0226  0.1295 -0.3639
 1452W        W 5503   2.795   5.072   0.197 -0.0056  0.1293  0.1213
 1453W        W 5504   8.990   8.128   9.528 -0.1245  0.1588 -0.0194
 1454W        W 5505   5.671   5.402   2.137 -0.2793 -0.0182 -0.4087
 1455W        W 5506   6.828   6.647   2.870 -0.1664  0.1370 -0.0277
 1456W        W 5507   2.227   3.708   4.164  0.2222 -0.2387  0.4070
 1457W        W 5508   5.602  10.187   3.021  0.0800 -0.1018 -0.1329
 1458W        W 5509   3.953   3.174   3.202 -0.1602  0.2913  0.2375
 1459W        W 5510   1.558   9.826  11.273 -0.0568 -0.2038  0.1366
 1460W        W 5511   0.154   9.777   9.975 -0.0220  0.1302  0.1271
 1461W        W 5512   7.311   9.104  10.692  0.1111 -0.3889 -0.0186
 1462W        W 5513   2.827   2.492   1.642 -0.2100  0.0927 -0.0902
 1463W        W 5514   3.831   1.416   1.895  0.0236 -0.0076  0.1397
 1464W        W 5515   9.015   7.008   1.602  0.1975 -0.0217  0.1266
 1465W        W 5516   6.205   6.672   0.400  0.0428 -0.1224 -0.1175
 1466W        W 5517   8.854   3.845  12.645  0.1199  0.1941  0.0234
 1467W        W 5518   0.512   7.853   0.741  0.3342 -0.2889  0.2452
 1468W        W 5519   5.667   9.942  11.328  0.1349 -0.1473 -0.0113
 1469W        W 5520   7.977   4.471  10.459 -0.1063  0.0962 -0.0304
 1470W        W 5521   5.623   1.643   1.641 -0.1839 -0.3690  0.0345
 1471W        W 5522   4.425   4.406   0.734 -0.2211 -0.5240 -0.2435
 1472W        W 5523   2.616   6.981  11.419  0.0004 -0.1488  0.0382
 1473W        W 5524   2.702   0.493  11.223 -0.0590 -0.1229 -0.2038
 1474W        W 5525  10.066   1.013   2.726 -0.4398 -0.0503  0.0034
 1475W        W 5526  10.159   1.945  13.872  0.4223 -0.2126 -0.1233
 1476W        W 5527   1.143   3.260   1.962  0.1156 -0.1668 -0.0378
 1477W        W 5528   2.160   9.519  11.660 -0.3113 -0.4463 -0.5056
 1478W        W 5529   9.703   7.266  11.988  0.0547 -0.1811  0.0566
 1479W        W 5530   2.100   1.604   2.326  0.2933 -0.3977 -0.1383
 1480W        W 5531   9.131   4.969   0.548  0.0200  0.3401  0.0328
 1481W        W 5532   5.058   9.662  10.844  0.0371 -0.2562  0.1899
 1482W        W 5533   7.452   0.222  12.538  0.0375  0.2127 -0.0996
 1483W        W 5534   8.244   0.056   3.761  0.2336 -0.0391  0.0205
 1484W        W 5535   6.253   2.524   1.122 -0.1662 -0.1486 -0.2447
 1485W        W 5536   4.880   2.109   2.747  0.0233 -0.0870  0.0408
 1486W        W 5537   5.948   8.742  13.103  0.0137 -0.1403 -0.2187
 1487W        W 5538   4.292   2.419   1.074  0.0447  0.2049  0.0045
 1488W        W 5539   1.999   7.588  10.614 -0.0765  0.0749 -0.0603
 1489W        W 5540   4.042   5.518   1.843  0.1051  0.2859  0.0890
 1490W        W 5541   7.780   2.684   9.528  0.1261 -0.3217  0.1839
 1491W        W 5542   7.959   2.389   1.080 -0.3168 -0.2078  0.2875
 1492W        W 5543   0.441   3.056   1.555  0.0393 -0.0142 -0.1816
 1493W        W 5544   0.238   0.078   9.351 -0.2311 -0.0142  0.0638
 1494W        W 5545   3.698   1.161  10.162  0.2102 -0.2625 -0.2237
 1495W        W 5546   6.721   5.876  11.991  0.3951 -0.2031 -0.1840
 1496W        W 5547   1.218   0.314  12.015 -0.1906 -0.2145 -0.1743
 1497W        W 5548   2.703   1.544  10.556  0.2716  0.3713 -0.0963
 1498W        W 5549   3.806   9.847   1.120  0.0417 -0.0494  0.0854
 1499W        W 5550   8.873   0.888  12.791 -0.4068  0.2738  0.6165
 1500W        W 5551   5.543   2.871   2.627  0.1206 -0.1595  0.0801
 1501W        W 5552   8.268   5.007   0.760 -0.1208  0.1321 -0.0418
 1502W        W 5553   3.065   0.429   2.662 -0.0830  0.1417  0.2713
 1503W        W 5554   7.199   8.031   0.606 -0.0574  0.0508  0.2122
 1504W        W 5555   3.822   0.951   9.290  0.2503 -0.0708  0.0129
 1505W        W 5556   9.389   4.420  10.493 -0.0635 -0.2179  0.0292
 1506W        W 5557   7.135   6.126  12.879 -0.2693  0.1664 -0.1140
 1507W        W 5558   2.012   3.551  11.953  0.2693 -0.2811  0.2116
 1508W        W 5559   0.999   6.872   3.141  0.0984  0.1890  0.3172
 1509W        W 5560   6.418   4.572   4.939 -0.1976 -0.0666  0.5013
 1510W        W 5561   5.887  10.067   3.660 -0.1990 -0.0571 -0.0125
 1511W        W 5562   0.735   5.684  10.216  0.0105 -0.1547 -0.0315
 1512W        W 5563   9.881   5.034   1.275  0.0114 -0.1114  0.1578
 1513W        W 5564   8.052   8.445   3.247 -0.2953 -0.0331 -0.0016
 1514W        W 5565   1.824   0.492  10.982  0.0833  0.0070 -0.3639
 1515W        W 5566   4.225   5.992   2.922  0.0149  0.1145  0.0632
 1516W        W 5567   7.917   9.040   9.797 -0.0677  0.1154 -0.0059
 1517W        W 5568   2.270   5.829   2.013  0.1671 -0.0581 -0.1669
 1518W        W 5569   1.621   1.292  13.304  0.5553 -0.0635 -0.0785
 1519W        W 5570   4.480   0.728  10.134  0.3795  0.3600  0.0801
 1520W        W 5571   1.683   3.542   0.596 -0.3949 -0.0416 -0.4099
 1521W        W 5572   0.208   9.568   0.315  0.1720  0.3277  0.3529
 1522W        W 5573   6.835   6.918   2.458 -0.0914  0.2231 -0.0686
 1523W        W 5574   6.926   8.238   0.941 -0.2792  0.2152 -0.1714
 1524W        W 5575   4.876   9.856  11.395 -0.1214 -0.1381 -0.1604
 1525W        W 5576   9.827   1.701  12.228  0.3364  0.1119 -0.1433
 1526W        W 5577   0.021   8.698   0.477  0.1975  0.1956 -0.4853
 1527W        W 5578   1.219   9.416  11.274  0.1130  0.0116 -0.1071
 1528W        W 5579   1.978   1.426  12.691  0.0879  0.1640  0.0470
 1529W        W 5580   4.755   2.690  12.893 -0.0298  0.2747  0.1829
 1530W        W 5581   6.849   3.218  12.130 -0.4367 -0.2419 -0.4868
 1531W        W 5582   2.473   0.970   0.174 -0.0020 -0.0477 -0.1402
 1532W        W 5583   8.816  10.126  11.713 -0.0057  0.0093  0.1160
 1533W        W 5584   6.854   1.248  13.560 -0.1665 -0.2330  0.1566
 1534W        W 5585   3.774   8.959  10.071 -0.4527  0.2150 -0.1061
 1535W        W 5586   7.675   0.488   4.353 -0.0314  0.0089  0.1037
 1536W        W 5587   8.417   0.635   2.292 -0.1725 -0.3517  0.0875
 1537W        W 5588   0.620   8.913  13.424  0.3390 -0.1396 -0.2562
 1538W        W 5589   8.073   8.789   1.358  0.3913  0.1132  0.1876
 1539W        W 5590   2.714   6.119  11.527  0.0252 -0.1013  0.1880
 1540W        W 5591   2.253   6.941   0.320  0.2824 -0.2936 -0.0576
 1541W        W 5592   9.065   7.106   0.964 -0.0163 -0.4740 -0.1626
 1542W        W 5593   7.553   5.787   2.446  0.3271  0.2611 -0.2807
 1543W        W 5594   2.639   9.403   0.594 -0.3354  0.1966  0.0526
 1544W        W 5595   6.921   7.754   9.336  0.0295  0.3873  0.2401
 1545W        W 5596   8.065   3.741   4.231 -0.1788  0.2683  0.2818
 1546W        W 5597   5.723   1.793   2.747  0.2816 -0.0420 -0.3813
 1547W        W 5598   5.285   8.047   1.064 -0.0207 -0.0271 -0.1916
 1548W        W 5599   1.924   1.025  10.997  0.0136 -0.1545 -0.0362
 1549W        W 5600   4.815   5.541  12.343 -0.0003  0.0842  0.1325
 1550W        W 5601   5.911   2.258   4.851 -0.3425 -0.1337 -0.1724
 1551W        W 5602   9.149   3.890   1.096 -0.0434  0.3379 -0.1132
 1552W        W 5603   5.616   5.952   4.008 -0.0576  0.0853  0.1193
 1553W        W 5604   5.155   3.406  12.329 -0.1394 -0.1517  0.0281
 1554W        W 5605   4.349   2.010   4.585  0.1014  0.0018 -0.0923
 1555W        W 5606   3.276   2.859   2.552 -0.1079 -0.3099 -0.4813
 1556W        W 5607   6.472  10.044   9.672 -0.0825 -0.3699  0.2307
 1557W        W 5608   9.728   9.552  12.836  0.0783 -0.0637  0.2007
 1558W        W 5609   0.040   4.931   2.013 -0.0020  0.2781 -0.3210
 1559W        W 5610   1.318   6.013   2.841 -0.2569 -0.1458  0.3048
 1560W        W 5611   2.703   5.721  13.695 -0.0337  0.0001  0.2665
 1561W        W 5612   8.449   4.863   4.646 -0.0788  0.1160  0.3334
 1562W        W 5613   5.700   0.795   2.000 -0.3909  0.0417  0.1743
 1563W        W 5614   5.969   6.461   3.339 -0.2448  0.2217 -0.1704
 1564W        W 5615   4.799   1.520   1.770  0.0524 -0.2411  0.0339
 1565W        W 5616   4.987   4.935   0.205  0.1656 -0.0343  0.0470
 1566W        W 5617   5.945   9.136   2.421  0.0811 -0.0107 -0.1003
 1567W        W 5618   5.666   7.018   9.700 -0.0886  0.0082 -0.0343
 1568W        W 5619   7.450   7.820   2.275  0.1525  0.0086 -0.5994
 1569W        W 5620   3.535   5.708  12.012 -0.1630 -0.0326 -0.1439
 1570W        W 5621   1.997   9.372  13.126 -0.2193  0.0905  0.1271
 1571W        W 5622   0.374   5.042   2.837 -0.0158 -0.3201  0.1816
 1572W        W 5623   0.151   9.040  13.377  0.1709  0.2552  0.0396
 1573W        W 5624   1.774   6.896  10.329 -0.1630  0.0659 -0.3017
 1574W        W 5625   5.217   8.449   3.092  0.0989 -0.3428  0.2001
 1575W        W 5626   5.451   0.543  11.841  0.0080  0.0016  0.0716
 1576W        W 5627   2.936   2.475  11.347  0.2171 -0.2844 -0.3642
 1577W        W 5628   9.807   0.274   4.402 -0.0719 -0.1723  0.1095
 1578W        W 5629   6.589   1.343  10.397  0.0661 -0.2659  0.1523
 1579W        W 5630   9.292   2.989   3.676  0.0582 -0.3912  0.2145
 1580W        W 5631   9.122   4.352  13.682  0.2572 -0.1283  0.4793
 1581W        W 5632   9.340   7.268   2.617  0.1736 -0.3480  0.1670
 1582W        W 5633   5.058   0.823   4.173  0.3327  0.2301  0.0524
 1583W        W 5634   1.220   2.432   2.117 -0.2392 -0.0601 -0.2355
 1584W        W 5635   9.239   7.497  12.792 -0.2164 -0.4780 -0.1143
 1585W        W 5636   0.583   2.909   2.585  0.3214  0.0862  0.1169
 1586W        W 5637   4.221   8.178  10.519 -0.4008  0.1415  0.1712
 1587W        W 5638   2.570   9.462   1.949  0.0764 -0.0375  0.2251
 1588W        W 5639   3.784   8.707   3.157 -0.1597  0.0943 -0.0619
 1589W        W 5640   8.449   9.368   2.695  0.0618 -0.2032  0.0928
 1590W        W 5641   3.632   0.054  13.710  0.0938  0.1736 -0.0684
 1591W        W 5642   5.936   1.657  10.793 -0.0007  0.0623 -0.2071
 1592W        W 5643   5.192   5.208  13.252 -0.0217  0.1402 -0.0521
 1593W        W 5644   0.300   0.881   2.552  0.2138 -0.3207  0.0872
 1594W        W 5645   7.796   8.391  13.510 -0.0795 -0.4612 -0.2262
 1595W        W 5646   9.391   6.195   0.099 -0.0067  0.0589  0.1922
 1596W        W 5647   0.926   3.951   9.583  0.0457  0.1349 -0.0025
 1597W        W 5648   6.966   6.278   8.745 -0.1407 -0.0005 -0.1289
 1598W        W 5649   7.317   0.529   9.985  0.3704  0.1996 -0.0533
 1599W        W 5650   5.513   3.201  10.073  0.1337 -0.3163 -0.0982
 1600W        W 5651   9.152   3.765  13.438  0.3072 -0.1365 -0.1381
 1601W        W 5652   7.521   0.728   5.289 -0.1995 -0.3168 -0.2010
 1602W        W 5653   7.045   2.238   2.032 -0.1211  0.2454 -0.1973
 1603W        W 5654   9.541   5.409  10.739 -0.0152  0.3928  0.1507
 1604W        W 5655   2.618   5.999   3.418  0.0265  0.2657 -0.1567
 1605W        W 5656   9.217   3.917   3.761  0.0019 -0.0545 -0.0080
 1606W        W 5657   6.102   4.880   0.467 -0.1355 -0.2579  0.1722
 1607W        W 5658   3.648   9.779   9.265 -0.2186  0.2343  0.0359
 1608W        W 5659   0.736   8.796   3.398 -0.1056 -0.2778 -0.1841
 1609W        W 5660   2.443   3.995  13.085 -0.2364 -0.2612  0.2882
 1610W        W 5661   6.377   6.359  11.822  0.1585 -0.0569  0.0498
 1611W        W 5662   3.306   9.674  12.897  0.1617 -0.2926  0.0154
 1612W        W 5663   1.694   2.148  12.933  0.1567 -0.1300  0.0959
 1613W        W 5664   2.171   3.062   0.280  0.1319 -0.1060  0.5814
 1614W        W 5665   0.224   0.222   3.948 -0.2140 -0.0028 -0.0713
 1615W        W 5666   1.798   1.696  13.119 -0.2028 -0.0071 -0.1865
 1616W        W 5667   6.889   4.878  10.848  0.2159  0.1209 -0.0243
 1617W        W 5668   0.670   0.986   2.894  0.0788 -0.1965 -0.0057
 1618W        W 5669  10.108   4.917   9.707  0.1381 -0.0282  0.3181
 1619W        W 5670   5.336   7.314  10.843  0.1708  0.3523  0.3133
 1620W        W 5671   9.965   2.980   1.262 -0.0300 -0.0971 -0.2498
 1621W        W 5672   7.775   2.279   9.891 -0.0821  0.1892 -0.0161
 1622W        W 5673   7.184   8.112   4.712  0.1976  0.2186  0.3538
 1623W        W 5674   2.684   5.100  12.860 -0.2638 -0.1417 -0.1756
 1624W        W 5675   0.315   7.848   0.300  0.0895  0.0320 -0.0434
 1625W        W 5676   2.203   4.234   1.201  0.1277  0.2984  0.1971
 1626W        W 5677   6.080   0.927   3.633  0.1799 -0.1366  0.1121
 1627W        W 5678   7.466   3.795   8.860 -0.2407  0.0082 -0.2246
 1628W        W 5679   0.959   4.763   0.408 -0.2084  0.0172  0.0857
 1629W        W 5680   9.461   2.787   1.296 -0.3622  0.0856 -0.0210
 1630W        W 5681   9.979   0.684  13.464  0.0567 -0.1220 -0.1688
 1631W        W 5682   7.690   8.152   0.713  0.1378  0.0362 -0.3136
 1632W        W 5683   9.985   8.965  13.686 -0.0731 -0.2414  0.0518
 1633W        W 5684   8.203   2.683   9.195  0.0438  0.2498 -0.0246
 1634W        W 5685   1.278   0.949   3.355 -0.2957  0.0301 -0.0690
 1635W        W 5686   1.246   7.036   3.575 -0.0197  0.0040 -0.0626
 1636W        W 5687  10.014  10.102   9.522 -0.2171  0.1768 -0.1892
 1637W        W 5688   3.456   0.430  11.828 -0.3330 -0.0838 -0.3027
 1638W        W 5689   0.241   3.514   0.796 -0.0233  0.2555  0.3432
 1639W        W 5690   9.347   8.458  10.752 -0.0449  0.1807  0.0102
 1640W        W 5691   4.013   2.651   4.477  0.0659 -0.3101 -0.0879
 1641W        W 5692   7.240   6.850   3.236 -0.2338  0.1834 -0.0697
 1642W        W 5693   9.858   9.094  12.947  0.0570  0.2353 -0.0404
 1643W        W 5694  10.166   2.242   2.477 -0.0048 -0.3299 -0.1001
 1644W        W 5695   1.992   3.760   1.036  0.1801  0.0389  0.0742
 1645W        W 5696   0.780   7.783  11.331  0.2098 -0.1667 -0.0411
 1646W        W 5697   7.314   4.670   3.277  0.0538 -0.1990 -0.1166
 1647W        W 5698   1.124   0.137  10.698  0.2755  0.0147  0.1427
 1648W        W 5699   4.669   4.250  11.453 -0.1388  0.1619  0.0676
 1649W        W 5700   5.541   8.277   1.606  0.1275  0.1268  0.0890
 1650W        W 5701   8.112   8.292   4.975 -0.1815 -0.2790  0.3906
 1651W        W 5702   7.058   5.393  13.513 -0.3130 -0.1838  0.0004
 1652W        W 5703   9.088   7.315  10.527 -0.0560  0.0032  0.2931
 1653W        W 5704   8.938   0.577  10.211 -0.0864  0.0179  0.1298
 1654W        W 5705   4.212   9.916   2.580  0.1759  0.4535  0.4774
 1655W        W 5706   8.894   4.343   4.404 -0.3243  0.0403  0.2453
 1656W        W 5707   9.997   7.264   3.714 -0.0317  0.3710  0.0739
 1657W        W 5708   6.510   2.150  13.200 -0.1888 -0.2392 -0.0333
 1658W        W 5709   3.927   9.152   1.190  0.1531  0.1385 -0.1269
 1659W        W 5710   9.194   0.735  10.755 -0.0357 -0.0763 -0.0851
 1660W        W 5711   0.396   2.397   2.726  0.1162 -0.0834  0.1448
 1661W        W 5712   0.869   3.073   0.623  0.1375  0.3046  0.2752
 1662W        W 5713   9.873   7.840   0.973 -0.2342  0.1097  0.3936
 1663W        W 5714   5.252   4.998   5.086  0.0140  0.1712  0.2002
 1664W        W 5715   0.123   0.326  12.952  0.0225 -0.2839 -0.1176
 1665W        W 5716   5.732   2.446   1.169 -0.2608  0.1848 -0.3944
 1666W        W 5717   3.150   1.083  11.313 -0.3366 -0.2414 -0.2563
 1667W        W 5718   9.911   2.201  10.686  0.1551  0.0353  0.0074
 1668W        W 5719   1.299   3.612  12.721  0.0928  0.0356 -0.3481
 1669W        W 5720   6.694   9.817   4.186  0.3297  0.3255 -0.0920
 1670W        W 5721   7.248   0.045  13.717  0.0761 -0.0981 -0.4242
 1671W        W 5722   6.207   2.680   9.373  0.3757 -0.0075  0.1016
 1672W        W 5723   6.236   7.016  12.911 -0.0043  0.0169  0.1831
 1673W        W 5724   8.146   5.629   2.938 -0.1683  0.1693  0.0882
 1674W        W 5725   1.031   8.182   2.754 -0.0476 -0.1738  0.0180
 1675W        W 5726   6.898   2.288   9.346  0.0552 -0.2940  0.2068
 1676W        W 5727   6.478   4.394   4.345  0.1773 -0.0985  0.1442
 1677W        W 5728   8.761   2.500  10.959 -0.2993 -0.0929  0.5089
 1678W        W 5729   5.147   3.634   9.866 -0.0293  0.2103  0.0941
 1679W        W 5730   3.634   6.889   0.027  0.0358 -0.0718 -0.0381
 1680W        W 5731   4.472   4.198   2.178 -0.0020  0.2235 -0.2945
 1681W        W 5732   5.009   7.096   1.945  0.1105  0.0071  0.0001
 1682W        W 5733   7.078   1.256   0.110  0.0858  0.2386  0.0709
 1683W        W 5734   0.836   7.804  10.828 -0.0161  0.0266  0.0620
 1684W        W 5735   8.136   8.210   0.307 -0.0522  0.0683 -0.2483
 1685W        W 5736   7.095   2.777   2.092 -0.0547  0.1239 -0.0845
 1686W        W 5737   5.351   0.517  10.103  0.0125 -0.3248 -0.0374
 1687W        W 5738   7.391   5.393   4.691 -0.0487 -0.1394 -0.2462
 1688W        W 5739   0.332   2.041   9.534 -0.0615  0.1750 -0.1711
 1689W        W 5740  10.113   8.866   2.978 -0.0591 -0.0685 -0.1408
 1690W        W 5741   2.298   7.142   3.497  0.2022  0.0783  0.1861
 1691W        W 5742   1.599   6.380   1.892  0.1012 -0.1825 -0.0408
 1692W        W 5743   4.155   1.699  13.606  0.0586  0.0620 -0.0245
 1693W        W 5744   1.361   5.718   1.812  0.2584  0.0032 -0.0377
 1694W        W 5745   6.814   5.052   3.988 -0.2987  0.0027  0.1315
 1695W        W 5746   4.626   4.246   2.712 -0.2183 -0.1585 -0.1705
 1696W        W 5747   3.664   4.565   4.819  0.1608 -0.0676  0.0683
 1697W        W 5748   9.720   6.573  11.329  0.0159 -0.3734  0.1785
 1698W        W 5749   8.723   1.089  11.539  0.1797 -0.0313  0.2982
 1699W        W 5750   6.389   8.650  12.434  0.0762  0.0001  0.0491
 1700W        W 5751   5.109   9.130   4.841  0.3560  0.2397 -0.3275
 1701W        W 5752   6.434   7.458  13.269 -0.1556  0.4517  0.1757
 1702W        W 5753   3.832   5.492   3.752 -0.0017  0.0716  0.0384
 1703W        W 5754   5.708   7.587   0.375 -0.0073  0.1383  0.2428
 1704W        W 5755   4.870   8.671  13.504  0.1932 -0.0604 -0.0442
 1705W        W 5756   1.228   4.560  13.097  0.5080  0.0437 -0.0680
 1706W        W 5757   8.713   8.591  13.656 -0.1897 -0.1061 -0.1231
 1707W        W 5758   9.263   8.647   1.862  0.1573 -0.2673  0.0759
 1708W        W 5759   0.284   9.307   4.245  0.1412  0.0833 -0.0025
 1709W        W 5760   0.091   7.630   0.796  0.2672  0.0088  0.1495
 1710W        W 5761   1.729   9.322  11.836 -0.0554  0.4249 -0.1678
 1711W        W 5762   4.938   5.481  13.655 -0.0870  0.3658  0.5010
 1712W        W 5763   8.316   2.072  12.396  0.0909  0.3199  0.0817
 1713W        W 5764   9.153   5.844   1.067 -0.0506  0.0406  0.0312
 1714W        W 5765   9.238   0.750   3.742  0.0166  0.0854  0.1510
 1715W        W 5766   9.738   5.369  12.128  0.1713  0.1833  0.1947
 1716W        W 5767   3.461   3.703   4.874  0.0077  0.1156  0.3212
 1717W        W 5768   4.907   8.329  11.168  0.3269  0.0324 -0.0486
 1718W        W 5769   1.153   0.101  12.930  0.0771 -0.0667  0.1854
 1719W        W 5770   9.746   7.735  10.202 -0.1175  0.0649 -0.1473
 1720W        W 5771   3.036  10.010  10.546  0.0738  0.0310  0.2857
 1721W        W 5772   2.843   5.930  11.021  0.2897 -0.1100  0.2990
 1722W        W 5773   1.073   0.167   3.416  0.0894  0.1143 -0.0206
 1723W        W 5774   1.437   3.943   3.105  0.0573 -0.0846 -0.1830
 1724W        W 5775   9.666   1.124   9.924 -0.1616  0.0966 -0.0599
 1725W        W 5776   7.188   7.771  11.070 -0.3109  0.1844 -0.0933
 1726W        W 5777   3.667   3.788  12.395 -0.1046 -0.0250 -0.0033
 1727W        W 5778   2.607   0.556   3.295 -0.0099 -0.0390  0.0175
 1728W        W 5779   0.036   1.827  12.534  0.0797  0.2720 -0.0638
 1729W        W 5780   6.940   8.118  11.531 -0.2409  0.0115  0.0912
 1730W        W 5781   0.517   9.674   4.482  0.1454 -0.0193 -0.1335
 1731W        W 5782   3.495   0.001   0.634  0.2525  0.1855 -0.1649
 1732W        W 5783   2.919   6.213   1.318 -0.0343  0.0106  0.0680
 1733W        W 5784   6.160   9.315   0.951  0.0057 -0.0261 -0.0148
 1734W        W 5785   1.262   9.940  13.381  0.0205  0.0324  0.0512
 1735W        W 5786   5.130  10.017  10.417 -0.0232  0.0445  0.2644
 1736W        W 5787   7.623   1.744   4.882 -0.0752  0.2363  0.0045
 1737W        W 5788   0.278   5.516   0.559 -0.0625  0.3133 -0.1912
 1738W        W 5789   2.221   6.618   2.538 -0.2408 -0.0348  0.0660
 1739W        W 5790   5.169   0.318  10.532 -0.2352 -0.1843 -0.0912
 1740W        W 5791   6.671   7.668   8.804  0.0827 -0.2016 -0.2497
 1741W        W 5792   5.379   5.490  11.542 -0.0394  0.0221  0.1087
 1742W        W 5793   4.764   9.946   0.986  0.2486  0.1428 -0.0091
 1743W        W 5794  10.161   2.774   0.205 -0.0371 -0.2654 -0.1679
 1744W        W 5795   2.901   0.050   9.319  0.1069  0.1657  0.0243
 1745W        W 5796   1.693   2.343   1.869 -0.0644  0.2954 -0.0341
 1746W        W 5797   7.983   3.428  11.684 -0.2061 -0.0548  0.0993
 1747W        W 5798   8.058   9.843   9.996  0.1218  0.2893  0.1063
 1748W        W 5799   5.881   5.855   1.948  0.3966  0.0193  0.1070
 1749W        W 5800   6.036   8.222   4.986 -0.1016 -0.0373  0.0375
 1750W        W 5801   4.399   6.479  11.462  0.1539 -0.0149  0.2289
 1751W        W 5802   1.732   7.181   2.454  0.0967 -0.2210  0.3447
 1752W        W 5803   4.078   0.263  12.718  0.0242 -0.1590  0.2434
 1753W        W 5804   6.903   7.039   5.153 -0.1548  0.0377 -0.1377
 1754W        W 5805   9.567   9.856   9.502  0.1325  0.0457 -0.1351
 1755W        W 5806   1.117   8.220   9.956  0.1598 -0.2091 -0.1526
 1756W        W 5807   6.038   3.285  13.505 -0.1191 -0.0923  0.1358
 1757W        W 5808   2.543   8.542  13.381 -0.0762  0.0072 -0.0648
 1758W        W 5809   8.685   2.422  11.561  0.0250 -0.1509  0.2217
 1759W        W 5810   3.385   7.776   4.837 -0.0635 -0.3078 -0.1875
 1760W        W 5811   2.625   1.888  12.759 -0.1505  0.0940 -0.3018
 1761W        W 5812   6.923   2.030   0.368  0.3569 -0.0906  0.1514
 1762W        W 5813   1.393   4.553   1.384 -0.0093  0.0072  0.6120
 1763W        W 5814   6.108   3.545   0.960 -0.0429  0.0619  0.2105
 1764W        W 5815   7.823   1.012  13.717 -0.1309 -0.1772  0.1920
 1765W        W 5816   9.847   9.811  10.262  0.0706 -0.1145 -0.4343
 1766W        W 5817   0.127   2.134   3.808  0.0277 -0.1421 -0.3153
 1767W        W 5818   8.109   2.616   0.671  0.1396 -0.0482 -0.0565
 1768W        W 5819   1.378   1.558  11.073 -0.2295  0.1712  0.0079
 1769W        W 5820   7.664   8.316   2.201  0.3714  0.2049 -0.0926
 1770W        W 5821   7.572   4.920   9.645  0.0749 -0.1615 -0.1042
 1771W        W 5822   0.268   3.549   1.277 -0.0204  0.2709 -0.1352
 1772W        W 5823   9.785   8.965   1.984  0.3392 -0.0036 -0.2128
 1773W        W 5824   7.129   0.330   4.374  0.1441  0.1258 -0.1059
 1774W        W 5825   5.888   8.666   2.764  0.0583  0.2762  0.0546
 1775W        W 5826   5.305   7.106  12.556 -0.2067  0.1225  0.1157
 1776W        W 5827   0.999   4.090   1.999 -0.0452 -0.2779 -0.3797
 1777W        W 5828   6.568   0.361  10.855 -0.3458 -0.0899  0.0130
 1778W        W 5829   5.995   1.507   3.593  0.2219 -0.1970 -0.1154
 1779W        W 5830   4.447   7.715   5.288 -0.0509  0.1226  0.0068
 1780W        W 5831   5.857   8.608   8.870  0.2747  0.0261  0.0083
 1781W        W 5832   5.239   0.014  11.379 -0.2775  0.3062  0.3393
 1782W        W 5833   0.501   0.829   3.360 -0.1139 -0.2561 -0.0412
 1783W        W 5834   5.284   7.528  13.848  0.2335  0.2377  0.0275
 1784W        W 5835   8.765   7.687   0.071 -0.0992  0.1298  0.1335
 1785W        W 5836   5.908   2.950  11.718 -0.1488  0.0119 -0.2930
 1786W        W 5837   8.003   0.315  10.524  0.1642 -0.0754  0.0388
 1787W        W 5838   7.771   9.510   9.703 -0.0053 -0.3534  0.3404
 1788W        W 5839   5.010   0.628   9.686  0.2724  0.2934 -0.1415
 1789W        W 5840   2.360   9.792   3.151  0.0449  0.0250 -0.2392
 1790W        W 5841   7.680   7.825  10.199  0.0387  0.2155  0.1317
 1791W        W 5842   4.900   2.014  11.059 -0.1690 -0.0471 -0.0586
 1792W        W 5843   4.887   7.982  13.658 -0.0034  0.0909 -0.0298
 1793W        W 5844   7.309   0.388  13.284 -0.2694  0.4363  0.0294
 1794W        W 5845   3.448   9.784  13.764  0.0480 -0.1696 -0.1181
 1795W        W 5846   1.915  10.192  11.860  0.2476  0.0622 -0.0411
 1796W        W 5847   7.757   2.555   8.999  0.1294 -0.2399  0.0564
 1797W        W 5848   3.951   4.963   0.035 -0.1245 -0.0076  0.0205
 1798W        W 5849   6.807   0.985   4.086  0.2221  0.1307 -0.1942
 1799W        W 5850   0.243   1.361  11.375 -0.0878 -0.1014 -0.3188
 1800W        W 5851   6.582   5.092  10.050 -0.1468  0.4132 -0.0416
 1801W        W 5852   7.490   6.928   0.304 -0.0694 -0.0534  0.2731
 1802W        W 5853   0.518   6.515   3.008 -0.1593  0.1299  0.0656
 1803W        W 5854   9.770   7.392  13.471  0.1772  0.0417 -0.2293
 1804W        W 5855   6.315   6.706  13.843 -0.3425 -0.0766  0.0998
 1805W        W 5856   3.497   8.937   3.859 -0.0913  0.1245 -0.2645
 1806W        W 5857   6.696   2.741  12.882  0.0706 -0.0786 -0.0415
 1807W        W 5858   3.516   5.355   1.242  0.0841  0.1331 -0.3197
 1808W        W 5859   0.759   2.003   2.762  0.0483 -0.1581 -0.2401
 1809W        W 5860   7.125   3.297   1.909 -0.2033  0.1632  0.1970
 1810W        W 5861   6.123   1.818  13.400  0.2985 -0.0359 -0.2295
 1811W        W 5862   3.832   3.235  13.522  0.0075 -0.2471 -0.0202
 1812W        W 5863   8.616   9.479  13.791 -0.3385 -0.0921  0.3546
 1813W        W 5864   4.194   1.162  10.041  0.2844  0.0552 -0.2154
 1814W        W 5865   6.367   4.026   3.987 -0.2895 -0.0169  0.3430
 1815W        W 5866   0.774   5.824   2.101 -0.1474  0.1730 -0.0148
 1816W        W 5867   9.853   4.565   2.726 -0.0640  0.0699  0.2865
 1817W        W 5868   1.450   0.400   4.555 -0.1481 -0.0481  0.1588
 1818W        W 5869   1.388   9.274  10.824  0.0776 -0.0248  0.2272
 1819W        W 5870   2.649   9.877  12.792 -0.3305 -0.1269  0.1331
 1820W        W 5871   6.134   9.532   1.428  0.3061 -0.1520 -0.0462
 1821W        W 5872   3.908   8.462  11.566  0.2996 -0.0061  0.0850
 1822W        W 5873   7.902   4.344  12.412  0.1406 -0.0300  0.0755
 1823W        W 5874   0.101   6.795   1.506  0.0113  0.1384 -0.0040
 1824W        W 5875   6.227   4.574  11.360  0.1255  0.1545 -0.1995
 1825W        W 5876   6.062   5.619   2.428  0.0128 -0.3852  0.2370
 1826W        W 5877   1.628   8.448  11.019  0.0398 -0.0080 -0.0474
 1827W        W 5878   6.215   9.819   0.813 -0.2507  0.0616  0.0460
 1828W        W 5879   8.528   4.486   9.915 -0.3165 -0.1501  0.0818
 1829W        W 5880   3.898   2.055   3.055  0.0132 -0.1709  0.0995
 1830W        W 5881   7.165   7.414   2.201 -0.2452  0.2038  0.1294
 1831W        W 5882   6.612  10.061  12.612  0.3447 -0.2196  0.1278
 1832W        W 5883   9.704   7.047  11.109 -0.3470 -0.0940 -0.0604
 1833W        W 5884   7.936   6.994   9.855  0.0428  0.0877  0.1849
 1834W        W 5885   5.523  10.192  12.104  0.0670 -0.2310  0.1245
 1835W        W 5886   1.042   2.172   3.283  0.1068  0.1700  0.1260
 1836W        W 5887   1.061   2.467   2.600  0.1432 -0.0751  0.1275
 1837W        W 5888   5.493   2.186   0.537 -0.0494 -0.0349  0.1890
 1838W        W 5889   7.381   8.594   2.861  0.1034 -0.0020  0.2036
 1839W        W 5890   0.032   8.271   9.384 -0.0496  0.4995  0.1608
 1840W        W 5891   8.907   5.185   4.412 -0.0419  0.1783 -0.1409
 1841W        W 5892  10.136   1.003   0.949 -0.3137  0.0765 -0.2381
 1842W        W 5893   0.422   5.069  12.897  0.1211  0.4533 -0.3085
 1843W        W 5894   4.304   6.986   3.066 -0.0337  0.2625 -0.2153
 1844W        W 5895   3.692   9.892  10.582 -0.1006  0.0034  0.2751
 1845W        W 5896   7.337   8.739   0.132 -0.0234 -0.3346  0.2724
 1846W        W 5897   5.017   8.475  12.319 -0.1462 -0.1252 -0.0347
 1847W        W 5898   4.900   9.385  13.101 -0.0062 -0.1061  0.0339
 1848W        W 5899   4.502   1.864   0.248 -0.0431  0.0046  0.1853
 1849W        W 5900   7.901  10.096   0.306  0.0633  0.0599  0.0643
 1850W        W 5901   6.606   6.446  12.236  0.0547 -0.3950  0.1016
 1851W        W 5902   3.409   1.396   4.189  0.1536 -0.0714 -0.1225
 1852W        W 5903   0.281   7.656   1.299  0.2872 -0.1182  0.1203
 1853W        W 5904   3.944   1.711  10.820 -0.1121 -0.4055 -0.0770
 1854W        W 5905   3.959   3.291  12.740 -0.0100  0.1693 -0.2151
 1855W        W 5906   6.250   4.254  13.650  0.0047  0.1280  0.0143
 1856W        W 5907   3.501   1.484  10.499 -0.3990  0.0738  0.0774
 1857W        W 5908   5.268   3.790   1.799  0.0493 -0.4267  0.1997
 1858W        W 5909   0.853   2.089  13.296  0.2873 -0.3394 -0.3119
 1859W        W 5910   5.838   5.013   0.064 -0.2441 -0.1086  0.0002
 1860W        W 5911   3.800   4.444  10.579  0.1946 -0.0573  0.1029
 1861W        W 5912   6.985   2.362   2.518 -0.0832  0.0270 -0.1876
 1862W        W 5913  10.183   4.909   2.549  0.1083  0.2404  0.6938
 1863W        W 5914   0.020   4.242   3.199  0.0107  0.0169  0.0565
 1864W        W 5915   3.791   7.482  12.988  0.1965 -0.4513 -0.1405
 1865W        W 5916   1.423   0.291   2.035 -0.1388  0.2092  0.0555
 1866W        W 5917   6.436   9.731   2.289  0.3147  0.2971  0.0817
 1867W        W 5918   6.083   3.359   1.528  0.1559  0.3843  0.0963
 1868W        W 5919   5.518   5.188  12.455 -0.0851  0.0479 -0.0165
 1869W        W 5920   7.344   0.700   1.247 -0.3029 -0.0267  0.2182
 1870W        W 5921   9.888   5.813  11.949 -0.2562 -0.0813  0.1466
 1871W        W 5922   5.788   5.837  11.535  0.0848 -0.0678 -0.0598
 1872W        W 5923   1.216   5.613   0.881  0.1930  0.0570  0.0805
 1873W        W 5924   6.109   7.165  10.475  0.1125  0.0657 -0.0000
 1874W        W 5925   2.141   5.237  13.141 -0.0968  0.0743  0.3200
 1875W        W 5926   3.130   4.010   3.847  0.3286  0.2214 -0.0228
 1876W        W 5927   9.455   8.727  12.703  0.1787  0.3434  0.0538
 1877W        W 5928   6.547   2.637   5.213  0.0840  0.2073 -0.0087
 1878W        W 5929  10.021   7.805  10.644 -0.0661 -0.0267 -0.0193
 1879W        W 5930   4.447   8.192  11.026  0.3100 -0.2734 -0.1578
 1880W        W 5931   4.137   1.218   0.944  0.1758  0.2388  0.3099
 1881W        W 5932   6.976   7.230  11.860  0.2141  0.1963  0.0941
 1882W        W 5933  10.052   9.742   2.520  0.0651 -0.1889 -0.0609
 1883W        W 5934   5.335   3.069   2.177 -0.2523  0.1535 -0.2475
 1884W        W 5935   4.260   6.574  10.447 -0.0842  0.2840 -0.1566
 1885W        W 5936   4.633   8.855   2.257 -0.2675 -0.0148 -0.3431
 1886W        W 5937   1.205   0.751   4.935 -0.0752 -0.2495 -0.0925
 1887W        W 5938   4.896   6.185   4.820  0.0899 -0.0951 -0.1267
 1888W        W 5939   1.460   2.100  13.598  0.2964  0.1773  0.1623
 1889W        W 5940   8.067   2.786   5.025  0.1228  0.0934 -0.1435
 1890W        W 5941   7.474   4.014  12.183  0.1136 -0.0017 -0.2880
 1891W        W 5942   5.973   6.984   2.037 -0.1636 -0.1279  0.1593
 1892W        W 5943   3.529   3.779   9.252  0.2426 -0.3643  0.0086
 1893W        W 5944   4.990   8.695   0.533  0.1394  0.0242  0.1532
 1894W        W 5945   3.895   7.312  11.257 -0.2495 -0.3412  0.2232
 1895W        W 5946   7.761   9.093   0.033  0.2971  0.2768  0.0407
 1896W        W 5947   5.412  10.012   5.028 -0.3714 -0.1403 -0.1565
 1897W        W 5948   0.709   4.598   2.699  0.2962 -0.0907 -0.1828
 1898W        W 5949   0.847   6.391  10.799 -0.1583 -0.3900 -0.1105
 1899W        W 5950   5.443   3.622   3.151  0.1128  0.0465  0.3193
 1900W        W 5951   3.540   2.993  10.876  0.1193 -0.1834 -0.0844
 1901W        W 5952   7.552   3.539   1.784 -0.0316  0.1184  0.0074
 1902W        W 5953  10.041   1.851  13.074 -0.0414  0.0967  0.0590
 1903W        W 5954   4.846   3.068   2.267 -0.0705  0.2003  0.1015
 1904W        W 5955   8.745  10.006  11.232 -0.0298  0.2383  0.4374
 1905W        W 5956   6.516   5.476   3.186  0.2489 -0.2213  0.2687
 1906W        W 5957   8.230   8.964   3.344 -0.1229 -0.2167  0.0093
 1907W        W 5958   1.257   0.944  12.842  0.4175 -0.0018  0.0936
 1908W        W 5959   2.416   1.721   0.117 -0.0751  0.2262 -0.1389
 1909W        W 5960   5.634   2.810  10.575  0.2218  0.1050 -0.2808
 1910W        W 5961   5.431   7.050   0.205  0.0569 -0.1908  0.2012
 1911W        W 5962   5.304   9.797  11.676 -0.0049  0.0167  0.1852
 1912W        W 5963   5.487   1.546   9.777 -0.1551  0.2443  0.4620
 1913W        W 5964   9.134   1.444   2.186  0.2105 -0.2381 -0.2416
 1914W        W 5965   9.534   3.028   9.750  0.1361  0.0377  0.0599
 1915W        W 5966   7.882   3.136  12.731  0.1545  0.0205  0.1151
 1916W        W 5967   4.077   9.865   4.625 -0.0413  0.1691 -0.1678
 1917W        W 5968   9.054   8.901   1.312 -0.0938 -0.1143  0.1957
 1918W        W 5969   5.705   2.478  11.440  0.3242 -0.0129 -0.0022
 1919W        W 5970   5.471   4.453  12.694 -0.0617  0.0653 -0.0989
 1920W        W 5971   0.749   0.402  11.160 -0.0069 -0.2956  0.0996
 1921W        W 5972   6.029   4.909   1.712  0.1652  0.2088 -0.0196
 1922W        W 5973   6.360   6.624   3.625 -0.3363  0.3609 -0.0628
 1923W        W 5974   7.119   1.277   1.437  0.1840  0.1927  0.1624
 1924W        W 5975   6.826   9.649  12.746  0.1652 -0.1329 -0.2483
 1925W        W 5976   2.977   2.979   1.134 -0.2857 -0.2494 -0.0954
 1926W        W 5977   0.871   4.932   3.038 -0.0061  0.1636  0.1635
 1927W        W 5978   4.337   4.235  10.043 -0.1806 -0.0544  0.4139
 1928W        W 5979   6.580   8.283  12.806  0.0813 -0.0594  0.0519
 1929W        W 5980   7.296   2.986   3.567  0.1628 -0.3298  0.1365
 1930W        W 5981  10.111   2.267   9.911  0.0201  0.2349  0.2329
 1931W        W 5982   2.635   5.487   3.343 -0.1364 -0.2199 -0.4315
 1932W        W 5983   2.307  10.052  12.453  0.2964 -0.1355  0.1839
 1933W        W 5984   5.782   5.337   1.564  0.1276  0.0418 -0.0209
 1934W        W 5985   4.344   4.411  11.885 -0.0440  0.0793  0.0338
 1935W        W 5986   3.765   4.655   9.313  0.1551  0.3048 -0.2234
 1936W        W 5987   7.170   7.012  10.378 -0.0377 -0.2296 -0.0010
 1937W        W 5988   7.561   1.391   1.789  0.0037 -0.5249 -0.2469
 1938W        W 5989   3.553   4.808  11.164 -0.0181  0.1444  0.1334
 1939W        W 5990   3.844   8.639   2.126  0.0748 -0.0293  0.1105
 1940W        W 5991   7.696   3.460   4.441 -0.2871 -0.0570 -0.2357
 1941W        W 5992   7.365   2.641   4.854 -0.3180 -0.0796  0.0391
 1942W        W 5993   3.411   8.859   9.735  0.0466 -0.2992 -0.0313
 1943W        W 5994   9.053   9.575  10.290  0.0481 -0.0560 -0.4458
 1944W        W 5995   6.965   9.853  11.888  0.0787 -0.1061  0.3427
 1945W        W 5996   8.377   3.698  11.008 -0.0584  0.3078  0.0227
 1946W        W 5997   4.013   7.514  10.788  0.1813 -0.1055  0.1342
 1947W        W 5998   2.287   6.685  13.822  0.1548 -0.4978  0.1705
 1948W        W 5999   7.359   1.485  11.128 -0.1534  0.0096 -0.1280
 1949W        W 6000   6.218   5.957  13.257  0.2023  0.1408 -0.1195
 1950W        W 6001   6.548   9.851  10.170 -0.2938  0.3387  0.2419
 1951W        W 6002   7.569   4.493  12.042  0.1384 -0.0286  0.0948
 1952W        W 6003  10.076   0.033   2.298  0.0140  0.1851 -0.3192
 1953W        W 6004   5.736   8.556  11.095 -0.6710  0.2725 -0.0122
 1954W        W 6005   8.984   8.394  11.571 -0.3578  0.2815 -0.0093
 1955W        W 6006   7.167   8.503   1.953  0.0162  0.2742 -0.4308
 1956W        W 6007   8.454   2.424   2.329 -0.1070 -0.1581  0.0657
 1957W        W 6008   3.947   6.953   1.272  0.0292 -0.4895 -0.0906
 1958W        W 6009   1.110   1.739   9.662 -0.3254  0.2178 -0.0681
 1959W        W 6010   8.090   6.280  10.191  0.0420  0.0452  0.2317
 1960W        W 6011   5.649   0.573  11.407  0.1258 -0.0588  0.1169
 1961W        W 6012   4.867   6.570  11.344  0.0749  0.3585 -0.3867
 1962W        W 6013   4.999   5.924  13.492 -0.2612 -0.2229 -0.3621
 1963W        W 6014   1.043   1.671   0.513 -0.1011  0.2526 -0.1516
 1964W        W 6015   1.493   9.226   9.642 -0.1057 -0.2289 -0.0344
 1965W        W 6016   5.101   7.894  13.111 -0.0212 -0.1687 -0.1676
 1966W        W 6017   1.977   9.320  13.699  0.1718 -0.1386 -0.4980
 1967W        W 6018   2.280   2.085   0.980 -0.0688 -0.2453 -0.2100
 1968W        W 6019   0.948   7.003   0.906 -0.0235 -0.0935 -0.0147
 1969W        W 6020   0.971   1.479  11.663 -0.1428  0.0045  0.0484
 1970W        W 6021   3.949   9.264   9.724  0.1951  0.2367  0.1182
 1971W        W 6022   1.567   4.274  13.831 -0.1424 -0.1711  0.2519
 1972W        W 6023   2.749   5.003  10.480 -0.3461  0.0513 -0.2560
 1973W        W 6024   2.682   0.968  12.477 -0.1525 -0.0500 -0.1662
 1974W        W 6025   8.855   9.369   3.060  0.1168  0.1360  0.1346
 1975W        W 6026   3.758   4.999  12.605 -0.1771 -0.3216  0.0917
 1976W        W 6027   8.359   1.507  13.219 -0.2356 -0.0929  0.4483
 1977W        W 6028   7.902   6.971  11.512  0.0326 -0.0635 -0.0032
 1978W        W 6029   1.879   6.109  10.375 -0.0412  0.3490 -0.3093
 1979W        W 6030   1.454   7.438  10.951 -0.3446  0.1336  0.3739
 1980W        W 6031   5.482   0.479   1.707  0.0100  0.0846 -0.0465
 1981W        W 6032   5.050   3.084   2.715 -0.0487 -0.1427  0.0042
 1982W        W 6033   4.846   0.474   3.869 -0.0439 -0.0290 -0.0120
 1983W        W 6034   4.426   0.269   0.140 -0.3539 -0.0625 -0.1729
 1984W        W 6035   2.777   2.098   9.522 -0.0678  0.1368  0.0459
 1985W        W 6036   1.994   4.662   4.099  0.2882  0.1545 -0.1171
 1986W        W 6037   2.575   0.708   2.235 -0.0241  0.0041  0.4522
 1987W        W 6038   5.926   6.791  10.166  0.0022 -0.0055  0.2805
 1988W        W 6039   6.824   1.576   4.107  0.0908 -0.1140 -0.2267
 1989W        W 6040   3.872   2.674   3.966  0.2457  0.0199  0.0096
 1990W        W 6041   2.277   8.243   4.344  0.1247  0.1083 -0.1700
 1991W        W 6042   5.811   2.019  13.734 -0.2727  0.0437  0.0333
 1992W        W 6043   3.139   1.196  12.420 -0.0328  0.0364  0.0013
 1993W        W 6044   7.018   9.126  11.149 -0.2100 -0.2972  0.1649
 1994W        W 6045   4.953   5.353  12.830  0.1182  0.3110 -0.0821
 1995W        W 6046   6.224   8.810   1.000 -0.4407  0.2117 -0.0054
 1996W        W 6047   2.673   2.156   3.441  0.0059 -0.1571  0.4118
 1997W        W 6048   8.762   7.602  12.691  0.1531  0.4052  0.0376
 1998W        W 6049   3.463   1.131   5.048 -0.1675 -0.1369  0.0848
 1999W        W 6050   9.998   3.894  11.277  0.0819 -0.0784  0.1049
 2000W        W 6051   4.552   8.729   8.637  0.1262  0.2341 -0.1003
 2001W        W 6052   2.107   3.788  10.849 -0.1048 -0.3400  0.1211
 2002W        W 6053   2.380   7.952   4.771  0.2278  0.0990 -0.2287
 2003W        W 6054   1.931   9.038  10.841  0.0151 -0.3604  0.4268
 2004W        W 6055   1.668   8.679  11.916 -0.4784 -0.0013 -0.2220
 2005W        W 6056   0.777   7.488   2.073  0.1029 -0.0548 -0.0991
 2006W        W 6057   4.822   9.549   0.163  0.0169  0.4408  0.0373
 2007W        W 6058   3.483   1.961  10.796  0.1760 -0.1154  0.0630
 2008W        W 6059   6.302   5.608  12.954 -0.0923  0.0410 -0.0499
 2009W        W 6060   1.048   1.244   4.901 -0.0214 -0.3086 -0.1908
 2010W        W 6061   1.156   6.118   9.526 -0.0156 -0.1736 -0.1883
 2011W        W 6062   9.559   2.452  10.314  0.0711  0.1223  0.1933
 2012W        W 6063   6.336   7.010   1.212  0.1295  0.1322  0.0083
 2013W        W 6064   3.081   1.040   4.019  0.0732 -0.0274 -0.1008
 2014W        W 6065   0.140   1.743   3.262  0.1009  0.0022 -0.0232
 2015W        W 6066   4.375   4.841   4.949  0.1951 -0.0726  0.1417
 2016W        W 6067   7.274   8.687   9.330 -0.1370 -0.1156 -0.1134
 2017W        W 6068   6.399   2.018   1.216  0.3290  0.0239  0.1872
 2018W        W 6069   8.535   7.368  11.847 -0.0639 -0.2065 -0.0899
 2019W        W 6070   3.853   1.347   4.517 -0.0694  0.0341  0.1899
 2020W        W 6071   8.758   3.424   2.797  0.1188 -0.0999 -0.0310
 2021W        W 6072   5.418   6.460   4.358  0.3430  0.0220 -0.2979
 2022W        W 6073   2.176   2.663   0.876  0.0216 -0.0154 -0.3117
 2023W        W 6074   5.134   9.583  12.714  0.0906 -0.1765 -0.3210
 2024W        W 6075   7.740   2.330   4.969  0.1499 -0.0753 -0.2330
 2025W        W 6076   3.466   3.396  12.619  0.1029  0.3024  0.0674
 2026W        W 6077   8.809   3.846   4.105 -0.0863  0.4858  0.0210
 2027W        W 6078   1.733   1.669  13.612 -0.1358 -0.2380 -0.1604
 2028W        W 6079   4.423   0.571  12.863  0.0302  0.1487 -0.0629
 2029W        W 6080   8.446   2.024   1.961 -0.0589  0.2898  0.0766
 2030W        W 6081   4.711   1.313  13.438 -0.1717  0.4311 -0.4405
 2031W        W 6082   1.233   3.677   1.730  0.1448 -0.1753  0.0040
 2032W        W 6083   1.572   8.460  12.466  0.2589  0.1118  0.1493
 2033W        W 6084   4.890   0.037  10.962 -0.1898  0.2606  0.2198
 2034W        W 6085   1.382   3.272   2.545 -0.1187  0.2884 -0.3318
 2035W        W 6086   4.452   2.886  13.602  0.1736  0.1175  0.1116
 2036W        W 6087   3.161   3.795  11.334  0.2213  0.2404 -0.1263
 2037W        W 6088   9.726   0.823  12.654  0.0970  0.0726 -0.1041
 2038W        W 6089   6.993   3.027  11.655 -0.1273 -0.1121  0.1996
 2039W        W 6090   7.563   2.662  10.819 -0.0320 -0.1824  0.1513
 2040W        W 6091   3.104   8.165   3.102 -0.0218 -0.1486  0.0175
 2041W        W 6092   6.212   5.031  11.603 -0.1883 -0.0488 -0.0438
 2042W        W 6093   8.424   2.495   3.937  0.0161  0.0122  0.0434
 2043W        W 6094   6.504   2.554   4.377 -0.1255  0.0802  0.1455
 2044W        W 6095  10.067   8.696  12.003 -0.1329  0.2052  0.2195
 2045W        W 6096   3.701   7.873  13.349 -0.0149 -0.1349  0.1286
 2046W        W 6097   9.373   8.569   2.532  0.0294 -0.1405  0.1715
 2047W        W 6098   8.036   1.278   1.424  0.0339  0.0729  0.0497
 2048W        W 6099   5.503   0.954  13.683 -0.0130 -0.2958 -0.1288
 2049W        W 6100   8.842   9.506   1.688 -0.2784  0.0682  0.1761
 2050W        W 6101   1.890   0.558   0.291 -0.1734  0.1972  0.0814
 2051W        W 6102   4.195   2.715   4.903 -0.1613  0.1538 -0.2124
 2052W        W 6103   5.979   3.406  12.577  0.2326  0.0201 -0.2151
 2053W        W 6104   7.485   1.934  11.318 -0.1707  0.3112 -0.2964
 2054W        W 6105   8.828   7.206   3.064  0.2334  0.5096  0.0640
 2055W        W 6106   7.408   5.658  11.169  0.2367 -0.1899  0.2816
 2056W        W 6107   2.920   7.399  12.210 -0.1354  0.1217 -0.3210
 2057W        W 6108   8.394   6.932  11.582 -0.0523  0.0877 -0.0732
 2058W        W 6109   3.657   0.459   8.955 -0.0433 -0.0595 -0.0879
 2059W        W 6110   6.963   0.140  10.579  0.0674 -0.1273 -0.0089
 2060W        W 6111   3.945   3.598   4.903  0.0756 -0.1413 -0.0634
 2061W        W 6112   6.248   0.532   2.195 -0.1611 -0.2470 -0.0697
 2062W        W 6113   7.294   3.936   0.602 -0.0756 -0.0001 -0.1842
 2063W        W 6114   9.592   1.371  11.900 -0.1621 -0.0080  0.1904
 2064W        W 6115   1.200   4.574   3.632  0.2335 -0.0276 -0.1284
 2065W        W 6116   4.818   5.209   5.001  0.1604 -0.0584  0.1027
 2066W        W 6117   7.276   9.235  13.835 -0.0639 -0.0235  0.0431
 2067W        W 6118   6.285   8.226   0.988  0.0279  0.3011  0.0988
 2068W        W 6119   0.335   1.118   0.743  0.2378  0.0226  0.0127
 2069W        W 6120   0.475   7.125   9.580  0.0607 -0.2652 -0.1105
 2070W        W 6121   5.367   5.800   4.885 -0.0874 -0.0073  0.2220
 2071W        W 6122   3.875   4.671   1.596 -0.5008 -0.1099  0.0097
 2072W        W 6123   9.908   0.256   3.912 -0.1177 -0.0777 -0.1342
 2073W        W 6124   3.847   7.897   0.348  0.0488  0.0965 -0.1388
 2074W        W 6125   3.384   5.842   0.482 -0.0755 -0.1249 -0.2743
 2075W        W 6126   8.211   0.632  12.637 -0.1146 -0.0707 -0.1317
 2076W        W 6127   7.388   7.133   4.325  0.0392 -0.1164 -0.4547
 2077W        W 6128   2.121   7.273   1.807 -0.0412 -0.0688  0.0822
 2078W        W 6129   8.657   0.781  13.559  0.2190 -0.2045  0.3002
 2079W        W 6130   3.226   0.318  12.367  0.0651  0.3369  0.2188
 2080W        W 6131   3.131   1.582   0.778 -0.0820  0.0999 -0.0335
 2081W        W 6132   4.008   0.893  11.090  0.1172 -0.2762  0.0748
 2082W        W 6133   0.539   1.880  11.130  0.0893  0.1764 -0.0486
 2083W        W 6134   6.310   5.254   2.758 -0.0317 -0.0303 -0.1662
 2084W        W 6135   6.395   2.368   4.821  0.1695  0.1726 -0.2215
 2085W        W 6136   4.512   0.690   4.217 -0.2316 -0.1008 -0.0609
 2086W        W 6137   8.147   7.433  11.544  0.2592  0.1024 -0.1038
 2087W        W 6138   1.268   6.446   2.426  0.0180 -0.2342 -0.2096
 2088W        W 6139   1.239   9.326   4.617 -0.0202  0.1997  0.0643
 2089W        W 6140   9.049   2.625   4.105  0.1049  0.3789 -0.1764
 2090W        W 6141   3.468   2.514   8.783  0.0881  0.0604  0.2041
 2091W        W 6142   8.733   1.989  10.887  0.4259 -0.0675  0.2024
 2092W        W 6143   5.465   2.058   1.465  0.0253 -0.1351 -0.1661
 2093W        W 6144   8.043   3.237   1.499 -0.1570  0.1975  0.0566
 2094W        W 6145   7.895   9.144   1.673  0.0663 -0.1214  0.1718
 2095W        W 6146   5.773   4.440  10.615 -0.0496 -0.3050  0.0443
 2096W        W 6147   5.816   9.462  11.433  0.1788  0.4792  0.0036
 2097W        W 6148   6.862   7.405   0.441  0.1547 -0.1999  0.2411
 2098W        W 6149   2.917   2.197   1.051 -0.0305 -0.2877  0.2838
 2099W        W 6150   9.037   4.521   0.227 -0.0820  0.1284 -0.0167
 2100W        W 6151   7.969   1.745   9.241  0.1800 -0.0587  0.1366
 2101W        W 6152   7.600   2.748  12.443 -0.1391  0.0173 -0.3500
 2102W        W 6153   8.472  10.182   9.824 -0.1371 -0.3936 -0.3245
 2103W        W 6154   4.350   1.488   4.787  0.0616 -0.2814 -0.2109
 2104W        W 6155   9.589   1.994   3.888 -0.0212 -0.1333 -0.0032
 2105W        W 6156   0.338  10.097   3.544 -0.1637  0.1965  0.2791
 2106W        W 6157   7.289   5.560   2.862  0.0137  0.0669 -0.1517
 2107W        W 6158   4.450   9.195   9.548 -0.1881  0.1352 -0.2515
 2108W        W 6159   3.614   7.084  12.832  0.0262 -0.1497  0.2208
 2109W        W 6160   8.498   8.555   3.523 -0.0397  0.0155 -0.4014
 2110W        W 6161   0.420   0.408   4.781  0.0934  0.1295 -0.2750
 2111W        W 6162   1.792   5.617  13.107 -0.0177 -0.0262  0.2513
 2112W        W 6163   3.032   7.287  10.328 -0.1084 -0.1283  0.2946
 2113W        W 6164   8.049  10.144   2.466 -0.2831 -0.3430 -0.0864
 2114W        W 6165   1.449   6.212   1.477  0.0247  0.1710 -0.1015
 2115W        W 6166   0.168   9.589  11.248  0.1576  0.1219  0.5524
 2116W        W 6167   0.002   9.271   2.642  0.1304  0.5845 -0.0377
 2117W        W 6168   7.521   4.244  10.277 -0.3241 -0.1163  0.3540
 2118W        W 6169   2.308   0.920   0.727  0.2237 -0.0119 -0.1430
 2119W        W 6170   2.081   7.779   4.370  0.2052  0.0246  0.1790
 2120W        W 6171   5.636   9.091   3.932 -0.0692 -0.3146  0.0344
 2121W        W 6172   5.064   2.576   2.618  0.1681 -0.0303 -0.1629
 2122W        W 6173   4.152   1.222   2.733  0.0555  0.2044  0.0207
 2123W        W 6174   9.818   1.402   9.503  0.0391 -0.3203  0.1507
 2124W        W 6175   5.276   0.797  10.683 -0.0457  0.3293 -0.1086
 2125W        W 6176   5.426   5.120   0.442 -0.0771 -0.0601 -0.0572
 2126W        W 6177   4.107   2.648   9.770  0.3149  0.1563 -0.0228
 2127W        W 6178   9.194   7.133  10.973  0.1176  0.3885  0.2996
 2128W        W 6179   4.383   1.999   1.310  0.0218  0.0339  0.1207
 2129W        W 6180   7.047   3.595   9.707 -0.2430 -0.4424  0.1895
 2130W        W 6181   5.590   8.526   9.407 -0.2246  0.1126  0.0426
 2131W        W 6182   9.880   3.223  13.483 -0.0996  0.2897  0.2935
 2132W        W 6183   1.665   8.422   3.676  0.3316 -0.1075  0.2629
 2133W        W 6184   0.265   8.485  10.489 -0.0701  0.0245  0.1152
 2134W        W 6185   2.093   9.290   0.349 -0.1726 -0.2032  0.2318
 2135W        W 6186   2.572   8.274  12.642  0.2153  0.1578 -0.1243
 2136W        W 6187   2.133   7.712   1.359 -0.0396  0.1358 -0.2827
 2137W        W 6188   1.743   2.974   4.849  0.1146  0.0098 -0.1834
 2138W        W 6189   1.248   6.510  13.303 -0.2320  0.2174 -0.1045
 2139W        W 6190   0.495   3.420   9.642  0.2680 -0.0672 -0.3850
 2140W        W 6191   8.850   8.850  11.699  0.1186  0.0622  0.0468
 2141W        W 6192   5.546   2.152  13.131 -0.0988 -0.3521  0.1762
 2142W        W 6193   8.146   3.416   3.599 -0.3443 -0.0194  0.2615
 2143W        W 6194   5.274   6.073   2.692  0.1928 -0.1720 -0.1101
 2144W        W 6195   8.691   2.725   9.960  0.0947 -0.1794  0.0168
 2145W        W 6196  10.081   3.178  12.181  0.3491 -0.1822 -0.0933
 2146W        W 6197   0.016  10.129  10.411  0.3684 -0.1799 -0.2996
 2147W        W 6198   1.315   5.571  13.421  0.3022  0.1008  0.3431
 2148W        W 6199   9.705   2.559  12.436 -0.0756  0.1600  0.3558
 2149W        W 6200   4.173   7.175  13.706  0.2460 -0.2456  0.1633
 2150W        W 6201   6.923   3.359   3.264  0.3565  0.0917 -0.3051
 2151W        W 6202   2.782   5.636  11.594 -0.1709 -0.1287 -0.0213
 2152W        W 6203   1.714   0.077   3.254 -0.2313 -0.0748  0.0423
 2153W        W 6204   2.789   8.727   2.637  0.1938 -0.0881 -0.1764
 2154W        W 6205   4.749   5.993   2.746 -0.0623  0.1525 -0.2080
 2155W        W 6206   5.341   4.508   2.420 -0.1143  0.1944  0.0616
 2156W        W 6207   3.726   4.421   0.590 -0.2969 -0.0708 -0.0354
 2157W        W 6208   0.518   9.680  10.285  0.0029  0.2295  0.0236
 2158W        W 6209   1.254   2.432  10.855 -0.0272  0.2400  0.5714
 2159W        W 6210   8.074   6.299   0.451 -0.2702  0.0770  0.0012
 2160W        W 6211   6.584   8.646   9.596 -0.0041 -0.0260  0.0312
 2161W        W 6212  10.119   4.045   2.368  0.1538  0.1806 -0.1830
 2162W        W 6213   8.868   1.649  13.870  0.2562  0.1315 -0.3013
 2163W        W 6214   5.309   4.444  10.391  0.3545  0.1099  0.2439
 2164W        W 6215   3.312   1.913   4.251  0.0140  0.1239  0.3108
 2165W        W 6216   0.431   5.618  13.085  0.0124 -0.1680 -0.2463
 2166W        W 6217   4.833   5.803   1.666 -0.1947 -0.1084  0.1767
 2167W        W 6218   0.802   2.316  10.675 -0.1794  0.0962 -0.2173
 2168W        W 6219   2.504  10.168   1.112  0.0931 -0.2355 -0.0329
 2169W        W 6220   1.570   9.611  12.934 -0.1892 -0.1259  0.0118
 2170W        W 6221   9.550   3.688   1.300 -0.3385 -0.0383  0.2027
 2171W        W 6222   6.110   2.188   4.380 -0.1631  0.1073  0.3077
 2172W        W 6223  10.017   0.369  10.353 -0.0969  0.0571  0.0438
 2173W        W 6224   8.260   1.625   8.147  0.1285  0.0164 -0.0877
 2174W        W 6225   1.903   6.640  12.635  0.1221 -0.1247 -0.1281
 2175W        W 6226   1.113   9.001  13.417  0.2956  0.0405  0.0386
 2176W        W 6227   9.510   4.623   1.379 -0.4424 -0.3317  0.2755
 2177W        W 6228   6.718   6.860   3.359  0.0578 -0.0893  0.3741
 2178W        W 6229   5.083   7.738   0.705 -0.1613 -0.1077 -0.0539
 2179W        W 6230   4.891   0.751  12.928 -0.0988 -0.1099  0.0111
 2180W        W 6231   7.601   1.602  10.013 -0.0432  0.2294  0.0592
 2181W        W 6232   4.316  10.021   0.252  0.0664  0.2198  0.3271
 2182W        W 6233   1.450   2.864   1.973  0.2838  0.0341  0.0449
 2183W        W 6234   0.785   3.792   2.517  0.0352 -0.0262 -0.0375
 2184W        W 6235   1.254   9.793   2.677 -0.2334  0.1501 -0.2816
 2185W        W 6236   1.577   3.706   1.408 -0.0623  0.1066 -0.0303
 2186W        W 6237   1.130   3.500  11.812  0.0609 -0.3076 -0.0407
 2187W        W 6238   0.806   5.246   0.538  0.1688 -0.0162  0.2241
 2188W        W 6239   3.892   3.858   3.037 -0.1781  0.4928  0.0175
 2189W        W 6240   4.752   7.407   9.348 -0.3955 -0.1457  0.1366
 2190W        W 6241   7.647   2.333   0.700  0.0001  0.0391  0.3520
 2191W        W 6242   5.073   5.334  11.051 -0.0614  0.0790  0.1740
 2192W        W 6243   1.383   9.770   4.419 -0.1209 -0.0315 -0.0067
 2193W        W 6244   8.428   5.190   2.142  0.0399 -0.0264 -0.0175
 2194W        W 6245   9.829   2.970   3.631  0.0130  0.1679 -0.1533
 2195W        W 6246   2.226   0.140   3.495 -0.2950 -0.0513  0.2812
 2196W        W 6247   4.945   4.209  11.885 -0.1575 -0.2473  0.0335
 2197W        W 6248   6.857   5.176   1.136  0.1339 -0.2175  0.1028
 2198W        W 6249   2.366   0.290  10.337  0.0100  0.1994  0.0067
 2199W        W 6250   6.366   8.557  13.188 -0.0867  0.0160 -0.3518
 2200W        W 6251   4.454   0.433   2.931  0.2026 -0.2731  0.1361
 2201W        W 6252   6.504   2.567   2.580 -0.1120 -0.2066  0.0575
 2202W        W 6253   5.461   4.132  12.283 -0.0745  0.3377 -0.1671
 2203W        W 6254   8.718   1.442   2.455 -0.0512 -0.0149  0.1412
 2204W        W 6255   6.832   7.350  10.895  0.1604 -0.2037 -0.1726
 2205W        W 6256   1.321   4.751   2.298  0.1526  0.3005 -0.1812
 2206W        W 6257   0.460   4.084   4.463  0.0083  0.2056  0.1278
 2207W        W 6258   5.322   4.766  13.668  0.0266  0.0371  0.1028
 2208W        W 6259   5.753   0.764   9.852  0.0614  0.0564  0.1912
 2209W        W 6260   9.251   9.314   3.397  0.1366  0.3022  0.0250
 2210W        W 6261   0.649   5.451  10.679 -0.1228 -0.0764 -0.1980
 2211W        W 6262   4.439   3.985   1.027 -0.1514  0.0578 -0.1881
 2212W        W 6263   7.098   7.376  13.916 -0.1266  0.2710  0.2888
 2213W        W 6264   8.302   6.728   1.272  0.0481 -0.0856 -0.1396
 2214W        W 6265   8.058   7.140  11.979 -0.0346  0.0101 -0.2894
 2215W        W 6266   8.775   5.389  12.828 -0.2245  0.0827  0.2369
 2216W        W 6267  10.119   3.770   4.192 -0.2228  0.0339  0.2508
 2217W        W 6268   2.657   7.013   3.975 -0.0136  0.0776 -0.0813
 2218W        W 6269   1.650   9.261   5.048 -0.2017  0.0167  0.1738
 2219W        W 6270   4.234   3.179  13.188  0.0507 -0.1690  0.2726
 2220W        W 6271   4.803   0.564  11.010 -0.1493  0.0443 -0.0922
 2221W        W 6272   3.724   0.186   2.003  0.2070  0.0746 -0.0906
 2222W        W 6273   1.135   6.230  13.675 -0.3673 -0.3163 -0.0244
 2223W        W 6274   4.508   8.033   4.952 -0.1567 -0.2391  0.0465
 2224W        W 6275   8.036   1.963   5.181 -0.0244  0.0075 -0.2198
 2225W        W 6276   4.325   9.010   2.600  0.3093 -0.2252 -0.3128
 2226W        W 6277  10.175   6.024   2.367  0.1508 -0.0760  0.3255
 2227W        W 6278   8.083   9.669   0.738 -0.0696  0.2649 -0.1411
 2228W        W 6279   9.189   3.436   1.882  0.2393 -0.0526 -0.1121
 2229W        W 6280   8.432   5.988   5.697  0.0873 -0.0744 -0.1704
 2230W        W 6281   0.877   4.962  10.765  0.3070  0.0263 -0.1600
 2231W        W 6282   4.410  10.111   3.035 -0.2712  0.0914 -0.2489
 2232W        W 6283   8.594   0.515   4.493  0.0182 -0.0835 -0.3418
 2233W        W 6284   4.023   3.176  10.886 -0.1186 -0.1937 -0.2199
 2234W        W 6285   6.800   6.048  10.435  0.0399  0.1606  0.1249
 2235W        W 6286   5.844   3.623  10.145  0.3878 -0.0019  0.2410
 2236W        W 6287   3.279   0.565   4.028 -0.0601 -0.3032  0.2992
 2237W        W 6288   5.336   9.056   9.619  0.0679  0.3641 -0.0713
 2238W        W 6289   0.455   0.644  10.802 -0.2748  0.1425  0.1450
 2239W        W 6290   1.554   5.801  11.106  0.2093 -0.2318  0.2811
 2240W        W 6291   3.148   5.687  13.271 -0.0756 -0.2215  0.3278
 2241W        W 6292   9.474   0.957   2.930  0.2411  0.2741  0.1091
 2242W        W 6293   0.162  10.130  11.835  0.0290 -0.1750  0.3496
 2243W        W 6294   2.573   2.782   1.985  0.1407  0.0871  0.2516
 2244W        W 6295   8.279   3.338  12.889  0.0579  0.0666 -0.2296
 2245W        W 6296   3.673   7.270   1.690 -0.1777 -0.3448  0.1328
 2246W        W 6297   6.428   3.051   1.371  0.0158 -0.1596  0.2894
 2247W        W 6298   1.519   9.666  13.778 -0.0344  0.0883 -0.0579
 2248W        W 6299   3.633   2.476   0.021  0.3843  0.0075 -0.1769
 2249W        W 6300   3.472   6.699   9.927 -0.3009 -0.1063 -0.2873
 2250W        W 6301   6.989   7.638   3.643 -0.0258  0.1088 -0.3019
 2251W        W 6302   9.868   7.010   2.785  0.0757 -0.4208  0.1154
 2252W        W 6303   4.080   9.140  13.016 -0.0014  0.0420  0.1617
 2253W        W 6304   5.563   3.518   2.104  0.1068 -0.1581  0.0174
 2254W        W 6305   0.102   2.976   3.491 -0.0276 -0.0182 -0.2082
 2255W        W 6306   5.149   4.657   5.506 -0.1026 -0.1545 -0.2761
 2256W        W 6307   5.667   0.104   1.912  0.1688  0.4302  0.0437
 2257W        W 6308   7.390   2.149   1.242  0.1750  0.1171 -0.0806
 2258W        W 6309   2.577   2.523   2.938  0.3186 -0.0987 -0.1262
 2259W        W 6310   5.877   4.764   4.175  0.2676 -0.1672  0.0109
 2260W        W 6311   6.926   7.376   4.163  0.0380 -0.1850 -0.2511
 2261W        W 6312   6.981   9.542   3.804 -0.0665  0.0157 -0.3202
 2262W        W 6313   8.908   0.341   3.790  0.1727 -0.1564 -0.1791
 2263W        W 6314   4.068   4.847   0.890  0.2773  0.1445  0.0698
 2264W        W 6315   2.785   9.606   3.939 -0.1364 -0.1618 -0.0988
 2265W        W 6316   8.430   4.204  11.457  0.1359 -0.2503 -0.0546
 2266W        W 6317   1.859   6.145   2.218 -0.0843 -0.4380  0.1069
 2267W        W 6318   5.106   6.885  10.636  0.0576 -0.1950 -0.0189
 2268W        W 6319  10.001   5.620   1.412 -0.0269 -0.1582  0.2314
 2269W        W 6320   0.154   8.956  10.379  0.1426  0.0278  0.1783
 2270W        W 6321   8.073   4.197  12.879  0.1738  0.1799 -0.0494
 2271W        W 6322   2.594   2.649  12.228 -0.1765  0.0226  0.2597
 2272W        W 6323   0.088   9.553  12.751  0.0825  0.0912  0.1148
 2273W        W 6324   3.653   8.539  10.890 -0.1817  0.1119 -0.3961
 2274W        W 6325   5.898   8.549   1.795 -0.0829 -0.1000  0.1813
 2275W        W 6326   6.324   5.165   1.340  0.2652  0.2031  0.3414
 2276W        W 6327   4.149   5.248   9.974 -0.1734  0.2152  0.2815
 2277W        W 6328   7.041   8.185  12.870 -0.0258 -0.0767 -0.0126
 2278W        W 6329   6.790   7.811   3.177  0.1737 -0.1280  0.0280
 2279W        W 6330   3.644  10.073   4.413  0.1810 -0.0748  0.2748
 2280W        W 6331   8.927   6.426   0.353 -0.0934  0.2489 -0.1316
 2281W        W 6332   1.734   7.150   0.566 -0.0837  0.2549  0.0179
 2282W        W 6333   8.951   7.056  12.792  0.0988  0.1328  0.0841
 2283W        W 6334   2.101   5.123   2.706 -0.0064 -0.2371  0.0898
 2284W        W 6335   2.044   3.908   1.565  0.0392  0.2484 -0.1191
 2285W        W 6336   4.526   1.476  13.882  0.0073 -0.0250 -0.0087
 2286W        W 6337   0.694   3.256   1.079 -0.0161 -0.3887  0.0873
 2287W        W 6338   3.437   1.089   2.206  0.0842 -0.0912  0.0053
 2288W        W 6339   3.035   0.649  10.829 -0.1604 -0.1308  0.1003
 2289W        W 6340   3.362   8.394   0.420  0.1210  0.1749 -0.1191
 2290W        W 6341   5.759   0.421   2.317  0.1126  0.1392 -0.2541
 2291W        W 6342   2.821   6.753  12.631  0.3627 -0.3855  0.0867
 2292W        W 6343   5.099   4.062   0.459  0.1116 -0.4518  0.5007
 2293W        W 6344   0.664   6.653   3.464 -0.1176  0.0811 -0.1849
 2294W        W 6345   1.661   9.580   1.575  0.0768 -0.0302 -0.1099
 2295W        W 6346   9.262   6.678   3.924  0.2090  0.1502  0.2800
 2296W        W 6347   8.531   2.459  12.598  0.1827  0.2666  0.0143
 2297W        W 6348   3.724   5.839   1.561 -0.1103 -0.0668 -0.0429
 2298W        W 6349   1.577   7.895  12.565  0.1320 -0.3973  0.3214
 2299W        W 6350   3.405   2.402   2.363  0.0690 -0.2142 -0.2727
 2300W        W 6351   1.068   3.031  10.386 -0.1704  0.1274 -0.2876
 2301W        W 6352   6.370   7.224  12.375 -0.0676 -0.2445  0.0686
 2302W        W 6353   6.666   1.059   4.869  0.0760 -0.0645 -0.1637
 2303W        W 6354   5.233   4.419   5.107  0.2462  0.0491 -0.0166
 2304W        W 6355   5.277   3.528  11.539 -0.3431  0.4148  0.1401
 2305W        W 6356   7.719   8.811   9.073  0.3413 -0.1101 -0.2300
 2306W        W 6357   2.821   7.603  13.209 -0.2192  0.0478  0.3056
 2307W        W 6358   5.339   6.580  10.327 -0.1724  0.0639 -0.2039
 2308W        W 6359   7.106   9.144   9.151  0.2266 -0.0594 -0.0732
 2309W        W 6360   9.756   5.313   1.686  0.1087  0.0573  0.3300
 2310W        W 6361   0.798   8.832  12.952 -0.0742  0.2691 -0.2212
 2311W        W 6362   4.969   6.637   4.561 -0.0886 -0.0756 -0.0997
 2312W        W 6363   9.785   0.286   0.727 -0.3865  0.1517 -0.0285
 2313W        W 6364   9.150   8.011   0.245 -0.1687 -0.2586 -0.3381
 2314W        W 6365   3.862   7.078   3.308 -0.0810  0.0452 -0.2668
 2315W        W 6366   4.690   0.631   2.203  0.1512 -0.0904  0.0471
 2316W        W 6367   3.306   8.536   1.345  0.2428  0.2412  0.2453
 2317W        W 6368   7.498   2.244   3.037  0.1918  0.0654  0.1530
 2318W        W 6369   0.739   8.444   2.373 -0.0439  0.4598  0.0816
 2319W        W 6370   8.517   0.654  13.109 -0.0860 -0.2734  0.2074
 2320W        W 6371   6.123   8.545   9.341  0.1441  0.0771 -0.0436
 2321W        W 6372   6.768   5.001   5.470 -0.0808  0.0485 -0.2493
 2322W        W 6373   2.975   4.150  10.949 -0.2278 -0.0735 -0.2838
 2323W        W 6374   1.366   4.455   0.892  0.2893  0.1510 -0.0238
 2324W        W 6375   5.817   8.146   9.115 -0.2752  0.2460 -0.1550
 2325W        W 6376   8.459   3.645  10.229 -0.4215 -0.0418  0.2214
 2326W        W 6377   7.638   3.931   4.435  0.0728  0.0313 -0.0106
 2327W        W 6378   5.644   7.121   0.659 -0.2024 -0.1104 -0.1805
 2328W        W 6379   8.594   1.206  12.373  0.2205  0.0944 -0.3091
 2329W        W 6380   0.982   0.735   9.852 -0.2685  0.1313 -0.1936
 2330W        W 6381   4.017   9.972   5.152 -0.1008  0.0557 -0.0559
 2331W        W 6382   0.499   3.982   3.420 -0.5341  0.1472 -0.0668
 2332W        W 6383   9.833   1.976  10.156  0.1681  0.1754 -0.0776
 2333W        W 6384   6.411   3.439  12.169  0.0801 -0.2108  0.0493
 2334W        W 6385   6.231   4.353   0.438 -0.2175 -0.0213 -0.0382
 2335W        W 6386  10.192   2.477   1.852  0.2282  0.0530  0.1451
 2336W        W 6387   7.185   5.716  10.375 -0.0437 -0.2627  0.1387
 2337W        W 6388   4.375   0.515  11.162  0.1812 -0.2226 -0.0982
 2338W        W 6389   3.625   2.912   4.328 -0.2145  0.2247  0.0123
 2339W        W 6390   6.918  10.187  11.072 -0.2471  0.0352  0.0107
 2340W        W 6391   6.469   9.241  11.034 -0.2177 -0.0130 -0.0040
 2341W        W 6392   5.992   5.536   3.157  0.0766 -0.0077  0.0405
 2342W        W 6393   0.048   4.101  11.685 -0.0823  0.3651  0.0900
 2343W        W 6394   0.217   4.427  10.534 -0.1018  0.1655 -0.1131
 2344W        W 6395   6.372   1.996   3.379 -0.1910  0.1547 -0.2606
 2345W        W 6396   6.217   9.630   4.313  0.0915 -0.2205  0.0563
 2346W        W 6397   3.418   0.288  10.732 -0.0094 -0.0136  0.0324
 2347W        W 6398   2.596   2.073  10.349  0.0938 -0.1433  0.1378
 2348W        W 6399   5.577   9.733   3.509  0.2035 -0.0890  0.0312
 2349W        W 6400   6.372   1.166   3.288 -0.1986 -0.0219  0.2583
 2350W        W 6401   9.602   6.751  11.799  0.0025 -0.5048 -0.1503
 2351W        W 6402   7.366   9.381  12.693  0.0874 -0.1277 -0.1079
 2352W        W 6403   6.799   5.916   4.252 -0.2026 -0.2109  0.0558
 2353W        W 6404   1.409   5.461  12.808  0.1916 -0.0994 -0.1610
 2354W        W 6405   3.267   4.623  11.716 -0.3222  0.2972 -0.1223
 2355W        W 6406   4.782   9.375  11.162 -0.1897 -0.0000  0.1217
 2356W        W 6407   6.975   2.637   9.773 -0.0605  0.0219  0.1186
 2357W        W 6408   4.975   7.127  13.797 -0.1713 -0.0081 -0.0354
 2358W        W 6409   3.366   8.084   1.548  0.0034  0.1199  0.3282
 2359W        W 6410   6.571   8.048   8.477 -0.0805  0.1191  0.1693
 2360W        W 6411   8.291   2.960   0.341 -0.3418  0.3185 -0.3815
 2361W        W 6412   0.849   1.418   2.149 -0.1697  0.1167 -0.1593
 2362W        W 6413   7.615   9.693   2.074  0.0425 -0.1079  0.1440
 2363W        W 6414   5.885   1.347   8.990 -0.2228  0.0768 -0.2229
 2364W        W 6415  10.019   7.727  12.144 -0.2641 -0.2834  0.0807
 2365W        W 6416   1.880   2.182   3.368 -0.2257 -0.0811 -0.0519
 2366W        W 6417   7.400  10.186   0.310 -0.1567  0.0954 -0.3145
 2367W        W 6418   6.413   6.018   4.590  0.0407  0.3406  0.1107
 2368W        W 6419   3.613   0.615   2.324  0.1631 -0.3449  0.2164
 2369W        W 6420   8.781   3.778   1.867  0.1389 -0.0512 -0.3714
 2370W        W 6421   1.251   8.895  12.535 -0.2358  0.1713 -0.2902
 2371W        W 6422   2.618   2.867  11.225 -0.4352 -0.4879 -0.1346
 2372W        W 6423   5.943   8.039   1.928  0.1994  0.3787 -0.0452
 2373W        W 6424   3.115   5.126   4.043 -0.2744  0.4817  0.3209
 2374W        W 6425   1.895   0.421   8.650  0.0007  0.0907 -0.0664
 2375W        W 6426   1.228   0.767   1.048 -0.0806 -0.0175 -0.0813
 2376W        W 6427   6.272   7.989   4.552 -0.0532 -0.0410  0.1923
 2377W        W 6428   2.906   3.181  10.328 -0.2585  0.1346 -0.2945
 2378W        W 6429   4.930   9.870   1.968  0.0067 -0.1496  0.0565
 2379W        W 6430   8.758   0.561   1.022 -0.1139 -0.3863 -0.1989
 2380W        W 6431   9.710   3.607  10.930 -0.3491  0.1524 -0.1142
 2381W        W 6432  10.067   6.317  11.598  0.0937 -0.0617  0.0122
 2382W        W 6433   4.494   4.502  11.055  0.4464 -0.1369  0.0639
 2383W        W 6434   3.383   4.331   1.652  0.0023 -0.0491 -0.1449
 2384W        W 6435   1.288   7.932  11.156  0.1892 -0.4562 -0.1119
 2385W        W 6436   5.812   5.254   2.691 -0.2123  0.1328 -0.1076
 2386W        W 6437   6.160   4.726  13.647 -0.1678  0.0083  0.1113
 2387W        W 6438   4.257   6.208   4.203 -0.2643 -0.0122 -0.1462
 2388W        W 6439   0.354   8.864   2.604  0.2696  0.2328 -0.0685
 2389W        W 6440   8.088   1.207  12.461 -0.0308 -0.0326 -0.2889
 2390W        W 6441   8.819   0.415   9.772  0.1058  0.0813 -0.1659
 2391W        W 6442   4.607   5.044  10.907 -0.2408  0.1189  0.0846
 2392W        W 6443   9.246   1.850   4.242 -0.3625  0.3132 -0.0879
 2393W        W 6444   2.041   0.656  10.601  0.0522 -0.4039  0.2998
 2394W        W 6445   7.702   1.990   8.910 -0.0730 -0.3151 -0.5936
 2395W        W 6446   8.565   3.318   8.959 -0.0616 -0.1852 -0.0067
 2396W        W 6447   8.862   1.627   1.333 -0.1110  0.0658 -0.0929
 2397W        W 6448   8.768   8.977   3.383 -0.1085 -0.0365  0.5175
 2398W        W 6449   5.784   9.907   4.172  0.0566 -0.2420 -0.0265
 2399W        W 6450   8.414   1.764   1.539 -0.2469 -0.1003 -0.0007
 2400W        W 6451   1.808   4.710   2.322 -0.1131 -0.0062  0.4210
 2401W        W 6452   2.305   8.070   2.234  0.0002 -0.0083 -0.0742
 2402W        W 6453   1.786   3.918   4.440 -0.0798 -0.1082  0.2890
 2403W        W 6454   8.954   5.321   3.344  0.0810  0.0469 -0.1655
 2404W        W 6455   8.637   0.072   4.132  0.2061  0.1621  0.1432
 2405W        W 6456   5.004   4.174   9.021  0.2182  0.0461 -0.1267
 2406W        W 6457   0.491   0.814   0.215  0.1427  0.2658  0.0374
 2407W        W 6458   1.710   1.343   8.475  0.0878 -0.2085  0.0199
 2408W        W 6459   5.264   4.424   0.104 -0.1643  0.2728  0.0657
 2409W        W 6460   4.469   8.866   1.370  0.4020  0.1728  0.2299
 2410W        W 6461   0.663   0.803  10.240  0.2023  0.1421  0.1716
 2411W        W 6462   1.954   3.512  12.450  0.6233 -0.3098  0.0942
 2412W        W 6463   7.614   7.867  13.228  0.0915 -0.0258  0.2210
 2413W        W 6464   4.238   7.115   9.701  0.1543 -0.3036 -0.0606
 2414W        W 6465   8.110   0.030   8.544  0.1974  0.0219 -0.2067
 2415W        W 6466   3.389   2.071   2.853 -0.0938  0.1582 -0.0465
 2416W        W 6467   0.396   2.225   1.584 -0.4901  0.1678  0.0532
 2417W        W 6468   9.084   7.953   1.815  0.0097  0.0785 -0.0123
 2418W        W 6469   8.199   7.995  11.601 -0.0425  0.0450 -0.4180
 2419W        W 6470   3.657   9.857   8.329  0.0160  0.0434  0.1869
 2420W        W 6471   9.160   2.677  11.223  0.0571  0.1940  0.1128
 2421W        W 6472   5.488   0.161   8.418  0.0666 -0.0408 -0.0387
 2422W        W 6473   6.911   4.308  10.684 -0.2993  0.0105 -0.3119
 2423W        W 6474   6.485   0.919  10.693  0.0892 -0.0947  0.0362
 2424W        W 6475   5.372   2.838  11.673  0.0929  0.2470 -0.1075
 2425W        W 6476   3.870   7.095  12.156  0.0435  0.2284 -0.1621
 2426W        W 6477   7.779   7.980   5.272  0.2606  0.0998  0.1845
 2427W        W 6478   1.324   2.920  10.824 -0.1409 -0.1138  0.1724
 2428W        W 6479   9.948   9.290  12.494  0.1980  0.2543  0.4691
 2429W        W 6480   5.331   1.310  12.115 -0.3604 -0.1827 -0.0104
 2430W        W 6481   4.293   1.024   4.574 -0.2081 -0.0501  0.3954
 2431W        W 6482   0.757   7.160   2.472 -0.0419 -0.1028 -0.2839
 2432W        W 6483   8.298   7.683   9.141  0.1526 -0.0221  0.3889
 2433W        W 6484   2.942   7.392   4.167  0.1049 -0.1092 -0.0854
 2434W        W 6485   2.495   2.236   9.102  0.0261 -0.0680  0.0751
 2435W        W 6486   2.096   1.944  12.684  0.1668 -0.0607  0.0201
 2436W        W 6487   8.671   4.592  11.739 -0.0380 -0.0681  0.5483
 2437W        W 6488   7.294   5.180   5.129 -0.0235 -0.0715 -0.4051
 2438W        W 6489   9.806   0.285   2.005  0.1115 -0.4509 -0.0211
 2439W        W 6490   8.532   2.092   0.988  0.0510  0.2801 -0.0468
 2440W        W 6491   1.088   1.748  12.026 -0.1469  0.2945  0.0826
 2441W        W 6492   5.589   6.467   3.815  0.0730  0.2174 -0.2369
 2442W        W 6493   4.624   7.528   1.425  0.0655 -0.0146  0.0973
 2443W        W 6494   1.156   6.835  11.586  0.1750 -0.3078  0.0596
 2444W        W 6495   7.735   7.703  10.997  0.2238 -0.1257  0.3675
 2445W        W 6496   2.916   4.285   4.189 -0.4106  0.4277 -0.1654
 2446W        W 6497   6.454   4.066  11.319 -0.1986 -0.0775 -0.4204
 2447W        W 6498   0.467   9.971   5.172  0.1444 -0.2040  0.0333
 2448W        W 6499   6.997   1.997  12.869 -0.0300 -0.0895  0.1386
 2449W        W 6500   0.298   0.792  13.270 -0.0216  0.2647 -0.3154
 2450W        W 6501   7.880   7.015  13.311 -0.0032  0.2161  0.2277
 2451W        W 6502   8.401   3.213   9.943  0.0299 -0.1069  0.0465
 2452W        W 6503   8.322   1.943  11.352 -0.0134 -0.0973 -0.0789
 2453W        W 6504   2.518   4.665  13.824  0.1608  0.0270  0.2725
 2454W        W 6505   8.919   0.529   2.235 -0.0688  0.1337  0.2009
 2455W        W 6506   6.148   8.588  11.515  0.3104  0.0243  0.1940
 2456W        W 6507   8.209   6.238  12.521 -0.1716  0.2038  0.0993
 2457W        W 6508   6.149   6.112   2.272 -0.0754 -0.3679 -0.0147
 2458W        W 6509   6.875   9.522  13.256 -0.1097  0.1399  0.0167
 2459W        W 6510   8.786   4.228   2.310 -0.1285 -0.1598  0.2828
 2460W        W 6511   4.150   0.078   3.722  0.0609  0.3435 -0.0552
 2461W        W 6512   5.229   6.737   0.537 -0.0453 -0.0245  0.0163
 2462W        W 6513   9.981   9.183  10.071 -0.1777 -0.2882 -0.4187
 2463W        W 6514   4.329   5.707  13.578 -0.0107 -0.0492  0.0268
 2464W        W 6515   0.805   6.255  13.161  0.3359  0.0556 -0.1167
 2465W        W 6516   7.583   1.715   5.378 -0.0764 -0.0618  0.1302
 2466W        W 6517   5.997   6.291  13.002  0.3211  0.1324 -0.0431
 2467W        W 6518   5.615   0.563   0.170  0.1388 -0.1681 -0.0567
 2468W        W 6519   2.166   6.248   3.512  0.0877 -0.0922 -0.2568
 2469W        W 6520   9.392   4.863   0.931 -0.1505 -0.0144 -0.2241
 2470W        W 6521   6.477   8.444   4.805 -0.1089 -0.0588 -0.0450
 2471W        W 6522   5.959   7.924   0.695 -0.1451  0.1012 -0.0244
 2472W        W 6523   1.064   1.004   1.895 -0.0604 -0.0120  0.4580
 2473W        W 6524   3.423   1.463  11.564 -0.1586 -0.2515 -0.0917
 2474W        W 6525   7.190   8.231   2.365  0.0992 -0.0562 -0.0087
 2475W        W 6526   0.922   2.628   3.701 -0.2009 -0.0806 -0.0503
 2476W        W 6527   2.705   1.097   3.301 -0.0653  0.0091 -0.2693
 2477W        W 6528   0.469   4.369  12.460  0.0096 -0.3446 -0.0253
 2478W        W 6529   6.831   3.029   4.949  0.1306 -0.0126  0.0005
 2479W        W 6530   2.646   1.478   4.620  0.1361  0.1071 -0.3004
 2480W        W 6531   5.825   2.652   0.720 -0.1275 -0.1952 -0.0185
 2481W        W 6532   3.903   2.307   3.622 -0.2897 -0.0461  0.3876
 2482W        W 6533   4.359   0.969   9.088  0.0441 -0.0912  0.0306
 2483W        W 6534   5.122   0.928   2.866 -0.0355  0.0349  0.1432
 2484W        W 6535   8.891   9.581  12.515  0.0268  0.0464 -0.0894
 2485W        W 6536   9.316   0.277   2.097 -0.0309  0.4145 -0.2078
 2486W        W 6537   8.046   3.671   1.823 -0.0880  0.1482  0.2254
 2487W        W 6538   4.588   9.347   2.178  0.2568 -0.2157 -0.1786
 2488W        W 6539   0.059   7.326  12.687 -0.0253  0.2656  0.1044
 2489W        W 6540   8.798   6.297  13.736 -0.2023  0.2420 -0.1029
 2490W        W 6541   0.897   5.409   1.781 -0.2580  0.0550 -0.2252
 2491W        W 6542   6.042   7.022   4.412 -0.1077  0.2330 -0.0581
 2492W        W 6543   3.083   1.948   1.483  0.2739  0.0105 -0.2008
 2493W        W 6544   4.531   3.497  13.411 -0.2559 -0.0477 -0.0813
 2494W        W 6545   1.458   0.279   9.954 -0.0650  0.0225 -0.0939
 2495W        W 6546   7.596   6.614   4.159 -0.1393 -0.1970 -0.0364
 2496W        W 6547   4.159   6.364  12.957  0.1815  0.1918 -0.0038
 2497W        W 6548   6.258   4.867   9.675  0.0214  0.0866 -0.2398
 2498W        W 6549   5.869  10.151   2.436 -0.1326 -0.2074 -0.2322
 2499W        W 6550   4.474   5.730   1.157 -0.0308 -0.2832 -0.1465
 2500W        W 6551   6.982   2.174   4.372  0.0569 -0.0091 -0.0217
 2501W        W 6552   0.424   3.081   4.660  0.2157  0.0203 -0.0201
 2502W        W 6553   5.134   2.451   1.244 -0.4374  0.0797 -0.2117
 2503W        W 6554   0.836   1.506   0.078 -0.0592  0.3737 -0.2535
 2504W        W 6555   1.375   5.999   3.469 -0.5181  0.3312 -0.0742
 2505W        W 6556   7.044   1.832  11.327  0.0275 -0.2348  0.2331
 2506W        W 6557   7.139   2.417   1.568 -0.1335  0.1297 -0.0057
 2507W        W 6558   8.972   2.030   9.332 -0.1590 -0.0299  0.1804
 2508W        W 6559   5.937   8.437  12.201  0.0782  0.1368  0.2305
 2509W        W 6560   7.662   2.806   0.884 -0.0887 -0.3969 -0.1382
 2510W        W 6561   5.390   7.131   1.161 -0.2208 -0.3349  0.0199
 2511W        W 6562   8.025   7.282   1.413 -0.3118 -0.1754  0.1081
 2512W        W 6563   7.565   1.055   9.067 -0.0514 -0.2753 -0.0613
 2513W        W 6564   0.648   3.899   1.571  0.0730 -0.0849  0.1207
 2514W        W 6565   8.230   6.453   3.359 -0.1264  0.2568 -0.0114
 2515W        W 6566   4.868   3.181   3.891  0.0272  0.0192  0.1017
 2516W        W 6567   6.925   7.710   0.829  0.1768  0.2196  0.1701
 2517W        W 6568   9.014   8.648  11.135 -0.0378 -0.0549  0.2237
 2518W        W 6569   8.311   7.528   2.248  0.1318 -0.0266  0.0970
 2519W        W 6570   6.623   2.164  11.224 -0.1843 -0.1992 -0.1719
 2520W        W 6571   5.458   3.150   3.073  0.2343  0.1908  0.1032
 2521W        W 6572   5.213   1.808   1.855 -0.1061 -0.3300 -0.1398
 2522W        W 6573   1.006   1.664   8.871 -0.0919  0.1264 -0.0010
 2523W        W 6574   6.386   4.324  11.925 -0.2908  0.0518  0.0169
 2524W        W 6575   6.405  10.068   3.355  0.1524 -0.0204 -0.4170
 2525W        W 6576   8.723   3.660   0.474  0.0648 -0.2288 -0.1025
 2526W        W 6577   2.838   8.245   4.061  0.3970 -0.0804  0.1298
 2527W        W 6578   8.231   4.184   2.632 -0.2556 -0.2567  0.1906
 2528W        W 6579   3.910   2.200  10.017  0.1399 -0.1067  0.1930
 2529W        W 6580   7.818   1.123   3.783  0.0077  0.2136 -0.0632
 2530W        W 6581   4.768   0.809  13.607 -0.2084  0.3276 -0.2752
 2531W        W 6582   7.787   6.428   9.866 -0.1266 -0.1614  0.1800
 2532W        W 6583   5.344   6.307   4.881 -0.0682 -0.0753 -0.0333
 2533W        W 6584   6.042   4.182  11.569  0.1767 -0.0196 -0.0993
 2534W        W 6585   4.440   5.576   2.727  0.3435  0.2618 -0.1771
 2535W        W 6586   4.636   6.879  11.650 -0.0693 -0.0056  0.2157
 2536W        W 6587   7.102   9.726  11.405 -0.1143 -0.1896  0.0426
 2537W        W 6588   5.272   2.346  11.806  0.1544 -0.1160 -0.1598
 2538W        W 6589   9.908   4.230  13.645 -0.2087 -0.0060  0.0336
 2539W        W 6590   5.487   4.168  10.952 -0.1290  0.0484  0.0152
 2540W        W 6591   1.495   1.384  12.751 -0.1239  0.0828 -0.1776
 2541W        W 6592   6.786   6.408  12.665 -0.4655  0.2295 -0.3764
 2542W        W 6593   7.019   5.203  10.436  0.3737  0.0644  0.3769
 2543W        W 6594   4.727   9.264   0.659  0.2964  0.1824  0.5113
 2544W        W 6595   0.261   4.637  10.092  0.0438  0.0572 -0.0022
 2545W        W 6596   8.815  10.070  13.097 -0.3392  0.0802 -0.1041
 2546W        W 6597   8.860   4.027  10.199  0.0298  0.1957 -0.1651
 2547W        W 6598   0.027   5.327   9.444 -0.4514  0.0856 -0.0925
 2548W        W 6599   4.543   7.240   1.829 -0.1390  0.0883 -0.0900
 2549W        W 6600   6.046   1.506   2.512  0.0192 -0.1855 -0.0562
 2550W        W 6601   8.500   6.415  12.912  0.0456  0.0961  0.1220
 2551W        W 6602   3.315   1.452  13.314 -0.0811  0.5527  0.0646
 2552W        W 6603   9.272   0.918  11.783 -0.3074 -0.1528 -0.1930
 2553W        W 6604   3.210   7.806  11.374 -0.0299  0.0101 -0.2799
 2554W        W 6605   0.390   9.973   0.546  0.4710  0.0682 -0.6211
 2555W        W 6606   4.962   0.524   2.653  0.1561 -0.1589  0.2343
 2556W        W 6607   1.355   8.750   2.185  0.0542 -0.3561  0.0096
 2557W        W 6608   7.409   4.134   3.067  0.2221  0.2300 -0.0570
 2558W        W 6609   6.031   9.763  10.354 -0.0132  0.2021 -0.1734
 2559W        W 6610   7.896   8.032   8.875 -0.0391  0.4071  0.2314
 2560W        W 6611   2.667   2.610  13.749  0.0286  0.4908  0.0851
 2561W        W 6612   1.795   0.179  10.459  0.1049 -0.3485  0.0710
 2562W        W 6613   9.909   4.098  10.618  0.3830 -0.1190  0.1295
 2563W        W 6614   1.916   3.499   9.259 -0.2746 -0.1150  0.2534
 2564W        W 6615   6.890   9.833   3.228 -0.0443  0.1031  0.0763
 2565W        W 6616   3.731   4.592   3.802  0.0121  0.0835 -0.1726
 2566W        W 6617   1.409  10.178  11.741 -0.2281 -0.2672 -0.0382
 2567W        W 6618   0.957   4.046   0.736  0.0200 -0.0241 -0.0304
 2568W        W 6619   7.637   8.752   1.915 -0.1063  0.2957  0.2205
 2569W        W 6620   4.143   6.070  10.550 -0.0992 -0.0124 -0.0404
 2570W        W 6621   5.438   1.464   4.367  0.4377  0.1887  0.4055
 2571W        W 6622   1.605   0.014  13.613  0.0486 -0.3503 -0.2272
 2572W        W 6623   7.692   3.659   3.890 -0.4204 -0.0336 -0.1917
 2573W        W 6624   0.602   4.460   0.105  0.0775 -0.0355  0.1201
 2574W        W 6625   6.104   7.756   1.181  0.0061  0.0853  0.2817
 2575W        W 6626   8.534   6.099   0.176 -0.1236  0.4426  0.1511
 2576W        W 6627   4.616   8.570   4.098  0.2086 -0.1324  0.0160
 2577W        W 6628   1.645   2.806   3.142 -0.2229 -0.1793  0.0732
 2578W        W 6629   0.791   6.336   1.204 -0.1911 -0.1000 -0.1228
 2579W        W 6630   9.285  10.114   3.446  0.1531  0.1118 -0.0461
 2580W        W 6631   6.737   0.275   9.531 -0.0486 -0.1047  0.3004
 2581W        W 6632   2.277   2.969  10.511  0.2148 -0.0752  0.3316
 2582W        W 6633   5.922   6.529   8.416 -0.0926 -0.0544  0.1658
 2583W        W 6634   6.502   7.144   0.208 -0.0926  0.1846  0.2124
 2584W        W 6635   7.412   3.291  11.669 -0.0004 -0.0322  0.1128
 2585W        W 6636   6.626   0.647   3.112  0.0942  0.0912 -0.2709
 2586W        W 6637   7.160   4.884  11.372  0.0171  0.2068 -0.1399
 2587W        W 6638   5.261   8.161  11.971 -0.2647  0.0550 -0.0442
 2588W        W 6639   1.679   9.062   3.362  0.1473 -0.1108  0.4346
 2589W        W 6640   7.579   0.453   3.318 -0.1195  0.3207 -0.1483
 2590W        W 6641   2.433  10.077   9.104 -0.0745 -0.3600 -0.2096
 2591W        W 6642   5.115   7.337   4.011 -0.0119  0.1005  0.2481
 2592W        W 6643   5.615   7.519   9.430 -0.3189  0.1153 -0.0221
 2593W        W 6644   9.794   9.089   9.639  0.1174 -0.1505  0.0087
 2594W        W 6645   3.137   3.404  10.727 -0.0460  0.0316  0.1096
 2595W        W 6646   4.300   5.448   3.592 -0.0818  0.0372 -0.0555
 2596W        W 6647   2.073   2.628   3.124  0.1051  0.2324 -0.1883
 2597W        W 6648   0.446   1.895   4.740 -0.0759  0.0071 -0.2931
 2598W        W 6649   4.636   6.846   9.727 -0.0405 -0.2852 -0.2464
 2599W        W 6650   0.775   9.531  12.115 -0.1500  0.0241  0.0922
 2600W        W 6651   1.186   5.116   3.856 -0.0648  0.0136  0.1324
 2601W        W 6652   8.052   4.477  11.149 -0.1723  0.4627  0.3706
 2602W        W 6653   2.453   0.422   4.383  0.1089  0.0936  0.2807
 2603W        W 6654   9.627   6.247  11.862 -0.2223  0.3104  0.2046
 2604W        W 6655   8.823   0.874  12.035  0.0231 -0.2303  0.3724
 2605W        W 6656   3.029   2.865   0.160 -0.2893 -0.0809  0.1376
 2606W        W 6657   5.048   7.377  10.404  0.2387 -0.0465 -0.0555
 2607W        W 6658   5.414   8.175   4.822 -0.1659  0.1715  0.1300
 2608W        W 6659   7.656   9.735  11.243 -0.0619 -0.0793  0.1565
 2609W        W 6660   9.368   4.576  11.434 -0.0655  0.2908 -0.3114
 2610W        W 6661   3.988   1.809   1.572  0.2307  0.0941  0.0686
 2611W        W 6662   7.850   0.132   2.917 -0.0684 -0.2043 -0.0251
 2612W        W 6663   5.881   2.974  12.734  0.2747  0.0537 -0.0672
 2613W        W 6664   2.609   6.355   0.087 -0.2512  0.0901 -0.0516
 2614W        W 6665   6.020   0.349  10.250 -0.3026  0.0450 -0.3420
 2615W        W 6666   3.696   4.556   1.117  0.0253  0.2595 -0.1251
 2616W        W 6667   8.851   2.105  12.569 -0.1259 -0.1424  0.0372
 2617W        W 6668   8.497   4.852   1.306  0.1042  0.2112  0.4001
 2618W        W 6669   5.366   4.649   3.296 -0.0144 -0.2154 -0.2145
 2619W        W 6670   2.100   4.028  12.585  0.1688  0.0583  0.3944
 2620W        W 6671   4.630   8.798   0.903  0.1784 -0.3605 -0.0227
 2621W        W 6672   0.738   9.740   1.840  0.2449 -0.1749  0.1738
 2622W        W 6673   4.332   7.874  13.632 -0.1668 -0.2254 -0.1972
 2623W        W 6674   4.935   4.074  13.834 -0.0559 -0.2864 -0.1241
 2624W        W 6675   5.927   5.219   9.904  0.2385  0.0274  0.0390
 2625W        W 6676   6.824   8.117   3.894  0.2405  0.1515 -0.0069
 2626W        W 6677   9.138   6.557   3.114  0.1385  0.0188  0.0773
 2627W        W 6678   7.421   2.090   2.536 -0.1186  0.1456  0.0617
 2628W        W 6679   9.303   5.162  11.425  0.1051 -0.3329 -0.4604
 2629W        W 6680   4.579   7.192  13.334  0.2518 -0.0584 -0.1491
 2630W        W 6681   3.691   2.412  13.120  0.1170 -0.1579 -0.3332
 2631W        W 6682   5.805   7.363  11.834  0.0215 -0.0140 -0.2085
 2632W        W 6683   7.855   4.052  10.905 -0.0506  0.0191 -0.0443
 2633W        W 6684   4.366   3.517   2.229 -0.0029  0.0903  0.0964
 2634W        W 6685   2.471   5.396   2.875  0.0020 -0.1980  0.1894
 2635W        W 6686   9.883   1.533  11.480  0.0470 -0.2054  0.0811
 2636W        W 6687   6.161   2.569  12.888 -0.1851  0.0585 -0.0088
 2637W        W 6688   0.048   0.941   3.572 -0.1197 -0.1969 -0.0068
 2638W        W 6689   3.845   4.406  10.072  0.2238  0.0239 -0.3358
 2639W        W 6690   3.285   0.858   2.658 -0.0939  0.3886  0.0920
 2640W        W 6691   8.767   9.632  11.613 -0.0990 -0.1959  0.5086
 2641W        W 6692  10.019   3.442   1.058 -0.1276  0.2131 -0.0514
 2642W        W 6693   1.539   3.287   9.536 -0.1739 -0.0798 -0.0087
 2643W        W 6694   4.407   5.135  11.412 -0.2665 -0.3802  0.0206
 2644W        W 6695   6.305   6.170   5.056  0.0433  0.1080  0.3716
 2645W        W 6696   3.644   2.884   3.563 -0.0172  0.2077 -0.1477
 2646W        W 6697   2.010   1.134   5.325 -0.0409 -0.0137  0.3912
 2647W        W 6698   0.632   6.032   2.903 -0.3200  0.0698  0.0387
 2648W        W 6699   9.992   4.556   1.170 -0.0915 -0.2023  0.1453
 2649W        W 6700   9.690   4.521  12.265  0.1725 -0.1871 -0.1252
 2650W        W 6701   1.101   4.977   1.671 -0.0952  0.1239  0.1188
 2651W        W 6702   0.595   5.053   1.886  0.0769 -0.2017  0.2785
 2652W        W 6703   7.126   2.447   3.437 -0.2146 -0.1501 -0.0405
 2653W        W 6704   2.006   4.240  13.064  0.0722  0.1676 -0.1071
 2654W        W 6705   8.901   8.682   8.929  0.3206  0.5087  0.0105
 2655W        W 6706   5.553   1.228  11.222 -0.0207 -0.0664 -0.1854
 2656W        W 6707   6.257  10.036   1.257 -0.2128  0.0363  0.0747
 2657W        W 6708   6.172   5.897   9.873 -0.0373  0.3450 -0.0600
 2658W        W 6709   7.080   6.796  10.881 -0.1442  0.1695  0.0191
 2659W        W 6710   5.355   0.388  10.986 -0.1801  0.2164 -0.3144
 2660W        W 6711   6.687   4.639   9.810  0.0331  0.0407  0.0217
 2661W        W 6712   2.547   2.773   0.389  0.4783 -0.0039  0.0757
 2662W        W 6713   0.145   4.630  13.877 -0.2772  0.0410 -0.1175
 2663W        W 6714   2.930   9.872  13.773  0.3691 -0.2378  0.1837
 2664W        W 6715   2.272   1.955  12.221  0.1733 -0.0479 -0.1050
 2665W        W 6716   7.617   2.966   1.788  0.0185 -0.0694 -0.2554
 2666W        W 6717   4.642   5.085  13.106 -0.1264 -0.1611  0.1202
 2667W        W 6718   1.780   9.139   1.349  0.1149  0.0653  0.1635
 2668W        W 6719   3.014   7.649   1.853  0.1389 -0.2385 -0.0086
 2669W        W 6720   6.278   3.820   1.349 -0.3780  0.2357  0.0566
 2670W        W 6721   1.488   6.428  10.455  0.0055  0.0129  0.1591
 2671W        W 6722   4.317   0.709  13.895 -0.0855 -0.2239  0.3145
 2672W        W 6723   5.097   3.270   0.768  0.0733  0.0532  0.0997
 2673W        W 6724   1.112   5.865   1.365 -0.0427  0.2359 -0.1827
 2674W        W 6725   6.880   4.813   3.558 -0.0598  0.0873 -0.2931
 2675W        W 6726   2.048   2.356   1.303  0.1944 -0.0292 -0.0283
 2676W        W 6727   3.919   6.625   3.037 -0.2090  0.0655  0.3284
 2677W        W 6728   1.187   7.876  11.739 -0.1226  0.0493  0.3135
 2678W        W 6729   0.050   5.297   1.689  0.1214 -0.0094  0.0583
 2679W        W 6730   1.121   7.882   2.056  0.0075  0.1133  0.1776
 2680W        W 6731   5.679   0.386  10.621  0.3839  0.3315  0.1896
 2681W        W 6732   7.581   6.056   3.505  0.1245  0.2989 -0.2386
 2682W        W 6733   8.127   9.672   2.516  0.0860  0.3326 -0.0039
 2683W        W 6734   6.213   5.642  12.349  0.1072  0.0445 -0.1956
 2684W        W 6735   8.570   7.157   1.042 -0.1882  0.0858  0.1191
 2685W        W 6736   4.805   9.690  13.502  0.1614 -0.3025 -0.1154
 2686W        W 6737   6.643   4.417  12.360  0.2298  0.2986 -0.1163
 2687W        W 6738   3.666   7.770   4.237 -0.1329  0.4189 -0.1400
 2688W        W 6739   5.452   3.380   2.569  0.2024  0.4030 -0.0105
 2689W        W 6740   5.856   1.462  13.669 -0.1911  0.2185  0.0739
 2690W        W 6741   4.999   1.428   9.602 -0.0566 -0.2287 -0.2055
 2691W        W 6742   7.222   5.960   5.995  0.1326  0.4384  0.1630
 2692W        W 6743   7.216   1.410  12.165 -0.1653 -0.3260  0.0563
 2693W        W 6744   9.128   1.333   2.826  0.2231 -0.3474 -0.3091
 2694W        W 6745   4.130   7.560  13.367  0.0020 -0.1330  0.2416
 2695W        W 6746   9.459   4.256   0.972  0.2812  0.2901  0.2281
 2696W        W 6747   8.282   9.195  13.174  0.0507  0.1436  0.2270
 2697W        W 6748   2.302   4.664   2.540 -0.0631 -0.0976  0.1019
 2698W        W 6749   3.386   2.390   0.953 -0.0870 -0.0776 -0.0618
 2699W        W 6750   1.499   0.440  12.781  0.3330 -0.1121  0.0563
 2700W        W 6751   5.058   0.662   0.094 -0.0564 -0.2069 -0.0624
 2701W        W 6752   7.612   8.156  12.218  0.0526 -0.1841  0.1503
 2702W        W 6753   3.367   7.981   9.821 -0.4967 -0.0835  0.3369
 2703W        W 6754   5.600   7.836   1.392  0.2150  0.1007 -0.1440
 2704W        W 6755   1.546   4.131  12.416  0.2589 -0.0742  0.0005
 2705W        W 6756   7.271   7.565  10.497 -0.0006 -0.0937 -0.0542
 2706W        W 6757   0.024   2.994  13.084 -0.0736  0.2895  0.3318
 2707W        W 6758   2.403   1.424   0.575 -0.2338  0.0678  0.1179
 2708W        W 6759   2.097   2.998   1.229 -0.0290 -0.1855 -0.3493
 2709W        W 6760   2.073   2.395   0.500 -0.1317 -0.0584 -0.0673
 2710W        W 6761   8.878   1.628  13.367 -0.0073 -0.0967  0.1294
 2711W        W 6762   8.136   0.181   4.229  0.0206  0.2539 -0.1805
 2712W        W 6763   8.656   4.746   3.252  0.1340  0.2960  0.0136
 2713W        W 6764   3.048   2.655  12.518 -0.0555 -0.7145 -0.0329
 2714W        W 6765  10.009   1.444   0.010  0.0960  0.0125 -0.0375
 2715W        W 6766   0.265   8.614  13.705 -0.0733 -0.0842 -0.0992
 2716W        W 6767   3.031   4.909   3.607 -0.1012 -0.1027  0.1836
 2717W        W 6768   0.113  10.013   0.099 -0.0224  0.2480 -0.0976
 2718W        W 6769   4.261   6.042   3.687  0.4615  0.1027  0.0417
 2719W        W 6770   5.402   0.145   2.597  0.0782 -0.1760 -0.4254
 2720W        W 6771   7.236   2.714   2.911  0.1795  0.0953 -0.0188
 2721W        W 6772   5.193   3.811   2.681  0.0113  0.2634 -0.0665
 2722W        W 6773   9.573   3.985  12.223  0.2014 -0.2636 -0.0524
 2723W        W 6774   6.637   5.020   0.539 -0.1191  0.0053 -0.2596
 2724W        W 6775   4.221   6.293  13.786 -0.2380  0.2391  0.0748
 2725W        W 6776   3.181   6.314  11.096 -0.1715  0.1995 -0.1014
 2726W        W 6777   9.989   2.788   9.661  0.3967  0.0556  0.0890
 2727W        W 6778   4.046   7.280   0.290 -0.0168  0.0129  0.1306
 2728W        W 6779   3.409  10.003   1.943 -0.1022  0.1984 -0.0145
 2729W        W 6780   3.733   1.442   3.627 -0.0662  0.2445 -0.2128
 2730W        W 6781   4.222   8.732   9.570  0.1568  0.1019  0.1997
 2731W        W 6782   1.136   2.634   0.553 -0.0943  0.0053 -0.2000
 2732W        W 6783   2.827   3.455   1.249 -0.0002 -0.3451 -0.0397
 2733W        W 6784   1.333   6.828   0.608  0.0281 -0.3499  0.1290
 2734W        W 6785   7.750   5.550  11.589  0.0353 -0.2795  0.2015
 2735W        W 6786   5.863   5.295   4.042 -0.2410  0.0970  0.0024
 2736W        W 6787   7.962   5.418   2.028 -0.0614 -0.0269 -0.2968
 2737W        W 6788   7.795   6.531  11.377 -0.3902  0.0727  0.2101
 2738W        W 6789   4.895   8.602   3.697  0.1690  0.1513  0.1407
 2739W        W 6790   9.964   8.193  13.031  0.0347 -0.0806  0.0311
 2740W        W 6791   7.143   2.993   1.457 -0.3386 -0.0474 -0.0274
 2741W        W 6792   8.391   0.355  13.501 -0.2195  0.3241  0.1028
 2742W        W 6793   5.409   6.842  11.028  0.0455 -0.0593  0.2429
 2743W        W 6794   7.137   7.862   1.325  0.3781 -0.0027  0.4082
 2744W        W 6795   3.404   4.673  10.265  0.0371  0.1243  0.0445
 2745W        W 6796   1.095   6.808   2.197  0.0596 -0.1098 -0.1243
 2746W        W 6797   5.030   3.453  10.872 -0.0741  0.0717  0.1645
 2747W        W 6798   8.678   5.618   4.558  0.0229  0.1576 -0.0878
 2748W        W 6799   9.620   1.783   9.122  0.0225  0.0357 -0.4169
 2749W        W 6800   7.517   9.231  11.996  0.0853  0.0010  0.1067
 2750W        W 6801   2.944   9.138  10.017  0.0926 -0.1480 -0.0775
 2751W        W 6802   4.265   4.680   4.220 -0.4740  0.0669 -0.1129
 2752W        W 6803   3.270   6.926   0.381  0.4757  0.1050 -0.1091
 2753W        W 6804   4.249   8.383  12.736  0.0699  0.1805  0.0364
 2754W        W 6805   6.301   9.335  10.261 -0.2008 -0.2952  0.0910
 2755W        W 6806   9.995   9.537   9.733 -0.0968 -0.2880 -0.0211
 2756W        W 6807   4.914   7.245   0.480 -0.0884 -0.1642  0.1846
 2757W        W 6808   5.549   7.569   4.177 -0.4908  0.0270 -0.0600
 2758W        W 6809   9.754   3.461   0.538 -0.0154  0.2888  0.1201
 2759W        W 6810   6.741   9.362  13.743 -0.0628  0.1485  0.1530
 2760W        W 6811   9.177   9.842   1.458  0.1603  0.1765  0.3428
 2761W        W 6812   7.874   4.097  11.925 -0.2303 -0.2645 -0.3143
 2762W        W 6813   9.355   9.127   1.699  0.4225 -0.0540  0.0320
 2763W        W 6814   5.359   0.272   0.420  0.0814  0.1910 -0.2758
 2764W        W 6815   1.707   0.837   0.652 -0.0552  0.0384  0.0392
 2765W        W 6816   3.023   9.375  11.493 -0.0972 -0.0026  0.1259
 2766W        W 6817   7.982   6.907   3.755 -0.1206 -0.0341  0.5157
 2767W        W 6818   6.378   5.673   0.598  0.1255  0.1105 -0.3085
 2768W        W 6819   0.261   5.945  11.476 -0.4379 -0.3876 -0.0970
 2769W        W 6820   2.024   9.087   4.187 -0.0401  0.1666  0.1910
 2770W        W 6821   6.383   4.114  12.731 -0.1671 -0.1887 -0.0181
 2771W        W 6822   9.839   2.450   0.547 -0.3145  0.0437  0.2501
 2772W        W 6823   5.839   2.140   5.803 -0.0875 -0.1252 -0.0372
 2773W        W 6824   0.696   5.684   0.875 -0.0277 -0.3804 -0.2644
 2774W        W 6825   8.854   6.292   5.119 -0.2730  0.0874  0.0495
 2775W        W 6826   8.634   6.984   0.596 -0.1471  0.1157  0.2149
 2776W        W 6827   1.959   8.026  10.214 -0.0925  0.0454 -0.0608
 2777W        W 6828   4.600   5.596   0.505 -0.0212 -0.0890  0.1450
 2778W        W 6829   2.597   0.687  10.533  0.0053 -0.2714 -0.0095
 2779W        W 6830   9.130   8.499  10.138 -0.0132  0.0030 -0.1742
 2780W        W 6831   0.626   7.945   2.410 -0.2147  0.0487 -0.0550
 2781W        W 6832   6.749   0.156  10.045 -0.0375  0.0130 -0.0402
 2782W        W 6833   2.375   3.011  13.717 -0.0940 -0.1938 -0.0573
 2783W        W 6834   9.518   7.141   9.665  0.2804  0.2432  0.1527
 2784W        W 6835   9.330   8.840  11.583 -0.0440  0.0115 -0.0861
 2785W        W 6836   6.822   7.325   3.192 -0.2244  0.0415 -0.3693
 2786W        W 6837   8.323   2.046   4.164 -0.1520  0.4683  0.2746
 2787W        W 6838   5.849   4.050   3.897  0.0108  0.1543  0.3538
 2788W        W 6839   9.197   6.294   9.789  0.3017 -0.0009  0.0373
 2789W        W 6840   9.560   9.879  11.548 -0.1547  0.0898  0.3184
 2790W        W 6841   3.598   1.858  12.481  0.0945  0.0710 -0.1794
 2791W        W 6842   2.267   5.366   1.794  0.1239 -0.1840 -0.4711
 2792W        W 6843   7.832   3.069   3.638  0.4045  0.0318 -0.0376
 2793W        W 6844   2.089   7.498   2.252 -0.0926  0.1522 -0.0573
 2794W        W 6845   9.351   7.745   2.763  0.1171 -0.1322 -0.1385
 2795W        W 6846   8.162   3.010  13.723 -0.1202  0.0852 -0.1225
 2796W        W 6847   4.221   3.980   2.571 -0.2829 -0.1043  0.0787
 2797W        W 6848   9.202   9.768  12.972 -0.0103  0.0517  0.1100
 2798W        W 6849   8.932   8.204  10.594  0.1165  0.1582 -0.0562
 2799W        W 6850   7.212   4.430  11.194  0.1233 -0.1096  0.0058
 2800W        W 6851   3.504   9.568   2.125 -0.3210  0.3413  0.0817
 2801W        W 6852   1.991   3.423   1.488  0.0643 -0.1558 -0.1167
 2802W        W 6853   3.914   8.237   4.182 -0.0495  0.0370  0.0550
 2803W        W 6854   1.651   8.758  10.146 -0.0736 -0.2027 -0.0825
 2804W        W 6855   1.767   1.028   3.671  0.1091 -0.1595 -0.2544
 2805W        W 6856   1.141   8.597  11.077  0.2329  0.2121 -0.0366
 2806W        W 6857   9.439   3.238  12.681 -0.0453 -0.2819  0.3542
 2807W        W 6858   2.908   6.466   0.419  0.1879  0.0452 -0.0618
 2808W        W 6859   9.158   4.863  12.411 -0.0365  0.4172  0.2684
 2809W        W 6860   5.169   0.506  13.419  0.2605 -0.1573 -0.1749
 2810W        W 6861   5.243   5.375   4.084 -0.3096 -0.0108 -0.2656
 2811W        W 6862   0.291   0.441  13.676 -0.1549  0.1622 -0.1811
 2812W        W 6863   7.611   9.592  13.641 -0.2379  0.0175 -0.1709
 2813W        W 6864   0.379   6.964  13.511  0.1265 -0.1609 -0.0882
 2814W        W 6865   7.714   3.470   3.297  0.1977 -0.0774 -0.0771
 2815W        W 6866   5.501   6.931  12.076 -0.2582 -0.2080  0.0287
 2816W        W 6867   5.925   4.698  11.797  0.1080 -0.2010 -0.2611
 2817W        W 6868   7.466   0.916   9.580 -0.0374 -0.2569  0.1940
 2818W        W 6869   3.793   3.787  11.923 -0.2792  0.2970 -0.2399
 2819W        W 6870   5.888   3.270   3.351 -0.0688  0.1373  0.1739
 2820W        W 6871   2.812   1.097  10.938 -0.0480 -0.0190 -0.0051
 2821W        W 6872   0.935   7.047   0.424 -0.3536 -0.2722  0.1682
 2822W        W 6873   9.862   2.324   3.462  0.1501  0.2452 -0.1460
 2823W        W 6874   3.872   0.529   1.162 -0.0798  0.0413  0.0547
 2824W        W 6875   4.154   0.021   2.132  0.0772  0.0435 -0.3829
 2825W        W 6876   6.832   5.644   3.529 -0.1450  0.2311  0.0890
 2826W        W 6877   4.854   1.425   3.581 -0.2563 -0.1426 -0.0908
 2827W        W 6878   5.497   2.139  12.244  0.0635  0.0418  0.1416
 2828W        W 6879   7.116   0.530  12.413  0.2171  0.0606  0.0646
 2829W        W 6880   3.500   5.837   2.576  0.0188 -0.1804  0.0500
 2830W        W 6881   0.702   0.123  12.740 -0.2335  0.2598 -0.1868
 2831W        W 6882   4.794   3.052  12.526  0.3049 -0.3257 -0.0315
 2832W        W 6883   8.200   5.301  11.344 -0.2566 -0.2954  0.2162
 2833W        W 6884   8.837   5.655   1.841 -0.0286 -0.0049  0.0487
 2834W        W 6885   0.113   0.742   2.109  0.0491  0.0677 -0.1293
 2835W        W 6886   9.368   9.067   0.528  0.1238  0.2293 -0.0579
 2836W        W 6887   7.588   3.238   2.203 -0.0584  0.1764  0.2963
 2837W        W 6888   2.177   9.742   9.411 -0.1308 -0.0158 -0.1341
 2838W        W 6889   7.258   3.090   5.177  0.1701  0.2401  0.2237
 2839W        W 6890   9.488   2.311  13.662  0.1470 -0.4382  0.0669
 2840W        W 6891   4.685   7.234   2.491 -0.2660 -0.3825  0.0792
 2841W        W 6892   6.674   6.479   0.716  0.2061 -0.1158  0.1571
 2842W        W 6893   7.472   5.756   5.055 -0.0360  0.4451 -0.2616
 2843W        W 6894   9.211   6.036   0.574  0.3247 -0.1599 -0.3752
 2844W        W 6895   9.712   1.390   1.656  0.0944  0.0733 -0.0642
 2845W        W 6896   3.641   3.487  10.986 -0.0708 -0.0553 -0.2408
 2846W        W 6897   2.702   4.903  12.410  0.0596 -0.0908  0.2658
 2847W        W 6898   1.181   5.322   2.908 -0.2653  0.1783 -0.1131
 2848W        W 6899   8.549   9.883   9.229 -0.2569  0.0923  0.3726
 2849W        W 6900   2.161   9.549   4.064  0.0035 -0.0216  0.1803
 2850W        W 6901   9.832   3.575  12.464  0.0298 -0.1680  0.0735
 2851W        W 6902   5.353   2.704  10.171  0.3282  0.2535  0.3109
 2852W        W 6903   4.057   5.727   2.454 -0.1356  0.1262 -0.3868
 2853W        W 6904   6.919   5.979   9.912  0.1745  0.1343  0.3578
 2854W        W 6905   7.449   8.722   2.345 -0.0475 -0.0359 -0.0573
 2855W        W 6906   5.025   5.439   0.331 -0.0746 -0.0412  0.0800
 2856W        W 6907   9.549   3.434  11.994 -0.0486 -0.1900  0.1360
 2857W        W 6908   4.306   8.848   1.920 -0.1211  0.0311  0.2190
 2858W        W 6909   6.197  10.118   4.341 -0.3197  0.1446 -0.1165
 2859W        W 6910   4.848   2.552  11.052  0.4077 -0.2562 -0.1095
 2860W        W 6911   5.828   5.701  10.153  0.3503  0.1858  0.0120
 2861W        W 6912   4.691   8.273  13.216  0.0128  0.0857 -0.0095
 2862W        W 6913   2.647   8.644   3.719 -0.0383  0.1767 -0.0653
 2863W        W 6914   4.727   9.764   0.548  0.1140  0.0748 -0.0719
 2864W        W 6915   5.230   3.280  13.324 -0.2816  0.1284  0.0920
 2865W        W 6916   2.912   3.110   0.605  0.1083 -0.2376  0.2745
 2866W        W 6917   0.407   5.453  13.564  0.0031  0.3492  0.1513
 2867W        W 6918   0.225   1.085  10.600  0.0456  0.0877 -0.1755
 2868W        W 6919   2.248   5.890  11.583 -0.3928  0.2800 -0.0368
 2869W        W 6920   6.900   2.207  10.134  0.0920 -0.1877  0.1599
 2870W        W 6921   5.632   1.332  12.507  0.0878  0.3693  0.0833
 2871W        W 6922   0.088   1.197   4.498 -0.0619  0.0755 -0.0643
 2872W        W 6923   6.394   3.047   3.169 -0.1359 -0.1257 -0.1680
 2873W        W 6924   1.303   9.630   0.780 -0.1043  0.0250 -0.1631
 2874W        W 6925   6.903   5.304   4.654 -0.2816  0.1569 -0.2171
 2875W        W 6926   9.776   9.441   0.648 -0.0382  0.2584  0.3683
 2876W        W 6927   9.414   0.825   5.243 -0.2151  0.2219  0.0359
 2877W        W 6928   5.061   0.948  11.814  0.0457  0.0007 -0.0316
 2878W        W 6929   0.749   1.267   3.854  0.1835  0.0924 -0.1945
 2879W        W 6930   2.753   5.604   1.925 -0.1777  0.2029  0.1222
 2880W        W 6931   5.454   3.354   1.627  0.1804  0.0731  0.1629
 2881W        W 6932   4.182   4.637  12.548  0.0080  0.0918  0.2596
 2882W        W 6933   6.023   6.362   9.905  0.1763  0.0725 -0.2106
 2883W        W 6934   7.554   0.833  13.254 -0.2649 -0.0240 -0.0435
 2884W        W 6935   7.966   8.335   4.080 -0.3298 -0.1446 -0.1468
 2885W        W 6936   1.684   6.606   9.956 -0.0146  0.0253 -0.1829
 2886W        W 6937   1.525   0.582   4.069 -0.1438 -0.2288 -0.2445
 2887W        W 6938   9.428   2.920   2.285  0.0545 -0.0621 -0.1697
 2888W        W 6939   7.707   6.952   5.176 -0.1138 -0.1669  0.0223
 2889W        W 6940   6.650   1.108   0.375 -0.2161  0.0663  0.2757
 2890W        W 6941   0.582   2.564  13.596  0.0663  0.0043  0.3787
 2891W        W 6942   2.561   5.078   0.694 -0.2362 -0.1603  0.0154
 2892W        W 6943   7.969   5.906   3.804  0.2992  0.0110 -0.1038
 2893W        W 6944   2.240   4.788  10.881 -0.2386  0.2543  0.2362
 2894W        W 6945   9.462   3.950   5.029 -0.0674 -0.1538  0.2465
 2895W        W 6946  10.179   5.265  12.668  0.2100  0.2292  0.1446
 2896W        W 6947   4.273   2.535   2.149  0.3890 -0.2741 -0.0988
 2897W        W 6948   8.585   9.718   0.640 -0.1294 -0.1548 -0.0256
 2898W        W 6949   4.424   1.193   2.194 -0.1630 -0.0515 -0.0864
 2899W        W 6950   5.124   9.663   3.678 -0.0335 -0.1315 -0.0395
 2900W        W 6951   2.370   0.047   9.886  0.1874 -0.0467 -0.0357
 2901W        W 6952   6.416   9.575  10.675 -0.0729 -0.3391 -0.0701
 2902W        W 6953   8.661   5.163  10.444  0.1231 -0.0598  0.1234
 2903W        W 6954   9.861   9.472  11.209 -0.2411  0.1910 -0.1792
 2904W        W 6955   8.678   9.980   1.510  0.1624 -0.2968  0.0473
 2905W        W 6956   5.118   7.995   1.511 -0.0208 -0.1640  0.0034
 2906W        W 6957   5.832   3.613  11.800  0.1447 -0.2954 -0.2040
 2907W        W 6958   2.320   8.381   0.416  0.2934 -0.0482 -0.3436
 2908W        W 6959   7.707  10.131   1.426  0.1316 -0.0296 -0.0020
 2909W        W 6960   4.549  10.054  11.837 -0.0978 -0.1160  0.1916
 2910W        W 6961   6.519   4.775  10.452 -0.0744  0.1339  0.0598
 2911W        W 6962   0.789   8.171   3.231  0.1854  0.1398  0.0212
 2912W        W 6963   3.766   7.953   3.808  0.2515 -0.1214  0.1049
 2913W        W 6964   3.265   7.573  10.925  0.0826  0.1365 -0.2701
 2914W        W 6965   6.220   8.025  13.094 -0.0237 -0.2082 -0.1897
 2915W        W 6966   5.246   5.149   3.355  0.0975  0.0412 -0.1186
 2916W        W 6967   4.881   8.281   8.805  0.0210  0.1240 -0.1668
 2917W        W 6968   8.378   8.078   1.996 -0.0636  0.1744  0.0510
 2918W        W 6969   8.479   4.116  12.471 -0.1180 -0.3015  0.1205
 2919W        W 6970   1.137   5.413  10.767 -0.0331 -0.0406  0.1961
 2920W        W 6971   2.370   1.086  10.728  0.2398  0.1720 -0.2436
 2921W        W 6972   6.272   9.697  11.670  0.0418  0.1311  0.0116
 2922W        W 6973   7.916   7.302  11.131  0.1970 -0.2567  0.1336
 2923W        W 6974   7.150   8.850   0.684  0.0095  0.1366 -0.1385
 2924W        W 6975   4.590   3.564  11.572  0.3206 -0.0629  0.1571
 2925W        W 6976   1.794   9.889   1.959  0.1873 -0.0309  0.0425
 2926W        W 6977   4.006   0.477   3.411 -0.3019 -0.3782  0.3564
 2927W        W 6978   6.450   5.398  11.258  0.1295 -0.3736 -0.2910
 2928W        W 6979   8.129   6.678   4.166 -0.1037  0.0275  0.0596
 2929W        W 6980   3.971   7.894   2.238 -0.1058 -0.1400  0.0597
 2930W        W 6981   7.045   8.227   2.881  0.0993  0.1503 -0.1429
 2931W        W 6982   1.941   4.916   1.861  0.0441  0.1230  0.3200
 2932W        W 6983   1.082   4.206  11.614  0.2418 -0.3280 -0.4535
 2933W        W 6984   6.595   8.366  10.573  0.0310 -0.1940  0.0984
 2934W        W 6985   2.638   4.346   2.699  0.0031 -0.2050 -0.0981
 2935W        W 6986   3.117   0.219   1.978 -0.1096  0.0691 -0.1892
 2936W        W 6987   7.573   9.988   2.635  0.0319  0.1147  0.2825
 2937W        W 6988   6.183   4.674  12.281 -0.0969  0.0237  0.0461
 2938W        W 6989   6.644   1.087   8.948  0.2489 -0.1134 -0.2556
 2939W        W 6990   7.733   9.697   1.145 -0.2878  0.0544  0.0513
 2940W        W 6991   7.992   1.459   5.100  0.0649  0.0963 -0.0993
 2941W        W 6992   9.447   2.771  12.802  0.0319  0.0637 -0.3534
 2942W        W 6993   0.392   1.593   1.831 -0.1644 -0.0313  0.0536
 2943W        W 6994  10.086   2.681   2.687 -0.0813 -0.3581 -0.1027
 2944W        W 6995   4.537   0.228   3.456 -0.0175 -0.1135 -0.1480
 2945W        W 6996   2.694   1.588  11.051 -0.1099  0.3225 -0.2921
 2946W        W 6997   6.610   1.264   1.749 -0.2362 -0.1637  0.0972
 2947W        W 6998   6.835   2.333   1.141  0.1376 -0.1738 -0.2458
 2948W        W 6999   0.432   3.483   2.844 -0.0026 -0.1612 -0.1624
 2949W        W 7000   8.181   9.250  12.406 -0.1808  0.0969  0.1815
 2950W        W 7001   7.147   3.456   5.607 -0.3224 -0.2066 -0.0617
 2951W        W 7002  10.169   9.645   4.408 -0.2833 -0.0643 -0.3884
 2952W        W 7003   0.281   3.956  12.109 -0.1760 -0.1121  0.1314
 2953W        W 7004   8.664   1.525  10.041  0.0708 -0.3008  0.0581
 2954W        W 7005   5.639   2.621  12.991 -0.0689  0.1716 -0.1737
 2955W        W 7006   6.870   1.562  13.149  0.1158  0.1322 -0.3325
 2956W        W 7007   0.087   8.954   4.009 -0.0161  0.1697 -0.1090
 2957W        W 7008   5.393   2.793  11.146  0.1604 -0.0666  0.1053
 2958W        W 7009   1.415   8.379   1.250  0.1165 -0.2141 -0.0635
 2959W        W 7010   5.566   5.485  10.995 -0.0356 -0.2031 -0.0535
 2960W        W 7011   0.971   1.520  10.664  0.1631  0.2034 -0.1503
 2961W        W 7012   9.784   0.376  12.971  0.0737  0.0672 -0.0746
 2962W        W 7013   4.970   0.010   2.355 -0.1266  0.0710  0.1794
 2963W        W 7014   8.972   5.798  13.157 -0.0794  0.1561 -0.0633
 2964W        W 7015   6.888   0.039   1.582  0.0416 -0.0081 -0.0441
 2965W        W 7016   5.104   0.459   8.519  0.1329 -0.0791 -0.0954
 2966W        W 7017   2.915   1.459   9.819 -0.1097 -0.0720  0.0711
 2967W        W 7018   3.863   3.401   2.065 -0.2774 -0.1487 -0.2396
 2968W        W 7019   3.211   1.722  11.154  0.2034  0.5272 -0.4806
 2969W        W 7020   4.930   2.019   0.456 -0.0022 -0.3704 -0.0608
 2970W        W 7021   6.223   4.380   9.627  0.0965  0.1331 -0.0139
 2971W        W 7022   9.603   8.696  12.263  0.0821  0.0287  0.2479
 2972W        W 7023   3.895   5.146  11.458 -0.1558 -0.0697 -0.2207
 2973W        W 7024   3.603   8.359   2.509  0.0964 -0.0954  0.1599
 2974W        W 7025   6.204   9.500   9.391  0.1948  0.2123 -0.1257
 2975W        W 7026   8.009   0.382   2.205 -0.2948  0.1740 -0.1014
 2976W        W 7027   9.029   4.839  10.614 -0.0522  0.2277  0.2313
 2977W        W 7028   5.571   0.814   3.208 -0.0727  0.1898  0.2856
 2978W        W 7029   3.893   9.896  11.559 -0.0112 -0.3095 -0.3745
 2979W        W 7030   2.747   6.915   0.352 -0.0940  0.1279 -0.2723
 2980W        W 7031   0.370   5.066   0.160 -0.1268  0.0294 -0.1136
 2981W        W 7032   8.897   4.000   0.107  0.0348  0.0127 -0.0778
 2982W        W 7033  10.131   4.383   1.679  0.1632  0.1765 -0.2689
 2983W        W 7034   9.115   9.644   9.330  0.0195  0.1942 -0.3013
 2984W        W 7035   5.814   6.598   9.416 -0.0262 -0.1059 -0.2594
 2985W        W 7036   7.854   7.045   4.260 -0.0973  0.0260 -0.0009
 2986W        W 7037   3.959   0.976   2.259  0.3982  0.1262  0.0451
 2987W        W 7038   2.925   8.212   3.613  0.1404  0.4292  0.0939
 2988W        W 7039   9.524   7.745  12.014 -0.0823  0.0480 -0.0563
 2989W        W 7040   4.000   3.812   1.290  0.1784  0.1777  0.1499
 2990W        W 7041   7.039  10.128  12.395  0.0068 -0.1909 -0.0777
 2991W        W 7042   8.871   2.274   1.968  0.4503  0.1819  0.2230
 2992W        W 7043   5.533   6.128   3.156 -0.2519 -0.3441  0.0324
 2993W        W 7044   3.696   1.534  13.672 -0.1186 -0.0102 -0.0247
 2994W        W 7045   4.010   0.397   0.256 -0.0503 -0.2363  0.0534
 2995W        W 7046   1.352   2.898   3.657 -0.0202 -0.2247  0.0124
 2996W        W 7047   3.796   1.715  11.293  0.1985  0.1069  0.1200
 2997W        W 7048   6.532   4.162  10.148 -0.2554 -0.0966  0.0537
 2998W        W 7049   7.676   8.805  11.609 -0.2026  0.0270  0.0353
 2999W        W 7050   7.948   2.310   4.097 -0.1492 -0.0838  0.0498
 3000W        W 7051   9.692   9.081   2.601  0.1120 -0.1001 -0.0692
 3001W        W 7052   8.900   8.927   0.757  0.2002 -0.0278  0.0836
 3002W        W 7053   2.940   9.935   0.596 -0.2388 -0.5200  0.1905
 3003W        W 7054   0.791   7.583   0.326 -0.0244  0.1718 -0.1385
 3004W        W 7055   7.586   4.398   4.736  0.1742 -0.0007 -0.0463
 3005W        W 7056   1.503   7.800   0.762 -0.2916 -0.0968  0.0139
 3006W        W 7057   6.508   5.150   4.985 -0.1868 -0.0763  0.1177
 3007W        W 7058   9.913   7.082  11.549  0.0321 -0.0498  0.1165
 3008W        W 7059   7.914   2.979  10.830  0.3808 -0.2163  0.1468
 3009W        W 7060   0.717   8.881   0.086 -0.1342  0.2802 -0.2151
 3010W        W 7061   3.369   3.210   4.770 -0.1706  0.0145 -0.0468
 3011W        W 7062   0.355   5.177  10.992  0.0661 -0.0716 -0.1579
 3012W        W 7063   3.118   0.013  10.990  0.2417 -0.1632 -0.0583
 3013W        W 7064   8.430   6.544  13.512  0.1462  0.1397  0.0370
 3014W        W 7065   0.035   2.994   8.745 -0.1435  0.2302  0.0220
 3015W        W 7066   4.264   6.781   3.494 -0.1247  0.2031 -0.3397
 3016W        W 7067   8.405   7.252  11.106  0.1671 -0.1534  0.0617
 3017W        W 7068   5.991   2.397  13.378 -0.0394 -0.2528  0.2910
 3018W        W 7069   8.674   9.807  12.103 -0.0670  0.1063 -0.2024
 3019W        W 7070   6.194   2.662   1.739 -0.1934  0.0310  0.3792
 3020W        W 7071   4.415   9.734  12.188 -0.0633  0.1016  0.4417
 3021W        W 7072   3.325   0.560   1.030  0.3185  0.0314 -0.3411
 3022W        W 7073   2.293   7.915   3.936  0.0849  0.1129 -0.3969
 3023W        W 7074   8.424   6.592   3.802 -0.0970  0.2566 -0.3338
 3024W        W 7075   4.026   7.513   2.975  0.1449 -0.1629  0.1286
 3025W        W 7076   0.404   5.125   9.931  0.0459 -0.3281  0.1876
 3026W        W 7077   2.681   3.053  12.405  0.1761  0.1578 -0.0652
 3027W        W 7078   5.156   2.305   4.684 -0.0315 -0.1460 -0.1325
 3028W        W 7079   2.099   3.241  11.548 -0.2010 -0.1674  0.0772
 3029W        W 7080   9.009   5.833   0.121 -0.0744 -0.1289 -0.0138
 3030W        W 7081   9.913   5.432  13.192  0.1786  0.2682 -0.0280
 3031W        W 7082   6.476   3.032  10.462  0.2926  0.3204 -0.0300
 3032W        W 7083   8.593   9.374  10.603  0.2248  0.2173 -0.1902
 3033W        W 7084   1.255   5.209  13.887 -0.0473 -0.0506  0.1544
 3034W        W 7085   8.172   9.696   8.313 -0.0645 -0.0228 -0.0133
 3035W        W 7086   0.068   2.158   0.418 -0.0310 -0.2090 -0.1076
 3036W        W 7087   9.971   4.792   0.672 -0.4377 -0.1833  0.0838
 3037W        W 7088   3.244   1.119   3.520 -0.0335  0.3205 -0.0871
 3038W        W 7089   8.623   2.641   5.155 -0.1501 -0.2653  0.0685
 3039W        W 7090   9.869   8.961   0.867 -0.0137 -0.0483 -0.0789
 3040W        W 7091   8.879   5.553  11.348 -0.0746  0.1866  0.1583
 3041W        W 7092   1.414   7.475  12.917  0.0391  0.1900 -0.0171
 3042W        W 7093   4.908   9.789  12.111  0.0629 -0.0871  0.0212
 3043W        W 7094   3.272   2.683  13.040  0.1172 -0.0683 -0.1272
 3044W        W 7095   4.053   6.108   2.117 -0.1901  0.1728  0.0138
 3045W        W 7096   5.469   8.084   0.619 -0.1170  0.1601 -0.0523
 3046W        W 7097   2.710   6.404  10.974 -0.1560 -0.0662 -0.1643
 3047W        W 7098   2.143   8.483  13.912  0.1916 -0.0554  0.2747
 3048W        W 7099   7.337   3.635   2.995 -0.2167  0.1239  0.3201
 3049W        W 7100   7.045   7.628   4.945 -0.2953 -0.0217  0.0302
 3050W        W 7101   7.250   1.279   4.140  0.2002  0.0138  0.1640
 3051W        W 7102   3.125   1.839  12.611  0.0723 -0.0008  0.1754
 3052W        W 7103   0.376   8.379   4.339  0.1202  0.0317  0.1019
 3053W        W 7104   6.540   1.683   2.641  0.0326  0.0841  0.0293
 3054W        W 7105   9.472   3.516   2.287 -0.0069  0.0748 -0.0990
 3055W        W 7106   3.542   0.898   4.443  0.1783  0.0278 -0.1593
 3056W        W 7107   8.181   6.868   4.968  0.0169  0.1173 -0.1552
 3057W        W 7108   7.369   2.416  10.062  0.1705 -0.0228 -0.3580
 3058W        W 7109   6.083   7.793   9.344  0.0669 -0.0520 -0.1069
 3059W        W 7110   5.750   7.662  11.253 -0.0232 -0.0440 -0.3072
 3060W        W 7111   6.313   6.598  12.628  0.0181 -0.2470  0.0806
 3061W        W 7112   2.956   6.011   0.755  0.0599  0.0705  0.1733
 3062W        W 7113   5.672  10.099  13.564 -0.2363  0.1470 -0.1094
 3063W        W 7114   4.708   5.959  12.712 -0.3473 -0.3640 -0.1439
 3064W        W 7115   8.507   2.528  13.605 -0.0929  0.0114 -0.2533
 3065W        W 7116   8.157   2.011  10.813  0.2020  0.1360 -0.0722
 3066W        W 7117   6.784   6.022   2.959  0.0291  0.1204 -0.0601
 3067W        W 7118   8.398   6.111   3.856  0.0887  0.0040  0.0288
 3068W        W 7119   4.247   4.010   4.669 -0.3393 -0.0620 -0.2834
 3069W        W 7120   2.193   2.981  11.104 -0.0316  0.4141  0.2381
 3070W        W 7121   2.635   0.592  12.136  0.0791 -0.3675 -0.2065
 3071W        W 7122   6.159   5.472  13.416 -0.1517 -0.0987  0.0628
 3072W        W 7123   4.792   3.278   4.387  0.0062 -0.2805 -0.0440
 3073W        W 7124   9.564   3.037  11.074  0.0660  0.3993  0.0300
 3074W        W 7125   7.018   9.089   2.316 -0.1139  0.0776 -0.2460
 3075W        W 7126   8.818   6.640  11.698 -0.2317  0.2147 -0.1388
 3076W        W 7127   4.846   5.696  10.307  0.1490 -0.0334  0.2379
 3077W        W 7128   5.941   4.071   0.182 -0.1702 -0.2454 -0.4480
 3078W        W 7129   3.189   8.698   2.289 -0.0809  0.3995 -0.0308
 3079W        W 7130   1.611   1.888   9.817  0.0515 -0.3789 -0.1160
 3080W        W 7131   6.067   4.106   2.116  0.1631  0.0625 -0.0279
 3081W        W 7132   6.582   9.003   9.982  0.1059 -0.0275 -0.2750
 3082W        W 7133   5.363   7.113  13.116  0.3093  0.1522  0.0898
 3083W        W 7134   1.050   5.122  11.596 -0.3183 -0.1330  0.0081
 3084W        W 7135   7.776   3.935   0.670 -0.1923 -0.2040 -0.2286
 3085W        W 7136   6.299   5.844   4.111  0.1050 -0.2333 -0.0820
 3086W        W 7137   2.163   0.829  12.101 -0.0766  0.1898 -0.0049
 3087W        W 7138   5.707   2.399   5.307 -0.1873 -0.0611  0.0787
 3088W        W 7139   7.805   9.682  12.326  0.1790 -0.0148 -0.0238
 3089W        W 7140   1.585   2.203   0.438 -0.1173  0.2052  0.1563
 3090W        W 7141   6.565   6.796  11.034 -0.1778  0.0177 -0.0202
 3091W        W 7142   2.717   0.860   4.769  0.2466  0.3858  0.1203
 3092W        W 7143   4.160   8.625  10.747  0.0707  0.0012 -0.0169
 3093W        W 7144   8.272   0.740   0.163  0.2854 -0.2487 -0.1440
 3094W        W 7145   8.594   5.239   1.615 -0.1610  0.2238 -0.0287
 3095W        W 7146   9.736   3.767  13.398 -0.3576 -0.1396  0.0023
 3096W        W 7147   0.821   2.772  10.757 -0.2487 -0.0005  0.0408
 3097W        W 7148   1.958   8.844   0.596 -0.1848  0.0450  0.0556
 3098W        W 7149   1.185   0.160  12.437  0.0235  0.4820  0.1038
 3099W        W 7150   7.526   0.358   1.642 -0.4692 -0.0057 -0.0215
 3100W        W 7151   0.619   1.912   0.397  0.0400  0.0019 -0.0342
 3101W        W 7152   8.834   7.279  11.410 -0.0176 -0.2345  0.1686
 3102W        W 7153   5.084   9.273   9.201 -0.2615  0.1250  0.1837
 3103W        W 7154   5.509   9.233   1.338 -0.0645 -0.2475 -0.2432
 3104W        W 7155   2.301   3.421   1.105 -0.3117 -0.0485 -0.1528
 3105W        W 7156   3.352   4.880   1.444 -0.1083  0.2045 -0.0850
 3106W        W 7157   2.190   3.600   0.155  0.2618  0.1153  0.1889
 3107W        W 7158   7.136   5.087   0.498 -0.0307 -0.6024 -0.1068
 3108W        W 7159   2.934   6.182  13.655 -0.3627 -0.1594  0.0181
 3109W        W 7160   5.356   6.618   1.158  0.0151  0.1904  0.0213
 3110W        W 7161   2.869   9.744  13.290  0.0473 -0.2157 -0.0030
 3111W        W 7162   5.782   2.990   0.212 -0.3419 -0.2791 -0.0954
 3112W        W 7163   3.195   3.388   5.230 -0.1820  0.3269  0.1568
 3113W        W 7164   7.413   0.317   4.980 -0.1934  0.0029 -0.1084
 3114W        W 7165   5.446   8.790  10.126  0.2596  0.0802 -0.1404
 3115W        W 7166   4.790   3.226  13.736  0.1777 -0.0126 -0.0910
 3116W        W 7167   3.429   9.975   3.203 -0.2046 -0.1000 -0.1219
 3117W        W 7168   9.768   9.070  11.937 -0.2661 -0.1145 -0.1618
 3118W        W 7169   7.015   6.572   1.536  0.3190  0.3271 -0.0794
 3119W        W 7170   5.820   0.191   0.600 -0.1470 -0.1657  0.0569
 3120W        W 7171   8.185   3.901   1.248 -0.2478  0.0075 -0.0598
 3121W        W 7172   5.645   4.263  13.134  0.0806 -0.1527 -0.0924
 3122W        W 7173   3.297   0.040   3.774  0.1221 -0.3148  0.0033
 3123W        W 7174   0.308   4.988   3.768 -0.0336 -0.1471  0.0246
 3124W        W 7175   8.611   9.952   2.080  0.1034 -0.2365 -0.1188
 3125W        W 7176   7.635   6.469   0.252 -0.0996  0.1411 -0.1323
 3126W        W 7177   8.729   5.259   0.796  0.4838  0.2240  0.1264
 3127W        W 7178   3.204   1.181  10.142  0.0655  0.1011 -0.1160
 3128W        W 7179   2.972   0.610  13.195  0.0291  0.2617  0.2085
 3129W        W 7180   2.936   4.096  13.008 -0.1644 -0.1570 -0.1306
 3130W        W 7181   6.792   6.911  12.606  0.2860 -0.2518 -0.0447
 3131W        W 7182   4.781   5.644   5.558 -0.3280 -0.0794 -0.2095
 3132W        W 7183   7.429   9.285   3.463 -0.0084 -0.1220 -0.3394
 3133W        W 7184   4.884   7.680   0.236 -0.1040 -0.0685  0.1230
 3134W        W 7185   6.355   2.751   0.665 -0.1834 -0.3148  0.2653
 3135W        W 7186   9.036   3.454   3.748 -0.3529  0.1774  0.0071
 3136W        W 7187   9.743   9.413  13.709  0.3278 -0.3379 -0.0552
 3137W        W 7188   6.324   9.504   0.095  0.0439 -0.3182  0.0211
 3138W        W 7189   1.222   1.383   3.530  0.2109  0.1584 -0.1405
 3139W        W 7190   3.858   5.644  10.764 -0.1423 -0.2524 -0.1083
 3140W        W 7191   0.457   2.554  13.063 -0.0225  0.0738  0.0871
 3141W        W 7192   7.956   2.793  13.318 -0.0080 -0.1614 -0.0526
 3142W        W 7193   3.485   8.084  11.780 -0.0418  0.2502  0.2269
 3143W        W 7194   9.858   0.569   9.877 -0.0902  0.1798  0.2445
 3144W        W 7195   0.535   2.967  13.318  0.1334 -0.1048  0.0799
 3145W        W 7196  10.070   6.890   2.258 -0.0370  0.1528 -0.1153
 3146W        W 7197   5.144   1.329  10.536  0.0160 -0.2108 -0.0044
 3147W        W 7198   1.289   2.177   4.820 -0.1878  0.1479  0.1241
 3148W        W 7199   5.094   4.487  12.275 -0.2598  0.0538  0.2361
 3149W        W 7200   8.411   0.673   0.661  0.1168 -0.4185  0.3320
 3150W        W 7201   2.350   1.955  13.637  0.1982  0.1892  0.0624
 3151W        W 7202   2.820   1.697   9.023  0.2492  0.0833  0.0111
 3152W        W 7203   8.250   2.772  12.872  0.0978  0.0568  0.0455
 3153W        W 7204   7.995   3.262   4.096  0.0975 -0.4193 -0.0601
 3154W        W 7205   9.416   2.166   9.437 -0.2903  0.1668  0.0303
 3155W        W 7206   8.071   8.960  11.399  0.0186  0.0327  0.3448
 3156W        W 7207   8.112   2.353   1.939  0.0305  0.0427  0.0452
 3157W        W 7208   4.840   3.697   0.858  0.1154  0.0074  0.2200
 3158W        W 7209   2.022   9.739   0.167  0.1622  0.1116 -0.0589
 3159W        W 7210   1.132   9.641  11.748  0.0988  0.1810  0.2140
 3160W        W 7211   5.273   0.343   2.109 -0.1929 -0.2161 -0.2427
 3161W        W 7212   3.454   6.856   0.863  0.2985 -0.4425  0.0764
 3162W        W 7213   3.470   9.272   9.297 -0.0264 -0.0985 -0.1173
 3163W        W 7214   3.539   3.348  12.038 -0.2702 -0.1219 -0.0532
 3164W        W 7215   8.963   3.205  12.170 -0.0789 -0.1888  0.1337
 3165W        W 7216   4.018   3.461   2.641 -0.3071 -0.1001  0.1084
 3166W        W 7217   5.681   5.067   3.202  0.3154 -0.2536  0.0093
 3167W        W 7218   6.368   7.882   3.638 -0.1047  0.0475 -0.2346
 3168W        W 7219   4.895   1.414   0.474 -0.4249 -0.0200  0.1253
 3169W        W 7220   0.171   5.673  10.720 -0.0424 -0.0113  0.0901
 3170W        W 7221   6.610   1.160   9.934  0.1333  0.4334 -0.1264
 3171W        W 7222   8.446   1.686  10.485 -0.0363 -0.2143  0.2637
 3172W        W 7223   7.949   6.022  13.416 -0.3643 -0.1240 -0.0693
 3173W        W 7224   8.310   0.129   4.669  0.1497  0.1101 -0.1156
 3174W        W 7225   3.480   3.393   2.427  0.0308  0.1602 -0.0657
 3175W        W 7226  10.129   1.377  12.644 -0.1133  0.1599 -0.2404
 3176W        W 7227   6.637   4.117   3.498 -0.1095 -0.2925 -0.0523
 3177W        W 7228   3.733   0.607   0.645  0.1173 -0.1745 -0.1228
 3178W        W 7229   5.701   6.497   1.955  0.2167 -0.1882  0.3118
 3179W        W 7230   3.584   5.276   2.174  0.1320  0.1007  0.1989
 3180W        W 7231   0.452   4.668  10.915 -0.0229  0.2133  0.0901
 3181W        W 7232   8.333   1.074  10.732  0.2561 -0.1727 -0.1400
 3182W        W 7233   0.100   3.760  10.903  0.1134  0.0269  0.2122
 3183W        W 7234   5.765   9.337   9.702  0.1066  0.2032  0.2214
 3184W        W 7235   7.145   2.137   0.800  0.3736 -0.1313 -0.1165
 3185W        W 7236   7.909   5.736   4.501 -0.2294 -0.1156 -0.0380
 3186W        W 7237   3.769   8.733  13.072  0.1880  0.5127  0.3334
 3187W        W 7238   3.834   9.512  10.218  0.2142  0.3114 -0.0021
 3188W        W 7239   6.033   4.555  13.160 -0.1779  0.0826  0.0452
 3189W        W 7240   7.621   6.441  10.950  0.3479  0.1501  0.3196
 3190W        W 7241   8.363   8.528   0.708 -0.0495  0.0188 -0.0146
 3191W        W 7242   5.862   4.892  12.721  0.2081 -0.1900  0.2536
 3192W        W 7243   0.468   7.525  12.929 -0.3358  0.0981 -0.3412
 3193W        W 7244   7.384   1.978   1.737 -0.2702  0.1166 -0.1108
 3194W        W 7245   5.347   1.944   4.256  0.0609 -0.3125  0.1734
 3195W        W 7246   5.508   9.241   3.386 -0.1330 -0.1122 -0.0667
 3196W        W 7247   1.232   3.260  13.086 -0.0128 -0.2023  0.1529
 3197W        W 7248   1.052   7.739   2.509 -0.3865  0.2366  0.0717
 3198W        W 7249  10.070   4.121  12.313  0.1919 -0.3115 -0.2983
 3199W        W 7250  10.067   3.309   1.595 -0.3678 -0.0288 -0.0411
 3200W        W 7251   6.164   1.749   5.586 -0.4693 -0.0574  0.0730
 3201W        W 7252   5.759   0.399  12.266  0.0391 -0.3735  0.1987
 3202W        W 7253   9.355   7.170  13.806 -0.1784 -0.0258 -0.0370
 3203W        W 7254   5.798   8.726   9.766 -0.2151 -0.2689  0.0979
 3204W        W 7255   4.854   9.056  12.704 -0.0787 -0.0490 -0.3962
 3205W        W 7256   0.609   9.977  11.982 -0.1103 -0.1135 -0.1385
 3206W        W 7257   6.647   6.988  11.496 -0.2523 -0.0683  0.0790
 3207W        W 7258   8.566   9.729  10.121 -0.2539  0.0616 -0.1840
 3208W        W 7259   3.265   8.387   9.542 -0.4528 -0.1394 -0.1692
 3209W        W 7260   8.242   0.884   1.825 -0.2257 -0.1254  0.1382
 3210W        W 7261   2.029   4.049  13.897 -0.1598 -0.2434 -0.0120
 3211W        W 7262   1.630   1.176   1.075  0.4425  0.3413  0.1008
 3212W        W 7263   0.621  10.128   4.705  0.0609 -0.0304 -0.0982
 3213W        W 7264   7.456   3.773  11.179  0.0074 -0.3138  0.0089
 3214W        W 7265   2.858   0.949   9.789 -0.3793  0.5075  0.2662
 3215W        W 7266   5.041   8.362   9.292  0.0188  0.0123  0.0286
 3216W        W 7267   6.342   5.872   2.807  0.3956  0.0208  0.0532
 3217W        W 7268   0.889   4.634  10.361  0.0166 -0.2875  0.0331
 3218W        W 7269   0.133   1.173   9.305 -0.1317  0.0891 -0.0021
 3219W        W 7270   7.140   8.526  10.679 -0.0587 -0.0805 -0.1909
 3220W        W 7271   1.097   6.461  10.097 -0.1850  0.0063  0.1144
 3221W        W 7272   0.832   8.688  11.716  0.3100 -0.0360 -0.1319
 3222W        W 7273   8.959   2.293  10.583 -0.2075 -0.0822 -0.1968
 3223W        W 7274   7.825   1.848   3.867 -0.0154 -0.4223 -0.1737
 3224W        W 7275   0.863   8.621  10.661  0.0132  0.3372 -0.0036
 3225W        W 7276   2.232   6.505   9.645  0.0957 -0.0861  0.0071
 3226W        W 7277   6.240   6.926  11.853  0.0074 -0.0096  0.2081
 3227W        W 7278   7.357   5.414  10.729 -0.1145 -0.0741  0.2239
 3228W        W 7279   5.159   9.774   9.937  0.0323 -0.1771 -0.1664
 3229W        W 7280   9.336   5.443   2.191 -0.1681  0.2477  0.3538
 3230W        W 7281   9.593   6.546   2.810  0.0336 -0.1781 -0.2868
 3231W        W 7282   5.677   6.947  10.553  0.0925 -0.0164 -0.2635
 3232W        W 7283   2.053   8.023   0.133 -0.0188  0.1251  0.1154
 3233W        W 7284   5.255   6.387  11.148 -0.2055 -0.0977  0.0826
 3234W        W 7285   3.586   0.502   9.474  0.2173 -0.0130 -0.3501
 3235W        W 7286   1.026   3.228   3.627  0.1664 -0.0556  0.4902
 3236W        W 7287   1.878   1.159   9.783 -0.0012  0.0196 -0.1459
 3237W        W 7288   0.497   1.724  11.617  0.1429 -0.1510 -0.2639
 3238W        W 7289   0.321   2.184   2.122  0.1077 -0.1435 -0.1829
 3239W        W 7290   9.605   8.886   3.654  0.0538  0.2708  0.1484
 3240W        W 7291   6.759   2.453   0.610 -0.1627 -0.0470  0.0985
 3241W        W 7292  10.114   7.064  13.869 -0.4211 -0.0661  0.1647
 3242W        W 7293   5.462   5.575   3.173 -0.0115 -0.1482 -0.1338
 3243W        W 7294   7.080   0.697   3.457  0.0687 -0.1198  0.1585
 3244W        W 7295   8.420   9.404   4.070  0.1995  0.2397 -0.2819
 3245W        W 7296   7.919   0.999   9.869  0.0566 -0.3022 -0.1705
 3246W        W 7297   9.498   8.641   9.787 -0.2113 -0.3124 -0.1630
 3247W        W 7298   6.673   0.924  13.822 -0.2536  0.3660 -0.0589
 3248W        W 7299   7.287   6.473   9.714  0.2241 -0.1460  0.2205
 3249W        W 7300   0.333   0.017  13.375 -0.0699 -0.3027 -0.1515
 3250W        W 7301   4.787  10.115   3.749  0.0490  0.2117  0.2796
 3251W        W 7302   1.009   5.786  13.870 -0.0362 -0.1775 -0.2597
 3252W        W 7303   9.233   2.473  13.161  0.0460  0.0312 -0.0021
 3253W        W 7304   2.469   7.136  13.304 -0.1289  0.2453  0.1275
 3254W        W 7305   4.708   0.208  11.471 -0.0963 -0.2533 -0.2292
 3255W        W 7306   8.259   1.102   4.058  0.2280  0.0034 -0.1638
 3256W        W 7307   1.906   1.581   0.228  0.0237  0.0560 -0.0991
 3257W        W 7308   7.350   7.377  10.016  0.0933  0.1515  0.4281
 3258W        W 7309   5.341   6.706  11.510  0.1724 -0.2866  0.1420
 3259W        W 7310   9.311   7.249  12.301  0.1003  0.1623  0.1259
 3260W        W 7311   5.893   4.253  12.033  0.0254 -0.1874  0.0807
 3261W        W 7312   1.395   3.411  13.795 -0.1751  0.2175 -0.4143
 3262W        W 7313   5.654   6.123   0.174  0.1487 -0.0688  0.2769
 3263W        W 7314   4.570   8.178   0.141  0.0857 -0.1207 -0.0369
 3264W        W 7315   5.061   7.440  13.429 -0.3073  0.2217 -0.0615
 3265W        W 7316   3.108   1.441  10.768 -0.0420  0.0773  0.0826
 3266W        W 7317   2.683   2.963   9.877 -0.0143  0.1706  0.2807
 3267W        W 7318   6.670   7.250   8.618 -0.1340 -0.0915  0.0005
 3268W        W 7319   1.170   9.286   2.627 -0.1982  0.1413  0.0139
 3269W        W 7320   9.461   0.297   5.188 -0.2525 -0.0939 -0.2155
 3270W        W 7321   4.097   4.185   4.203 -0.0909 -0.3450  0.2297
 3271W        W 7322   0.197   1.208   3.122  0.2283  0.2843 -0.0673
 3272W        W 7323   7.549   9.652   0.634 -0.1363 -0.2458  0.1889
 3273W        W 7324   5.161   3.969  10.619  0.1910  0.1799 -0.0565
 3274W        W 7325   9.617   0.614  11.623 -0.0579  0.1121  0.0777
 3275W        W 7326   5.220   4.344  11.422  0.1378  0.2007  0.0253
 3276W        W 7327   8.300   1.170  12.886  0.0879  0.1681  0.1477
 3277W        W 7328   3.881   7.107   0.813  0.1503 -0.0664 -0.0382
 3278W        W 7329   9.681   4.993   4.592  0.0002  0.0335  0.1980
 3279W        W 7330   5.781   0.215   4.282  0.1295  0.0200 -0.1070
 3280W        W 7331   3.359   0.457  13.732  0.4792  0.4401 -0.0675
 3281W        W 7332  10.126   9.086  10.960 -0.0796 -0.1799 -0.3855
 3282W        W 7333  10.087   3.800   0.571  0.2227  0.3564  0.1374
 3283W        W 7334   0.951   2.374  12.330  0.2553  0.1687 -0.0049
 3284W        W 7335   1.875   1.752   1.898  0.1562 -0.0670 -0.1001
 3285W        W 7336   0.528   1.393   4.776  0.0392 -0.2172 -0.2714
 3286W        W 7337   1.947   4.163   3.956  0.0325  0.1692 -0.0240
 3287W        W 7338   4.106   9.644  13.147 -0.2428  0.3269 -0.3613
 3288W        W 7339   3.300   0.168  10.218  0.1566  0.0544 -0.0920
 3289W        W 7340   3.559   9.224  13.854  0.2207 -0.0647 -0.4505
 3290W        W 7341   3.472   1.629   8.449  0.1770 -0.1994  0.0734
 3291W        W 7342   8.771   1.682  12.296  0.3976 -0.2757 -0.1694
 3292W        W 7343   8.468   9.605   1.290  0.0252  0.3079 -0.0419
 3293W        W 7344   2.227   0.435   0.838 -0.1756 -0.1693  0.1212
 3294W        W 7345   9.083   0.947   4.592  0.0396  0.0909  0.0136
 3295W        W 7346   2.278   4.486   3.703  0.2795  0.2750 -0.0906
 3296W        W 7347   2.588   3.362   4.190  0.3354  0.1240  0.0147
 3297W        W 7348   3.527   8.494  13.855  0.0784  0.3152 -0.0341
 3298W        W 7349   4.780   7.730   2.665  0.0205  0.1047  0.2096
 3299W        W 7350   0.429   3.377   3.329  0.3348  0.0513  0.3602
 3300W        W 7351   0.050   3.910   4.702  0.1198 -0.1544 -0.3078
 3301W        W 7352   4.546   0.034  12.742  0.0588 -0.0624  0.0014
 3302W        W 7353   9.131   8.859  13.075 -0.2475 -0.1758 -0.0556
 3303W        W 7354   2.385   3.476   1.809 -0.1905  0.0830 -0.1182
 3304W        W 7355   4.306   4.019   3.400 -0.2282  0.1373 -0.0098
 3305W        W 7356   5.592   3.681  12.286 -0.0747 -0.2124  0.0832
 3306W        W 7357   8.372   8.468  11.402  0.2243  0.0563  0.2153
 3307W        W 7358   2.282   3.108  12.134  0.1755  0.4328 -0.2307
 3308W        W 7359   2.869   4.452  10.357  0.0390 -0.0539 -0.0079
 3309W        W 7360   8.930   8.089  12.067  0.0761 -0.0562 -0.0796
 3310W        W 7361   5.477   4.894   4.433 -0.2417 -0.1394 -0.2525
 3311W        W 7362   3.245   6.304  10.111 -0.0537  0.0285 -0.0355
 3312W        W 7363   3.200   5.482   0.744 -0.1504 -0.2599 -0.0648
 3313W        W 7364   5.114   8.524   1.583 -0.2964 -0.1299  0.0168
 3314W        W 7365   9.673   1.748  12.697  0.2326  0.1729 -0.3293
 3315W        W 7366   9.164   6.361   2.282 -0.1933  0.2633 -0.0578
 3316W        W 7367   7.082   6.220  12.202 -0.3774  0.4264 -0.2356
 3317W        W 7368   8.592   4.556   0.821  0.0866  0.2051 -0.1966
 3318W        W 7369   0.256   1.534   9.672 -0.0363  0.1293  0.0408
 3319W        W 7370   5.973   2.833   5.082 -0.0184  0.0032  0.0002
 3320W        W 7371   1.751   7.326   1.497 -0.1168 -0.0034  0.1736
 3321W        W 7372   8.197   6.895   2.952 -0.0357 -0.1588  0.1690
 3322W        W 7373   6.511   5.127   3.556 -0.0114 -0.3487  0.1297
 3323W        W 7374   0.017   0.694  12.304  0.0453  0.1039  0.0128
 3324W        W 7375   8.230   7.656   0.117 -0.1556  0.2674  0.0019
 3325W        W 7376   6.398   9.794   5.193 -0.1674  0.2999 -0.1377
 3326W        W 7377   0.836   6.240   3.312  0.1967  0.0560  0.0365
 3327W        W 7378   5.389   9.271  11.804  0.0998 -0.1960  0.0737
 3328W        W 7379   0.516   1.701  13.660  0.0033  0.2095  0.0327
 3329W        W 7380   5.392   2.348   3.954 -0.0454  0.1222  0.1181
 3330W        W 7381   2.383   0.920  13.550  0.1452  0.3227 -0.1899
 3331W        W 7382   8.802   8.933   9.338  0.0238  0.3259  0.1627
 3332W        W 7383   4.808   3.000  10.852  0.3717 -0.0182 -0.5856
 3333W        W 7384  10.102   4.082  13.222 -0.3163 -0.0901 -0.2259
 3334W        W 7385   8.355   2.636   2.893  0.0403  0.3236 -0.2926
 3335W        W 7386   5.021   3.243   3.328  0.1255  0.1976 -0.1881
 3336W        W 7387   0.664   4.780   1.367 -0.0704  0.0552  0.1925
 3337W        W 7388   1.398   8.677   9.633 -0.0774  0.4195  0.0521
 3338W        W 7389   9.183   4.354  10.979 -0.0108 -0.0425  0.1518
 3339W        W 7390   4.718   7.279  11.975  0.1395 -0.1591  0.0999
 3340W        W 7391   5.425   9.382  10.060  0.1403 -0.0294  0.0838
 3341W        W 7392   1.351   0.582  11.136 -0.0105  0.1611  0.1100
 3342W        W 7393   9.559   9.388  10.229 -0.1833  0.1913 -0.0062
 3343W        W 7394   2.121   0.038   2.817 -0.1322  0.2771 -0.1442
 3344W        W 7395   1.740   1.497   1.467  0.1726 -0.1122 -0.0079
 3345W        W 7396   6.961   0.687   0.756 -0.0012  0.3815  0.0538
 3346W        W 7397   4.862   1.682   3.132 -0.0709 -0.0452  0.0512
 3347W        W 7398   3.246   3.709   2.114 -0.0119  0.1822  0.2354
 3348W        W 7399   4.842   3.874   1.361  0.2453  0.2760  0.0477
 3349W        W 7400   9.651   2.395   2.555  0.1565 -0.1671  0.0794
 3350W        W 7401   3.499   9.666   5.386 -0.3370 -0.2884  0.0449
 3351W        W 7402   4.440   2.734   0.630 -0.0453 -0.0984  0.0500
 3352W        W 7403   4.787   6.895   2.793  0.1871  0.1477 -0.0099
 3353W        W 7404   8.106   8.697  10.948 -0.1511 -0.0559  0.3755
 3354W        W 7405   7.177   9.751  13.610 -0.2165  0.2474  0.0629
 3355W        W 7406   2.916   2.251  12.863 -0.0471 -0.1440  0.0166
 3356W        W 7407   4.619   7.486  13.722 -0.3842 -0.0766  0.2642
 3357W        W 7408   3.901   8.942  11.067  0.1268  0.1808 -0.2895
 3358W        W 7409   5.280   3.283   4.119 -0.0758 -0.1154 -0.2237
 3359W        W 7410   2.606   2.918  11.738  0.0494  0.2440  0.1687
 3360W        W 7411   9.341   0.984  13.741 -0.1978 -0.1515 -0.0462
 3361W        W 7412   5.925   4.884  11.101 -0.1963  0.2333 -0.3317
 3362W        W 7413   1.586   6.298   0.571  0.1232 -0.2554  0.1803
 3363W        W 7414   4.148   0.050  11.333  0.2825 -0.4167  0.0912
 3364W        W 7415   4.260   1.659   9.932 -0.0930 -0.4107 -0.1094
 3365W        W 7416   7.008   9.556   4.477  0.1966  0.4027 -0.1123
 3366W        W 7417   9.692   9.977   0.715 -0.0755  0.2156 -0.1315
 3367W        W 7418   9.999   8.567  11.139  0.2415 -0.0884  0.3996
 3368W        W 7419   8.711   8.992  12.691  0.0323 -0.1625  0.0547
 3369W        W 7420   2.350   9.448   3.580  0.0079 -0.1861  0.1031
 3370W        W 7421   7.224   7.182   0.739 -0.0024  0.0851 -0.1891
 3371W        W 7422   1.959   3.909   2.838 -0.1891 -0.2982  0.0625
 3372W        W 7423   4.781   6.471   9.480 -0.3987  0.2263 -0.1616
 3373W        W 7424   3.854   7.099   2.776 -0.4046  0.1529  0.2733
 3374W        W 7425   5.771   7.125  11.150  0.1109  0.0127  0.3957
 3375W        W 7426   2.621   1.732   1.254 -0.1360  0.1418 -0.1902
 3376W        W 7427   1.012   8.382   1.927 -0.0310  0.2508  0.0911
 3377W        W 7428   5.777   7.469  13.826  0.1037  0.0451  0.2593
 3378W        W 7429   6.354   1.206   2.785  0.1497  0.3434 -0.1326
 3379W        W 7430   6.602   5.861   9.580  0.1884  0.1352 -0.0372
 3380W        W 7431   1.244   8.235  13.819 -0.0037  0.1453  0.1037
 3381W        W 7432   6.620   7.495   2.678  0.3420  0.2375  0.0675
 3382W        W 7433   4.190   9.707   1.400  0.3404 -0.3709  0.1886
 3383W        W 7434   5.889   8.983   9.332  0.0461 -0.0079 -0.1195
 3384W        W 7435   9.421   9.312  11.070 -0.2282  0.3240  0.4280
 3385W        W 7436   0.376   9.519  13.224  0.2624 -0.0729 -0.1214
 3386W        W 7437  10.018   8.764  12.531  0.3259  0.1872 -0.4930
 3387W        W 7438   6.621   0.292   3.596 -0.5005  0.2704 -0.1093
 3388W        W 7439   7.152   8.281   3.394 -0.1179  0.0417  0.0504
 3389W        W 7440   5.632   3.162   0.730 -0.2697 -0.3210 -0.0930
 3390W        W 7441   1.142   2.976  11.789 -0.0373  0.0640  0.1355
 3391W        W 7442   1.434   2.564   9.212  0.0241  0.4239 -0.2107
 3392W        W 7443   7.304  10.097   1.691 -0.2659 -0.1563 -0.1518
 3393W        W 7444   1.187   9.234  12.937  0.0754 -0.2055 -0.0018
 3394W        W 7445   9.271   2.240   4.610 -0.0472  0.1585  0.1261
 3395W        W 7446   2.081  10.000  11.359  0.0174 -0.2461 -0.0441
 3396W        W 7447   0.110   8.973   1.649 -0.1072  0.1710 -0.0215
 3397W        W 7448   5.534   3.396   9.575  0.5332  0.3262 -0.3598
 3398W        W 7449   2.751   2.185   2.038 -0.0160 -0.0455 -0.1875
 3399W        W 7450   5.156   7.527   1.238  0.0306 -0.0974  0.1121
 3400W        W 7451   2.892   8.287  10.495  0.1580 -0.0994 -0.1320
 3401W        W 7452   4.019   8.890   3.575 -0.1273  0.2428  0.2476
 3402W        W 7453   5.012   8.400  10.230  0.1734 -0.0397 -0.0039
 3403W        W 7454   0.819   9.046  11.159  0.2701  0.2726 -0.0288
 3404W        W 7455   4.487   4.912   0.073 -0.1299 -0.1103 -0.0911
 3405W        W 7456   3.262   4.463  10.667 -0.0629 -0.0816 -0.1547
 3406W        W 7457   1.444   5.032  12.010 -0.0722  0.0272 -0.0828
 3407W        W 7458   2.146   6.764   3.148  0.1748 -0.2335  0.5314
 3408W        W 7459   6.166   2.563   0.257 -0.1487  0.3939 -0.0434
 3409W        W 7460   5.849   4.356   2.556  0.0064  0.2049 -0.2964
 3410W        W 7461   6.441   7.375  11.863 -0.1270  0.2628  0.0613
 3411W        W 7462   6.878   8.721  12.647 -0.1182 -0.2658  0.2912
 3412W        W 7463   6.227   3.889  10.426  0.0729  0.2482  0.5097
 3413W        W 7464   1.678   6.499   1.021  0.0648  0.1229  0.0603
 3414W        W 7465   8.009   6.487  13.212 -0.0072  0.0581  0.1881
 3415W        W 7466   7.675   6.031  11.422  0.1390 -0.2600  0.1271
 3416W        W 7467   5.325   8.907   2.982  0.0174 -0.0143  0.2029
 3417W        W 7468   7.902   3.103   0.606 -0.0545  0.0301  0.2655
 3418W        W 7469  10.033   6.260   1.392 -0.0307  0.1393  0.1137
 3419W        W 7470   2.696   6.037  10.244 -0.1158 -0.0248 -0.0370
 3420W        W 7471   6.719   4.495   3.849  0.0570 -0.0919 -0.1342
 3421W        W 7472   3.760   3.026   2.666  0.0318  0.0405  0.1331
 3422W        W 7473   3.689   6.397  13.766 -0.1818 -0.0639 -0.2029
 3423W        W 7474   4.392   8.212  11.537 -0.0130  0.0271  0.0242
 3424W        W 7475   8.933   5.370   1.277 -0.1376  0.3539  0.3176
 3425W        W 7476   6.441   5.872  11.575 -0.2296  0.1285 -0.1412
 3426W        W 7477   6.344   3.158   5.094 -0.1020  0.1579  0.2150
 3427W        W 7478   7.184   9.120  13.316 -0.4518  0.0713  0.0344
 3428W        W 7479   5.462   5.382  10.016 -0.1750  0.1181  0.0558
 3429W        W 7480   2.551   7.125  12.397  0.1775  0.1648 -0.1538
 3430W        W 7481   6.220   3.088  13.072 -0.0161 -0.0790  0.2302
 3431W        W 7482   5.758   1.981   0.971  0.1408 -0.0353 -0.0459
 3432W        W 7483   5.291   0.405   3.070  0.1761  0.0739 -0.0932
 3433W        W 7484   0.750   9.869   2.689 -0.1756 -0.0809  0.2722
 3434W        W 7485   5.960   1.084   2.344 -0.1606 -0.0311  0.0110
 3435W        W 7486   8.526   0.417   3.524 -0.1695  0.3543 -0.2719
 3436W        W 7487   6.207   4.541   3.865 -0.1828 -0.0682  0.0084
 3437W        W 7488   6.560   3.691   9.673  0.1902  0.0794 -0.0470
 3438W        W 7489   4.602   6.818   2.191 -0.2765  0.0890  0.1166
 3439W        W 7490   0.721   0.206  12.240 -0.1065 -0.1303 -0.0539
 3440W        W 7491   6.786   8.761  10.950  0.0056  0.2183  0.1291
 3441W        W 7492   8.872   9.850   9.723  0.2215  0.0854  0.2425
 3442W        W 7493   8.792   5.494  12.348 -0.1968 -0.1241  0.0337
 3443W        W 7494   1.438   2.645  10.392 -0.2762  0.3440  0.1593
 3444W        W 7495   1.887   0.850  13.420  0.3452  0.3111 -0.0737
 3445W        W 7496   7.508   9.129   9.472 -0.0330  0.0635 -0.2871
 3446W        W 7497   2.967   2.635   0.638 -0.0523 -0.1855 -0.3130
 3447W        W 7498   7.248   8.457  12.433 -0.2134 -0.2014 -0.0777
 3448W        W 7499   9.640   1.860   2.536  0.2344  0.0131 -0.1230
 3449W        W 7500   1.496   5.815  10.618 -0.1744  0.0066  0.1356
 3450W        W 7501   5.775   8.801   3.513  0.1245 -0.0328  0.3171
 3451W        W 7502   2.683   5.374  13.255  0.1365 -0.0610  0.0001
 3452W        W 7503   0.997   7.149  11.175 -0.0424 -0.0639 -0.0471
 3453W        W 7504   5.229   6.573  12.540 -0.3328 -0.2051 -0.2606
 3454W        W 7505   8.325   3.875   0.713 -0.3647 -0.0239  0.1304
 3455W        W 7506   8.817   9.679   8.884 -0.3802  0.1119  0.0781
 3456W        W 7507   9.991   3.811  13.907 -0.0396  0.1119 -0.3275
 3457W        W 7508   4.206   0.223   5.552 -0.0338  0.0410 -0.0750
 3458W        W 7509   0.075   2.365  12.595 -0.1853  0.1353 -0.0766
 3459W        W 7510   4.107   5.644   0.805  0.0244 -0.1597  0.0834
 3460W        W 7511   4.229   4.901  11.861  0.1239 -0.1182  0.3028
 3461W        W 7512   4.175   2.007   2.044  0.1602  0.2042  0.0408
 3462W        W 7513   8.968   0.070  12.161 -0.0405 -0.4427 -0.1809
 3463W        W 7514   3.479   6.680  12.073 -0.1067 -0.4313  0.0128
 3464W        W 7515   1.183   2.234  11.890  0.1850 -0.0542 -0.0807
 3465W        W 7516   2.395   1.549   4.200  0.3149 -0.0798 -0.1019
 3466W        W 7517   8.214   5.734  11.638 -0.1619  0.1764  0.0630
 3467W        W 7518   0.328   5.314  11.608 -0.1981  0.0376  0.2008
 3468W        W 7519   8.987   6.512   0.841  0.0452  0.2379  0.2563
 3469W        W 7520   9.080   1.714   3.659 -0.1383  0.1768  0.1144
 3470W        W 7521   5.721  10.008   8.775 -0.0189  0.1187 -0.3932
 3471W        W 7522   2.690   3.380   0.275  0.0868 -0.0972 -0.2269
 3472W        W 7523   6.002   4.992   3.626  0.2141  0.1122  0.0214
 3473W        W 7524   1.625   3.760   0.146  0.2266 -0.2420  0.2083
 3474W        W 7525   8.183   3.402  12.414 -0.1434 -0.0023 -0.1010
 3475W        W 7526  10.192   3.992   9.358 -0.1069 -0.1933  0.1774
 3476W        W 7527   8.653   6.648   3.087 -0.1773 -0.1200  0.3506
 3477W        W 7528   1.134   1.289   9.290 -0.0901 -0.3528 -0.3173
 3478W        W 7529   6.236   4.643   1.316  0.1527 -0.2140 -0.0491
 3479W        W 7530   1.313   3.988  11.971 -0.0909 -0.0196 -0.2229
 3480W        W 7531   7.718   8.404   9.324 -0.1136 -0.1343 -0.1836
 3481W        W 7532   1.341   7.529   1.225  0.0095 -0.1373 -0.0828
 3482W        W 7533   2.147   3.824  13.490 -0.1096 -0.0609  0.0991
 3483W        W 7534   0.506   7.358  11.354 -0.1462  0.2636  0.0990
 3484W        W 7535   4.517   8.606   4.973  0.3006 -0.0262 -0.0927
 3485W        W 7536   6.082   2.844  10.712  0.5512 -0.2189  0.1220
 3486W        W 7537   0.071   9.899  13.149  0.3304  0.1187  0.3793
 3487W        W 7538   1.059   9.424  13.745 -0.1380 -0.2366  0.0896
 3488W        W 7539   0.931   4.680  11.265  0.1448  0.0508 -0.1067
 3489W        W 7540   2.845   4.211  12.015  0.1304 -0.1610 -0.0003
 3490W        W 7541   0.804   0.817   1.465  0.1612  0.0892 -0.1948
 3491W        W 7542   8.814   5.449   2.361  0.2646 -0.2699  0.4004
 3492W        W 7543   9.860   6.427  12.306 -0.1832 -0.1192  0.1610
 3493W        W 7544   4.999   1.791  13.132  0.1089  0.2285  0.0987
 3494W        W 7545   6.317   8.132  12.366  0.1148 -0.0173 -0.0857
 3495W        W 7546   2.273   8.277   3.597 -0.2940 -0.1105 -0.1838
 3496W        W 7547   4.726   2.646  10.334  0.1907 -0.0886  0.1643
 3497W        W 7548   6.730   5.936   0.809 -0.1816 -0.2044 -0.1758
 3498W        W 7549   2.968   9.749  11.083  0.0321  0.0106 -0.0499
 3499W        W 7550   8.400   7.852   2.653  0.0108 -0.0233 -0.0972
 3500W        W 7551  10.147   0.480   1.113  0.2050  0.0291  0.4160
 3501W        W 7552   8.265   7.685   3.850 -0.2398 -0.1414  0.1490
 3502W        W 7553   0.066   3.681  13.416  0.1034  0.0569  0.0505
 3503W        W 7554   7.863   7.724   3.392 -0.0655  0.3125 -0.0060
 3504W        W 7555   0.115   4.487   2.180  0.0220 -0.1021  0.1100
 3505W        W 7556   5.144   2.456   0.292  0.1616 -0.1087 -0.1251
 3506W        W 7557   2.613   5.868   2.886 -0.4262 -0.2863  0.1451
 3507W        W 7558   0.144   2.203  10.387 -0.1576  0.1192  0.1804
 3508W        W 7559   3.170   9.982   4.627  0.1503 -0.0208 -0.0988
 3509W        W 7560   0.408   3.642   4.178  0.1089  0.1320 -0.3218
 3510W        W 7561   8.470   8.202   3.941 -0.1214 -0.3088  0.0173
 3511W        W 7562   4.436   5.483  12.722  0.4422  0.0786 -0.0754
 3512W        W 7563   3.445   9.386   9.804  0.0119  0.1575  0.3233
 3513W        W 7564   7.600   2.360  11.633  0.0135 -0.3298  0.1432
 3514W        W 7565   4.045   1.910   0.320  0.1639 -0.1656  0.0912
 3515W        W 7566   9.810   2.272   1.570  0.3029  0.1100 -0.1967
 3516W        W 7567   0.471   9.384   1.510 -0.1373  0.4261  0.1815
 3517W        W 7568  10.057   4.458  11.926  0.0300  0.0007 -0.1303
 3518W        W 7569   0.404   0.310   0.328 -0.0123  0.2672  0.1089
 3519W        W 7570   8.847   0.373   2.717  0.0256 -0.0641 -0.1310
 3520W        W 7571   9.287   5.899  10.746 -0.0000 -0.1501  0.1506
 3521W        W 7572   7.676   4.357   3.505 -0.3389 -0.0913 -0.3308
 3522W        W 7573   7.121   6.389  13.417  0.2839 -0.1783  0.0187
 3523W        W 7574   7.248   1.884   3.536  0.4520  0.2396 -0.2103
 3524W        W 7575   6.957   6.352   5.692  0.0644 -0.0116 -0.2408
 3525W        W 7576   2.231   3.621  12.863  0.1169  0.3333  0.1298
 3526W        W 7577   4.457   9.333   2.947  0.3750 -0.1711  0.3058
 3527W        W 7578   3.830   0.718   2.775  0.1322 -0.2552 -0.1626
 3528W        W 7579   0.345   9.120   3.606 -0.0058 -0.2520  0.0253
 3529W        W 7580   3.239   3.369   0.921  0.1980 -0.2249  0.3535
 3530W        W 7581   8.778   0.047   0.437 -0.1394 -0.1370  0.2779
 3531W        W 7582   9.398   1.719   1.353  0.1546  0.0593 -0.1109
 3532W        W 7583   9.386   4.406   3.516 -0.0889 -0.1737  0.1191
 3533W        W 7584   0.096   9.585   3.660 -0.0192 -0.1297 -0.3773
 3534W        W 7585   8.566   9.810   3.117  0.2457  0.2617  0.1063
 3535W        W 7586   3.588   5.279  11.078 -0.0379 -0.1062  0.1684
 3536W        W 7587   2.860   8.519   0.374 -0.1416 -0.1713 -0.1946
 3537W        W 7588   0.089   1.546   4.916 -0.1080 -0.0049  0.0452
 3538W        W 7589   9.154   1.836   1.747  0.2237  0.0093  0.4118
 3539W        W 7590   8.358   5.291   9.870 -0.1615 -0.2366 -0.0421
 3540W        W 7591   4.098   1.423   9.311  0.0324  0.3023 -0.0339
 3541W        W 7592   3.633   9.885   4.866  0.1358  0.1987  0.0553
 3542W        W 7593   5.920   3.082   9.653 -0.0357  0.0595  0.1356
 3543W        W 7594   6.454   2.128   2.891 -0.3508  0.0177 -0.1837
 3544W        W 7595   0.952   5.821  10.955  0.1528  0.0346  0.3247
 3545W        W 7596   0.154   0.668   0.657  0.0276  0.0324  0.3416
 3546W        W 7597   8.234   9.569   9.063  0.1366  0.1674 -0.0776
 3547W        W 7598   3.207   5.056   0.466  0.1186 -0.0061  0.1933
 3548W        W 7599   3.450   5.405   2.811  0.3592 -0.1176 -0.0489
 3549W        W 7600   1.023   1.296  12.207  0.2306  0.0639 -0.0057
 3550W        W 7601   2.979   9.148  10.548  0.3085 -0.0182  0.0980
 3551W        W 7602   5.533   3.887   4.339  0.0985 -0.2236  0.1225
 3552W        W 7603   2.686   6.570  13.182 -0.0392  0.1652  0.1782
 3553W        W 7604   6.758   7.396  12.731 -0.2968 -0.2093  0.0750
 3554W        W 7605   9.166   0.184  10.484 -0.2605 -0.2005  0.1228
 3555W        W 7606   2.192   2.663   9.255  0.0451 -0.2866 -0.0480
 3556W        W 7607   4.674   4.868  10.269  0.1073  0.0341 -0.0434
 3557W        W 7608   1.983  10.098   0.865 -0.1961  0.3987 -0.0919
 3558W        W 7609   3.368   8.556   3.321  0.0508 -0.1671 -0.3986
 3559W        W 7610   4.791  10.009   9.085  0.0016  0.0454  0.0550
 3560W        W 7611   4.438   2.957   4.515  0.2585  0.2375  0.2658
 3561W        W 7612   2.912   9.391   4.354  0.1367 -0.1207  0.0749
 3562W        W 7613   5.454   5.908  11.917 -0.0457  0.2907  0.1029
 3563W        W 7614   4.928   6.858  12.929 -0.0248 -0.1248  0.2344
 3564W        W 7615   7.225   8.756  11.943 -0.1531 -0.0033  0.1102
 3565W        W 7616   6.363   1.174  11.884  0.2228 -0.0101 -0.0778
 3566W        W 7617   3.067   9.289  13.199  0.0837 -0.2305 -0.0116
 3567W        W 7618   5.577   4.660  12.254 -0.0495  0.1107  0.2320
 3568W        W 7619   2.779   3.073   3.792  0.0927  0.0912  0.2094
 3569W        W 7620   0.239   9.261   9.927 -0.1752 -0.2268  0.3027
 3570W        W 7621   2.261   7.364  11.519 -0.1086 -0.0865 -0.0067
 3571W        W 7622   7.103   6.658   0.746  0.1232 -0.1194 -0.3083
 3572W        W 7623  10.109   6.730  12.722 -0.0089 -0.0213 -0.2103
 3573W        W 7624   0.690   5.428   2.849 -0.1499 -0.2298 -0.1798
 3574W        W 7625   6.184   1.325   5.277  0.0236  0.0685 -0.1228
 3575W        W 7626   7.509   8.458   4.300 -0.1063 -0.3867  0.0394
 3576W        W 7627   4.454   2.358   3.423  0.0465 -0.0450 -0.0971
 3577W        W 7628   1.503   2.642   2.562  0.0316 -0.2034  0.2203
 3578W        W 7629   6.985   3.483  13.578  0.0297  0.1768 -0.0391
 3579W        W 7630   6.944   8.905  13.786  0.0691 -0.3072  0.2106
 3580W        W 7631   9.663   6.219   2.295 -0.3039  0.3105 -0.1472
 3581W        W 7632   9.337   9.043   2.231 -0.1419  0.2518 -0.1501
 3582W        W 7633   9.372   3.110   0.585 -0.0435 -0.1754 -0.0508
 3583W        W 7634   4.026   7.068  13.206 -0.0369  0.0148 -0.0847
 3584W        W 7635   4.836   7.579   9.869  0.3525 -0.0069 -0.1421
 3585W        W 7636   8.432   7.091   3.978  0.3393  0.0728  0.2578
 3586W        W 7637   8.406   0.232  12.904  0.0430  0.1662 -0.1863
 3587W        W 7638   3.658   1.973   0.673  0.0262  0.0387 -0.1084
 3588W        W 7639   6.048   1.330  12.959  0.0694  0.0149 -0.0132
 3589W        W 7640   6.277   1.748  11.212 -0.0133  0.1268  0.2599
 3590W        W 7641   7.801   1.546   2.298 -0.1081 -0.0338  0.1178
 3591W        W 7642   5.925   5.620   1.194  0.1846 -0.0871 -0.3316
 3592W        W 7643   6.558   8.442  10.094 -0.4201  0.0893  0.1002
 3593W        W 7644   0.557   6.454  12.184  0.0484 -0.1035  0.1787
 3594W        W 7645   3.965   8.945  11.664  0.0831  0.2232 -0.1048
 3595W        W 7646   1.661   4.936  11.390 -0.0305  0.3042  0.0414
 3596W        W 7647   9.585   4.469   4.721 -0.3352 -0.2499 -0.2281
 3597W        W 7648   3.543   5.551   3.326  0.2007  0.0031  0.2031
 3598W        W 7649   1.037   1.656   3.939  0.0758  0.0252 -0.0626
 3599W        W 7650   1.353   6.821  12.573  0.0928 -0.0393 -0.0178
 3600W        W 7651   4.213   0.921   1.358  0.0620 -0.0687 -0.3553
 3601W        W 7652   8.389   3.875   3.162 -0.0282  0.2693 -0.0136
 3602W        W 7653   6.610   5.359  13.263  0.0329  0.1105  0.1419
 3603W        W 7654   7.478   4.604   0.189  0.2241  0.1035 -0.2542
 3604W        W 7655   1.929   2.346   2.758 -0.3568  0.2072  0.2077
 3605W        W 7656   4.980   5.058  12.316  0.1872 -0.5466 -0.2890
 3606W        W 7657   9.311   4.691   2.833 -0.1878 -0.3318 -0.1077
 3607W        W 7658   7.369   4.856   4.750  0.1148 -0.1516  0.1029
 3608W        W 7659   1.073   6.473  12.342  0.1382  0.0433  0.1186
 3609W        W 7660   6.095   9.676   3.424  0.0755 -0.2881  0.1145
 3610W        W 7661   1.964   8.972  11.590  0.2096 -0.0792  0.0884
 3611W        W 7662   1.283   4.682  11.682 -0.0288  0.2283 -0.1539
 3612W        W 7663   7.269   1.577   3.171 -0.1023 -0.1174  0.0359
 3613W        W 7664   4.967   9.515   8.309  0.1240  0.2627 -0.0818
 3614W        W 7665   2.382   7.300  11.048  0.0793  0.0849 -0.2958
 3615W        W 7666   5.995   2.481   8.945 -0.1462  0.3216  0.0380
 3616W        W 7667   2.463   2.626   3.449 -0.3337  0.4191  0.0347
 3617W        W 7668   6.711   2.811   9.404  0.2081 -0.0996  0.1448
 3618W        W 7669   5.278   5.803   2.125  0.2274  0.1335  0.0849
 3619W        W 7670   9.836   7.350   0.630  0.2044  0.0047 -0.0334
 3620W        W 7671   5.837   3.329   4.266 -0.2614  0.1437  0.0075
 3621W        W 7672   4.501   8.617   9.162  0.0393  0.0345 -0.2562
 3622W        W 7673   9.155   9.743  11.327  0.1211  0.2256  0.3973
 3623W        W 7674   7.800   2.365  13.531  0.0590 -0.3840  0.0543
 3624W        W 7675   6.376   4.613  12.739 -0.2095 -0.1605 -0.1470
 3625W        W 7676   6.592   6.008   0.223 -0.0949  0.0881  0.0400
 3626W        W 7677   3.582   8.441   9.915  0.2846 -0.0472  0.0499
 3627W        W 7678   0.526   3.028  13.890  0.0128  0.0835 -0.0786
 3628W        W 7679   0.852   6.877  13.350 -0.1977 -0.0056  0.0105
 3629W        W 7680   2.101   0.702   9.219 -0.4396 -0.4618 -0.3193
 3630W        W 7681   0.317   1.646   9.176  0.1939  0.3325  0.0525
 3631W        W 7682   5.397   9.140   5.219  0.1090  0.1932 -0.4561
 3632W        W 7683   2.511   9.932   3.720  0.4751  0.0943  0.2040
 3633W        W 7684   3.545   5.358   4.830  0.1070 -0.0412  0.0816
 3634W        W 7685   9.186   4.016  11.834 -0.1729  0.0551  0.2316
 3635W        W 7686   3.907   4.443  11.027  0.1729  0.2969 -0.3072
 3636W        W 7687   1.692   5.122   3.557  0.0383  0.0116 -0.0444
 3637W        W 7688   9.151   0.403   9.337  0.2917 -0.1673 -0.0423
 3638W        W 7689   0.473   8.307  13.321  0.0640 -0.1342 -0.1848
 3639W        W 7690   4.106   5.857  12.774  0.0994 -0.1409 -0.1362
 3640W        W 7691   7.726   0.313   1.121 -0.0354  0.1082  0.2290
 3641W        W 7692   8.066   5.910  10.618 -0.2262 -0.1161  0.0702
 3642W        W 7693   3.435   5.041   9.841  0.0632 -0.2132 -0.0412
 3643W        W 7694   7.567   6.169  13.682  0.0050 -0.2664  0.0571
 3644W        W 7695   7.682   5.023   3.909  0.1603  0.2591 -0.1721
 3645W        W 7696   7.101   0.548   0.287 -0.2280  0.2092  0.2853
 3646W        W 7697   2.622   7.606   3.763  0.2894 -0.2619  0.1109
 3647W        W 7698   1.084   1.682  13.482  0.0353 -0.1755 -0.1798
 3648W        W 7699   2.135   3.235   3.867 -0.0440  0.0929 -0.0089
 3649W        W 7700   6.647   8.972  13.297 -0.1304 -0.1997 -0.0767
 3650W        W 7701   3.391   8.382  10.436  0.2119  0.0768 -0.0305
 3651W        W 7702   5.969   4.540   0.814 -0.2080 -0.0673  0.2382
 3652W        W 7703  10.050   0.192  13.805 -0.0273  0.0169  0.1576
 3653W        W 7704   9.255   2.876  11.780 -0.0010 -0.0537 -0.1419
 3654W        W 7705   1.307   3.660   9.757  0.0932 -0.3423 -0.0131
 3655W        W 7706   7.872   5.936   2.093  0.2385 -0.0645  0.2232
 3656W        W 7707   6.368   2.271   3.881 -0.2954  0.1006  0.1325
 3657W        W 7708   4.270   7.555   2.518 -0.2033 -0.1969  0.1475
 3658W        W 7709   5.121   0.063   1.727 -0.3877 -0.3777  0.1556
 3659W        W 7710   9.415   7.777   3.987 -0.1809 -0.0823  0.3017
 3660W        W 7711   1.472   2.306   3.065  0.4449  0.0536  0.0725
 3661W        W 7712   0.068   8.167   0.624  0.0432 -0.0865  0.1325
 3662W        W 7713   6.333   2.237  13.684  0.1652 -0.2770  0.0544
 3663W        W 7714   3.026   6.455   3.553 -0.1792 -0.0736 -0.0730
 3664W        W 7715   1.656   0.534  11.841  0.1604  0.1877 -0.1511
 3665W        W 7716   1.261   6.814  13.746 -0.0780 -0.0789  0.1868
 3666W        W 7717   6.910   0.100   0.160 -0.0015  0.0197  0.0938
 3667W        W 7718   0.853   3.345   2.449 -0.3688  0.1674  0.1393
 3668W        W 7719   9.218   6.030  13.596 -0.0691  0.1258 -0.2554
 3669W        W 7720   3.343  10.109  13.303 -0.0438  0.1356  0.1420
 3670W        W 7721   5.230   1.937  13.525 -0.0091 -0.0301  0.0031
 3671W        W 7722   0.993   8.580   0.989  0.1209 -0.3316 -0.1137
 3672W        W 7723   6.151   0.361  13.348 -0.0343  0.1768 -0.1469
 3673W        W 7724   3.319   4.396  11.247  0.2852  0.0084 -0.1211
 3674W        W 7725   9.446   7.559  11.156  0.1046  0.2375  0.1511
 3675W        W 7726   4.873   0.518   1.746 -0.1363  0.0863  0.1527
 3676W        W 7727  10.118  10.199   1.066 -0.2427  0.1757 -0.0978
 3677W        W 7728   5.830   3.755   2.433  0.0693  0.4041 -0.0636
 3678W        W 7729   1.861   2.334  12.440  0.0244 -0.1593  0.0624
 3679W        W 7730   7.621   5.283  12.030 -0.3896  0.0587 -0.1162
 3680W        W 7731   8.126   1.226   8.401 -0.1650 -0.2655 -0.0199
 3681W        W 7732   4.542   2.865  11.267  0.0667  0.3438  0.1007
 3682W        W 7733   7.356   7.941   3.727 -0.0328  0.1938 -0.1881
 3683W        W 7734   1.657   3.772  13.584 -0.1153  0.2498  0.0602
 3684W        W 7735   2.512   9.304   0.088 -0.0922  0.2757 -0.0803
 3685W        W 7736   5.333   3.949   5.051  0.2670  0.0490  0.0406
 3686W        W 7737   2.521   2.164   2.552 -0.2672 -0.2874  0.2506
 3687W        W 7738   0.953   3.451  13.446  0.0040 -0.0383 -0.0037
 3688W        W 7739   0.441   0.571  12.592 -0.0585  0.0345 -0.0834
 3689W        W 7740   4.410   4.229  13.812  0.2578  0.0633  0.0757
 3690W        W 7741   8.441   5.702   2.203  0.4587  0.3077 -0.3199
 3691W        W 7742   6.550   3.916  10.824 -0.2972 -0.1261  0.2046
 3692W        W 7743   4.999   8.381   4.356 -0.2411  0.0743 -0.0991
 3693W        W 7744   1.396   2.470   0.050  0.3932  0.2377 -0.2997
 3694W        W 7745   1.256   3.533  10.263  0.1654  0.0312  0.0084
 3695W        W 7746   3.801   1.663  10.093  0.3511  0.1930 -0.3670
 3696W        W 7747   0.532   8.650   1.977 -0.1870  0.1885  0.0523
 3697W        W 7748   6.668   5.370   1.554 -0.0036 -0.0446 -0.0237
 3698W        W 7749   4.965   3.153  11.852 -0.1942 -0.0643  0.5265
 3699W        W 7750   7.157   1.711   4.537 -0.1119 -0.0090 -0.4420
 3700W        W 7751   2.399   6.607  12.332  0.4266 -0.1223 -0.2701
 3701W        W 7752   5.979   5.491  11.798  0.3653 -0.1667  0.0997
 3702W        W 7753   3.333   1.026  10.596  0.1217 -0.3069 -0.2454
 3703W        W 7754   2.411   8.839   1.827 -0.0860 -0.0506  0.3760
 3704W        W 7755   7.157   3.984  13.124 -0.0457 -0.1346  0.0589
 3705W        W 7756   5.553   7.424   3.714 -0.1887 -0.0504  0.0879
 3706W        W 7757   8.001   6.214  11.721 -0.0224 -0.0574  0.2665
 3707W        W 7758   3.657   3.678   0.925 -0.1125 -0.3320 -0.1981
 3708W        W 7759   1.727   5.752   0.850  0.1314  0.2822  0.1564
 3709W        W 7760   3.612   8.466  12.624 -0.0595  0.0562 -0.1430
 3710W        W 7761   1.756   6.831   2.861 -0.3505  0.3170  0.3950
 3711W        W 7762   8.077   4.547   1.637  0.1512 -0.3959 -0.1276
 3712W        W 7763   1.563   2.192   2.361 -0.0689 -0.0411 -0.1667
 3713W        W 7764   5.918   7.280   1.126  0.1951 -0.0689  0.3059
 3714W        W 7765   8.652   6.855  13.136  0.0117  0.1846  0.4211
 3715W        W 7766   7.581   1.823   9.535  0.2709  0.2434  0.1581
 3716W        W 7767   6.940   4.836   5.009  0.4212  0.1520  0.1377
 3717W        W 7768   4.493   0.951   3.515 -0.3292 -0.1259  0.2097
 3718W        W 7769   4.919   4.703  10.658 -0.1861 -0.0968 -0.2366
 3719W        W 7770   5.216   7.655  11.205  0.1886 -0.1634  0.0164
 3720W        W 7771   5.874   8.111  11.452 -0.0115 -0.0206  0.1884
 3721W        W 7772   8.519   7.850   0.498  0.1498 -0.0090  0.2580
 3722W        W 7773   8.115   6.483   4.617 -0.3703  0.0901  0.3246
 3723W        W 7774   9.383   0.283   3.960  0.1665  0.1091  0.0039
 3724W        W 7775   6.023   9.282   8.977 -0.1682  0.2024 -0.0029
 3725W        W 7776   6.839   8.729   3.527 -0.1486  0.1828  0.0178
 3726W        W 7777   8.590   9.120   1.428 -0.0980  0.0414 -0.0355
 3727W        W 7778   8.082   0.358   3.301  0.2822  0.1161  0.2725
 3728W        W 7779   6.905   1.261   4.508  0.0209 -0.0521  0.1183
 3729W        W 7780   0.189   0.210  10.834 -0.1284 -0.1096  0.2279
 3730W        W 7781  10.150   6.649  13.546  0.1989 -0.2145  0.4669
 3731W        W 7782   1.723   0.127   3.853 -0.1940 -0.2032 -0.1477
 3732W        W 7783   3.147   3.188  12.309 -0.0036 -0.0243  0.0453
 3733W        W 7784   0.309   9.107  11.282  0.2061 -0.0643 -0.0249
 3734W        W 7785   2.571   8.314  10.939 -0.1045 -0.1298 -0.0018
 3735W        W 7786   9.810   0.983  13.881  0.2170 -0.3526 -0.0024
 3736W        W 7787   4.506   7.116   0.151 -0.0175 -0.1531 -0.2122
 3737W        W 7788   6.587   2.705   3.873  0.0935  0.1507 -0.0183
 3738W        W 7789   5.699   2.602   3.130 -0.0336 -0.0077 -0.1772
 3739W        W 7790   8.592   9.472  11.168 -0.0479  0.0519 -0.3054
 3740W        W 7791   6.841   7.980   4.401  0.2607  0.1891 -0.0279
 3741W        W 7792   3.722   2.800   2.220  0.0283  0.1302  0.3147
 3742W        W 7793   3.542   0.065   1.115  0.0055  0.2141 -0.0014
 3743W        W 7794   7.048   6.963   9.866 -0.0546  0.1560  0.0273
 3744W        W 7795   0.017   1.968   1.762  0.0895 -0.1235  0.1995
 3745W        W 7796   6.517   2.634  10.947  0.1555 -0.1580  0.0416
 3746W        W 7797   0.137   4.913  11.785  0.0060  0.1919  0.0849
 3747W        W 7798   3.493   0.852  11.025 -0.1702  0.0614 -0.1482
 3748W        W 7799   4.139   8.376   2.878  0.1678  0.1955  0.1922
 3749W        W 7800   5.152   3.834   6.053 -0.1787 -0.0687  0.0145
 3750W        W 7801   9.330   4.123   4.328  0.1823  0.2092  0.1260
 3751W        W 7802   1.722   1.137  12.376  0.0785 -0.5453 -0.0706
 3752W        W 7803   2.037   9.291   9.986  0.1153  0.1604 -0.1537
 3753W        W 7804   8.851   6.340   3.856  0.0074  0.0516  0.3122
 3754W        W 7805   3.464   9.054   2.800  0.1855 -0.0581 -0.1362
 3755W        W 7806   9.267   0.138   0.802  0.1254 -0.0090 -0.2765
 3756W        W 7807   7.925   0.815   9.359  0.3190  0.0451  0.4472
 3757W        W 7808   3.027   6.811  11.174  0.0060  0.0465 -0.1210
 3758W        W 7809   2.456   5.988   1.080 -0.0110  0.1111  0.2528
 3759W        W 7810   3.557   2.950  11.754  0.1538 -0.1409 -0.1212
 3760W        W 7811   9.022   5.765   3.589  0.0691  0.0154 -0.4181
 3761W        W 7812   6.148   0.133   9.425  0.1226  0.1218 -0.0308
 3762W        W 7813   2.975   0.532   9.427 -0.1787 -0.1001  0.2399
 3763W        W 7814  10.152   8.123   1.724  0.0766 -0.0004  0.2750
 3764W        W 7815   7.458   8.331   8.908 -0.0027 -0.0106  0.0705
 3765W        W 7816   0.145   2.742   2.271  0.1058 -0.0242  0.2216
 3766W        W 7817   8.294   5.925  12.158 -0.1357 -0.0795  0.1477
 3767W        W 7818   8.444   8.357  12.972 -0.0318 -0.0830  0.2779
 3768W        W 7819   2.127   9.528   2.211 -0.0334 -0.1745 -0.3135
 3769W        W 7820   8.629   2.138   0.016  0.0075  0.0085 -0.1082
 3770W        W 7821   0.017   9.533  10.348 -0.2463  0.1335 -0.1011
 3771W        W 7822   9.749   9.918   3.231  0.1763 -0.0971 -0.0997
 3772W        W 7823   1.008   0.660  10.793 -0.0003 -0.0302  0.1449
 3773W        W 7824   9.125   1.198   3.900 -0.0711  0.0808 -0.1375
 3774W        W 7825   4.516   8.337   1.040 -0.0009  0.1305  0.1009
 3775W        W 7826   6.491   4.845  11.951 -0.0609 -0.3485 -0.1118
 3776W        W 7827   5.624   5.123  11.847 -0.0214 -0.0051  0.1244
 3777W        W 7828   2.311   7.263   1.213  0.4486  0.2407  0.1192
 3778W        W 7829   7.480   0.191  10.663  0.0196  0.1100  0.2504
 3779W        W 7830   1.619  10.142  13.084  0.0975 -0.2015  0.2903
 3780W        W 7831   8.479   5.210   4.179  0.0308  0.1327 -0.0641
 3781W        W 7832   1.135   9.376   5.087  0.1514  0.1585 -0.1241
 3782W        W 7833   3.104   7.148   1.653 -0.2673  0.1288 -0.2151
 3783W        W 7834   0.216   6.376  10.710 -0.2862  0.2923 -0.0218
 3784W        W 7835   2.921   0.099   1.308 -0.1296 -0.1203  0.3516
 3785W        W 7836   6.172   9.647  11.151  0.1588 -0.1403  0.0988
 3786W        W 7837   6.798   4.566  11.699  0.1943  0.1038 -0.0433
 3787W        W 7838   5.303   2.989   1.115  0.2662  0.1353  0.2454
 3788W        W 7839   8.010   6.665   1.737  0.0707  0.1250 -0.0867
 3789W        W 7840   8.211   7.362   9.537 -0.1978 -0.1539 -0.1245
 3790W        W 7841   7.717   2.835  10.097  0.0513 -0.0232 -0.0643
 3791W        W 7842   8.382   3.478   9.489  0.3068 -0.1481  0.0330
 3792W        W 7843   3.169   7.781   4.358 -0.1323 -0.2494 -0.2672
 3793W        W 7844   7.311   0.906  12.076  0.0137  0.5237  0.1109
 3794W        W 7845   5.084   0.436   4.594 -0.0792 -0.1693  0.0196
 3795W        W 7846   3.612   5.145   4.116  0.2788 -0.1830  0.1723
 3796W        W 7847   4.284   1.408   1.744 -0.2417  0.0381  0.1786
 3797W        W 7848   0.943   2.805   2.242  0.2360  0.0025 -0.0593
 3798W        W 7849   1.266   7.461  11.931  0.1524 -0.0147 -0.3170
 3799W        W 7850   9.321   5.557   1.632 -0.1791 -0.1089  0.2596
 3800W        W 7851   9.317   8.029  10.073  0.1107  0.1260  0.2182
 3801W        W 7852   0.924   1.901  12.552  0.0091 -0.1165 -0.3780
 3802W        W 7853   5.401  10.087  10.839 -0.5876  0.0565 -0.0805
 3803W        W 7854   0.967   7.221  12.938 -0.1291  0.2605  0.0572
 3804W        W 7855   4.525   1.932   4.096  0.1199 -0.2383 -0.0747
 3805W        W 7856   2.514   0.711  13.035  0.1220  0.0318 -0.0596
 3806W        W 7857   5.752   6.634   0.108 -0.2105 -0.0419  0.1020
 3807W        W 7858   9.103   3.619  10.219 -0.1232  0.0032  0.0174
 3808W        W 7859   6.200   2.187   5.258  0.1699  0.2008  0.2465
 3809W        W 7860   9.981   0.307   9.155  0.1612 -0.0296 -0.1710
 3810W        W 7861   8.034   5.479   0.779 -0.1094 -0.2813  0.0289
 3811W        W 7862   9.756   1.758   0.390 -0.0136 -0.3240  0.2950
 3812W        W 7863   6.295   7.427   1.990  0.3839  0.0386 -0.3474
 3813W        W 7864   3.386   2.893   0.801  0.3242 -0.1573 -0.2863
 3814W        W 7865   3.024   9.193   2.586  0.1071  0.1303 -0.1565
 3815W        W 7866   2.598  10.126  10.718 -0.1564  0.1137  0.0258
 3816W        W 7867   6.458   1.349   3.839 -0.0181 -0.1061  0.0699
 3817W        W 7868   7.814   3.075  12.142  0.0334  0.0248 -0.3163
 3818W        W 7869   3.968   0.702   4.288  0.0287 -0.1676  0.0551
 3819W        W 7870   3.515   9.926  11.030 -0.2667 -0.1547  0.1205
 3820W        W 7871   2.461   0.928   1.809 -0.0969 -0.1489 -0.3310
 3821W        W 7872   6.671   1.318   0.805 -0.0600 -0.3188 -0.1070
 3822W        W 7873   9.896   2.031   4.260 -0.3429  0.0310  0.3233
 3823W        W 7874   2.079   5.389  12.119  0.1145  0.1294 -0.0037
 3824W        W 7875   0.865   9.298   3.391 -0.1571  0.1706 -0.0540
 3825W        W 7876   9.251   1.453   9.973  0.1080 -0.2892 -0.1144
 3826W        W 7877   3.416   4.180  10.146  0.4441  0.1228 -0.0673
 3827W        W 7878   5.484   4.770  10.893  0.0281  0.2686  0.0041
 3828W        W 7879   1.112   9.775  12.940  0.1580 -0.2158 -0.0572
 3829W        W 7880   8.281   0.499   9.630 -0.2465 -0.1356  0.1614
 3830W        W 7881   4.417   2.963   4.012  0.0900 -0.2340  0.1571
 3831W        W 7882   9.062   6.539  10.265  0.0025 -0.2725  0.1501
 3832W        W 7883   3.595   8.203   3.000  0.2013 -0.3345  0.0933
 3833W        W 7884   5.038   6.576   2.039 -0.1862 -0.1460  0.0854
 3834W        W 7885   7.933   1.193  13.185  0.0760  0.0520  0.1018
 3835W        W 7886   7.334   9.490   2.427  0.3074 -0.0921 -0.0558
 3836W        W 7887   9.015   6.051  10.287  0.0942  0.1101 -0.0161
 3837W        W 7888   0.445   3.152  10.543 -0.2367 -0.0925 -0.1960
 3838W        W 7889   9.503   4.563   0.473  0.2031 -0.0961 -0.0616
 3839W        W 7890   0.942   2.729  13.133  0.1279 -0.2757 -0.0518
 3840W        W 7891   0.572   6.201   0.696 -0.0931 -0.1219  0.0651
 3841W        W 7892   8.825   4.332  10.662  0.0598 -0.0875  0.1527
 3842W        W 7893   2.107   8.445  10.070 -0.0988 -0.2093 -0.2088
 3843W        W 7894   6.382   7.881   1.857 -0.1682 -0.0758 -0.1336
 3844W        W 7895   1.848   1.466  10.135  0.1387 -0.0512  0.0019
 3845W        W 7896   3.776   3.799   2.322  0.2164  0.0337  0.1211
 3846W        W 7897   9.481   2.337   4.215  0.1060  0.0054  0.3194
 3847W        W 7898   2.122   7.427  12.026  0.0183  0.2229 -0.1199
 3848W        W 7899   3.137   8.646  10.832  0.0540 -0.0999  0.0466
 3849W        W 7900   5.554   4.167   5.483  0.0582 -0.1034  0.1923
 3850W        W 7901   1.051   7.294  10.494  0.0605 -0.2453 -0.2956
 3851W        W 7902   2.726   6.305   2.733 -0.1362 -0.3351 -0.3287
 3852W        W 7903   0.880   9.505   5.466  0.0431 -0.2029  0.0654
 3853W        W 7904   2.236   2.504  10.812  0.1981  0.3856  0.1189
 3854W        W 7905   7.712   4.037  13.160  0.0219  0.2755 -0.0790
 3855W        W 7906   1.862   8.863   0.122 -0.1250 -0.2734  0.1374
 3856W        W 7907   4.859   6.046   9.214 -0.3768 -0.2515 -0.1470
 3857W        W 7908   5.568   2.131   1.950 -0.0282  0.1454  0.1610
 3858W        W 7909  10.043   1.541   2.947 -0.0902 -0.0062  0.1783
 3859W        W 7910   9.186   2.516   2.531 -0.3099  0.1190  0.2968
 3860W        W 7911   2.220   9.267   0.813 -0.1689 -0.0421  0.1808
 3861W        W 7912   4.276   7.349   4.323  0.2025 -0.2592 -0.1741
 3862W        W 7913   8.708   2.258   4.759  0.1352 -0.0951  0.1412
 3863W        W 7914   4.025   9.873   0.634 -0.1634 -0.4028  0.1692
 3864W        W 7915   3.411   6.629  11.509 -0.3584 -0.2871 -0.1488
 3865W        W 7916   6.785  10.108   1.064 -0.0506 -0.0191 -0.2855
 3866W        W 7917   8.910   2.708   2.174  0.0485  0.4795 -0.0930
 3867W        W 7918   5.310   2.512  12.601  0.0929 -0.1517 -0.1937
 3868W        W 7919   7.831   3.696  12.706  0.0315 -0.1138  0.1206
 3869W        W 7920   8.745   3.111   1.789 -0.1851 -0.5918  0.0571
 3870W        W 7921   7.756   9.061  11.003  0.3590 -0.0995  0.2666
 3871W        W 7922   8.015   4.187   2.102 -0.0327 -0.0693  0.0475
 3872W        W 7923  10.161   9.552  12.067  0.0896  0.0541 -0.0630
 3873W        W 7924   6.074   1.698   1.438 -0.0072 -0.3813  0.2556
 3874W        W 7925   8.811   7.608   0.889  0.1035 -0.0453 -0.1320
 3875W        W 7926   4.206   6.407  10.940  0.1794  0.0034 -0.0759
 3876W        W 7927   4.453  10.087  13.616 -0.1852 -0.0757 -0.1231
 3877W        W 7928   4.549   4.885   9.582 -0.0051  0.2204 -0.2440
 3878W        W 7929   8.495   2.510   3.411 -0.1906  0.2508 -0.1627
 3879W        W 7930   5.625   8.273   5.257  0.3833  0.1633 -0.2858
 3880W        W 7931   0.386   4.566  13.034  0.2603 -0.0963  0.0993
 3881W        W 7932   1.803   5.480   1.655  0.0493  0.3415 -0.0094
 3882W        W 7933   6.290   0.652   2.725  0.0667 -0.0164  0.0199
 3883W        W 7934   7.415   1.589   2.649 -0.2015  0.1353  0.3918
 3884W        W 7935   6.777   1.858   9.566 -0.1057 -0.0197 -0.0091
 3885W        W 7936   6.939   9.870   9.790 -0.1175 -0.1395  0.2581
 3886W        W 7937   5.224   8.734  10.846  0.0328  0.1924  0.2283
 3887W        W 7938   4.774   1.770   9.845  0.1912 -0.0312 -0.0812
 3888W        W 7939   5.399  10.032   2.188  0.1978 -0.1908  0.0739
 3889W        W 7940   6.210   2.915   4.149  0.0644  0.2694  0.0149
 3890W        W 7941   7.384   8.214  11.078 -0.0256 -0.1054  0.1104
 3891W        W 7942   1.668   8.634   3.050 -0.3505  0.0010  0.0529
 3892W        W 7943   9.515   2.669   0.801  0.4775 -0.0615  0.2240
 3893W        W 7944   8.497   3.835   4.920  0.0411 -0.3541  0.1535
 3894W        W 7945   6.571   5.307  10.750 -0.2062  0.1789  0.2275
 3895W        W 7946   2.776   4.659  10.827  0.1751 -0.0049  0.1055
 3896W        W 7947   6.027   2.664   4.507  0.0680 -0.0047 -0.1629
 3897W        W 7948   2.243   1.552  10.951  0.3922  0.2593 -0.1734
 3898W        W 7949   0.618   0.298   4.388  0.0223 -0.0999  0.2476
 3899W        W 7950   0.708   4.303  10.700 -0.0541  0.1381  0.3418
 3900W        W 7951   0.788   3.623   1.991 -0.0531 -0.1831  0.1410
 3901W        W 7952   1.575   6.095  13.296 -0.0547  0.1675  0.0345
 3902W        W 7953   3.954   6.801  10.101  0.1814 -0.2313 -0.0998
 3903W        W 7954   5.166   4.574   3.742 -0.1261  0.0337  0.0962
 3904W        W 7955   5.580   1.196  10.704  0.0613 -0.0072  0.0379
 3905W        W 7956   9.443   8.474   3.450 -0.0227 -0.2513  0.2928
 3906W        W 7957   6.199   7.365   2.489  0.0344 -0.1943 -0.1282
 3907W        W 7958   7.651   7.037   1.649 -0.2204 -0.0833 -0.3501
 3908W        W 7959   3.549   9.550  11.679  0.0862 -0.1452  0.3245
 3909W        W 7960   6.009   0.994  11.472 -0.0116 -0.2911  0.2155
 3910W        W 7961   6.811   2.775  10.179 -0.0548 -0.0248  0.2133
 3911W        W 7962   6.252   4.142   4.724 -0.0564  0.0600  0.1067
 3912W        W 7963   8.960   8.610   9.692  0.2533 -0.3563  0.0005
 3913W        W 7964   5.459   5.748   1.079  0.0479 -0.0900  0.0036
 3914W        W 7965   9.996   8.652  10.090  0.0490 -0.1088 -0.1850
 3915W        W 7966   6.483   3.520   3.555 -0.1346 -0.0657 -0.1207
 3916W        W 7967   8.693   4.531   9.289  0.2038 -0.0254 -0.3698
 3917W        W 7968   9.189   1.676  12.682 -0.1199  0.1068  0.0025
 3918W        W 7969   4.221   9.354   3.413 -0.0109 -0.2458  0.1464
 3919W        W 7970   9.155   0.109  11.422 -0.1363  0.0533 -0.0976
 3920W        W 7971   9.140   6.365  11.975  0.1753  0.0194  0.3923
 3921W        W 7972   8.569   4.286   3.945 -0.0053  0.1350 -0.2800
 3922W        W 7973   1.276   5.030   3.307 -0.0667  0.1671  0.0180
 3923W        W 7974   8.656   9.883  10.723 -0.1232  0.2851 -0.3377
 3924W        W 7975   1.870   5.967   1.718 -0.0342  0.0088  0.0838
 3925W        W 7976   6.011   8.448  10.619  0.1156  0.0325 -0.1674
 3926W        W 7977   7.744   6.737   3.341 -0.1307  0.0638  0.0785
 3927W        W 7978   6.931   9.207   3.330  0.1289 -0.0050  0.0631
 3928W        W 7979   2.198   1.335   1.743 -0.0377 -0.0879 -0.1992
 3929W        W 7980   1.523   1.758   0.614 -0.2034  0.2683  0.2083
 3930W        W 7981   7.119   6.811   4.020  0.1614 -0.2669  0.2099
 3931W        W 7982   4.408   6.728  12.657 -0.1030 -0.0774 -0.2376
 3932W        W 7983   9.155   5.803   9.879 -0.0498 -0.0435 -0.0026
 3933W        W 7984   7.867   1.266  11.510  0.1727  0.2173 -0.3134
 3934W        W 7985  10.197   6.063  11.032  0.0390 -0.0304 -0.2995
 3935W        W 7986   0.452  10.166  10.208  0.2915  0.2176  0.0262
 3936W        W 7987   7.209   9.521   3.017 -0.0022  0.1924  0.0484
 3937W        W 7988   8.318   0.001  12.076 -0.3296  0.0265 -0.1497
 3938W        W 7989   2.177   7.131   2.705  0.0591  0.0807  0.2313
 3939W        W 7990   6.417   3.772   0.037  0.0773  0.0099 -0.0652
 3940W        W 7991   1.483   4.280   2.268  0.0427  0.2168  0.4389
 3941W        W 7992   2.394   1.209   9.773 -0.4281 -0.1519 -0.0646
 3942W        W 7993   9.257   4.867   3.466  0.2656 -0.3807  0.0519
 3943W        W 7994   3.463   6.417   3.288  0.2235 -0.2442 -0.1049
 3944W        W 7995   0.852   8.098  12.920 -0.2087  0.0120  0.1083
 3945W        W 7996   8.263   8.538  12.370 -0.1753 -0.2357  0.0319
 3946W        W 7997   1.678   7.818  11.511  0.1296  0.2266  0.0152
 3947W        W 7998   4.599   5.690  10.757  0.1188  0.4932 -0.0455
 3948W        W 7999   7.093   1.322   4.934 -0.0116  0.0134 -0.0757
 3949W        W 8000   8.180   2.535   0.130 -0.2677 -0.1412 -0.1336
 3950W        W 8001   8.422   1.192   8.862 -0.1991 -0.4013  0.0965
 3951W        W 8002   7.723   9.913  10.361  0.2587 -0.0099 -0.1257
 3952W        W 8003   0.377   6.424   2.524  0.1564 -0.1334  0.1527
 3953W        W 8004   5.486   8.276   2.114 -0.1816 -0.1825  0.1314
 3954W        W 8005   8.920   4.879   1.064  0.0635  0.3284  0.0029
 3955W        W 8006  10.195   0.482   2.521 -0.2394 -0.5118 -0.1929
 3956W        W 8007   4.182   4.327   3.727 -0.0112  0.0111  0.1844
 3957W        W 8008   7.241   7.658  12.885  0.0601 -0.2368 -0.1336
 3958W        W 8009   3.964   0.378   1.638  0.2505  0.3489  0.1967
 3959W        W 8010   1.565   9.298   0.229 -0.1521 -0.0118 -0.0600
 3960W        W 8011   2.715   1.271   1.044  0.0346  0.0270  0.0025
 3961W        W 8012   8.972   2.693   3.064 -0.0444  0.0660  0.0405
 3962W        W 8013   6.496   2.273   9.670  0.1220  0.0225  0.3125
 3963W        W 8014   9.333   6.639  10.975 -0.0898  0.0132 -0.1482
 3964W        W 8015   1.347   8.284   4.623 -0.0298  0.1887  0.0894
 3965W        W 8016   6.901   4.200   1.751 -0.0993 -0.2593 -0.1532
 3966W        W 8017   7.856   2.959  11.647 -0.2174 -0.2778 -0.0526
 3967W        W 8018   9.220   4.554   4.054 -0.1985  0.2257 -0.1029
 3968W        W 8019   1.169   7.802  10.421  0.0404 -0.2491  0.1274
 3969W        W 8020   3.543   4.788   2.431 -0.0292  0.1726 -0.1794
 3970W        W 8021   1.823   6.422  13.619  0.1651 -0.2651  0.0762
 3971W        W 8022   9.616   5.728   0.746  0.0682  0.1242  0.2809
 3972W        W 8023   0.062   8.127   1.212 -0.1357 -0.2844  0.0787
 3973W        W 8024   0.970  10.187   1.981 -0.0706  0.0508  0.2087
 3974W        W 8025   1.598   9.565   2.278  0.0831 -0.0470 -0.2549
 3975W        W 8026   6.998   8.900  10.346  0.0579 -0.4180  0.2368
 3976W        W 8027   7.549   5.613   1.096 -0.1229 -0.0423  0.0551
 3977W        W 8028   2.546   3.781   3.018  0.1724  0.2478  0.1203
 3978W        W 8029   9.399   7.739   1.359 -0.1107 -0.2838 -0.1405
 3979W        W 8030   1.728   2.037  12.011  0.1816 -0.2733 -0.2879
 3980W        W 8031   5.387   6.785   1.625 -0.0338 -0.2023 -0.2646
 3981W        W 8032   9.185   0.982   2.454 -0.0632 -0.1325 -0.0062
 3982W        W 8033   5.135   1.000  13.285 -0.1015 -0.1762 -0.0105
 3983W        W 8034  10.160   8.309   2.887  0.2757  0.0153  0.0775
 3984W        W 8035   8.380   3.416   4.544 -0.1619  0.2685  0.5330
 3985W        W 8036   4.473   4.082   9.332  0.0965 -0.2196  0.0287
 3986W        W 8037   3.555   0.858  11.519  0.0354  0.2632  0.1943
 3987W        W 8038   3.302   9.325   4.045 -0.0440 -0.1430  0.0055
 3988W        W 8039   4.274   2.485  12.893  0.0118  0.1564  0.1587
 3989W        W 8040   2.177   9.552  10.512  0.0266  0.3831  0.1896
 3990W        W 8041   2.728   0.089   4.750 -0.0667  0.3302  0.0181
 3991W        W 8042   6.588   0.009   9.145 -0.3472  0.1494 -0.2513
 3992W        W 8043   3.222   4.538   0.655 -0.0902  0.1265  0.0741
 3993W        W 8044   8.345   4.259   3.518  0.1278 -0.0524 -0.2319
 3994W        W 8045   9.237   3.918   1.621 -0.0572  0.1131 -0.0557
 3995W        W 8046   3.393   0.182   2.398  0.0903  0.0398 -0.2110
 3996W        W 8047   6.950   3.160  10.515 -0.0291  0.2844 -0.0936
 3997W        W 8048   6.814   2.482   3.008  0.0931  0.1716 -0.0390
 3998W        W 8049   8.978   4.849   1.608 -0.1142 -0.3664 -0.2220
 3999W        W 8050   5.111   0.457  11.452  0.0173 -0.0456  0.3014
 4000W        W 8051   4.123   1.956   9.074 -0.2920  0.0908  0.0271
 4001W        W 8052   5.659   5.211  13.479 -0.1060  0.0805 -0.2582
 4002W        W 8053   6.377   5.786   2.005  0.1317 -0.1497  0.0430
 4003W        W 8054   9.982   6.644  10.854  0.0389 -0.2647  0.1861
 4004W        W 8055   2.713   5.108   2.199 -0.0852  0.0604  0.2363
 4005W        W 8056   5.846   8.240   0.330  0.2321 -0.0573  0.0007
 4006W        W 8057   7.611   6.245   1.879  0.1801 -0.3998  0.0377
 4007W        W 8058   2.498   1.703   3.287  0.0698  0.0963  0.2110
 4008W        W 8059   6.655   3.536   3.996 -0.0379  0.1382 -0.1566
 4009W        W 8060   2.751   6.891   3.423  0.0827  0.0705  0.2552
 4010W        W 8061   3.652   3.729  13.480  0.0157 -0.1670  0.1194
 4011W        W 8062   8.467   2.254   0.502  0.0050  0.0436 -0.3477
 4012W        W 8063   1.000   8.466  12.587 -0.1160 -0.0414 -0.1796
 4013W        W 8064   9.754   6.080  12.609  0.1036 -0.1471 -0.0662
 4014W        W 8065   3.559   5.805  12.515  0.1632 -0.2304  0.0700
 4015W        W 8066   7.001   8.266  10.278 -0.3836 -0.0676  0.2646
 4016W        W 8067   4.680   2.781   3.057 -0.2934 -0.2655  0.1970
 4017W        W 8068   8.898   0.306  12.852 -0.1448  0.1850 -0.0325
 4018W        W 8069   8.224   8.789  12.781 -0.2559  0.2458 -0.1249
 4019W        W 8070   0.890   0.065  11.655  0.1207 -0.5009  0.0659
 4020W        W 8071   4.769   5.031  13.568  0.2312  0.0164 -0.0339
 4021W        W 8072   0.401   9.002   3.093 -0.5794 -0.1251 -0.0344
 4022W        W 8073   6.859   0.835  11.313  0.0920 -0.0839 -0.2352
 4023W        W 8074   4.392   4.180  12.758  0.1104  0.2479 -0.1873
 4024W        W 8075   5.482   4.280   9.044  0.3034 -0.0826  0.1236
 4025W        W 8076   0.166   6.596  11.316 -0.2131 -0.3201  0.3753
 4026W        W 8077   9.778   0.879   9.393 -0.2312 -0.0496  0.0323
 4027W        W 8078   6.707   8.249  13.348 -0.2786  0.1773  0.0214
 4028W        W 8079   7.271   6.664   4.975 -0.6162  0.0863 -0.0460
 4029W        W 8080   9.725   7.155  10.128 -0.4169  0.1377 -0.2689
 4030W        W 8081   5.597   6.228  12.244 -0.1291 -0.1349 -0.2242
 4031W        W 8082   0.342   7.798  13.369 -0.1881 -0.2900  0.0025
 4032W        W 8083   5.419   9.618  12.160  0.1283  0.1094  0.0223
 4033W        W 8084   4.630   0.109   1.963 -0.0207  0.0755  0.0290
 4034W        W 8085   0.506   0.189   0.856  0.0102 -0.1180 -0.2739
 4035W        W 8086   0.368   6.377   1.574  0.2150 -0.2154 -0.0153
 4036W        W 8087   2.901   5.946   0.200 -0.0929 -0.0897  0.2537
 4037W        W 8088   8.733   8.615  12.255 -0.0607  0.0295 -0.0809
 4038W        W 8089   6.265   1.824   0.026 -0.1493 -0.0989  0.0241
 4039W        W 8090   8.418   7.305   2.710 -0.2094  0.0920  0.1081
 4040W        W 8091   7.934   4.615   2.506  0.3612  0.3383  0.2132
 4041W        W 8092   4.572   8.640   2.804  0.0128 -0.1048 -0.0899
 4042W        W 8093   9.448   9.729  10.600  0.1478 -0.0536 -0.0566
 4043W        W 8094   0.667   7.987   1.237  0.0032 -0.0052  0.3182
 4044W        W 8095   5.277   8.766  12.625  0.1727  0.0378 -0.0382
 4045W        W 8096   8.265   2.733  11.621  0.1352 -0.0325  0.2573
 4046W        W 8097   7.766   7.232   0.572 -0.1147  0.1859 -0.2215
 4047W        W 8098   5.088   8.125   0.293  0.2876 -0.0825 -0.4754
 4048W        W 8099   1.624   0.752   9.988 -0.0789  0.0328  0.0272
 4049W        W 8100   2.472   6.796   1.808 -0.0861 -0.1819 -0.1909
 4050W        W 8101   2.789   8.828   1.231 -0.1450 -0.2173  0.0529
 4051W        W 8102   4.864   6.906  12.180  0.1433  0.4744  0.1829
 4052W        W 8103   7.729   1.342   3.171 -0.0387  0.1003 -0.1877
 4053W        W 8104   8.027   7.990   2.971  0.3022 -0.1758  0.4496
 4054W        W 8105   6.850   2.061   3.339  0.0414 -0.3280 -0.1088
 4055W        W 8106   9.650   8.923  10.923 -0.3980  0.1544 -0.0420
 4056W        W 8107   6.748   7.232   2.075  0.1708  0.0098 -0.2331
 4057W        W 8108   1.400   0.044   4.235  0.2506  0.2627  0.1927
 4058W        W 8109   5.466   5.249   1.228 -0.2494  0.1125  0.2731
 4059W        W 8110   6.628   1.664   3.130  0.0020  0.1113  0.0466
 4060W        W 8111   1.946   7.566  12.482  0.2096  0.0799  0.2527
 4061W        W 8112   0.838   2.312  12.830  0.2501 -0.2756 -0.1346
 4062W        W 8113   6.598   8.483   1.252 -0.1128 -0.2113  0.0582
 4063W        W 8114   4.073   4.911  11.059  0.3504  0.2056 -0.0860
 4064W        W 8115   5.855   8.698   0.091  0.1151 -0.1822  0.1272
 4065W        W 8116   1.582   7.851  10.720 -0.1277  0.0074 -0.1354
 4066W        W 8117  10.030   1.517   9.940 -0.2007  0.1501 -0.0617
 4067W        W 8118   1.394  10.142   1.636  0.3898  0.3363  0.1650
 4068W        W 8119   4.460   7.980   9.879 -0.2273 -0.0792 -0.1693
 4069W        W 8120   4.970   1.321  12.459  0.0728 -0.2002  0.0079
 4070W        W 8121   0.265   0.618  11.564 -0.2705  0.1555 -0.0565
 4071W        W 8122   3.187   1.990   3.448 -0.0106 -0.1098 -0.2129
 4072W        W 8123   9.143   6.894  13.277 -0.1385  0.0115 -0.2188
 4073W        W 8124   4.595   1.759   2.182  0.0795  0.1439  0.0416
 4074W        W 8125   7.762   3.346   2.801 -0.0847  0.0360  0.1035
 4075W        W 8126   4.330   9.525   0.434  0.2883  0.1021 -0.3571
 4076W        W 8127   4.993   0.423   0.822 -0.0079 -0.0133  0.2310
 4077W        W 8128   6.559   7.961  10.179 -0.2182  0.2232  0.0908
 4078W        W 8129   8.124   7.157   1.957 -0.1064  0.0981  0.2098
 4079W        W 8130   1.000   7.294   2.834 -0.2273 -0.3632  0.1444
 4080W        W 8131   4.486   5.822   2.051  0.1268 -0.0063 -0.2282
 4081W        W 8132   4.180   4.404   1.159  0.1309  0.0374 -0.3060
 4082W        W 8133   2.530   2.305   9.930  0.0669 -0.1682  0.1128
 4083W        W 8134   1.203   8.704  13.889  0.2855 -0.0730 -0.3552
 4084W        W 8135   0.694   5.767  12.089 -0.3268 -0.1330 -0.0141
 4085W        W 8136   3.857   8.579  10.330 -0.1944  0.0713 -0.2600
 4086W        W 8137   9.685   0.425   1.437 -0.3317 -0.2317 -0.2081
 4087W        W 8138   6.557   0.190   4.560  0.1991  0.1050 -0.1719
 4088W        W 8139   1.858   1.573  12.200  0.1379 -0.0185 -0.2439
 4089W        W 8140   5.444   2.788   4.191  0.0425  0.1303 -0.4422
 4090W        W 8141   2.143   1.974   4.139 -0.0884  0.2588 -0.0929
 4091W        W 8142   6.455   2.969   4.661 -0.4247  0.1919  0.1484
 4092W        W 8143   9.841   5.926  13.172 -0.0917  0.1000 -0.1612
 4093W        W 8144   5.601   7.396  10.372 -0.2373  0.1195 -0.1839
 4094W        W 8145   1.770   6.532  13.138 -0.2084 -0.2347  0.0165
 4095W        W 8146   6.704   0.404   2.525 -0.1592 -0.1945 -0.1625
 4096W        W 8147   8.969   2.904  13.110  0.3986 -0.0558 -0.0569
 4097W        W 8148   8.450   7.707  11.263  0.1380 -0.3607 -0.3500
 4098W        W 8149   6.094   4.904  10.622  0.0415 -0.0907  0.0492
 4099W        W 8150   7.414   3.394  12.733 -0.0561  0.0855  0.3208
 4100W        W 8151   4.453   1.497   1.260  0.1434 -0.2879  0.1998
 4101W        W 8152   2.731   7.686   1.376 -0.2580 -0.0954  0.1054
 4102W        W 8153   5.797   5.660   4.380  0.1502 -0.2157  0.1902
 4103W        W 8154   0.068   4.010  10.218  0.1313 -0.0124  0.3361
 4104W        W 8155   5.855   7.063   1.582 -0.0662 -0.1500  0.2335
 4105W        W 8156   3.878   1.401   0.502  0.3343  0.1135 -0.3084
 4106W        W 8157   8.664   9.240  12.186  0.0971  0.0056  0.2092
 4107W        W 8158   8.178   4.158   5.074 -0.2567 -0.3266  0.1960
 4108W        W 8159   8.243   9.581  12.036 -0.0634  0.0341 -0.0540
 4109W        W 8160   0.939  10.040   4.291  0.2640  0.3032 -0.1572
 4110W        W 8161   9.470   4.953  11.934  0.2231 -0.2659  0.4636
 4111W        W 8162   0.933   9.907   3.759  0.1631  0.0386  0.1191
 4112W        W 8163  10.187   1.582   0.482  0.0042  0.0907  0.2183
 4113W        W 8164   9.046   4.539  10.161 -0.0306 -0.2310  0.0768
 4114W        W 8165   0.109   2.678   1.413  0.2779 -0.2144  0.3445
 4115W        W 8166   0.886   1.247   9.825 -0.0950 -0.0601  0.6757
 4116W        W 8167   6.868   9.744   0.135  0.1105  0.3069  0.0259
 4117W        W 8168   7.611   3.804  11.669 -0.1745  0.1913 -0.0398
 4118W        W 8169   6.241   1.899   4.735  0.3134  0.0530  0.2743
 4119W        W 8170   1.423   1.487  10.476 -0.1855  0.4059  0.2657
 4120W        W 8171   3.319   6.670  12.587 -0.0697 -0.2059 -0.1282
 4121W        W 8172   4.303   8.638  11.285 -0.1772 -0.1346  0.1686
 4122W        W 8173   3.167   2.427   9.508 -0.0082  0.0278 -0.0885
 4123W        W 8174   7.555   7.355  13.174  0.1988  0.1662  0.1921
 4124W        W 8175   3.235   6.689   1.324 -0.0064 -0.0701  0.0904
 4125W        W 8176   4.210   5.804   0.263  0.1738  0.1259 -0.1520
 4126W        W 8177   7.929   8.258   9.718  0.1234  0.1287  0.1349
 4127W        W 8178   3.922   2.600  12.480  0.1307 -0.0592 -0.2922
 4128W        W 8179   7.669   0.094   9.254  0.0997 -0.4341 -0.0263
 4129W        W 8180   1.738   9.603   1.065  0.4442  0.2982 -0.0772
 4130W        W 8181   3.651   5.253  13.056  0.0169  0.1904  0.0944
 4131W        W 8182   7.332   0.215   3.770 -0.1401 -0.1895  0.0222
 4132W        W 8183   4.258   5.164  13.515 -0.0136  0.0767 -0.1575
 4133W        W 8184   6.312   9.850   1.757  0.0985  0.0181 -0.0149
 4134W        W 8185   2.083   5.682  11.079  0.3717 -0.2285 -0.0418
 4135W        W 8186   8.726   2.927   2.642  0.1246  0.1116  0.0322
 4136W        W 8187   4.800   5.289   3.246 -0.1788  0.0647 -0.1886
 4137W        W 8188   8.857   1.415  11.864  0.3181  0.2214 -0.2213
 4138W        W 8189   5.363   3.871  11.882  0.0941  0.0127 -0.0004
 4139W        W 8190   6.548   3.274   0.695 -0.0042  0.4454  0.0337
 4140W        W 8191   3.895   2.106   1.115 -0.1893 -0.0150 -0.3234
 4141W        W 8192   3.913   9.863   1.861  0.0490  0.4099 -0.1842
 4142W        W 8193   9.516   3.283   1.055  0.1686 -0.3467  0.2469
 4143W        W 8194   6.136   2.257  11.034  0.2347 -0.1709 -0.0629
 4144W        W 8195   1.678   7.421  13.382 -0.3839  0.3129 -0.0233
 4145W        W 8196   7.691   3.571  12.119 -0.2018  0.1315 -0.1781
 4146W        W 8197   1.270   7.645  13.590  0.4175  0.1170  0.2019
 4147W        W 8198   5.636   3.439  13.666 -0.0204  0.1290  0.0327
 4148W        W 8199   6.850   5.440   0.738  0.0631 -0.0436 -0.0355
 4149W        W 8200   7.670   6.820   4.681 -0.3801  0.3094  0.2351
 4150W        W 8201   6.293   6.213   0.597  0.1760 -0.0953  0.1978
 4151W        W 8202   0.436   4.577   1.841 -0.1682  0.1966  0.2665
 4152W        W 8203   4.564   4.352   4.476 -0.3070  0.0421  0.2956
 4153W        W 8204   6.999   2.020  13.405  0.1755  0.3273  0.0419
 4154W        W 8205   2.684   1.647  12.292  0.0621  0.0321  0.0472
 4155W        W 8206   8.471   4.015   9.840  0.3369 -0.1220  0.1189
 4156W        W 8207   6.758   3.410   4.625 -0.1832  0.4958 -0.0199
 4157W        W 8208   0.696   7.353  13.369  0.0571 -0.2007  0.1939
 4158W        W 8209   4.407   0.742   8.638  0.2932  0.2184 -0.0829
 4159W        W 8210   2.575   9.441  12.394 -0.0384 -0.0580 -0.1276
 4160W        W 8211   8.321   6.951   4.495  0.1819 -0.0181 -0.0018
 4161W        W 8212   1.822   5.778  11.936  0.2297 -0.1855  0.0003
 4162W        W 8213   7.232   6.536   4.494 -0.2699 -0.2841  0.0224
 4163W        W 8214   5.533   4.407   4.154 -0.1431 -0.2380  0.2930
 4164W        W 8215   4.394   9.822   1.970 -0.1577  0.0183  0.0535
 4165W        W 8216   1.005   8.412  13.245 -0.1953 -0.2220 -0.0506
 4166W        W 8217   8.347   5.379   1.183 -0.1593 -0.0751 -0.0009
 4167W        W 8218   4.058   3.659  10.740  0.0572 -0.0594 -0.3126
 4168W        W 8219   5.939   2.119  10.638 -0.2297 -0.1988 -0.0811
 4169W        W 8220   2.510   6.619   3.732  0.2968  0.2468  0.1918
 4170W        W 8221   3.942   2.971  10.442 -0.0202 -0.2453 -0.4081
 4171W        W 8222   3.160   6.365  13.200  0.1425  0.2607  0.0450
 4172W        W 8223   8.191   0.777   3.600 -0.0980  0.0074  0.1118
 4173W        W 8224   7.107   0.597   9.479  0.0999  0.1577  0.2567
 4174W        W 8225   6.854   0.715   4.550  0.3149 -0.4665  0.1218
 4175W        W 8226   4.505   1.412  12.396  0.2443 -0.0412 -0.0729
 4176W        W 8227   0.605   1.324   5.683  0.0688  0.1677  0.2237
 4177W        W 8228   5.762   0.788  10.347  0.0671  0.2798  0.2357
 4178W        W 8229   3.071   8.496  13.535  0.1284  0.0280 -0.3881
 4179W        W 8230   5.337   1.522  12.859 -0.3197  0.3277 -0.2244
 4180W        W 8231   5.911   9.314  10.582 -0.0015  0.1594  0.2953
 4181W        W 8232   1.676   6.640   0.119  0.0102  0.2670  0.0052
 4182W        W 8233   9.886   4.449   3.517 -0.0373 -0.0226 -0.1782
 4183W        W 8234  10.071   5.742   0.512  0.2740  0.0808  0.2646
 4184W        W 8235   5.319   7.657   3.246  0.0440  0.0818 -0.0586
 4185W        W 8236   3.210   1.584   3.789 -0.0821  0.2076 -0.1052
 4186W        W 8237   3.080   4.788   1.925 -0.1955  0.1050 -0.0211
 4187W        W 8238   7.102   2.700   4.031 -0.0602 -0.1386  0.2172
 4188W        W 8239   2.361  10.132   1.603  0.3172  0.0138  0.2406
 4189W        W 8240   4.456   7.738  11.778 -0.1826 -0.2270  0.0220
 4190W        W 8241   1.565   3.862   2.536 -0.1344 -0.2888 -0.2124
 4191W        W 8242   4.368   4.080   1.572  0.1255 -0.1101 -0.0558
 4192W        W 8243   7.537   2.649   1.393 -0.1119 -0.0833  0.1715
 4193W        W 8244   3.307   5.682  10.846 -0.0951 -0.0673 -0.0402
 4194W        W 8245   2.992   5.232   9.857 -0.1371 -0.1833 -0.2159
 4195W        W 8246   0.954   1.749   4.857  0.0772 -0.2062  0.0797
 4196W        W 8247   4.354   5.645  10.280 -0.0860 -0.4721 -0.0579
 4197W        W 8248   4.050   9.826  11.049  0.1084 -0.0889  0.1385
 4198W        W 8249  10.188   5.648   2.046  0.1507 -0.1875 -0.0252
 4199W        W 8250   1.146   1.542   2.566  0.0438 -0.0083  0.0482
 4200W        W 8251   2.375   2.210  13.011 -0.1706 -0.4622 -0.0849
 4201W        W 8252   2.077   4.414  13.537 -0.4738 -0.1166 -0.1507
 4202W        W 8253   1.667   1.875  10.316 -0.0092  0.0217 -0.1939
 4203W        W 8254   5.624   9.893   9.816 -0.1983  0.2575 -0.3908
 4204W        W 8255   9.822   2.192   2.076  0.0505 -0.2613  0.3691
 4205W        W 8256   0.736   6.524   1.980 -0.0304  0.3110 -0.2979
 4206W        W 8257   4.085   3.597  13.178  0.1336 -0.2310 -0.1319
 4207W        W 8258   8.886   1.849   4.548  0.1735  0.2592 -0.1920
 4208W        W 8259   2.483   0.066  11.741  0.1998 -0.0780  0.3114
 4209W        W 8260   1.306   1.975   1.873  0.5166  0.2321  0.1008
 4210W        W 8261   9.630   0.292   2.493  0.0107 -0.2275  0.3900
 4211W        W 8262   7.010   1.626   1.789  0.0869  0.1974 -0.1086
 4212W        W 8263   9.093   3.666  11.193 -0.3013  0.0963 -0.4363
 4213W        W 8264   4.889   9.475  11.690 -0.2903  0.0149 -0.1959
 4214W        W 8265   2.757   1.246  13.767 -0.2533 -0.0719  0.1863
 4215W        W 8266   4.962   0.753  12.399  0.1138  0.0547  0.0301
 4216W        W 8267   8.459   0.519   4.010  0.3062 -0.2129 -0.0292
 4217W        W 8268   7.438   3.586   9.367 -0.0295 -0.2118  0.0177
 4218W        W 8269   6.100   4.052  13.125  0.1502  0.0193 -0.0023
 4219W        W 8270   9.751   2.063   3.077  0.3365  0.2417  0.1929
 4220W        W 8271   6.605   7.525  11.459 -0.3135 -0.1015  0.2454
 4221W        W 8272   2.032   3.533   2.423  0.3647 -0.3381 -0.2389
 4222W        W 8273   2.214   2.705  11.536  0.1817  0.2380  0.0839
 4223W        W 8274   6.217   6.009   3.321 -0.3612  0.0549  0.0602
 4224W        W 8275   8.924   3.259   4.570 -0.0328  0.2569  0.0933
 4225W        W 8276   6.650   3.974   5.010  0.3817 -0.2822  0.0618
 4226W        W 8277   7.532   1.493   3.591  0.0254 -0.0655  0.1163
 4227W        W 8278   6.373   8.264   4.022 -0.0157 -0.0349  0.2481
 4228W        W 8279   3.526   4.944   5.095  0.0135 -0.0510 -0.5522
 4229W        W 8280   2.301   8.641   2.438 -0.0744  0.0169 -0.0626
 4230W        W 8281   3.618   1.070   0.914 -0.2154  0.0519 -0.0149
 4231W        W 8282   2.066   6.223  12.390 -0.0524  0.1468 -0.2488
 4232W        W 8283   6.518   3.128  13.562  0.0067 -0.1389 -0.1807
 4233W        W 8284   6.819   8.299   9.256  0.2129  0.0355 -0.0215
 4234W        W 8285   6.563   3.600  11.232 -0.0431 -0.1950 -0.1403
 4235W        W 8286   0.376   2.233  11.391  0.2956 -0.2822  0.0156
 4236W        W 8287   4.154   0.012   1.095  0.1162  0.2035 -0.1202
 4237W        W 8288   9.392   0.877  12.285  0.1638  0.1077 -0.0217
 4238W        W 8289   5.988   6.983   4.957 -0.2554 -0.0911 -0.0509
 4239W        W 8290   8.234   0.120   9.295 -0.0910  0.0064 -0.3019
 4240W        W 8291   6.953   3.895  11.125  0.2749  0.1459 -0.1030
 4241W        W 8292   3.542   6.179  11.659  0.2355  0.1180 -0.0123
 4242W        W 8293   4.624   9.430   3.714  0.0795  0.0256 -0.1124
 4243W        W 8294   5.762   7.065  12.789  0.0244 -0.1765  0.2381
 4244W        W 8295   0.147   3.556   9.351  0.1362  0.0282 -0.1920
 4245W        W 8296   3.544   3.202  13.085 -0.0281  0.1240  0.1306
 4246W        W 8297   4.414   2.288   9.919  0.0563 -0.0214  0.0065
 4247W        W 8298   3.455   1.534  12.808  0.3613  0.0977  0.1210
 4248W        W 8299   7.199   6.729  12.149  0.1779  0.0395  0.0473
 4249W        W 8300   3.957   5.422  13.842  0.0674 -0.1719  0.0165
 4250W        W 8301   9.779   7.670   2.502 -0.2186  0.0496  0.2833
 4251W        W 8302   3.105   5.403  11.175 -0.3641  0.0868  0.0795
 4252W        W 8303   1.170   2.519  13.524  0.1487  0.2250  0.1662
 4253W        W 8304   2.214   6.247   3.017 -0.1240 -0.0363  0.0842
 4254W        W 8305   2.742   0.625   1.002 -0.1539  0.1988 -0.0247
 4255W        W 8306   0.060   3.263  13.865 -0.1640 -0.3015  0.2184
 4256W        W 8307   4.531   7.378   3.453 -0.0361  0.3653 -0.1096
 4257W        W 8308   3.551   4.762   1.966 -0.5116 -0.4040 -0.2491
 4258W        W 8309   3.222   8.835   0.125  0.2545 -0.1310  0.2036
 4259W        W 8310   8.776   8.158   4.338  0.1332 -0.0535 -0.1443
 4260W        W 8311   9.208   9.268  12.775  0.1796  0.0597  0.4538
 4261W        W 8312   1.070   3.938  12.428 -0.1845  0.1208 -0.1427
 4262W        W 8313   6.351   2.548  12.402 -0.0203  0.2721  0.3754
 4263W        W 8314   3.199   4.461   1.154  0.1027  0.0677  0.1121
 4264W        W 8315   6.050   9.677  13.198  0.5657  0.0863 -0.5394
 4265W        W 8316   1.110   6.200   1.895  0.2928 -0.1059  0.1325
 4266W        W 8317   6.124   6.320  10.404  0.0513 -0.0248 -0.2021
 4267W        W 8318   3.496   6.073  13.462 -0.1500 -0.1904  0.0981
 4268W        W 8319   4.156   3.522   1.659 -0.1304  0.1943 -0.0702
 4269W        W 8320   2.598   7.256   1.627  0.2227 -0.2481 -0.0662
 4270W        W 8321   1.116   3.003   1.175  0.1262  0.2232 -0.3399
 4271W        W 8322   8.563   6.830  12.115  0.1172  0.0457 -0.0731
 4272W        W 8323   7.208   5.195  12.376 -0.0202 -0.2550  0.3440
 4273W        W 8324   1.077   2.168   0.476 -0.1542  0.0968 -0.3776
 4274W        W 8325   6.662   0.856   9.444 -0.1096 -0.2139 -0.0597
 4275W        W 8326   2.427   0.832   3.678  0.0985 -0.0982 -0.1258
 4276W        W 8327   0.489   9.680   8.789  0.0034  0.2070  0.0552
 4277W        W 8328   5.165   5.337   2.381 -0.4940  0.2644 -0.0152
 4278W        W 8329   3.256   6.160   4.029 -0.1297 -0.0030  0.3401
 4279W        W 8330   0.648   8.809   1.474  0.1050  0.0951 -0.1151
 4280W        W 8331   5.546   9.113  12.815  0.3139 -0.0729 -0.0999
 4281W        W 8332   9.266   0.734  11.315 -0.1945  0.1240  0.0568
 4282W        W 8333   2.681   6.687  11.911  0.0304  0.1743 -0.0634
 4283W        W 8334  10.110   4.130   3.822 -0.0933 -0.2822  0.1798
 4284W        W 8335   4.719   8.355   2.328 -0.0843  0.2335  0.0461
 4285W        W 8336   1.916   0.786  11.475 -0.3799  0.0402 -0.0512
 4286W        W 8337   4.407   6.677   4.267  0.0459 -0.0049 -0.1254
 4287W        W 8338   5.202   8.914   0.005  0.0313  0.0236 -0.0570
 4288W        W 8339   8.991   1.256   3.315 -0.2338 -0.0281 -0.3764
 4289W        W 8340   8.964   0.369   3.253 -0.1434 -0.1935  0.1876
 4290W        W 8341   5.677   0.482  13.562 -0.1190 -0.1442 -0.0956
 4291W        W 8342   9.053   6.577  12.864 -0.1026 -0.3173 -0.1358
 4292W        W 8343   2.255   7.966  12.182 -0.1067 -0.4686 -0.0048
 4293W        W 8344   1.097   2.389   4.416  0.0570 -0.1202  0.1851
 4294W        W 8345   5.932   9.500   0.526 -0.0821  0.2049 -0.2574
 4295W        W 8346   3.890   0.696  12.685  0.0937  0.0266  0.0778
 4296W        W 8347   0.716   8.495  12.197  0.1751  0.3088  0.1867
 4297W        W 8348   4.253   8.194   9.482  0.2207 -0.1366  0.0044
 4298W        W 8349   8.869   7.480   2.594 -0.2583  0.0466  0.0669
 4299W        W 8350   9.549   9.996   2.577  0.1574 -0.4197 -0.1531
 4300W        W 8351   4.302   5.091  12.341 -0.0599  0.1025 -0.0424
 4301W        W 8352   4.210   2.935   2.804  0.1920 -0.0819 -0.0771
 4302W        W 8353   7.540  10.104  11.651 -0.2951 -0.1336 -0.1497
 4303W        W 8354   9.024  10.042   3.879 -0.0954 -0.3306  0.0272
 4304W        W 8355   6.516   8.870  10.503 -0.1412 -0.0011  0.1696
 4305W        W 8356   6.999   2.432  12.560  0.2165  0.0158  0.0502
 4306W        W 8357   0.365   7.777  10.996  0.2399 -0.0779  0.0299
 4307W        W 8358   8.333   5.511  10.569  0.2489  0.2238  0.1159
 4308W        W 8359   3.996   3.187   3.822 -0.1799  0.2838  0.2733
 4309W        W 8360   6.543   8.879   5.043  0.1506  0.1239 -0.0417
 4310W        W 8361   3.771   6.267   0.810  0.1194  0.0452  0.2204
 4311W        W 8362   4.522   0.486  12.363 -0.0376  0.0651 -0.1572
 4312W        W 8363   0.772   6.017  11.485 -0.0251  0.2918  0.1708
 4313W        W 8364   2.705  10.117  10.219  0.2264  0.1655  0.1626
 4314W        W 8365   4.235   4.510   2.520 -0.2234 -0.0716  0.0533
 4315W        W 8366   1.320   5.444  11.310  0.1102  0.4243  0.2295
 4316W        W 8367   3.898   7.942  11.531 -0.2641  0.0304  0.0195
 4317W        W 8368   2.236   2.008   3.638  0.0948 -0.1294  0.0373
 4318W        W 8369   0.017   1.664  10.998 -0.1878  0.1229  0.0993
 4319W        W 8370   0.423   8.114  11.427  0.0434 -0.1291 -0.0821
 4320W        W 8371   2.930   1.475  11.511  0.2634 -0.0099  0.4238
 4321W        W 8372   6.373   4.152   0.877 -0.1633  0.0192 -0.1190
 4322W        W 8373   0.100   2.669  10.133 -0.2090 -0.1158 -0.2545
 4323W        W 8374   7.973   6.748  13.867  0.2636 -0.1057  0.2338
 4324W        W 8375   4.880   4.426  10.044  0.1163  0.0037 -0.0332
 4325W        W 8376   6.951   7.153   3.707  0.0130 -0.0682 -0.1173
 4326W        W 8377   6.442   0.600   0.693  0.1496 -0.0389  0.2642
 4327W        W 8378   9.457   0.623   3.295  0.1539  0.1401  0.0437
 4328W        W 8379   4.202   0.727   0.871 -0.0647 -0.1530  0.1819
 4329W        W 8380   8.276   4.348  12.080  0.1836 -0.0434 -0.0021
 4330W        W 8381   2.212   0.381  11.317 -0.0565 -0.1881 -0.2002
 4331W        W 8382   2.089   1.610   9.705  0.5307  0.1909 -0.1435
 4332W        W 8383   8.647   5.803   9.725 -0.1831  0.1547 -0.2062
 4333W        W 8384   3.605   6.246  10.757 -0.1161 -0.1429 -0.1404
 4334W        W 8385   3.139   1.033   0.934 -0.3102  0.1435 -0.1433
 4335W        W 8386   5.084   7.840   4.232  0.0113 -0.0823  0.2336
 4336W        W 8387   2.490   3.828   1.281 -0.1346 -0.1770  0.0815
 4337W        W 8388   9.772   8.464  11.636 -0.0497  0.3311  0.1257
 4338W        W 8389   9.667   9.090   3.154  0.3462 -0.0628  0.0478
 4339W        W 8390   3.663   7.162  10.777  0.0229  0.0225 -0.2018
 4340W        W 8391   1.333   9.244   1.131 -0.0088 -0.2353  0.2107
 4341W        W 8392   6.002   1.816   1.962  0.0753 -0.1167 -0.0377
 4342W        W 8393   7.173   1.626   1.055  0.0631  0.1177 -0.1287
 4343W        W 8394   9.688   3.832   3.957 -0.2197  0.2688 -0.0711
 4344W        W 8395   4.104   1.855   3.551 -0.0675  0.2170  0.1155
 4345W        W 8396   3.919   2.498   0.726  0.0783  0.2138 -0.2799
 4346W        W 8397   8.395   4.557  13.081 -0.2928 -0.4134 -0.1725
 4347W        W 8398   9.838   6.658  10.300 -0.0351 -0.0888  0.0621
 4348W        W 8399   2.988   7.216   1.114 -0.1096 -0.2682  0.0270
 4349W        W 8400   4.663   2.275  10.652 -0.0726  0.1233 -0.1448
 4350W        W 8401   5.658   0.636   3.797  0.1630  0.0269  0.1538
 4351W        W 8402   7.691   0.353  13.555 -0.0198  0.3381  0.0837
 4352W        W 8403   8.153  10.142   1.665 -0.0965  0.1758 -0.0243
 4353W        W 8404   4.886   9.534  10.251 -0.2764 -0.1502  0.1080
 4354W        W 8405   4.379   3.818   9.760  0.1606  0.1800  0.1712
 4355W        W 8406   9.769   4.039  12.784 -0.0377 -0.1542  0.1538
 4356W        W 8407   8.420   8.613   4.480  0.1677  0.0387  0.0258
 4357W        W 8408   6.549   6.394   3.261 -0.1120 -0.3122 -0.0097
 4358W        W 8409   8.094   4.864   2.016 -0.0768  0.2725  0.1854
 4359W        W 8410   0.367   5.008  13.459 -0.0595 -0.1789 -0.3337
 4360W        W 8411   0.030   5.833  12.899 -0.0430  0.2290  0.1202
 4361W        W 8412   4.108   4.668   3.361 -0.0289 -0.0420  0.2162
 4362W        W 8413   0.842   8.051   4.045  0.3406  0.2889  0.5058
 4363W        W 8414   5.380   8.433  13.791 -0.3621  0.1351 -0.1734
 4364W        W 8415   4.313   0.725   2.526 -0.1251 -0.2424 -0.2208
 4365W        W 8416   3.942   3.229   1.224  0.0728  0.0904  0.1679
 4366W        W 8417   6.863   2.110   3.834  0.2286  0.0266 -0.0127
 4367W        W 8418  10.147   8.266   0.137 -0.0750 -0.0458 -0.0107
 4368W        W 8419   2.095   9.268   3.170 -0.3374 -0.5720 -0.0134
 4369W        W 8420   0.204   9.790  13.606 -0.1342 -0.0441  0.1449
 4370W        W 8421   1.976   6.229  11.892 -0.3115  0.0251 -0.0119
 4371W        W 8422   4.338   2.305  12.342 -0.0431 -0.1422  0.1926
 4372W        W 8423   0.960   8.290  11.421 -0.0240 -0.1956 -0.0223
 4373W        W 8424   5.938   8.185   9.626  0.2444 -0.1638 -0.1669
 4374W        W 8425   2.467   2.216   0.153 -0.1244 -0.2249  0.1639
 4375W        W 8426   2.969   2.533   3.572  0.1908  0.1259 -0.1096
 4376W        W 8427   2.291   9.705  13.677  0.0390 -0.0407 -0.1665
 4377W        W 8428   4.492   3.184   3.241  0.0179  0.0415 -0.3831
 4378W        W 8429   6.677   0.857  12.120 -0.3193 -0.0833  0.0638
 4379W        W 8430  10.050   8.503   3.890 -0.1301 -0.2080  0.0529
 4380W        W 8431   2.961   0.700   3.607  0.0279 -0.1350  0.1399
 4381W        W 8432   6.239   8.792  11.962  0.2984 -0.1472  0.1603
 4382W        W 8433   5.688   3.596   4.791 -0.2328 -0.1176 -0.1045
 4383W        W 8434   3.824   8.909  12.576 -0.0701 -0.1468  0.3341
 4384W        W 8435   5.246   0.987   4.642 -0.1654  0.1889 -0.2309
 4385W        W 8436   0.381   6.096   2.034 -0.0222 -0.1784  0.2342
 4386W        W 8437   5.717   6.524   0.633  0.0618 -0.0990  0.2352
 4387W        W 8438   8.967   9.727   3.490  0.0712  0.2825  0.0411
 4388W        W 8439   6.118   1.301  10.035  0.0109  0.0572  0.0274
 4389W        W 8440   3.012   0.138  13.630  0.1046  0.2105  0.0125
 4390W        W 8441   4.320   2.810  10.713 -0.3362  0.1018 -0.1547
 4391W        W 8442   0.603   4.076  11.664  0.1057  0.0943  0.0593
 4392W        W 8443   5.403   1.208   2.493 -0.2065 -0.0050 -0.0435
 4393W        W 8444   1.336   7.969  13.224  0.1821 -0.1516 -0.0353
 4394W        W 8445   6.424   8.159   9.604 -0.1384 -0.2232  0.0232
 4395W        W 8446   9.920   5.190   4.041  0.2927  0.2956 -0.1480
 4396W        W 8447   6.830   3.596   2.727 -0.2468  0.0912  0.0535
 4397W        W 8448   4.851   7.747   3.235 -0.0499 -0.1927 -0.2923
 4398W        W 8449   9.091   4.215  12.392  0.0019  0.0868 -0.0968
 4399W        W 8450   4.093   3.812  12.663 -0.2304 -0.0073 -0.1328
 4400W        W 8451   9.105   6.741   4.677 -0.0789 -0.0695  0.1129
 4401W        W 8452   9.716   2.742   1.720  0.1536  0.0158  0.1748
 4402W        W 8453   8.435   3.527   1.569  0.4945  0.1087 -0.0940
 4403W        W 8454   5.195   1.949   9.714  0.1696 -0.1080  0.0809
 4404W        W 8455   1.322   2.256   9.586 -0.1174 -0.3267  0.0256
 4405W        W 8456   5.178   4.904  12.792 -0.3059  0.0760 -0.0721
 4406W        W 8457   7.683   6.718   0.737 -0.4944 -0.1994  0.3103
 4407W        W 8458   1.529   1.854  12.555 -0.1373 -0.0045 -0.0447
 4408W        W 8459   7.514   6.735  13.056  0.1872  0.0987  0.1213
 4409W        W 8460   0.509   6.064  12.819 -0.0899 -0.2688  0.0623
 4410W        W 8461   6.671   7.976   4.938  0.3441  0.0325 -0.0816
 4411W        W 8462   4.586   6.132   0.323  0.0569  0.0612  0.3195
 4412W        W 8463   8.900   4.325   3.264  0.1250 -0.0763  0.1955
 4413W        W 8464   4.537   3.382  11.100 -0.1533 -0.0301  0.1017
 4414W        W 8465   0.068   7.147   0.937 -0.0310 -0.1613  0.3544
 4415W        W 8466   7.250   6.550  12.592  0.3151 -0.0786 -0.2159
 4416W        W 8467   0.220   4.138  13.662 -0.0835  0.0843  0.0812
 4417W        W 8468   4.859   7.032  10.125  0.0247  0.1627  0.3460
 4418W        W 8469   4.069   7.205  12.725 -0.2780  0.1003 -0.0445
 4419W        W 8470   7.773   0.760  11.347 -0.2314 -0.1256  0.0076
 4420W        W 8471   8.052   5.750   0.338  0.1245  0.1358 -0.3884
 4421W        W 8472   5.343   5.252  13.879 -0.2062 -0.0291 -0.2746
 4422W        W 8473   9.068   7.751  13.249  0.2369  0.3566  0.0642
 4423W        W 8474   7.199   2.368  10.579 -0.1217  0.1338 -0.1678
 4424W        W 8475   8.861   4.604   3.667 -0.1703  0.0055 -0.2700
 4425W        W 8476   9.673   5.041  13.050  0.4720 -0.1011 -0.0030
 4426W        W 8477   0.119   7.100  11.135 -0.1712 -0.2433 -0.0808
 4427W        W 8478   1.963   6.957   1.000 -0.2961 -0.1503 -0.1727
 4428W        W 8479   3.065   9.528  12.386 -0.1377 -0.3676  0.0085
 4429W        W 8480   7.907   6.290   1.440 -0.1598  0.0187 -0.0032
 4430W        W 8481   6.505   9.206   2.309 -0.0432  0.1745 -0.0121
 4431W        W 8482   1.897   3.681   3.773 -0.0578  0.1582 -0.1703
 4432W        W 8483   5.672   4.605   0.377 -0.1847 -0.1487 -0.0570
 4433W        W 8484   7.931   6.097   2.567 -0.1744  0.1347  0.2248
 4434W        W 8485   6.113   0.480   9.743  0.0809  0.2308  0.0382
 4435W        W 8486   2.426   7.902  13.055 -0.2770 -0.0178  0.2982
 4436W        W 8487   0.915   7.529   0.862  0.2847 -0.0285  0.2363
 4437W        W 8488   7.518   3.036  13.135  0.0159  0.1757  0.0651
 4438W        W 8489   6.367   0.230   0.326 -0.0091  0.4754 -0.0629
 4439W        W 8490   8.273   7.649   1.758  0.0847  0.0023 -0.0145
 4440W        W 8491   3.163   0.645   3.132 -0.2108  0.0013 -0.1677
 4441W        W 8492   1.380   8.947  11.607  0.3530  0.0844 -0.0823
 4442W        W 8493   9.236   8.022  10.992  0.1546 -0.0965  0.1634
 4443W        W 8494   8.598   2.949   9.553 -0.2120 -0.3009  0.1261
 4444W        W 8495   6.758   3.870   5.498 -0.3614 -0.0078  0.1564
 4445W        W 8496   7.772   7.271  10.257  0.0246  0.0251  0.1600
 4446W        W 8497   7.591   0.321   2.457  0.0086  0.3806 -0.0966
 4447W        W 8498   2.556   6.758   2.899 -0.2492 -0.2340  0.2487
 4448W        W 8499   4.144   5.530  13.128  0.1031 -0.0231  0.2411
 4449W        W 8500   6.444   3.455  10.677  0.0856 -0.2593 -0.0554
 4450W        W 8501   1.222   0.809   4.448  0.0358 -0.0488  0.0452
 4451W        W 8502   8.464   5.976  13.357  0.3173  0.0402 -0.1226
 4452W        W 8503   0.295   4.804  12.313  0.2120 -0.4470 -0.0262
 4453W        W 8504   5.562   0.607   0.668 -0.3236 -0.1322 -0.1973
 4454W        W 8505   6.571   8.508   2.982  0.0886  0.0457 -0.1083
 4455W        W 8506   5.044  10.043   4.754  0.0690 -0.2699  0.0529
 4456W        W 8507   8.853   7.409   0.459 -0.0598  0.1102 -0.1712
 4457W        W 8508   5.126   9.592   2.390  0.3477 -0.3296  0.2355
 4458W        W 8509   8.091   1.842   1.134  0.0579  0.0339  0.3236
 4459W        W 8510   3.280   9.026   4.485 -0.4084  0.3233 -0.1052
 4460W        W 8511   4.693   6.773   1.704 -0.4314 -0.0765 -0.0458
 4461W        W 8512   8.121   7.024   0.903 -0.1733 -0.1329 -0.1248
 4462W        W 8513   0.523   9.020   9.547  0.0790  0.4474 -0.1135
 4463W        W 8514   9.893   1.811   1.374 -0.2222  0.2319  0.1634
 4464W        W 8515   3.748   3.261   0.667  0.0092  0.0156 -0.0855
 4465W        W 8516   7.321   3.201  12.205 -0.3191 -0.0127 -0.1275
 4466W        W 8517   7.405   9.652  11.782  0.2206 -0.0045  0.0689
 4467W        W 8518   2.522   8.168  11.810  0.1296 -0.0661 -0.2775
 4468W        W 8519   8.114   2.841  10.394 -0.1419 -0.1607  0.0822
 4469W        W 8520   5.333   0.394   4.148  0.3035  0.1207  0.2716
 4470W        W 8521   7.073   8.661   9.904 -0.1272  0.1236  0.0126
 4471W        W 8522   1.982   3.935   0.480 -0.1228  0.0087 -0.0183
 4472W        W 8523   5.506   5.429   3.674 -0.1914  0.2165 -0.4948
 4473W        W 8524  10.005   6.086   0.898  0.0313  0.0988 -0.3226
 4474W        W 8525   0.073   6.735   2.949 -0.0667  0.1122  0.0208
 4475W        W 8526   2.762   1.408   2.851  0.4025  0.4332 -0.3609
 4476W        W 8527   1.923   2.693   2.125  0.2458 -0.1923  0.0177
 4477W        W 8528   4.717   1.076   1.462 -0.0211  0.2286 -0.0523
 4478W        W 8529   0.145   0.162   9.813 -0.0756 -0.1844 -0.0441
 4479W        W 8530   5.654   0.191   9.759 -0.1920 -0.2184 -0.1373
 4480W        W 8531   3.026   2.988   1.648 -0.0375 -0.4192 -0.0333
 4481W        W 8532   3.050   9.571   1.791 -0.2731  0.0209  0.0106
 4482W        W 8533   3.671   3.730   0.455  0.0718 -0.3692  0.3287
 4483W        W 8534   2.469   5.497   2.358  0.2738 -0.2324  0.1075
 4484W        W 8535   4.336   2.365  11.103  0.2264  0.0336 -0.3707
 4485W        W 8536   8.491   2.996  12.493  0.1286 -0.0014 -0.0374
 4486W        W 8537   8.199   7.652  10.850 -0.0506  0.1527 -0.0460
 4487W        W 8538   2.036   4.538  12.386 -0.1507  0.1852 -0.3177
 4488W        W 8539   2.338   8.512  10.585  0.3908  0.2788 -0.2262
 4489W        W 8540   2.944   5.618   2.675  0.1975 -0.0379  0.3481
 4490W        W 8541   5.943   2.174   3.133  0.1500  0.0153 -0.0844
 4491W        W 8542   8.985   4.365   1.230  0.1178 -0.2448  0.0145
 4492W        W 8543   2.436   4.704  13.200 -0.2367  0.2465 -0.1246
 4493W        W 8544   9.295   1.449  10.579 -0.0894  0.0659 -0.0411
 4494W        W 8545   4.150   4.535  11.468  0.1093  0.0619  0.0207
 4495W        W 8546   8.811   1.945  11.586 -0.3036  0.0769  0.1861
 4496W        W 8547   0.226   2.051  11.874  0.0276 -0.0966  0.0502
 4497W        W 8548   9.859   2.691   2.192  0.1558 -0.2768  0.2904
 4498W        W 8549   8.047   5.443   4.033 -0.2646 -0.1868 -0.1159
 4499W        W 8550   1.454  10.003  12.657  0.1620  0.0086  0.0937
 4500W        W 8551   9.830   0.845  11.989 -0.0439 -0.1204 -0.2312
 4501W        W 8552   6.295   2.687   9.908 -0.1506  0.0778  0.2254
 4502W        W 8553   5.440   6.160  12.755 -0.0326 -0.0387  0.0871
 4503W        W 8554   2.602   9.027   2.233  0.3271  0.1992  0.3254
 4504W        W 8555   9.060   4.489   0.729  0.0870  0.2331 -0.0239
 4505W        W 8556   5.525   8.412   3.657  0.0592  0.0639  0.3033
 4506W        W 8557   2.430   7.678   2.602 -0.1034  0.0484  0.1049
 4507W        W 8558   4.185   7.726  11.264 -0.1940 -0.0129  0.2401
 4508W        W 8559   6.213   0.634  13.832 -0.1255 -0.3480  0.0317
 4509W        W 8560   9.259   6.864  11.405  0.0663 -0.0979 -0.0283
 4510W        W 8561   5.447   6.682   3.267  0.0611 -0.1559 -0.0921
 4511W        W 8562   9.614   8.136   2.576 -0.0926 -0.3416 -0.1184
 4512W        W 8563   1.142   4.085   1.253 -0.2066 -0.0397  0.1352
 4513W        W 8564   8.465   3.362   2.291  0.0439  0.2563 -0.1345
 4514W        W 8565   7.547   8.072   2.751 -0.2764 -0.0531  0.4291
 4515W        W 8566   4.429   8.385   3.311  0.3352 -0.1185 -0.0092
 4516W        W 8567  10.164   3.593   2.662 -0.0629  0.0801  0.0245
 4517W        W 8568   7.145   9.034   3.811  0.0766  0.3772 -0.1866
 4518W        W 8569   2.478   0.704  11.635 -0.0260  0.1800 -0.2817
 4519W        W 8570   4.599   4.953   4.520  0.3194  0.2770 -0.0963
 4520W        W 8571   6.575   5.471   3.974 -0.1295  0.0426  0.0054
 4521W        W 8572   7.231   7.632   4.456 -0.1673 -0.1680 -0.2832
 4522W        W 8573   8.316   7.414   0.540 -0.4071  0.2204 -0.0635
 4523W        W 8574   7.429   4.118   1.079 -0.3421  0.0431  0.0367
 4524W        W 8575   4.485   4.659   2.989  0.0523 -0.0373 -0.3363
 4525W        W 8576   1.990   2.032  10.913  0.2760  0.0783  0.0625
 4526W        W 8577   2.389   4.753   3.032  0.2015 -0.0283  0.2071
 4527W        W 8578   7.938   1.432   0.954  0.1874  0.0261  0.2378
 4528W        W 8579   6.597   2.100   2.361 -0.2850  0.0021 -0.0241
 4529W        W 8580   7.120   4.263   3.550  0.0959 -0.1812 -0.0705
 4530W        W 8581   2.946   0.057  11.471 -0.0555  0.1520  0.1776
 4531W        W 8582   0.386   8.492  11.815 -0.0518  0.2277  0.0526
 4532W        W 8583   9.571   2.752   0.250 -0.1474  0.2516 -0.2148
 4533W        W 8584   6.896   3.884   3.146  0.4254  0.1621  0.2460
 4534W        W 8585   9.934  10.185   2.796 -0.0950  0.0538  0.0419
 4535W        W 8586   5.860   7.080  13.282  0.2325  0.2192 -0.3368
 4536W        W 8587   3.003   1.775   4.723  0.0188  0.3199 -0.0451
 4537W        W 8588   5.831   2.446  12.484 -0.4363 -0.0194  0.0897
 4538W        W 8589   6.096   1.534  12.440  0.3915  0.0716 -0.0837
 4539W        W 8590   1.972   0.007   9.629  0.1643  0.0428 -0.0840
 4540W        W 8591   7.617   6.926  10.679 -0.1434  0.3187  0.0804
 4541W        W 8592   8.665   8.071   1.568  0.1524  0.1152 -0.2226
 4542W        W 8593   6.433   5.679   4.956 -0.5880  0.1457 -0.2567
 4543W        W 8594   2.277   4.078   9.669 -0.0382  0.0425 -0.1673
 4544W        W 8595   1.570   5.745   1.328 -0.0950 -0.1641  0.1603
 4545W        W 8596   1.366   1.858   9.234  0.1665 -0.0921 -0.1695
 4546W        W 8597   0.428   7.505   2.579 -0.0269 -0.1229  0.1038
 4547W        W 8598   0.473   6.786  10.881 -0.1031  0.5785 -0.1378
 4548W        W 8599   9.147   3.836   9.322  0.2906  0.1121  0.1928
 4549W        W 8600   8.859   8.451   2.835  0.1263 -0.0519  0.2785
 4550W        W 8601   9.651   0.016  10.588 -0.1622  0.1428 -0.1225
 4551W        W 8602   2.263   6.104   2.533  0.0653  0.3463  0.1268
 4552W        W 8603   6.749   5.962   2.399 -0.1903 -0.0783 -0.1331
 4553W        W 8604   6.789   5.848  11.233 -0.1991  0.2613  0.1766
 4554W        W 8605   2.458   4.306   2.190  0.1360 -0.1828 -0.2352
 4555W        W 8606   5.491   7.476   2.797  0.2031 -0.1301 -0.3872
 4556W        W 8607   0.673   8.888  10.254  0.3092  0.1638  0.0191
 4557W        W 8608   9.256   1.099  13.256 -0.0816 -0.3442  0.1556
 4558W        W 8609   6.704   6.659  13.517  0.2049  0.2290  0.0806
 4559W        W 8610   0.675   9.395  12.739  0.2429  0.0083 -0.1891
 4560W        W 8611   5.755   1.103   1.551 -0.3491  0.4861 -0.1440
 4561W        W 8612   7.510   7.775   4.857 -0.2447  0.3459 -0.2275
 4562W        W 8613   7.119   3.473  13.099  0.1072  0.2286 -0.0157
 4563W        W 8614   2.498   1.192   8.983  0.0078 -0.3867 -0.2579
 4564W        W 8615   8.111   9.891   2.986  0.1772 -0.1951  0.0949
 4565W        W 8616   9.656   1.462  10.265 -0.1787 -0.1352  0.1560
 4566W        W 8617   9.150   5.061   2.495 -0.1158 -0.0482  0.2852
 4567W        W 8618   1.434  10.176   0.600  0.0281  0.0280 -0.0713
 4568W        W 8619   7.745   9.080  12.534 -0.2184 -0.2157  0.1754
 4569W        W 8620   8.963   2.205  13.567 -0.1959 -0.2466  0.2145
 4570W        W 8621   2.554   1.194  11.353 -0.1979  0.1155 -0.0514
 4571W        W 8622   3.806   0.026  10.257 -0.0127 -0.0172 -0.1869
 4572W        W 8623   2.040   8.186   2.684  0.0974  0.1819 -0.0299
 4573W        W 8624   9.556   6.956   1.827  0.1552 -0.0386 -0.1885
 4574W        W 8625   3.672   2.012   2.401  0.1866 -0.1313  0.3562
 4575W        W 8626   8.180   2.048   3.565 -0.0501 -0.0810 -0.0249
 4576W        W 8627   3.953   0.120   3.031 -0.1278  0.0433 -0.1466
 4577W        W 8628   0.512   8.323   0.949 -0.0844 -0.0230  0.1796
 4578W        W 8629   1.510   6.203  11.839  0.1407 -0.2639  0.2112
 4579W        W 8630   5.897   8.093  10.943 -0.0908  0.0227 -0.0017
 4580W        W 8631   8.799   8.089  10.017 -0.0513  0.1458 -0.0494
 4581W        W 8632   6.628   6.247   2.004 -0.0022  0.1203  0.0498
 4582W        W 8633   8.234   9.922  12.488 -0.0786  0.2606  0.2249
 4583W        W 8634   3.714   9.880   3.843 -0.0455  0.2764 -0.0415
 4584W        W 8635   8.946   2.602   3.642  0.0481 -0.1416 -0.0022
 4585W        W 8636   9.260   7.554   0.152 -0.0855  0.0149 -0.3973
 4586W        W 8637   3.984   1.531  12.700 -0.0277  0.0276  0.1828
 4587W        W 8638   6.265   5.816  10.369 -0.0964 -0.0818  0.0336
 4588W        W 8639   0.926   4.619   2.058 -0.2965  0.0824  0.0981
 4589W        W 8640   0.871   2.321   1.751 -0.1518  0.2550  0.1334
 4590W        W 8641   8.607   3.148   1.251 -0.1359 -0.0689  0.2028
 4591W        W 8642   0.994   2.047   5.269 -0.1463 -0.1325 -0.3143
 4592W        W 8643   5.817   5.377   0.790  0.4220  0.0669 -0.2579
 4593W        W 8644   0.062   6.242  12.605  0.1056 -0.1587 -0.1396
 4594W        W 8645   7.187   0.298   1.999 -0.1730  0.1237 -0.0900
 4595W        W 8646   6.502   7.005   4.821  0.1184 -0.0008  0.1087
 4596W        W 8647   2.852   9.789   9.166 -0.2641 -0.0386 -0.1536
 4597W        W 8648   7.590   2.080   4.380 -0.2982  0.3697  0.1533
 4598W        W 8649   1.722   8.129  13.706 -0.1469 -0.2308  0.2934
 4599W        W 8650   6.033   2.190   1.502 -0.2127 -0.1373 -0.2042
 4600W        W 8651   7.580   2.647   3.827 -0.1625 -0.0074  0.0233
 4601W        W 8652   8.490   6.215   3.028 -0.1305  0.2057  0.2494
 4602W        W 8653   1.219   0.377  13.641 -0.3022  0.3189 -0.1302
 4603W        W 8654   8.040   6.152  11.080  0.1772  0.1353 -0.0891
 4604W        W 8655   5.620   2.039  11.727 -0.3085 -0.1405  0.1482
 4605W        W 8656   4.766   7.316  10.936 -0.0361  0.1409 -0.0218
 4606W        W 8657   4.427   0.853   1.800 -0.1487  0.0490  0.2136
 4607W        W 8658   8.102   9.821   2.044  0.0733 -0.0549 -0.0974
 4608W        W 8659   7.029   3.435  11.359 -0.1645  0.1599  0.1917
 4609W        W 8660   6.136   7.701  11.635  0.1511 -0.0758  0.1305
 4610W        W 8661   4.520   2.923   0.156  0.2523 -0.0162 -0.1338
 4611W        W 8662   0.525   2.078   3.195 -0.0722 -0.2741  0.2395
 4612W        W 8663   8.950  10.077   2.969  0.2011 -0.1308 -0.1151
 4613W        W 8664   2.583   9.494   2.496 -0.1230 -0.2508  0.0176
 4614W        W 8665   9.992   7.828   0.390  0.2216  0.1698 -0.0713
 4615W        W 8666   3.789   2.830   0.397  0.1104  0.3857  0.0527
 4616W        W 8667   7.047   7.216  11.294 -0.4011  0.2732 -0.1617
 4617W        W 8668   8.163   9.467  11.438 -0.0863  0.0379 -0.0798
 4618W        W 8669   3.845   1.225   0.048 -0.1786  0.0762  0.0846
 4619W        W 8670   7.103   2.431  13.106  0.2083  0.3358 -0.1199
 4620W        W 8671   0.342   1.967  12.988 -0.0681 -0.1413  0.2495
 4621W        W 8672   0.699   4.025  13.736  0.0127  0.0787  0.0125
 4622W        W 8673  10.051   7.765  13.272 -0.0252  0.1932 -0.0077
 4623W        W 8674   6.507   1.757   1.702 -0.2196  0.1976  0.0408
 4624W        W 8675   0.724   0.950  13.066  0.0990  0.1344 -0.2811
 4625W        W 8676   7.298   4.928   1.454  0.1376  0.0477  0.1902
 4626W        W 8677   9.279   8.276   1.478 -0.0310  0.1321 -0.1333
 4627W        W 8678   0.465   1.430  10.924  0.0705 -0.1634  0.3008
 4628W        W 8679   6.017   3.422   0.080 -0.0886  0.0610  0.3582
 4629W        W 8680   9.456   0.049   1.649 -0.3437 -0.1092 -0.1177
 4630W        W 8681   5.361   5.690  12.548  0.0449  0.0273  0.1461
 4631W        W 8682   1.983   3.289  10.728  0.0521 -0.1138  0.1558
 4632W        W 8683   8.133   5.448  12.089  0.0102  0.3140 -0.0682
 4633W        W 8684   4.376   3.817  10.304 -0.0136 -0.1906 -0.2045
 4634W        W 8685   7.242   5.197   3.740 -0.0863  0.0244  0.0726
 4635W        W 8686   2.974   0.183   0.803  0.3872 -0.0776  0.0294
 4636W        W 8687   2.737  10.127   4.159 -0.1783  0.2622  0.1163
 4637W        W 8688   4.838   6.093  11.030 -0.0943 -0.1022  0.2960
 4638W        W 8689   9.722   8.116   3.657 -0.0019 -0.3378 -0.0544
 4639W        W 8690   1.860   5.298  12.714 -0.2305 -0.1585 -0.3427
 4640W        W 8691  10.166   3.251   0.473 -0.0288  0.3306  0.1733
 4641W        W 8692   0.977   5.034   2.528 -0.2938  0.0653  0.1932
 4642W        W 8693   7.046   3.685   3.662  0.1435 -0.0198 -0.2037
 4643W        W 8694   4.085   9.103  10.475 -0.1625  0.3889  0.1965
 4644W        W 8695   1.008   5.083  12.964 -0.3052  0.2672  0.1853
 4645W        W 8696   2.572   9.339  13.405  0.0713  0.0167 -0.4129
 4646W        W 8697   9.362   0.572  13.526 -0.1360  0.1734  0.3504
 4647W        W 8698   6.157   8.841   2.098  0.2341  0.1297  0.3394
 4648W        W 8699   2.327   4.188  11.659 -0.0410  0.1628 -0.0091
 4649W        W 8700   0.025   0.433   3.543  0.3988 -0.0430  0.0116
 4650W        W 8701   9.859   6.106   2.768  0.0298 -0.1557  0.1334
 4651W        W 8702  10.162   4.771   3.058  0.3959  0.0263  0.1865
 4652W        W 8703   7.849   4.087   1.605  0.0778 -0.0847 -0.0462
 4653W        W 8704   0.170   5.693   0.995  0.0177  0.2826 -0.0764
 4654W        W 8705   6.669   2.694   1.594 -0.0681  0.1523  0.2103
 4655W        W 8706   2.764   6.098   1.803  0.5259  0.0881  0.2690
 4656W        W 8707   5.262   2.067  12.792  0.5630 -0.1253 -0.0434
 4657W        W 8708   9.940   3.233  11.728 -0.2196  0.1810 -0.1409
 4658W        W 8709   5.767   6.527  11.240  0.1265 -0.3367  0.0730
 4659W        W 8710   4.401   6.180   2.474  0.1931  0.3237  0.0448
 4660W        W 8711   2.271   4.983   0.237  0.1257 -0.1215 -0.1653
 4661W        W 8712   5.381   4.543   9.920  0.4310  0.2327 -0.1156
 4662W        W 8713   0.646   6.843  11.364 -0.1801  0.1891  0.0286
 4663W        W 8714   3.051   7.715   0.882  0.1665  0.3763  0.2266
 4664W        W 8715   5.428   3.147   5.640  0.0727  0.1549 -0.2059
 4665W        W 8716   5.724   5.584  12.228 -0.0142 -0.0927  0.2186
 4666W        W 8717   9.474   3.016   4.907 -0.0587 -0.3217 -0.4828
 4667W        W 8718   8.689   5.702   0.531 -0.2635  0.1283  0.0251
 4668W        W 8719   6.889   9.219   0.334  0.1785  0.0397  0.0899
 4669W        W 8720   5.325   2.444  13.612 -0.1999 -0.2769  0.1020
 4670W        W 8721   1.691   7.749  12.060 -0.1753 -0.3133  0.1553
 4671W        W 8722   5.340   1.020  12.750  0.1244  0.0682 -0.1292
 4672W        W 8723   8.448   2.841  10.860  0.0418 -0.1487  0.0655
 4673W        W 8724   5.104   7.949   8.565  0.1674 -0.0287 -0.1836
 4674W        W 8725   7.288   2.597   0.432 -0.1710 -0.0025  0.0277
 4675W        W 8726   2.498  10.181  11.223 -0.0929  0.1524  0.1874
 4676W        W 8727   9.423   5.610  13.198 -0.0797 -0.1178  0.2958
 4677W        W 8728   6.951   9.278   1.405  0.0301  0.1616 -0.2544
 4678W        W 8729   7.791   5.841  12.080  0.1785 -0.0181  0.0014
 4679W        W 8730   0.731   3.240  11.998  0.0261 -0.0417  0.0001
 4680W        W 8731   1.332   2.149   0.938 -0.3863 -0.1140 -0.0627
 4681W        W 8732  10.156   0.482   0.245 -0.1291 -0.0781 -0.2398
 4682W        W 8733   7.334   9.562  13.169 -0.1673 -0.0008  0.1080
 4683W        W 8734   7.574   0.814   0.841  0.0975 -0.0885 -0.0789
 4684W        W 8735   2.094   9.068   3.697  0.1813  0.3441  0.1706
 4685W        W 8736   9.141   6.726   2.621 -0.0892 -0.0930  0.1780
 4686W        W 8737   5.609   8.406  12.976 -0.1160 -0.1448 -0.0215
 4687W        W 8738   4.619   4.623   3.801  0.4316 -0.2525  0.0381
 4688W        W 8739   5.413   7.827   1.961  0.3745 -0.1963  0.2733
 4689W        W 8740   2.519   7.030   9.591  0.0949  0.0248 -0.0644
 4690W        W 8741   3.529   7.454   3.674  0.1817  0.2192 -0.3907
 4691W        W 8742   7.676   3.715   1.333 -0.3309 -0.1674  0.0277
 4692W        W 8743   5.159   7.679   9.437 -0.0676  0.0841  0.0861
 4693W        W 8744   4.113   8.012  13.083 -0.2955  0.1124  0.2196
 4694W        W 8745   8.341   4.635  12.514 -0.0410  0.0235 -0.1043
 4695W        W 8746   9.659   4.177   1.521 -0.0243  0.0486 -0.1030
 4696W        W 8747   9.419   2.967  13.298 -0.3744 -0.1761  0.0234
 4697W        W 8748   1.094  10.040  12.084  0.1021  0.1828 -0.0432
 4698W        W 8749   5.236   2.919  12.924 -0.3353  0.0924 -0.1517
 4699W        W 8750   4.153   8.983  12.167  0.0540 -0.0386 -0.1221
 4700W        W 8751   9.134   2.179   3.887 -0.3615 -0.3901  0.2358
 4701W        W 8752   6.616   9.999   0.479 -0.0164  0.0182 -0.1731
 4702W        W 8753   4.730   8.715  11.523 -0.2080 -0.1280 -0.3138
 4703W        W 8754   8.657   1.552   1.963 -0.0482  0.0752  0.3155
 4704W        W 8755   5.542   9.514   0.237 -0.0937 -0.1873 -0.2843
 4705W        W 8756   6.214   7.243  11.463 -0.2739  0.1762 -0.1064
 4706W        W 8757   4.725   4.725  11.619 -0.0857 -0.1015  0.0085
 4707W        W 8758   8.789   6.079   0.835 -0.2960  0.0430 -0.1992
 4708W        W 8759   4.991   4.059   9.718  0.0038  0.0301 -0.0459
 4709W        W 8760   3.993   0.779  13.189 -0.1764  0.0315  0.2087
 4710W        W 8761   1.810   5.617  10.123 -0.0262  0.0753  0.0315
 4711W        W 8762   5.679   1.487   1.149 -0.3134  0.0426  0.3200
 4712W        W 8763   2.121   2.051  10.060  0.2349 -0.1250  0.3800
 4713W        W 8764   3.768   7.596   1.316 -0.2470  0.2923 -0.0404
 4714W        W 8765   9.247   9.997   0.429  0.0165 -0.0141  0.1012
 4715W        W 8766   6.140   7.075   3.884 -0.1251  0.1528  0.1501
 4716W        W 8767   3.570   2.559   2.854 -0.0414 -0.0581 -0.1279
 4717W        W 8768   3.554   2.605  11.303 -0.0215  0.1474 -0.5119
 4718W        W 8769   0.242   2.135  13.463 -0.0944 -0.0367  0.0270
 4719W        W 8770   7.411   8.718  11.144  0.1839  0.1712  0.2915
 4720W        W 8771   7.749   1.033   4.269 -0.2855  0.2305 -0.5466
 4721W        W 8772   7.051   8.407  13.734  0.2154  0.1909  0.2868
 4722W        W 8773   9.620   5.174   0.583  0.3242 -0.3746 -0.1493
 4723W        W 8774   8.689   2.982  13.766  0.0804  0.2659 -0.3054
 4724W        W 8775   3.548   4.182   4.073 -0.0662 -0.0344 -0.0597
 4725W        W 8776   1.857   7.613   0.457  0.2597 -0.1168 -0.0703
 4726W        W 8777   2.324   6.997   2.253  0.1197 -0.1291 -0.0514
 4727W        W 8778   6.331   3.663   0.534  0.0226 -0.1122 -0.2713
 4728W        W 8779   7.125   1.963  12.413  0.0348  0.1519 -0.2276
 4729W        W 8780   7.229   1.511  11.648 -0.5436  0.0089 -0.0981
 4730W        W 8781   2.840   7.290  12.782 -0.4052 -0.0746 -0.0320
 4731W        W 8782   5.200   0.040   5.498  0.0624  0.4012  0.0227
 4732W        W 8783   9.155   5.458   0.397  0.1756 -0.5506  0.1311
 4733W        W 8784   6.838   9.263  10.676  0.0316 -0.0138 -0.0077
 4734W        W 8785   3.726   8.900   0.795 -0.0966 -0.2605  0.0543
 4735W        W 8786   5.869  10.145  13.075 -0.1375  0.2451 -0.2778
 4736W        W 8787   3.761   5.884  13.916  0.3043  0.0301 -0.3191
 4737W        W 8788   5.044   7.337   3.512  0.2579 -0.0008  0.0000
 4738W        W 8789   7.066   0.011  11.531 -0.1709 -0.0183  0.2655
 4739W        W 8790   6.986   6.207   0.448  0.0229  0.2865  0.1854
 4740W        W 8791   9.669   0.215   3.440 -0.0077 -0.0455  0.0517
 4741W        W 8792  10.111   8.926   4.880  0.0525 -0.0381 -0.1097
 4742W        W 8793   7.337   1.039   2.930  0.1762 -0.2032  0.2905
 4743W        W 8794   8.710   2.162  12.010  0.2661 -0.1214 -0.4576
 4744W        W 8795   1.988   9.920   3.741  0.0330 -0.1106 -0.0797
 4745W        W 8796   6.634   8.557  11.370  0.0912  0.0767 -0.0129
 4746W        W 8797   8.859   6.779   3.564 -0.2388  0.1154 -0.3291
 4747W        W 8798   2.042   9.787  12.097  0.0661  0.1060  0.0585
 4748W        W 8799   3.773  10.010  12.975  0.4167  0.2402  0.2277
 4749W        W 8800   3.684   1.550   0.950  0.0486  0.0542 -0.0020
 4750W        W 8801   7.316   9.491   9.854 -0.0362 -0.2267 -0.1141
 4751W        W 8802   1.088   6.095   0.542 -0.3262 -0.0032  0.0619
 4752W        W 8803   2.759   5.657  12.821 -0.0105  0.3526  0.0390
 4753W        W 8804   3.938   0.157  11.803 -0.0039  0.0123 -0.0015
 4754W        W 8805   2.797   8.100  13.443 -0.3200 -0.0050 -0.0133
 4755W        W 8806   2.007   1.659   3.151 -0.0940  0.2753  0.0532
 4756W        W 8807   9.057   6.751  12.337  0.1509 -0.0557  0.2164
 4757W        W 8808   3.115   5.255   1.895 -0.1854  0.1318  0.0612
 4758W        W 8809   3.596   3.463   2.896 -0.0368  0.4373 -0.1814
 4759W        W 8810   7.380   7.310  10.920 -0.1878 -0.2209 -0.0853
 4760W        W 8811   4.012   0.952   3.581  0.1553 -0.0465 -0.0201
 4761W        W 8812   9.622   6.623   3.323 -0.0321 -0.0602  0.1097
 4762W        W 8813   5.186   7.988   2.889  0.0397  0.0225 -0.0639
 4763W        W 8814   1.359   6.703  12.013 -0.2329 -0.2212  0.4362
 4764W        W 8815   2.363   2.315  11.865  0.0368 -0.2221 -0.1374
 4765W        W 8816   4.444   1.575  13.011  0.1975 -0.0106  0.3767
 4766W        W 8817   5.452   9.596   4.045 -0.0868 -0.0947 -0.0518
 4767W        W 8818   6.423   5.360   9.660 -0.5516 -0.0960  0.0678
 4768W        W 8819   0.747   0.884   4.740 -0.0010 -0.1405 -0.3235
 4769W        W 8820   5.971   3.740   3.322  0.3438 -0.0429 -0.1112
 4770W        W 8821   8.029   6.167   4.251  0.1547  0.0194  0.0445
 4771W        W 8822   9.213   7.461   9.348 -0.1044 -0.2980 -0.0329
 4772W        W 8823   7.225   4.408   5.115 -0.2640 -0.1203 -0.0651
 4773W        W 8824   0.504   3.415  13.526  0.0187 -0.2694 -0.2841
 4774W        W 8825   9.924   1.937   0.873  0.1392  0.5311  0.0280
 4775W        W 8826   7.909   7.521  13.520  0.1705  0.1310  0.0553
 4776W        W 8827   6.052   2.394  10.203  0.2289  0.0898  0.1045
 4777W        W 8828   6.245   6.107   1.631  0.3178  0.1614 -0.2939
 4778W        W 8829   7.567   0.407   0.113  0.1630 -0.0241 -0.0593
 4779W        W 8830   7.560   4.468  10.837  0.0017 -0.0821  0.1041
 4780W        W 8831   3.436   1.569   4.749 -0.1102  0.0387 -0.0780
 4781W        W 8832   8.176   1.418   1.923  0.0368  0.1785 -0.0404
 4782W        W 8833   7.766   8.589   0.006  0.1704 -0.0930 -0.0891
 4783W        W 8834   5.886   3.190   2.459 -0.1081  0.2431  0.2235
 4784W        W 8835   5.287   1.717  12.407  0.2038  0.0713  0.0780
 4785W        W 8836   6.104   3.861  12.290  0.1891  0.2033 -0.1316
 4786W        W 8837   6.714   4.815   1.527  0.0015  0.0636  0.1565
 4787W        W 8838   5.072   9.064  11.510  0.0816  0.0768  0.1489
 4788W        W 8839   4.310   0.557   4.793 -0.2773 -0.3074 -0.0594
 4789W        W 8840   2.352   4.446   0.391 -0.1540 -0.0693 -0.1033
 4790W        W 8841   1.387   7.207   3.126  0.1498  0.1900  0.1146
 4791W        W 8842   6.655   6.905  12.113  0.2013 -0.1364 -0.0207
 4792W        W 8843   3.733   9.496   2.569  0.0315  0.2247  0.0583
 4793W        W 8844   4.888   4.403  12.787  0.2730  0.0066 -0.3623
 4794W        W 8845   6.477   8.039  11.444 -0.1020  0.1983  0.0355
 4795W        W 8846   5.928   9.216   0.127 -0.1102  0.1935  0.2480
 4796W        W 8847   8.784   3.185   0.350 -0.2655  0.3534  0.1229
 4797W        W 8848   7.147   6.999  13.468 -0.0040  0.0827 -0.0810
 4798W        W 8849   9.957   9.555   9.249  0.0256 -0.2660 -0.0595
 4799W        W 8850   4.236   1.328  10.957  0.1684  0.0044  0.1581
 4800W        W 8851   0.199   4.633   0.472  0.3004 -0.2473 -0.1184
 4801W        W 8852   6.420   7.396   1.479  0.0390 -0.0513 -0.0951
 4802W        W 8853   4.633   2.734   9.834 -0.2210  0.1382  0.1666
 4803W        W 8854   9.173  10.098   9.179  0.0647  0.1900 -0.1546
 4804W        W 8855   0.276   5.945  10.255 -0.0067  0.3334 -0.1406
 4805W        W 8856   0.593   0.748   1.895  0.0146  0.6110 -0.0755
 4806W        W 8857   8.207   0.376   1.040 -0.1115 -0.0155  0.3214
 4807W        W 8858   7.426   8.744  13.571 -0.0197 -0.2218 -0.0901
 4808W        W 8859   5.220   9.013  13.187  0.3554 -0.0228 -0.0225
 4809W        W 8860   1.028   2.506   1.082 -0.2799 -0.1316  0.1199
 4810W        W 8861   5.142   4.687   1.249  0.3342 -0.0731  0.0158
 4811W        W 8862  10.051  10.117   3.600 -0.1172  0.2544 -0.1370
 4812W        W 8863   8.440   4.342   3.021 -0.1223 -0.1994 -0.1051
 4813W        W 8864   6.735   2.864   0.988 -0.0179 -0.1781 -0.0347
 4814W        W 8865   6.513   7.538  10.491 -0.0562  0.0700 -0.1599
 4815W        W 8866   9.017   9.531  10.871  0.0012 -0.0495 -0.0848
 4816W        W 8867   7.825   8.485   5.315 -0.0233  0.1819  0.2118
 4817W        W 8868   9.683   5.551  12.628 -0.0383  0.0448 -0.0067
 4818W        W 8869   6.591   2.208  12.719 -0.1820  0.0207  0.0139
 4819W        W 8870   3.853   6.660  12.411  0.0544 -0.1401  0.2055
 4820W        W 8871   1.743   3.463  11.126  0.0825  0.1008  0.2060
 4821W        W 8872   8.042   9.182  11.829  0.0587 -0.0017 -0.1502
 4822W        W 8873   2.189   2.199   1.812 -0.0537 -0.2854 -0.3418
 4823W        W 8874   2.283   1.392   1.226 -0.0431 -0.1123  0.0596
 4824W        W 8875   3.997   2.200   4.184 -0.0808  0.1238  0.0859
 4825W        W 8876   0.094   8.203  12.400 -0.1995  0.2453  0.0535
 4826W        W 8877   3.654   7.607  10.470  0.0832  0.0424 -0.0293
 4827W        W 8878   3.701   8.882   4.774  0.1577  0.3923 -0.4013
 4828W        W 8879   3.046   0.177   3.155 -0.1190 -0.2416 -0.0300
 4829W        W 8880   7.499   6.585   1.559  0.1453 -0.2048  0.3054
 4830W        W 8881   9.478   3.984  13.819 -0.0028  0.2175  0.0638
 4831W        W 8882   6.400   4.564   2.880  0.4137  0.0638 -0.0598
 4832W        W 8883   0.363   1.379   0.143 -0.2297 -0.1096 -0.1473
 4833W        W 8884   6.523   4.252   1.339 -0.2132 -0.0684  0.3895
 4834W        W 8885   9.009   8.018  12.745 -0.0236 -0.4123  0.0964
 4835W        W 8886   1.221   9.229   2.148 -0.1099 -0.1137  0.2340
 4836W        W 8887   0.600   6.407  13.620 -0.0317 -0.0647  0.0316
 4837W        W 8888   9.400   4.951   1.919 -0.0513 -0.1262 -0.0749
 4838W        W 8889   3.183   0.981  13.455  0.3436  0.0571 -0.2007
 4839W        W 8890   4.581   1.251  11.485 -0.6527  0.1127  0.4784
 4840W        W 8891   3.821   5.222   0.828 -0.1361 -0.0574  0.1667
 4841W        W 8892   3.345   7.754   2.855 -0.0132 -0.1658  0.1500
 4842W        W 8893   1.118   3.997  10.550  0.0582 -0.0985 -0.2123
 4843W        W 8894   8.704   8.884  10.087 -0.1597  0.1187  0.1579
 4844W        W 8895   8.241   5.329   4.618  0.3865  0.1879  0.4192
 4845W        W 8896   6.999   1.947   5.621  0.1581 -0.0676  0.1168
 4846W        W 8897   2.274   7.908   3.047  0.0062 -0.1352 -0.1884
 4847W        W 8898   8.331   1.594  12.583  0.0402 -0.1676  0.1935
 4848W        W 8899   5.959   2.993   2.924  0.1777 -0.1531 -0.3561
 4849W        W 8900   8.650   4.415  13.851 -0.0056  0.0006  0.0009
 4850W        W 8901   1.454   0.836   0.094 -0.1208  0.0294  0.3445
 4851W        W 8902   0.691   1.394   2.637  0.1658  0.0778 -0.1262
 4852W        W 8903   9.167   2.767  10.722 -0.1331 -0.1868  0.1107
 4853W        W 8904   4.552   2.708   2.523 -0.3919  0.1056 -0.3801
 4854W        W 8905   3.063   5.860  12.433 -0.0812  0.0702 -0.1830
 4855W        W 8906   5.289   7.978  10.268 -0.0129  0.0199 -0.2886
 4856W        W 8907   6.802   3.214   9.897  0.2150 -0.0646 -0.1456
 4857W        W 8908   3.453   4.137   0.834  0.0397  0.2634 -0.0616
 4858W        W 8909   9.334   7.731   2.213  0.0178 -0.0507 -0.0642
 4859W        W 8910  10.191   6.609   1.005 -0.0790 -0.1856  0.1623
 4860W        W 8911   1.125   3.565   2.869  0.1753  0.0478 -0.2300
 4861W        W 8912   7.907   2.170  11.268 -0.1730 -0.1768 -0.2488
 4862W        W 8913   8.561   1.074   4.484  0.2359  0.0285 -0.1331
 4863W        W 8914   6.146   8.769  13.609  0.0795  0.1019 -0.1125
 4864W        W 8915   5.711   3.981  10.504 -0.1193 -0.0140 -0.2835
 4865W        W 8916   4.416   2.519   5.325 -0.0379 -0.0036  0.0777
 4866W        W 8917   3.511   5.237   0.096  0.3793 -0.1025 -0.0345
 4867W        W 8918   3.167   3.768   0.586 -0.1962  0.1129 -0.1669
 4868W        W 8919   9.513   5.779  10.297 -0.0731 -0.1469  0.2202
 4869W        W 8920   0.526   1.603   3.062 -0.0156  0.3202 -0.1140
 4870W        W 8921   8.884   1.502  11.234  0.0819  0.3237 -0.0709
 4871W        W 8922   1.797   9.801  13.436 -0.0321  0.1871  0.0519
 4872W        W 8923   1.349   2.337  11.361 -0.3437  0.0987  0.0495
 4873W        W 8924   4.550   6.498   4.879  0.2486 -0.1755 -0.1198
 4874W        W 8925   8.098   0.174  12.512 -0.0482 -0.2328 -0.3675
 4875W        W 8926   8.624   9.868   2.603 -0.2788  0.2142 -0.2812
 4876W        W 8927   8.765   2.128   1.461 -0.0486  0.2315 -0.3898
 4877W        W 8928   5.677   8.836  10.611  0.3035  0.0061 -0.0604
 4878W        W 8929   7.491   9.245  11.503 -0.1326 -0.0269 -0.1367
 4879W        W 8930   8.042   3.214   2.007 -0.1488 -0.2149  0.0192
 4880W        W 8931   3.763   8.180   9.547  0.2987  0.0127 -0.0981
 4881W        W 8932   0.441   5.551   1.883  0.1382  0.0843 -0.3861
 4882W        W 8933  10.155   8.287  13.523 -0.3986 -0.2797  0.1613
 4883W        W 8934   2.795   4.907  13.500 -0.1246  0.2918  0.3449
 4884W        W 8935   6.892   6.430   5.149  0.1402  0.0446 -0.2598
 4885W        W 8936   4.784   0.446  11.921 -0.1536 -0.1525  0.2488
 4886W        W 8937   2.852   3.131  13.332  0.0674 -0.2763 -0.3874
 4887W        W 8938   7.750  10.188   1.999  0.3586  0.6524  0.2565
 4888W        W 8939   5.781   9.985   8.213 -0.1784  0.2269  0.4287
 4889W        W 8940   6.014   2.815  13.729  0.1721 -0.2087  0.4271
 4890W        W 8941   3.182   4.457   2.730 -0.1150  0.2737  0.0387
 4891W        W 8942   9.503   7.868   0.559 -0.1656 -0.3265 -0.0169
 4892W        W 8943   0.472   8.472   0.234  0.1073  0.0038  0.3309
 4893W        W 8944   3.977   5.383  12.073 -0.1598 -0.0754 -0.0470
 4894W        W 8945   1.301   6.224  10.862 -0.0505 -0.0147 -0.1788
 4895W        W 8946   5.171   8.686  11.873  0.0134 -0.1598 -0.0814
 4896W        W 8947   5.001   4.251   0.914  0.0117  0.0024 -0.0011
 4897W        W 8948   9.806   4.712  13.541 -0.1491  0.0189 -0.3292
 4898W        W 8949   5.996   6.541   1.517  0.0614 -0.2140  0.0656
 4899W        W 8950   7.422   7.603  13.594  0.0101  0.1320  0.0111
 4900W        W 8951   8.653   8.207  12.461 -0.3406 -0.2272 -0.0751
 4901W        W 8952   3.621   4.902  13.505  0.0558 -0.0685 -0.0118
 4902W        W 8953   1.461   8.559  13.463  0.1336  0.0108  0.3171
 4903W        W 8954   1.242   9.670   1.871  0.1339  0.2175 -0.0434
 4904W        W 8955   4.852   6.140  10.481 -0.0892 -0.0767 -0.1734
 4905W        W 8956   7.954   0.863   1.140 -0.0335 -0.0708  0.2631
 4906W        W 8957   4.049   5.483   1.325  0.2422 -0.0858 -0.0839
 4907W        W 8958   3.900   0.020   9.133  0.0676 -0.3468  0.3450
 4908W        W 8959   4.098   1.712   4.045 -0.2376  0.3508  0.1786
 4909W        W 8960   9.824   9.877   4.629 -0.4019 -0.3829 -0.1012
 4910W        W 8961   8.369   5.304   0.378  0.1593  0.2104 -0.0523
 4911W        W 8962   3.775   7.343   4.112  0.1992  0.2823  0.2281
 4912W        W 8963   8.287   5.953   0.804 -0.2544  0.3411  0.1359
 4913W        W 8964   6.134   7.031   0.737 -0.0487 -0.0708  0.1359
 4914W        W 8965   5.426   7.832  11.598 -0.0376  0.1283  0.4222
 4915W        W 8966   2.953   3.606   2.651  0.0207 -0.1876  0.3383
 4916W        W 8967   1.796   5.483  11.415  0.0173 -0.4381  0.2374
 4917W        W 8968   8.016   6.718   5.442 -0.2189 -0.0447  0.1245
 4918W        W 8969   6.567   4.355  13.196  0.3659  0.3613  0.1109
 4919W        W 8970   2.858   7.349  11.163  0.0122  0.1612 -0.0789
 4920W        W 8971   7.894   7.231   2.511  0.0405 -0.0504  0.0834
 4921W        W 8972   7.576   4.678   1.089  0.0881 -0.1343 -0.0252
 4922W        W 8973   4.989   3.756   4.104  0.0359  0.2351 -0.2736
 4923W        W 8974   9.881   2.824   4.654 -0.0708 -0.3791  0.0880
 4924W        W 8975   5.583   2.554   1.618  0.0507  0.0047  0.0541
 4925W        W 8976   2.192   1.806   4.591 -0.1752 -0.0779 -0.1136
 4926W        W 8977   8.627   3.607  12.223 -0.1366  0.0679 -0.3401
 4927W        W 8978   1.711   2.692   0.542 -0.1640  0.1130 -0.2535
 4928W        W 8979   2.342   3.013   2.949 -0.0554 -0.0616  0.0917
 4929W        W 8980   0.208   0.173  11.367 -0.1586 -0.1989  0.1061
 4930W        W 8981   3.630   6.644  12.991  0.0962 -0.2791 -0.1178
 4931W        W 8982   8.876   4.792   4.906  0.1031 -0.2371  0.1099
 4932W        W 8983   4.248   6.246  11.903 -0.1425  0.2540 -0.3737
 4933W        W 8984   6.445   9.139   8.395 -0.2481  0.1413  0.2012
 4934W        W 8985   3.953   2.507   2.557  0.1336 -0.0524  0.3222
 4935W        W 8986   9.172   9.803  11.833 -0.0856  0.2617  0.0996
 4936W        W 8987   9.116   4.830  13.733 -0.2016  0.1632  0.0348
 4937W        W 8988   0.200   8.112   3.331 -0.1198  0.0995 -0.1732
 4938W        W 8989   1.270   5.013  11.068 -0.1497 -0.1255 -0.0580
 4939W        W 8990   4.869   1.864   1.339 -0.0168  0.0944 -0.0357
 4940W        W 8991   0.455   7.015   2.091  0.0051  0.1865 -0.0948
 4941W        W 8992   3.068   3.535   3.764 -0.0222 -0.0271 -0.1594
 4942W        W 8993   0.419   9.973   4.093 -0.1958 -0.1976  0.3216
 4943W        W 8994   7.347   0.608  10.463 -0.1091 -0.3840 -0.3207
 4944W        W 8995   6.151   9.357   1.949 -0.1607 -0.1855 -0.0980
 4945W        W 8996   9.667   7.431   3.026 -0.0088 -0.0454 -0.1074
 4946W        W 8997   3.965   1.219   4.029  0.0671 -0.3269 -0.2622
 4947W        W 8998   2.573   0.012   3.114 -0.4228 -0.1176 -0.0833
 4948W        W 8999   5.600   8.826  13.565  0.0679  0.2292  0.0998
 4949W        W 9000   1.315   1.832   0.137  0.0884 -0.1858  0.1610
 4950W        W 9001   9.427   0.273  10.962 -0.1607  0.0191  0.0447
 4951W        W 9002   8.527   5.857   2.677  0.4999 -0.0829 -0.3224
 4952W        W 9003   2.318   2.719   2.541  0.0339  0.2710  0.0748
 4953W        W 9004   0.098   7.238   2.986 -0.0022 -0.0391 -0.0965
 4954W        W 9005   4.433   3.098   9.622 -0.1372 -0.0263  0.2415
 4955W        W 9006   6.650   0.237   8.556  0.1116 -0.3053 -0.1952
 4956W        W 9007   5.274   9.807  13.731  0.0824  0.1581  0.1716
 4957W        W 9008   0.960   8.424   1.438  0.2435  0.1709 -0.0410
 4958W        W 9009   9.138   0.431  11.800 -0.0102 -0.0858  0.1311
 4959W        W 9010   2.329   1.724   2.750  0.0135 -0.1408  0.3977
 4960W        W 9011   6.924   0.528  13.636 -0.0289  0.2960 -0.3659
 4961W        W 9012   4.630   1.848   0.895 -0.3036  0.2051  0.0572
 4962W        W 9013   3.705   4.035  10.864 -0.0025  0.1156 -0.2298
 4963W        W 9014   0.465  10.164   3.056 -0.0668  0.2659 -0.0294
 4964W        W 9015   7.593   1.207  12.467 -0.0390 -0.2059 -0.3845
 4965W        W 9016   6.281   5.643   1.515 -0.0666 -0.1289  0.0298
 4966W        W 9017   6.657   6.553  10.527  0.2300  0.0986 -0.0199
 4967W        W 9018   8.036   9.165   9.258 -0.1649 -0.0266  0.1188
 4968W        W 9019   5.543   4.750  13.197 -0.0479 -0.0605  0.1292
 4969W        W 9020   1.657   9.525   2.828  0.2352 -0.2884  0.0322
 4970W        W 9021   5.320   5.047   2.758  0.2254  0.0928 -0.4350
 4971W        W 9022   5.561   0.751  13.084 -0.1720  0.0376 -0.1023
 4972W        W 9023   3.413   8.091   3.488 -0.0003 -0.2700  0.1353
 4973W        W 9024   3.462   9.460  11.228  0.0458  0.2217 -0.1789
 4974W        W 9025  10.136   7.823  13.771 -0.4486 -0.0682  0.1410
 4975W        W 9026   3.343   3.629   1.375  0.0465 -0.0698 -0.3303
 4976W        W 9027   4.829   9.035  11.922  0.0009 -0.1062  0.2871
 4977W        W 9028   0.108   2.572   0.762  0.2864 -0.0815 -0.0849
 4978W        W 9029   1.246   7.448  12.442  0.3460 -0.2307 -0.0789
 4979W        W 9030   1.262   2.749   8.793 -0.2083  0.1098  0.0678
 4980W        W 9031   4.382   9.838   3.561  0.1754 -0.2985 -0.0475
 4981W        W 9032  10.188   7.696   3.428 -0.0453 -0.0366 -0.0721
 4982W        W 9033   9.266   3.544   0.276 -0.0982  0.1169 -0.1461
 4983W        W 9034   9.071   8.835   3.728 -0.1698  0.0957 -0.2885
 4984W        W 9035   9.196   1.162  10.960 -0.3448 -0.0202 -0.1834
 4985W        W 9036   4.854   9.084   2.779 -0.0429  0.0735  0.1915
 4986W        W 9037   1.181   3.832  13.866 -0.0467 -0.1651  0.2282
 4987W        W 9038   1.231   0.036  11.282 -0.1765 -0.0149  0.1950
 4988W        W 9039   3.877   9.620   0.129 -0.1183 -0.0052  0.0421
 4989W        W 9040   5.589   0.053  10.221  0.1238  0.2721  0.2537
 4990W        W 9041   1.521   8.278  11.524  0.2319 -0.1628  0.4795
 4991W        W 9042   4.280   8.845   3.162 -0.0972  0.0475 -0.0270
 4992W        W 9043   0.735   2.541   3.060 -0.0701 -0.1259 -0.0857
 4993W        W 9044   2.872   8.219   1.274  0.0835  0.0780  0.0810
 4994W        W 9045   6.609   3.724   0.964 -0.1278  0.3943  0.1239
 4995W        W 9046   0.879   1.396  11.189  0.2083  0.0162  0.1335
 4996W        W 9047   9.202   2.338   1.561 -0.3055  0.2816 -0.1302
 4997W        W 9048   6.949   9.561   8.901 -0.2071 -0.0436 -0.0907
 4998W        W 9049   1.268   0.945  11.848 -0.2785 -0.1075  0.0263
 4999W        W 9050   2.811   1.940   2.990  0.1977  0.1381  0.0744
 5000W        W 9051   8.832   1.545   0.815  0.3998 -0.1395 -0.1846
 5001W        W 9052   9.307   6.340   4.850 -0.0188  0.2655 -0.2472
 5002W        W 9053   0.165   8.735   0.995 -0.1418  0.0939 -0.0475
 5003W        W 9054   6.718   7.797  13.064 -0.0426  0.0541  0.0544
 5004W        W 9055   3.849   8.775   2.635  0.1055  0.0335 -0.2513
 5005W        W 9056   2.799   3.934   3.453 -0.0767  0.0170  0.2611
 5006W        W 9057   7.030   1.565   0.546  0.0152 -0.1659  0.1511
 5007W        W 9058   3.419   4.954   0.961 -0.0037  0.4471  0.0576
 5008W        W 9059   3.802   6.971   3.785 -0.0415  0.0718  0.0684
 5009W        W 9060   0.291   6.943   2.536  0.1276 -0.0187 -0.0988
 5010W        W 9061   4.925   5.059   3.728 -0.3026 -0.1569 -0.0795
 5011W        W 9062   5.728   7.911   3.181 -0.0074  0.0038  0.1775
 5012W        W 9063   6.688   4.435  11.142  0.2668 -0.2762 -0.0186
 5013W        W 9064   0.259   3.749  11.388 -0.0008  0.0798  0.1136
 5014W        W 9065   8.398   8.998  13.722 -0.5790  0.1906  0.0777
 5015W        W 9066   7.502   4.902  11.789  0.0616 -0.0204  0.0919
 5016W        W 9067   0.845   2.140   9.706  0.3765  0.1398 -0.2290
 5017W        W 9068   4.242   7.382   1.073  0.4518  0.2569 -0.0861
 5018W        W 9069   3.988   5.689   4.869 -0.0272 -0.1300 -0.3041
 5019W        W 9070   5.475   9.241   2.640  0.0927  0.4097 -0.3966
 5020W        W 9071   2.324   2.645   1.577  0.0127 -0.1769  0.0111
 5021W        W 9072   8.961   7.448   1.386  0.0469 -0.1405  0.2148
 5022W        W 9073   3.898   5.026   1.292 -0.1316 -0.1486 -0.1085
 5023W        W 9074   2.561   5.498  11.169  0.0354 -0.1187  0.0539
 5024W        W 9075   3.638   5.760  13.073  0.1606  0.3757  0.1097
 5025W        W 9076   4.213   4.633  10.561  0.1640  0.1326 -0.2902
 5026W        W 9077   2.405   0.511  12.566 -0.0892 -0.0840 -0.2601
 5027W        W 9078   8.448   2.549   4.448 -0.1097  0.0775 -0.2927
 5028W        W 9079   1.021   5.361  12.130 -0.2632 -0.1875 -0.0386
 5029W        W 9080   4.553   7.771  12.406 -0.2385  0.1295  0.1047
 5030W        W 9081   4.701   8.542  12.769  0.1896  0.0557 -0.2091
 5031W        W 9082   2.321   9.776  13.186  0.1694  0.0909 -0.3147
 5032W        W 9083   3.151   7.828  10.475 -0.0274 -0.0537  0.1165
 5033W        W 9084   9.092   2.216  11.235  0.2798  0.0057  0.1878
 5034W        W 9085   5.383   5.835   9.318 -0.0161  0.1617  0.1440
 5035W        W 9086   2.697   0.159   8.426  0.0321  0.1124 -0.0892
 5036W        W 9087   9.679   1.862  13.767 -0.2026 -0.1198  0.2028
 5037W        W 9088   7.438   7.697   0.932 -0.1639  0.0299 -0.1567
 5038W        W 9089   9.794   3.212   0.107 -0.1739  0.4328  0.0380
 5039W        W 9090   2.787   3.762  11.658 -0.0552 -0.1664 -0.2217
 5040W        W 9091   6.368   7.530   3.135  0.1139 -0.0170  0.0873
 5041W        W 9092   7.872   7.838   9.417  0.1084  0.1678 -0.2015
 5042W        W 9093   2.234   8.812   1.045 -0.5198 -0.3003 -0.1765
 5043W        W 9094  10.085   6.366  13.118 -0.3877 -0.2487  0.2497
 5044W        W 9095   7.567   3.942   2.031 -0.1270  0.0582  0.0650
 5045W        W 9096   0.039   7.405   0.343 -0.2328 -0.1808  0.0876
 5046W        W 9097   8.252   2.406  10.121  0.2301 -0.2108 -0.1783
 5047W        W 9098   3.750   3.572   5.374 -0.4679 -0.1220 -0.2088
 5048W        W 9099   8.143   9.587  10.498 -0.0357  0.1236 -0.1646
 5049W        W 9100   5.045   6.675  13.401 -0.0414  0.1495  0.2206
 5050W        W 9101   4.181   8.879   0.654  0.0875 -0.2415 -0.2657
 5051W        W 9102   7.137   4.007   2.687  0.0236 -0.1199 -0.3154
 5052W        W 9103   8.944   1.843  10.358 -0.0226  0.1483  0.0184
 5053W        W 9104   6.471   5.865  10.824  0.3213 -0.3291  0.0274
 5054W        W 9105   5.337   4.250  13.525  0.0440 -0.1957  0.0643
 5055W        W 9106   4.672   2.414   1.393  0.3557 -0.1334 -0.2396
 5056W        W 9107   9.430   5.425   3.786 -0.1986 -0.2293  0.2759
 5057W        W 9108   5.241   1.777   0.970  0.1885 -0.0001 -0.3222
 5058W        W 9109   6.106   9.692   9.863  0.1790 -0.3744  0.2235
 5059W        W 9110   0.953   7.138   1.784 -0.3176  0.1015 -0.4054
 5060W        W 9111   6.776   5.474   2.745 -0.0186 -0.1470  0.2149
 5061W        W 9112   5.368   9.544   9.555 -0.2077  0.3836  0.0125
 5062W        W 9113   2.628   2.059   4.688 -0.1189  0.1307 -0.0137
 5063W        W 9114   7.764   0.519   9.781 -0.1374 -0.4304 -0.0514
 5064W        W 9115   3.971   9.869  12.102  0.2750  0.2834  0.1671
 5065W        W 9116   1.838   7.717   1.797  0.0429 -0.2453 -0.1199
 5066W        W 9117   3.801   8.811  13.645 -0.0320 -0.2359 -0.0713
 5067W        W 9118   7.956   6.829  10.996  0.0295  0.1955  0.1006
 5068W        W 9119   8.624   0.314   1.474 -0.2697 -0.2173 -0.0064
 5069W        W 9120   0.934   9.857  11.340  0.1335  0.1810 -0.0948
 5070W        W 9121   0.770   4.429   9.533  0.0305 -0.2227 -0.0124
 5071W        W 9122   0.158   5.327  12.166 -0.1607 -0.2527  0.0759
 5072W        W 9123   4.307   1.753  11.246 -0.2141 -0.0536 -0.5158
 5073W        W 9124   4.760   9.431   1.112 -0.1581 -0.1365 -0.0680
 5074W        W 9125   4.981   3.296   5.460 -0.0759 -0.1085 -0.1670
 5075W        W 9126   6.463   1.504   2.175  0.0085  0.1083 -0.3301
 5076W        W 9127   7.534   5.742  13.397  0.2606  0.1901  0.1851
 5077W        W 9128   7.690   9.182   2.277 -0.0682  0.0603  0.0532
 5078W        W 9129   6.208   3.322  11.600  0.0898  0.1858  0.0535
 5079W        W 9130   4.825   1.407  11.930 -0.1200 -0.0187 -0.0397
 5080W        W 9131   7.647   2.025  10.786 -0.1158 -0.1872  0.1511
 5081W        W 9132   9.935   0.855   4.387  0.0118 -0.0906  0.2561
 5082W        W 9133   3.520   7.979  13.860 -0.0979  0.1106 -0.3347
 5083W        W 9134   6.215   0.854   4.792 -0.2198 -0.0281 -0.2164
 5084W        W 9135   4.493   7.316  11.369 -0.2586 -0.2020  0.0386
 5085W        W 9136   8.897   9.224   2.534  0.1014  0.1031  0.0435
 5086W        W 9137  10.193   5.601  11.201  0.1105  0.0633 -0.2024
 5087W        W 9138   7.249   4.769  13.678 -0.0628  0.0275 -0.0959
 5088W        W 9139   9.276   2.276  12.727  0.1772 -0.0227  0.2068
 5089W        W 9140   3.039   3.939   1.009 -0.0950 -0.0723 -0.0972
 5090W        W 9141  10.109   4.806  10.845  0.0333  0.0859  0.0167
 5091W        W 9142   5.904   8.601   3.994  0.1722  0.1715  0.1744
 5092W        W 9143   7.553   1.193   1.143 -0.0202 -0.0948 -0.0695
 5093W        W 9144   7.327   8.782  12.886 -0.0179 -0.1816 -0.0021
 5094W        W 9145   2.421   7.838   1.795 -0.0374 -0.0563  0.0278
 5095W        W 9146   5.107   6.054  12.310 -0.0306  0.1421 -0.2458
 5096W        W 9147   0.401   4.938  10.469  0.0047  0.1924 -0.0639
 5097W        W 9148   4.898   2.249  12.344 -0.3610  0.2334  0.2736
 5098W        W 9149   9.462   1.715   0.863 -0.0091  0.3260  0.0279
 5099W        W 9150   3.981   5.556  11.269  0.4734 -0.1834  0.2394
 5100W        W 9151   2.138   2.309   4.768  0.2623 -0.0041 -0.2024
 5101W        W 9152   1.915   2.059   0.059 -0.0142 -0.1709 -0.2896
 5102W        W 9153   4.492   2.426   3.895 -0.1147  0.0301 -0.3778
 5103W        W 9154   6.410   6.931   2.898  0.0493 -0.1116 -0.1001
 5104W        W 9155   4.639   5.905   3.953  0.1479  0.2098 -0.3559
 5105W        W 9156   6.620   7.949  11.989 -0.0613  0.1864  0.2572
 5106W        W 9157   3.949  10.012   3.365  0.0692  0.0513 -0.3791
 5107W        W 9158   1.707   5.261  13.530 -0.3392 -0.0537  0.2224
 5108W        W 9159   3.197   4.895  13.832  0.0304  0.3766  0.5009
 5109W        W 9160   4.690   0.281  13.149 -0.4353 -0.1679 -0.0798
 5110W        W 9161   8.039   8.167  12.767  0.2187 -0.1089 -0.2031
 5111W        W 9162   2.807   9.420   8.296 -0.1937  0.1709  0.4053
 5112W        W 9163   3.642   3.421   4.455  0.0156  0.1345  0.1519
 5113W        W 9164   6.371   6.986   1.712  0.4350  0.2576  0.0729
 5114W        W 9165   4.557   2.042  12.946 -0.1398 -0.1970 -0.1629
 5115W        W 9166   0.107   6.193   2.914 -0.1817 -0.0226  0.0029
 5116W        W 9167   1.418   7.501   2.746 -0.1342  0.0840 -0.1924
 5117W        W 9168   5.452   9.337  13.684 -0.2278  0.2181 -0.1659
 5118W        W 9169   5.652   7.923  13.049  0.2909  0.0347  0.1789
 5119W        W 9170   0.938   9.764  10.006  0.0964  0.0062 -0.2165
 5120W        W 9171   8.051   2.984   3.139  0.0813  0.0558  0.0244
 5121W        W 9172   7.616   5.045   3.302 -0.3188 -0.2182  0.0857
 5122W        W 9173   2.988   9.311   9.120 -0.1657  0.0283 -0.1430
 5123W        W 9174   2.208   0.949  12.697 -0.1519 -0.0485 -0.0203
 5124W        W 9175   0.236   0.217  12.228 -0.1249  0.2787  0.0051
 5125W        W 9176   0.277   6.213   1.075  0.1234  0.0771 -0.0766
 5126W        W 9177   2.424   9.202  10.822  0.1230 -0.0983 -0.1275
 5127W        W 9178  10.082   1.240   2.137  0.2637  0.2758 -0.0218
 5128W        W 9179   2.089   9.663  12.721  0.1241  0.1733 -0.2036
 5129W        W 9180   7.486   3.644   2.461  0.0472 -0.0284 -0.0314
 5130W        W 9181   3.204   7.752  13.545  0.0352  0.0166 -0.0951
 5131W        W 9182   2.794   8.887  13.138 -0.0615  0.3233 -0.0291
 5132W        W 9183   8.157   8.436  10.516 -0.0426  0.2042  0.2602
 5133W        W 9184   7.571   1.426  13.899 -0.0968 -0.2314 -0.3321
 5134W        W 9185   4.871   6.122   2.186  0.0339 -0.0929  0.0784
 5135W        W 9186   4.776   6.404  12.393  0.0469  0.2170 -0.3721
 5136W        W 9187   9.942   7.764   1.451  0.0552  0.1737 -0.0343
 5137W        W 9188   0.483   7.294   0.623 -0.1245  0.2550  0.0307
 5138W        W 9189   5.254   5.382   0.814 -0.0116 -0.3979 -0.0010
 5139W        W 9190   5.499   8.775   2.466  0.1227  0.3302 -0.0112
 5140W        W 9191   3.322   3.328   0.346  0.2448  0.2647  0.0286
 5141W        W 9192   5.992   4.287   4.272 -0.2226  0.0463  0.0073
 5142W        W 9193   8.915   3.212   9.877 -0.0925 -0.5478  0.0604
 5143W        W 9194   5.512   2.184  10.355  0.1812 -0.0777 -0.0411
 5144W        W 9195   6.966   1.293   2.159  0.2760 -0.0002 -0.1209
 5145W        W 9196   5.966   5.158  12.256  0.0357 -0.1760 -0.1321
 5146W        W 9197   9.207   2.917   1.826 -0.1378 -0.3442  0.0247
 5147W        W 9198   6.641   7.784  10.986 -0.1152 -0.1298 -0.1707
 5148W        W 9199   7.138   0.572   2.909  0.3328  0.1395  0.0854
 5149W        W 9200   0.935   0.674   3.659 -0.1238  0.3050  0.0898
 5150W        W 9201   4.280   8.593  13.175  0.1877 -0.0545  0.4885
 5151W        W 9202   5.383   4.537   1.929 -0.0126  0.0638  0.2949
 5152W        W 9203   0.706   7.873   1.761  0.2399  0.1944 -0.2065
 5153W        W 9204   9.848   6.605   0.692  0.4592  0.1160 -0.2323
 5154W        W 9205   2.576   3.531  13.735 -0.1002 -0.2874  0.0572
 5155W        W 9206   0.903   1.734   1.680 -0.0959 -0.1369 -0.1276
 5156W        W 9207   9.576   8.038   1.734 -0.1660  0.2533  0.1305
 5157W        W 9208   7.025   6.132  13.882  0.1878 -0.2745  0.4353
 5158W        W 9209   8.568   8.737   1.110  0.2575  0.1180 -0.2407
 5159W        W 9210   7.211   5.651  12.620  0.1412  0.4806 -0.0206
 5160W        W 9211   7.377   7.439   3.910  0.1187  0.1945  0.1041
 5161W        W 9212   8.990   3.204   2.287  0.3293 -0.0675  0.2419
 5162W        W 9213   9.516   7.285   3.925 -0.1915 -0.1168  0.0803
 5163W        W 9214   9.354   5.154   2.993  0.1017  0.1943 -0.2351
 5164W        W 9215   7.054   0.948  10.216  0.1492  0.1760  0.1914
 5165W        W 9216   2.407   8.706   4.222  0.2090  0.0984  0.2220
 5166W        W 9217   6.182   4.164   3.488  0.3102 -0.3917 -0.3679
 5167W        W 9218   1.207   9.009   3.097 -0.1250 -0.0673  0.0988
 5168W        W 9219   0.974   2.537  10.218  0.0774 -0.1914 -0.2887
 5169W        W 9220   9.805   3.165   2.005  0.2565  0.1797  0.1869
 5170W        W 9221   4.969   8.586   1.159 -0.0738  0.3107 -0.0855
 5171W        W 9222   7.089   6.228   1.873 -0.0691  0.3638  0.0700
 5172W        W 9223   5.058  10.010  12.928  0.1019  0.0012  0.0686
 5173W        W 9224   6.554   6.174  13.616  0.2923 -0.2678 -0.0392
 5174W        W 9225   2.393   6.513  11.480 -0.6829 -0.2709  0.0230
 5175W        W 9226   4.935   0.318  12.710  0.0078  0.1140  0.1943
 5176W        W 9227   1.254   4.507  10.846  0.0454  0.0932  0.2561
 5177W        W 9228   7.152   5.550   2.390  0.4233  0.1054  0.3575
 5178W        W 9229   1.451   5.331   9.765  0.3849 -0.1879 -0.0716
 5179W        W 9230   6.986   4.192  12.079 -0.0492  0.1299 -0.1744
 5180W        W 9231   9.650   9.928   4.056  0.0144 -0.0528 -0.3214
 5181W        W 9232   5.029   4.668  13.187  0.0750  0.0037  0.0716
 5182W        W 9233   6.908   4.668  12.765  0.1173 -0.2654  0.0546
 5183W        W 9234   2.042   5.086   1.383  0.0928  0.0275 -0.1905
 5184W        W 9235   9.135   0.148   0.054  0.2804  0.2070 -0.0561
 5185W        W 9236   4.631   2.080   1.804 -0.1185 -0.0727  0.0063
 5186W        W 9237   3.478   6.882   2.986 -0.0345 -0.2962  0.2077
 5187W        W 9238   5.510   9.816   2.624  0.1237  0.1030 -0.1891
 5188W        W 9239   0.727   0.206   3.796  0.1035  0.3915  0.0267
 5189W        W 9240   9.718   5.741  13.612  0.0395  0.5679  0.1677
 5190W        W 9241   9.262   0.054  12.569  0.2332 -0.0567  0.0660
 5191W        W 9242   4.454   9.345  12.731 -0.1136  0.0250 -0.1988
 5192W        W 9243   9.475   7.066  12.793  0.2547  0.0528 -0.1998
 5193W        W 9244   1.327   9.935   3.417  0.1910 -0.1904 -0.0573
 5194W        W 9245   2.967   4.571   3.195  0.0731 -0.3251 -0.1291
 5195W        W 9246   1.972   4.339   0.756 -0.2186 -0.0515  0.3218
 5196W        W 9247   7.552   0.008   4.429 -0.0237 -0.3514  0.1274
 5197W        W 9248   7.280   7.430   1.622  0.3138 -0.2658 -0.0909
 5198W        W 9249   8.902  10.145  10.152 -0.1397 -0.2570  0.2285
 5199W        W 9250   4.856   0.653   3.236 -0.0966  0.2179  0.0939
 5200W        W 9251   6.551   0.508   1.158  0.1423  0.0766 -0.4949
 5201W        W 9252   6.000   4.417   5.114  0.0034  0.0477 -0.1184
 5202W        W 9253   2.538   7.926   0.984  0.0032  0.3791 -0.1925
 5203W        W 9254   1.422   1.856  11.544  0.1367 -0.2528  0.1577
 5204W        W 9255   1.267   3.193  12.241 -0.1174  0.3500 -0.1222
 5205W        W 9256   1.401   8.783  10.650 -0.0696 -0.0544 -0.1297
 5206W        W 9257   1.361   6.829  10.776  0.1819  0.2299 -0.1724
 5207W        W 9258   6.244   8.018   3.171  0.1202  0.0650 -0.2813
 5208W        W 9259   4.984   2.112   2.212 -0.1988  0.0422  0.2364
 5209W        W 9260   4.280   0.048  12.226  0.1513  0.1430  0.3032
 5210W        W 9261   6.150   1.698   2.954 -0.0452  0.0586 -0.2689
 5211W        W 9262   9.405   6.996   3.020 -0.1095 -0.0121  0.1916
 5212W        W 9263   9.032   3.174   3.233 -0.1151 -0.3143 -0.2355
 5213W        W 9264   4.798   7.884   1.098  0.2432  0.1181  0.1787
 5214W        W 9265   5.770   9.879  12.362 -0.1505 -0.0843  0.1144
 5215W        W 9266   5.423   6.649  13.017  0.2024  0.1240 -0.0512
 5216W        W 9267  10.061   6.391   4.128  0.0402 -0.1331 -0.2281
 5217W        W 9268   5.591   3.596   3.805 -0.0939  0.3662  0.0943
 5218W        W 9269   6.022   7.705  13.460 -0.1902  0.0910  0.0844
 5219W        W 9270   4.073   8.525  12.335 -0.1165 -0.0817  0.0610
 5220W        W 9271   4.989   3.684  13.219  0.0448 -0.2324 -0.3816
 5221W        W 9272   6.232   2.575   3.045 -0.2169  0.0682  0.0284
 5222W        W 9273   6.458   9.835   4.716 -0.1027 -0.2573  0.2559
 5223W        W 9274   9.962   9.862  12.464 -0.1442 -0.0260  0.0760
 5224W        W 9275   4.933   1.298   4.442  0.1027 -0.0226  0.1945
 5225W        W 9276   7.796   5.150   4.451  0.3180 -0.1043 -0.0276
 5226W        W 9277   1.877   1.635   5.540  0.1525  0.1033  0.2871
 5227W        W 9278   9.371   9.440   0.229 -0.0788 -0.2287  0.3910
 5228W        W 9279   6.755   1.843   0.896  0.1998  0.2437 -0.0803
 5229W        W 9280   9.379   2.491   2.067 -0.0737  0.2783 -0.0624
 5230W        W 9281   6.185   2.556  11.887 -0.2736  0.0291  0.0171
 5231W        W 9282   0.840   5.283  11.164 -0.0425  0.3101 -0.1297
 5232W        W 9283   1.112   1.604  10.140  0.1872  0.1006  0.2393
 5233W        W 9284   7.856   2.642  11.253 -0.0115 -0.1957 -0.0496
 5234W        W 9285   2.267   0.168   2.351 -0.1265  0.0030  0.1287
 5235W        W 9286   9.931   4.284   0.772  0.3092  0.1165 -0.1592
 5236W        W 9287   2.699   9.781   4.619 -0.3382  0.1140  0.2491
 5237W        W 9288   2.398   3.964   2.527  0.1170  0.2053  0.0583
 5238W        W 9289   6.839   5.548  11.598  0.2423  0.1863 -0.0031
 5239W        W 9290   3.214   9.005   1.171  0.0612  0.0006  0.0417
 5240W        W 9291   9.606   6.379   1.628 -0.1000  0.2202  0.0553
 5241W        W 9292   6.051   5.398   4.912  0.0824  0.0419 -0.0582
 5242W        W 9293   0.176   5.342   2.430 -0.1509  0.3166 -0.0338
 5243W        W 9294   5.158   5.873  11.348  0.0747 -0.1892 -0.0457
 5244W        W 9295   4.992   1.442   2.244 -0.0840  0.1221 -0.0633
 5245W        W 9296   8.935   9.422   1.228  0.2326  0.3468  0.1122
 5246W        W 9297   7.787   0.218   5.273 -0.0442  0.2512 -0.0756
 5247W        W 9298   2.614   1.069  11.980  0.2640 -0.0106  0.1980
 5248W        W 9299  10.089   0.427  11.928 -0.0314 -0.0972  0.0441
 5249W        W 9300   9.106   9.671   2.574 -0.3933 -0.0439  0.0626
 5250W        W 9301   0.747   1.786   9.321 -0.0793  0.0270 -0.0395
 5251W        W 9302   2.234   6.944  11.815  0.4948  0.3084  0.0535
 5252W        W 9303   2.674   9.304   1.104 -0.1798  0.1575 -0.1624
 5253W        W 9304   5.297   6.298   0.821  0.0840 -0.0121 -0.2789
 5254W        W 9305   2.443   3.998  10.168 -0.1001  0.0295 -0.0633
 5255W        W 9306   3.306   8.242   2.033  0.1811 -0.0321  0.2838
 5256W        W 9307   1.216   1.042   3.983 -0.0014 -0.0691  0.0718
 5257W        W 9308   8.838   3.152  10.354 -0.1158 -0.2791  0.4134
 5258W        W 9309   9.830   9.145   1.495  0.1033 -0.0392  0.0991
 5259W        W 9310   0.722   6.817  11.842 -0.3941 -0.0124  0.1457
 5260W        W 9311   3.683   2.516  10.510  0.0185 -0.0136 -0.5339
 5261W        W 9312   3.406   9.841  10.106  0.2093  0.0215  0.0984
 5262W        W 9313   8.234   1.436   9.594 -0.1230  0.0002  0.1272
 5263W        W 9314   8.108   6.733  12.365  0.2445  0.0568 -0.1516
 5264W        W 9315   7.334   5.383  13.083  0.0583  0.2487 -0.1553
 5265W        W 9316   3.965   6.628  13.456 -0.0010  0.2559  0.1482
 5266W        W 9317   5.207   9.418   1.845  0.1243  0.1833 -0.2939
 5267W        W 9318   5.483   2.922  13.553 -0.2593  0.2235 -0.0934
 5268W        W 9319   7.284   3.889  13.559  0.0906  0.0873 -0.1978
 5269W        W 9320   7.875   1.684  11.168  0.2178  0.0734 -0.2712
 5270W        W 9321   9.761   4.654   4.228 -0.1562 -0.1309 -0.0241
 5271W        W 9322   8.584   2.328   9.219 -0.1481 -0.1703 -0.1690
 5272W        W 9323   9.225   5.361   0.866  0.1741 -0.1885  0.0230
 5273W        W 9324   0.489   2.648  10.419 -0.1791  0.3691 -0.2655
 5274W        W 9325   5.229   0.116   8.966 -0.2509  0.0236 -0.0128
 5275W        W 9326   1.819   9.877   9.126  0.1352  0.0308 -0.1001
 5276W        W 9327   3.143   8.579   3.824  0.0314  0.2215  0.0103
 5277W        W 9328   7.476   9.727   4.472 -0.1170  0.4743  0.1308
 5278W        W 9329   5.667   8.490  11.783  0.1905 -0.0214 -0.0090
 5279W        W 9330   8.303   9.198   4.523  0.0173 -0.0363  0.3739
 5280W        W 9331   3.147   1.206  11.874 -0.1575 -0.1428 -0.1365
 5281W        W 9332   9.366   8.068  11.663 -0.0958  0.0967 -0.1722
 5282W        W 9333   2.814   7.942   0.472  0.0444  0.0921 -0.2075
 5283W        W 9334   8.640   1.054   2.121  0.0841 -0.0411  0.1093
 5284W        W 9335   0.086   4.251  12.779  0.0943 -0.0541 -0.2050
 5285W        W 9336   3.093   0.903   0.138 -0.1712  0.2368  0.1430
 5286W        W 9337   2.830   0.379   4.043  0.2888 -0.0427  0.1905
 5287W        W 9338   2.067   1.292   2.839  0.1271  0.5649 -0.2782
 5288W        W 9339   3.498   8.324  13.251  0.0324  0.0565 -0.1811
 5289W        W 9340   3.920   0.178   0.697  0.0925  0.0577 -0.2696
 5290W        W 9341   1.523   7.951   0.278  0.1805 -0.0542 -0.2435
 5291W        W 9342   5.754   6.516  12.623  0.0528  0.4431  0.0561
 5292W        W 9343   8.796   1.341   9.592  0.1232 -0.1759 -0.0806
 5293W        W 9344   6.683   5.581  10.169  0.2452 -0.1639 -0.0751
 5294W        W 9345   7.892   8.438  11.305 -0.0468  0.0007 -0.1622
 5295W        W 9346   2.897   4.830   1.045  0.2907 -0.0181  0.3817
 5296W        W 9347   0.276   7.717  12.458 -0.0387 -0.1196  0.0075
 5297W        W 9348   4.961   1.387   2.749 -0.1084  0.1003  0.1132
 5298W        W 9349   7.214   4.817   2.337  0.1239  0.2575  0.2299
 5299W        W 9350   0.499   2.634   1.910 -0.1611  0.0251  0.1757
 5300W        W 9351   8.012   8.332   1.784 -0.1945 -0.3512  0.0759
 5301W        W 9352   6.967   9.198  12.904 -0.0933 -0.0070  0.0182
 5302W        W 9353   3.472   2.382  12.624  0.1658  0.2770  0.1542
 5303W        W 9354   3.012   6.897  12.193 -0.1634 -0.0990  0.0610
 5304W        W 9355   7.925   8.976  13.475  0.0203 -0.2329  0.1527
 5305W        W 9356   5.936   3.801  13.618  0.1855 -0.1132 -0.1885
 5306W        W 9357   6.243   1.707  10.440 -0.4450 -0.1254  0.1231
 5307W        W 9358   4.081   5.160   4.205  0.2641  0.0800 -0.2579
 5308W        W 9359   4.806   2.553   2.073  0.1555  0.1852  0.1364
 5309W        W 9360   1.709   3.203   2.213 -0.1699  0.1233 -0.3036
 5310W        W 9361   9.920   0.215  11.007  0.2830 -0.1585  0.2083
 5311W        W 9362   8.669   4.932   2.451  0.0427 -0.1225 -0.1724
 5312W        W 9363   6.123   7.447   4.677 -0.0380 -0.0943 -0.0848
 5313W        W 9364   1.831   1.726   3.641 -0.0151  0.3612 -0.0101
 5314W        W 9365   6.786   2.503  13.505  0.2423 -0.1518  0.0639
 5315W        W 9366   0.195   0.659  10.123  0.2332  0.3228 -0.2573
 5316W        W 9367   2.301   9.713   1.147  0.1855 -0.2829  0.3249
 5317W        W 9368   7.840   1.639   0.430  0.0934  0.2057  0.2666
 5318W        W 9369   4.293   4.165  10.719 -0.1172  0.1684  0.0806
 5319W        W 9370   5.046   6.635   4.120  0.1699 -0.1300  0.2032
 5320W        W 9371   2.470   1.733   1.874 -0.2442  0.2342  0.0218
 5321W        W 9372   2.501   4.351   3.283 -0.1404  0.1804 -0.0407
 5322W        W 9373   6.882   2.725  12.190 -0.0617 -0.1163 -0.0627
 5323W        W 9374   7.908   3.130   5.462 -0.0697  0.2286  0.0567
 5324W        W 9375   9.828   5.871  11.453 -0.0364 -0.0351  0.1430
 5325W        W 9376   6.723   8.754   2.074  0.0981  0.2263 -0.1116
 5326W        W 9377   6.789   9.233   2.745  0.0437  0.0826  0.0797
 5327W        W 9378   7.340   9.063   2.782 -0.1286 -0.0221  0.4715
 5328W        W 9379   5.673   1.682   3.943  0.1234  0.1045  0.1589
 5329W        W 9380   9.571   2.298  11.429 -0.0209 -0.0655  0.2396
 5330W        W 9381   1.992   6.441  11.261  0.2994  0.1260  0.3204
 5331W        W 9382   0.603   8.960   4.075  0.0750  0.0330  0.2765
 5332W        W 9383   2.273   3.110   2.270 -0.0279 -0.0594 -0.1792
 5333W        W 9384   4.858   0.203   1.295 -0.1077  0.0609 -0.1938
 5334W        W 9385   8.538   0.122   2.454 -0.0920  0.0032  0.3208
 5335W        W 9386   3.056   5.908  11.940  0.0642 -0.0497 -0.0995
 5336W        W 9387   9.759   1.301   1.155 -0.3090  0.1034  0.1466
 5337W        W 9388   4.985   7.632   1.826 -0.1847 -0.3343  0.1961
 5338W        W 9389   1.589   0.420  13.267 -0.1428 -0.1379 -0.2748
 5339W        W 9390   7.057   7.103   4.648  0.3829  0.0392  0.0190
 5340W        W 9391   7.219   5.832   3.259 -0.1377  0.1269  0.1043
 5341W        W 9392   0.353   3.750   0.021 -0.0079  0.0190  0.0320
 5342W        W 9393  10.176   4.986  11.308  0.1907 -0.0676 -0.0882
 5343W        W 9394   3.646   1.203   2.730  0.1722 -0.2114  0.1206
 5344W        W 9395   2.799   2.570  13.252 -0.1129 -0.0470 -0.0577
 5345W        W 9396   7.397   8.255   9.936 -0.1044 -0.0979 -0.0383
 5346W        W 9397   8.304   2.964   3.605  0.0045  0.4004  0.1179
 5347W        W 9398   9.379   7.184   1.337  0.3124  0.0613 -0.2930
 5348W        W 9399   5.942   8.530   0.679  0.1265  0.0342 -0.1667
 5349W        W 9400   9.305   5.644   3.191  0.1818  0.2470 -0.0045
 5350W        W 9401   2.307   9.204   1.429  0.0222  0.0867  0.0766
 5351W        W 9402   0.862   0.534   8.925 -0.3219 -0.2607 -0.0364
 5352W        W 9403   6.342   6.108  12.674  0.1382 -0.4049 -0.3083
 5353W        W 9404   0.443   9.501   0.827  0.2048  0.2752 -0.3001
 5354W        W 9405   9.572   5.480   1.168  0.0248 -0.0692 -0.0608
 5355W        W 9406   3.554   4.596   0.131  0.0242 -0.1119  0.2835
 5356W        W 9407   4.462   8.112   9.030 -0.1495 -0.1034 -0.0915
 5357W        W 9408   7.590   7.046   2.913  0.0342 -0.0321 -0.1607
 5358W        W 9409   4.398   5.694  11.705  0.1282  0.1471  0.3829
 5359W        W 9410   1.816   2.738   1.563 -0.0863  0.0025 -0.0775
 5360W        W 9411   4.237   6.592   2.674  0.3290  0.2042  0.5034
 5361W        W 9412   5.759   1.769   3.265  0.1873 -0.2355  0.0718
 5362W        W 9413   5.357   2.526   2.144 -0.1547 -0.2024  0.1817
 5363W        W 9414   0.493   6.771   0.491 -0.2297  0.1525 -0.0568
 5364W        W 9415   0.138   1.203   4.010 -0.0224 -0.0648  0.0850
 5365W        W 9416   0.228   6.593   0.062  0.2788 -0.1864  0.0113
 5366W        W 9417   9.172   9.431  13.642  0.1631 -0.0499 -0.3884
 5367W        W 9418   7.765   0.853   1.631 -0.1048  0.2012  0.2472
 5368W        W 9419   8.241   1.832   2.341 -0.1862  0.2319  0.1414
 5369W        W 9420   1.753   2.908   9.979  0.1537  0.2854 -0.0295
 5370W        W 9421   4.349   7.494   9.958  0.2171 -0.0096 -0.1754
 5371W        W 9422   6.405   0.509   9.212  0.0662 -0.0876 -0.1262
 5372W        W 9423   0.385   0.711   1.152  0.0579  0.0199 -0.2946
 5373W        W 9424   5.675   4.695   4.807  0.0361 -0.1640 -0.0327
 5374W        W 9425   5.064   6.408   3.049 -0.1024  0.1019  0.3871
 5375W        W 9426   9.422   2.196   0.474 -0.2548  0.1193 -0.0466
 5376W        W 9427   4.385   9.443  13.859  0.0892 -0.1851  0.1778
 5377W        W 9428   5.830   0.209  11.121 -0.0084 -0.1509  0.1728
 5378W        W 9429   7.956   4.069   5.507 -0.0450  0.1183  0.0424
 5379W        W 9430   3.899   2.191  11.005  0.1537 -0.3893  0.1123
 5380W        W 9431   7.765  10.020  12.803  0.1748 -0.0150  0.0738
 5381W        W 9432   7.092   1.191   3.673  0.0067  0.5950  0.0968
 5382W        W 9433   3.624   8.050   8.809 -0.1404  0.2005 -0.1732
 5383W        W 9434   8.751   3.970   1.365  0.1723 -0.2578  0.0754
 5384W        W 9435   7.831   9.949   4.991  0.2577  0.0589  0.1029
 5385W        W 9436   0.515   9.068   1.066  0.4152  0.2005  0.0287
 5386W        W 9437   1.924   6.645   0.630  0.0976 -0.0844  0.1774
 5387W        W 9438   9.106   5.802  12.645  0.0796 -0.0818  0.2054
 5388W        W 9439   9.979   9.868   1.994 -0.0409 -0.0700  0.0908
 5389W        W 9440   4.844   5.911   9.696 -0.0229 -0.0257 -0.3033
 5390W        W 9441   4.978   3.368   1.858 -0.0525  0.3568  0.1637
 5391W        W 9442   0.011   3.263   9.747  0.1105  0.1102  0.1290
 5392W        W 9443   9.477   9.841  13.917 -0.3232 -0.0161 -0.1432
 5393W        W 9444   6.706   5.941   1.508 -0.2040  0.3033 -0.0470
 5394W        W 9445   8.372   8.907  10.510 -0.2484  0.1134 -0.0200
 5395W        W 9446   9.524   4.064  11.257 -0.1458 -0.1134  0.2311
 5396W        W 9447   7.767   5.064   0.782  0.1037 -0.1137 -0.2709
 5397W        W 9448   6.372   3.073  12.582 -0.4033  0.1834 -0.3242
 5398W        W 9449   9.405   8.236   2.135  0.2482  0.0241 -0.0793
 5399W        W 9450   7.740   8.754  12.155 -0.0425  0.0362 -0.1942
 5400W        W 9451   8.859   8.578   1.599  0.1087 -0.1056  0.0055
 5401W        W 9452   1.491   8.702   1.675  0.1994  0.0670  0.1492
 5402W        W 9453   9.666   7.293   2.184  0.1478  0.0313  0.2060
 5403W        W 9454   4.200   9.893   4.045 -0.0924  0.0715  0.1456
 5404W        W 9455   0.901   0.727  12.152 -0.2169 -0.1256 -0.3220
 5405W        W 9456   6.997   4.695   4.300  0.2350  0.0821 -0.0820
 5406W        W 9457   2.510   8.979   3.337 -0.0857  0.0318 -0.0870
 5407W        W 9458   5.269   3.506   5.103  0.0428  0.0769  0.0023
 5408W        W 9459   0.751   3.150  12.852 -0.0548 -0.1932  0.0087
 5409W        W 9460   3.043   7.574   2.464 -0.1337  0.1618 -0.0814
 5410W        W 9461   1.272   1.842  12.976 -0.1789 -0.0577 -0.2102
 5411W        W 9462   9.126   1.362   0.482  0.3833 -0.0006 -0.1948
 5412W        W 9463   4.322   2.359   9.366 -0.0922 -0.1237 -0.1734
 5413W        W 9464   1.351   1.447   1.827  0.2490 -0.1086  0.3847
 5414W        W 9465   2.029   2.656  12.062 -0.1746  0.2416 -0.1572
 5415W        W 9466   2.961   7.481  11.667 -0.1861  0.4042 -0.2377
 5416W        W 9467   8.416   0.918   9.841 -0.3272  0.1673  0.2226
 5417W        W 9468   5.702   9.553   3.030 -0.0303 -0.3164  0.3681
 5418W        W 9469   8.499   8.338  11.863  0.0380 -0.0336 -0.1678
 5419W        W 9470   7.795   4.865  13.745  0.2147  0.1705  0.0084
 5420W        W 9471   6.646   1.002   1.199  0.1036  0.0969 -0.1445
 5421W        W 9472   7.088   1.155   0.943  0.0987  0.2920  0.1609
 5422W        W 9473   8.226   6.834   2.396 -0.1363 -0.1411 -0.2016
 5423W        W 9474   6.479   9.691  13.517 -0.0998 -0.0023  0.3060
 5424W        W 9475   3.880   1.011  10.651  0.3536  0.3009  0.1279
 5425W        W 9476   0.342   3.483  12.316  0.1656 -0.0692 -0.2197
 5426W        W 9477  10.149   4.947  13.178  0.0726 -0.1835 -0.1016
 5427W        W 9478   5.350   5.756  10.419  0.2948 -0.2698  0.2310
 5428W        W 9479   4.950   3.620  11.953 -0.1889 -0.1998  0.1441
 5429W        W 9480   0.496   6.732   0.979  0.0456  0.0562  0.0877
 5430W        W 9481  10.116   0.811  12.924 -0.3597  0.4769  0.0699
 5431W        W 9482   0.226   7.440  10.601  0.2141 -0.3395  0.1645
 5432W        W 9483   6.072   0.122  11.971  0.0230 -0.0026 -0.1362
 5433W        W 9484   9.852   5.404   0.095 -0.0002  0.2235 -0.4168
 5434W        W 9485   4.353   5.670  12.215  0.1178 -0.2514  0.2778
 5435W        W 9486   8.577   3.000   3.150 -0.1173 -0.0301 -0.0800
 5436W        W 9487  10.024   2.614   8.987 -0.2866 -0.0891 -0.2807
 5437W        W 9488   3.814   4.419  13.482 -0.1245  0.2296  0.2413
 5438W        W 9489   1.179   2.715   3.240  0.1891 -0.0039 -0.0427
 5439W        W 9490   5.792   0.845  12.645  0.2683 -0.2243 -0.0949
 5440W        W 9491   0.332   9.432  10.715  0.1353 -0.0692  0.1646
 5441W        W 9492   8.530   0.606   3.052  0.1306  0.1114 -0.0394
 5442W        W 9493   0.897   3.819   4.245  0.1821 -0.2251 -0.2734
 5443W        W 9494   1.616   2.767   1.118 -0.3565  0.0005 -0.2990
 5444W        W 9495   3.229   6.930   3.446 -0.1721  0.0983  0.0484
 5445W        W 9496   7.154   0.224   9.103  0.2342 -0.0302 -0.0844
 5446W        W 9497   8.967   3.852   4.605 -0.1047  0.0826  0.1555
 5447W        W 9498   2.922   9.636  10.068 -0.1826  0.0538  0.0184
 5448W        W 9499   8.847   9.978  13.744  0.0407 -0.1413  0.2650
 5449W        W 9500   3.800   2.123  13.586 -0.0648  0.1742 -0.1922
 5450W        W 9501   8.888   3.723   9.775  0.6784  0.0457 -0.2948
 5451W        W 9502   8.443   6.867  10.723  0.0554  0.2701 -0.1572
 5452W        W 9503   7.838   0.328  11.049  0.1246  0.0524 -0.1621
 5453W        W 9504   1.551   5.600  13.834  0.1210 -0.0510  0.1378
 5454W        W 9505   8.192   0.900   2.742  0.2068  0.0963 -0.0711
 5455W        W 9506   7.868   8.896  10.390 -0.4031  0.2271  0.0827
 5456W        W 9507   2.783   7.627   4.704 -0.3436 -0.3089  0.1152
 5457W        W 9508   8.744   1.532   8.631 -0.1837 -0.2606 -0.5911
 5458W        W 9509   0.195   8.258  10.872  0.0016  0.2950 -0.0643
 5459W        W 9510   9.072   2.706  13.595 -0.0044  0.0821  0.1290
 5460W        W 9511   4.360   7.581   8.965 -0.4191 -0.2521  0.0560
 5461W        W 9512   8.859   8.297   2.033 -0.2009  0.1230  0.0474
 5462W        W 9513   9.812   7.416  12.452  0.0504  0.1722 -0.2946
 5463W        W 9514   4.065   3.410   9.721  0.0176 -0.1314  0.2318
 5464W        W 9515   3.082   6.788   2.587  0.2107  0.0029 -0.0753
 5465W        W 9516   7.350   7.323   3.321 -0.0427 -0.2303  0.0455
 5466W        W 9517   3.708   2.987   8.780 -0.1405 -0.1155 -0.1251
 5467W        W 9518   1.332   2.789   5.014 -0.1668 -0.0498 -0.0474
 5468W        W 9519   0.302   3.971   2.713  0.2736  0.1164  0.2797
 5469W        W 9520   8.586   2.791   0.718 -0.1391  0.0464  0.1664
 5470W        W 9521   4.373   1.905   3.062  0.1168 -0.1023  0.3018
 5471W        W 9522   2.336   0.330  10.838  0.0218  0.0624 -0.3749
 5472W        W 9523   4.534   1.318   3.232  0.1079  0.2385  0.0880
 5473W        W 9524   6.923   5.174  12.783 -0.1682  0.1737 -0.2304
 5474W        W 9525   4.317   9.684   9.716  0.0243  0.1204  0.2022
 5475W        W 9526   0.298   7.882   3.900 -0.1686 -0.0075  0.0249
 5476W        W 9527   5.766   3.735   1.670  0.0680  0.1395  0.1232
 5477W        W 9528   9.732   8.015   3.152  0.0833 -0.1080  0.2344
 5478W        W 9529   4.567   6.783  13.684 -0.2929  0.0791 -0.2458
 5479W        W 9530   2.197   9.680   1.689  0.1824  0.1506 -0.1029
 5480W        W 9531   1.739   0.194  11.420  0.0212 -0.0887  0.3490
 5481W        W 9532   8.709   7.351   9.453 -0.1676 -0.0665 -0.0504
 5482W        W 9533   4.640   3.103   9.095 -0.0941 -0.2988  0.4630
 5483W        W 9534   3.073   6.902  11.701  0.1956 -0.2016  0.1581
 5484W        W 9535   0.439   7.327   1.687 -0.2838  0.0584 -0.1852
 5485W        W 9536   8.601   5.554   3.840  0.1350  0.0783  0.3107
 5486W        W 9537   0.169   9.778   9.435 -0.1505 -0.3205 -0.0250
 5487W        W 9538   2.432   8.453   1.288 -0.2906 -0.0854 -0.3217
 5488W        W 9539   2.026   4.787   3.412 -0.3055 -0.1818  0.1076
 5489W        W 9540   9.266   3.998   3.319  0.1010 -0.0692  0.4947
 5490W        W 9541   5.772   4.313  10.114  0.0759  0.1298 -0.0720
 5491W        W 9542   2.777   3.548  11.097  0.0001  0.2422  0.0664
 5492W        W 9543   2.704   4.356  13.368 -0.1483  0.2084  0.0129
 5493W        W 9544   2.266   9.739   0.657 -0.1708  0.0438  0.1114
 5494W        W 9545   8.705   0.897   2.596 -0.0446 -0.0099  0.0719
 5495W        W 9546   0.482   2.533  12.270  0.0508 -0.1614  0.2677
 5496W        W 9547   7.719   9.447   2.756  0.0466 -0.1835  0.0200
 5497W        W 9548  10.119   6.117   3.722 -0.0568 -0.1241  0.2397
 5498W        W 9549   9.375   0.980  10.284 -0.0379  0.1456  0.1806
 5499W        W 9550   0.860   3.422   1.492 -0.1460 -0.0529 -0.0882
 5500W        W 9551   9.474   2.162   1.192 -0.5836  0.2464  0.3718
 5501W        W 9552   9.452   8.196   0.960 -0.1915 -0.0570 -0.0123
 5502W        W 9553   0.884   3.352   0.044  0.1461  0.2244  0.0652
 5503W        W 9554   7.322   4.037  10.804  0.1523 -0.0727 -0.0864
 5504W        W 9555   6.031   5.140  13.115 -0.3114  0.0848  0.3001
 5505W        W 9556   3.548   9.215  13.020 -0.0825  0.0951 -0.1533
 5506W        W 9557   7.264   3.620   1.029 -0.0755 -0.0121 -0.1770
 5507W        W 9558   4.118   2.444   0.233 -0.1220 -0.0501 -0.1882
 5508W        W 9559   8.551   8.921  11.247  0.3942 -0.1399 -0.0064
 5509W        W 9560   2.483   4.497  11.199 -0.2194  0.0268  0.0439
 5510W        W 9561   3.273   4.646   4.057  0.0165 -0.0422 -0.1200
 5511W        W 9562   6.589   8.568  13.672 -0.1296  0.1066 -0.0171
 5512W        W 9563   5.610   1.904  11.239 -0.0326 -0.1148  0.1017
 5513W        W 9564   3.288   0.440  11.219 -0.0704  0.1754 -0.2633
 5514W        W 9565   5.472   1.406   2.930  0.0630  0.2765 -0.2282
 5515W        W 9566   8.067   7.176  10.666  0.2717 -0.3619 -0.0269
 5516W        W 9567   0.495   8.480   9.526 -0.2995 -0.0507  0.0403
 5517W        W 9568   5.934   7.264  10.029 -0.1794 -0.0158  0.2329
 5518W        W 9569   8.017   7.461   2.985 -0.1039 -0.0824 -0.1899
 5519W        W 9570   5.727   0.316   3.375 -0.2629 -0.0151  0.1684
 5520W        W 9571   2.652   1.807   0.718  0.1882 -0.1511 -0.1379
 5521W        W 9572   3.561   0.407   4.486 -0.0828 -0.0865 -0.0516
 5522W        W 9573   8.650   2.627   0.251 -0.0845 -0.1938 -0.1150
 5523W        W 9574   4.801   1.746  12.666 -0.0792  0.1705  0.3930
 5524W        W 9575   6.092   6.181  11.413 -0.0917 -0.2205 -0.0405
 5525W        W 9576   8.381   8.487   1.505 -0.1041  0.1224 -0.3022
 5526W        W 9577   6.173   8.286  13.726  0.2460 -0.1886  0.0358
 5527W        W 9578   8.784   3.936   3.577 -0.1605 -0.3108 -0.0006
 5528W        W 9579   6.638   3.476   1.558 -0.1251  0.0665  0.1502
 5529W        W 9580   1.815   9.924  10.246 -0.2571  0.0862  0.2220
 5530W        W 9581   0.667   9.479  11.393  0.1817  0.2078  0.0749
 5531W        W 9582   0.307   0.156   1.316  0.0194 -0.3863  0.2850
 5532W        W 9583   7.134   7.872   0.036 -0.3020  0.2032 -0.3059
 5533W        W 9584   0.939   7.674   9.966  0.1313  0.1618 -0.2407
 5534W        W 9585   7.498   1.127  10.080 -0.3088  0.4559  0.1033
 5535W        W 9586   8.805   9.010   1.851 -0.0634  0.1779  0.1458
 5536W        W 9587   4.047   8.167   0.005 -0.0519 -0.0849 -0.1847
 5537W        W 9588   2.208   6.681  13.292  0.1348  0.2089  0.0130
 5538W        W 9589   1.681   2.636  11.649 -0.0445  0.1786  0.1718
 5539W        W 9590   5.214  10.080   0.889 -0.2494 -0.0422  0.3318
 5540W        W 9591   1.174   2.975   0.199  0.2424  0.0273 -0.2138
 5541W        W 9592   3.102   7.756   3.875 -0.1241 -0.2369  0.0505
 5542W        W 9593   2.499   0.569   0.459 -0.0784  0.1044  0.0958
 5543W        W 9594   4.246   0.043  13.163  0.0147 -0.2072 -0.0427
 5544W        W 9595   0.488   6.233  11.152 -0.2087  0.1736  0.0718
 5545W        W 9596   1.813   6.637  10.843  0.0460 -0.0902 -0.2972
 5546W        W 9597   8.028   8.664   3.683 -0.0461  0.1968 -0.1155
 5547W        W 9598   9.409   8.482   3.963  0.0674 -0.1762 -0.1191
 5548W        W 9599   0.284   1.839  10.098  0.0200  0.0884  0.1191
 5549W        W 9600   9.773   7.340   1.648 -0.1264  0.0079  0.1965
 5550W        W 9601   4.543   7.380   2.945 -0.0934 -0.2358 -0.0094
 5551W        W 9602   5.947   8.376   4.450 -0.1524 -0.0785 -0.0519
 5552W        W 9603   3.832   7.265   9.919 -0.0075  0.0376  0.1617
 5553W        W 9604   3.093  10.052  12.577 -0.1488 -0.2579 -0.2184
 5554W        W 9605   4.024   0.293   2.519 -0.0727 -0.0082 -0.2335
 5555W        W 9606   0.846   0.029   0.470  0.0567 -0.1012  0.0414
 5556W        W 9607   1.122  10.098  13.858  0.2550 -0.0757 -0.1913
 5557W        W 9608   7.108   4.315   0.366 -0.1478 -0.0361 -0.2448
 5558W        W 9609   7.791   0.722  10.263 -0.0231  0.0855  0.1238
 5559W        W 9610   3.053   7.270   0.602  0.0617  0.1558  0.0210
 5560W        W 9611   9.182   7.011   2.132  0.0332  0.6126  0.1658
 5561W        W 9612   1.490   4.294   4.169 -0.0989 -0.0201 -0.0982
 5562W        W 9613   9.044   1.733   3.153  0.0783 -0.0891 -0.1496
 5563W        W 9614   4.695   8.457  10.625  0.0267  0.1569 -0.5111
 5564W        W 9615   8.404   9.085   0.746 -0.0432  0.2336  0.2801
 5565W        W 9616   5.166  10.038  12.434 -0.0605  0.1027 -0.0080
 5566W        W 9617   6.261   9.112  11.500 -0.0184 -0.4133  0.1447
 5567W        W 9618   5.042   8.547   2.618  0.2311 -0.1611  0.0522
 5568W        W 9619   6.090   6.312  12.266 -0.1205 -0.2168 -0.1048
 5569W        W 9620   3.511   2.308   3.917  0.4358  0.1286  0.2558
 5570W        W 9621   8.954   0.245  13.426  0.1918  0.4542 -0.1807
 5571W        W 9622   6.535   9.858   2.856 -0.1119 -0.0685 -0.0695
 5572W        W 9623   3.387   1.125   0.441 -0.1529  0.3229 -0.3002
 5573W        W 9624  10.178   9.772   0.750  0.0268  0.1556  0.2265
 5574W        W 9625   5.962   7.119   0.280  0.2468 -0.0275  0.1340
 5575W        W 9626   7.716   6.748  11.953 -0.1328  0.1584  0.2599
 5576W        W 9627   9.325   6.293  12.447  0.0081 -0.3808  0.0601
 5577W        W 9628   6.682   4.994   2.489  0.0444  0.2736  0.2070
 5578W        W 9629   2.289   5.328  11.656 -0.1285  0.0470 -0.2196
 5579W        W 9630   8.768   4.741   4.110  0.1916 -0.2365 -0.0243
 5580W        W 9631   0.027   9.378  13.737 -0.0972  0.1749  0.0895
 5581W        W 9632   8.803   5.228   9.035 -0.2005  0.0373 -0.0514
 5582W        W 9633   6.604   1.649  11.556 -0.0954  0.1222  0.0119
 5583W        W 9634   9.202   8.563  12.002 -0.2880  0.2320  0.2524
 5584W        W 9635   2.214   1.324   3.593 -0.1934  0.2759  0.0244
 5585W        W 9636   4.690   9.358  10.660  0.2333 -0.1768  0.3415
 5586W        W 9637   2.715   8.495   2.199  0.3492  0.2517  0.2119
 5587W        W 9638   6.871   9.292  12.391  0.0598  0.1809 -0.3084
 5588W        W 9639   0.296   5.225   1.232 -0.0697  0.1298 -0.0471
 5589W        W 9640   7.142   7.617  11.617  0.0597  0.2753  0.0277
 5590W        W 9641   8.438   0.185  11.385  0.2901 -0.0836  0.0689
 5591W        W 9642   4.641   4.768  12.122 -0.3381  0.0919  0.0112
 5592W        W 9643   6.669   6.490   0.174 -0.1183  0.4017 -0.0671
 5593W        W 9644   3.226   0.737   4.848 -0.1113 -0.1253 -0.1034
 5594W        W 9645   3.806   1.254   1.372 -0.2296 -0.0738  0.0053
 5595W        W 9646   9.239   4.754  13.225  0.1093  0.0620  0.0450
 5596W        W 9647   4.160   4.683   0.416 -0.1080  0.1225  0.0382
 5597W        W 9648   4.133   2.538  13.415  0.1697 -0.3414 -0.0301
 5598W        W 9649   8.349   9.901  11.640  0.0359 -0.1222  0.0811
 5599W        W 9650   3.317   6.763   2.036  0.3255 -0.2446  0.0707
 5600W        W 9651   4.965   2.227   4.245  0.0270 -0.1774  0.2882
 5601W        W 9652   7.686   0.131  10.160  0.0683 -0.0361  0.1133
 5602W        W 9653   1.665   2.061   3.943 -0.1396  0.0678  0.0118
 5603W        W 9654   6.365   2.684  13.339  0.3612  0.3527  0.2262
 5604W        W 9655   2.090   0.653   4.021 -0.3199 -0.1122  0.2169
 5605W        W 9656   0.708   3.958   0.303  0.2859  0.0499 -0.0687
 5606W        W 9657   5.933   2.899  10.190  0.0946  0.0980  0.0917
 5607W        W 9658   3.685   4.927   0.475  0.3839 -0.0123  0.3359
 5608W        W 9659   1.775   9.387   4.534  0.2341  0.3645 -0.0730
 5609W        W 9660   6.781   8.986  11.622 -0.1577  0.1134 -0.2595
 5610W        W 9661   2.967   6.787   0.808  0.0059  0.0510 -0.1376
 5611W        W 9662   1.519   3.261   1.663  0.0165  0.0604 -0.1763
 5612W        W 9663   4.656   3.764   1.937  0.0567  0.1140 -0.0025
 5613W        W 9664   2.147   8.980  10.323  0.0289 -0.1431  0.0632
 5614W        W 9665   7.395   9.477   4.981 -0.0163  0.2168  0.0346
 5615W        W 9666   3.281   8.596   2.820 -0.1097 -0.1824  0.0316
 5616W        W 9667   3.757   9.107   4.314 -0.1844 -0.0055  0.0843
 5617W        W 9668   8.145   6.261  13.841 -0.1957 -0.0974 -0.0307
 5618W        W 9669   9.590   1.691   8.630 -0.1205  0.1791  0.0889
 5619W        W 9670   0.768   4.885  13.861  0.1187 -0.2379  0.0059
 5620W        W 9671   6.687   3.866  13.027 -0.1158 -0.0516  0.0474
 5621W        W 9672   0.217   3.044   0.989 -0.0478  0.1991 -0.0032
 5622W        W 9673   8.251   1.075  11.250 -0.0816  0.1068 -0.0476
 5623W        W 9674   8.393   1.931  10.062  0.0551  0.0135  0.2232
 5624W        W 9675   5.656   1.602   0.192  0.2134  0.0377 -0.0821
 5625W        W 9676   8.507   6.452   0.643  0.0169 -0.0775  0.1323
 5626W        W 9677   5.099   2.000   3.702 -0.0352 -0.1770 -0.1544
 5627W        W 9678   5.547   1.251  10.179  0.0444 -0.1332 -0.1581
 5628W        W 9679   3.988   8.262  11.141 -0.1699  0.2510 -0.0807
 5629W        W 9680   0.753   1.119   1.031  0.0670 -0.2922  0.1997
 5630W        W 9681   8.962   2.798   1.423 -0.0595  0.0494 -0.1470
 5631W        W 9682   1.495   5.933  12.639  0.1697 -0.0838  0.1710
 5632W        W 9683   6.142   2.601   3.508 -0.0045  0.3071 -0.0051
 5633W        W 9684   9.393   0.514   0.485  0.1025  0.0802 -0.1302
 5634W        W 9685   7.136   6.673  13.862  0.1671 -0.3983  0.1730
 5635W        W 9686   6.878   6.480  11.774  0.0348 -0.1136  0.1023
 5636W        W 9687   9.383   7.363  11.597 -0.0067  0.3435 -0.1433
 5637W        W 9688   6.851   3.376   0.158  0.0648 -0.4913  0.1836
 5638W        W 9689   9.648   5.026   2.605 -0.0253 -0.0621 -0.0012
 5639W        W 9690   7.652   8.524   1.467  0.0426  0.0744 -0.1226
 5640W        W 9691   2.634   4.433   4.699 -0.2714  0.0340  0.3411
 5641W        W 9692   6.626   6.525   9.095  0.0906  0.1196  0.1490
 5642W        W 9693   8.415   1.039   9.337  0.0548  0.2130 -0.0697
 5643W        W 9694   6.683   8.888   4.572  0.1923 -0.2365 -0.4924
 5644W        W 9695   2.977   6.314   9.671 -0.0995 -0.3236 -0.3439
 5645W        W 9696   2.642   0.819   2.881 -0.0537 -0.0903 -0.3267
 5646W        W 9697   0.306   2.266  10.896  0.1381 -0.2366  0.1095
 5647W        W 9698   1.764   0.471  13.725  0.1757  0.2276 -0.0228
 5648W        W 9699   4.743   0.038  12.271 -0.3976 -0.0789 -0.2485
 5649W        W 9700   4.589   9.102   4.837  0.0784 -0.3126 -0.0736
 5650W        W 9701   8.791   7.073  10.254 -0.2430 -0.0624  0.1377
 5651W        W 9702   9.011   7.968   1.222 -0.2471 -0.4725  0.0392
 5652W        W 9703   8.985   3.258  13.473  0.0578  0.2897 -0.1847
 5653W        W 9704  10.066   8.600   1.437  0.0898  0.2195  0.0150
 5654W        W 9705   2.380   5.380  12.554  0.0776  0.0130  0.0786
 5655W        W 9706   1.569   4.195   3.614  0.0545  0.1007 -0.1364
 5656W        W 9707   3.312   1.016   9.637  0.1404 -0.1383 -0.1341
 5657W        W 9708   7.063   5.877  13.375 -0.0702 -0.1409  0.2253
 5658W        W 9709   1.239   2.018  10.533 -0.2589  0.1262 -0.0296
 5659W        W 9710   7.937   4.329   9.876 -0.3841 -0.4285 -0.2732
 5660W        W 9711   2.210   2.862  12.583  0.2628  0.1076  0.1319
 5661W        W 9712   7.891   2.676   2.217 -0.2370 -0.2348 -0.0374
 5662W        W 9713   4.240   7.834   1.245  0.0718 -0.0623 -0.0341
 5663W        W 9714   7.467   2.324   9.331  0.0710  0.3073  0.0779
 5664W        W 9715   4.911   6.445   2.581 -0.1478 -0.1347  0.1142
 5665W        W 9716   7.872   4.261   1.121 -0.2493 -0.0534  0.0389
 5666W        W 9717   1.999   8.612   3.932  0.1207  0.2816  0.1788
 5667W        W 9718   7.361   8.748   3.387 -0.2703  0.4090 -0.0430
 5668W        W 9719   4.629   2.387  13.299 -0.0343  0.1066 -0.0918
 5669W        W 9720   1.111   0.393   0.744  0.1539  0.1801  0.3470
 5670W        W 9721   7.810   8.313  10.210 -0.0483  0.0610  0.0249
 5671W        W 9722   2.055   0.481  13.016  0.1281 -0.4042 -0.2159
 5672W        W 9723   8.958   5.150   1.999 -0.1021 -0.1774 -0.2083
 5673W        W 9724   3.229   4.882   9.393  0.1774 -0.0476  0.3021
 5674W        W 9725   2.892   4.622   2.332  0.0856  0.3630  0.2282
 5675W        W 9726   8.005   9.491  12.833  0.0603 -0.2446  0.0213
 5676W        W 9727   5.541   1.075  11.668  0.0701 -0.0732  0.1689
 5677W        W 9728   2.576   8.448   0.799  0.2694 -0.0151 -0.0185
 5678W        W 9729   1.025  10.140   9.451  0.2399  0.1415 -0.0317
 5679W        W 9730   7.181   6.959   1.902  0.1061  0.3426 -0.2559
 5680W        W 9731   7.410   0.639  12.818 -0.1039  0.3826 -0.3576
 5681W        W 9732   4.324   1.283  11.928 -0.2201  0.2427  0.0337
 5682W        W 9733   3.922   2.140  11.499 -0.1657 -0.1157  0.0371
 5683W        W 9734   7.795   1.702  11.653  0.0169 -0.0284 -0.3344
 5684W        W 9735   3.418   9.202   1.718  0.0626 -0.0511 -0.3500
 5685W        W 9736   8.056   4.526  11.626  0.1793 -0.2967 -0.2215
 5686W        W 9737   8.170   7.607  10.283  0.0876  0.1440 -0.2056
 5687W        W 9738   5.598   5.353   4.769 -0.4585 -0.1449 -0.2752
 5688W        W 9739   5.075   4.925   2.110 -0.0372  0.0556 -0.3835
 5689W        W 9740   5.017   1.149  10.996  0.2145  0.3057 -0.1740
 5690W        W 9741   3.895   6.536  11.772  0.1357  0.0220 -0.1138
 5691W        W 9742   4.506   4.915   3.414  0.0415 -0.0590  0.1139
 5692W        W 9743   7.783   2.147  12.232 -0.0541  0.0174 -0.2351
 5693W        W 9744   6.577   9.196   9.258  0.2897 -0.2883  0.0271
 5694W        W 9745   2.183   0.940   3.155 -0.0698 -0.0622  0.3105
 5695W        W 9746   1.987   5.133   9.743 -0.2851  0.0340  0.1411
 5696W        W 9747   3.060   6.634   3.057  0.1417  0.2450  0.0836
 5697W        W 9748   5.888   1.355   1.947  0.0951 -0.1582 -0.3291
 5698W        W 9749   1.994   7.973   0.856  0.1974 -0.2725  0.4614
 5699W        W 9750   3.594   4.070   1.261 -0.0058 -0.1005 -0.3815
 5700W        W 9751   6.759   3.082   2.335  0.1291  0.2937 -0.1040
 5701W        W 9752   2.685   3.404  11.994  0.3830 -0.1145  0.2323
 5702W        W 9753   4.730   0.800   4.606 -0.0815 -0.2853 -0.4745
 5703W        W 9754   6.816   0.716   2.074  0.4379 -0.0685  0.2285
 5704W        W 9755   8.201   6.169   1.813 -0.1238  0.3101 -0.2259
 5705W        W 9756   6.521   9.278  11.953 -0.1175  0.1466 -0.1215
 5706W        W 9757   7.006   7.445  13.354 -0.2042 -0.2635 -0.0620
 5707W        W 9758   1.336   8.216   3.249  0.1172  0.0715  0.2132
 5708W        W 9759   8.292   9.260  10.120  0.1714  0.1051 -0.0028
 5709W        W 9760   8.228   1.548   3.074  0.0338  0.1116 -0.0325
 5710W        W 9761   9.946  10.169  12.070 -0.3454 -0.0314  0.0975
 5711W        W 9762   8.797   4.466  12.771  0.1839 -0.1866  0.4472
 5712W        W 9763   0.842   4.378   1.579  0.0896 -0.1949 -0.2071
 5713W        W 9764   5.622   3.193  10.903 -0.0681  0.0199  0.2282
 5714W        W 9765   9.060   3.329   1.329 -0.0304 -0.3836  0.0502
 5715W        W 9766   2.901   0.532  12.679 -0.1068  0.2263 -0.1000
 5716W        W 9767   5.763   9.866  11.821  0.0648  0.0431 -0.1608
 5717W        W 9768   2.333   2.517   8.726  0.0714  0.2401  0.0374
 5718W        W 9769   9.170   2.327  11.756 -0.0375  0.1397 -0.1298
 5719W        W 9770   8.888   0.518   0.501 -0.1842  0.1364 -0.1298
 5720W        W 9771   0.153   9.088   2.157 -0.1794 -0.0215  0.0267
 5721W        W 9772   1.999   0.402  10.079 -0.1311 -0.0868 -0.1404
 5722W        W 9773   2.076   2.432   3.893  0.0567  0.4151 -0.1452
 5723W        W 9774   9.327   3.451  13.089  0.1561 -0.0604 -0.3665
 5724W        W 9775   8.932   1.834   9.783 -0.1204  0.1266  0.0717
 5725W        W 9776   9.543   4.284   3.028 -0.1185 -0.4318 -0.0906
 5726W        W 9777   7.007   5.690   1.207  0.1233  0.1228  0.2216
 5727W        W 9778   9.952   9.361   2.257 -0.2363 -0.0000  0.1472
 5728W        W 9779   1.727   4.763  10.886  0.0470  0.2131 -0.2687
 5729W        W 9780   1.910   4.695   2.872  0.3172 -0.0755  0.0278
 5730W        W 9781   0.679   9.445   3.793 -0.2305  0.1633 -0.0666
 5731W        W 9782   5.117   4.279   2.893  0.1177 -0.4474 -0.2430
 5732W        W 9783   7.902   5.535   5.022 -0.0504 -0.0261  0.1279
 5733W        W 9784   6.591   7.870   1.301 -0.0266  0.0642 -0.0522
 5734W        W 9785   1.897   0.116  12.675  0.0729  0.3624  0.0174
 5735W        W 9786   0.506   4.917  11.412 -0.1923 -0.2818 -0.1389
 5736W        W 9787   3.631   2.715   1.738  0.0742 -0.3887 -0.4219
 5737W        W 9788   4.516   3.297  10.522  0.1249 -0.2760  0.1493
 5738W        W 9789   8.281   0.112   0.629  0.0117  0.0916  0.0514
 5739W        W 9790   4.014   2.930  11.483  0.0634  0.1491  0.0356
 5740W        W 9791   1.923   1.389   0.717  0.0974  0.1449  0.0356
 5741W        W 9792   0.191   6.852  12.365  0.2228  0.0534 -0.1813
 5742W        W 9793   2.033   0.176   9.144  0.1036 -0.1191  0.1052
 5743W        W 9794   9.986   4.355   0.212 -0.0211  0.1676  0.1868
 5744W        W 9795   7.994   5.802  12.505  0.2858 -0.0091  0.4472
 5745W        W 9796   6.621   4.285   0.131  0.2254 -0.1043  0.3458
 5746W        W 9797   7.284   2.139  13.905 -0.3405  0.0407  0.1291
 5747W        W 9798   4.194   7.058   2.420  0.2132 -0.1208 -0.1482
 5748W        W 9799   7.791   6.407  12.749 -0.2497  0.1538 -0.2421
 5749W        W 9800   7.314   5.171   1.000 -0.0567 -0.0411  0.0762
 5750W        W 9801   7.483   6.891  11.185 -0.0005 -0.1674  0.1121
 5751W        W 9802   0.797   5.363   0.069 -0.0916  0.1076  0.3074
 5752W        W 9803   7.195   0.590   2.402  0.0611 -0.2437  0.1153
 5753W        W 9804   4.786   6.547  10.265 -0.1241  0.0693 -0.1514
 5754W        W 9805   9.713   0.801   1.013 -0.0640  0.2244  0.0001
 5755W        W 9806   9.474   9.351  12.285 -0.1349  0.3530 -0.1211
 5756W        W 9807   8.691   7.887  11.682 -0.2502 -0.2845 -0.2145
 5757W        W 9808   1.321   7.466   1.829  0.2027 -0.2462  0.1671
 5758W        W 9809   7.016   9.312  11.882  0.3530  0.1128 -0.1506
 5759W        W 9810   5.769   1.203   9.453  0.0735  0.1899  0.2731
 5760W        W 9811   8.117   3.896  12.298  0.0244  0.2734  0.3726
 5761W        W 9812   8.147   9.327   2.185 -0.0069 -0.0862 -0.1508
 5762W        W 9813   7.957   3.896   3.493  0.1683  0.3776 -0.0609
 5763W        W 9814   3.391   1.623   0.380  0.0119 -0.2763  0.1651
 5764W        W 9815   9.671   3.680   1.816  0.1559 -0.2243  0.0891
 5765W        W 9816   6.983   0.206  11.978 -0.2388  0.2987  0.0563
 5766W        W 9817   8.037   3.840  11.388  0.1785 -0.1179 -0.2744
 5767W        W 9818   3.058   9.179   2.078 -0.0079  0.0640 -0.0491
 5768W        W 9819   4.400   4.533   1.821 -0.0223  0.0829  0.0452
 5769W        W 9820   4.264   8.611  11.853 -0.0443 -0.0605 -0.2281
 5770W        W 9821   1.881   5.643   3.542  0.1512  0.1613  0.1621
 5771W        W 9822   3.016   0.403   4.546 -0.3813  0.1506 -0.1050
 5772W        W 9823   8.211   7.495   4.341 -0.0740 -0.0154 -0.2493
 5773W        W 9824   8.803   6.592  11.107  0.0957 -0.0827 -0.2274
 5774W        W 9825   7.869   9.471   4.785  0.2081  0.4092  0.1878
 5775W        W 9826   7.714   4.905  10.540 -0.1902 -0.2858  0.2686
 5776W        W 9827   7.523   4.142   3.916  0.0386 -0.3471 -0.0676
 5777W        W 9828   1.776   6.949  13.571 -0.0362 -0.1725  0.1559
 5778W        W 9829   5.099   3.631  13.677 -0.1521 -0.3163  0.2477
 5779W        W 9830   6.394   9.008   0.087 -0.0583  0.4370  0.0250
 5780W        W 9831   3.921   1.252  11.488  0.3217  0.2033  0.4587
 5781W        W 9832   2.115   1.247   9.336 -0.1799 -0.0175 -0.0414
 5782W        W 9833   6.097   5.362  10.868 -0.0686  0.4801  0.0855
 5783W        W 9834   5.598   1.650   2.245  0.1630 -0.4028 -0.0890
 5784W        W 9835   3.970   0.873   9.730 -0.2838 -0.0675 -0.0704
 5785W        W 9836   9.972   4.029   2.838  0.3297 -0.2517 -0.0836
 5786W        W 9837   6.255   9.208   4.550  0.1292  0.1588 -0.1160
 5787W        W 9838   7.913   7.732   2.473 -0.0397 -0.1922 -0.1087
 5788W        W 9839   7.497   1.281   4.654  0.3390 -0.3431 -0.0817
 5789W        W 9840   8.360   6.163   2.273 -0.1908  0.4079 -0.3217
 5790W        W 9841   6.717   1.320   9.392 -0.0470 -0.2085  0.1913
 5791W        W 9842   6.226   3.242  11.075 -0.1217 -0.2319  0.1011
 5792W        W 9843   1.592   9.385   9.081 -0.1323 -0.7251 -0.0848
 5793W        W 9844   1.633   0.216  12.260 -0.0672  0.0964  0.2134
 5794W        W 9845   5.940   0.423  12.873  0.2775  0.1948  0.0259
 5795W        W 9846   5.890   9.696  13.809 -0.0638  0.1324 -0.0731
 5796W        W 9847   2.652   1.753   3.773 -0.0409  0.1731  0.1029
 5797W        W 9848   0.561   9.634   9.691  0.1715  0.0885 -0.1082
 5798W        W 9849   2.570   0.831   9.351 -0.2883 -0.1260  0.1605
 5799W        W 9850   6.901   9.009   9.609 -0.0223 -0.2332 -0.1773
 5800W        W 9851   4.312   6.589   0.513  0.0264  0.1053 -0.1176
 5801W        W 9852   2.359   7.422  12.883  0.0941  0.2220 -0.1189
 5802W        W 9853   6.558   4.025   9.307 -0.4949 -0.0598 -0.1138
 5803W        W 9854   6.852   1.829  10.427  0.0654 -0.0672  0.0716
 5804W        W 9855   6.659   9.524   1.035  0.2811  0.3023 -0.2111
 5805W        W 9856   0.482   4.072   3.959  0.0232  0.0421  0.0210
 5806W        W 9857   0.718   3.707  11.004 -0.3855 -0.0779 -0.1615
 5807W        W 9858   7.934   3.243   9.854  0.0089 -0.1450  0.0101
 5808W        W 9859   8.447   3.267   0.717 -0.1441 -0.0573  0.2009
 5809W        W 9860   5.599   7.647   0.902  0.0641  0.0549  0.2985
 5810W        W 9861   7.678   4.959   1.760  0.1097 -0.0180 -0.1271
 5811W        W 9862   9.987   5.604   2.559 -0.2976  0.0511 -0.1684
 5812W        W 9863   3.421   3.005   1.355 -0.2506 -0.0685  0.1623
 5813W        W 9864   9.128   9.489   2.104  0.0807  0.1791 -0.2306
 5814W        W 9865   8.169   8.695  10.071 -0.2631  0.3160 -0.0611
 5815W        W 9866   4.750   4.700   0.964 -0.1127  0.0988  0.1338
 5816W        W 9867   7.086   5.599   3.954 -0.1432 -0.3205  0.2889
 5817W        W 9868   9.530   0.323   9.014 -0.0058 -0.2926  0.0204
 5818W        W 9869   7.355   5.643   9.945 -0.0935  0.2923 -0.0402
 5819W        W 9870   9.455   1.122   3.456  0.1539  0.0487 -0.2424
 5820W        W 9871   0.816   9.779   0.693  0.1624  0.1626  0.0862
 5821W        W 9872   1.170   5.967  13.060  0.1281  0.1952  0.1690
 5822W        W 9873   4.675   9.477   1.588  0.1441 -0.1124  0.1606
 5823W        W 9874   4.106   7.313  11.715  0.0779  0.1193 -0.2304
 5824W        W 9875   0.515   8.520  12.723  0.2007 -0.3525 -0.0339
 5825W        W 9876   4.454   9.352  11.849  0.0274  0.1442 -0.2444
 5826W        W 9877  10.152   9.916   4.019 -0.2811 -0.2900  0.0175
 5827W        W 9878   5.766   7.892   4.594 -0.1781 -0.0732 -0.1101
 5828W        W 9879   5.391   9.845   1.713  0.0301  0.1032 -0.0631
 5829W        W 9880   7.419   2.750   8.610  0.1508  0.0927  0.0066
 5830W        W 9881   0.802   0.907   2.363 -0.0740  0.0931  0.3103
 5831W        W 9882   7.550   3.114   9.406  0.1632  0.0046  0.0281
 5832W        W 9883  10.113   5.773  12.384  0.3771 -0.2663 -0.0474
 5833W        W 9884   2.078   0.027  13.300 -0.2670 -0.0790  0.1049
 5834W        W 9885   3.354   3.893   2.621  0.2148 -0.1569  0.1045
 5835W        W 9886   7.800   5.948   0.804 -0.0257 -0.2991 -0.0537
 5836W        W 9887   8.010   2.264   3.144  0.4139 -0.1346  0.2682
 5837W        W 9888   3.677   9.132  12.072  0.0606  0.4978 -0.0344
 5838W        W 9889   0.510   0.338   3.387 -0.0913  0.0842  0.0038
 5839W        W 9890   6.795   3.082   2.816 -0.1342 -0.2647  0.2157
 5840W        W 9891   4.703   2.256   4.815  0.2848 -0.1690  0.3016
 5841W        W 9892   2.072   3.073   1.817 -0.3171  0.0646 -0.1688
 5842W        W 9893   6.176   5.786   9.388 -0.0428 -0.1131 -0.1576
 5843W        W 9894   3.089   3.940  13.499 -0.0344 -0.1718  0.0884
 5844W        W 9895   1.511   9.740  12.046 -0.2049 -0.2665 -0.3472
 5845W        W 9896   9.440   9.683   1.043  0.1859 -0.4728 -0.0124
 5846W        W 9897   3.479   0.587  13.190 -0.1192  0.1811 -0.1363
 5847W        W 9898   0.883   0.520   2.645  0.2145  0.1183 -0.1551
 5848W        W 9899   1.684   0.989   4.233 -0.0601 -0.1525 -0.0427
 5849W        W 9900   8.782   3.350  10.981  0.2756  0.1737  0.2356
 5850W        W 9901   4.531   0.997  11.078 -0.2966 -0.2385  0.1624
 5851W        W 9902   5.892   1.830   5.125 -0.1587 -0.0443 -0.3017
 5852W        W 9903   8.989   2.862  12.552  0.2244  0.1727 -0.0891
 5853W        W 9904   7.129   3.598  11.865 -0.0216 -0.2354 -0.0326
 5854W        W 9905   5.116   6.144   1.289  0.1732  0.2533 -0.2282
 5855W        W 9906   1.818   1.847   2.720  0.0572 -0.1219  0.1384
 5856W        W 9907  10.135   6.676  11.957  0.0853 -0.0683  0.0305
 5857W        W 9908   4.647   8.034  12.778 -0.1770 -0.1930 -0.1771
 5858W        W 9909   1.921   1.368  10.616  0.5091 -0.1283  0.0773
 5859W        W 9910   8.443   9.635  13.347 -0.0104  0.1057 -0.0115
 5860W        W 9911   0.319   9.742  12.328  0.1137 -0.3330 -0.0227
 5861W        W 9912   6.789   2.110  13.843 -0.2259 -0.1026 -0.1311
 5862W        W 9913   4.153   5.075   9.119 -0.0206 -0.0340  0.1626
 5863W        W 9914   7.510   6.644  13.567 -0.2449  0.2568  0.4417
 5864W        W 9915   3.694   4.998  11.876  0.2285 -0.0306 -0.2174
 5865W        W 9916   3.913   2.846  12.967  0.2913 -0.0586  0.1908
 5866W        W 9917   9.148  10.032  10.911  0.1242 -0.2563 -0.0230
 5867W        W 9918  10.185   1.639  13.496  0.2362 -0.0674 -0.1757
 5868W        W 9919   8.128   5.144   1.585  0.0072  0.0387  0.1003
 5869W        W 9920   6.918   0.935   5.340  0.1554 -0.0806  0.0143
 5870W        W 9921   7.124   4.036   4.831  0.2350  0.1999  0.1549
 5871W        W 9922   9.144   6.530   1.736 -0.2306 -0.1906  0.0932
 5872W        W 9923   7.827   1.470  12.835  0.0005 -0.1800  0.0333
 5873W        W 9924   9.247   2.058   2.235  0.1187  0.1057 -0.1476
 5874W        W 9925   7.430   2.744  11.907 -0.0987 -0.4038  0.2221
 5875W        W 9926   1.497   8.789   1.040  0.1855  0.0271  0.1695
 5876W        W 9927   2.650   7.751  11.435  0.2847 -0.0519  0.2238
 5877W        W 9928   2.865   1.861   0.292  0.3728  0.3313 -0.1095
 5878W        W 9929   1.160   9.517  10.411  0.1908  0.1558  0.1466
 5879W        W 9930   6.233   1.266   0.443  0.1268  0.4623  0.1992
 5880W        W 9931   9.732   5.301  10.291 -0.1840  0.0249  0.2570
 5881W        W 9932   9.084   5.240  10.984 -0.1179 -0.1861  0.3825
 5882W        W 9933   1.228   5.415  10.291  0.1826 -0.0856  0.3175
 5883W        W 9934   7.729   7.579   4.392  0.2489 -0.3938  0.3472
 5884W        W 9935   7.050   7.805  10.069 -0.1791 -0.3076  0.1927
 5885W        W 9936   4.201   2.740   3.590  0.1063 -0.5666  0.0364
 5886W        W 9937   1.557   8.253  10.360 -0.0703 -0.0579  0.2306
 5887W        W 9938   7.079   3.147   9.448  0.2735  0.0917  0.1790
 5888W        W 9939   4.007   5.006   3.705  0.0338 -0.2674  0.1707
 5889W        W 9940   6.817   7.873  12.560  0.1920  0.0245 -0.1430
 5890W        W 9941   3.353   6.187   1.065 -0.1486 -0.5197 -0.0496
 5891W        W 9942   4.808   5.659   2.383  0.0605  0.3033 -0.0364
 5892W        W 9943   7.135   0.152   2.646  0.2103 -0.1153 -0.1618
 5893W        W 9944   7.522   6.319   1.077 -0.2065  0.1216  0.1383
 5894W        W 9945   5.436   7.464   9.879  0.1287 -0.1143 -0.2091
 5895W        W 9946   6.258   0.845  10.237 -0.3029  0.1407 -0.3479
 5896W        W 9947   0.504   4.324   3.077  0.0621  0.0206  0.0360
 5897W        W 9948   0.092   9.757   1.289  0.0325  0.0050 -0.0537
 5898W        W 9949   1.567   4.360  11.165  0.0049 -0.2410 -0.1809
 5899W        W 9950   1.013   1.959   2.327 -0.1917 -0.2040 -0.3569
 5900W        W 9951   8.857   0.809   9.450 -0.0157 -0.1764  0.0347
 5901W        W 9952   3.241   9.582  10.701  0.0337 -0.2323  0.1374
 5902W        W 9953   7.073   1.099   9.750  0.2259  0.2461 -0.3687
 5903W        W 9954   3.786   7.667  11.998 -0.0330 -0.2873 -0.0259
 5904W        W 9955   3.647   1.031  13.576  0.3027 -0.0637 -0.0142
 5905W        W 9956   3.132   9.528   1.302 -0.0663  0.3563  0.2420
 5906W        W 9957   2.979   1.949  10.792  0.3285 -0.1454  0.1826
 5907W        W 9958   4.638   7.172  12.658  0.1736 -0.1254 -0.0384
 5908W        W 9959   8.940   7.329  13.637 -0.0143  0.0339  0.2478
 5909W        W 9960   2.809   4.335  11.523 -0.0618  0.2566  0.2054
 5910W        W 9961   3.536   7.920   0.966 -0.0042  0.1108  0.0018
 5911W        W 9962   7.371   1.972  10.275 -0.1242  0.2487 -0.0114
 5912W        W 9963   5.243   1.814   2.611  0.1564 -0.3953 -0.0355
 5913W        W 9964   7.315   4.391   9.793 -0.0056  0.0049 -0.1268
 5914W        W 9965   5.664   9.422   9.188 -0.0597  0.1071  0.1699
 5915W        W 9966   8.134   2.919   1.082 -0.0217  0.1403 -0.1848
 5916W        W 9967   5.769   1.740  10.166 -0.0739  0.2513  0.0485
 5917W        W 9968   1.985   4.007  11.315 -0.1918  0.2702  0.0655
 5918W        W 9969   0.820  10.060   1.436  0.4031  0.0140  0.1548
 5919W        W 9970   6.333   6.316   9.468 -0.3663 -0.1496  0.1313
 5920W        W 9971   3.632   5.802   2.032  0.1724 -0.0525  0.0464
 5921W        W 9972   2.172   1.255   4.722 -0.2953  0.1123  0.3975
 5922W        W 9973   6.841  10.028   3.689  0.0939 -0.2505  0.1272
 5923W        W 9974   8.515   0.064   2.942  0.1907  0.1720  0.2400
 5924W        W 9975   8.755   4.117   0.883 -0.2019 -0.1960  0.0859
 5925W        W 9976   2.268   8.941  13.125  0.1937 -0.1028 -0.2573
 5926W        W 9977   2.848   7.800  12.739  0.1589  0.0036  0.2046
 5927W        W 9978   4.279   8.193   1.996  0.2135  0.1905 -0.1501
 5928W        W 9979   1.658   7.944   1.302  0.2090  0.0403 -0.0666
 5929W        W 9980   8.368   4.169  10.286  0.2725 -0.0750 -0.1382
 5930W        W 9981   7.796   5.423   9.843 -0.0839  0.2374 -0.2007
 5931W        W 9982   9.902   6.545   0.167  0.4991 -0.1838  0.1457
 5932W        W 9983   1.610   6.712   1.500  0.2046 -0.0621  0.3437
 5933W        W 9984   5.415   6.570   2.398 -0.3626  0.3853  0.2721
 5934W        W 9985   8.977   5.959  12.169  0.0247  0.0505 -0.0549
 5935W        W 9986   4.117   3.923   2.014  0.1108 -0.2970  0.1519
 5936W        W 9987   1.008   6.118  12.648  0.0169 -0.2256  0.0350
 5937W        W 9988   6.863   3.876   1.400  0.0901  0.0349  0.3608
 5938W        W 9989   1.778   1.174  13.779 -0.1116 -0.0019  0.0483
 5939W        W 9990   8.375   4.054   1.740 -0.1783  0.0184  0.2402
 5940W        W 9991   1.204   5.991  12.201  0.0771 -0.0975  0.4054
 5941W        W 9992   3.718   0.136  12.270 -0.1292 -0.2855 -0.0369
 5942W        W 9993   0.771   1.744   3.516 -0.1923  0.0706  0.4670
 5943W        W 9994   2.207   5.598   0.766  0.0066 -0.1078  0.1932
 5944W        W 9995   8.990   9.243  11.380 -0.0685  0.1928 -0.0970
 5945W        W 9996   9.461   9.014  13.904  0.0809 -0.0682 -0.1187
 5946W        W 9997   5.387   5.980   4.431  0.3247  0.0121 -0.0341
 5947W        W 9998   3.574   3.344   9.601 -0.0871  0.1098  0.2918
 5948W        W 9999   6.814   3.114   3.718  0.0308  0.0891  0.0546
 5949W        W10000   1.072   7.902   0.530  0.1082  0.0651  0.0657
 5950W        W10001   1.759   0.358   2.778  0.1024 -0.1705  0.2145
 5951W        W10002   4.934   2.999  10.084 -0.1700 -0.2175 -0.4459
 5952W        W10003   6.990   5.104   1.962 -0.1133  0.2991  0.1625
 5953W        W10004   8.267   5.446  12.763  0.2195 -0.0645 -0.0964
 5954W        W10005   1.450   6.880  13.051  0.2154  0.3691  0.3152
 5955W        W10006   2.228   5.150  10.231  0.0748 -0.0167 -0.2542
 5956W        W10007   6.914   6.214   1.176 -0.2557  0.1562 -0.2710
 5957W        W10008   6.563   4.065   2.735 -0.1375 -0.1250  0.1574
 5958W        W10009   8.476   4.985   3.625 -0.3195  0.2531 -0.0740
 5959W        W10010   4.430   9.399  10.146 -0.0593  0.1445  0.0600
 5960W        W10011   7.600   7.911  11.443  0.2000 -0.0578  0.3883
 5961W        W10012   6.514   6.446   2.442 -0.0885 -0.0708  0.1483
 5962W        W10013   5.101  10.188  11.836  0.2758 -0.1512 -0.3432
 5963W        W10014   1.405   6.368  12.850  0.3021 -0.2821 -0.1009
 5964W        W10015   4.370   4.831   1.325  0.2001  0.2861  0.0651
 5965W        W10016   7.131   4.711   0.835  0.3829  0.0320  0.4357
 5966W        W10017   8.679   6.896   2.644 -0.0607 -0.1167  0.1371
 5967W        W10018   4.447   3.393  12.714  0.0652 -0.0580  0.2901
 5968W        W10019   4.101   1.667  11.723  0.0027 -0.1349  0.0991
 5969W        W10020   2.949   1.525  12.950 -0.0919  0.2994 -0.0653
 5970W        W10021   0.840   9.514   1.116  0.1102 -0.3271 -0.3205
 5971W        W10022   9.834   4.691   2.184 -0.1955  0.1931  0.0392
 5972W        W10023   9.568   8.742   1.374  0.1012 -0.1757  0.1223
 5973W        W10024   0.830   9.018  12.215 -0.1113 -0.2165  0.5477
 5974W        W10025   9.088   5.560  11.889 -0.0271  0.0426  0.0087
 5975W        W10026   1.965   4.534  11.897  0.1435 -0.1675  0.2650
 5976W        W10027   3.105   3.258   9.834 -0.0121  0.1926 -0.1350
 5977W        W10028   7.708   8.472  10.756  0.0911  0.1047 -0.3890
 5978W        W10029   7.881   9.772  11.778 -0.3796 -0.0603  0.1641
 5979W        W10030   2.939   4.000   1.506 -0.1253  0.3526 -0.2276
 5980W        W10031   4.221   5.041   1.748 -0.1820  0.3432 -0.1901
 5981W        W10032   0.807   2.535   8.794 -0.0383 -0.0825  0.0900
 5982W        W10033   6.429   5.404  11.879  0.0183  0.0938 -0.0749
 5983W        W10034   5.461   7.171   3.280  0.0604  0.1713  0.3575
 5984W        W10035   5.848   7.952  12.564 -0.3588  0.1298 -0.0085
 5985W        W10036   6.683   3.300  13.090  0.0400 -0.4505  0.1295
 5986W        W10037   3.719   6.323  10.230  0.0653 -0.2370  0.0834
 5987W        W10038   3.828   0.603  13.673 -0.2050 -0.2312  0.1745
 5988W        W10039   4.578   6.887  11.103  0.1816 -0.0808  0.1343
 5989W        W10040   9.615   1.450  11.020  0.1212 -0.1704 -0.1613
 5990W        W10041   2.005   9.574   4.967  0.0434  0.2706 -0.0273
 5991W        W10042   3.054   9.941  12.071  0.0742  0.0018 -0.0597
 5992W        W10043   4.752   6.661   0.259  0.0136  0.2097 -0.0494
 5993W        W10044   2.416   7.170  13.799 -0.0361 -0.1229 -0.0172
 5994W        W10045   6.287   8.750   3.677 -0.3753 -0.1670 -0.2104
 5995W        W10046   8.119   2.737   1.582  0.1044 -0.1571 -0.0885
 5996W        W10047   2.671   6.548   9.958 -0.2673  0.0519  0.0772
 5997W        W10048   5.947   9.589   2.528  0.0144 -0.0716 -0.0625
 5998W        W10049   5.071   5.239   4.549 -0.1804 -0.2362 -0.3552
 5999W        W10050   4.060   3.337  11.793 -0.4092 -0.0309  0.1038
 6000W        W10051   5.962   9.507   3.871 -0.2248  0.3751 -0.0155
 6001W        W10052   9.241   4.006   2.749  0.0961  0.0216 -0.1513
 6002W        W10053   7.756   5.901   9.847 -0.0361 -0.1504  0.1738
 6003W        W10054   5.041   2.496   3.622  0.2264 -0.1727  0.2750
 6004W        W10055   0.009   8.048   4.206 -0.0847 -0.0365 -0.2641
 6005W        W10056   7.118   9.629   1.865 -0.1824  0.0977 -0.1072
 6006W        W10057   5.647   2.426  10.963 -0.3042  0.1011  0.1009
 6007W        W10058   6.175   6.502  13.449  0.0633  0.1257  0.0745
 6008W        W10059   2.723   1.280   3.793 -0.1004  0.1485  0.1670
 6009W        W10060   2.198   5.100   2.239  0.0541 -0.3070  0.1295
 6010W        W10061   7.545   9.933   9.926 -0.1694 -0.0822 -0.1226
 6011W        W10062   9.626   9.435   4.335  0.1010  0.3247 -0.2790
 6012W        W10063   5.687   1.447   4.857  0.0296 -0.3052  0.2212
 6013W        W10064   4.291   7.914   3.032  0.0693 -0.3013 -0.0158
 6014W        W10065   5.308   7.511  11.994  0.0671  0.5575  0.1499
 6015W        W10066   2.956   4.084   2.961 -0.0559 -0.3451 -0.1305
 6016W        W10067   6.952   8.808   1.623 -0.2568  0.0898  0.1045
 6017W        W10068   0.582   4.507  13.499 -0.0182  0.1067  0.0762
 6018W        W10069   6.520   6.616  13.048 -0.0825  0.0533 -0.0934
 6019W        W10070   6.142   0.004  12.481 -0.2315 -0.0758 -0.3543
 6020W        W10071   5.860   1.261   3.176 -0.3035  0.1174  0.0000
 6021W        W10072   9.228   1.398  12.267 -0.0676  0.0103  0.2090
 6022W        W10073   0.180   2.582   9.505 -0.1509  0.0746 -0.2048
 6023W        W10074   9.652   0.248   9.542  0.0081  0.1054  0.2093
 6024W        W10075   9.748   2.686  10.691 -0.2777  0.1609 -0.0142
 6025W        W10076   8.480   3.496  13.530 -0.3250  0.0368 -0.1015
 6026W        W10077  10.195   1.051  11.726 -0.1402 -0.0121  0.1507
 6027W        W10078   9.317   8.554  13.391 -0.0302  0.0340 -0.0745
 6028W        W10079   2.131   0.459   3.070  0.0810 -0.0509  0.2023
 6029W        W10080   0.266   5.420  10.337 -0.2218 -0.2553 -0.3651
 6030W        W10081   2.634   7.701  11.974  0.2756  0.0617  0.0182
 6031W        W10082   5.647   0.118  11.636 -0.1989  0.2446  0.0152
 6032W        W10083   1.447   1.220   0.417  0.1537 -0.0850 -0.0899
 6033W        W10084   5.566   4.123   2.929 -0.0154  0.1871  0.1504
 6034W        W10085   5.223   4.211   4.603  0.1386 -0.0225 -0.0610
 6035W        W10086   0.008   1.731   2.274  0.0800 -0.0372 -0.1311
 6036W        W10087   4.750   7.805  11.180 -0.0531 -0.1724 -0.0015
 6037W        W10088   6.871   4.525   3.105 -0.0810 -0.0708  0.2560
 6038W        W10089   4.850   6.601   1.270  0.1403 -0.3728 -0.0096
 6039W        W10090   8.007   7.615   0.996 -0.1581  0.2119 -0.0053
 6040W        W10091   2.278   8.871  13.630  0.1136 -0.0467 -0.0508
 6041W        W10092   3.038   8.120  13.889 -0.0271 -0.0178  0.0673
 6042W        W10093   3.133   5.948  11.445  0.0805  0.0131 -0.1255
 6043W        W10094   3.584   2.372   4.414  0.0375 -0.1189  0.0121
 6044W        W10095   0.880   5.300  13.473  0.1790  0.1998  0.0526
 6045W        W10096   1.900   8.226  11.903 -0.2250 -0.0844 -0.0176
 6046W        W10097   3.234   0.091   4.244 -0.0759 -0.1792  0.0582
 6047W        W10098   7.406   6.502   3.656  0.0688 -0.0228  0.1164
 6048W        W10099   2.677   3.566   0.773  0.2468  0.1584 -0.0407
 6049W        W10100   7.376   7.529   0.407  0.1789  0.1523 -0.1839
 6050W        W10101   4.306   8.914  10.020  0.2569 -0.2066 -0.2315
 6051W        W10102   0.006   5.774  13.481  0.1779  0.0124 -0.1243
 6052W        W10103   3.684   3.820  12.939  0.1078  0.2516  0.1087
 6053W        W10104   9.340   0.140  13.114 -0.0732  0.1197  0.2490
 6054W        W10105   8.719   3.830  11.500  0.2481  0.3910  0.1527
 6055W        W10106   5.989   6.892  12.267 -0.1120  0.1394  0.2361
 6056W        W10107   6.329   6.509   4.687  0.0646  0.0074  0.0656
 6057W        W10108   0.224   6.811   3.875  0.1272 -0.0156 -0.1348
 6058W        W10109   7.593   2.149  13.124 -0.2694 -0.0191 -0.3784
 6059W        W10110   7.319   1.196  12.920  0.0606 -0.0425 -0.0956
 6060W        W10111   6.330   3.410   4.357 -0.0202  0.2506  0.0598
 6061W        W10112   8.868   0.247  11.055  0.1339  0.3908 -0.1685
 6062W        W10113   2.388   9.914   2.113 -0.0792 -0.3053 -0.0675
 6063W        W10114   4.963   5.754   4.273  0.0350  0.2032  0.0592
 6064W        W10115   6.218   6.051   1.124  0.1595  0.0981  0.0793
 6065W        W10116   2.168   9.590   2.730 -0.1543 -0.1918 -0.1721
 6066W        W10117   7.318   4.567   2.774  0.1156 -0.0863 -0.4192
 6067W        W10118   2.274   1.739  13.115  0.3219  0.1534 -0.1897
 6068W        W10119   3.341   6.308   1.665 -0.2418  0.0960 -0.0610
 6069W        W10120   0.064   1.702   4.400 -0.0403 -0.1261 -0.2481
 6070W        W10121   5.118   7.063  11.811 -0.0040 -0.2762  0.0867
 6071W        W10122   0.644   0.468  13.089 -0.0879 -0.2378  0.1051
 6072W        W10123   3.796   9.743   9.768  0.1503 -0.3214 -0.0088
 6073W        W10124   5.157   8.233   3.873  0.2375  0.0666 -0.2536
 6074W        W10125   9.295   7.849  10.513  0.0599 -0.2545 -0.3424
 6075W        W10126   0.071   0.625   9.440  0.2944  0.1952 -0.0013
 6076W        W10127   9.042   6.389   4.344 -0.3734  0.1890 -0.1031
 6077W        W10128   8.464   2.083   3.161  0.3100  0.3716 -0.2189
 6078W        W10129   7.685   5.193   0.265 -0.3126  0.0180  0.2048
 6079W        W10130   9.673   1.312   0.614  0.1082 -0.1307  0.1766
 6080W        W10131   2.572   9.121   2.862  0.2030  0.0420  0.0258
 6081W        W10132   6.209   1.066   0.958  0.0247 -0.0012  0.0469
 6082W        W10133   9.812   1.958  11.701 -0.1493  0.0062 -0.1152
 6083W        W10134   6.969   8.811   3.028 -0.2283  0.0293 -0.1155
 6084W        W10135   2.985   7.158   0.012 -0.0775  0.3285 -0.1244
 6085W        W10136   4.867   4.623   2.507  0.1099  0.0603  0.1821
 6086W        W10137   6.751   8.753   9.130  0.0373 -0.1075 -0.2276
 6087W        W10138   1.015   8.785   0.461  0.1604 -0.0577  0.1011
 6088W        W10139   2.510   2.173   1.387  0.1018 -0.2193 -0.2428
 6089W        W10140   8.758  10.071  12.579  0.3050  0.3295  0.0091
 6090W        W10141   9.480   0.122   4.676  0.0443 -0.2284 -0.2057
 6091W        W10142   5.396   9.324  10.555  0.3794  0.1347  0.0121
 6092W        W10143   7.903   0.503   0.533  0.1770  0.0421 -0.1502
 6093W        W10144   9.323   7.331  13.273  0.1470 -0.0712 -0.0494
 6094W        W10145   5.533   4.929   0.875 -0.0691 -0.2630 -0.0410
 6095W        W10146   2.248   4.908  12.143 -0.0545 -0.3301 -0.0818
 6096W        W10147   6.611   9.491   9.748  0.2545 -0.4506 -0.2622
 6097W        W10148   5.879  10.014   1.562  0.0599  0.1433 -0.1708
 6098W        W10149   5.454   2.265   3.449  0.2532  0.0499 -0.0208
 6099W        W10150   6.758   0.675  12.680  0.0011 -0.0263  0.0762
 6100W        W10151   4.322   7.040   3.912 -0.0422 -0.3331  0.0569
 6101W        W10152   0.074   3.258  12.651  0.2376  0.0667  0.0006
 6102W        W10153   0.287   8.053  12.941  0.2495 -0.0658  0.0189
 6103W        W10154   2.651   1.980   4.202  0.2152 -0.2277  0.1511
 6104W        W10155   4.934   4.260  10.998 -0.0375 -0.3308  0.2770
 6105W        W10156   9.187   9.029  10.081  0.1375  0.2410  0.1472
 6106W        W10157   9.594   6.974   0.917  0.0133  0.0501  0.1632
 6107W        W10158   9.570   7.779  13.060  0.0000  0.1312 -0.4213
 6108W        W10159   6.658   0.287  12.352 -0.1785 -0.3832  0.3311
 6109W        W10160   6.283   5.185   0.822  0.4494 -0.1955 -0.0841
 6110W        W10161   6.940   5.567   6.167 -0.2546 -0.0455  0.0193
 6111W        W10162   3.536   4.649   3.317  0.2355 -0.2021  0.1506
 6112W        W10163   3.355   2.859   3.183  0.3559  0.0661 -0.1136
 6113W        W10164   3.234   6.712   9.533  0.1894  0.1117 -0.1951
 6114W        W10165   8.080   5.282  13.882  0.4457 -0.1711 -0.0190
 6115W        W10166   5.038   1.148  13.825  0.1646  0.1325 -0.0362
 6116W        W10167   9.281   6.679   1.267  0.0929 -0.0272 -0.1560
 6117W        W10168   6.335   0.690  11.172  0.3076  0.1804  0.0976
 6118W        W10169   7.635   6.012   0.362 -0.0937  0.2316 -0.3863
 6119W        W10170   2.988   3.617   9.269 -0.4488 -0.4745 -0.0935
 6120W        W10171   8.098   4.874   4.154  0.0657  0.0317  0.2883
 6121W        W10172   7.767   0.749  11.835 -0.0354  0.1695 -0.2436
 6122W        W10173   9.720   2.530  13.213  0.0788 -0.2956  0.0643
 6123W        W10174   9.940   6.213  10.577 -0.0341  0.0094  0.0343
 6124W        W10175   3.695   6.409   9.299 -0.0323  0.5540 -0.0102
 6125W        W10176   0.099   3.756   3.103 -0.3043  0.0822 -0.0803
 6126W        W10177   4.083   7.865  12.541  0.1168 -0.0695 -0.0772
 6127W        W10178   1.644   4.228  11.689 -0.1894  0.2021 -0.0944
 6128W        W10179   4.958   7.117   1.462  0.0778  0.0719  0.1622
 6129W        W10180   9.120   3.191  11.370 -0.0493  0.1191 -0.1132
 6130W        W10181   1.564   4.209   0.501  0.0170 -0.1428 -0.1412
 6131W        W10182   9.486   6.280   0.950  0.0308  0.0770  0.1979
 6132W        W10183   4.436   1.853  10.779 -0.3068 -0.1016 -0.1652
 6133W        W10184   3.149   3.712  12.259 -0.0646 -0.0270  0.1358
 6134W        W10185   3.112   9.425   0.717 -0.1551 -0.0654  0.1497
 6135W        W10186   1.885   5.121  10.598  0.0229 -0.0263 -0.0934
 6136W        W10187  10.099   0.538   4.801  0.0342 -0.2300 -0.0972
 6137W        W10188   1.137   2.855   4.132 -0.0416 -0.0012 -0.1858
 6138W        W10189   2.756   1.365   1.601  0.1188  0.1787  0.0293
 6139W        W10190  10.179   9.466   1.682 -0.0543  0.1892  0.1204
 6140W        W10191   9.059   0.535  12.385 -0.2254 -0.1058  0.0194
 6141W        W10192   8.456   8.466   9.763  0.1151  0.1707  0.2284
 6142W        W10193   6.469   0.033  10.463  0.4924 -0.1416 -0.5088
 6143W        W10194   8.958   6.045   3.007 -0.0052  0.2843  0.1686
 6144W        W10195   4.827   5.105   2.680  0.0343 -0.1175 -0.2565
 6145W        W10196   0.639   2.222   3.707  0.1702  0.2695  0.0028
 6146W        W10197   6.177   6.461   2.856 -0.1906 -0.0647  0.1395
 6147W        W10198   6.683   6.644   9.624  0.1477  0.0607  0.0116
 6148W        W10199   2.432   2.332  11.266  0.2072 -0.1120  0.0759
 6149W        W10200   5.253   0.471   3.552  0.2419 -0.2026 -0.0126
 6150W        W10201   1.535   7.398  10.415  0.0710  0.2223 -0.1889
 6151W        W10202   8.050   1.209   4.608 -0.2089  0.3231  0.2434
 6152W        W10203   4.771   7.924  10.283 -0.1694  0.2771 -0.0869
 6153W        W10204   5.544   3.056  12.379 -0.0651  0.4768 -0.0952
 6154W        W10205   3.092   0.648   2.246  0.2514  0.0307 -0.0933
 6155W        W10206   5.608  10.099   0.205 -0.1432 -0.2352 -0.0933
 6156W        W10207   9.814   9.453   3.452  0.1224 -0.0033 -0.0199
 6157W        W10208   6.733   7.752  13.615  0.3004 -0.0259  0.2381
 6158W        W10209   9.828   4.503  13.018  0.4177  0.1406 -0.0922
 6159W        W10210   5.299   5.820   0.557 -0.0944  0.1206  0.3048
 6160W        W10211   4.594   7.878   0.639  0.1682  0.3157  0.2201
 6161W        W10212   7.689   0.597  12.374  0.1260  0.0196  0.2989
 6162W        W10213   4.925   3.076  11.360 -0.1834  0.0666 -0.2413
 6163W        W10214   6.119   2.239   0.746 -0.2158 -0.2350 -0.0518
 6164W        W10215   2.945   4.668  13.005  0.1361 -0.1604  0.3866
 6165W        W10216   0.699   5.795   9.707  0.0531  0.0899  0.0068
 6166W        W10217   1.037   5.979  10.482 -0.0682 -0.4111  0.1037
 6167W        W10218   9.637   9.744  12.006 -0.3171 -0.0925 -0.3219
 6168W        W10219   2.651   3.879   1.888 -0.0816  0.1566 -0.0056
 6169W        W10220   0.550   1.553   0.772 -0.0188  0.1560  0.1749
 6170W        W10221   0.800   1.214   3.338 -0.2429  0.0304 -0.0442
 6171W        W10222   7.542   2.540   4.324  0.0033  0.1282  0.0102
 6172W        W10223   9.126   9.235  11.879 -0.1288  0.1098 -0.0183
 6173W        W10224   4.473   0.185   0.739  0.0879  0.0020  0.0380
 6174W        W10225   8.024   3.829  10.016  0.0008 -0.3767  0.5101
 6175W        W10226   3.088   3.346  13.773 -0.0293 -0.0791  0.0687
 6176W        W10227   1.283   5.140   0.537  0.1422  0.0315 -0.1732
 6177W        W10228   4.501   0.197   2.518 -0.5365  0.1202  0.0179
 6178W        W10229   4.770   2.273   9.564  0.4099  0.0532 -0.0972
 6179W        W10230   1.942   2.787   3.634 -0.3965 -0.1753  0.0797
 6180W        W10231   9.569   2.514   9.802 -0.1480  0.0915  0.0701
 6181W        W10232   7.869   7.401   3.866  0.0803  0.3815  0.4225
 6182W        W10233   5.059   7.078  11.323  0.1368  0.0159  0.1839
 6183W        W10234   8.134   8.055   1.349 -0.3790 -0.1149 -0.0129
 6184W        W10235   1.011   2.136  13.820  0.0612  0.2349 -0.0434
 6185W        W10236   6.327   8.360   1.981 -0.1527  0.2423  0.4804
 6186W        W10237   3.691   6.016   3.054  0.2580 -0.2063  0.2372
 6187W        W10238   4.867   9.247   3.271 -0.3060  0.1126 -0.1182
 6188W        W10239   5.513   7.845   2.478 -0.1081 -0.2637 -0.4371
 6189W        W10240   8.337   3.092  11.957  0.0656  0.1364  0.1748
 6190W        W10241   9.377   3.644   9.817  0.3521 -0.0247  0.0544
 6191W        W10242   7.622   4.439   9.400 -0.1710  0.1090 -0.3452
 6192W        W10243   5.946   0.889  13.449 -0.2681 -0.2213  0.1452
 6193W        W10244   5.503   3.745  13.267  0.2117 -0.1810  0.0509
 6194W        W10245   4.141   3.560   0.842 -0.2565  0.4854 -0.1141
 6195W        W10246   8.728   6.217   3.422 -0.4333 -0.0911 -0.0754
 6196W        W10247   9.035   4.750   9.680 -0.0557  0.2491 -0.2865
 6197W        W10248   8.189   1.581   4.029 -0.0087 -0.2453  0.2237
 6198W        W10249   6.491   9.121   1.290 -0.0198 -0.5392  0.1306
 6199W        W10250   6.980   1.362   2.707 -0.0553 -0.1311 -0.3254
 6200W        W10251   2.737   6.789  13.634  0.1803  0.0755 -0.2709
 6201W        W10252   3.992   3.843   3.776 -0.2441 -0.1232  0.2735
 6202W        W10253   0.806   5.162  10.306 -0.1121  0.0728  0.3267
 6203W        W10254   0.573   1.088  11.773 -0.3174  0.1320  0.0210
 6204W        W10255   9.159   2.682  10.102  0.2291 -0.0713  0.2530
 6205W        W10256   4.712   2.739  12.034  0.2185  0.0583 -0.0624
 6206W        W10257   1.745   0.369   0.760  0.2502  0.4194 -0.1008
 6207W        W10258   3.329   1.911   1.075 -0.1749 -0.1397  0.0957
 6208W        W10259   3.591   2.243   1.522 -0.1314 -0.4531  0.0869
 6209W        W10260   2.504   9.261  10.205 -0.0492  0.0682 -0.0317
 6210W        W10261   0.813   7.549   1.403  0.0517 -0.0676  0.0500
 6211W        W10262   4.432   9.167  11.425 -0.1783 -0.0741  0.1033
 6212W        W10263   8.597   4.793   0.407  0.0209  0.1284  0.1065
 6213W        W10264   5.900   6.183   4.422  0.0187  0.0324  0.2147
 6214W        W10265   3.915   5.579   2.924 -0.3443 -0.2926  0.3518
 6215W        W10266   2.125   0.318  12.199  0.1540 -0.1065  0.0896
 6216W        W10267   8.632   5.011  12.489 -0.3606  0.0528 -0.0095
 6217W        W10268   6.984   0.668  11.785 -0.3885 -0.2029 -0.0448
 6218W        W10269   1.109   8.011  12.411 -0.5043 -0.3292  0.0684
 6219W        W10270   2.897   2.512   9.028 -0.0722  0.2514 -0.2284
 6220W        W10271   8.776   7.492   1.855 -0.0692  0.4145  0.0980
 6221W        W10272   6.332   3.801  11.746  0.2218  0.0556 -0.3074
 6222W        W10273   9.687   4.484  10.943 -0.2249  0.1554 -0.2866
 6223W        W10274  10.062   2.471   4.366 -0.1625  0.2925 -0.0444
 6224W        W10275   2.179   3.872   2.078 -0.0096 -0.1927 -0.1214
 6225W        W10276   5.300   3.868   1.126 -0.0925 -0.1762  0.1643
 6226W        W10277   8.987   0.009   1.796 -0.2700 -0.0253  0.1741
 6227W        W10278   3.865   6.223   2.571  0.0102  0.0993  0.0366
 6228W        W10279   6.914   9.725   5.050 -0.2848 -0.0688 -0.0797
 6229W        W10280   1.122   9.631   9.502 -0.0983  0.2730  0.0081
 6230W        W10281   1.558   3.928  10.926 -0.0672  0.0375 -0.0114
 6231W        W10282   5.581   6.267  11.612 -0.0369  0.2040 -0.0772
 6232W        W10283   6.494   9.514   0.558 -0.0074  0.1383 -0.3594
 6233W        W10284   1.895   7.545  11.167  0.3157 -0.1444  0.1492
 6234W        W10285   3.583   7.540  11.573 -0.3903 -0.0864  0.0072
 6235W        W10286   5.991   0.172  13.903 -0.0401 -0.3186  0.0553
 6236W        W10287   0.641   8.423  10.042  0.1493 -0.1586 -0.1313
 6237W        W10288   5.142   4.186   3.466  0.0508  0.3127 -0.2924
 6238W        W10289   8.960   2.275   0.615 -0.2103 -0.2777 -0.0903
 6239W        W10290   5.695   6.452  10.669 -0.2618 -0.3662 -0.1039
 6240W        W10291   5.364   7.056  10.157 -0.1174 -0.1268 -0.0609
 6241W        W10292   7.827   5.281  12.955 -0.0356  0.1463 -0.0013
 6242W        W10293   1.437   9.336   4.124 -0.2895  0.2367  0.1129
 6243W        W10294   3.518   5.669   4.108  0.2699 -0.1752  0.1591
 6244W        W10295   3.523   3.204   3.961  0.0570  0.2981 -0.2827
 6245W        W10296   8.226   9.754  10.990 -0.1344 -0.0396  0.0263
 6246W        W10297   3.728   1.313  11.897 -0.3215 -0.0240 -0.3859
 6247W        W10298   7.518   7.571   2.740  0.2257 -0.6333 -0.3437
 6248W        W10299   0.837   1.959   0.857  0.1815  0.0308 -0.1548
 6249W        W10300   5.413   0.560  12.685 -0.0352  0.0742 -0.3206
 6250W        W10301   7.731   5.202   1.312  0.1865  0.0454  0.0272
 6251W        W10302   7.675   5.561  10.339 -0.0217 -0.1913  0.4171
 6252W        W10303   8.688   7.970   3.527  0.3229 -0.0299 -0.1521
 6253W        W10304   2.898   1.560   4.196  0.1237  0.1558  0.0078
 6254W        W10305   2.470   8.363   1.780  0.1871  0.3197 -0.3325
 6255W        W10306   1.559   1.664   2.331  0.0300  0.2990  0.0581
 6256W        W10307   5.118   3.596   0.308  0.0918  0.2098  0.0814
 6257W        W10308   4.127   3.840  13.635 -0.0637  0.2654 -0.1254
 6258W        W10309   6.774   6.711   1.149 -0.0338 -0.0670 -0.3207
 6259W        W10310   4.997   4.253   4.145 -0.1256  0.0389  0.0116
 6260W        W10311   3.254   5.455  12.800  0.1631 -0.1000 -0.4208
 6261W        W10312   4.706   5.992  12.031  0.2037  0.0734 -0.0626
 6262W        W10313   6.428   7.245  10.011 -0.1201 -0.2100  0.1953
 6263W        W10314   2.224   0.163   4.006  0.2075  0.2040 -0.0154
 6264W        W10315   5.339   5.744   0.030  0.0293 -0.1669  0.0480
 6265W        W10316   0.711  10.101  11.001  0.2552  0.1373 -0.0806
 6266W        W10317   7.308   9.859  12.724 -0.1782 -0.0931  0.0247
 6267W        W10318   7.374   3.178   0.252 -0.3402  0.2176 -0.1995
 6268W        W10319   2.770   0.678  13.707 -0.0628 -0.3596 -0.0472
 6269W        W10320   1.290   1.364  13.774 -0.0433 -0.1812  0.0881
 6270W        W10321   7.125   7.943  11.985 -0.1180  0.3838 -0.2445
 6271W        W10322   2.533   7.979   0.024  0.0308  0.0941  0.3202
 6272W        W10323   3.076   5.745   1.167  0.1274  0.0892  0.0430
 6273W        W10324   3.104   2.742   2.094  0.0777  0.1537  0.0708
 6274W        W10325   9.297   0.526   8.547  0.1690  0.1893  0.2707
 6275W        W10326   6.277   1.040  12.497  0.1099  0.1072  0.2320
 6276W        W10327   4.528   3.766  12.424 -0.3060  0.1104 -0.0938
 6277W        W10328   6.539  10.125  12.038  0.2301  0.2856  0.1928
 6278W        W10329   8.910   6.257   1.376  0.3765 -0.2371  0.1263
 6279W        W10330   3.886   4.210   1.643 -0.1406 -0.1208 -0.2144
 6280W        W10331   1.314   6.114   0.985 -0.0969 -0.1555  0.1093
 6281W        W10332   0.838   6.190   2.403  0.1014  0.0881  0.0269
 6282W        W10333   8.721   0.680  10.685 -0.0762 -0.2046 -0.0184
 6283W        W10334   1.980   4.521  11.408 -0.0885  0.0393  0.1391
 6284W        W10335   2.398   2.825  13.179 -0.2635 -0.3421  0.1147
 6285W        W10336   0.765   4.408   3.521  0.3043  0.0511 -0.0239
 6286W        W10337  10.178   7.346   2.399 -0.4377  0.1002  0.3435
 6287W        W10338   0.894   3.567   3.294 -0.0051  0.1269 -0.3693
 6288W        W10339   7.524   6.183  13.175 -0.2776  0.2116  0.0565
 6289W        W10340   3.641   5.229   9.136 -0.1438 -0.2269  0.0509
 6290W        W10341   8.439   1.173  10.280  0.1075  0.1015  0.1414
 6291W        W10342   6.338  10.110   3.842 -0.1502  0.3306 -0.1482
 6292W        W10343   4.087   9.143   4.715 -0.1247  0.0241 -0.1503
 6293W        W10344   5.210   2.409   9.800  0.0700  0.0430  0.2834
 6294W        W10345   9.573   6.583  12.769 -0.2108  0.0303 -0.1296
 6295W        W10346   9.647   8.910  10.325  0.4658 -0.1888  0.1577
 6296W        W10347   4.589   8.732  12.245  0.2254 -0.0104 -0.2282
 6297W        W10348   5.296   9.138   4.338 -0.0382 -0.0779 -0.0442
 6298W        W10349   4.901   3.569  12.742 -0.1176  0.1680  0.2770
 6299W        W10350   1.043   1.396   4.368  0.2851  0.1254 -0.0039
 6300W        W10351   9.593   5.493  11.651  0.2423 -0.0945 -0.0134
 6301W        W10352   7.674   7.774   0.094 -0.0908 -0.2274 -0.0810
 6302W        W10353   4.071   6.772   0.091 -0.0253  0.2021 -0.1684
 6303W        W10354   3.742   2.329   2.036 -0.1436  0.0191 -0.0267
 6304W        W10355   6.998   2.917  13.267  0.0012  0.0063 -0.3567
 6305W        W10356   4.598   3.736  13.854 -0.1063  0.2589 -0.0213
 6306W        W10357   4.875   2.647  11.567  0.0332 -0.1197  0.5439
 6307W        W10358   5.718   3.240   5.168  0.1416  0.0527 -0.1734
 6308W        W10359   1.893   2.669   0.016  0.2455  0.0041  0.2611
 6309W        W10360   3.771   1.881   4.455  0.1164 -0.1372 -0.0191
 6310W        W10361   1.965   8.139  12.725 -0.1792 -0.1958 -0.2750
 6311W        W10362   3.668   7.955  12.849 -0.3524 -0.3902 -0.0662
 6312W        W10363   6.204   7.990   2.342  0.1312  0.1204 -0.0644
 6313W        W10364   8.164   2.803   9.858  0.1676 -0.7131 -0.0606
 6314W        W10365   7.791   6.341  12.207  0.0507  0.0227  0.1647
 6315W        W10366  10.028   8.681  10.654  0.3731 -0.0253 -0.4546
 6316W        W10367   0.524  10.070   2.138  0.1366  0.1695 -0.4564
 6317W        W10368   4.069   1.978  13.186  0.2415  0.1289 -0.0915
 6318W        W10369   8.264  10.073  10.487  0.0508 -0.2208  0.1016
 6319W        W10370   0.514   1.521  12.073 -0.0349  0.1702 -0.1324
 6320W        W10371   2.664   5.649   1.454 -0.2259 -0.0177 -0.0633
 6321W        W10372   9.491   9.517  13.253  0.1476 -0.4299  0.0435
 6322W        W10373   2.946   6.646   1.745 -0.0725  0.1697 -0.1033
 6323W        W10374   3.577   0.958   3.868 -0.1017  0.0599 -0.3671
 6324W        W10375   0.467   3.911  10.579  0.2610 -0.0372  0.3018
 6325W        W10376   0.631   9.514   5.007 -0.0638  0.1671 -0.0110
 6326W        W10377   3.453   3.820   3.538  0.1835  0.1636 -0.2571
 6327W        W10378   5.616   4.206   1.673 -0.2277 -0.0187  0.2957
 6328W        W10379   9.238   0.897   0.740 -0.1745  0.1690  0.0604
 6329W        W10380   6.583   8.292   3.455 -0.2843 -0.2349  0.1108
 6330W        W10381   9.687   0.519   0.107  0.3572 -0.0907  0.2613
 6331W        W10382   5.095   6.127   4.029 -0.0262  0.0649  0.0347
 6332W        W10383   9.898   2.980   0.783  0.1725  0.2766  0.1177
 6333W        W10384   5.774   9.459   4.473 -0.3341 -0.1971 -0.2907
 6334W        W10385   6.287   7.970  10.609  0.1745  0.0936  0.2525
 6335W        W10386   6.908   2.608  11.201  0.0987 -0.0396 -0.0836
 6336W        W10387   6.724   0.092   2.974 -0.2489 -0.0818 -0.0817
 6337W        W10388   4.499   2.743   1.768  0.1388 -0.0283  0.0803
 6338W        W10389   9.755   0.735   2.365 -0.0529  0.1225  0.1702
 6339W        W10390   6.057  10.198   9.948  0.3833  0.0180 -0.0621
 6340W        W10391   4.997   3.222   9.640 -0.0625  0.3282  0.2804
 6341W        W10392   4.946   1.775  10.567 -0.0581  0.0320 -0.0652
 6342W        W10393   1.693   3.682   1.962 -0.2550  0.0526  0.0438
 6343W        W10394   8.589   0.026   1.060  0.1251  0.1513 -0.0941
 6344W        W10395   6.440   2.562  10.451 -0.2501  0.0585 -0.2209
 6345W        W10396   3.429   0.643  12.645  0.2402 -0.1250  0.1239
 6346W        W10397   2.927   0.360   0.164 -0.1677 -0.2295 -0.0713
 6347W        W10398   7.367   2.242   3.975  0.0055  0.0254  0.1194
 6348W        W10399   8.127   2.028  13.692  0.2349  0.1096  0.2749
 6349W        W10400   4.920   1.666   4.053 -0.4665  0.0237  0.0388
 6350W        W10401   3.205   4.563  13.456  0.0224 -0.1365 -0.0717
 6351W        W10402   8.207   5.752  10.109  0.0661 -0.0200  0.0565
 6352W        W10403   4.067   8.585   1.036  0.1706  0.0317 -0.2007
 6353W        W10404   3.800   6.677  10.624 -0.1887 -0.2087  0.2033
 6354W        W10405   7.865   5.325  10.743  0.0885 -0.1416 -0.0509
 6355W        W10406   0.803   2.274   4.832 -0.0423  0.0097  0.1040
 6356W        W10407   8.341   5.723  13.801 -0.0913  0.1829  0.0462
 6357W        W10408   2.112   0.586   1.752 -0.0099  0.2828 -0.3393
 6358W        W10409   8.436  10.012   0.140  0.2099 -0.0361 -0.0521
 6359W        W10410   0.554   7.056   2.921  0.0103  0.1273  0.0491
 6360W        W10411   1.331   3.068   0.674  0.0664 -0.0422  0.1115
 6361W        W10412   6.805   2.574  11.723  0.1569 -0.1918 -0.0212
 6362W        W10413   4.180   9.619  10.605  0.1907  0.0981 -0.2263
 6363W        W10414   4.868   5.889   0.805  0.1449 -0.2837 -0.1105
 6364W        W10415   4.943   1.672   0.010 -0.0997 -0.0374 -0.0044
 6365W        W10416   1.369   5.947   2.250  0.1609  0.1174  0.3563
 6366W        W10417   2.721   7.206   2.614 -0.0214  0.0439 -0.1437
 6367W        W10418   3.935   3.982  10.334 -0.0188  0.4258 -0.2183
 6368W        W10419   7.906   3.619   9.520  0.0503 -0.0432  0.5242
 6369W        W10420   3.082   2.425   3.039 -0.2045 -0.0121 -0.1437
 6370W        W10421   3.569   0.045   9.624 -0.2831 -0.0769 -0.0625
 6371W        W10422   2.735   4.913   2.762 -0.0872 -0.2583  0.2059
 6372W        W10423   8.389   3.300  10.630  0.1727  0.1628  0.0019
 6373W        W10424   4.092   9.154   0.260  0.0558  0.0023 -0.0388
 6374W        W10425   7.995   3.088   4.619 -0.1325 -0.1266  0.1013
 6375W        W10426   5.935   2.819  11.229  0.2855 -0.0702 -0.0597
 6376W        W10427   5.376   2.568   0.830  0.0801  0.1455  0.1234
 6377W        W10428   1.441   1.406  11.800 -0.1411  0.0104 -0.3022
 6378W        W10429   5.922   2.243   9.438  0.1293 -0.0198 -0.0830
 6379W        W10430   4.541   3.774  13.016 -0.1759 -0.0902 -0.1242
 6380W        W10431   4.825   9.249   4.153  0.0382  0.0043 -0.0778
 6381W        W10432   4.911   9.615   8.806  0.1784  0.3736  0.1843
 6382W        W10433   5.463   3.293  11.915  0.1747  0.1657  0.1077
 6383W        W10434   8.047   3.587   0.390 -0.3674 -0.1009 -0.0894
 6384W        W10435   6.686   7.006   0.753  0.0302 -0.3212 -0.0123
 6385W        W10436   4.923   1.302  12.925  0.1046 -0.0487  0.1283
 6386W        W10437   7.615   8.031   1.244 -0.0899 -0.2018 -0.2139
 6387W        W10438   4.835   0.375  10.135 -0.1372  0.2552 -0.1180
 6388W        W10439   5.079   8.652   2.097 -0.1309  0.2190 -0.0991
 6389W        W10440   9.822  10.173   0.256  0.2114 -0.3595  0.2160
 6390W        W10441   9.404   9.989  10.168  0.0523 -0.0602 -0.0018
 6391W        W10442   4.812   8.851   9.940  0.3082 -0.1789 -0.1934
 6392W        W10443   2.053   0.040  13.834 -0.1723 -0.0968  0.1240
 6393W        W10444   0.514   1.807   2.307 -0.3940  0.0746 -0.3150
 6394W        W10445   4.073   9.439  12.416 -0.0398  0.1737  0.2755
 6395W        W10446   6.277   0.181   2.684  0.1904 -0.1156  0.0226
 6396W        W10447   7.921   9.175   3.667 -0.2044 -0.1198  0.0534
 6397W        W10448   3.367   9.356  10.295 -0.1509 -0.0873  0.2880
 6398W        W10449   1.138   0.865   0.543  0.0427  0.0377 -0.0103
 6399W        W10450   1.342   3.478  10.779  0.2879  0.3831 -0.1606
 6400W        W10451   4.125   1.701   0.916  0.1329  0.2231  0.1369
 6401W        W10452   2.246   4.894  12.675 -0.1953  0.0003  0.0980
 6402W        W10453   8.757   3.772  10.620  0.2415  0.0611  0.0134
 6403W        W10454   7.196   2.143   9.719 -0.0615  0.1689 -0.1080
 6404W        W10455   6.884   7.049   1.520 -0.0649  0.2036 -0.2893
 6405W        W10456   9.253   5.358  12.313 -0.0017 -0.1091 -0.0579
 6406W        W10457   0.830   8.038   0.100 -0.1897 -0.3916 -0.3959
 6407W        W10458   6.584   8.617   0.708 -0.1252 -0.1347 -0.1313
 6408W        W10459   6.964   4.423  10.152  0.0046  0.0493  0.0084
 6409W        W10460   9.647   5.015  12.509 -0.0116  0.3361 -0.0263
 6410W        W10461   8.648   5.786   1.171  0.1364  0.0115 -0.1941
 6411W        W10462   0.043   3.749  12.844  0.2094  0.1849 -0.5694
 6412W        W10463   8.033   3.326  13.405  0.0751  0.1314  0.2829
 6413W        W10464   9.717   2.798  13.676 -0.0025 -0.0691 -0.0846
 6414W        W10465   7.454   9.799   9.437  0.0992 -0.1186  0.0778
 6415W        W10466   4.090   0.255   4.438  0.2441 -0.0539  0.0291
 6416W        W10467   5.135   6.469   3.580  0.1136  0.0060  0.2400
 6417W        W10468   3.163   3.196   2.872  0.0812 -0.0872  0.0209
 6418W        W10469   5.247   6.200   1.816 -0.0018  0.1208  0.1897
 6419W        W10470   0.761   8.607   4.728  0.1895 -0.1690  0.0695
 6420W        W10471   9.338   9.716   3.039 -0.1366 -0.0221  0.0445
 6421W        W10472   7.759   8.537  12.598  0.2957  0.3425  0.1382
 6422W        W10473   3.470   2.988  13.878 -0.1719 -0.1415 -0.4035
 6423W        W10474   6.610   8.124   0.004 -0.2228 -0.1290 -0.0678
 6424W        W10475   7.966   1.640  12.127 -0.1222  0.3206 -0.1834
 6425W        W10476   4.742   8.779  11.035  0.1546 -0.0381  0.3487
 6426W        W10477   0.758   9.185  10.598 -0.2439  0.2200  0.0703
 6427W        W10478   8.149   8.089  12.265  0.0722  0.0192  0.0130
 6428W        W10479   1.613   4.296   2.762 -0.0686 -0.1537  0.2986
 6429W        W10480   9.659   4.804   3.152 -0.0202  0.0046  0.1588
 6430W        W10481   0.229  10.071  12.672 -0.1080  0.0665 -0.4018
 6431W        W10482   6.013   7.717   2.757  0.1139  0.0629 -0.1199
 6432W        W10483   4.709   4.221  10.492 -0.1249 -0.0972  0.1266
 6433W        W10484   4.149   2.497   5.842  0.0458 -0.0193 -0.0578
 6434W        W10485   4.140   3.937  11.618  0.2144  0.0665  0.0180
 6435W        W10486   5.916   3.521   2.875 -0.0199 -0.1670  0.2837
 6436W        W10487  10.053   2.392  11.150 -0.0377 -0.2089  0.0067
 6437W        W10488   5.526   2.254   8.807  0.3065 -0.1401 -0.0693
 6438W        W10489   0.512   7.314  12.436  0.0034  0.1778  0.1473
 6439W        W10490   0.857   0.406   1.149 -0.3030 -0.3640 -0.0530
 6440W        W10491   6.781   9.701  11.043  0.0330 -0.0505 -0.3645
 6441W        W10492   8.745   4.100  11.995  0.0019 -0.4218 -0.0707
 6442W        W10493   7.707   1.838   3.223 -0.1706 -0.1694  0.1845
 6443W        W10494   9.588   7.642   9.687 -0.0815 -0.1657 -0.1949
 6444W        W10495   8.386   4.155  10.792 -0.0598  0.1791  0.2053
 6445W        W10496   1.799   9.465  12.353  0.7032  0.1377  0.0012
 6446W        W10497   3.598   7.339  13.466 -0.3941  0.1397 -0.0919
 6447W        W10498   7.283   8.937  12.401  0.1483 -0.1092 -0.0665
 6448W        W10499   2.221   4.305   2.913  0.0011  0.2638  0.0408
 6449W        W10500   8.727   5.103  11.486  0.0490 -0.0077  0.0732
 6450W        W10501   6.276   2.976   2.190 -0.1678  0.2277  0.1894
 6451W        W10502   5.610   9.568  10.936 -0.1298 -0.3226  0.0977
 6452W        W10503   5.876   1.635   0.666 -0.2127 -0.1315 -0.0867
 6453W        W10504  10.039   5.290  10.685 -0.0337  0.2517  0.0420
 6454W        W10505   8.771   7.292  12.278 -0.5302  0.0282 -0.2871
 6455W        W10506   3.376   1.613   9.868 -0.2916 -0.0829 -0.0655
 6456W        W10507   9.665   3.957   0.362  0.1881  0.0604  0.1243
 6457W        W10508   5.496   8.356  12.393  0.4138 -0.1518 -0.4459
 6458W        W10509   0.612  10.196   9.735  0.0130  0.1393 -0.0289
 6459W        W10510   1.441   3.828   4.036 -0.2872 -0.0097 -0.1685
 6460W        W10511   3.327   2.873  10.308 -0.1738  0.2489 -0.3298
 6461W        W10512   4.673   8.926  13.136  0.0400  0.0520  0.1060
 6462W        W10513   2.761   9.779   1.012 -0.1449  0.1146  0.0477
 6463W        W10514   1.974   2.680   4.333 -0.2659  0.2199  0.0430
 6464W        W10515   2.793   3.776  10.618  0.1466 -0.0075 -0.0489
 6465W        W10516   4.985   8.040  11.527  0.0789 -0.0928 -0.2726
 6466W        W10517   0.905   0.853   9.371 -0.2694 -0.0673  0.1658
 6467W        W10518   4.061   5.186  10.536  0.0568 -0.1985  0.0182
 6468W        W10519   4.056   9.564   2.223 -0.1590 -0.2272  0.2010
 6469W        W10520   4.875   0.119   3.032 -0.1351  0.1188  0.0737
 6470W        W10521   6.031   7.307   5.345  0.0470 -0.1206 -0.1779
 6471W        W10522   8.706   2.458  13.167 -0.1822  0.0312  0.2009
 6472W        W10523   4.800   8.173   3.469 -0.1345 -0.0648 -0.0714
 6473W        W10524   7.468   1.287  13.399  0.1938  0.0443  0.0597
 6474W        W10525   5.994   8.571   1.333  0.2227  0.6414  0.0517
 6475W        W10526   4.185   1.133  13.621 -0.1229 -0.0773  0.1215
 6476W        W10527   1.736   3.717  10.503 -0.0339  0.1479  0.2208
 6477W        W10528   9.345   4.971  10.247  0.1641 -0.0048  0.0798
 6478W        W10529   3.573   1.869   1.933  0.0473 -0.3685  0.2586
 6479W        W10530   7.407  10.168   3.099  0.2431  0.2536 -0.1070
 6480W        W10531   8.113   4.977  13.430  0.1996  0.1094 -0.1187
 6481W        W10532   2.724   5.582   0.827  0.2976 -0.1875 -0.1128
 6482W        W10533   8.513   9.402   3.473 -0.4474  0.1484 -0.1365
 6483W        W10534   0.833   8.913   2.291 -0.0336  0.1379 -0.0440
 6484W        W10535   4.351   0.443  11.735  0.0481  0.0709 -0.4245
 6485W        W10536   1.587   9.020   2.758 -0.4485 -0.1514 -0.0306
 6486W        W10537   0.084   0.202   4.460 -0.0672 -0.1615 -0.0528
 6487W        W10538   4.962   8.301   0.765  0.1006 -0.1024  0.1060
 6488W        W10539   4.033   3.700   4.244 -0.0287  0.1514  0.2175
 6489W        W10540   2.731   5.036   9.435  0.1393  0.0036  0.2803
 6490W        W10541   7.560   7.310   1.178 -0.1764 -0.1727 -0.0026
 6491W        W10542   9.521   1.612   3.125 -0.3204 -0.2672  0.0738
 6492W        W10543   9.414   5.922   3.993  0.2145 -0.0985  0.1170
 6493W        W10544   8.954   0.956   0.263 -0.1220  0.2128  0.0308
 6494W        W10545   0.505   0.354   2.350 -0.0467 -0.3378 -0.2103
 6495W        W10546   8.414   5.191   3.205  0.1975  0.0240  0.0004
 6496W        W10547   6.057   8.279   3.622  0.0928  0.1240  0.0227
 6497W        W10548   4.087   0.431   9.423 -0.0876 -0.2092 -0.0073
 6498W        W10549   2.658   8.449  13.853  0.2136 -0.2288  0.0169
 6499W        W10550   1.221   3.673   2.252 -0.0680 -0.2234 -0.0243
 6500W        W10551   2.021   4.357  10.895  0.0535 -0.1029  0.0048
 6501W        W10552   0.318   6.098  13.275 -0.0675  0.3790  0.0098
 6502W        W10553   3.778   6.717   0.487 -0.3390 -0.0079  0.0855
 6503W        W10554   5.850   2.729   2.213  0.2737  0.0247  0.0304
 6504W        W10555   9.561   3.130   3.212 -0.2565 -0.0376 -0.0022
 6505W        W10556   1.912   1.695  11.698  0.2459  0.1361 -0.1522
 6506W        W10557   8.207   9.224  10.918 -0.1116  0.1781 -0.1536
 6507W        W10558   1.595   8.458   0.134  0.1972  0.0823  0.0730
 6508W        W10559   9.674   2.797   2.808  0.5399  0.1135 -0.1556
 6509W        W10560   1.647   2.485  13.381 -0.2143  0.0471 -0.2847
 6510W        W10561   1.207   9.612  12.447 -0.0109 -0.1339 -0.0881
 6511W        W10562   1.196   8.258  10.759 -0.0064  0.1681  0.0746
 6512W        W10563   5.348   7.823  12.436 -0.0125  0.0080  0.1458
 6513W        W10564   0.354   3.700   2.317  0.0081  0.0972  0.0612
 6514W        W10565   8.530   6.106  10.424 -0.3482  0.0518  0.2484
 6515W        W10566   3.878   5.567   4.402 -0.1169  0.0678 -0.0447
 6516W        W10567   4.589   9.829  13.071 -0.0610  0.1958 -0.1547
 6517W        W10568   7.441   3.973  12.675  0.0717  0.1493 -0.1946
 6518W        W10569   6.045   5.155   4.502  0.0510  0.2339 -0.1499
 6519W        W10570   5.615   9.739  12.798  0.2670  0.1824  0.2230
 6520W        W10571   1.733   5.366   0.539  0.0653  0.0190  0.1597
 6521W        W10572   7.441   8.243   0.195 -0.0586 -0.2436  0.1333
 6522W        W10573   8.781   2.871   9.036  0.2509  0.1040 -0.0563
 6523W        W10574   0.142   1.380   2.576  0.0743  0.0783 -0.1756
 6524W        W10575   5.434   3.644   0.669 -0.0459 -0.0791  0.0540
 6525W        W10576   1.746   9.454   3.726 -0.3541  0.1945 -0.0900
 6526W        W10577   6.226   9.071   4.037  0.0877  0.0829  0.1608
 6527W        W10578   2.597   4.433   9.971 -0.0559 -0.4090 -0.1561
 6528W        W10579   8.001   0.905   2.256  0.1071 -0.1896  0.2195
 6529W        W10580   3.396   2.892   9.708 -0.0470  0.1358 -0.0102
 6530W        W10581   9.501   3.795   0.812 -0.1745  0.2300 -0.1954
 6531W        W10582   9.121   8.125  13.651  0.1091 -0.0995  0.3093
 6532W        W10583   6.758   8.255   2.210  0.0118 -0.1985  0.0510
 6533W        W10584   6.095   3.065   1.017 -0.0415 -0.0755  0.3797
 6534W        W10585   1.267   2.038   2.738 -0.2129 -0.2053  0.3804
 6535W        W10586   9.826   0.752   3.655  0.3303  0.1373  0.1984
 6536W        W10587   7.518   6.824  10.087  0.1742 -0.2012  0.0014
 6537W        W10588   9.371   1.572  13.112 -0.0682 -0.2127 -0.1585
 6538W        W10589   6.354   1.769   0.551 -0.0366 -0.2285 -0.0742
 6539W        W10590   5.799   4.063   1.165  0.0195  0.1559 -0.0670
 6540W        W10591   2.779   0.159   2.323  0.0232 -0.0155 -0.2246
 6541W        W10592   2.015   0.280   1.269 -0.1040  0.2139 -0.1023
 6542W        W10593   5.779   7.942  10.510 -0.1357 -0.4422  0.4257
 6543W        W10594   7.145   8.357   1.404  0.2220 -0.5222  0.0394
 6544W        W10595   0.491   7.240   0.048  0.1006 -0.1591 -0.3235
 6545W        W10596   1.304   8.270   2.356 -0.0090  0.3007 -0.2014
 6546W        W10597   4.489   3.239   1.861 -0.1231  0.0314  0.1694
 6547W        W10598   3.733  10.166   1.548 -0.0259 -0.2698  0.0656
 6548W        W10599   3.468   2.065   4.784 -0.0750  0.0929  0.0333
 6549W        W10600   5.469  10.162   1.295 -0.3707 -0.1032  0.1462
 6550W        W10601   9.818   7.351  12.949 -0.0245 -0.0341  0.0988
 6551W        W10602   7.327   9.845   3.512 -0.2797  0.3629  0.0006
 6552W        W10603   6.910   8.224  10.985 -0.1336  0.1764 -0.0510
 6553W        W10604   4.489   0.797   9.560 -0.1600 -0.3217 -0.0139
 6554W        W10605   3.223   8.148  12.618  0.2001  0.1688 -0.1152
 6555W        W10606   7.612   8.447   3.713  0.1280 -0.0676  0.0641
 6556W        W10607   1.637   5.060  10.112 -0.6063 -0.0550  0.0730
 6557W        W10608   8.572   1.990  13.401  0.0192 -0.0149  0.0767
 6558W        W10609   4.778   0.651   1.281  0.0796  0.0032  0.0839
 6559W        W10610   0.268   1.525  13.133  0.3123  0.0099  0.0210
 6560W        W10611   3.943   9.193   2.964  0.0655 -0.3784 -0.0547
 6561W        W10612   8.575   0.349  12.450  0.1664  0.0395  0.4438
 6562W        W10613   8.116   8.193   2.428  0.0921 -0.2533  0.1916
 6563W        W10614   4.221   1.435  10.451  0.0635 -0.3118 -0.2869
 6564W        W10615   5.462   7.473  12.787 -0.1265  0.1636 -0.2923
 6565W        W10616   6.538   7.647   0.160 -0.0359  0.0154 -0.0804
 6566W        W10617   7.691   6.826   2.088 -0.1240  0.4651 -0.0618
 6567W        W10618   8.185   7.532  13.126  0.3609  0.2383 -0.1531
 6568W        W10619   4.853   3.251   4.914  0.2387 -0.0808  0.1203
 6569W        W10620   6.286   1.948   9.333 -0.0692  0.3398  0.2705
 6570W        W10621   2.314   6.020   1.575  0.0174  0.1037  0.0453
 6571W        W10622   0.477   7.561   3.126  0.1739 -0.0597 -0.2464
 6572W        W10623   7.869   9.713   1.646  0.3896  0.1811  0.1477
 6573W        W10624   0.631   0.257   1.737  0.0768  0.1847  0.0905
 6574W        W10625   8.865   7.946   2.927 -0.2377 -0.2319 -0.0992
 6575W        W10626  10.020   9.786  10.723  0.3207 -0.1742 -0.1681
 6576W        W10627   7.333   0.792  13.718 -0.1307  0.0853  0.3388
 6577W        W10628   8.045   2.479  12.493  0.2058  0.0005 -0.0779
 6578W        W10629   7.305   6.898   1.193  0.0889 -0.0628 -0.0196
 6579W        W10630   8.774   1.482  12.820  0.1904  0.1483 -0.1551
 6580W        W10631   9.249   9.062   9.575  0.0098  0.2196  0.0871
 6581W        W10632   3.237   3.842   4.307 -0.0929  0.1793  0.0863
 6582W        W10633   7.405   0.020  11.132  0.1178 -0.4287 -0.3103
 6583W        W10634   7.455   4.465  13.055 -0.3096 -0.2384  0.0530
 6584W        W10635   4.371   8.396  13.638 -0.4505 -0.0294 -0.1486
 6585W        W10636   2.505   3.212  12.820  0.2020 -0.0124 -0.0778
 6586W        W10637   0.743   4.252  12.827 -0.1263 -0.1095 -0.0627
 6587W        W10638   9.999   5.776  10.278  0.1570 -0.3489 -0.0889
 6588W        W10639   7.151   3.697   4.454 -0.1197 -0.2359 -0.1876
 6589W        W10640   5.828   2.617   9.772 -0.2166  0.2582  0.3946
 6590W        W10641  10.169   4.289  11.016  0.1060  0.1406  0.0591
 6591W        W10642   2.273   1.791  11.364  0.1054  0.1975  0.0133
 6592W        W10643   5.424   0.116  13.162 -0.0715 -0.2393  0.1009
 6593W        W10644   1.774   5.282   3.028 -0.0343  0.1134 -0.0963
 6594W        W10645   8.463   4.653  10.883 -0.1546  0.1330 -0.0354
 6595W        W10646   5.674   8.945   1.969 -0.0222  0.0181  0.1707
 6596W        W10647   4.696   6.144   3.451 -0.1020  0.1003 -0.3836
 6597W        W10648  10.019   2.901  11.085 -0.4537 -0.1100 -0.1063
 6598W        W10649   7.691   3.569   5.349  0.1503 -0.1419  0.3134
 6599W        W10650   1.221   8.191   3.749  0.1020  0.2923  0.0937
 6600W        W10651   1.276   7.564   0.163 -0.0544 -0.1843 -0.1794
 6601W        W10652   9.258   5.245  12.830 -0.4274  0.2971 -0.1781
 6602W        W10653   8.836   4.870  12.994 -0.2660  0.0564 -0.0796
 6603W        W10654   1.789   2.433  11.080  0.1981 -0.1190 -0.4083
 6604W        W10655   7.516   1.348   0.619 -0.1387 -0.1326 -0.3478
 6605W        W10656   4.100   4.121  12.250  0.1236 -0.0090 -0.0341
 6606W        W10657   3.905   6.432   9.743 -0.2641 -0.2808 -0.0727
 6607W        W10658   0.051   2.941   4.180  0.2133 -0.2070 -0.3023
 6608W        W10659   6.612   6.069   3.681 -0.1371 -0.2067 -0.0134
 6609W        W10660   1.462   1.321   4.682 -0.2281 -0.3001 -0.0441
 6610W        W10661   8.847   0.091   4.592 -0.4507 -0.1565 -0.0242
 6611W        W10662   9.833   2.845  10.182  0.2281 -0.0590 -0.2939
 6612W        W10663   0.338   9.912   1.657  0.0947  0.0837  0.0713
 6613W        W10664   1.758   0.966   2.464 -0.1631  0.0901  0.3372
 6614W        W10665   3.083   0.764  12.133 -0.4110  0.2985 -0.3838
 6615W        W10666   5.870  10.151   0.993  0.1431 -0.2092 -0.2016
 6616W        W10667   3.492   5.403  13.496  0.2273  0.1309 -0.0313
 6617W        W10668   2.559   0.380   2.702  0.0009  0.1762  0.1511
 6618W        W10669   4.663   8.501   1.820  0.2723 -0.1338  0.0422
 6619W        W10670   9.470   5.486   2.666 -0.1016 -0.0887  0.1653
 6620W        W10671   0.017   9.902   3.063 -0.0184 -0.2725 -0.2303
 6621W        W10672   5.512   8.371  10.514  0.0384 -0.1597 -0.3058
 6622W        W10673   1.674   2.334  10.075 -0.0937  0.0738  0.0172
 6623W        W10674   3.051   0.747  10.325  0.3606 -0.0494 -0.0202
 6624W        W10675   0.274   4.085   1.965  0.0250 -0.0622  0.2019
 6625W        W10676   7.108   5.897  10.819  0.0026  0.2078  0.0396
 6626W        W10677   2.098   6.039  13.261  0.2641 -0.0757 -0.1068
 6627W        W10678   2.506   8.156   9.930 -0.1017  0.0425 -0.1009
 6628W        W10679   1.549   0.790   1.985  0.0215 -0.2616  0.0279
 6629W        W10680   8.170   3.787  13.191 -0.1609 -0.1629  0.2291
 6630W        W10681   1.164   3.613  11.250  0.2156 -0.1743  0.0689
 6631W        W10682   8.987   8.553  12.720  0.4490 -0.2266 -0.0028
 6632W        W10683   5.271   2.311  11.281 -0.0005 -0.0630  0.1288
 6633W        W10684   8.798   6.859  13.662 -0.0080  0.1371  0.2141
 6634W        W10685  10.023   9.177   4.423  0.1067  0.0205 -0.1856
 6635W        W10686   7.528   0.571   9.203  0.5116 -0.0427  0.0210
 6636W        W10687   4.679   3.629   3.453 -0.2632 -0.3827 -0.0964
 6637W        W10688   4.055   2.386   1.612  0.0171 -0.2498  0.0049
 6638W        W10689   8.302   2.293   1.446  0.2707  0.0268 -0.0623
 6639W        W10690   3.272   7.459  13.097 -0.1623  0.0950 -0.3908
 6640W        W10691   9.049   2.491   1.037 -0.1635  0.3066  0.0194
 6641W        W10692   8.632   8.942   2.900 -0.1403  0.2992  0.0993
 6642W        W10693   2.246   5.724  12.923  0.1142 -0.1528  0.2107
 6643W        W10694   5.095   8.157  10.736  0.0691 -0.3575  0.1068
 6644W        W10695   2.793   9.000  12.261 -0.1505 -0.1691  0.1137
 6645W        W10696   8.057   5.996   3.255 -0.0303 -0.0694 -0.3012
 6646W        W10697   9.714   1.062  11.391  0.1642  0.3190 -0.2027
 6647W        W10698   4.175   7.367   1.575  0.1083  0.0115  0.1085
 6648W        W10699   7.504   2.279  12.633 -0.3257  0.3699  0.1620
 6649W        W10700   8.404   8.558   2.073  0.2390  0.3483  0.0939
 6650W        W10701   9.001   7.080   3.929 -0.1285  0.0562 -0.0088
 6651W        W10702  10.198   0.053   0.576  0.0079 -0.3093 -0.0622
 6652W        W10703   7.402   6.124  10.115  0.1204  0.2585  0.1159
 6653W        W10704   0.913   0.586   3.119  0.0223 -0.1603 -0.0730
 6654W        W10705   5.270   6.170  10.701 -0.2470  0.2315  0.0437
 6655W        W10706   0.951   9.552   4.192 -0.1112  0.0340  0.0777
 6656W        W10707   7.464  10.017  12.190 -0.0931 -0.0099 -0.0425
 6657W        W10708   5.099   1.142   3.279 -0.0929 -0.1751  0.3303
 6658W        W10709   6.896   1.962   1.457  0.2020  0.2042  0.0929
 6659W        W10710   0.052   2.703  10.683  0.0398 -0.2143 -0.1259
 6660W        W10711   7.394   9.061  10.012 -0.4684  0.1264  0.1365
 6661W        W10712   9.365   5.669  11.214  0.0128 -0.1334 -0.0333
 6662W        W10713   7.393   6.039   1.453 -0.1184 -0.1479 -0.0569
 6663W        W10714   9.887   6.797   3.837  0.1909  0.0143 -0.3006
 6664W        W10715   7.863   3.808   2.912  0.2731 -0.0723  0.0672
 6665W        W10716   7.481   6.088   2.873 -0.1613  0.2364 -0.0942
 6666W        W10717   2.684   9.915   9.702  0.0851 -0.2693  0.2074
 6667W        W10718   0.392   2.757  11.049  0.1464  0.1113  0.0511
 6668W        W10719   0.003   8.765  11.519  0.2731  0.1184 -0.0076
 6669W        W10720   5.497   6.157  13.251  0.1861 -0.2329  0.0961
 6670W        W10721   7.175   3.158   4.574 -0.1887  0.2481  0.1754
 6671W        W10722   6.404   4.951  11.029 -0.0368 -0.0338 -0.0221
 6672W        W10723   9.374   2.068   3.440 -0.0424  0.4417 -0.1330
 6673W        W10724   5.994   3.739   4.438 -0.1748  0.1922  0.2148
 6674W        W10725   7.255   3.263   8.978  0.3157  0.0367  0.1217
 6675W        W10726   7.745   2.687   0.369  0.3396  0.1249  0.0964
 6676W        W10727   3.458   1.997   0.001 -0.1843  0.2152  0.0599
 6677W        W10728   2.500   4.453  12.258  0.2084 -0.0452 -0.0553
 6678W        W10729   7.452   9.388   1.588 -0.2928 -0.1202  0.2092
 6679W        W10730   5.519   5.652   2.554  0.2836 -0.1798 -0.0252
 6680W        W10731   1.185   0.999   2.847 -0.1838  0.1570  0.5967
 6681W        W10732   4.809   5.330   1.996  0.2895  0.0358  0.1988
 6682W        W10733   2.657   9.373  11.848 -0.1274 -0.1902  0.3962
 6683W        W10734   2.690   1.856  11.796 -0.1252  0.1293  0.0540
 6684W        W10735   7.595   8.277   3.219 -0.0293 -0.2068  0.2460
 6685W        W10736  10.139   2.684  12.212  0.1477  0.2915  0.3207
 6686W        W10737   4.960   7.422  12.386 -0.1053  0.2375  0.2353
 6687W        W10738   7.868   2.192   2.347 -0.1704  0.3007  0.0940
 6688W        W10739   4.021   6.148  11.439 -0.1603 -0.2002 -0.2877
 6689W        W10740   1.408   1.251   9.964  0.1821 -0.0858  0.2254
 6690W        W10741   3.501   7.370   0.275  0.1021  0.0519  0.0956
 6691W        W10742   1.519   1.069  11.272  0.1431 -0.2589 -0.2174
 6692W        W10743   3.812   4.256   3.459 -0.0929 -0.0566  0.4518
 6693W        W10744   0.836   9.987  10.513  0.0711 -0.0392  0.2836
 6694W        W10745   7.092   4.939   9.885  0.1875  0.0957 -0.2712
 6695W        W10746   5.957   9.135  11.045 -0.2730 -0.3592  0.1383
 6696W        W10747   5.897   4.522   1.944 -0.1903  0.1716 -0.3522
 6697W        W10748   2.859   8.964   9.505  0.0408  0.2117  0.2307
 6698W        W10749   5.602   1.216  13.200  0.1544  0.0249 -0.1593
 6699W        W10750  10.038   8.719   2.429  0.1461 -0.2181  0.4795
 6700W        W10751   8.445   5.330   2.683  0.2015  0.1628 -0.1782
 6701W        W10752   8.333   2.396   9.669  0.2244 -0.0459  0.0597
 6702W        W10753   9.687   5.855   9.777  0.0170  0.0157 -0.0378
 6703W        W10754   5.848   9.818   2.047  0.2980 -0.2598  0.0273
 6704W        W10755   0.305   1.070  12.807 -0.2165  0.2065  0.0346
 6705W        W10756   7.209   6.307  10.614  0.0146  0.0527 -0.0363
 6706W        W10757   7.447   9.239   4.543 -0.0881  0.1280  0.1863
 6707W        W10758   0.043   8.567   1.983  0.1757  0.2120 -0.1229
 6708W        W10759   2.486   2.023  10.864  0.5017  0.0522  0.1093
 6709W        W10760   1.749   0.916  12.906 -0.1458 -0.4195  0.2274
 6710W        W10761   5.599   1.092   3.598  0.1571  0.0143  0.4012
 6711W        W10762   6.979   8.502   4.412  0.3261 -0.0530 -0.0492
 6712W        W10763   8.244   1.088  11.971  0.2244 -0.0209 -0.3290
 6713W        W10764   5.696   6.564  13.565  0.2596  0.0516 -0.1145
 6714W        W10765   5.431   5.674  13.473  0.0368  0.1306 -0.1093
 6715W        W10766   9.421   6.581   0.418 -0.0213  0.1069  0.0105
 6716W        W10767   4.791   3.948   3.115  0.0070 -0.0841 -0.3677
 6717W        W10768   4.854   9.173  13.608 -0.0285  0.0577  0.2328
 6718W        W10769   9.718   6.162   0.440  0.0991  0.0020 -0.4015
 6719W        W10770   8.256   0.683  11.587  0.2457  0.3597 -0.1516
 6720W        W10771   3.899   4.789   2.832 -0.1922  0.1896 -0.0239
 6721W        W10772   5.428   2.283   2.880  0.3901  0.2545 -0.1230
 6722W        W10773   8.495   4.009   4.409 -0.0176 -0.2407  0.0793
 6723W        W10774   1.510   4.558  12.167  0.0227 -0.0559 -0.1526
 6724W        W10775   8.357   6.975   3.423  0.2873 -0.2080  0.1119
 6725W        W10776   5.045   2.915   1.574  0.3072 -0.1400  0.0563
 6726W        W10777   6.632   1.539   4.745 -0.0982 -0.2797  0.0489
 6727W        W10778   6.611   7.145   9.556  0.0295 -0.0417 -0.0777
 6728W        W10779   6.194  10.005   5.604  0.1908  0.1512  0.1687
 6729W        W10780   9.647   4.855   3.751 -0.1244 -0.2333  0.1060
 6730W        W10781   4.632   1.776  11.651  0.1545 -0.3328 -0.2387
 6731W        W10782   7.977   4.667   4.690 -0.0336 -0.0515 -0.0010
 6732W        W10783   3.404   3.146   1.933 -0.0947  0.0587  0.0461
 6733W        W10784   8.199   9.850   3.462  0.0513  0.0367 -0.1173
 6734W        W10785   1.389   5.034  10.563 -0.0162  0.2064 -0.0885
 6735W        W10786   0.830   3.159   3.041 -0.0437  0.0118 -0.0860
 6736W        W10787   2.454   9.966   2.624  0.0415  0.0761 -0.1035
 6737W        W10788   1.119   8.913   1.369  0.0005  0.0656  0.0227
 6738W        W10789   3.287   9.869   0.994  0.0537 -0.0479 -0.1618
 6739W        W10790   4.647   9.079   0.210  0.0577 -0.2906  0.0118
 6740W        W10791   8.424   1.551   4.456  0.2934 -0.0100 -0.2084
 6741W        W10792   1.464   2.408   3.535 -0.2041  0.4031 -0.4751
 6742W        W10793   8.284   6.471   2.682 -0.0920 -0.2778 -0.1441
 6743W        W10794   8.335   1.119  13.470  0.2130  0.1606  0.0637
 6744W        W10795   4.520   9.822  11.059  0.4545 -0.0251 -0.2884
 6745W        W10796   8.818   1.492  10.729 -0.1221  0.0711  0.2881
 6746W        W10797   0.021   0.203   3.135  0.1232 -0.0285  0.3065
 6747W        W10798   0.881   1.226  13.501  0.1201  0.3853  0.1533
 6748W        W10799   2.373   4.722   1.436 -0.2785 -0.3125  0.1388
 6749W        W10800   5.476   3.956   0.030 -0.2213 -0.0402 -0.4231
 6750W        W10801   2.986   9.953   3.446  0.3352 -0.0735 -0.0865
 6751W        W10802   5.656   7.926   3.677 -0.2291 -0.0811 -0.0848
 6752W        W10803   5.773   5.837   3.522  0.2489  0.0451  0.0826
 6753W        W10804   3.030   6.586   4.028 -0.1419 -0.1530 -0.1552
 6754W        W10805   1.755   2.955  11.259  0.2601  0.2481  0.2301
 6755W        W10806   8.507   8.168  13.535  0.1277  0.0272  0.1267
 6756W        W10807   9.764   3.992   3.383  0.1186 -0.1178 -0.0363
 6757W        W10808   3.205  10.115   0.218  0.0992  0.1009 -0.0047
 6758W        W10809   6.402   4.618   3.388  0.1385 -0.0025 -0.0434
 6759W        W10810   7.995   6.254   5.568  0.3716 -0.0381 -0.2613
 6760W        W10811   4.107   3.413  10.255  0.1327  0.0953 -0.0132
 6761W        W10812   6.528   0.391  11.911  0.1010 -0.1244 -0.1002
 6762W        W10813   7.792  10.120   0.810  0.0415  0.2749  0.1355
 6763W        W10814   5.915   9.119   8.441 -0.0457  0.1696  0.0454
 6764W        W10815   0.471   9.924  11.466  0.2518 -0.1240  0.1652
 6765W        W10816   8.731   8.225   0.095 -0.1214 -0.1917  0.0268
 6766W        W10817   9.420   2.342  10.814  0.2483  0.1114 -0.1496
 6767W        W10818   3.786   8.273   1.822  0.0094 -0.0616 -0.2523
 6768W        W10819   0.335   6.687  10.374 -0.0129 -0.0520  0.1836
 6769W        W10820   4.374   9.521   8.854  0.2169  0.1087  0.1052
 6770W        W10821   5.575   6.024  11.088 -0.2726 -0.0682 -0.3895
 6771W        W10822   4.649   0.231   4.690 -0.0034 -0.1335  0.1385
 6772W        W10823   6.231   5.253  13.870  0.0453 -0.2093  0.0842
 6773W        W10824   6.409   5.153  12.790  0.0124 -0.1842  0.1234
 6774W        W10825   8.350   2.417  11.214 -0.0097 -0.4665  0.2744
 6775W        W10826   8.855   7.762   9.133  0.2214  0.2498 -0.3085
 6776W        W10827   0.205   1.926   0.849 -0.0036 -0.0758  0.1507
 6777W        W10828   7.085   8.953   4.283 -0.0581  0.0770  0.1107
 6778W        W10829   9.214   5.482  13.767  0.1110 -0.0213  0.0320
 6779W        W10830   5.848   1.037   5.116 -0.0787 -0.0220 -0.0981
 6780W        W10831   3.968   6.045  13.336  0.0769 -0.1270  0.0928
 6781W        W10832   0.613   9.274   1.985 -0.0990 -0.0560 -0.0980
 6782W        W10833   4.871   8.883   9.437 -0.4037 -0.1470  0.1036
 6783W        W10834   4.997   2.833  13.342  0.1495  0.1785  0.0793
 6784W        W10835   1.240   8.807   3.540 -0.1235  0.1312 -0.0463
 6785W        W10836   1.050   4.190   3.946  0.2017 -0.0467  0.2865
 6786W        W10837   6.608  10.008  11.483 -0.1215 -0.2894  0.0328
 6787W        W10838   9.718   1.574   4.299 -0.0647  0.0900 -0.4593
 6788W        W10839   8.804   2.198   4.231  0.1049 -0.0804 -0.2569
 6789W        W10840   2.179   3.438   3.072 -0.0222 -0.2868 -0.5994
 6790W        W10841   8.541   5.169  10.958 -0.2156 -0.0026 -0.0189
 6791W        W10842  10.124   0.688  11.257 -0.1182 -0.0518  0.0586
 6792W        W10843   2.640   8.513  12.226  0.0110 -0.1861  0.2373
 6793W        W10844   8.165   9.431   3.076 -0.0845  0.2084  0.2456
 6794W        W10845   8.420   6.258   1.251 -0.0030  0.0794  0.4219
 6795W        W10846   0.248   8.628   3.329  0.3045 -0.0167  0.0645
 6796W        W10847   3.091   1.702  10.327  0.0701  0.0592  0.3557
 6797W        W10848   2.447   3.526  12.396  0.0324 -0.2203  0.0214
 6798W        W10849   2.752   3.338   3.096  0.0447 -0.1974 -0.3085
 6799W        W10850   6.736   5.123  13.728  0.1039  0.0433 -0.0098
 6800W        W10851   7.884   5.639  11.112  0.0920  0.2516 -0.4594
 6801W        W10852   3.730   0.293   4.023 -0.2994 -0.1283 -0.3252
 6802W        W10853   3.169   5.007  10.882  0.0111 -0.3707 -0.2081
 6803W        W10854   9.874   7.048   3.250 -0.2940 -0.0499 -0.0080
 6804W        W10855   7.329   5.753  13.833  0.1663 -0.1452  0.0772
 6805W        W10856   8.379   3.388   0.097 -0.0206  0.2242  0.0989
 6806W        W10857   8.672   2.143   3.726 -0.0161 -0.1621 -0.1444
 6807W        W10858   3.433   4.223  13.197  0.3553  0.1709 -0.2679
 6808W        W10859   0.432   6.258   9.767 -0.0643 -0.0465  0.0092
 6809W        W10860   7.037   0.912  13.237 -0.1567 -0.0993 -0.3770
 6810W        W10861   3.920   0.538  11.440 -0.0209 -0.2701  0.0377
 6811W        W10862   0.307   6.213   3.365  0.1445 -0.0119 -0.0259
 6812W        W10863   9.304   3.937  10.773 -0.2177 -0.1268  0.2700
 6813W        W10864   8.364   5.992   4.700  0.2841 -0.4522 -0.1099
 6814W        W10865   4.819   9.914   9.605 -0.3610 -0.3077 -0.3712
 6815W        W10866   0.778   0.886   4.166 -0.3445 -0.0069 -0.0781
 6816W        W10867   1.632   2.101   1.333 -0.0684  0.0816 -0.1279
 6817W        W10868   2.834   9.182   1.554 -0.2522 -0.1417 -0.0328
 6818W        W10869   7.305   9.494  10.988  0.1319 -0.0209 -0.1140
 6819W        W10870   5.431   8.496   0.858 -0.2845 -0.2409  0.0702
 6820W        W10871   6.820   6.260   4.639 -0.2824 -0.0869  0.0044
 6821W        W10872   3.240   2.260   1.851  0.0753  0.3394 -0.1725
 6822W        W10873   6.998   5.051  11.855  0.0564  0.1013  0.0474
 6823W        W10874   4.312   2.044   5.141  0.1064  0.2641  0.1423
 6824W        W10875   7.352   1.113   2.361 -0.1284 -0.0340 -0.1120
 6825W        W10876   2.246   9.749   8.298  0.1555 -0.0125 -0.0336
 6826W        W10877   0.894   6.796  10.491  0.2119  0.3461 -0.2771
 6827W        W10878   4.987   4.972   9.818 -0.2774  0.0491  0.0123
 6828W        W10879   2.607   3.086   1.472  0.0665 -0.1303 -0.4479
 6829W        W10880   8.338   3.894  13.880 -0.2235 -0.0838 -0.2871
 6830W        W10881   3.613   8.961  10.585 -0.0329 -0.1453  0.1826
 6831W        W10882   7.568   5.538   4.197 -0.1103  0.0364  0.1083
 6832W        W10883   5.852   7.096   8.656 -0.1543 -0.3506  0.0429
 6833W        W10884   0.330   7.890  11.965  0.4449  0.0354 -0.1724
 6834W        W10885   3.466   6.021   9.774  0.1363  0.0974 -0.0600
 6835W        W10886   4.356   8.903  13.604  0.1360 -0.1342 -0.0481
 6836W        W10887   1.482   9.603  10.081 -0.2421 -0.0230  0.1435
 6837W        W10888   6.710   1.369  12.199 -0.0211 -0.4495 -0.1022
 6838W        W10889   3.755   6.501   1.256  0.2733 -0.2480  0.3164
 6839W        W10890   7.383   7.231   4.985 -0.0090  0.0327 -0.0717
 6840W        W10891   6.450   9.604   3.840  0.1112  0.1027 -0.1989
 6841W        W10892   6.196   5.761   0.142  0.0034 -0.0351 -0.0143
 6842W        W10893   6.405   0.241  12.856  0.0069 -0.1264  0.0423
 6843W        W10894   1.302   3.745  13.198  0.1662  0.0779 -0.2797
 6844W        W10895   5.663   3.101   9.198 -0.4600 -0.0926 -0.1281
 6845W        W10896   4.137   1.580   2.334  0.0198  0.0572 -0.0651
 6846W        W10897   7.307   7.751  12.377  0.0940 -0.1208 -0.3942
 6847W        W10898   1.123   9.242   0.294 -0.2020  0.0566 -0.0830
 6848W        W10899   0.388   5.651  12.594 -0.0675  0.1868  0.2551
 6849W        W10900   7.413   3.638   0.051 -0.2334 -0.0378  0.2469
 6850W        W10901   7.550   3.195   1.250 -0.1855  0.0024  0.0412
 6851W        W10902   2.149   0.778   9.729 -0.2515 -0.0296  0.1137
 6852W        W10903   5.725   5.512   0.330 -0.2901 -0.0629  0.0961
 6853W        W10904   0.336   3.585  10.181 -0.0579  0.2592 -0.1451
 6854W        W10905   6.182  10.117  13.533  0.0096 -0.1710 -0.0345
 6855W        W10906   1.523   4.066   1.705 -0.2041  0.2195  0.1450
 6856W        W10907   3.867   7.935   2.697  0.2101  0.1203 -0.0679
 6857W        W10908   2.609   8.219   2.685 -0.2181  0.2270 -0.1898
 6858W        W10909   6.309  10.184   2.166 -0.1375 -0.2386  0.2395
 6859W        W10910   5.597   8.325   9.986 -0.0246 -0.3200  0.0058
 6860W        W10911   7.872   0.462   3.842 -0.0240  0.1210  0.0909
 6861W        W10912   4.772   6.473  11.892 -0.2955  0.0103  0.1478
 6862W        W10913   2.458   6.458   1.420  0.2262 -0.0240 -0.0093
 6863W        W10914   2.999   2.977  10.949 -0.2951  0.1919 -0.0420
 6864W        W10915   2.244   3.563   9.644 -0.0812 -0.1473  0.2682
 6865W        W10916   5.932   5.422  12.680  0.1902  0.0696  0.3950
 6866W        W10917  10.021   9.749  11.640 -0.1869  0.1184  0.0327
 6867W        W10918   0.097   4.271   9.799 -0.0465 -0.0668  0.0471
 6868W        W10919   0.610   0.412   9.934  0.1567 -0.0709 -0.0218
 6869W        W10920   6.632   3.095   1.823 -0.1800 -0.1823 -0.0410
 6870W        W10921   6.239   7.382  13.763  0.2875  0.2726 -0.0284
 6871W        W10922   7.233   9.055   1.907 -0.0828 -0.1550 -0.0471
 6872W        W10923   1.132   4.456  12.516 -0.2010  0.3317 -0.2795
 6873W        W10924   1.877   1.175  11.857  0.0966 -0.3165  0.0392
 6874W        W10925   6.347   5.860   5.488  0.1526 -0.0447  0.0412
 6875W        W10926   8.091   5.867   1.244  0.1127  0.1095 -0.0069
 6876W        W10927   8.095   4.120   0.317  0.2657 -0.2029 -0.1627
 6877W        W10928   3.282   7.605   1.392  0.3848  0.0132 -0.2297
 6878W        W10929   3.027   3.530   1.712 -0.0020  0.3855 -0.0824
 6879W        W10930   2.470   5.953  12.519  0.2266 -0.0578  0.2175
 6880W        W10931   8.301   8.057  10.139  0.5942  0.1349  0.0867
 6881W        W10932   0.424   2.745   0.363 -0.1602  0.1430  0.0710
 6882W        W10933   5.767   6.842   1.041 -0.0931  0.0823  0.1396
 6883W        W10934   1.256   5.084  12.518 -0.2472 -0.1401  0.0724
 6884W        W10935   5.319   3.846   9.365 -0.1342  0.2882  0.2129
 6885W        W10936   2.895   0.016  13.107 -0.2229  0.2556 -0.2743
 6886W        W10937   7.558   6.869  12.455  0.0545  0.0218  0.2730
 6887W        W10938   7.793   9.395  10.178 -0.0580  0.0052  0.2839
 6888W        W10939   2.219   7.309   0.650  0.1663  0.1032 -0.2968
 6889W        W10940   2.368   2.380   4.334  0.1092 -0.1798  0.0269
 6890W        W10941   7.915   0.069   9.724 -0.0905  0.2669 -0.0405
 6891W        W10942   6.222   0.215   1.685  0.0001  0.0623 -0.1151
 6892W        W10943   7.374   4.026   1.543  0.1732 -0.3544  0.2022
 6893W        W10944   9.039   7.597  11.881  0.0033  0.0555  0.0273
 6894W        W10945   4.742   4.132  13.367  0.1870 -0.1321  0.2344
 6895W        W10946   7.787   7.864   4.024  0.0488  0.3424 -0.0436
 6896W        W10947   4.553   5.737   3.222  0.4198 -0.0866 -0.0982
 6897W        W10948   8.297   3.770  11.793 -0.1857  0.0188 -0.1187
 6898W        W10949   4.636   1.326  10.650  0.0437 -0.1983  0.2439
 6899W        W10950   2.093   9.550   8.866  0.2786 -0.5439  0.2691
 6900W        W10951   9.446   8.387  11.302  0.2006 -0.2561  0.1365
 6901W        W10952   7.394   8.123  10.532 -0.2131 -0.2815 -0.1003
 6902W        W10953   3.822   4.890  10.100 -0.1869 -0.1444 -0.1846
 6903W        W10954   8.401   5.736  11.120  0.0605  0.0880  0.0312
 6904W        W10955   5.841   1.741   9.492 -0.2026  0.1194  0.2802
 6905W        W10956   9.685   7.026   0.282 -0.0991  0.3899 -0.1946
 6906W        W10957   5.084   0.876   0.530 -0.0440 -0.2738 -0.2281
 6907W        W10958   4.663   4.822  12.619  0.1976 -0.0448 -0.2708
 6908W        W10959   4.098   7.827   1.713 -0.0893 -0.0041 -0.0610
 6909W        W10960   5.326   8.568  11.388  0.0348 -0.2422 -0.1836
 6910W        W10961   1.222   0.168   2.529 -0.3655  0.2667  0.3273
 6911W        W10962   4.911   5.202  11.514  0.0354  0.0073 -0.2914
 6912W        W10963   9.884   2.467   1.116 -0.2372  0.1758  0.1881
 6913W        W10964   3.010   2.618   9.965  0.0275  0.0485 -0.1047
 6914W        W10965   6.212   0.245   5.424  0.1597 -0.2354 -0.0592
 6915W        W10966   3.090   1.034  12.885  0.0721  0.0651  0.0315
 6916W        W10967   7.047   6.290   2.557  0.0346  0.1145  0.0962
 6917W        W10968   8.760   0.812   3.556 -0.1926 -0.1749  0.0656
 6918W        W10969   2.131   7.618   3.477  0.2042 -0.4312 -0.1467
 6919W        W10970   4.937   9.327   9.682 -0.0304 -0.2400  0.1318
 6920W        W10971   5.479   5.878   9.844 -0.1456 -0.1759  0.0728
 6921W        W10972   4.011   2.887  13.866 -0.1059  0.3431 -0.3553
 6922W        W10973   8.891   7.617   4.727 -0.1072 -0.2377  0.2179
 6923W        W10974   8.519   7.163   1.566  0.3134  0.0141 -0.1320
 6924W        W10975   2.562   7.438   2.208  0.1389  0.2449  0.1703
 6925W        W10976   2.114   9.166  12.678  0.1632 -0.2505 -0.0885
 6926W        W10977   5.795   9.231  13.279  0.0211  0.0579 -0.0949
 6927W        W10978   6.638   4.567  13.672 -0.0437  0.0873 -0.2633
 6928W        W10979   2.700   8.832  10.894  0.2467 -0.1482  0.1442
 6929W        W10980   1.524   9.066  13.663  0.1582 -0.3658  0.1818
 6930W        W10981   5.825   9.934   4.655  0.0509 -0.0364  0.2523
 6931W        W10982   7.187   1.931   9.202  0.0953  0.0814 -0.0687
 6932W        W10983   6.425   4.479   1.824 -0.1229  0.0475 -0.0217
 6933W        W10984   2.134   0.282   4.890 -0.1519  0.2732 -0.2872
 6934W        W10985   0.336   6.433  11.755  0.0212 -0.2308 -0.0631
 6935W        W10986   9.712   8.283   0.390  0.2297 -0.0547  0.3545
 6936W        W10987   2.779   2.817   4.237 -0.2044  0.2636 -0.0455
 6937W        W10988   1.982   8.089  10.708 -0.4522 -0.0540 -0.1494
 6938W        W10989   4.847   1.370   0.977 -0.2923  0.2889 -0.0206
 6939W        W10990   1.760   5.632   2.165 -0.3033  0.0502 -0.1569
 6940W        W10991   5.171   3.582   4.533  0.2790 -0.0604  0.1117
 6941W        W10992   1.921   9.940   2.433  0.2730 -0.0810  0.1627
 6942W        W10993   4.410   2.375   2.903  0.2726  0.0401 -0.1576
 6943W        W10994   4.440   1.770  12.076 -0.0161 -0.0133 -0.3168
 6944W        W10995   4.135   4.302   2.999 -0.0076 -0.0927 -0.1122
 6945W        W10996   4.944  10.142  13.435 -0.1812  0.1021  0.3899
 6946W        W10997   0.224  10.145   2.659 -0.4249 -0.2260 -0.0548
 6947W        W10998   5.063   7.333   2.981 -0.3722 -0.2012  0.4555
 6948W        W10999   9.611   0.035   1.128 -0.1698  0.1593  0.2539
 6949W        W11000   2.220   9.668   4.579  0.3107  0.2393  0.1222
 6950W        W11001   3.436   9.036  11.545  0.1366  0.0463  0.0698
 6951W        W11002   8.623   0.420  11.883 -0.2716  0.1399 -0.2605
 6952W        W11003   5.074   5.316   1.550  0.2238  0.0287 -0.2050
 6953W        W11004   4.665   4.388   1.357  0.2128  0.0383 -0.1113
 6954W        W11005   6.110  10.135  11.478  0.0839  0.1528 -0.1322
 6955W        W11006   8.634   4.811  13.497  0.2163  0.1830  0.3081
 6956W        W11007   6.733   7.644   9.783 -0.0706  0.4337  0.2782
 6957W        W11008   3.498   8.315  11.318  0.0958  0.0349 -0.2642
 6958W        W11009   8.280   6.576  11.224 -0.2029  0.1979 -0.0131
 6959W        W11010   4.906   0.087   0.429 -0.0775 -0.0398  0.3561
 6960W        W11011   4.501   3.082  11.716  0.0541 -0.4502  0.0617
 6961W        W11012   6.314   3.096   3.649 -0.1980  0.2922  0.2900
 6962W        W11013   6.481   7.555   9.263 -0.1972  0.1796  0.0758
 6963W        W11014   9.600   1.156   2.087 -0.0470 -0.1204  0.2140
 6964W        W11015   5.012   0.871   3.648 -0.0561  0.1310  0.0826
 6965W        W11016   9.563   1.667   2.090  0.1203 -0.1581  0.2196
 6966W        W11017   0.571   0.041  13.843 -0.0427  0.0513  0.0625
 6967W        W11018   3.387   7.946   9.326 -0.0748 -0.2069  0.1117
 6968W        W11019   9.024   1.992  13.071 -0.1015 -0.1061  0.0901
 6969W        W11020   4.518   6.666  13.193  0.3574  0.1378 -0.0851
 6970W        W11021   3.159   1.936  11.724 -0.0956  0.2639 -0.0295
 6971W        W11022   0.351   1.251  13.574 -0.0831 -0.0654 -0.4933
 6972W        W11023   7.035   4.476  13.321 -0.0181  0.1144 -0.0137
 6973W        W11024   3.168   1.635   2.755 -0.1615  0.0133  0.2288
 6974W        W11025   2.092   7.053   9.887 -0.1856  0.2282  0.0826
 6975W        W11026   2.888   8.335  13.015  0.2015 -0.1202 -0.0286
 6976W        W11027   4.577   1.059   0.709  0.1775 -0.1135 -0.0441
 6977W        W11028   6.942   6.257   9.399 -0.1847 -0.0605  0.0977
 6978W        W11029   3.126   5.731   2.185  0.1777  0.1394 -0.2605
 6979W        W11030   3.377   8.196   4.029  0.2877  0.0654  0.0902
 6980W        W11031   3.399   2.419  11.703 -0.1597  0.1282  0.0607
 6981W        W11032   2.854   4.575   1.499 -0.1248 -0.0933  0.0802
 6982W        W11033   7.699   8.999   1.040 -0.0403 -0.0981  0.0301
 6983W        W11034   5.816   5.906  10.684 -0.1280  0.0221  0.0283
 6984W        W11035   6.900   2.908   0.458 -0.0517 -0.1321  0.0510
 6985W        W11036   2.338   8.438   3.087 -0.1529  0.3492  0.0904
 6986W        W11037   0.450   0.651   3.813  0.2007  0.1338  0.0140
 6987W        W11038   8.729   4.064   2.770 -0.1804  0.0471  0.1565
 6988W        W11039   7.790   2.415  10.384 -0.2077 -0.2630 -0.3622
 6989W        W11040   2.630   5.024  11.055 -0.2475  0.1265 -0.3829
 6990W        W11041   3.686   2.764  13.483 -0.0565 -0.0317  0.2617
 6991W        W11042   5.690   9.703   1.186 -0.1192 -0.2282 -0.1738
 6992W        W11043   7.993  10.078  11.323  0.1280 -0.0146  0.0408
 6993W        W11044   7.524   8.117  12.773 -0.1532  0.0308 -0.1321
 6994W        W11045   2.110   4.935  13.579  0.0329 -0.1366 -0.1800
 6995W        W11046   3.267   9.910  11.488  0.0278  0.0120 -0.0763
 6996W        W11047   3.032  10.120   2.730 -0.0990  0.0058  0.4556
 6997W        W11048   7.404   8.945   1.412 -0.0688  0.0202 -0.3827
 6998W        W11049   0.942   9.212   0.782  0.1391 -0.2684  0.0195
 6999W        W11050   5.370   9.575  13.196  0.1235  0.1298  0.3709
 7000W        W11051   1.819   1.683  11.237  0.0026 -0.2061  0.2162
 7001W        W11052   3.207   3.666   3.066 -0.1690  0.1145  0.0307
 7002W        W11053   7.234   9.551  12.215 -0.0397 -0.2583  0.0170
 7003W        W11054   5.567   4.927   2.302 -0.2023  0.1305  0.2304
 7004W        W11055   0.237   2.480   3.430  0.2573  0.1697 -0.3090
 7005W        W11056   6.787   4.621   2.164  0.1337 -0.3493 -0.0757
 7006W        W11057   5.948   2.483   2.640  0.1348  0.1036 -0.0276
 7007W        W11058   0.819   2.502  11.665 -0.1136 -0.1458 -0.0387
 7008W        W11059   5.336   9.757   9.045  0.0991 -0.0001 -0.0508
 7009W        W11060   3.750   6.977   2.097  0.1162 -0.2578 -0.0889
 7010W        W11061   6.142   1.836   3.989  0.3250 -0.0798  0.3493
 7011W        W11062   5.938   9.049   1.457  0.0920 -0.1367  0.0049
 7012W        W11063   5.818   5.597  13.770  0.1934 -0.0392 -0.2601
 7013W        W11064   9.315   3.280   9.405  0.0860 -0.0729  0.3120
 7014W        W11065   1.519   8.930  11.149 -0.0927 -0.1051  0.0590
 7015W        W11066   7.670   0.710   2.688  0.0997 -0.0093 -0.1586
 7016W        W11067   8.057   5.045  12.549  0.1711 -0.2092 -0.0246
 7017W        W11068   6.032   0.537   0.987 -0.1613  0.0164 -0.2311
 7018W        W11069   1.558   7.668   2.272 -0.1163 -0.0469  0.1690
 7019W        W11070   9.048   9.463   0.708  0.2571 -0.0641  0.2577
 7020W        W11071   8.976   4.224   9.703  0.0744  0.0323  0.1796
 7021W        W11072   2.500   1.402  12.769  0.0709  0.1431  0.2126
 7022W        W11073   8.419   9.055   9.576 -0.0976  0.0611  0.1024
 7023W        W11074   8.650   1.259   2.901 -0.1960  0.1521  0.2254
 7024W        W11075   4.864   5.820   0.073 -0.0869 -0.1332  0.2519
 7025W        W11076   6.351   8.289  11.036 -0.1502 -0.2956 -0.2115
 7026W        W11077   1.745   9.086   2.180 -0.0042  0.1670 -0.1859
 7027W        W11078   8.904   9.054  10.896 -0.0521  0.0190 -0.5804
 7028W        W11079   2.747   2.560  10.755  0.2192 -0.0835 -0.1900
 7029W        W11080   0.808   9.851   3.247  0.0577  0.0509 -0.1154
 7030W        W11081   5.927   6.586   2.414  0.0297  0.1415 -0.6021
 7031W        W11082   8.061   0.697  13.311 -0.2940  0.1890 -0.4776
 7032W        W11083   2.005   1.071   0.343 -0.1386 -0.0154  0.1717
 7033W        W11084   4.128   9.341   1.716 -0.1804 -0.1626  0.1466
 7034W        W11085   2.853   7.831   2.815 -0.0992  0.1685 -0.0879
 7035W        W11086   3.267   5.756  13.811 -0.0789 -0.0608  0.0660
 7036W        W11087   7.452   6.092  12.488  0.0045 -0.0972  0.4501
 7037W        W11088   7.434   0.342  11.897  0.0055 -0.3429 -0.1655
 7038W        W11089   5.385   8.114  11.130 -0.0485 -0.0151 -0.1666
 7039W        W11090   7.107   1.873   8.660 -0.1079  0.0592  0.1707
 7040W        W11091   6.653   1.837  12.438  0.1362 -0.0619 -0.2292
 7041W        W11092   2.464   4.730   1.925 -0.0767 -0.1021 -0.1578
 7042W        W11093   7.347   2.296   5.325 -0.1099  0.2380 -0.0843
 7043W        W11094   2.457   7.396   3.094 -0.2193 -0.2476  0.4398
 7044W        W11095   6.878   7.869  10.559 -0.1437 -0.3845 -0.1638
 7045W        W11096   7.418   1.856  11.970 -0.2980 -0.0221  0.0198
 7046W        W11097   5.115   1.343  11.437  0.2088 -0.0931  0.0203
 7047W        W11098   1.369   0.864   1.529 -0.2162 -0.2156 -0.2045
 7048W        W11099   7.888   2.591   2.761  0.0683 -0.1235 -0.5515
 7049W        W11100   8.685   3.398   4.973 -0.1394  0.2228  0.0555
 7050W        W11101   5.472   4.419   0.947 -0.1775 -0.0652 -0.1380
 7051W        W11102   1.602   1.297   9.045 -0.1456  0.1775 -0.2785
 7052W        W11103   9.339   7.569   0.904 -0.2504  0.2814 -0.4152
 7053W        W11104   4.407   0.880  10.632 -0.2544  0.1258 -0.0184
 7054W        W11105   7.478   8.251   5.612  0.0912  0.1822  0.1719
 7055W        W11106   6.861   9.563   2.313  0.1692  0.0339  0.1139
 7056W        W11107   5.859   9.130  10.106 -0.2580  0.0104 -0.0616
 7057W        W11108   1.079   2.776  11.287  0.0543  0.0500 -0.0635
 7058W        W11109   5.338   8.693   4.558  0.4187  0.0179  0.0540
 7059W        W11110   8.348   4.821  11.349  0.0639 -0.1227 -0.1397
 7060W        W11111   0.708   5.780   0.372  0.3128  0.1164  0.1245
 7061W        W11112   7.241   0.968   0.455  0.2076 -0.3011 -0.0594
 7062W        W11113   0.381   8.370   3.801 -0.1097 -0.2983  0.0415
 7063W        W11114   9.941   1.319   3.548  0.2794 -0.1422  0.1171
 7064W        W11115   4.003   4.842   2.158  0.0382 -0.0642  0.1152
 7065W        W11116   5.054   9.937   2.831  0.1631  0.0114 -0.2564
 7066W        W11117   3.698   1.870   3.863  0.6252 -0.1471  0.0980
 7067W        W11118   3.736   7.766   3.279 -0.2261  0.0171  0.0621
 7068W        W11119   1.217   7.324   2.321 -0.0302  0.3069  0.1297
 7069W        W11120   7.680   3.180   5.009 -0.2367 -0.0401 -0.0666
 7070W        W11121   2.465   7.661  12.479 -0.1056 -0.0122  0.2042
 7071W        W11122   0.675   2.408   4.126 -0.2621  0.1573 -0.0996
 7072W        W11123   3.509   5.291  12.354  0.0115 -0.2323 -0.0452
 7073W        W11124   3.734   4.309   2.713 -0.0414  0.4460  0.2498
 7074W        W11125   4.088   2.935   0.853 -0.0379 -0.3893 -0.0684
 7075W        W11126   9.509   4.931  11.039  0.1334  0.0409  0.2356
 7076W        W11127   9.449   9.720   3.641 -0.1962  0.1570 -0.0702
 7077W        W11128   9.681   9.957  13.267 -0.0582 -0.2162 -0.1228
 7078W        W11129   5.176   8.582   9.746  0.0152  0.0214 -0.0510
 7079W        W11130   2.629   2.670  10.256  0.2413  0.1979  0.2214
 7080W        W11131   4.345   9.216   0.961 -0.0413  0.0598  0.1570
 7081W        W11132   4.271   9.939  10.200 -0.0824 -0.1943  0.0845
 7082W        W11133   1.603   3.714  11.673 -0.1013  0.1363 -0.4200
 7083W        W11134   0.753   2.729   9.798  0.1076  0.1175  0.1633
 7084W        W11135   8.040   5.600   2.458  0.3037 -0.3272  0.1764
 7085W        W11136   6.935   5.232   8.912 -0.1216 -0.2049 -0.0104
 7086W        W11137   6.587   6.877   3.974 -0.1879  0.1347  0.4054
 7087W        W11138   5.534   4.176   0.536 -0.1169 -0.2851  0.1060
 7088W        W11139   3.166   2.097   0.569  0.2344  0.3485 -0.1605
 7089W        W11140   9.879   2.416   9.401  0.1425 -0.2771  0.2818
 7090W        W11141   0.553   9.358   2.470 -0.3791 -0.0276 -0.2603
 7091W        W11142   0.158   0.117   1.847 -0.0461 -0.2141 -0.0861
 7092W        W11143   2.098   5.215  11.160  0.3261  0.2773  0.1568
 7093W        W11144   6.447   0.997   2.357 -0.0163 -0.2404 -0.0215
 7094W        W11145   5.175   9.156   3.770  0.0956 -0.2773 -0.3323
 7095W        W11146   9.321   0.606  12.819 -0.2423 -0.0131  0.2834
 7096W        W11147   9.331   7.497  10.098  0.1268  0.1537  0.0151
 7097W        W11148   2.045   8.195   1.509 -0.0242 -0.0620  0.3871
 7098W        W11149   3.217   2.707   4.018 -0.0502  0.0011  0.0631
 7099W        W11150   4.154   9.702   3.024 -0.0685  0.0623  0.5134
 7100W        W11151   1.162   5.432   2.194  0.1503  0.4627 -0.1379
 7101W        W11152   6.874   9.384  10.156 -0.4088  0.2167  0.0303
 7102W        W11153   4.695   8.610   0.046 -0.1387 -0.2034  0.1083
 7103W        W11154   8.804   5.671  10.835 -0.1442  0.2179 -0.0555
 7104W        W11155   0.970   7.170   9.979  0.0092  0.1409  0.1469
 7105W        W11156   4.049   0.541  10.521  0.0225  0.0033 -0.0759
 7106W        W11157   1.205   8.678  12.086  0.0656  0.1869  0.0554
 7107W        W11158   4.858  10.088  13.907  0.0214  0.2656  0.1592
 7108W        W11159   9.238   6.293   3.577  0.0148 -0.0797  0.0441
 7109W        W11160  10.080   3.386  11.231 -0.1980 -0.0277  0.1248
 7110W        W11161   7.918   2.216   9.420  0.1346 -0.1879  0.1290
 7111W        W11162   4.939   2.221   3.221  0.0755 -0.3258  0.0144
 7112W        W11163   7.900   3.522  10.879  0.0585  0.0475 -0.1581
 7113W        W11164   1.764   8.955  13.248 -0.1151 -0.2929 -0.2096
 7114W        W11165   8.457   6.638  10.178 -0.2999 -0.0992 -0.1178
 7115W        W11166   2.998   0.308  11.902  0.0264  0.1431  0.1553
 7116W        W11167   0.802   3.547  10.504 -0.0179 -0.0932 -0.0843
 7117W        W11168   6.812   4.457   2.616  0.1267  0.1465  0.1525
 7118W        W11169   0.361   2.584  11.799  0.0616  0.3458 -0.1078
 7119W        W11170  10.174   8.203  11.807 -0.0296  0.2422  0.0197
 7120W        W11171   4.474   0.291   9.768  0.2633  0.2138 -0.0859
 7121W        W11172   9.438   0.967   0.293 -0.1212  0.3124 -0.2040
 7122W        W11173   4.576   0.890  12.045 -0.0352  0.0955 -0.0810
 7123W        W11174   2.644   2.683  12.777  0.1373  0.0968  0.2243
 7124W        W11175   5.045   8.076   9.836 -0.0100 -0.0509 -0.1893
 7125W        W11176   9.164   4.032   0.564  0.0375 -0.0059 -0.0520
 7126W        W11177   3.359   4.339   3.634 -0.1710 -0.1585  0.3264
 7127W        W11178   5.653   2.721   3.699 -0.0405  0.2705 -0.0531
 7128W        W11179   2.294   7.612  13.517 -0.0552 -0.0329 -0.1493
 7129W        W11180   3.749   4.195   9.078 -0.3400 -0.0788  0.1448
 7130W        W11181   3.356  10.184   9.137  0.0226 -0.0915  0.0190
 7131W        W11182   5.209   9.615   1.304  0.3375 -0.1371 -0.0769
 7132W        W11183   2.543   3.410   4.778 -0.3514 -0.1954  0.3065
 7133W        W11184   2.699   4.297   1.109  0.1330 -0.0099  0.2445
 7134W        W11185   2.900   0.292  10.529  0.2467  0.2910  0.0686
 7135W        W11186   2.478   0.329  13.435 -0.2892 -0.1072  0.0872
 7136W        W11187   9.549   8.170   9.506 -0.0507  0.0797 -0.3489
 7137W        W11188   7.572   5.304  13.619 -0.2001  0.0867 -0.0150
 7138W        W11189   5.602   3.415   0.263  0.2367  0.0288  0.1988
 7139W        W11190   2.008   9.209   1.778 -0.1027 -0.0989  0.1075
 7140W        W11191   7.109   4.362   1.345  0.1866 -0.2432 -0.0657
 7141W        W11192   5.493   6.993   2.107  0.2023  0.2012 -0.2189
 7142W        W11193   2.706   9.612  10.620  0.2531  0.1153  0.2617
 7143W        W11194   1.780   4.956  12.373 -0.0089  0.1791 -0.4877
 7144W        W11195   9.800   6.841  13.188  0.1467 -0.1490 -0.2361
 7145W        W11196   9.687   5.766   1.964 -0.2219 -0.0552  0.0234
 7146W        W11197   4.190   5.074  12.885  0.0103  0.0692  0.0895
 7147W        W11198   9.899   0.097   4.948 -0.1477  0.0833 -0.0221
 7148W        W11199   0.438   9.528   3.272  0.2172  0.0426  0.4357
 7149W        W11200   4.924   1.010   1.888  0.1058  0.0203  0.1630
 7150W        W11201   7.238   5.276   0.052 -0.1932 -0.0183 -0.1120
 7151W        W11202   3.814   4.286  12.861 -0.0238  0.2137 -0.2028
 7152W        W11203   0.979   7.678  13.117 -0.0308 -0.0069  0.0003
 7153W        W11204   7.275   9.270   1.009  0.0313 -0.4300  0.1428
 7154W        W11205   9.437   2.737   4.500  0.1275  0.1121 -0.4827
 7155W        W11206   0.970   4.853  12.206  0.0330 -0.0709  0.0002
 7156W        W11207   3.453   8.692   1.847  0.0016 -0.0598 -0.1450
 7157W        W11208   1.207   3.511   0.392  0.1274  0.1324  0.1497
 7158W        W11209   9.885   0.775   0.560 -0.2454 -0.0523  0.0598
 7159W        W11210   3.630   5.719   0.892  0.1059  0.1471 -0.0149
 7160W        W11211   6.496   8.069   2.737 -0.2413 -0.0544 -0.0516
 7161W        W11212   8.487   7.645  13.534 -0.2401  0.1473 -0.1230
 7162W        W11213   1.532   2.032  10.924 -0.1352  0.2180 -0.0877
 7163W        W11214   5.572   9.807  10.498  0.0556  0.1399 -0.0621
 7164W        W11215   3.087   6.369  11.771  0.0006  0.1052  0.2432
 7165W        W11216   0.083   1.521  10.428  0.0095 -0.0397 -0.1632
 7166W        W11217   6.398   9.143  12.416  0.3226  0.1832 -0.0803
 7167W        W11218   7.894   1.604  10.697 -0.0609  0.1017  0.3033
 7168W        W11219   5.243   4.037  12.881 -0.1754  0.1717  0.2817
 7169W        W11220   7.917   3.359  10.348 -0.2081  0.0747 -0.2406
 7170W        W11221   5.038   9.080   1.310  0.1523  0.1892 -0.4599
 7171W        W11222   4.721   1.557  11.111  0.0529  0.0714 -0.0487
 7172W        W11223   9.278   0.581   2.692  0.0555  0.3252 -0.2339
 7173W        W11224   3.207   1.950   2.273 -0.1757  0.1011  0.0519
 7174W        W11225   4.525   6.495   3.096  0.1142  0.2477  0.0044
 7175W        W11226   3.263   9.780   4.115  0.1981 -0.0445  0.2069
 7176W        W11227   7.633   4.199  11.351  0.1415  0.0289  0.0113
 7177W        W11228   5.257   3.199   0.023 -0.2209  0.1557 -0.2885
 7178W        W11229   5.719   3.266  11.387 -0.0215 -0.3880  0.1221
 7179W        W11230   5.698   7.091   9.222 -0.1555 -0.0642  0.4709
 7180W        W11231   6.055   1.230  10.506  0.0967  0.0840 -0.0792
 7181W        W11232   4.569   4.902   2.159 -0.2017  0.0496  0.1025
 7182W        W11233   3.755   8.052  10.239 -0.1208  0.1722 -0.1366
 7183W        W11234   6.253   9.034   9.653 -0.1728 -0.3106 -0.0769
 7184W        W11235   9.778   0.526   2.902 -0.2015  0.1972  0.0321
 7185W        W11236   8.439   7.203  12.803 -0.2562  0.1199 -0.3608
 7186W        W11237   8.257   4.980  10.619 -0.0083 -0.1228 -0.0425
 7187W        W11238   5.537   9.530   2.191 -0.1301 -0.0414 -0.0800
 7188W        W11239   2.269   6.357   2.010  0.2009 -0.0933  0.1552
 7189W        W11240   1.324   5.591   0.342  0.2080 -0.1821  0.5459
 7190W        W11241   1.842  10.037   1.429  0.0377 -0.0364  0.1196
 7191W        W11242   7.976   8.411  11.818  0.1933 -0.1387 -0.1346
 7192W        W11243   5.228   1.386   1.411 -0.1360  0.0360  0.1087
 7193W        W11244   8.388   1.886   9.509 -0.2615 -0.2773  0.0957
 7194W        W11245   1.256   6.035  11.447 -0.1895  0.0455 -0.3008
 7195W        W11246   9.287   2.133   2.901  0.2126  0.2381  0.0941
 7196W        W11247   2.364   7.766   0.526 -0.0029  0.4367 -0.2352
 7197W        W11248   9.896   8.224   2.158 -0.0040 -0.2470  0.2296
 7198W        W11249   2.938   9.807   2.217  0.0450 -0.0729  0.0010
 7199W        W11250   6.435   3.022  11.941 -0.0457 -0.0018 -0.0413
 7200W        W11251   1.499   3.934   0.874  0.1475 -0.1393 -0.1485
 7201W        W11252   9.273   6.404  11.499  0.2179 -0.0049 -0.0308
 7202W        W11253   3.342   3.771  11.788  0.3158 -0.1566  0.2314
 7203W        W11254   8.240   8.520  13.801 -0.2115  0.0059  0.2709
 7204W        W11255   6.209   7.705  11.143  0.0695 -0.2114  0.0716
 7205W        W11256   7.468   3.857   3.490 -0.0978 -0.1942 -0.0384
 7206W        W11257   5.278   0.830  11.221 -0.1228  0.2651 -0.0331
 7207W        W11258   9.538   2.595   9.046 -0.1260 -0.0460 -0.3285
 7208W        W11259   4.695   9.754  12.558  0.1077 -0.1887 -0.2911
 7209W        W11260   6.471   4.921   2.006 -0.0426  0.1213 -0.1525
 7210W        W11261   5.632   4.075   3.468 -0.0965 -0.0052  0.1690
 7211W        W11262   5.134   5.512   5.176 -0.0732 -0.0997 -0.0655
 7212W        W11263   2.075   5.076   0.827 -0.1791  0.0839  0.1356
 7213W        W11264   2.783   3.779   4.144 -0.1814 -0.2539  0.1913
 7214W        W11265   2.604   2.606   1.133 -0.3502  0.0900 -0.0071
 7215W        W11266   3.498   7.436   0.817  0.3161  0.0373  0.0198
 7216W        W11267   1.251   2.089  10.069  0.0574 -0.3547 -0.4059
 7217W        W11268   4.712   0.750  11.463  0.2655  0.0939  0.3566
 7218W        W11269   7.907   0.321   4.788  0.0067  0.2811 -0.1622
 7219W        W11270   6.066   8.362  12.754 -0.0183 -0.1550 -0.0974
 7220W        W11271   4.348   0.422   1.319 -0.2746  0.0164 -0.1981
 7221W        W11272   2.906   8.921   4.143  0.0765  0.2293 -0.0384
 7222W        W11273   0.100   0.547   1.636  0.1523  0.2802 -0.0495
 7223W        W11274   7.104   8.570  11.497  0.0675 -0.1087  0.1696
 7224W        W11275   2.249   3.473   0.607  0.2974 -0.0521 -0.1803
 7225W        W11276   0.822   3.964   3.011 -0.0156  0.0920 -0.1966
 7226W        W11277   9.399   9.789  12.442 -0.0214  0.1134 -0.1323
 7227W        W11278   4.358   3.503   4.588 -0.2559  0.2856 -0.0187
 7228W        W11279   4.434   5.089   3.894 -0.4922 -0.3295  0.0089
 7229W        W11280   3.663   7.840  11.100  0.3166 -0.1864 -0.3231
 7230W        W11281   4.578   2.488   4.416  0.5086 -0.0702 -0.0188
 7231W        W11282   5.641   6.160  10.223 -0.0074 -0.3023 -0.2476
 7232W        W11283   9.567   6.687   2.348  0.1461 -0.1322 -0.0324
 7233W        W11284   3.418   3.680  13.885 -0.0269  0.1468 -0.3172
 7234W        W11285   2.731   4.726  11.808 -0.0390 -0.0740 -0.1188
 7235W        W11286   9.929   2.124  13.490  0.0556  0.2752 -0.0161
 7236W        W11287   2.531   5.808  10.643 -0.2681  0.0017  0.2843
 7237W        W11288   3.921   5.792  11.737 -0.2591  0.0349  0.3449
 7238W        W11289   4.623   5.263  11.938  0.1192  0.3078  0.2307
 7239W        W11290   5.056   1.843   9.226 -0.1942 -0.0620  0.4124
 7240W        W11291   6.530   9.480   3.353 -0.1256 -0.0986 -0.0562
 7241W        W11292   6.936   4.114   0.896  0.1282  0.1570 -0.0449
 7242W        W11293   3.630   6.781   1.659  0.1264 -0.0276 -0.2357
 7243W        W11294   5.044   2.159  10.243  0.0897 -0.2615 -0.2586
 7244W        W11295   8.343   5.009  12.967  0.3331 -0.1337  0.0570
 7245W        W11296   7.848   9.582   0.197  0.1102 -0.0476 -0.5664
 7246W        W11297   7.801   2.175   0.217 -0.0729 -0.0143 -0.1775
 7247W        W11298   6.226   9.644  12.651 -0.2293  0.3952 -0.2608
 7248W        W11299   0.872   3.783  12.936  0.0149 -0.0459  0.1780
 7249W        W11300   1.628   9.167  12.728  0.0489  0.2216 -0.1549
 7250W        W11301   6.065   3.897   5.670 -0.0360  0.1883 -0.0910
 7251W        W11302   6.138   4.990   3.169 -0.2491 -0.1106  0.1512
 7252W        W11303   5.141   9.109   2.324  0.2035  0.1138 -0.2217
 7253W        W11304   6.214   1.260   1.451 -0.1848  0.2829 -0.1306
 7254W        W11305   5.006   5.647   1.213 -0.1197  0.2013  0.0659
 7255W        W11306   4.976   3.783  11.213 -0.2365 -0.1860 -0.3624
 7256W        W11307   1.907   7.320   3.115  0.0491 -0.3215 -0.1480
 7257W        W11308   3.528   2.095   9.704  0.4298  0.0887 -0.1201
 7258W        W11309   8.770   7.394  13.157  0.4606  0.1569 -0.0028
 7259W        W11310  10.082   3.636  10.400  0.0185 -0.0077  0.0168
 7260W        W11311   2.580   1.089   4.280  0.1279  0.0798 -0.0189
 7261W        W11312   4.844   9.080   1.845 -0.5387 -0.0623  0.1593
 7262W        W11313   1.057   4.351  13.766  0.1103 -0.0166  0.1117
 7263W        W11314   9.630   2.405  11.947  0.1269  0.2851 -0.2241
 7264W        W11315   2.520   9.812   0.227 -0.1885  0.2378  0.3639
 7265W        W11316   3.644   4.896  10.664  0.0745  0.0987  0.0498
 7266W        W11317   3.285   8.834  10.228  0.0822  0.1901  0.0745
 7267W        W11318  10.023   6.169   1.872 -0.0444 -0.0737 -0.0115
 7268W        W11319   4.316   4.983   2.629 -0.1071 -0.3035 -0.2700
 7269W        W11320   4.379   8.011   2.523 -0.0150 -0.0670  0.1270
 7270W        W11321   8.182   3.456   3.124  0.0200  0.2132 -0.1020
 7271W        W11322   0.262   9.254  12.399  0.2761  0.1492 -0.1541
 7272W        W11323   1.970   3.308  13.760  0.3145 -0.0270  0.3094
 7273W        W11324   5.784   8.873   4.370  0.0551 -0.4245  0.2541
 7274W        W11325   1.914   7.112   0.066  0.1593 -0.0783 -0.0856
 7275W        W11326   8.788   6.742   1.206  0.1003 -0.2720  0.3756
 7276W        W11327   3.752   7.470  12.508 -0.1187  0.2156  0.0292
 7277W        W11328   5.683   3.890  12.768  0.2180  0.0527  0.3590
 7278W        W11329   5.143   6.742   9.850  0.2341  0.2722 -0.0428
 7279W        W11330   4.707  10.084  10.069 -0.0132  0.0781  0.4069
 7280W        W11331   7.947   1.955  12.739 -0.0993  0.0080 -0.0432
 7281W        W11332   0.475   9.920   1.069  0.2759 -0.3065  0.0905
 7282W        W11333   0.757   1.199   0.465  0.2190 -0.1320  0.0460
 7283W        W11334   0.772   5.850  13.402 -0.2497  0.2261 -0.0241
 7284W        W11335   9.463   9.393  11.560  0.0630  0.1968  0.1135
 7285W        W11336   4.668   9.818   2.435  0.0783  0.1461 -0.0471
 7286W        W11337   7.425   1.919   0.446 -0.0303 -0.1846 -0.0673
 7287W        W11338   3.555   0.299   2.890  0.1159 -0.3374  0.4962
 7288W        W11339   2.102   8.613  11.039 -0.1953  0.1401 -0.2313
 7289W        W11340   2.254   5.957   0.013  0.1265  0.2133 -0.2400
 7290W        W11341   7.748   4.669   2.991 -0.0119 -0.2211 -0.2831
 7291W        W11342   6.411   8.267   5.301  0.2797 -0.2652  0.2170
 7292W        W11343   0.650   5.270  12.404  0.1904 -0.0256 -0.1183
 7293W        W11344   7.518  10.058  13.287  0.0854 -0.1888  0.6213
 7294W        W11345   7.445   8.084  13.663 -0.4757 -0.0051 -0.1304
 7295W        W11346   0.534   6.986  12.918  0.0289  0.0355 -0.0265
 7296W        W11347   0.710   9.841  13.593  0.1125  0.1418 -0.1304
 7297W        W11348   3.149   7.080  10.723 -0.0080  0.1149  0.0756
 7298W        W11349   2.712   0.115  12.264  0.0468  0.0212 -0.0034
 7299W        W11350   2.498   4.173  10.674 -0.0498 -0.0676  0.0337
 7300W        W11351   6.735   1.783  10.953 -0.2107 -0.0934 -0.2032
 7301W        W11352   2.325   6.705  11.024 -0.2892  0.2046  0.0544
 7302W        W11353   2.373   3.917  12.101 -0.3044 -0.0852 -0.1481
 7303W        W11354   0.002   1.937  11.400 -0.1017  0.1350  0.0086
 7304W        W11355   0.764   8.115  11.878 -0.0820 -0.2713  0.0970
 7305W        W11356   4.733   6.260   4.356  0.4076  0.1204 -0.0494
 7306W        W11357   4.537   3.903  11.981  0.0428 -0.3673 -0.1700
 7307W        W11358  10.117   5.005  10.221  0.1273  0.1559 -0.1368
 7308W        W11359   6.432   3.138   0.120  0.0489  0.1856 -0.3260
 7309W        W11360   4.151   3.023   2.255 -0.0220 -0.0091 -0.0488
 7310W        W11361   4.241   6.253  12.443 -0.6480  0.1367 -0.1027
 7311W        W11362   5.129   9.553   0.745  0.0660  0.1845  0.1593
 7312W        W11363   1.406   0.721  12.270 -0.1831  0.0029  0.0157
 7313W        W11364   2.863   4.173   0.533 -0.1082  0.0830 -0.0435
 7314W        W11365   9.205   3.074   0.046 -0.0846  0.1916  0.1768
 7315W        W11366   2.982   1.269   9.324  0.0444 -0.1900 -0.1329
 7316W        W11367   5.346   0.974   9.628  0.1173  0.1679 -0.1283
 7317W        W11368   1.471   2.653   4.555  0.0713  0.1093  0.2313
 7318W        W11369   9.322   9.507   9.784  0.2152  0.0802 -0.0834
 7319W        W11370   8.923   1.372   4.361 -0.0531 -0.1517 -0.1178
 7320W        W11371   3.141   2.752  13.544  0.0919 -0.0041  0.1650
 7321W        W11372   2.086   2.554  10.299 -0.1958  0.2083  0.1834
 7322W        W11373   5.660   6.147   2.384 -0.0329  0.1354 -0.2466
 7323W        W11374   0.237   4.139   0.331  0.0627 -0.3576  0.1595
 7324W        W11375   1.258   5.503   3.518 -0.1948 -0.0474 -0.0098
 7325W        W11376   2.453   6.307  13.533 -0.1041  0.1086 -0.1900
 7326W        W11377   5.705   9.465   1.736  0.1599  0.1097  0.0887
 7327W        W11378   0.630   5.061  11.926 -0.0543  0.3148 -0.1517
 7328W        W11379   7.017   9.639   0.699 -0.5017  0.0867 -0.1262
 7329W        W11380   4.781   7.359   0.991  0.0254 -0.1104  0.0375
 7330W        W11381   8.846   0.596  11.407  0.1671  0.3976  0.2636
 7331W        W11382   4.794   0.999   2.458 -0.0377 -0.0566  0.0459
 7332W        W11383   8.319   1.632   0.701 -0.1073 -0.1395 -0.0955
 7333W        W11384   2.387   4.588  10.413  0.0033  0.2022 -0.1950
 7334W        W11385   0.788   3.702   3.772 -0.0035 -0.0591  0.1553
 7335W        W11386   6.224   1.006   1.912 -0.0958  0.0929 -0.0328
 7336W        W11387   4.048   6.001  10.013  0.0749  0.2989 -0.2049
 7337W        W11388   6.349   9.992  13.055 -0.2274 -0.3150  0.1319
 7338W        W11389   5.695   4.623   1.383 -0.0869  0.2363 -0.1133
 7339W        W11390   2.243   9.006   8.887 -0.1242  0.1290 -0.1733
 7340W        W11391   6.459   3.915   1.833 -0.2715 -0.4070 -0.2441
 7341W        W11392   2.565   9.395  12.892  0.2176  0.1674  0.2541
 7342W        W11393   2.873   4.440   3.701  0.0907 -0.0692 -0.0414
 7343W        W11394   7.632   3.236  11.152  0.1651 -0.1870  0.0710
 7344W        W11395   7.437   8.277  11.718 -0.2527 -0.0966 -0.0864
 7345W        W11396   9.568   3.216   1.521 -0.2439 -0.1347  0.3149
 7346W        W11397   3.379   7.270  12.043  0.2269  0.1775 -0.0938
 7347W        W11398   2.271   5.646  13.452 -0.1491  0.2301 -0.2478
 7348W        W11399   9.108   3.078   4.137  0.1456  0.1306 -0.1180
 7349W        W11400   2.411   6.393  12.804 -0.0808  0.3754 -0.1105
 7350W        W11401   4.685   9.328  12.335  0.0445 -0.2001  0.0661
 7351W        W11402   4.270  10.166   1.651 -0.1400 -0.0357  0.3441
 7352W        W11403   2.258   1.341  12.291  0.1372  0.0907  0.0039
 7353W        W11404   9.502   5.756   0.233  0.0498  0.1412  0.0787
 7354W        W11405   6.197   5.352   1.894  0.0447  0.1883 -0.1674
 7355W        W11406   9.121   4.268   4.816 -0.5166 -0.1123 -0.1350
 7356W        W11407   0.164   5.933   1.526  0.0031 -0.0528 -0.1340
 7357W        W11408   8.899   9.432  13.266  0.1909 -0.0664  0.0268
 7358W        W11409   4.722   5.581  11.253  0.1648 -0.0316 -0.1828
 7359W        W11410   8.251   2.337   4.960  0.2431 -0.1164  0.1523
 7360W        W11411   1.680   4.668   3.743  0.2121  0.4359  0.1179
 7361W        W11412   9.793   1.280  12.973  0.3857 -0.1267 -0.0216
 7362W        W11413   7.418   0.762   3.948  0.0428  0.3849  0.0284
 7363W        W11414   6.527   7.359   3.769  0.0101 -0.3925 -0.1625
 7364W        W11415   8.630   8.457  10.324  0.1619  0.0161  0.0259
 7365W        W11416   3.131   8.230   0.819  0.0953  0.1051 -0.4569
 7366W        W11417   7.023   1.443  10.746 -0.0728  0.2092  0.0980
 7367W        W11418   3.898   2.110  12.727  0.0771 -0.3084  0.0887
 7368W        W11419   4.237   7.872   4.050  0.1887 -0.3026 -0.0491
 7369W        W11420   9.492   0.684   4.263  0.0939 -0.2113 -0.1205
 7370W        W11421   7.524   8.124   1.770 -0.1889  0.2644 -0.1077
 7371W        W11422   5.442   3.562  10.439 -0.0411  0.0559  0.2236
 7372W        W11423   0.080   9.236   1.201  0.0961  0.1616 -0.2177
 7373W        W11424   3.297   2.218  12.153 -0.3341  0.3321 -0.0450
 7374W        W11425   5.620   8.895  12.093  0.3360 -0.0821 -0.2249
 7375W        W11426  10.067   1.667   3.942 -0.0996 -0.0248  0.0525
 7376W        W11427   5.307   4.021  10.150  0.1169 -0.1869 -0.0463
 7377W        W11428   9.166   0.948   1.944  0.1270 -0.1745 -0.1877
 7378W        W11429   1.935   0.154   5.487  0.0832  0.2045 -0.0013
 7379W        W11430   1.807   2.288   0.896 -0.0573 -0.0828 -0.1105
 7380W        W11431   7.982   4.798  12.116 -0.2423 -0.0804  0.3734
 7381W        W11432   6.660   9.267   4.199 -0.0875 -0.2325 -0.0221
 7382W        W11433   3.462   0.619   3.533  0.3568  0.0807  0.1533
 7383W        W11434   9.628   4.313   3.922  0.1616 -0.0321 -0.0425
 7384W        W11435   9.627   9.468   1.932 -0.1074 -0.1347  0.0682
 7385W        W11436   9.849   0.087  11.559  0.2101 -0.1909 -0.0201
 7386W        W11437   1.045   4.116  10.020  0.2684  0.0118 -0.0360
 7387W        W11438   8.878   0.838   4.123  0.1605  0.0922 -0.0697
 7388W        W11439   0.524   7.215   1.179  0.0343  0.0897  0.0366
 7389W        W11440   1.750   7.352  11.655 -0.0147  0.0688 -0.2417
 7390W        W11441   8.014   5.145   3.592 -0.0374  0.3303 -0.1527
 7391W        W11442   8.191   6.620  11.890  0.0538  0.0001  0.0176
 7392W        W11443   4.819   4.564  13.726  0.2420 -0.4251 -0.1506
 7393W        W11444   7.189   3.288   2.538 -0.1623  0.2462  0.2220
 7394W        W11445   2.628   0.319   8.907  0.1034  0.0526  0.0772
 7395W        W11446   3.595   5.963  11.147 -0.2989  0.0208 -0.1368
 7396W        W11447   7.517   3.239  10.618 -0.1555  0.0905 -0.0841
 7397W        W11448   3.739   9.924   2.819 -0.0425  0.2098  0.0235
 7398W        W11449   4.262   8.300   5.268 -0.2436 -0.0413  0.1318
 7399W        W11450   9.274   5.907  11.609 -0.1481  0.0155  0.0217
 7400W        W11451   2.085   9.182   2.513 -0.2807  0.2067  0.2192
 7401W        W11452   8.046   0.299  13.897  0.0889  0.1164  0.2797
 7402W        W11453   7.584   7.721  11.893 -0.1211  0.1366 -0.3580
 7403W        W11454   0.108   0.921  13.847 -0.1708 -0.1861 -0.0096
 7404W        W11455   5.347   4.041   3.895  0.1989  0.2563  0.0047
 7405W        W11456   3.287   5.423   4.426 -0.1683 -0.0759 -0.1477
 7406W        W11457   3.323   4.386   2.226  0.0075  0.1858  0.0194
 7407W        W11458   7.195   3.421  10.182  0.2041 -0.2179 -0.1564
 7408W        W11459   8.526   9.461  12.862 -0.0343  0.1428  0.2119
 7409W        W11460   7.700   9.167  13.047  0.1031  0.0114  0.0132
 7410W        W11461   1.528   5.642   2.635  0.0656 -0.3302 -0.0892
 7411W        W11462   2.923   7.271   3.642  0.0414  0.4652  0.0247
 7412W        W11463   9.856   8.440   0.854  0.0040 -0.2436 -0.0420
 7413W        W11464   3.526   9.343  12.521 -0.1822  0.2945  0.3062
 7414W        W11465   8.974   0.843   3.069  0.1153  0.0823  0.1776
 7415W        W11466   7.952   7.739   0.520 -0.2157 -0.1911 -0.2424
 7416W        W11467   0.196   5.447   3.904  0.0596 -0.0591 -0.0681
 7417W        W11468   3.793   5.555   0.397  0.5064 -0.1367  0.3057
 7418W        W11469   1.170   6.659   1.721  0.1845 -0.0910  0.2399
 7419W        W11470   4.376   6.175   9.618 -0.2092 -0.0130  0.1695
 7420W        W11471   5.911   1.604   8.564  0.0248  0.2857 -0.1963
 7421W        W11472   9.488   0.065  11.907 -0.1693  0.0210 -0.2088
 7422W        W11473   6.623   3.908  12.261 -0.0897  0.1651 -0.0815
 7423W        W11474   7.212   5.454   1.638 -0.0943  0.0213  0.0356
 7424W        W11475   7.739   7.440   2.026 -0.0673 -0.0179  0.0075
 7425W        W11476   9.172   4.149  12.994  0.1108 -0.0637  0.3219
 7426W        W11477   7.559   4.493   1.549  0.3282 -0.4036 -0.3880
 7427W        W11478   6.512   2.123  11.717  0.1614  0.1152  0.0597
 7428W        W11479   7.763  10.185   3.961  0.1641 -0.0311 -0.0575
 7429W        W11480   2.965   8.610  12.589  0.1311 -0.0285 -0.4127
 7430W        W11481   4.539   9.091   9.035 -0.1749  0.0159 -0.2021
 7431W        W11482   2.063   6.135   0.744  0.0857 -0.0894 -0.1099
 7432W        W11483   4.649   3.449   0.403  0.0790 -0.0088  0.3240
 7433W        W11484   7.063   4.245   5.636  0.1251 -0.0479  0.2297
 7434W        W11485   6.579   0.794   3.621 -0.3301  0.2521 -0.0687
 7435W        W11486   7.277   0.073   1.171  0.0709  0.0576 -0.0009
 7436W        W11487   3.485   5.601  11.537 -0.4057  0.0535  0.2323
 7437W        W11488   2.138   6.879   1.453 -0.0700  0.2225 -0.2019
 7438W        W11489   1.127   6.557   0.256 -0.1851 -0.1448  0.1347
 7439W        W11490   9.842   6.739   1.330 -0.0821  0.2229 -0.1476
 7440W        W11491   1.896   8.737  12.789 -0.1853 -0.1628 -0.2429
 7441W        W11492   4.569   3.264   2.636  0.0493  0.0279  0.0781
 7442W        W11493   1.033  10.183   0.967 -0.0881 -0.1649  0.0168
 7443W        W11494   6.223   1.059   9.200  0.3838 -0.0648 -0.0875
 7444W        W11495   8.220   6.564   9.676  0.0702  0.2346  0.1206
 7445W        W11496   7.824   9.419   4.282 -0.1575  0.1238  0.1299
 7446W        W11497   9.854   9.490   1.132 -0.2175 -0.2017  0.1012
 7447W        W11498   8.752  10.176   3.400  0.0335  0.0787 -0.0253
 7448W        W11499   7.534   7.081  13.761  0.0658 -0.0075  0.1952
 7449W        W11500   7.967   4.215   3.129 -0.0774  0.1176  0.1607
 7450W        W11501   0.698   1.064  10.678  0.0967 -0.1911  0.0663
 7451W        W11502   4.380   9.516   4.346 -0.1493 -0.1032 -0.0401
 7452W        W11503   9.853   0.036   9.994  0.1387 -0.0636  0.2527
 7453W        W11504   0.562   4.159  11.167  0.1466 -0.0925 -0.4513
 7454W        W11505   8.096   7.618  12.009  0.0730 -0.2023 -0.1151
 7455W        W11506   9.822   0.785   1.815 -0.1060 -0.1012 -0.1109
 7456W        W11507   7.490   2.808   2.465  0.1744 -0.3360  0.0083
 7457W        W11508   9.585   8.423  10.330 -0.2340  0.0392 -0.4039
 7458W        W11509  10.061   0.932   1.421 -0.2337  0.0199 -0.1016
 7459W        W11510   6.071   9.935   0.351 -0.1025  0.0455 -0.1164
 7460W        W11511   8.112   4.788  10.024 -0.0016 -0.2330 -0.0080
 7461W        W11512   8.418   1.781  11.968 -0.5041 -0.1254  0.0710
 7462W        W11513   2.778   7.940   2.278  0.2175 -0.1260  0.4021
 7463W        W11514   9.079   2.979   0.935 -0.0861  0.1714 -0.1613
 7464W        W11515   7.912   0.310  11.568 -0.0573  0.0165 -0.2311
 7465W        W11516   2.813   9.524   3.383 -0.0402 -0.0945  0.0845
 7466W        W11517   7.635   4.535   2.074 -0.0413 -0.1699  0.0296
 7467W        W11518   3.326   7.673  12.645  0.1804 -0.1267 -0.0581
 7468W        W11519   5.158   4.229   1.509  0.2404  0.0785  0.0989
 7469W        W11520   2.820   4.617   0.367  0.2088 -0.0713 -0.0929
 7470W        W11521   7.550   1.218   5.126  0.2567  0.0361 -0.0714
 7471W        W11522   5.642   2.370   4.389 -0.2654 -0.2421 -0.0688
 7472W        W11523   4.647   2.425   0.273 -0.1142  0.5318 -0.1016
 7473W        W11524   9.651   0.822  13.165  0.1011 -0.1282 -0.2214
 7474W        W11525   5.707   2.469   0.151 -0.1327 -0.0006 -0.1336
 7475W        W11526   3.799   7.481   2.456  0.1178  0.0278  0.0700
 7476W        W11527   8.453   7.643   3.106 -0.0553 -0.3552 -0.0875
 7477W        W11528   9.259   3.616   4.285 -0.0233 -0.1063  0.4049
 7478W        W11529   2.648   7.021  10.738 -0.0581 -0.1565 -0.1501
 7479W        W11530   3.199   3.646  13.051  0.1539  0.1947  0.2462
 7480W        W11531   4.288   5.949   1.597  0.2356  0.2115 -0.0761
 7481W        W11532   5.876   9.076   3.080 -0.0516  0.1680  0.2682
 7482W        W11533   9.656   1.338  13.482  0.0883  0.1634 -0.1402
 7483W        W11534   6.295   8.738  10.952 -0.0778 -0.1631  0.3545
 7484W        W11535   4.324   5.949  11.084  0.2488 -0.3428  0.0008
 7485W        W11536   2.212   2.477  13.560 -0.0725 -0.0156  0.0209
 7486W        W11537   6.640   9.114   3.709  0.1184 -0.0792 -0.1860
 7487W        W11538   2.827   7.728  10.069  0.0534 -0.2390 -0.5011
 7488W        W11539   4.701   1.136   3.963  0.1137 -0.4060 -0.0290
 7489W        W11540   0.836   2.593   0.126  0.0423  0.1225 -0.4241
 7490W        W11541   7.515   7.022   3.683 -0.1082  0.0525 -0.0224
 7491W        W11542   5.504   7.929   0.130  0.1389 -0.0662 -0.0124
 7492W        W11543  10.153   3.845   1.671  0.2626  0.3257  0.3961
 7493W        W11544   4.236   2.176  11.865  0.0923  0.0954  0.2683
 7494W        W11545   0.207   5.286   3.274  0.0932  0.3743  0.0021
 7495W        W11546   4.753   9.958   1.509 -0.2016  0.0010  0.2568
 7496W        W11547   7.770   8.671  13.086 -0.1105 -0.2340 -0.3153
 7497W        W11548   7.473   7.243  11.961  0.0037  0.1043  0.2103
 7498W        W11549   6.192   5.608   3.642  0.0395 -0.1329 -0.1162
 7499W        W11550   7.692   0.886   0.293 -0.1766  0.2708  0.1536
 7500W        W11551   5.264   7.116   4.440  0.1368  0.2131  0.0165
 7501W        W11552   2.983   7.969  11.805 -0.0824 -0.1621  0.1830
 7502W        W11553   3.449   2.429   3.414 -0.0986  0.0731 -0.1283
 7503W        W11554   2.541   0.117   0.075  0.0753  0.1201  0.1188
 7504W        W11555   3.065   5.239   1.306  0.0394  0.0362 -0.3335
 7505W        W11556   9.752   1.939  11.118 -0.1196  0.2582  0.3734
 7506W        W11557   5.452   4.968   1.697  0.1457 -0.1534  0.1501
 7507W        W11558   5.451   9.110  11.113  0.0318  0.0160 -0.3191
 7508W        W11559   0.281   4.155   1.339  0.2608 -0.0648  0.0962
 7509W        W11560   8.662   9.481   2.175 -0.0096  0.1607 -0.2283
 7510W        W11561   5.214   8.440  13.252  0.1630  0.0349 -0.1012
 7511W        W11562   5.714   7.434   2.190 -0.2315  0.0389 -0.1663
 7512W        W11563   8.449   2.095   5.439  0.5838 -0.1220 -0.2085
 7513W        W11564   4.702   8.177   2.969  0.2705  0.3287  0.1321
 7514W        W11565   8.172   7.284  12.453 -0.4411  0.2948 -0.0407
 7515W        W11566   6.744   8.668   0.234 -0.1216  0.0440  0.0119
 7516W        W11567   7.303   2.793  10.356 -0.0346 -0.1637  0.1108
 7517W        W11568   7.267   6.152  11.206  0.1161 -0.3002  0.0406
 7518W        W11569   8.553   7.561   9.908  0.2325 -0.0349 -0.2361
 7519W        W11570   5.711   1.884  12.633  0.1423  0.2919 -0.1980
 7520W        W11571   9.445   8.308  12.950  0.2027  0.0588  0.2907
 7521W        W11572  10.008   5.366   0.865  0.0365  0.1292 -0.2679
 7522W        W11573   5.454   0.639   2.657 -0.1389 -0.0692  0.0509
 7523W        W11574   0.298   1.412   3.584 -0.0073 -0.0474 -0.2737
 7524W        W11575   0.555   3.141  10.033 -0.0347 -0.1607  0.0001
 7525W        W11576   9.984   6.633   1.866  0.1213  0.0456  0.0326
 7526W        W11577   6.758   3.193  11.008  0.0609  0.3047  0.0387
 7527W        W11578   9.188   6.572  13.753  0.0260  0.0703 -0.1704
 7528W        W11579   2.150   5.472   0.010  0.1807 -0.1674 -0.1666
 7529W        W11580   9.183   7.509   3.184 -0.1155  0.2730  0.2777
 7530W        W11581  10.159   3.276  10.719  0.0440  0.3219 -0.2440
 7531W        W11582   5.164   5.769  13.018  0.1116 -0.0694 -0.1654
 7532W        W11583   7.573   1.736  12.474  0.1219 -0.0168  0.0388
 7533W        W11584   8.039   5.096   2.450  0.0045 -0.0229  0.0901
 7534W        W11585   3.198   6.663  13.867  0.0043 -0.1168 -0.1247
 7535W        W11586   4.686   6.078  11.487  0.1455 -0.1111 -0.1818
 7536W        W11587   6.714   5.475  12.339  0.1676 -0.0833  0.0319
 7537W        W11588   9.131   4.560  11.918 -0.2341  0.2540 -0.3945
 7538W        W11589   6.053  10.003   2.930  0.0913  0.1404  0.5544
 7539W        W11590   1.648   5.218   2.417 -0.0264  0.3472 -0.0543
 7540W        W11591   8.917   2.258   3.319  0.1941 -0.3856 -0.2655
 7541W        W11592   7.230   2.991  10.978  0.1306  0.2132 -0.0175
 7542W        W11593   9.943   6.125   3.281 -0.0211  0.0906  0.1698
 7543W        W11594   4.969   4.695  11.182  0.1790 -0.0280  0.1252
 7544W        W11595   2.291   2.126   3.075 -0.2646 -0.0217 -0.3182
 7545W        W11596   5.744   5.811  13.058 -0.1304 -0.0870  0.0787
 7546W        W11597   0.286   9.080  12.885  0.0400  0.1598  0.0982
 7547W        W11598   8.911   1.090  10.402 -0.3468 -0.3006  0.0028
 7548W        W11599   8.961   5.207   3.907 -0.0179  0.0526  0.2271
 7549W        W11600   3.185   9.309  11.971 -0.1954 -0.2154  0.2927
 7550W        W11601   7.626   1.841   0.881 -0.0731 -0.3026 -0.0164
 7551W        W11602   2.083   7.068  12.392  0.0480  0.1997  0.2586
 7552W        W11603  10.119   1.194  12.217 -0.0312  0.0264  0.2524
 7553W        W11604   4.913   2.746   5.666 -0.1318 -0.2069 -0.1811
 7554W        W11605   2.416   8.818   9.836  0.2955 -0.1147  0.1876
 7555W        W11606   2.290   8.362  13.011 -0.0865  0.3018 -0.0205
 7556W        W11607   9.626   9.960  11.066 -0.0748  0.0546 -0.1903
 7557W        W11608   8.613   7.074   2.101 -0.1292 -0.1847  0.3193
 7558W        W11609   4.030   5.780   3.363  0.1441 -0.1059 -0.3023
 7559W        W11610   2.358   3.537  10.449  0.0607 -0.1533  0.0441
 7560W        W11611   5.627   3.492   1.100  0.1984 -0.1293 -0.1311
 7561W        W11612   2.080   4.148  10.431 -0.0165  0.1056 -0.5014
 7562W        W11613   2.160   0.675   2.620 -0.0073 -0.0549 -0.0008
 7563W        W11614   8.399   2.593  12.096 -0.1162 -0.0128 -0.4458
 7564W        W11615   4.554   6.055  10.082 -0.2887  0.0296  0.4879
 7565W        W11616   4.482   0.203   4.084 -0.0008 -0.0928 -0.1040
 7566W        W11617   3.983   9.431  11.840  0.0527  0.0085  0.3541
 7567W        W11618   9.937   9.906  13.698 -0.1079 -0.0099  0.0727
 7568W        W11619   1.841   3.228   3.443  0.0243 -0.0156  0.1364
 7569W        W11620   7.136   5.251   3.222  0.2295  0.1475 -0.1257
 7570W        W11621   1.915   2.164  11.508  0.1460  0.1061  0.2981
 7571W        W11622   1.481   7.023   1.984  0.1163  0.1566 -0.2706
 7572W        W11623   1.345   1.685   1.133 -0.1587 -0.0978 -0.3388
 7573W        W11624   6.472   7.482   0.956 -0.0302 -0.5650 -0.0241
 7574W        W11625   0.380   8.581  11.253 -0.2767  0.3670 -0.2959
 7575W        W11626   5.438   7.309  11.488  0.0056 -0.0771 -0.0655
 7576W        W11627   9.716   4.180  11.769  0.1067  0.2283 -0.1004
 7577W        W11628   8.516   5.293  13.660  0.0212  0.1935 -0.2510
 7578W        W11629   7.886   1.735   2.756 -0.0299 -0.1581  0.0966
 7579W        W11630   7.639   6.243   4.593  0.1594 -0.0799 -0.1714
 7580W        W11631   1.119   1.038  10.322  0.2286 -0.0594 -0.2946
 7581W        W11632   0.336   4.708   9.572  0.0794  0.2321  0.0403
 7582W        W11633   5.120   8.254  12.760  0.0930  0.1546  0.1391
 7583W        W11634   4.991   5.646   8.921 -0.0280 -0.0758  0.1839
 7584W        W11635   7.555   3.272   8.553  0.0514 -0.2725  0.2333
 7585W        W11636   7.214   3.124   0.909  0.1864 -0.1853  0.3193
 7586W        W11637   8.114   8.765   0.337  0.0656 -0.2093 -0.0309
 7587W        W11638   3.650   3.835   1.820  0.1767  0.0639 -0.1361
 7588W        W11639  10.013   2.171  12.153  0.3069  0.0437 -0.1420
 7589W        W11640   5.744   0.186   9.129  0.1835  0.0065 -0.1519
 7590W        W11641   1.246   0.473  11.577 -0.1294  0.0044  0.0812
 7591W        W11642   3.512   7.357   3.117  0.2144  0.1325 -0.0605
 7592W        W11643   0.001   7.277   1.386  0.4859  0.1491  0.1373
 7593W        W11644   8.472   8.163   3.096  0.3069 -0.0347 -0.1511
 7594W        W11645   3.436   0.341   0.292  0.1762  0.0041  0.0628
 7595W        W11646   2.869   6.245  12.721 -0.1186 -0.0265 -0.0959
 7596W        W11647   9.517   3.585   3.516  0.0486  0.2616  0.0885
 7597W        W11648   7.657   5.553   3.165  0.0415 -0.2753  0.1274
 7598W        W11649   6.643   1.674  10.001  0.3235 -0.0213  0.0458
 7599W        W11650   6.362   6.956  13.404 -0.0319 -0.0179 -0.1564
 7600W        W11651   8.890   1.199  13.680  0.2964 -0.3096  0.1927
 7601W        W11652   4.765   2.826   1.127 -0.1784  0.1258 -0.2905
 7602W        W11653   3.271   8.150  10.888  0.1166  0.0701 -0.0120
 7603W        W11654   9.022   1.969   1.000 -0.0312 -0.0682  0.0379
 7604W        W11655   5.778   3.086   1.877 -0.0265 -0.0988  0.0087
 7605W        W11656   9.078   8.981  12.342 -0.0494 -0.1039  0.0026
 7606W        W11657   2.453   3.982   0.316 -0.1378  0.1049 -0.3024
 7607W        W11658   0.543   7.950  10.063  0.0680 -0.2006 -0.0931
 7608W        W11659   2.835   2.862   3.125  0.1999  0.1678  0.1874
 7609W        W11660   1.292  10.182   4.792 -0.1432  0.2642 -0.3348
 7610W        W11661   7.350   8.353  13.212  0.0933  0.1478 -0.3236
 7611W        W11662   8.586   1.182   1.646  0.2280 -0.1662  0.3847
 7612W        W11663   5.144   3.403   9.159  0.0957 -0.0756 -0.4642
 7613W        W11664   0.429   4.786   3.302 -0.0762 -0.0007  0.2457
 7614W        W11665   5.804   0.316   1.363 -0.3503 -0.0218  0.0345
 7615W        W11666   4.051   3.192   4.295 -0.1995 -0.1113  0.2551
 7616W        W11667   3.517   7.095  10.307 -0.0378 -0.2073  0.0704
 7617W        W11668   7.334   6.883  11.663 -0.3391 -0.1691  0.1710
 7618W        W11669   0.596   2.739   0.954 -0.3108 -0.0442  0.0772
 7619W        W11670   9.573   8.991  13.362 -0.3651  0.0462  0.0547
 7620W        W11671   7.803   0.355  12.955 -0.0090 -0.2726 -0.3590
 7621W        W11672   0.190   9.019   0.173  0.0535 -0.1870 -0.0769
 7622W        W11673   6.488   2.258   1.662 -0.5088  0.2370  0.1959
 7623W        W11674   2.804   2.110  13.677 -0.2166  0.0017 -0.0495
 7624W        W11675   8.555   4.057  12.962  0.2734  0.0025  0.1048
 7625W        W11676   0.910   8.758   9.786 -0.0338 -0.3343  0.2743
 7626W        W11677   8.571   5.816  12.871 -0.2000 -0.1968  0.1327
 7627W        W11678   1.072  10.162   2.942  0.0683 -0.2647  0.2674
 7628W        W11679   7.773   2.244   1.527 -0.0062 -0.0908  0.0856
 7629W        W11680   4.775   4.713   5.134 -0.2536 -0.0290 -0.1345
 7630W        W11681   1.573   5.454  12.246 -0.1985  0.1330 -0.0809
 7631W        W11682   4.306   6.080   0.677  0.0466  0.1771 -0.1394
 7632W        W11683   0.874   7.267  11.649 -0.1220 -0.1232 -0.1240
 7633W        W11684   7.937   6.370   2.997 -0.0767 -0.0943  0.0473
 7634W        W11685   2.473   5.206  13.715  0.0446  0.0877 -0.3924
 7635W        W11686   8.262   9.382   0.249 -0.3030  0.1646 -0.0536
 7636W        W11687   2.563   3.034   0.927 -0.1876  0.0283 -0.2629
 7637W        W11688   0.685   7.591  10.385  0.1144  0.0549  0.0446
 7638W        W11689   9.041   1.154   5.294  0.0771 -0.0037  0.2747
 7639W        W11690   4.240   3.344  13.827 -0.0141  0.2590  0.2396
 7640W        W11691   8.958   4.646   2.110  0.0104 -0.0487  0.2724
 7641W        W11692   8.154   2.988   2.541  0.2798  0.1384 -0.2182
 7642W        W11693   3.476   7.908   2.355 -0.3719 -0.0528 -0.0844
 7643W        W11694   7.128   7.911  13.343  0.0289 -0.0556  0.2517
 7644W        W11695   2.339   3.087   3.444 -0.0209 -0.1087 -0.3608
 7645W        W11696   8.399   4.527   2.298 -0.2960 -0.2192  0.2364
 7646W        W11697   5.294   1.604  10.952 -0.1215  0.1836  0.1675
 7647W        W11698   0.295   1.310   8.835  0.0197  0.0776 -0.0754
 7648W        W11699   3.870   8.123   1.315  0.2952 -0.1277  0.0809
 7649W        W11700   6.312   2.552  11.423 -0.0399 -0.2902 -0.0986
 7650W        W11701   7.572   5.558   0.574 -0.1200  0.0320 -0.2803
 7651W        W11702   5.990   0.766   4.255 -0.0860 -0.1456 -0.1827
 7652W        W11703   1.698   7.143  12.702  0.1581  0.0903 -0.0567
 7653W        W11704   9.858   8.611  13.209 -0.0925 -0.0035  0.0772
 7654W        W11705   7.335   4.964  12.820  0.2897  0.2330  0.0423
 7655W        W11706  10.076   1.151  13.329 -0.0120  0.0972  0.1263
 7656W        W11707   1.044   2.222   9.148  0.0753 -0.3639  0.1837
 7657W        W11708   7.318   1.750   4.049  0.1397 -0.0096  0.0445
 7658W        W11709   5.436   7.043  13.630 -0.2261 -0.0294  0.0260
 7659W        W11710   8.185   6.799  12.867 -0.3341 -0.2660  0.1410
 7660W        W11711   9.654   6.317   3.723 -0.1711 -0.2886 -0.2189
 7661W        W11712   1.693  10.081   0.192 -0.0974 -0.2545 -0.3831
 7662W        W11713   2.509   0.006   0.579 -0.2457 -0.0061 -0.1154
 7663W        W11714   6.250   7.700   9.771 -0.0387  0.0219 -0.3249
 7664W        W11715   5.702   2.524  11.948  0.1659  0.0434 -0.0698
 7665W        W11716   3.622   0.170   3.461 -0.0024 -0.0689 -0.1323
 7666W        W11717   7.000   1.050  12.455  0.0894  0.0417  0.0469
 7667W        W11718   5.513   4.101   2.254  0.1640 -0.0379  0.0375
 7668W        W11719   8.328   0.700  10.399  0.1296  0.0615  0.2422
 7669W        W11720   2.361   2.359  12.547 -0.0469  0.1865  0.3692
 7670W        W11721   0.782   4.612  11.802 -0.0691  0.1639  0.0084
 7671W        W11722   3.005   7.157  13.413 -0.2352  0.2809 -0.0260
 7672W        W11723   6.930   5.782   4.798  0.1826 -0.2759 -0.0390
 7673W        W11724   8.745   2.876  11.835  0.0714 -0.1337  0.0580
 7674W        W11725   5.258   0.848   2.215 -0.0573  0.1273 -0.0082
 7675W        W11726   5.768   8.177   1.061 -0.0098  0.2342 -0.1067
 7676W        W11727   2.306   3.712  11.599  0.0551 -0.0657 -0.2484
 7677W        W11728   3.140   9.578   0.201  0.0283  0.2372  0.0065
 7678W        W11729   1.248   9.455   3.632 -0.1492 -0.3669 -0.0325
 7679W        W11730   3.551   1.324  11.086 -0.0242 -0.1234  0.1232
 7680W        W11731   5.775   6.886  11.614 -0.1099  0.3685  0.0570
 7681W        W11732   3.942   6.255   0.300  0.0754  0.0015 -0.1747
 7682W        W11733   0.740   3.758   1.088  0.0200  0.1265 -0.0025
 7683W        W11734   5.014   3.933  12.381 -0.2227  0.0227 -0.1507
 7684W        W11735   8.797   6.343   2.681  0.1498  0.1949 -0.2025
 7685W        W11736   4.080   3.450  11.277  0.0564  0.0788 -0.2038
 7686W        W11737   9.309   1.085   9.535  0.3760 -0.3097  0.0729
 7687W        W11738   1.930   4.658  10.405  0.1207 -0.1363 -0.0630
 7688W        W11739   8.930   2.679   4.595 -0.3019 -0.0770  0.0749
 7689W        W11740   1.018   2.065   1.322 -0.0541  0.1382  0.2032
 7690W        W11741   0.835   6.661   2.618  0.1899  0.3479  0.0074
 7691W        W11742   6.309   0.142   0.820 -0.2424 -0.0834  0.0262
 7692W        W11743   2.684   9.809  11.519  0.2007 -0.0273  0.1756
 7693W        W11744   7.064   6.501  10.170  0.1433 -0.2529 -0.0835
 7694W        W11745   3.664   4.309  11.584  0.2578  0.0365  0.2519
 7695W        W11746   8.088   1.860  13.201  0.2576 -0.1453 -0.2349
 7696W        W11747   5.612   4.659   2.858 -0.1425  0.2754 -0.2854
 7697W        W11748   3.576   9.631   1.534 -0.2232 -0.2222  0.0857
 7698W        W11749   6.341   5.326   5.429 -0.1161 -0.2271 -0.1565
 7699W        W11750   8.125   9.273   1.168 -0.1258  0.1812 -0.0949
 7700W        W11751   1.606   9.682  10.662 -0.0840  0.2268  0.2057
 7701W        W11752   3.465   9.658  12.148  0.2039 -0.0022  0.1600
 7702W        W11753   1.892   6.137  12.842  0.2493 -0.2962 -0.0929
 7703W        W11754   3.282   7.810  12.167 -0.0972 -0.0212  0.1449
 7704W        W11755   4.878   0.763  10.404  0.4070 -0.1710 -0.3035
 7705W        W11756   6.763   4.408   5.275  0.3211 -0.0888 -0.0862
 7706W        W11757  10.140   3.190   3.029  0.0791 -0.0886  0.0612
 7707W        W11758   2.305   1.422  10.303 -0.0242 -0.2392  0.2882
 7708W        W11759   3.455   2.469   0.498  0.0700 -0.0765 -0.1195
 7709W        W11760   2.930   3.970  10.072  0.0224  0.1184 -0.2316
 7710W        W11761   3.196   2.545   1.357 -0.0231  0.2002 -0.0353
 7711W        W11762   7.288   2.368  11.210 -0.1638  0.2615  0.2247
 7712W        W11763   5.554   0.105  12.654  0.4251  0.4999  0.1615
 7713W        W11764   6.941   4.752   0.166  0.3128  0.1047  0.3011
 7714W        W11765   4.149   0.959   0.426  0.1877 -0.0955 -0.2195
 7715W        W11766   5.822   1.047   0.648  0.1587 -0.0507 -0.0423
 7716W        W11767   5.401   5.672   1.658 -0.2784  0.0686 -0.0300
 7717W        W11768   3.020   9.127   3.648  0.0887 -0.0486  0.0102
 7718W        W11769   3.058   6.124  10.621 -0.1045 -0.2529  0.1756
 7719W        W11770   8.327   1.441  11.617  0.2395  0.1560  0.0143
 7720W        W11771   4.655   9.543   9.268 -0.0524  0.0469 -0.3431
 7721W        W11772   3.248   0.581   9.878 -0.0592  0.0038 -0.0573
 7722W        W11773   9.303   8.161   3.008  0.0483  0.1399 -0.1503
 7723W        W11774  10.120   3.324   3.864  0.2857  0.4859 -0.1319
 7724W        W11775   1.993   4.241   2.487 -0.1146  0.2023 -0.1455
 7725W        W11776   7.321   6.638   2.757 -0.1632 -0.1742  0.1128
 7726W        W11777   5.906   3.643  10.845 -0.2737 -0.2927  0.2191
 7727W        W11778   6.819   6.356  10.942  0.0924 -0.0529  0.4448
 7728W        W11779   8.520   1.958  12.922 -0.0079 -0.2447 -0.1432
 7729W        W11780   7.893   9.167   0.640  0.1159  0.0811 -0.0069
 7730W        W11781   7.836   5.711  13.827 -0.1404  0.1178 -0.2930
 7731W        W11782   7.603   3.015   4.190  0.1801 -0.3373 -0.1619
 7732W        W11783   3.448   0.357   1.554  0.2390  0.1014  0.2525
 7733W        W11784   2.460   0.869   5.437 -0.0059  0.3816  0.0063
 7734W        W11785   6.615   2.424   3.485  0.3013  0.1118  0.0954
 7735W        W11786   0.942   9.376   1.586 -0.0023 -0.4012 -0.2615
 7736W        W11787   4.826   8.760   3.233 -0.0076 -0.1602 -0.3576
 7737W        W11788   6.376   7.270  10.914 -0.0527 -0.1656 -0.1070
 7738W        W11789   5.521   0.933   4.123  0.1479 -0.3845  0.3234
 7739W        W11790   3.492   1.533   2.357  0.2346 -0.1287 -0.1824
 7740W        W11791   7.757   7.688   1.588 -0.1357 -0.2371 -0.1445
 7741W        W11792   2.880   2.365  11.798  0.1077 -0.1521  0.0342
 7742W        W11793   7.120   1.536  12.630 -0.1262  0.2216 -0.3121
 7743W        W11794   5.447   3.349  12.777  0.1753  0.2821  0.0736
 7744W        W11795   0.249   1.024   1.696  0.2924  0.1493  0.0412
 7745W        W11796   2.692   6.416   0.918  0.0974 -0.0843 -0.1623
 7746W        W11797   2.237   5.793   3.213 -0.0864 -0.2335  0.2339
 7747W        W11798   9.426   6.132   3.112 -0.1031 -0.0941  0.1048
 7748W        W11799   7.918   7.271   0.077  0.0567 -0.3285  0.0591
 7749W        W11800   9.199   1.790  10.946 -0.1649 -0.1312 -0.0531
 7750W        W11801   1.500   7.083   1.014  0.1335  0.1278  0.1715
 7751W        W11802   9.428   9.211   1.059  0.0273 -0.0893 -0.1049
 7752W        W11803   7.275   5.918   4.441  0.2388  0.1885 -0.2871
 7753W        W11804   7.726   2.815  13.774 -0.2771  0.1470 -0.2150
 7754W        W11805   6.459   2.111  10.214  0.0930 -0.0746 -0.0297
 7755W        W11806   4.195   2.012   2.591  0.2204  0.0524 -0.1769
 7756W        W11807   3.730   9.564   3.223 -0.1262  0.0000  0.1203
 7757W        W11808   2.150   5.592   1.308  0.0707 -0.2078  0.1690
 7758W        W11809   6.451   2.191   0.326  0.2430  0.1148 -0.2784
 7759W        W11810   6.475   7.189   4.347 -0.2742  0.0757  0.0208
 7760W        W11811   6.230   0.285   3.230  0.2633  0.0169 -0.0544
 7761W        W11812   7.740   9.696   3.762 -0.0745  0.1578  0.0639
 7762W        W11813   1.953   7.090  13.091 -0.1163  0.0118  0.2532
 7763W        W11814   8.824   7.641  10.936 -0.0770  0.1202  0.2833
 7764W        W11815   8.265   2.618   5.530 -0.1431  0.2062 -0.0173
 7765W        W11816   1.065   7.784   3.053 -0.1691 -0.2357 -0.1421
 7766W        W11817   5.920   7.549  10.750  0.0907  0.1513  0.0356
 7767W        W11818   3.500   7.160   1.250  0.2770 -0.1782 -0.0672
 7768W        W11819   4.531   4.011   0.437  0.3486 -0.1021  0.2797
 7769W        W11820   8.177   3.164  11.267 -0.0388  0.0670  0.3394
 7770W        W11821   9.171   2.557  12.213  0.0822  0.0359  0.3126
 7771W        W11822   3.841   5.204   2.623  0.0065  0.1824  0.2813
 7772W        W11823   6.103   4.176   1.618 -0.1264  0.1060 -0.0309
 7773W        W11824   2.236   5.047   3.762 -0.0138 -0.0784  0.1042
 7774W        W11825   1.477   6.140   0.140  0.1642 -0.3406 -0.1754
 7775W        W11826   6.002   3.291  10.488  0.1166  0.0736 -0.1885
 7776W        W11827   8.459   7.669   1.231  0.2897 -0.4160  0.2706
 7777W        W11828   4.403   6.326   1.899  0.0244 -0.4177 -0.1686
 7778W        W11829   7.080   3.754  12.358  0.0923  0.3761 -0.3210
 7779W        W11830   9.081   2.720   0.452 -0.0463  0.2853  0.2088
 7780W        W11831   4.408   0.106   9.294 -0.5255 -0.0623 -0.0634
 7781W        W11832   5.313   1.878   3.126  0.0331  0.6447 -0.3592
 7782W        W11833   0.066   1.554  11.855 -0.3251 -0.1707 -0.1462
 7783W        W11834   7.902   7.236   3.411  0.0251 -0.0055  0.1167
 7784W        W11835   3.427   0.850   1.380  0.2070  0.2672 -0.1716
 7785W        W11836   7.622   5.270   2.645  0.1090  0.1492 -0.4140
 7786W        W11837   0.827   3.578   9.982  0.1089  0.1340  0.3954
 7787W        W11838   0.665   4.411   0.577 -0.1578 -0.2721 -0.2260
 7788W        W11839   0.430   1.752   3.962 -0.0054 -0.1617 -0.1325
 7789W        W11840   0.812   8.133  10.447  0.0660  0.0138 -0.0638
 7790W        W11841   6.889   8.215   9.757 -0.4745  0.2150  0.4183
 7791W        W11842   1.951   7.504  10.136 -0.2819  0.2902  0.2637
 7792W        W11843   3.174   5.082   2.457 -0.0846 -0.0544  0.1997
 7793W        W11844   5.499   8.186   4.229 -0.1666 -0.0432 -0.1415
 7794W        W11845   5.702   7.404  12.335 -0.1654  0.0337 -0.0142
 7795W        W11846   3.617   9.890  12.518 -0.1662  0.0843 -0.2687
 7796W        W11847   6.224   1.581   0.977 -0.0936  0.0912  0.1464
 7797W        W11848   7.146   4.692  12.205  0.0562 -0.1296  0.0152
 7798W        W11849   8.689   6.768   4.208  0.1486  0.1438 -0.1712
 7799W        W11850   2.549   5.223   1.167  0.2836  0.0030  0.2554
 7800W        W11851   4.370   7.584  12.812  0.1733  0.0090 -0.0271
 7801W        W11852   0.508   1.302   4.295  0.1131  0.1812 -0.4488
 7802W        W11853   3.259   2.405  10.832  0.3715  0.0029  0.0869
 7803W        W11854   1.001   6.528   0.740 -0.1383  0.3549 -0.1652
 7804W        W11855   8.070   8.141   3.608  0.2549 -0.0559 -0.2718
 7805W        W11856   0.241   4.515   0.999 -0.0485 -0.1182  0.1475
 7806W        W11857   9.430   4.495   2.382  0.0266 -0.1012  0.3014
 7807W        W11858   0.574   8.515   2.905 -0.0319 -0.0691 -0.1865
 7808W        W11859   0.890   1.979  11.525  0.2125 -0.1014  0.2198
 7809W        W11860  10.055   7.786  12.729  0.0409 -0.0650 -0.0472
 7810W        W11861   5.718   3.149  13.185 -0.1222  0.0892  0.2698
 7811W        W11862   0.407   4.026   0.824  0.1621 -0.0124  0.2297
 7812W        W11863   3.209   9.478   3.045 -0.2571 -0.2575 -0.1410
 7813W        W11864   8.654   1.242   3.752 -0.0105  0.0289  0.2346
 7814W        W11865   6.703   6.747   1.950  0.0265  0.0896  0.1396
 7815W        W11866   5.120   1.503   5.407 -0.0219 -0.1231 -0.2673
 7816W        W11867  10.114   7.734   2.901  0.0255  0.0074 -0.0673
 7817W        W11868   7.967   1.801   1.725 -0.0954 -0.1542  0.0551
 7818W        W11869   3.322   8.885  12.327  0.0297 -0.0805  0.1972
 7819W        W11870   6.689   1.534   1.288  0.0833  0.0388  0.0594
 7820W        W11871   8.334   8.571   2.746  0.0731 -0.1235  0.2095
 7821W        W11872   7.503   0.986   3.407  0.0886  0.0355 -0.2248
 7822W        W11873   0.393   8.138  13.795  0.1223 -0.0953 -0.1831
 7823W        W11874   5.080   6.240   0.389  0.0608  0.2486  0.0205
 7824W        W11875   0.465   1.834  10.595  0.1476 -0.2788 -0.1316
 7825W        W11876   0.649   5.362   2.357  0.1256 -0.0351  0.3199
 7826W        W11877   2.980   1.511   3.304  0.2599 -0.1186 -0.0826
 7827W        W11878   9.015   6.885   0.231  0.0795 -0.0855  0.1993
 7828W        W11879   7.899   0.851   3.163  0.1018  0.3939 -0.0044
 7829W        W11880   9.358   1.790  11.417 -0.1828 -0.0590 -0.0895
 7830W        W11881   9.959   3.694  11.970  0.2236 -0.2014 -0.0633
 7831W        W11882   8.991   8.290  13.162  0.1383 -0.1667  0.1405
 7832W        W11883   6.548   6.805  10.081 -0.0722 -0.1293 -0.1526
 7833W        W11884   5.449   4.372  11.857  0.3435 -0.5712 -0.0144
 7834W        W11885   9.265   1.826  11.956 -0.1239  0.1665 -0.3367
 7835W        W11886   6.259   7.477   0.491  0.1776 -0.0154  0.1213
 7836W        W11887   0.222   6.567   2.057  0.0881 -0.1747  0.2227
 7837W        W11888   4.733   6.445   0.752  0.0769  0.0160 -0.0741
 7838W        W11889   9.543   1.523   3.804  0.1171  0.0001  0.3504
 7839W        W11890   1.755   2.162   4.480 -0.1792  0.3157  0.1918
 7840W        W11891   7.781   6.704   2.593  0.1811 -0.1269 -0.2656
 7841W        W11892   1.102   2.933   2.718  0.1437  0.0032 -0.0608
 7842W        W11893   8.825   7.748  10.395  0.1508  0.1664  0.1507
 7843W        W11894   9.114   7.029  11.898 -0.2846 -0.0545  0.0399
 7844W        W11895   2.091   8.849   2.869 -0.0945 -0.1680  0.1274
 7845W        W11896   5.929   4.514   3.147 -0.0224  0.2920 -0.2168
 7846W        W11897   5.516   1.950   4.707 -0.2136  0.1769 -0.3241
 7847W        W11898   6.398   0.884   5.276 -0.2080  0.0974 -0.2189
 7848W        W11899   4.869   6.904   3.287 -0.2298 -0.1091 -0.0274
 7849W        W11900   2.355   6.884  12.811  0.1145 -0.1643  0.0078
 7850W        W11901   3.939   6.362   3.458  0.1216  0.2142  0.0776
 7851W        W11902   1.083   4.021   3.469 -0.0279 -0.1244 -0.1418
 7852W        W11903   5.168   7.493   2.268 -0.0312  0.5223 -0.1704
 7853W        W11904   0.344   9.931  10.734 -0.3731 -0.0950 -0.3614
 7854W        W11905   7.230   2.586   0.992 -0.4116  0.0224  0.0716
 7855W        W11906   8.611   8.407   4.904 -0.1413  0.0366 -0.0745
 7856W        W11907   1.381   9.995   2.231  0.3431  0.0202 -0.0432
 7857W        W11908   3.655   5.229   1.698 -0.1496  0.2186 -0.0185
 7858W        W11909   4.638   5.385   4.213  0.1344  0.0294 -0.2414
 7859W        W11910   7.025   9.490   9.456  0.0901 -0.1100 -0.1225
 7860W        W11911   4.388   9.106  10.931 -0.2305 -0.2250 -0.2778
 7861W        W11912   6.371   7.737  12.698 -0.0656  0.1728 -0.1452
 7862W        W11913   4.741   9.707   3.207  0.1643  0.1404 -0.0696
 7863W        W11914   9.806   3.419  10.045 -0.2404 -0.5056  0.2320
 7864W        W11915   1.881   1.029   1.560  0.1615  0.0228 -0.2304
 7865W        W11916   9.495   2.551   3.757 -0.0991 -0.1466 -0.3048
 7866W        W11917   9.407   8.716   0.912 -0.0047 -0.2130  0.2034
 7867W        W11918   9.766   2.260  12.782  0.2810 -0.1014 -0.1707
 7868W        W11919   9.772   8.224   1.337 -0.1057 -0.0174  0.0253
 7869W        W11920   7.538   6.091   4.047  0.1436  0.2232 -0.2330
 7870W        W11921   6.134   0.520  10.695 -0.0185  0.1951 -0.1139
 7871W        W11922   1.714   2.743  12.661 -0.1062  0.0848 -0.0776
 7872W        W11923   9.781   7.402   1.153  0.0358 -0.0116  0.2201
 7873W        W11924   5.977   5.962  11.980  0.1383  0.3193  0.0337
 7874W        W11925   9.649   1.118  10.667  0.1050  0.0980 -0.1878
 7875W        W11926   6.241   7.071   3.387  0.0657  0.3049 -0.3977
 7876W        W11927   5.422   0.833  12.260 -0.0618 -0.0998  0.0433
 7877W        W11928   6.273   8.457   0.249 -0.2330  0.1468 -0.0421
 7878W        W11929   9.209   0.067   9.678 -0.2990 -0.3921 -0.2008
 7879W        W11930   7.942   6.444   2.232 -0.1156  0.1472  0.3229
 7880W        W11931   6.103   8.209  10.165  0.0760  0.0094 -0.1806
 7881W        W11932   3.333   8.892  13.454  0.0732  0.1771  0.1815
 7882W        W11933   1.151   1.257   0.812 -0.1665 -0.4663  0.1394
 7883W        W11934   4.197   9.870   9.259 -0.0896 -0.0036 -0.2191
 7884W        W11935   0.759   9.240   9.897  0.1173  0.3244 -0.1826
 7885W        W11936   0.887   8.557   3.881 -0.2558  0.0626  0.2401
 7886W        W11937   2.430   7.987   9.440 -0.2754 -0.1849  0.0176
 7887W        W11938   1.911   4.282   1.977 -0.1250  0.3039  0.2218
 7888W        W11939   8.751   0.991  11.061 -0.2997 -0.2207 -0.1632
 7889W        W11940   2.095  10.055  10.637 -0.2240  0.2412  0.1100
 7890W        W11941   2.654   2.586   9.475 -0.0668  0.0407  0.0781
 7891W        W11942   9.745   4.983  11.521 -0.0544 -0.3834  0.1990
 7892W        W11943   0.283   7.025  11.688 -0.1731  0.0002  0.0131
 7893W        W11944   4.149   8.079  12.002  0.1047 -0.2777 -0.0360
 7894W        W11945   5.953   8.035   4.078  0.2423 -0.0240 -0.0184
 7895W        W11946   3.534   4.701  13.025 -0.0851 -0.0267 -0.1089
 7896W        W11947   0.789   1.942   4.381  0.2018 -0.0957 -0.1314
 7897W        W11948   3.036   9.141  12.694 -0.0954 -0.0212  0.1852
 7898W        W11949   3.671   8.639  11.982  0.1158 -0.2642  0.2013
 7899W        W11950   0.931   0.457   2.089 -0.2017 -0.3114  0.2046
 7900W        W11951   4.763   4.087   3.785 -0.2261  0.3147  0.3531
 7901W        W11952   0.745   3.535   0.641  0.1561 -0.0536  0.0612
 7902W        W11953   0.361   5.013   0.752 -0.1546  0.2230  0.1325
 7903W        W11954   1.348  10.002   9.810 -0.1678 -0.1270  0.4054
 7904W        W11955   0.564   5.977  10.728 -0.0494 -0.4515  0.0368
 7905W        W11956   3.223   1.178   3.013  0.0126  0.1085  0.0856
 7906W        W11957   0.710   0.629  13.554 -0.1445 -0.1020  0.2598
 7907W        W11958   6.381   4.668   5.472 -0.0442 -0.1190  0.0017
 7908W        W11959   4.342   3.023  10.129 -0.0930 -0.1160 -0.1951
 7909W        W11960   8.100   8.989   2.778  0.1522 -0.2698  0.0402
 7910W        W11961   3.844   3.035  12.240 -0.1204 -0.2883 -0.1195
 7911W        W11962   7.354   3.144   3.068  0.1151  0.0070  0.0770
 7912W        W11963   3.636   9.669  13.302 -0.0429 -0.2564  0.1504
 7913W        W11964   6.775   8.858  12.120  0.1943 -0.2987 -0.1222
 7914W        W11965   0.678   7.625  13.759  0.0462 -0.1127  0.0390
 7915W        W11966   3.529   2.869  12.650  0.0734  0.0055  0.0513
 7916W        W11967   8.454   8.062  10.620  0.0462 -0.0969  0.1852
 7917W        W11968   6.552   1.968   4.260  0.0413  0.0532 -0.0654
 7918W        W11969   8.323   5.671   1.736 -0.0903  0.0362  0.2660
 7919W        W11970   5.814   0.393   2.870  0.3195 -0.0335 -0.2645
 7920W        W11971   2.278   0.855   1.212 -0.0136 -0.0418 -0.1410
 7921W        W11972   9.547   2.077  13.162  0.2695  0.1629  0.1204
 7922W        W11973   2.643   1.628  13.496  0.1928  0.1829  0.1137
 7923W        W11974   6.364   8.749   1.618 -0.1330 -0.1710 -0.1857
 7924W        W11975   3.716   8.505   3.705  0.1639  0.1541  0.1802
 7925W        W11976   6.662   1.126  12.886 -0.1502 -0.1475  0.1338
 7926W        W11977   3.875   0.330   9.889  0.3183  0.0701 -0.1267
 7927W        W11978   8.027   6.410   0.900 -0.1667 -0.3964  0.0373
 7928W        W11979   0.991   6.464  11.309  0.0052  0.2057 -0.0209
 7929W        W11980   2.575   4.902   3.459  0.2590 -0.1230  0.1730
 7930W        W11981   0.718   1.618  13.048  0.0241  0.0415 -0.1539
 7931W        W11982   4.915   2.697   4.115 -0.0903 -0.0794  0.0483
 7932W        W11983   6.448   6.986   5.454  0.1174  0.0929 -0.2273
 7933W        W11984   4.250   4.279  13.311  0.2292  0.0842 -0.3156
 7934W        W11985   2.734   8.765  10.316 -0.0162  0.0661  0.0794
 7935W        W11986   9.917  10.167   1.535  0.0021 -0.0723  0.0655
 7936W        W11987   8.039   2.502  10.812  0.2443  0.2331  0.1351
 7937W        W11988   2.972   1.928  13.240 -0.1233  0.0222  0.1358
 7938W        W11989   7.352   4.435  12.577 -0.1357 -0.1294  0.2809
 7939W        W11990   9.439   1.329   5.734 -0.1455  0.3320 -0.3389
 7940W        W11991   3.446   4.117   3.074 -0.0549 -0.0663 -0.0328
 7941W        W11992   7.174   1.884  10.802 -0.0533 -0.0394  0.0859
 7942W        W11993   4.555   3.231   0.868  0.1090 -0.0610 -0.1289
 7943W        W11994   0.794   8.951   2.779  0.0678  0.1155  0.1719
 7944W        W11995   7.636   4.729  11.354  0.1008  0.0580 -0.0332
 7945W        W11996   1.558   4.568   3.264  0.3649 -0.1594  0.2204
 7946W        W11997   3.576   0.114  11.408  0.0084 -0.0803  0.0307
 7947W        W11998   9.663  10.100  12.810  0.0195  0.1032  0.2376
 7948W        W11999   0.732   5.531  11.643  0.1561 -0.1120 -0.0337
 7949W        W12000   4.075   8.738   4.038 -0.1285  0.1982 -0.2223
 7950W        W12001  10.171   2.371  13.099 -0.1472 -0.0919  0.0405
 7951W        W12002   0.824   4.235  12.145 -0.1148 -0.2985 -0.1908
 7952W        W12003   6.841   4.137   9.725 -0.3716 -0.3264 -0.4629
 7953W        W12004   4.864   5.214   1.016  0.0659  0.2782  0.1900
 7954W        W12005   4.102   3.493  12.281 -0.1288  0.1867 -0.0795
 7955W        W12006   9.691   5.279   3.363  0.3053  0.2107 -0.2172
 7956W        W12007   8.223   1.402   2.557 -0.2126 -0.2851  0.1352
 7957W        W12008   2.060   6.934  11.322  0.0178 -0.1640 -0.0696
 7958W        W12009   7.394   8.714   4.697  0.4722 -0.2317  0.0565
 7959W        W12010   6.001   2.113  12.976  0.1526 -0.1707 -0.0352
 7960W        W12011   9.774   9.546   2.848 -0.1311  0.1815  0.2287
 7961W        W12012   3.167   5.787   1.687  0.0179 -0.1186  0.0185
 7962W        W12013   0.346   2.886   3.012  0.1714 -0.2196 -0.1517
 7963W        W12014   2.324   0.799  11.126 -0.1802 -0.0737 -0.1348
 7964W        W12015   8.521   3.393   3.995  0.0945 -0.1172 -0.1760
 7965W        W12016   1.753   5.113   0.114 -0.0773  0.0065  0.4707
 7966W        W12017   7.197   4.295   4.412 -0.2786 -0.0197 -0.3141
 7967W        W12018   5.213   4.746   9.107  0.0634  0.1806 -0.0246
 7968W        W12019   1.560   2.899  13.127  0.0542  0.2201  0.0348
 7969W        W12020   9.766   5.685   3.019 -0.2428 -0.0984 -0.1881
 7970W        W12021  10.020   3.499   3.413 -0.0340  0.0550  0.0840
 7971W        W12022   7.387   8.454   0.998  0.0941 -0.1679  0.0008
 7972W        W12023   7.906   8.021  10.613  0.1581  0.0759  0.0160
 7973W        W12024   7.727   9.483  10.741  0.0146 -0.1177 -0.1938
 7974W        W12025   4.925   4.770   3.151 -0.1700 -0.0828  0.0780
 7975W        W12026   8.672   6.575   2.265 -0.2239 -0.4232 -0.1581
 7976W        W12027   7.218   9.947   4.075  0.1891 -0.2210 -0.0058
 7977W        W12028   5.789   0.988   2.775 -0.1674  0.1040 -0.1366
 7978W        W12029   1.856   0.458   2.242  0.2204  0.3256 -0.3632
 7979W        W12030   6.103   3.209   0.522 -0.0730 -0.1544 -0.3005
 7980W        W12031   5.996   4.121  11.010  0.0619  0.2648 -0.2394
 7981W        W12032   0.085   7.303  12.174  0.0321 -0.0178  0.1188
 7982W        W12033   3.318   4.090  12.618 -0.0721 -0.1393  0.0253
 7983W        W12034   9.566   9.244   8.828  0.1520 -0.0541  0.1166
 7984W        W12035   6.774   0.239   0.604 -0.1056 -0.0990 -0.2102
 7985W        W12036   1.855   0.645  12.431  0.3022 -0.1829 -0.2427
 7986W        W12037   8.742   2.687  10.451 -0.3113  0.1655  0.0459
 7987W        W12038   3.368   7.529  10.039 -0.1727 -0.1955 -0.0690
 7988W        W12039   2.997   8.789  11.374 -0.1166  0.1445 -0.0851
 7989W        W12040   4.737   3.852   4.700  0.1299  0.2140 -0.0001
 7990W        W12041   0.065   2.578  13.642  0.0619 -0.1506 -0.2030
 7991W        W12042   8.858   4.307   1.729  0.3035 -0.1625  0.2673
 7992W        W12043   3.753   2.487   9.515 -0.0043 -0.0979  0.0597
 7993W        W12044   3.348   4.144   0.327  0.0685  0.1013  0.1353
 7994W        W12045   7.511   2.473   1.954 -0.3387  0.1338 -0.3563
 7995W        W12046   9.992   7.838   9.473  0.3313  0.0260  0.3584
 7996W        W12047   2.394   8.893   0.338  0.0680 -0.1126  0.0634
 7997W        W12048   7.502   3.551   9.861  0.0658  0.3153 -0.1127
 7998W        W12049   1.999   8.477   1.951  0.2521 -0.0126 -0.0537
 7999W        W12050   4.116   6.611   2.164  0.2553 -0.2732 -0.0706
 8000W        W12051   4.594   5.265   1.522  0.0569 -0.2336  0.1925
 8001W        W12052   7.586   4.102   0.225  0.1655 -0.1025  0.1890
 8002W        W12053   2.837   8.947  13.750  0.1220 -0.0653  0.0944
 8003W        W12054   0.605   7.300  10.885  0.2864 -0.1904 -0.0249
 8004W        W12055   5.786   3.156   3.826 -0.0883 -0.0237  0.3852
 8005W        W12056   0.734   2.921  12.432  0.0223 -0.3363  0.0399
 8006W        W12057   9.452   2.544   3.203 -0.1722 -0.0237 -0.3279
 8007W        W12058   9.722   8.493   1.781 -0.0821 -0.0928  0.1649
 8008W        W12059   3.964   9.357  13.557 -0.2176 -0.5459 -0.3665
 8009W        W12060   7.646   2.257   3.509  0.1317 -0.1290 -0.0981
 8010W        W12061   1.643   5.361  10.949 -0.0351  0.0499  0.2028
 8011W        W12062   2.212   2.691   9.784 -0.1736  0.2690 -0.1187
 8012W        W12063   1.767   8.654   2.489  0.0014 -0.1929  0.0452
 8013W        W12064   9.041   0.136   1.281 -0.1942  0.0006 -0.1774
 8014W        W12065   2.983   3.883   0.098  0.0454  0.0516 -0.1899
 8015W        W12066   3.184   2.915   8.866  0.0128 -0.1239  0.4095
 8016W        W12067   9.663   6.777  13.744  0.2115 -0.0171  0.3199
 8017W        W12068   4.890   6.896   0.875  0.1024  0.1780 -0.1787
 8018W        W12069   8.785   7.591   4.008  0.1177 -0.0131  0.1234
 8019W        W12070   5.341   0.429   1.163 -0.1855 -0.1550  0.1183
 8020W        W12071   0.228   9.626   2.168 -0.1246 -0.2943  0.0209
 8021W        W12072   0.983   6.684  12.899  0.0763  0.2681  0.1867
 8022W        W12073   9.752   2.251   4.726 -0.1211 -0.2370  0.0589
 8023W        W12074   8.269   4.209  13.467 -0.4214 -0.4149 -0.1597
 8024W        W12075   1.947   8.465  11.499 -0.1521 -0.0005  0.0925
 8025W        W12076   6.126   0.704  12.014  0.0933  0.0486 -0.2472
 8026W        W12077   7.621   8.916   3.988  0.2185  0.4292  0.2118
 8027W        W12078   1.257   4.943   1.109 -0.0805 -0.2826 -0.0895
 8028W        W12079   2.981   0.093   9.850  0.2590 -0.3902  0.1260
 8029W        W12080   9.534   3.651  11.540 -0.0945 -0.0775  0.2655
 8030W        W12081   8.864   8.726   2.278  0.0824  0.0419 -0.0822
 8031W        W12082   8.073   2.047   0.692 -0.1310  0.0059 -0.3496
 8032W        W12083   1.856   1.578   4.314  0.0308  0.0948 -0.0459
 8033W        W12084   4.302   0.230  10.222  0.3317 -0.0244  0.2398
 8034W        W12085   8.259   0.693   4.861 -0.0988  0.1104 -0.2067
 8035W        W12086   2.100   0.800   4.476 -0.0066 -0.0237  0.2626
 8036W        W12087   6.901   2.842   3.327 -0.0898  0.1068  0.0370
 8037W        W12088   2.097   0.958   2.109  0.2276 -0.2320  0.0235
 8038W        W12089   4.845   2.957   0.483 -0.1251 -0.0510  0.1679
 8039W        W12090   1.027   1.931  10.982  0.0606 -0.0118 -0.0692
 8040W        W12091   6.691   0.686   9.929  0.0842  0.0240 -0.0298
 8041W        W12092   9.163   9.644   4.204  0.1587  0.0144  0.0156
 8042W        W12093   1.388   3.306   3.943  0.0584 -0.1579  0.0124
 8043W        W12094   2.198   8.671  11.906 -0.0150  0.0411  0.2608
 8044W        W12095   4.718   2.846   3.537  0.1559  0.2355 -0.0321
 8045W        W12096   2.509   1.714   9.956 -0.1032  0.2760 -0.2409
 8046W        W12097   1.957   0.580   3.556  0.0622  0.2724 -0.1711
 8047W        W12098   1.762   3.440   2.844  0.2371 -0.1733 -0.2155
 8048W        W12099   0.314   4.474  11.961 -0.0670  0.1941 -0.0115
 8049W        W12100   6.643   5.434   0.221 -0.0756  0.0385  0.2066
 8050W        W12101   1.523   3.595  12.258 -0.4169 -0.1937  0.1332
 8051W        W12102   8.696   0.669   1.801 -0.0243  0.0762 -0.2968
 8052W        W12103   6.037   5.793  11.117  0.0517 -0.0014 -0.0994
 8053W        W12104   4.352   6.496   9.946  0.3067 -0.4391 -0.2281
 8054W        W12105   0.684   3.737  11.982 -0.0806 -0.1588 -0.3022
 8055W        W12106   8.576   6.769  12.578 -0.2339  0.0050  0.1996
 8056W        W12107   1.749   9.684   0.561  0.2927 -0.3673 -0.2242
 8057W        W12108   9.591   7.561   3.523 -0.2106 -0.0940 -0.2030
 8058W        W12109   7.316   8.042   4.195 -0.3021  0.0958  0.0856
 8059W        W12110   4.637   7.728  13.222 -0.0753 -0.3731  0.2781
 8060W        W12111   4.798   1.810   4.554 -0.1498 -0.0157  0.2346
 8061W        W12112   2.230   6.875  10.578  0.0534 -0.0158 -0.0910
 8062W        W12113   6.900   1.194  11.765 -0.2472 -0.1374  0.1181
 8063W        W12114   6.967   3.874   0.154 -0.1465 -0.1620  0.0374
 8064W        W12115   4.359   7.649   9.462  0.3127  0.0152  0.0141
 8065W        W12116   2.801   2.000  11.301 -0.1403 -0.1262 -0.1384
 8066W        W12117   9.675   3.668   4.501  0.2201  0.0697  0.1547
 8067W        W12118   5.125   6.197  10.050 -0.2701  0.0953 -0.1716
 8068W        W12119   5.303   1.721   0.520 -0.1990 -0.1313 -0.0844
 8069W        W12120   8.628   3.928   9.382  0.1235  0.0357 -0.1507
 8070W        W12121   6.258   7.322   8.862  0.3102  0.0092  0.0570
 8071W        W12122   6.381   1.512   9.064 -0.1847  0.1441 -0.2258
 8072W        W12123   0.274   2.125   4.298 -0.0821 -0.0412 -0.0617
 8073W        W12124   7.955   7.680   9.849 -0.0096  0.0679  0.1047
 8074W        W12125   7.012   4.318   6.147  0.1952  0.3208  0.0357
 8075W        W12126   6.896   1.171   3.199  0.2681 -0.1884 -0.2363
 8076W        W12127   0.077   9.240   0.653 -0.0246  0.1568 -0.1719
 8077W        W12128   9.446   3.002  12.266  0.0108 -0.2025  0.0141
 8078W        W12129   8.336   3.656   2.651 -0.1377 -0.3614  0.1124
 8079W        W12130   6.068   6.779  10.846 -0.0098  0.0953  0.3217
 8080W        W12131   9.101   7.445   3.658 -0.2563  0.1146  0.2249
 8081W        W12132   2.601   7.224  11.887  0.1045  0.0164  0.2292
 8082W        W12133   5.384   1.282   1.919  0.2150 -0.1654 -0.3679
 8083W        W12134   5.393   4.942   3.932 -0.0840  0.2604  0.1837
 8084W        W12135   1.658   9.221   0.738  0.0695 -0.4197  0.0944
 8085W        W12136   8.617   2.646   1.719  0.2328  0.0741  0.3628
 8086W        W12137   3.879   2.572  11.848 -0.1416  0.1520  0.0608
 8087W        W12138   3.393   0.711   1.884 -0.3028  0.1865 -0.0052
 8088W        W12139   6.538   0.585   4.165 -0.0028  0.0749  0.0174
 8089W        W12140   9.339   3.186  10.202 -0.1943 -0.1508  0.3079
 8090W        W12141   4.997   4.155   2.301 -0.1207 -0.0624  0.0763
 8091W        W12142   5.654   6.502   2.822  0.1876 -0.2519  0.0404
 8092W        W12143   0.612   8.124  12.473  0.1836 -0.2002  0.2585
 8093W        W12144   4.314   9.661  11.485  0.1542 -0.2731  0.0271
 8094W        W12145   2.047   3.077  12.965  0.0430 -0.0415  0.0695
 8095W        W12146   0.086   2.977   1.862  0.0803  0.1044 -0.4431
 8096W        W12147   2.931   4.275   1.951  0.1090 -0.0013 -0.0251
 8097W        W12148   7.492   6.268   2.323 -0.0463  0.1956  0.2033
 8098W        W12149   7.297   5.977   0.807  0.0732 -0.3665 -0.2397
 8099W        W12150   4.153   0.907   3.094 -0.0854  0.0179 -0.0913
 8100W        W12151   9.268   7.176   0.515 -0.2616 -0.0194  0.0896
 8101W        W12152   0.803   9.930  12.475 -0.0143  0.1207  0.0893
 8102W        W12153   3.081   6.803  10.240  0.1786 -0.1148 -0.0511
 8103W        W12154   3.327   6.239   0.188  0.0005 -0.2235 -0.1452
 8104W        W12155   4.646   5.015   0.545 -0.0459 -0.2276 -0.1311
 8105W        W12156   8.843   5.302   5.004  0.0466 -0.1448  0.1875
 8106W        W12157   4.265   0.084  10.784  0.1143 -0.0205  0.2621
 8107W        W12158   9.825   8.335  12.550  0.0461  0.1176  0.0300
 8108W        W12159   9.918   1.797   3.505  0.2086 -0.0875  0.1668
 8109W        W12160   3.244   8.783   0.686  0.0515  0.0824 -0.1994
 8110W        W12161   2.019   8.529  13.433 -0.0296  0.0795 -0.0026
 8111W        W12162   7.698   8.750   8.527  0.0465 -0.1831 -0.0046
 8112W        W12163   3.180   1.770   9.471  0.4817 -0.2323  0.1379
 8113W        W12164   6.487   6.198  10.075 -0.1797  0.0290  0.0353
 8114W        W12165   1.664   3.199  11.825 -0.2542  0.1209  0.2186
 8115W        W12166   3.597   6.695   2.555 -0.4563  0.1723 -0.0119
 8116W        W12167   0.920   3.823   4.775  0.1224 -0.3242 -0.3357
 8117W        W12168   5.675   8.398   3.155 -0.1753 -0.1968 -0.2148
 8118W        W12169   2.758   3.605  13.213  0.0467 -0.0355 -0.2173
 8119W        W12170   0.757   7.103   3.810 -0.4469  0.2613 -0.1814
 8120W        W12171   3.802   9.610   4.274  0.3907  0.0089  0.0523
 8121W        W12172   4.349   9.701   0.930 -0.2519  0.0194  0.2519
 8122W        W12173   4.542   7.413  10.398 -0.0391 -0.1867  0.1567
 8123W        W12174   3.569   0.645  10.296 -0.2461 -0.0515 -0.2086
 8124W        W12175   9.665   5.807   3.533  0.0695  0.0032  0.1822
 8125W        W12176   8.000   0.109  13.325  0.2975 -0.1544 -0.2951
 8126W        W12177   8.136   2.361  13.147 -0.0016  0.0837  0.0112
 8127W        W12178   6.102   5.091   2.294  0.1419 -0.1245 -0.1277
 8128W        W12179   4.922   0.076   4.218  0.1013 -0.0617  0.4181
 8129W        W12180   1.111   1.274   1.389  0.1181 -0.1781  0.1667
 8130W        W12181   7.946   5.064  11.706 -0.2028 -0.0137 -0.1037
 8131W        W12182   8.419   1.551  13.782 -0.2400 -0.0054  0.1188
 8132W        W12183   0.965   6.384  11.806  0.2613  0.1309 -0.2938
 8133W        W12184   7.837   8.492   2.764  0.3795 -0.2550  0.1469
 8134W        W12185   6.638   7.058  10.504 -0.2884 -0.3389  0.1996
 8135W        W12186   0.951   4.143  13.259  0.1557 -0.0702 -0.2093
 8136W        W12187   6.686   9.700  12.253  0.1476  0.0350  0.1199
 8137W        W12188   8.150   0.553  12.133 -0.0501 -0.2776  0.0791
 8138W        W12189   8.684   2.882  11.310  0.0325 -0.1860 -0.2144
 8139W        W12190   5.750   1.111   4.511 -0.1147 -0.1193 -0.2561
 8140W        W12191   4.997   5.660   3.667 -0.1251 -0.5105 -0.1301
 8141W        W12192   5.112   2.384  13.149  0.0512 -0.2578  0.2654
 8142W        W12193  10.058   6.500   2.511  0.3555 -0.3565 -0.1476
 8143W        W12194   9.921   2.919  12.647 -0.2682  0.1561 -0.1094
 8144W        W12195   8.211   8.124  11.044 -0.1182  0.0779 -0.1667
 8145W        W12196   2.963   2.459   2.550 -0.2908 -0.3833  0.0858
 8146W        W12197   3.767   2.588   1.157 -0.0699 -0.1304 -0.3874
 8147W        W12198   1.298   7.378   0.599 -0.3446 -0.0145  0.2501
 8148W        W12199   1.820   5.969  13.687 -0.0939 -0.0876 -0.0123
 8149W        W12200   4.172   0.996  12.358  0.3586  0.0688  0.1310
 8150W        W12201   8.308   7.750  12.612  0.0110  0.2822  0.2424
 8151W        W12202   9.766   7.471   0.053 -0.4182 -0.2033 -0.1904
 8152W        W12203   7.303   9.612  10.351 -0.4023 -0.0135 -0.1561
 8153W        W12204   2.436   9.133   4.467 -0.1374  0.2672 -0.1648
 8154W        W12205   2.886   4.032   2.402 -0.1098  0.1495  0.4624
 8155W        W12206   0.483   2.313   1.106  0.0701 -0.0506 -0.0294
 8156W        W12207   5.704   1.696  13.126  0.1777  0.2325 -0.1326
 8157W        W12208   1.419   4.723   0.118  0.0897 -0.2389 -0.3525
 8158W        W12209   2.974   1.221   2.393 -0.0142  0.0407 -0.0708
 8159W        W12210   7.174   1.580   9.586  0.0991  0.0591  0.0240
 8160W        W12211   4.858   6.965   9.192 -0.1836  0.3940  0.3069
 8161W        W12212   2.536   3.979   4.536 -0.4194 -0.0035  0.2252
 8162W        W12213   3.650   3.418   3.491 -0.1109  0.2845  0.1453
 8163W        W12214   9.291   9.249   2.828  0.0127 -0.3681  0.0157
 8164W        W12215   9.767   1.134   3.996  0.1116  0.1427 -0.3289
 8165W        W12216   5.870   8.799  12.590  0.1885  0.1091  0.1580
 8166W        W12217   0.084   2.884  11.498  0.1616  0.0172 -0.0996
 8167W        W12218   7.597   5.218  11.202  0.0600 -0.2163 -0.1637
 8168W        W12219   4.068   3.004   1.775 -0.0360 -0.2738 -0.1956
 8169W        W12220   1.542   4.244  13.365 -0.4797  0.2088  0.1874
 8170W        W12221   4.050   2.005   9.575 -0.0194 -0.3605 -0.3939
 8171W        W12222   3.301   1.335   1.232  0.1262 -0.1745 -0.0001
 8172W        W12223   0.005   7.145   1.847 -0.1471  0.3669 -0.0124
 8173W        W12224   6.714   2.269  12.135  0.3379 -0.0572 -0.2200
 8174W        W12225   0.371   9.535  11.789  0.0185  0.0140  0.2754
 8175W        W12226   8.586   3.313  11.567 -0.0648  0.1374  0.0816
 8176W        W12227  10.069   2.463  11.685 -0.0547 -0.1682 -0.0442
 8177W        W12228   9.762   6.894  12.352  0.3117 -0.0894  0.0227
 8178W        W12229   3.697   3.328   1.619 -0.2923 -0.2400 -0.1842
 8179W        W12230   6.166   2.324   2.160  0.2192  0.2075  0.0245
 8180W        W12231   6.204   3.283  10.058  0.1223  0.3064  0.0105
 8181W        W12232   2.311   8.177  11.369 -0.0981  0.4815  0.0738
 8182W        W12233   7.822   1.173  10.949  0.2032 -0.1616 -0.1913
 8183W        W12234   1.671   7.139  12.101  0.0316  0.1599 -0.4085
 8184W        W12235   6.539   5.524   4.457  0.0765  0.1695  0.0636
 8185W        W12236   0.917   4.677   0.948  0.2880 -0.0673 -0.0960
 8186W        W12237   9.759   8.181  10.921  0.0257  0.1856 -0.0120
 8187W        W12238   9.523   7.882  12.574  0.0582  0.0497  0.3353
 8188W        W12239   4.681   3.791  10.745 -0.3513  0.1420  0.1367
 8189W        W12240   8.495   6.313  11.593  0.2310  0.3695 -0.4546
 8190W        W12241   8.049   2.786   4.131  0.0014  0.1177  0.0214
 8191W        W12242   5.343   6.790   9.315  0.1406 -0.2626 -0.0696
 8192W        W12243   5.560   4.010  11.454  0.1218 -0.2216 -0.2000
 8193W        W12244   0.056   3.157  10.229 -0.1531 -0.1071  0.4798
 8194W        W12245   7.241   3.289   3.991  0.0547 -0.0907 -0.1542
 8195W        W12246   5.211   0.319  12.258 -0.1470 -0.1983  0.0766
 8196W        W12247   8.760   8.120  11.186  0.2134  0.1603  0.0034
 8197W        W12248   1.933   7.795   9.731  0.1080 -0.1666 -0.0115
 8198W        W12249   7.190   4.613   1.865 -0.4233 -0.1348 -0.0093
 8199W        W12250   5.726   4.204   4.686  0.0111  0.0351  0.2167
 8200W        W12251   7.077   0.484  10.989 -0.0822 -0.0051 -0.1434
 8201W        W12252   7.189   6.626   2.232 -0.0303 -0.3964 -0.1402
 8202W        W12253   5.807   8.312  13.405  0.1495 -0.0600 -0.1257
 8203W        W12254   9.354   1.236   4.879 -0.1488  0.1387  0.2667
 8204W        W12255   6.636   4.639   1.030  0.1242  0.2080 -0.0105
 8205W        W12256   3.907   0.889   1.770 -0.0369  0.1064  0.2072
 8206W        W12257   6.027   3.541   9.622  0.5162 -0.1204 -0.2336
 8207W        W12258   5.339   6.000   3.602  0.0635  0.1361  0.0131
 8208W        W12259   5.342   6.923   2.851  0.0126 -0.0869  0.1238
 8209W        W12260   8.502   7.238   0.106 -0.1354 -0.0931  0.0981
 8210W        W12261   3.291   8.758  12.976 -0.1799 -0.1267  0.2682
 8211W        W12262   4.183   9.304   3.948 -0.1235  0.0699 -0.2042
 8212W        W12263   6.827   1.619   3.607 -0.1375  0.1429  0.2343
 8213W        W12264   6.785   7.069  13.084  0.0585  0.1073 -0.0022
 8214W        W12265   1.622   0.048  10.935 -0.0450 -0.3924 -0.0018
 8215W        W12266   1.307   7.475   9.617 -0.0434 -0.2869  0.1845
 8216W        W12267   7.047   1.999   2.892  0.1241 -0.1756 -0.3091
 8217W        W12268   1.406   8.242  12.018 -0.0879  0.2730 -0.0106
 8218W        W12269   4.625   1.848   3.495  0.2046  0.0979 -0.1861
 8219W        W12270   6.935   3.271  12.621 -0.1275 -0.2350 -0.1271
 8220W        W12271   4.868   8.901   5.264 -0.4242  0.0374 -0.1846
 8221W        W12272   8.885   3.284  12.771 -0.0113  0.1822  0.1662
 8222W        W12273   5.416   4.919  11.425 -0.1440 -0.0117  0.0543
 8223W        W12274   1.261   9.256  12.105  0.2051 -0.1126  0.0524
 8224W        W12275   6.998   7.385   1.181 -0.1512 -0.0921  0.3744
 8225W        W12276   5.676   2.163   9.842 -0.0213 -0.0173  0.1272
 8226W        W12277   4.407   7.861   3.542 -0.0270 -0.1467  0.1962
 8227W        W12278   9.940   6.788   9.827 -0.2585 -0.1178  0.0263
 8228W        W12279   6.644   8.450  11.891 -0.2229 -0.2223 -0.2636
 8229W        W12280   0.873   3.465  12.424 -0.2143  0.0549 -0.0921
 8230W        W12281   4.767   3.177  13.046  0.0678  0.0954  0.0667
 8231W        W12282  10.053   0.267  12.549 -0.4127 -0.1271  0.0809
 8232W        W12283   9.383   5.103   1.406 -0.0570  0.1149 -0.3423
 8233W        W12284   7.367   9.241   0.424  0.1066 -0.1155 -0.1950
 8234W        W12285   0.381   3.274  11.119 -0.2241  0.2933 -0.2097
 8235W        W12286   4.936   2.742  13.799  0.0554 -0.2944  0.1500
 8236W        W12287   3.335   1.624  12.127  0.2443 -0.0600 -0.3777
 8237W        W12288   2.303  10.137   4.481  0.3061  0.0151 -0.1018
 8238W        W12289   7.718   9.660   3.193  0.1387 -0.0845  0.0933
 8239W        W12290   6.248   1.455   9.573  0.1111  0.0615 -0.2758
 8240W        W12291   5.160   9.205  12.351  0.0126  0.4491 -0.1930
 8241W        W12292   9.055   8.932  13.615  0.1010  0.0211  0.0216
 8242W        W12293   3.158   7.651   3.307 -0.2261 -0.0631  0.0424
 8243W        W12294   0.450   3.267   3.787  0.0418  0.0825 -0.2698
 8244W        W12295   7.339   1.028   5.664 -0.0822 -0.1422  0.1602
 8245W        W12296   3.494   6.816  13.427 -0.1001 -0.2265  0.1741
 8246W        W12297   8.904   9.160   0.268  0.1557  0.0104 -0.0386
 8247W        W12298   1.121   0.430   1.631 -0.1870  0.1047  0.2581
 8248W        W12299   6.646   2.557   2.060  0.0122 -0.1202 -0.3403
 8249W        W12300   7.960   2.523   4.586  0.0323  0.2561 -0.0550
 8250W        W12301   5.261   0.884   1.552  0.0318  0.1913 -0.3349
 8251W        W12302   0.359   8.858  10.829 -0.1956 -0.1377  0.0391
 8252W        W12303   7.989   1.873   9.799  0.1544  0.2194 -0.3536
 8253W        W12304   2.027   5.621  10.563  0.0913 -0.1842  0.1110
 8254W        W12305   7.920   1.162  10.428 -0.0174  0.0799 -0.0693
 8255W        W12306   9.027  10.147   2.428  0.0785  0.1311 -0.0375
 8256W        W12307   4.455   8.302   4.510 -0.4515  0.3713 -0.3861
 8257W        W12308   5.569   5.220  12.944 -0.2952  0.0217  0.5222
 8258W        W12309   3.630   3.444  11.557 -0.0119 -0.1344 -0.3855
 8259W        W12310   5.793   6.107   9.531  0.2453  0.1475 -0.0845
 8260W        W12311   8.451   0.216   1.966  0.2252 -0.1081 -0.1716
 8261W        W12312  10.180   1.118   0.366  0.1922  0.1192 -0.2932
 8262W        W12313   9.634   5.991   1.347  0.0102  0.0732 -0.0798
 8263W        W12314   4.320   4.639  13.585 -0.1209 -0.2095 -0.1822
 8264W        W12315   6.761   7.749   2.222 -0.1468  0.1724 -0.0629
 8265W        W12316   8.227  10.180   5.143  0.1765  0.0482  0.1375
 8266W        W12317   0.710   8.318  10.985  0.0098 -0.0442  0.1185
 8267W        W12318   1.580   0.456   9.055 -0.0510 -0.0593  0.2771
 8268W        W12319   8.006   3.756   4.818  0.0142  0.1205 -0.1531
 8269W        W12320   4.661   8.084   3.979 -0.1243  0.0187 -0.3222
 8270W        W12321   7.278   8.150   9.359  0.0628  0.2812 -0.4246
 8271W        W12322   5.225   6.651  13.883  0.2215 -0.0502  0.1930
 8272W        W12323   0.812   8.305   0.563  0.0545  0.2438  0.0490
 8273W        W12324   6.107   2.013   2.521 -0.0068 -0.1109 -0.2187
 8274W        W12325   0.242   3.210   2.414  0.0769 -0.3171 -0.1350
 8275W        W12326   5.179   7.749   3.756  0.0161 -0.2326 -0.0957
 8276W        W12327   2.306   2.081   9.547  0.2668 -0.1011  0.2909
 8277W        W12328   0.685   6.038   1.663 -0.1799  0.1772  0.0887
 8278W        W12329   6.763   5.969  12.483 -0.0743  0.0444 -0.2604
 8279W        W12330   3.473   5.878  10.377  0.0021  0.0165  0.2529
 8280W        W12331   8.593   1.771   2.781 -0.2667 -0.1750  0.0115
 8281W        W12332   4.519   3.886   4.253  0.3068  0.1241  0.0216
 8282W        W12333   9.239   9.910  13.456 -0.0780 -0.0743 -0.1636
 8283W        W12334   1.636   1.044  10.420  0.0052  0.0993 -0.1701
 8284W        W12335   3.734   5.117   3.158  0.2236 -0.0895  0.0790
 8285W        W12336   3.843   0.265  13.208 -0.0250  0.1594 -0.3558
 8286W        W12337   2.585   0.575   9.972 -0.2536  0.1112 -0.1563
 8287W        W12338   2.969   3.065  12.879  0.3426 -0.0696 -0.0126
 8288W        W12339   1.629   0.381   1.570  0.0480 -0.0059  0.0800
 8289W        W12340   5.437   8.575   0.364  0.0620 -0.0737 -0.1810
 8290W        W12341   0.448   0.616  12.054 -0.0159 -0.3633 -0.3721
 8291W        W12342   3.762   9.413  10.779  0.1991 -0.0680  0.1435
 8292W        W12343   8.869   9.718   0.215 -0.2252  0.2126  0.3328
 8293W        W12344   2.560   9.118  11.357 -0.1129  0.1290 -0.1832
 8294W        W12345   6.713  10.127   2.497  0.0851  0.0690 -0.0768
 8295W        W12346   4.752   6.934   3.790  0.0564 -0.0007 -0.0365
 8296W        W12347   3.195   7.955  13.105  0.1459 -0.3253 -0.0963
 8297W        W12348   4.698   2.628   9.067  0.1413 -0.2898  0.1033
 8298W        W12349   2.727   6.040  13.194  0.4481  0.2413  0.0903
 8299W        W12350   6.127   7.868   0.079  0.1202  0.1748 -0.0755
 8300W        W12351   3.481   1.656   3.167  0.1510 -0.0326  0.0704
 8301W        W12352   8.602   4.271   0.408  0.0163  0.0377 -0.0022
 8302W        W12353   7.849   7.165  12.855 -0.0606 -0.0253  0.2664
 8303W        W12354   9.491   6.167  11.098  0.2684  0.3304  0.4846
 8304W        W12355   9.634   8.742   0.354 -0.0266  0.0721  0.1895
 8305W        W12356   2.224   3.237  10.082 -0.0887 -0.0637 -0.1143
 8306W        W12357   9.846   3.400  12.975  0.0410 -0.0285  0.0446
 8307W        W12358   8.178   6.895   0.398  0.1942  0.3834 -0.1213
 8308W        W12359   1.341   3.213   3.206 -0.0536  0.1075 -0.3089
 8309W        W12360   2.548   4.090  13.757  0.3339  0.0122 -0.0691
 8310W        W12361   8.482   6.350   4.330  0.2122  0.0006  0.2267
 8311W        W12362   1.507  10.029   1.070  0.0470  0.2409  0.0500
 8312W        W12363   1.892   8.847   9.738  0.0863 -0.0277  0.0107
 8313W        W12364   7.645   2.696   3.276  0.1316  0.2966  0.1456
 8314W        W12365   2.252   3.938   3.505  0.2156  0.1979  0.0418
 8315W        W12366   3.434   6.222  12.247  0.1186  0.3196  0.1195
 8316W        W12367   8.196   8.054   0.852  0.1813 -0.0125  0.2585
 8317W        W12368   2.904   3.532  12.655  0.2675 -0.2123 -0.0663
 8318W        W12369   1.397   4.878   2.832  0.0481 -0.4725 -0.1683
 8319W        W12370   2.552   3.952  11.209  0.0459 -0.1932  0.0205
 8320W        W12371   0.461   4.001   5.002  0.0717 -0.2425  0.2001
 8321W        W12372   6.140   8.939   0.510 -0.6335  0.0357  0.0628
 8322W        W12373   8.795   7.829   2.195  0.1039  0.2319 -0.0809
 8323W        W12374   5.368   1.542   3.550 -0.0483 -0.1680  0.1406
 8324W        W12375   6.092   3.471   2.074  0.6050 -0.2192 -0.2063
 8325W        W12376   1.848   1.769   1.029  0.0676 -0.0490 -0.0395
 8326W        W12377   4.030   7.446   3.652  0.2891  0.2090 -0.2398
 8327W        W12378   2.053   5.641   2.582  0.0890  0.2551  0.1094
 8328W        W12379   1.201   7.969   1.511 -0.0034  0.0597  0.1207
 8329W        W12380   4.952   4.558   9.507 -0.1841 -0.0063  0.1238
 8330W        W12381   9.825   4.135   1.975 -0.2340 -0.1779  0.0150
 8331W        W12382   0.711   5.327   3.892 -0.4942  0.0072 -0.0434
 8332W        W12383   1.919   5.029  11.792  0.0442  0.2744 -0.0702
 8333W        W12384   5.151   4.610   0.590  0.3531  0.1860 -0.0602
 8334W        W12385   8.154   9.981   1.206 -0.2434  0.1002  0.1234
 8335W        W12386   8.021   5.199  10.264 -0.2189  0.2740  0.2527
 8336W        W12387   5.937   4.300  12.531  0.1603  0.1198 -0.1904
 8337W        W12388   4.823   3.887  10.119 -0.1836 -0.1596  0.0850
 8338W        W12389   8.704   0.186   9.381 -0.1048  0.0676  0.1461
 8339W        W12390   4.349   0.562  13.408 -0.4280 -0.2526  0.2182
 8340W        W12391   6.861   9.831  10.567 -0.1863 -0.1797 -0.0049
 8341W        W12392   8.964   0.947   1.405  0.0326  0.0539  0.1406
 8342W        W12393   5.897   5.880   0.712  0.0567 -0.0060 -0.1525
 8343W        W12394   2.990   3.228   2.187  0.1598  0.1807 -0.1814
 8344W        W12395   6.484   2.692  13.844 -0.2211 -0.0285  0.0777
 8345W        W12396   8.614   9.884   8.201 -0.0676  0.0770  0.1437
 8346W        W12397   4.958   7.719  10.723  0.2088 -0.2202 -0.1690
 8347W        W12398   9.349   7.021   3.517  0.3924  0.1759 -0.0642
 8348W        W12399   9.251   9.223  10.544 -0.0797  0.2654  0.1976
 8349W        W12400   5.291   0.151  13.823  0.2443  0.2217 -0.0702
 8350W        W12401   4.497   0.986  13.139  0.0779 -0.0339 -0.1494
 8351W        W12402   0.649   0.418   9.361  0.0256 -0.0584  0.0253
 8352W        W12403   9.658   8.010   0.005  0.0667 -0.0616 -0.2216
 8353W        W12404   3.733   9.363   3.725 -0.0716  0.2541  0.3032
 8354W        W12405   1.793   8.137  13.169 -0.1120 -0.1504  0.1770
 8355W        W12406   9.148   1.281   1.094  0.3380 -0.0965 -0.0089
 8356W        W12407   8.851   3.704   2.365 -0.4128 -0.1667 -0.3053
 8357W        W12408   3.328   0.791   8.631 -0.2074  0.1161 -0.1830
 8358W        W12409   1.641  10.061   2.851 -0.0714 -0.2964  0.2990
 8359W        W12410   4.249   2.262   8.657 -0.3757 -0.0440 -0.0734
 8360W        W12411   8.590   6.700   1.753 -0.0168 -0.4314 -0.0617
 8361W        W12412   4.526   4.599  13.038 -0.1945 -0.0369 -0.1828
 8362W        W12413   2.562   2.289   0.654 -0.0222 -0.1649  0.0150
 8363W        W12414   7.327   2.308  12.148 -0.0342 -0.0639  0.1216
 8364W        W12415   1.580   9.661   8.626 -0.1611 -0.1190  0.1101
 8365W        W12416   6.563   5.668  13.672  0.3788  0.2251 -0.2943
 8366W        W12417   7.102   2.150  11.701  0.0722 -0.1392  0.2364
 8367W        W12418   4.226   3.506   3.471 -0.1832 -0.1910  0.3521
 8368W        W12419   6.473   0.794  11.623 -0.0798  0.2174 -0.0377
 8369W        W12420   1.675   3.302   1.141  0.0150 -0.2417 -0.0266
 8370W        W12421   8.225   0.399   2.715  0.1572  0.0428 -0.2989
 8371W        W12422   1.509   2.605  12.124 -0.0003 -0.1113  0.0161
 8372W        W12423   9.867   9.195   0.260 -0.0838  0.0807 -0.0695
 8373W        W12424   7.684   9.537   9.104  0.1701 -0.3438  0.0908
 8374W        W12425   1.272   7.498  11.419 -0.0367 -0.0376  0.0241
 8375W        W12426   6.682   4.537   0.567 -0.1520  0.0415 -0.1107
 8376W        W12427   8.795   5.715  13.600  0.1019  0.2665 -0.1538
 8377W        W12428   3.729   6.277  12.679  0.1154  0.0920  0.1526
 8378W        W12429   4.659   0.999   0.227  0.1096 -0.4103 -0.0112
 8379W        W12430   5.092   1.020  10.041 -0.0453 -0.0263 -0.0164
 8380W        W12431   6.557   5.410   2.246 -0.2009  0.1958 -0.0485
 8381W        W12432   3.817   0.333  11.004  0.0822  0.2011  0.0389
 8382W        W12433   5.064   8.932  10.425 -0.2072  0.0463 -0.2094
 8383W        W12434   1.154   4.823  13.520 -0.2594  0.1220 -0.0571
 8384W        W12435   2.576   9.826  12.042 -0.0447  0.3596  0.0546
 8385W        W12436   3.019   0.702  11.561  0.0850 -0.1589  0.2889
 8386W        W12437   1.117   0.513  10.248  0.0710 -0.2680 -0.1754
 8387W        W12438   7.407   7.803   3.223 -0.1325 -0.4311  0.0299
 8388W        W12439   3.249   8.369  12.169  0.0631  0.3445  0.4679
 8389W        W12440   6.440   3.625  13.435  0.2827 -0.3174 -0.3256
 8390W        W12441   5.277   2.984   3.668 -0.3395  0.1087  0.0806
 8391W        W12442   0.449   5.773   2.486  0.3116 -0.0211  0.0227
 8392W        W12443   9.315   5.277   4.691 -0.0343 -0.0952 -0.0181
 8393W        W12444   3.342   6.455   0.611 -0.0042  0.0596  0.1681
 8394W        W12445   3.789   8.741   9.400 -0.0139 -0.0994 -0.2823
 8395W        W12446   2.641   2.412   3.908 -0.2019 -0.0732  0.1951
 8396W        W12447   1.247   8.716   2.687  0.1001 -0.1249  0.2494
 8397W        W12448   2.265   8.155  13.514  0.3485  0.1312  0.5131
 8398W        W12449   2.712   7.045   4.497  0.0208  0.3300  0.0117
 8399W        W12450   2.024   8.683   3.385 -0.1876 -0.2369  0.0914
 8400W        W12451   7.433   1.056  10.629  0.2775 -0.2336  0.0186
 8401W        W12452   0.479   1.047  12.254 -0.1131 -0.2046 -0.0833
 8402W        W12453   4.166   5.253   0.384 -0.3225  0.2203  0.1933
 8403W        W12454   1.797   3.037  12.281 -0.3553  0.1776  0.2025
 8404W        W12455   2.848   8.215  11.368 -0.1422  0.0714 -0.1311
 8405W        W12456   8.046   0.437   1.667  0.0528  0.2379  0.0997
 8406W        W12457   2.766   6.512   2.227 -0.1046 -0.5274 -0.0995
 8407W        W12458   3.844   6.560  11.238 -0.1360  0.0123 -0.1529
 8408W        W12459   4.972   8.123   1.939 -0.1718  0.0788  0.0337
 8409W        W12460   3.118   3.329  11.737  0.3065 -0.2046 -0.3151
 8410W        W12461   8.840   4.366  13.280  0.2386 -0.2118  0.2361
 8411W        W12462   7.726   1.606   4.372  0.3487  0.2057  0.0518
 8412W        W12463   8.073   7.716   4.851  0.1238  0.0001  0.3896
 8413W        W12464   5.168   1.596   4.797 -0.2906 -0.0713 -0.0056
 8414W        W12465   1.906   5.742  12.449 -0.1171 -0.2753 -0.0992
 8415W        W12466   6.872   3.564   5.104 -0.1659  0.4188  0.0780
 8416W        W12467   0.759   9.567  10.866 -0.0921  0.0192  0.2866
 8417W        W12468   8.226   2.170   2.706  0.2593  0.1667 -0.2988
 8418W        W12469   2.723   7.869   3.336  0.0502 -0.0959  0.0405
 8419W        W12470   4.934   5.653  11.765  0.0850 -0.0863  0.0126
 8420W        W12471   2.032   2.106   2.288 -0.0243 -0.3630  0.2328
 8421W        W12472   2.470   8.599  11.461 -0.2842 -0.1953  0.0607
 8422W        W12473   0.312   1.224  10.046  0.0216  0.2165 -0.3082
 8423W        W12474   6.740   9.292   1.867  0.1102 -0.0257 -0.3735
 8424W        W12475   7.416   7.773   9.647 -0.0276 -0.5422 -0.2361
 8425W        W12476   1.826   0.896   8.825 -0.0086 -0.1952 -0.0144
 8426W        W12477   1.451   0.283   0.156  0.0606  0.0400  0.0918
 8427W        W12478   7.584   5.899  10.705 -0.0190 -0.1507  0.0762
 8428W        W12479   3.929   9.344   0.699 -0.2632 -0.3140  0.1359
 8429W        W12480   8.001   5.528  13.392  0.2034  0.1030 -0.0961
 8430W        W12481   9.402   2.025   5.039 -0.2245  0.3216  0.2398
 8431W        W12482   3.948   9.372  11.302  0.1094  0.1179  0.1188
 8432W        W12483   2.459   7.983  10.455 -0.0821  0.0653 -0.0803
 8433W        W12484   6.975   0.207  12.790 -0.0446  0.0599  0.3102
 8434W        W12485   4.663   3.776   2.580  0.1421 -0.0212 -0.0128
 8435W        W12486   2.770   2.963   2.583 -0.0863  0.0080 -0.1262
 8436W        W12487   6.761   4.079   2.257  0.1575 -0.1013  0.0439
 8437W        W12488   6.235   9.418   2.923 -0.2880  0.1231 -0.1136
 8438W        W12489   7.229  10.050   2.243  0.1402 -0.2096 -0.1629
 8439W        W12490   4.592   1.864  13.434 -0.4348  0.0822 -0.3173
 8440W        W12491   1.641   0.774   3.111  0.2569  0.1035  0.5195
 8441W        W12492   2.116   1.641   5.069  0.1030 -0.0835  0.2023
 8442W        W12493   1.121   8.611  10.242  0.0926  0.2358  0.2440
 8443W        W12494   7.497   3.248  13.559 -0.1539 -0.0449 -0.1722
 8444W        W12495   0.916   3.355   4.098  0.2038  0.2628 -0.0216
 8445W        W12496   8.380   1.511  11.054  0.2327  0.0129  0.6716
 8446W        W12497   9.217   3.005   2.782  0.0166  0.0333 -0.2753
 8447W        W12498   7.020   9.997   9.247 -0.0488 -0.1855 -0.1894
 8448ION    NA+12499   8.856   5.124   0.118  0.1665 -0.0927  0.1003
 8449ION    NA+12500   6.530   6.350   4.135  0.4047 -0.0155  0.0860
 8450ION    NA+12501   4.365   1.454   3.675  0.0901  0.0799  0.0629
 8451ION    NA+12502   8.806   1.360   4.859 -0.0772  0.0646 -0.1315
 8452ION    NA+12503  10.110   0.661  10.749  0.4086  0.2580  0.2403
 8453ION    NA+12504   0.859   9.470  13.257  0.3493  0.1735  0.3648
 8454ION    NA+12505   2.949   1.011   1.959  0.1873 -0.1720  0.0418
 8455ION    NA+12506   8.043   5.177   9.461  0.0143 -0.1421  0.1877
 8456ION    NA+12507   8.759   2.261  10.089 -0.0140  0.0405  0.0029
 8457ION    NA+12508   1.938   2.927  13.469 -0.1595 -0.1973  0.1566
 8458ION    NA+12509   9.964   5.943   0.048 -0.3261 -0.3684 -0.0350
 8459ION    NA+12510   4.352   2.577  11.597 -0.0585 -0.2190 -0.2423
 8460ION    NA+12511   2.592   3.166  10.802  0.0331  0.0135  0.4455
 8461ION    NA+12512   1.020   2.982  13.629 -0.1728 -0.1122  0.0968
 8462ION    NA+12513   3.503   9.062   2.282 -0.3071 -0.0402  0.0018
 8463ION    NA+12514   5.054   2.910   4.568 -0.1557  0.0445  0.1746
 8464ION    NA+12515   8.631   0.313   5.028 -0.0193 -0.1583 -0.3770
 8465ION    NA+12516   8.932   5.038  12.028 -0.1946 -0.0725 -0.0615
 8466ION    NA+12517   3.466   4.155  13.710 -0.1031 -0.0790 -0.3079
 8467ION    NA+12518   5.875   6.891   3.004  0.1775  0.3686 -0.0057
 8468ION    NA+12519   7.076   4.307  13.807  0.0758  0.0787 -0.1735
 8469ION    NA+12520   4.290   3.878  11.124  0.0278  0.2088  0.1788
 8470ION    NA+12521   5.953   8.186   2.760 -0.0177  0.3542  0.0304
 8471ION    NA+12522   6.256   0.522  12.468 -0.0833 -0.0959 -0.0719
 8472ION    NA+12523  10.124   9.987  11.217  0.0677  0.1206  0.3228
 8473ION    NA+12524   2.612   7.397   0.276 -0.3355  0.3382  0.1934
 8474ION    NA+12525   2.178   6.494   1.022  0.1397 -0.4606 -0.0525
 8475ION    NA+12526   4.095   0.211  13.628 -0.0878 -0.0782  0.0060
 8476ION    NA+12527   2.716   8.831   9.021  0.1179  0.0320  0.0652
 8477ION    NA+12528   0.524   5.916  13.812 -0.1310 -0.1030  0.3093
 8478ION    NA+12529   7.113   5.089   5.803 -0.0823  0.2206  0.0585
 8479ION    NA+12530   2.313   9.759  10.040  0.0866 -0.0676 -0.0858
 8480ION    NA+12531   2.918   0.883   5.241  0.1280 -0.1333  0.3772
 8481ION    NA+12532   5.010   6.366  12.967  0.2490  0.1092 -0.3147
 8482ION    NA+12533   4.040   6.460   4.609 -0.1626 -0.0103 -0.0006
 8483ION    NA+12534   5.274   6.914   3.745 -0.1697 -0.3654  0.0334
 8484ION    NA+12535   0.326   9.626   2.797 -0.0120 -0.2361 -0.2068
 8485ION    NA+12536   5.929   6.629   4.118 -0.0100  0.1789 -0.0913
 8486ION    NA+12537   9.119   7.726  12.332 -0.2597  0.0847 -0.2586
 8487ION    NA+12538   3.496   2.676  12.167 -0.1749  0.1722 -0.1423
 8488ION    NA+12539   9.920   4.899   0.090  0.0075  0.1389 -0.3536
 8489ION    NA+12540   6.876   1.786  11.946  0.4743  0.1249 -0.1317
 8490ION    NA+12541   6.894   5.443   9.755  0.0049  0.0598 -0.2073
 8491ION    NA+12542   6.439   1.205  11.369  0.0271 -0.1472  0.1417
 8492ION    NA+12543   9.993   4.461  10.209 -0.0352  0.3117 -0.3171
 8493ION    NA+12544   5.213   6.750   5.001 -0.0590  0.2525  0.2916
 8494ION    NA+12545   3.198   5.054  13.224 -0.1431  0.1804  0.1052
 8495ION    NA+12546   7.364   1.021  11.605  0.3856  0.1413  0.0197
 8496ION    NA+12547   6.016   2.089  12.065 -0.1104 -0.2511  0.1309
 8497ION    NA+12548   1.543   0.059   9.339  0.1693  0.0617 -0.1637
 8498ION    NA+12549   9.265   0.786   9.083 -0.0230 -0.0431 -0.1365
 8499ION    NA+12550   1.404   2.211   8.828 -0.5235  0.0080 -0.1663
 8500ION    NA+12551   0.649   1.454  10.311 -0.0941  0.6461  0.0437
 8501ION    NA+12552   5.817   0.635   9.291 -0.1013 -0.3328  0.1546
 8502ION    NA+12553   2.654   3.585   2.270  0.0393  0.0184 -0.2435
 8503ION    NA+12554   7.030   6.649  13.024  0.1525 -0.1586 -0.2557
 8504ION    NA+12555   1.780   4.789   0.522  0.0535 -0.1135 -0.3232
 8505ION    NA+12556   2.730   0.151   3.593 -0.0678  0.0001  0.0723
 8506ION    NA+12557   1.816   9.737   3.251  0.0586  0.4949 -0.1160
 8507ION    NA+12558   2.976   9.124   0.362  0.2123 -0.0407  0.4330
 8508ION    NA+12559   4.387   6.980  10.163 -0.1753  0.0152 -0.3436
 8509ION    NA+12560   6.698   7.162  13.674 -0.1393 -0.1847  0.0685
 8510ION    NA+12561   5.409   7.322   1.767 -0.2777 -0.1232 -0.0122
 8511ION    NA+12562   4.411   3.491   3.905  0.1000 -0.0433  0.2877
 8512ION    NA+12563   6.047   3.276   5.570 -0.2184  0.3037  0.1919
 8513ION    NA+12564   0.196   9.290   4.753 -0.3957  0.4538 -0.0369
 8514ION    NA+12565   7.135   6.361   3.195 -0.0091  0.1712  0.0733
 8515ION    NA+12566   5.558   9.355   0.866 -0.0217 -0.0427  0.1656
 8516ION    NA+12567   0.481   0.858   9.056  0.1616  0.0666  0.0994
 8517ION    NA+12568   4.019   1.656  12.240  0.3182 -0.1301 -0.1359
 8518ION    NA+12569   6.326   8.954   8.821 -0.1008 -0.3802  0.4973
 8519ION    NA+12570   7.550   4.389   5.547  0.1529  0.0418 -0.0846
 8520ION    NA+12571   3.327   5.526  10.068  0.2470  0.0194  0.1904
 8521ION    NA+12572   7.592   3.545  13.171 -0.0234  0.2056  0.1142
 8522ION    NA+12573   3.528   9.407   0.983 -0.1166 -0.1382 -0.0967
 8523ION    NA+12574   4.509   8.406  10.133 -0.2645  0.0236  0.0821
 8524ION    NA+12575   1.534   1.825   3.158  0.2533 -0.2828  0.0597
 8525ION    NA+12576   1.694   6.882   3.356  0.0999 -0.2453  0.2533
 8526ION    NA+12577   4.779   9.546   4.693 -0.0546  0.2378  0.1900
 8527ION    NA+12578   4.236   0.896  11.532 -0.5839  0.3362 -0.0572
 8528ION    NA+12579   3.878   8.408   0.507  0.0972  0.2382 -0.0911
 8529ION    NA+12580   3.878   7.644  13.811 -0.1281  0.1240 -0.1370
 8530ION    NA+12581   3.683   6.994  11.675  0.6333 -0.0415 -0.0458
 8531ION    NA+12582   2.429   0.340   9.398 -0.1442  0.3705  0.0597
 8532ION    NA+12583   5.703   0.884   1.123  0.0280 -0.1596 -0.0799
 8533ION    NA+12584   9.608   0.684   4.771 -0.1828  0.4443  0.0753
 8534ION    NA+12585   7.969   4.383  13.859  0.1423 -0.4505 -0.1109
 8535ION    NA+12586   0.025   6.400   0.515  0.0492  0.3487 -0.0463
 8536ION    NA+12587   3.821   7.513   4.628  0.0423 -0.2465  0.0860
 8537ION    CL-12588   7.145   6.107   3.666 -0.1399  0.1582 -0.1313
 8538ION    CL-12589   2.538   3.548   3.694  0.3118 -0.1448 -0.0227
 8539ION    CL-12590   2.174   6.551  10.143  0.4678  0.0557  0.1272
 8540ION    CL-12591   1.596   1.331   2.702 -0.3578 -0.0858 -0.0132
 8541ION    CL-12592   6.902   1.329  11.286 -0.1302  0.0626  0.2482
 8542ION    CL-12593   3.998   9.937  13.636 -0.0852  0.3444 -0.1600
 8543ION    CL-12594   2.159   7.539   0.073  0.2837 -0.1055 -0.4160
 8544ION    CL-12595   5.120   0.598   9.058 -0.0188  0.0771  0.1669
 8545ION    CL-12596   4.431   1.423   4.289 -0.3190  0.1149  0.1864
 8546ION    CL-12597   5.747   6.873   3.597 -0.1220 -0.4632 -0.1145
 8547ION    CL-12598   6.647   8.722   4.067 -0.2466 -0.2658  0.4627
 8548ION    CL-12599   1.786   6.039  11.459 -0.1446 -0.0044 -0.1180
 8549ION    CL-12600   2.479   3.425   2.672  0.1057  0.2039 -0.0836
 8550ION    CL-12601   9.447   1.184   4.369 -0.1289  0.0735  0.0879
 8551ION    CL-12602   4.481   1.549   2.701  0.0323  0.0508  0.0356
 8552ION    CL-12603   5.405   0.661   5.075  0.0362 -0.1132  0.1483
 8553ION    CL-12604   3.333   7.893   0.482 -0.0584  0.1599 -0.0416
 8554ION    CL-12605   6.967   3.490   0.603 -0.2748  0.2712 -0.1746
 8555ION    CL-12606   0.699   3.572  11.500  0.1666 -0.1253 -0.1101
 8556ION    CL-12607   5.735   7.019   2.494 -0.0153  0.1963  0.0923
 8557ION    CL-12608   6.113   0.700   1.465 -0.0888  0.1255 -0.1076
 8558ION    CL-12609   7.896   1.940  10.340 -0.2342 -0.2846  0.0460
 8559ION    CL-12610   6.380   1.316  13.849  0.2775 -0.4367 -0.0841
 8560ION    CL-12611   0.416   2.749   3.864 -0.1512  0.1239  0.2766
 8561ION    CL-12612   4.064   8.070   0.820  0.4981  0.2123 -0.3330
 8562ION    CL-12613   9.642   8.117  13.421  0.0821 -0.2876  0.1227
 8563ION    CL-12614   2.803  10.108   1.831  0.0468 -0.1044  0.1579
 8564ION    CL-12615   0.801   1.999  10.260 -0.1199 -0.3120  0.0530
 8565ION    CL-12616   6.697   6.755   4.405  0.1556 -0.1446 -0.0082
 8566ION    CL-12617   3.580   3.678   3.992  0.2253 -0.1851 -0.4720
 8567ION    CL-12618   8.788   4.590  12.268 -0.1847  0.1191  0.1477
 8568ION    CL-12619   2.777   1.026   0.556  0.2102  0.0923  0.0161
 8569ION    CL-12620   9.475   5.063   0.100  0.1061 -0.1290  0.1841
 8570ION    CL-12621   5.227   2.775  12.147  0.3355 -0.2519 -0.0300
 8571ION    CL-12622   3.064   1.630   1.911  0.1004  0.0217  0.2063
 8572ION    CL-12623   7.205   7.157  12.890 -0.2218  0.2592 -0.1124
 8573ION    CL-12624   5.418   3.173   4.746 -0.1199  0.1702  0.4857
 8574ION    CL-12625   8.836   9.313   9.829 -0.0565 -0.0217 -0.1968
 8575ION    CL-12626   9.255   8.458   0.527 -0.1285 -0.1505 -0.0456
 8576ION    CL-12627   8.003   4.198   4.543  0.1486 -0.2357  0.0492
 8577ION    CL-12628   4.658   8.424   9.655  0.0902 -0.0275 -0.1797
 8578ION    CL-12629   0.263   6.008   0.352 -0.0017  0.0006 -0.3450
 8579ION    CL-12630   3.841   2.205  12.186  0.2457 -0.0564 -0.1159
 8580ION    CL-12631   4.592   7.779   2.153 -0.2455  0.0700  0.2453
 8581ION    CL-12632   3.597   8.627   4.275 -0.0407 -0.1752  0.1783
 8582ION    CL-12633   8.110   8.050  13.281 -0.0275  0.4613  0.3636
 8583ION    CL-12634   6.297   1.690  11.997  0.0118  0.1165 -0.0534
 8584ION    CL-12635   5.601   7.027   4.094  0.1776  0.0224 -0.0673
 8585ION    CL-12636   7.288   2.136   4.834 -0.1084 -0.0513 -0.1570
 8586ION    CL-12637   2.684   4.014  12.552  0.3022  0.1845 -0.0109
 8587ION    CL-12638   3.241   7.189  12.526  0.0324  0.1002 -0.1078
 8588ION    CL-12639   9.697   7.413  10.661  0.2968 -0.0195 -0.0386
 8589ION    CL-12640   2.744   8.918   0.718  0.0113 -0.2251  0.5017
 8590ION    CL-12641   3.472   9.227   0.436 -0.1922 -0.2185 -0.0515
 8591ION    CL-12642   2.862   8.678   1.696 -0.0798 -0.1099  0.1502
 8592ION    CL-12643   2.493   6.908   0.798 -0.3601 -0.1971 -0.2389
 8593ION    CL-12644   3.752   3.865  11.349 -0.3241 -0.1317  0.3238
 8594ION    CL-12645   6.118   0.431   3.896 -0.3200 -0.0732 -0.1669
 8595ION    CL-12646   5.156   0.911   1.065 -0.3283  0.1415  0.2501
 8596ION    CL-12647  10.157   6.625   3.458 -0.0128  0.1406 -0.0442
 8597ION    CL-12648   1.489   2.917  13.707  0.3246  0.3771  0.2918
 8598ION    CL-12649   5.487   8.328   2.661  0.2637  0.0430 -0.1802
 8599ION    CL-12650   4.020   7.261  10.359 -0.0718  0.0033  0.1359
 8600ION    CL-12651   9.455   6.385  10.548  0.0282 -0.1427  0.1261
 8601ION    CL-12652   3.790   3.318   0.123  0.0782 -0.3266  0.1937
 8602ION    CL-12653   8.353   5.792   4.231  0.1077 -0.4355 -0.2197
 8603ION    CL-12654   0.642   9.935  13.102 -0.0845 -0.0314  0.1491
 8604ION    CL-12655   3.979   0.768  11.964  0.2287  0.2718  0.0885
 8605ION    CL-12656   2.446   9.368   9.728  0.1046  0.4131  0.0128
 8606ION    CL-12657   4.777   8.331  11.845 -0.1753  0.1613 -0.0872
 8607ION    CL-12658   1.393   9.415  13.353  0.2890  0.1055  0.5026
 8608ION    CL-12659   0.138   8.264   9.900 -0.0807 -0.0617 -0.0268
 8609ION    CL-12660   3.074   8.187   2.606 -0.0246 -0.2271  0.3244
 8610ION    CL-12661   7.922   7.912   1.995 -0.1158  0.0198  0.0610
 8611ION    CL-12662   7.629   4.123   2.588 -0.1513 -0.1768  0.1402
 8612ION    CL-12663   7.235  10.114  10.260 -0.1139 -0.2682 -0.1343
 8613ION    CL-12664   4.162   6.920  11.428 -0.4031  0.0534 -0.0904
 8614ION    CL-12665   7.520   4.307  13.567 -0.0234 -0.2189 -0.2506
 8615ION    CL-12666   3.007   4.361  13.881  0.1207  0.2019  0.0491
 8616ION    CL-12667   3.515   2.885   9.203  0.1300 -0.1089  0.3660
 8617ION    CL-12668   4.920   5.639   4.783  0.1551 -0.1753  0.1114
 8618ION    CL-12669   5.799   8.941  11.492  0.2003 -0.0673  0.0537
 8619ION    CL-12670   6.496   2.367   9.086  0.1787  0.4908  0.2605
 8620ION    CL-12671   1.774   0.456   9.564 -0.2563  0.2167  0.0383
 8621ION    CL-12672   2.397   5.310  10.672  0.1039 -0.3484  0.2178
 8622ION    CL-12673   0.109   6.204  13.739 -0.0669  0.2251  0.0120
 8623ION    CL-12674   4.066   8.377   9.878 -0.1942 -0.1608 -0.0693
 8624ION    CL-12675   8.317   4.819  13.881  0.1364  0.0756 -0.2151
 8625ION    CL-12676   9.048   2.321   9.697  0.0712 -0.2473  0.1069
  10.19992  10.19992  13.91735
