Protein in INSANE! Membrane UpperLeaflet>POPC=1.0 LowerLeaflet>POPC=1.0
12914
    1AU     AUC    1   5.741   5.813   6.011
    1AU     AUC    2   6.023   5.812   5.840
    1AU     AUC    3   5.989   5.800   6.178
    1AU     AUC    4   5.467   5.809   5.852
    1AU     AUC    5   5.486   5.850   6.204
    1AU     AUC    6   5.581   6.087   6.017
    1AU     AUC    7   5.929   6.086   5.996
    1AU     AUC    8   5.548   5.545   6.018
    1AU     AUC    9   5.901   5.526   6.015
    1AU     AUC   10   5.741   5.639   6.287
    1AU     AUC   11   5.743   5.998   6.277
    1AU     AUC   12   5.727   5.647   5.745
    1AU     AUC   13   5.762   5.966   5.725
    1AU     AUC   14   6.345   5.803   5.688
    1AU     AUC   15   6.348   5.787   6.026
    1AU     AUC   16   6.292   5.778   6.378
    1AU     AUC   17   5.148   5.820   5.688
    1AU     AUC   18   5.138   5.864   6.051
    1AU     AUC   19   5.190   5.889   6.403
    1AU     AUC   20   5.432   6.405   5.998
    1AU     AUC   21   5.784   6.425   5.949
    1AU     AUC   22   6.112   6.371   5.976
    1AU     AUC   23   5.334   5.268   6.024
    1AU     AUC   24   5.688   5.208   5.989
    1AU     AUC   25   6.072   5.216   6.002
    1AU     AUC   26   5.722   5.455   6.583
    1AU     AUC   27   5.753   5.813   6.617
    1AU     AUC   28   5.787   6.169   6.565
    1AU     AUC   29   5.752   5.469   5.468
    1AU     AUC   30   5.738   5.799   5.397
    1AU     AUC   31   5.747   6.119   5.410
    1AU     AUC   32   6.014   5.581   6.507
    1AU     AUC   33   6.055   5.974   6.497
    1AU     AUC   34   6.067   5.640   5.528
    1AU     AUC   35   6.061   5.987   5.532
    1AU     AUC   36   5.439   5.681   6.529
    1AU     AUC   37   5.478   6.049   6.517
    1AU     AUC   38   5.426   5.629   5.563
    1AU     AUC   39   5.409   5.954   5.511
    1AU     AUC   40   6.276   6.094   5.821
    1AU     AUC   41   6.211   6.083   6.190
    1AU     AUC   42   5.267   6.120   5.849
    1AU     AUC   43   5.289   6.180   6.216
    1AU     AUC   44   6.240   5.497   5.863
    1AU     AUC   45   6.189   5.463   6.194
    1AU     AUC   46   5.210   5.520   5.877
    1AU     AUC   47   5.269   5.570   6.224
    1AU     AUC   48   5.604   6.339   6.279
    1AU     AUC   49   5.950   6.293   6.274
    1AU     AUC   50   5.524   5.351   6.303
    1AU     AUC   51   5.861   5.286   6.281
    1AU     AUC   52   5.577   6.236   5.690
    1AU     AUC   53   5.962   6.263   5.663
    1AU     AUC   54   5.530   5.338   5.726
    1AU     AUC   55   5.925   5.356   5.732
    1AU    AUSL   56   6.305   5.702   6.748
    1AU    AUSL   57   6.022   5.266   6.683
    1AU     AUL   58   6.306   5.307   6.855
    1AU       S   59   6.337   4.884   6.655
    1AU     LIG   60   6.311   4.474   6.837
    1AU     LIG   61   6.484   4.178   7.173
    1AU     LIG   62   6.643   4.130   7.620
    1AU     LIG   63   6.867   3.916   7.971
    1AU     LIG   64   6.941   3.591   8.310
    1AU       S   65   6.566   5.697   6.896
    1AU     LIG   66   6.742   5.864   7.280
    1AU     LIG   67   6.868   5.688   7.692
    1AU     LIG   68   7.055   5.514   8.087
    1AU     LIG   69   7.271   5.552   8.503
    1AU     LIG   70   7.562   5.672   8.844
    1AU    AUSL   71   5.906   5.614   6.916
    1AU    AUSL   72   5.637   5.983   6.956
    1AU     AUL   73   5.862   5.886   7.219
    1AU       S   74   6.225   5.590   7.211
    1AU     LIG   75   5.892   5.291   7.463
    1AU     LIG   76   5.930   5.075   7.884
    1AU     LIG   77   6.257   4.980   8.225
    1AU     LIG   78   6.433   4.836   8.645
    1AU     LIG   79   6.472   4.893   9.113
    1AU       S   80   5.436   5.728   7.186
    1AU     LIG   81   5.476   5.599   7.653
    1AU     LIG   82   5.212   5.628   8.044
    1AU     LIG   83   5.129   5.778   8.479
    1AU     LIG   84   5.185   6.068   8.859
    1AU     LIG   85   5.052   6.080   9.301
    1AU    AUSL   86   5.959   5.998   6.677
    1AU    AUSL   87   6.408   6.097   6.606
    1AU     AUL   88   6.219   6.009   6.941
    1AU       S   89   5.873   6.353   7.096
    1AU     LIG   90   6.129   6.562   7.388
    1AU     LIG   91   6.376   6.576   7.799
    1AU     LIG   92   6.348   6.560   8.294
    1AU     LIG   93   6.386   6.684   8.756
    1AU     LIG   94   6.671   6.730   9.124
    1AU       S   95   6.572   6.288   6.813
    1AU     LIG   96   6.970   6.215   6.957
    1AU     LIG   97   7.267   6.453   7.217
    1AU     LIG   98   7.463   6.682   7.577
    1AU     LIG   99   7.803   6.726   7.914
    1AU     LIG  100   8.227   6.892   8.062
    1AU    AUSL  101   6.211   5.845   5.381
    1AU    AUSL  102   6.137   6.279   5.354
    1AU     AUL  103   6.297   6.174   5.100
    1AU       S  104   6.178   5.874   4.785
    1AU     LIG  105   6.518   5.828   4.468
    1AU     LIG  106   6.779   5.578   4.165
    1AU     LIG  107   6.920   5.424   3.734
    1AU     LIG  108   7.293   5.345   3.421
    1AU     LIG  109   7.701   5.390   3.153
    1AU       S  110   6.538   6.492   5.352
    1AU     LIG  111   6.745   6.678   4.967
    1AU     LIG  112   7.018   6.878   4.599
    1AU     LIG  113   7.206   6.932   4.147
    1AU     LIG  114   7.483   7.064   3.768
    1AU     LIG  115   7.784   7.371   3.538
    1AU    AUSL  116   6.020   5.568   5.096
    1AU    AUSL  117   6.478   5.515   5.436
    1AU     AUL  118   6.416   5.705   5.163
    1AU       S  119   6.561   5.251   5.210
    1AU     LIG  120   6.691   4.915   4.877
    1AU     LIG  121   6.890   4.502   4.802
    1AU     LIG  122   7.210   4.255   4.565
    1AU     LIG  123   7.552   4.297   4.229
    1AU     LIG  124   8.010   4.387   4.104
    1AU       S  125   6.162   5.640   4.772
    1AU     LIG  126   6.410   5.324   4.573
    1AU     LIG  127   6.448   5.188   4.128
    1AU     LIG  128   6.437   5.226   3.662
    1AU     LIG  129   6.571   5.108   3.219
    1AU     LIG  130   6.772   4.937   2.807
    1AU    AUSL  131   5.860   5.991   5.176
    1AU    AUSL  132   5.623   5.611   5.264
    1AU     AUL  133   5.739   5.627   4.948
    1AU       S  134   5.288   5.628   4.814
    1AU     LIG  135   5.228   5.338   4.477
    1AU     LIG  136   5.123   5.117   4.089
    1AU     LIG  137   4.973   5.154   3.664
    1AU     LIG  138   4.942   4.982   3.224
    1AU     LIG  139   4.824   5.039   2.770
    1AU       S  140   5.943   6.021   4.821
    1AU     LIG  141   5.996   5.851   4.335
    1AU     LIG  142   6.300   5.679   3.997
    1AU     LIG  143   6.487   5.726   3.558
    1AU     LIG  144   6.466   5.859   3.101
    1AU     LIG  145   6.460   6.119   2.716
    1AU    AUSL  146   5.231   5.943   6.791
    1AU    AUSL  147   5.537   6.290   6.669
    1AU     AUL  148   5.401   6.219   6.998
    1AU       S  149   5.264   5.844   7.254
    1AU     LIG  150   4.974   5.676   7.560
    1AU     LIG  151   4.731   5.468   7.902
    1AU     LIG  152   4.472   5.332   8.278
    1AU     LIG  153   4.055   5.343   8.522
    1AU     LIG  154   3.843   5.578   8.877
    1AU       S  155   5.150   6.554   6.787
    1AU     LIG  156   5.004   6.740   7.186
    1AU     LIG  157   4.837   6.955   7.585
    1AU     LIG  158   4.785   7.233   7.973
    1AU     LIG  159   4.612   7.395   8.396
    1AU     LIG  160   4.515   7.730   8.732
    1AU    AUSL  161   5.534   5.639   6.696
    1AU    AUSL  162   5.083   5.561   6.632
    1AU     AUL  163   5.084   5.676   6.865
    1AU       S  164   4.915   5.227   6.785
    1AU     LIG  165   4.501   5.022   6.745
    1AU     LIG  166   4.159   4.756   6.908
    1AU     LIG  167   3.927   4.536   7.248
    1AU     LIG  168   3.751   4.315   7.622
    1AU     LIG  169   3.386   4.295   7.937
    1AU       S  170   5.473   5.548   7.096
    1AU     LIG  171   5.228   5.271   7.367
    1AU     LIG  172   5.156   5.177   7.806
    1AU     LIG  173   4.983   5.167   8.244
    1AU     LIG  174   4.869   4.957   8.650
    1AU     LIG  175   4.910   4.951   9.120
    1AU    AUSL  176   5.199   5.712   5.303
    1AU    AUSL  177   5.384   5.318   5.467
    1AU     AUL  178   5.412   5.342   5.151
    1AU       S  179   5.074   5.572   4.931
    1AU     LIG  180   4.773   5.546   4.621
    1AU     LIG  181   4.711   5.429   4.179
    1AU     LIG  182   4.607   5.535   3.729
    1AU     LIG  183   4.299   5.581   3.351
    1AU     LIG  184   3.934   5.635   3.021
    1AU       S  185   5.005   5.198   5.317
    1AU     LIG  186   4.800   4.851   5.099
    1AU     LIG  187   4.526   4.509   4.898
    1AU     LIG  188   4.326   4.256   4.553
    1AU     LIG  189   4.260   4.053   4.134
    1AU     LIG  190   4.271   3.858   3.708
    1AU    AUSL  191   5.448   5.997   5.071
    1AU    AUSL  192   5.023   6.099   5.443
    1AU     AUL  193   5.079   5.984   5.127
    1AU       S  194   4.787   6.295   5.293
    1AU     LIG  195   4.647   6.553   4.985
    1AU     LIG  196   4.581   6.769   4.579
    1AU     LIG  197   4.276   6.790   4.204
    1AU     LIG  198   3.889   6.868   3.924
    1AU     LIG  199   3.598   7.174   3.721
    1AU       S  200   5.364   5.869   4.774
    1AU     LIG  201   5.133   5.830   4.371
    1AU     LIG  202   5.121   5.621   3.950
    1AU     LIG  203   5.061   5.637   3.496
    1AU     LIG  204   5.110   5.840   3.092
    1AU     LIG  205   4.885   6.073   2.773
    1AU    AUSL  206   6.558   6.316   6.010
    1AU    AUSL  207   6.490   6.090   5.595
    1AU     AUL  208   6.815   6.380   5.749
    1AU       S  209   6.603   6.153   5.433
    1AU     LIG  210   6.941   6.211   5.116
    1AU     LIG  211   7.105   6.376   4.711
    1AU     LIG  212   7.440   6.587   4.459
    1AU     LIG  213   7.722   6.820   4.164
    1AU     LIG  214   7.996   7.127   3.938
    1AU       S  215   7.008   6.371   6.167
    1AU     LIG  216   7.451   6.459   6.021
    1AU     LIG  217   7.928   6.481   5.976
    1AU     LIG  218   8.363   6.664   5.987
    1AU     LIG  219   8.579   6.992   6.202
    1AU     LIG  220   8.800   7.318   6.449
    1AU    AUSL  221   6.728   5.908   5.910
    1AU    AUSL  222   6.649   5.591   6.252
    1AU     AUL  223   6.834   5.817   6.373
    1AU       S  224   6.987   5.995   5.959
    1AU     LIG  225   7.466   5.953   5.939
    1AU     LIG  226   7.960   5.990   5.832
    1AU     LIG  227   8.392   6.202   5.740
    1AU     LIG  228   8.834   6.290   5.533
    1AU     LIG  229   9.121   6.413   5.187
    1AU       S  230   6.917   5.406   6.128
    1AU     LIG  231   7.234   5.098   6.330
    1AU     LIG  232   7.674   4.863   6.304
    1AU     LIG  233   8.145   4.703   6.299
    1AU     LIG  234   8.627   4.805   6.388
    1AU     LIG  235   9.128   4.787   6.439
    1AU    AUSL  236   6.414   5.943   6.209
    1AU    AUSL  237   6.225   6.344   6.285
    1AU     AUL  238   6.594   6.259   6.347
    1AU       S  239   6.557   6.560   6.701
    1AU     LIG  240   6.888   6.729   6.975
    1AU     LIG  241   7.227   6.987   7.201
    1AU     LIG  242   7.412   7.409   7.376
    1AU     LIG  243   7.601   7.875   7.405
    1AU     LIG  244   7.935   8.187   7.576
    1AU       S  245   7.015   6.177   6.161
    1AU     LIG  246   7.397   6.140   6.419
    1AU     LIG  247   7.847   6.096   6.320
    1AU     LIG  248   8.298   6.239   6.263
    1AU     LIG  249   8.640   6.540   6.473
    1AU     LIG  250   9.069   6.605   6.683
    1AU    AUSL  251   5.127   6.407   6.049
    1AU    AUSL  252   5.170   6.181   6.440
    1AU     AUL  253   4.884   6.527   6.290
    1AU       S  254   5.031   6.343   6.686
    1AU     LIG  255   4.721   6.334   6.998
    1AU     LIG  256   4.579   6.531   7.413
    1AU     LIG  257   4.395   6.739   7.809
    1AU     LIG  258   4.044   6.807   8.136
    1AU     LIG  259   3.674   7.019   8.348
    1AU       S  260   5.130   6.792   5.975
    1AU     LIG  261   4.747   7.012   5.826
    1AU     LIG  262   4.298   7.185   5.915
    1AU     LIG  263   3.846   7.374   5.955
    1AU     LIG  264   3.385   7.544   5.929
    1AU     LIG  265   2.975   7.798   5.965
    1AU    AUSL  266   5.060   6.017   5.853
    1AU    AUSL  267   5.186   6.472   5.630
    1AU     AUL  268   4.896   6.375   5.745
    1AU       S  269   4.687   5.797   5.461
    1AU     LIG  270   4.319   6.061   5.338
    1AU     LIG  271   3.841   6.169   5.304
    1AU     LIG  272   3.362   6.202   5.432
    1AU     LIG  273   2.978   6.499   5.368
    1AU     LIG  274   2.607   6.674   5.130
    1AU       S  275   4.999   6.712   5.398
    1AU     LIG  276   4.925   6.983   5.019
    1AU     LIG  277   4.929   7.406   4.786
    1AU     LIG  278   4.815   7.877   4.689
    1AU     LIG  279   4.494   8.217   4.545
    1AU     LIG  280   4.130   8.541   4.491
    1AU    AUSL  281   4.816   6.082   6.221
    1AU    AUSL  282   4.763   5.716   5.911
    1AU     AUL  283   4.654   6.024   5.914
    1AU       S  284   4.477   5.631   6.121
    1AU     LIG  285   4.105   5.491   5.837
    1AU     LIG  286   3.744   5.217   5.773
    1AU     LIG  287   3.326   5.116   5.631
    1AU     LIG  288   2.879   5.121   5.713
    1AU     LIG  289   2.455   5.028   5.553
    1AU       S  290   4.698   6.062   6.441
    1AU     LIG  291   4.225   6.099   6.546
    1AU     LIG  292   3.751   6.152   6.713
    1AU     LIG  293   3.370   6.444   6.812
    1AU     LIG  294   2.909   6.451   6.657
    1AU     LIG  295   2.424   6.519   6.625
    1AU    AUSL  296   6.460   5.230   6.073
    1AU    AUSL  297   6.253   5.494   6.384
    1AU     AUL  298   6.583   5.384   6.470
    1AU       S  299   6.764   5.142   6.098
    1AU     LIG  300   6.903   4.744   6.153
    1AU     LIG  301   7.317   4.572   6.065
    1AU     LIG  302   7.763   4.402   6.066
    1AU     LIG  303   8.155   4.166   6.192
    1AU     LIG  304   8.447   3.821   6.374
    1AU       S  305   6.484   4.949   6.503
    1AU     LIG  306   6.810   4.700   6.698
    1AU     LIG  307   6.916   4.433   7.075
    1AU     LIG  308   7.116   4.173   7.414
    1AU     LIG  309   7.454   4.162   7.749
    1AU     LIG  310   7.859   4.150   8.003
    1AU    AUSL  311   6.433   5.607   5.849
    1AU    AUSL  312   6.350   5.154   5.659
    1AU     AUL  313   6.630   5.322   5.691
    1AU       S  314   6.975   5.485   5.930
    1AU     LIG  315   7.227   5.071   5.828
    1AU     LIG  316   7.669   4.838   5.785
    1AU     LIG  317   8.133   4.644   5.785
    1AU     LIG  318   8.622   4.632   5.701
    1AU     LIG  319   9.001   4.714   5.418
    1AU       S  320   6.543   4.999   5.346
    1AU     LIG  321   6.449   4.538   5.241
    1AU     LIG  322   6.666   4.131   5.079
    1AU     LIG  323   6.957   3.848   4.846
    1AU     LIG  324   7.292   3.501   4.793
    1AU     LIG  325   7.666   3.198   4.683
    1AU    AUSL  326   4.922   5.337   6.086
    1AU    AUSL  327   5.090   5.557   5.686
    1AU     AUL  328   4.737   5.427   5.788
    1AU       S  329   4.914   5.349   5.375
    1AU     LIG  330   4.520   5.281   5.191
    1AU     LIG  331   4.255   4.919   5.066
    1AU     LIG  332   4.018   4.616   4.782
    1AU     LIG  333   3.808   4.306   4.475
    1AU     LIG  334   3.464   4.125   4.183
    1AU       S  335   4.483   5.361   6.183
    1AU     LIG  336   4.269   5.001   5.989
    1AU     LIG  337   3.865   4.753   5.946
    1AU     LIG  338   3.389   4.786   6.040
    1AU     LIG  339   3.037   4.570   6.289
    1AU     LIG  340   2.620   4.335   6.372
    1AU    AUSL  341   5.056   5.733   6.243
    1AU    AUSL  342   5.271   5.322   6.327
    1AU     AUL  343   4.865   5.500   6.408
    1AU       S  344   4.967   5.078   6.547
    1AU     LIG  345   4.760   4.742   6.396
    1AU     LIG  346   4.494   4.454   6.634
    1AU     LIG  347   4.168   4.228   6.907
    1AU     LIG  348   3.854   4.004   7.196
    1AU     LIG  349   3.567   3.615   7.259
    1AU       S  350   4.467   5.677   6.277
    1AU     LIG  351   4.003   5.751   6.252
    1AU     LIG  352   3.618   5.627   6.042
    1AU     LIG  353   3.321   5.307   6.102
    1AU     LIG  354   2.946   5.073   6.227
    1AU     LIG  355   2.627   4.852   6.464
    1AU    AUSL  356   5.803   6.501   6.401
    1AU    AUSL  357   5.360   6.569   6.376
    1AU     AUL  358   5.624   6.613   6.709
    1AU       S  359   5.243   6.769   6.483
    1AU     LIG  360   4.986   7.034   6.760
    1AU     LIG  361   4.852   7.263   7.158
    1AU     LIG  362   4.727   7.676   7.373
    1AU     LIG  363   4.434   8.067   7.415
    1AU     LIG  364   4.048   8.347   7.517
    1AU       S  365   5.826   6.951   6.457
    1AU     LIG  366   5.954   7.171   6.835
    1AU     LIG  367   5.965   7.617   6.989
    1AU     LIG  368   5.943   7.890   7.396
    1AU     LIG  369   5.985   8.136   7.823
    1AU     LIG  370   5.950   8.516   8.130
    1AU    AUSL  371   5.609   6.749   6.081
    1AU    AUSL  372   5.931   6.704   5.679
    1AU     AUL  373   5.634   6.949   5.810
    1AU       S  374   5.671   6.969   6.284
    1AU     LIG  375   5.625   7.410   6.510
    1AU     LIG  376   5.544   7.856   6.718
    1AU     LIG  377   5.436   8.328   6.826
    1AU     LIG  378   5.374   8.815   6.881
    1AU     LIG  379   5.402   9.271   6.749
    1AU       S  380   5.930   7.015   5.445
    1AU     LIG  381   6.216   7.376   5.333
    1AU     LIG  382   6.386   7.830   5.216
    1AU     LIG  383   6.689   8.247   5.206
    1AU     LIG  384   6.758   8.743   5.182
    1AU     LIG  385   6.609   9.189   5.007
    1AU    AUSL  386   6.059   6.686   6.092
    1AU    AUSL  387   6.088   6.404   6.701
    1AU     AUL  388   6.182   6.657   6.445
    1AU       S  389   6.317   6.492   6.892
    1AU     LIG  390   6.609   6.433   7.285
    1AU     LIG  391   6.919   6.694   7.518
    1AU     LIG  392   7.142   7.073   7.705
    1AU     LIG  393   7.212   7.414   8.025
    1AU     LIG  394   7.200   7.619   8.454
    1AU       S  395   6.010   6.993   6.150
    1AU     LIG  396   6.144   7.371   6.407
    1AU     LIG  397   6.386   7.745   6.624
    1AU     LIG  398   6.731   8.110   6.671
    1AU     LIG  399   6.882   8.569   6.748
    1AU     LIG  400   6.819   8.983   6.927
    1AU    AUSL  401   5.684   5.162   6.434
    1AU    AUSL  402   6.107   5.096   6.282
    1AU     AUL  403   5.887   4.981   6.652
    1AU       S  404   5.677   4.599   6.505
    1AU     LIG  405   5.632   4.235   6.738
    1AU     LIG  406   5.479   3.809   6.738
    1AU     LIG  407   5.485   3.414   6.975
    1AU     LIG  408   5.515   3.242   7.420
    1AU     LIG  409   5.559   3.225   7.902
    1AU       S  410   6.255   4.886   6.345
    1AU     LIG  411   6.498   4.477   6.349
    1AU     LIG  412   6.696   4.181   6.677
    1AU     LIG  413   6.919   3.904   7.001
    1AU     LIG  414   7.030   3.457   7.169
    1AU     LIG  415   7.353   3.105   7.329
    1AU    AUSL  416   5.359   4.937   6.185
    1AU    AUSL  417   5.403   5.241   6.747
    1AU     AUL  418   5.406   4.973   6.529
    1AU       S  419   5.481   4.543   6.351
    1AU     LIG  420   5.128   4.381   6.569
    1AU     LIG  421   4.976   3.948   6.615
    1AU     LIG  422   5.063   3.480   6.627
    1AU     LIG  423   4.914   3.021   6.642
    1AU     LIG  424   4.901   2.670   6.948
    1AU       S  425   5.143   5.146   6.881
    1AU     LIG  426   4.893   4.725   6.912
    1AU     LIG  427   4.541   4.498   7.148
    1AU     LIG  428   4.277   4.212   7.433
    1AU     LIG  429   4.133   4.033   7.852
    1AU     LIG  430   4.204   3.835   8.290
    1AU    AUSL  431   5.789   4.858   6.127
    1AU    AUSL  432   5.545   5.065   5.811
    1AU     AUL  433   5.428   4.747   5.936
    1AU       S  434   5.788   4.683   5.663
    1AU     LIG  435   5.548   4.284   5.495
    1AU     LIG  436   5.321   3.862   5.430
    1AU     LIG  437   5.120   3.421   5.379
    1AU     LIG  438   4.899   2.978   5.371
    1AU     LIG  439   4.776   2.594   5.102
    1AU       S  440   5.801   4.669   6.257
    1AU     LIG  441   6.038   4.277   6.412
    1AU     LIG  442   6.044   3.860   6.644
    1AU     LIG  443   6.073   3.405   6.805
    1AU     LIG  444   6.184   2.940   6.790
    1AU     LIG  445   6.108   2.447   6.746
    1AU    AUSL  446   5.745   6.464   5.346
    1AU    AUSL  447   6.217   6.397   5.761
    1AU     AUL  448   6.076   6.587   5.358
    1AU       S  449   5.717   6.784   5.133
    1AU     LIG  450   5.978   7.122   4.947
    1AU     LIG  451   6.042   7.578   4.879
    1AU     LIG  452   6.159   7.834   4.505
    1AU     LIG  453   6.145   8.119   4.140
    1AU     LIG  454   5.964   8.548   4.109
    1AU       S  455   6.429   6.592   5.638
    1AU     LIG  456   6.586   6.987   5.379
    1AU     LIG  457   6.862   7.181   5.018
    1AU     LIG  458   7.207   7.377   4.736
    1AU     LIG  459   7.544   7.717   4.665
    1AU     LIG  460   7.691   8.174   4.679
    1AU    AUSL  461   5.585   6.462   5.773
    1AU    AUSL  462   5.457   6.172   5.455
    1AU     AUL  463   5.445   6.609   5.483
    1AU       S  464   5.696   6.962   5.345
    1AU     LIG  465   5.689   7.441   5.259
    1AU     LIG  466   5.676   7.931   5.222
    1AU     LIG  467   5.407   8.346   5.249
    1AU     LIG  468   5.348   8.851   5.302
    1AU     LIG  469   5.343   9.352   5.207
    1AU       S  470   5.162   6.446   5.152
    1AU     LIG  471   5.289   6.688   4.815
    1AU     LIG  472   5.070   6.968   4.491
    1AU     LIG  473   5.044   7.137   4.032
    1AU     LIG  474   4.938   7.375   3.620
    1AU     LIG  475   4.607   7.686   3.468
    1AU    AUSL  476   5.753   5.097   5.419
    1AU    AUSL  477   5.128   5.119   5.773
    1AU     AUL  478   5.391   4.952   5.489
    1AU       S  479   4.939   5.069   5.565
    1AU     LIG  480   4.524   4.862   5.531
    1AU     LIG  481   4.279   4.492   5.355
    1AU     LIG  482   4.112   4.178   5.031
    1AU     LIG  483   3.777   3.906   4.815
    1AU     LIG  484   3.419   3.572   4.773
    1AU       S  485   5.805   4.715   5.458
    1AU     LIG  486   5.911   4.410   5.138
    1AU     LIG  487   5.658   4.022   5.036
    1AU     LIG  488   5.520   3.573   5.042
    1AU     LIG  489   5.494   3.214   4.735
    1AU     LIG  490   5.639   2.982   4.342
    1AU    AUSL  491   5.970   5.100   5.823
    1AU    AUSL  492   6.031   5.416   5.490
    1AU     AUL  493   6.094   5.068   5.431
    1AU       S  494   6.037   4.736   5.750
    1AU     LIG  495   6.069   4.271   5.605
    1AU     LIG  496   5.838   3.863   5.481
    1AU     LIG  497   5.984   3.464   5.263
    1AU     LIG  498   6.252   3.095   5.124
    1AU     LIG  499   6.567   2.722   5.177
    1AU       S  500   6.338   5.217   5.081
    1AU     LIG  501   6.194   4.812   4.868
    1AU     LIG  502   6.376   4.395   4.742
    1AU     LIG  503   6.698   4.132   4.491
    1AU     LIG  504   7.006   4.133   4.112
    1AU     LIG  505   7.135   3.937   3.700
    2POPC   NC3  506   1.985   8.010   8.251
    2POPC   PO4  507   2.456   8.398   8.258
    2POPC   GL1  508   2.327   8.297   7.803
    2POPC   GL2  509   2.194   7.935   7.762
    2POPC   C1A  510   2.263   8.233   7.330
    2POPC   D2A  511   2.185   8.414   6.896
    2POPC   C3A  512   2.236   8.288   6.448
    2POPC   C4A  513   2.393   8.456   6.032
    2POPC   C1B  514   1.853   7.896   7.417
    2POPC   C2B  515   1.707   7.781   6.996
    2POPC   C3B  516   1.736   7.840   6.557
    2POPC   C4B  517   1.714   8.172   6.261
    3POPC   NC3  518   1.957   2.738   8.256
    3POPC   PO4  519   1.603   3.182   7.948
    3POPC   GL1  520   1.779   2.957   7.613
    3POPC   GL2  521   2.040   2.944   7.761
    3POPC   C1A  522   1.741   2.704   7.219
    3POPC   D2A  523   1.804   2.549   6.771
    3POPC   C3A  524   1.634   2.870   6.484
    3POPC   C4A  525   1.748   3.008   6.078
    3POPC   C1B  526   2.253   2.779   7.383
    3POPC   C2B  527   2.416   2.822   6.988
    3POPC   C3B  528   2.338   2.664   6.624
    3POPC   C4B  529   2.119   2.804   6.346
    4POPC   NC3  530   8.142   9.770   8.005
    4POPC   PO4  531   8.115   9.161   8.173
    4POPC   GL1  532   8.384   9.348   7.806
    4POPC   GL2  533   8.114   9.535   7.569
    4POPC   C1A  534   8.503   9.300   7.365
    4POPC   D2A  535   8.245   9.540   7.044
    4POPC   C3A  536   8.371   9.622   6.628
    4POPC   C4A  537   8.405   9.413   6.186
    4POPC   C1B  538   7.819   9.779   7.317
    4POPC   C2B  539   7.702   9.916   6.898
    4POPC   C3B  540   7.644   9.749   6.508
    4POPC   C4B  541   7.995   9.692   6.297
    5POPC   NC3  542   1.938   0.536   7.932
    5POPC   PO4  543   1.535   0.026   8.060
    5POPC   GL1  544   1.655   0.131   7.626
    5POPC   GL2  545   1.984   0.299   7.501
    5POPC   C1A  546   1.721   0.054   7.178
    5POPC   D2A  547   1.850   0.337   6.868
    5POPC   C3A  548   1.884   0.172   6.480
    5POPC   C4A  549   1.718   0.188   6.086
    5POPC   C1B  550   1.926   0.688   7.248
    5POPC   C2B  551   1.827   0.843   6.805
    5POPC   C3B  552   2.006   0.694   6.377
    5POPC   C4B  553   1.922   0.591   5.904
    6POPC   NC3  554   7.340   9.307   8.109
    6POPC   PO4  555   7.586   9.942   8.053
    6POPC   GL1  556   7.503   9.642   7.730
    6POPC   GL2  557   7.170   9.792   7.676
    6POPC   C1A  558   7.606   9.320   7.407
    6POPC   D2A  559   7.741   9.395   6.932
    6POPC   C3A  560   7.601   9.258   6.480
    6POPC   C4A  561   7.716   9.388   6.008
    6POPC   C1B  562   7.304   9.680   7.249
    6POPC   C2B  563   7.235   9.686   6.852
    6POPC   C3B  564   7.167   9.511   6.468
    6POPC   C4B  565   7.234   9.672   6.077
    7POPC   NC3  566  10.901   0.403   8.015
    7POPC   PO4  567   0.074   0.711   8.108
    7POPC   GL1  568   0.122   0.533   7.718
    7POPC   GL2  569  11.283   0.464   7.635
    7POPC   C1A  570   0.141   0.639   7.299
    7POPC   D2A  571  11.295   0.631   7.029
    7POPC   C3A  572  11.443   0.510   6.635
    7POPC   C4A  573  11.258   0.529   6.246
    7POPC   C1B  574  10.915   0.395   7.349
    7POPC   C2B  575  10.816   0.481   6.907
    7POPC   C3B  576  10.917   0.279   6.529
    7POPC   C4B  577  10.651   0.094   6.200
    8POPC   NC3  578  10.552   7.267   8.087
    8POPC   PO4  579  10.582   7.926   8.101
    8POPC   GL1  580  10.648   7.639   7.724
    8POPC   GL2  581  10.350   7.423   7.658
    8POPC   C1A  582  10.672   7.511   7.260
    8POPC   D2A  583  10.672   7.682   6.833
    8POPC   C3A  584  10.467   7.456   6.487
    8POPC   C4A  585  10.633   7.456   6.086
    8POPC   C1B  586  10.130   7.504   7.284
    8POPC   C2B  587  10.280   7.293   6.930
    8POPC   C3B  588  10.123   7.053   6.593
    8POPC   C4B  589   9.975   7.351   6.291
    9POPC   NC3  590   1.911   8.932   7.955
    9POPC   PO4  591   1.823   8.299   7.932
    9POPC   GL1  592   1.935   8.563   7.586
    9POPC   GL2  593   2.271   8.781   7.613
    9POPC   C1A  594   1.779   8.381   7.204
    9POPC   D2A  595   1.711   8.297   6.778
    9POPC   C3A  596   1.831   8.614   6.473
    9POPC   C4A  597   1.843   8.665   6.024
    9POPC   C1B  598   2.128   8.835   7.182
    9POPC   C2B  599   2.204   8.893   6.723
    9POPC   C3B  600   2.159   8.969   6.276
    9POPC   C4B  601   1.937   9.280   6.008
   10POPC   NC3  602   9.380   1.788   8.128
   10POPC   PO4  603   8.732   1.967   8.017
   10POPC   GL1  604   8.839   1.947   7.587
   10POPC   GL2  605   8.953   2.310   7.616
   10POPC   C1A  606   8.922   1.737   7.156
   10POPC   D2A  607   9.194   1.980   6.809
   10POPC   C3A  608   9.365   1.816   6.432
   10POPC   C4A  609   9.045   1.958   6.145
   10POPC   C1B  610   8.976   2.247   7.193
   10POPC   C2B  611   8.717   2.101   6.863
   10POPC   C3B  612   8.633   1.952   6.469
   10POPC   C4B  613   8.583   2.196   6.068
   11POPC   NC3  614  11.266   5.954   8.054
   11POPC   PO4  615  10.670   6.325   8.039
   11POPC   GL1  616  10.910   6.130   7.687
   11POPC   GL2  617  10.971   5.753   7.661
   11POPC   C1A  618  11.052   6.020   7.248
   11POPC   D2A  619  11.291   5.779   6.915
   11POPC   C3A  620  11.160   5.831   6.485
   11POPC   C4A  621  11.053   6.250   6.328
   11POPC   C1B  622  11.291   5.542   7.388
   11POPC   C2B  623  11.422   5.277   7.018
   11POPC   C3B  624  11.462   5.409   6.579
   11POPC   C4B  625  11.247   5.422   6.154
   12POPC   NC3  626   0.391   0.279   8.080
   12POPC   PO4  627   0.844   0.786   7.955
   12POPC   GL1  628   0.633   0.578   7.671
   12POPC   GL2  629   0.774   0.278   7.604
   12POPC   C1A  630   0.671   0.689   7.256
   12POPC   D2A  631   0.474   0.569   6.870
   12POPC   C3A  632   0.621   0.756   6.499
   12POPC   C4A  633   0.768   0.678   6.073
   12POPC   C1B  634   0.461   0.217   7.283
   12POPC   C2B  635   0.273   0.095   6.878
   12POPC   C3B  636   0.388   0.237   6.457
   12POPC   C4B  637   0.262   0.574   6.197
   13POPC   NC3  638   2.933   2.893   8.101
   13POPC   PO4  639   2.300   3.045   8.204
   13POPC   GL1  640   2.543   2.959   7.776
   13POPC   GL2  641   2.708   2.643   7.709
   13POPC   C1A  642   2.729   2.998   7.338
   13POPC   D2A  643   2.767   3.215   6.938
   13POPC   C3A  644   2.742   2.989   6.591
   13POPC   C4A  645   2.888   2.668   6.363
   13POPC   C1B  646   2.656   2.448   7.297
   13POPC   C2B  647   2.756   2.453   6.856
   13POPC   C3B  648   2.600   2.258   6.487
   13POPC   C4B  649   2.471   2.463   6.135
   14POPC   NC3  650  11.289   8.770   8.027
   14POPC   PO4  651  10.646   8.880   7.856
   14POPC   GL1  652  10.874   8.629   7.585
   14POPC   GL2  653  11.193   8.759   7.538
   14POPC   C1A  654  10.886   8.698   7.141
   14POPC   D2A  655  11.226   8.725   6.859
   14POPC   C3A  656  11.016   8.853   6.513
   14POPC   C4A  657  10.883   8.687   6.155
   14POPC   C1B  658  11.346   9.086   7.254
   14POPC   C2B  659  11.251   9.267   6.837
   14POPC   C3B  660  11.464   9.107   6.509
   14POPC   C4B  661  11.345   8.871   6.121
   15POPC   NC3  662   8.608  11.404   8.009
   15POPC   PO4  663   9.086  10.972   8.252
   15POPC   GL1  664   8.951  11.027   7.751
   15POPC   GL2  665   9.041  11.237   7.477
   15POPC   C1A  666   8.772  10.835   7.314
   15POPC   D2A  667   8.880  11.028   6.875
   15POPC   C3A  668   8.944  10.825   6.438
   15POPC   C4A  669   8.947  10.932   5.984
   15POPC   C1B  670   8.609  11.324   7.307
   15POPC   C2B  671   8.508  11.390   6.888
   15POPC   C3B  672   8.745  11.411   6.505
   15POPC   C4B  673   9.167  11.388   6.373
   16POPC   NC3  674   7.022  11.259   7.859
   16POPC   PO4  675   6.892  10.661   8.090
   16POPC   GL1  676   6.698  10.860   7.682
   16POPC   GL2  677   6.710  11.200   7.482
   16POPC   C1A  678   6.827  10.778   7.253
   16POPC   D2A  679   6.777  11.032   6.882
   16POPC   C3A  680   6.717  10.831   6.456
   16POPC   C4A  681   6.498  11.044   6.083
   16POPC   C1B  682   6.395  11.343   7.196
   16POPC   C2B  683   6.299  11.214   6.778
   16POPC   C3B  684   6.620  11.345   6.506
   16POPC   C4B  685   6.526   0.083   6.198
   17POPC   NC3  686   0.520   8.093   8.105
   17POPC   PO4  687   0.017   7.686   7.841
   17POPC   GL1  688   0.227   8.037   7.651
   17POPC   GL2  689   0.595   8.116   7.615
   17POPC   C1A  690   0.186   8.112   7.222
   17POPC   D2A  691   0.447   8.080   6.881
   17POPC   C3A  692   0.207   8.055   6.510
   17POPC   C4A  693   0.181   8.199   6.101
   17POPC   C1B  694   0.595   8.406   7.295
   17POPC   C2B  695   0.743   8.520   6.893
   17POPC   C3B  696   0.884   8.204   6.625
   17POPC   C4B  697   0.696   7.984   6.292
   18POPC   NC3  698   4.011  11.050   7.911
   18POPC   PO4  699   4.663  11.424   8.032
   18POPC   GL1  700   4.407  11.446   7.669
   18POPC   GL2  701   4.391  11.117   7.595
   18POPC   C1A  702   4.407  11.429   7.179
   18POPC   D2A  703   4.272   0.075   6.764
   18POPC   C3A  704   4.218  11.319   6.397
   18POPC   C4A  705   4.227  11.378   5.945
   18POPC   C1B  706   4.319  10.925   7.225
   18POPC   C2B  707   4.352  11.032   6.808
   18POPC   C3B  708   4.611  10.896   6.473
   18POPC   C4B  709   4.433  10.921   6.089
   19POPC   NC3  710   5.862  11.156   7.985
   19POPC   PO4  711   6.558  11.209   8.025
   19POPC   GL1  712   6.251  11.102   7.662
   19POPC   GL2  713   6.103  11.439   7.624
   19POPC   C1A  714   6.136  10.910   7.212
   19POPC   D2A  715   5.772  10.764   6.965
   19POPC   C3A  716   5.757  10.860   6.520
   19POPC   C4A  717   5.998  11.083   6.201
   19POPC   C1B  718   5.820  11.323   7.301
   19POPC   C2B  719   5.778  11.257   6.874
   19POPC   C3B  720   5.658  11.357   6.486
   19POPC   C4B  721   5.460   0.114   6.244
   20POPC   NC3  722   6.417   1.019   8.136
   20POPC   PO4  723   6.236   1.627   7.965
   20POPC   GL1  724   6.470   1.337   7.677
   20POPC   GL2  725   6.554   0.987   7.660
   20POPC   C1A  726   6.573   1.389   7.246
   20POPC   D2A  727   6.531   1.622   6.868
   20POPC   C3A  728   6.411   1.412   6.499
   20POPC   C4A  729   6.320   1.382   6.060
   20POPC   C1B  730   6.816   0.941   7.328
   20POPC   C2B  731   6.677   0.994   6.922
   20POPC   C3B  732   6.849   0.950   6.548
   20POPC   C4B  733   6.770   1.164   6.198
   21POPC   NC3  734   0.403   6.311   8.130
   21POPC   PO4  735   0.614   7.004   8.016
   21POPC   GL1  736   0.332   6.800   7.720
   21POPC   GL2  737   0.475   6.474   7.649
   21POPC   C1A  738   0.122   6.726   7.305
   21POPC   D2A  739   0.232   6.520   6.912
   21POPC   C3A  740   0.058   6.737   6.575
   21POPC   C4A  741   0.209   6.875   6.164
   21POPC   C1B  742   0.610   6.589   7.250
   21POPC   C2B  743   0.743   6.423   6.842
   21POPC   C3B  744   0.552   6.556   6.443
   21POPC   C4B  745   0.520   6.451   5.997
   22POPC   NC3  746   2.393   6.240   8.147
   22POPC   PO4  747   2.239   6.852   8.089
   22POPC   GL1  748   1.915   6.851   7.795
   22POPC   GL2  749   1.893   6.510   7.707
   22POPC   C1A  750   1.888   6.954   7.382
   22POPC   D2A  751   1.912   6.760   6.968
   22POPC   C3A  752   2.091   6.945   6.599
   22POPC   C4A  753   2.228   6.752   6.194
   22POPC   C1B  754   2.068   6.304   7.310
   22POPC   C2B  755   1.904   6.251   6.876
   22POPC   C3B  756   1.895   6.462   6.474
   22POPC   C4B  757   1.778   6.348   6.053
   23POPC   NC3  758  11.090   7.733   8.025
   23POPC   PO4  759  10.941   8.448   8.133
   23POPC   GL1  760  10.913   8.147   7.754
   23POPC   GL2  761  11.249   8.241   7.692
   23POPC   C1A  762  11.057   7.871   7.361
   23POPC   D2A  763  11.167   7.621   6.972
   23POPC   C3A  764  11.088   7.823   6.539
   23POPC   C4A  765  11.059   7.965   6.104
   23POPC   C1B  766  11.229   8.337   7.253
   23POPC   C2B  767  11.303   8.202   6.825
   23POPC   C3B  768  11.261   8.362   6.391
   23POPC   C4B  769  11.250   8.389   5.927
   24POPC   NC3  770   0.107   4.250   8.291
   24POPC   PO4  771   0.745   4.400   8.272
   24POPC   GL1  772   0.409   4.271   7.869
   24POPC   GL2  773   0.295   4.541   7.657
   24POPC   C1A  774   0.333   4.113   7.387
   24POPC   D2A  775   0.485   4.186   6.938
   24POPC   C3A  776   0.304   4.024   6.547
   24POPC   C4A  777   0.382   4.089   6.083
   24POPC   C1B  778   0.585   4.555   7.298
   24POPC   C2B  779   0.611   4.666   6.841
   24POPC   C3B  780   0.424   4.527   6.443
   24POPC   C4B  781   0.087   4.512   6.148
   25POPC   NC3  782   1.150   1.137   8.063
   25POPC   PO4  783   1.531   1.626   8.058
   25POPC   GL1  784   1.241   1.517   7.702
   25POPC   GL2  785   1.221   1.158   7.580
   25POPC   C1A  786   1.253   1.547   7.239
   25POPC   D2A  787   1.024   1.453   6.842
   25POPC   C3A  788   1.253   1.577   6.499
   25POPC   C4A  789   1.359   1.440   6.114
   25POPC   C1B  790   1.136   1.012   7.181
   25POPC   C2B  791   1.185   0.959   6.773
   25POPC   C3B  792   1.059   1.080   6.401
   25POPC   C4B  793   1.184   0.983   5.994
   26POPC   NC3  794   1.231   9.644   8.130
   26POPC   PO4  795   1.642   9.272   7.780
   26POPC   GL1  796   1.462   9.687   7.586
   26POPC   GL2  797   1.175   9.869   7.696
   26POPC   C1A  798   1.406   9.775   7.161
   26POPC   D2A  799   1.229   9.438   6.955
   26POPC   C3A  800   1.333   9.399   6.550
   26POPC   C4A  801   1.233   9.522   6.179
   26POPC   C1B  802   0.952   9.700   7.377
   26POPC   C2B  803   0.927   9.860   6.979
   26POPC   C3B  804   1.118   9.852   6.605
   26POPC   C4B  805   0.858   9.832   6.257
   27POPC   NC3  806   5.282   2.554   8.208
   27POPC   PO4  807   5.461   1.958   8.076
   27POPC   GL1  808   5.398   1.742   7.671
   27POPC   GL2  809   5.768   1.747   7.553
   27POPC   C1A  810   5.331   1.904   7.230
   27POPC   D2A  811   5.626   2.086   6.919
   27POPC   C3A  812   5.491   2.111   6.485
   27POPC   C4A  813   5.719   2.164   6.097
   27POPC   C1B  814   5.661   1.531   7.189
   27POPC   C2B  815   5.533   1.609   6.751
   27POPC   C3B  816   5.847   1.747   6.442
   27POPC   C4B  817   6.124   1.831   6.104
   28POPC   NC3  818   7.689   0.294   7.962
   28POPC   PO4  819   7.174  11.447   8.261
   28POPC   GL1  820   7.114   0.251   7.821
   28POPC   GL2  821   7.271   0.598   7.822
   28POPC   C1A  822   7.173   0.156   7.315
   28POPC   D2A  823   6.950   0.016   6.932
   28POPC   C3A  824   7.132  11.495   6.521
   28POPC   C4A  825   7.024   0.160   6.099
   28POPC   C1B  826   7.262   0.652   7.372
   28POPC   C2B  827   7.409   0.490   6.975
   28POPC   C3B  828   7.429   0.401   6.537
   28POPC   C4B  829   7.283   0.598   6.152
   29POPC   NC3  830   7.965   8.739   8.103
   29POPC   PO4  831   8.583   8.618   8.112
   29POPC   GL1  832   8.351   8.825   7.731
   29POPC   GL2  833   8.006   9.026   7.687
   29POPC   C1A  834   8.098   8.642   7.355
   29POPC   D2A  835   7.894   8.779   6.942
   29POPC   C3A  836   8.135   8.657   6.585
   29POPC   C4A  837   8.000   8.533   6.184
   29POPC   C1B  838   8.044   9.128   7.270
   29POPC   C2B  839   8.354   9.010   6.978
   29POPC   C3B  840   8.377   9.105   6.586
   29POPC   C4B  841   8.025   9.079   6.303
   30POPC   NC3  842   6.393   9.617   8.200
   30POPC   PO4  843   6.897   9.195   8.088
   30POPC   GL1  844   6.739   9.513   7.737
   30POPC   GL2  845   6.449   9.781   7.708
   30POPC   C1A  846   6.783   9.614   7.271
   30POPC   D2A  847   6.769   9.497   6.827
   30POPC   C3A  848   6.733   9.769   6.458
   30POPC   C4A  849   6.765   9.435   6.136
   30POPC   C1B  850   6.261   9.699   7.329
   30POPC   C2B  851   6.356   9.777   6.941
   30POPC   C3B  852   6.227   9.668   6.550
   30POPC   C4B  853   6.160   9.829   6.179
   31POPC   NC3  854   2.354   5.387   8.215
   31POPC   PO4  855   3.057   5.320   8.169
   31POPC   GL1  856   2.725   5.484   7.828
   31POPC   GL2  857   2.598   5.837   7.831
   31POPC   C1A  858   2.697   5.544   7.330
   31POPC   D2A  859   2.880   5.554   6.871
   31POPC   C3A  860   2.678   5.483   6.446
   31POPC   C4A  861   2.874   5.529   6.023
   31POPC   C1B  862   2.595   6.035   7.400
   31POPC   C2B  863   2.730   6.038   6.947
   31POPC   C3B  864   2.666   6.008   6.477
   31POPC   C4B  865   2.261   6.143   6.279
   32POPC   NC3  866   8.077   2.073   8.205
   32POPC   PO4  867   7.859   1.583   7.820
   32POPC   GL1  868   8.099   1.818   7.554
   32POPC   GL2  869   8.321   2.041   7.746
   32POPC   C1A  870   8.432   1.641   7.300
   32POPC   D2A  871   8.490   1.561   6.848
   32POPC   C3A  872   8.064   1.622   6.637
   32POPC   C4A  873   7.797   1.593   6.242
   32POPC   C1B  874   8.440   2.153   7.340
   32POPC   C2B  875   8.242   1.994   6.970
   32POPC   C3B  876   8.140   2.147   6.581
   32POPC   C4B  877   8.198   1.890   6.216
   33POPC   NC3  878   4.600  10.954   8.040
   33POPC   PO4  879   4.210  10.371   8.241
   33POPC   GL1  880   4.498  10.270   7.723
   33POPC   GL2  881   4.278  10.430   7.426
   33POPC   C1A  882   4.720  10.298   7.295
   33POPC   D2A  883   4.653  10.626   6.964
   33POPC   C3A  884   4.722  10.398   6.561
   33POPC   C4A  885   4.740  10.509   6.134
   33POPC   C1B  886   4.024  10.125   7.244
   33POPC   C2B  887   3.921   9.959   6.845
   33POPC   C3B  888   3.925  10.144   6.415
   33POPC   C4B  889   4.261  10.432   6.301
   34POPC   NC3  890   7.335   8.135   8.012
   34POPC   PO4  891   6.772   8.298   7.952
   34POPC   GL1  892   7.119   8.477   7.654
   34POPC   GL2  893   7.455   8.367   7.571
   34POPC   C1A  894   7.135   8.444   7.188
   34POPC   D2A  895   7.267   8.209   6.792
   34POPC   C3A  896   7.109   8.328   6.370
   34POPC   C4A  897   6.768   8.141   6.137
   34POPC   C1B  898   7.656   8.367   7.169
   34POPC   C2B  899   7.765   8.323   6.738
   34POPC   C3B  900   7.609   8.231   6.338
   34POPC   C4B  901   7.663   8.269   5.885
   35POPC   NC3  902   0.984   6.775   7.873
   35POPC   PO4  903   0.942   6.139   8.119
   35POPC   GL1  904   1.014   6.317   7.680
   35POPC   GL2  905   1.366   6.448   7.702
   35POPC   C1A  906   1.098   6.539   7.252
   35POPC   D2A  907   0.992   6.860   6.913
   35POPC   C3A  908   1.076   6.651   6.490
   35POPC   C4A  909   1.028   6.507   6.057
   35POPC   C1B  910   1.590   6.479   7.287
   35POPC   C2B  911   1.452   6.583   6.865
   35POPC   C3B  912   1.569   6.847   6.561
   35POPC   C4B  913   1.482   6.762   6.145
   36POPC   NC3  914   3.257   5.737   8.143
   36POPC   PO4  915   3.054   6.312   8.297
   36POPC   GL1  916   3.077   6.163   7.791
   36POPC   GL2  917   3.074   5.823   7.652
   36POPC   C1A  918   3.144   6.165   7.268
   36POPC   D2A  919   3.217   5.967   6.818
   36POPC   C3A  920   3.309   6.183   6.379
   36POPC   C4A  921   3.367   6.389   5.947
   36POPC   C1B  922   3.232   5.655   7.259
   36POPC   C2B  923   3.603   5.664   6.974
   36POPC   C3B  924   3.563   5.704   6.537
   36POPC   C4B  925   3.149   5.709   6.384
   37POPC   NC3  926   8.367   0.628   8.027
   37POPC   PO4  927   8.141   0.046   8.024
   37POPC   GL1  928   8.361   0.237   7.656
   37POPC   GL2  929   8.083   0.486   7.609
   37POPC   C1A  930   8.397   0.378   7.190
   37POPC   D2A  931   8.067   0.337   6.828
   37POPC   C3A  932   8.204   0.393   6.385
   37POPC   C4A  933   8.329   0.111   6.022
   37POPC   C1B  934   7.822   0.657   7.258
   37POPC   C2B  935   7.785   0.797   6.812
   37POPC   C3B  936   7.791   0.688   6.339
   37POPC   C4B  937   7.735   0.669   5.890
   38POPC   NC3  938   1.563   2.604   7.915
   38POPC   PO4  939   1.012   2.952   8.104
   38POPC   GL1  940   1.016   2.732   7.728
   38POPC   GL2  941   1.266   2.962   7.637
   38POPC   C1A  942   1.185   2.557   7.314
   38POPC   D2A  943   1.307   2.671   6.894
   38POPC   C3A  944   1.357   2.460   6.491
   38POPC   C4A  945   1.374   2.634   6.078
   38POPC   C1B  946   1.019   3.111   7.321
   38POPC   C2B  947   0.884   2.975   6.947
   38POPC   C3B  948   1.080   3.018   6.580
   38POPC   C4B  949   0.909   2.894   6.209
   39POPC   NC3  950   0.592   2.736   8.115
   39POPC   PO4  951   0.753   2.134   7.970
   39POPC   GL1  952   0.553   2.450   7.694
   39POPC   GL2  953   0.267   2.686   7.690
   39POPC   C1A  954   0.669   2.682   7.338
   39POPC   D2A  955   0.794   2.436   6.997
   39POPC   C3A  956   0.885   2.557   6.599
   39POPC   C4A  957   0.889   2.392   6.152
   39POPC   C1B  958   0.155   2.757   7.239
   39POPC   C2B  959   0.394   2.739   6.859
   39POPC   C3B  960   0.448   2.753   6.419
   39POPC   C4B  961   0.114   2.757   6.119
   40POPC   NC3  962   5.002   1.806   8.093
   40POPC   PO4  963   4.759   2.475   8.147
   40POPC   GL1  964   4.931   2.237   7.777
   40POPC   GL2  965   4.719   1.984   7.702
   40POPC   C1A  966   4.897   2.209   7.279
   40POPC   D2A  967   5.125   2.219   6.852
   40POPC   C3A  968   5.012   2.307   6.399
   40POPC   C4A  969   5.267   2.435   6.028
   40POPC   C1B  970   4.889   1.682   7.387
   40POPC   C2B  971   4.844   1.809   6.934
   40POPC   C3B  972   5.047   1.813   6.535
   40POPC   C4B  973   4.851   1.696   6.152
   41POPC   NC3  974   8.870  10.617   8.028
   41POPC   PO4  975   8.363  10.129   8.211
   41POPC   GL1  976   8.459  10.426   7.810
   41POPC   GL2  977   8.776  10.343   7.619
   41POPC   C1A  978   8.388  10.449   7.310
   41POPC   D2A  979   8.519  10.202   6.903
   41POPC   C3A  980   8.541  10.470   6.519
   41POPC   C4A  981   8.520  10.649   6.082
   41POPC   C1B  982   8.911  10.196   7.233
   41POPC   C2B  983   9.024  10.331   6.811
   41POPC   C3B  984   8.932  10.187   6.405
   41POPC   C4B  985   8.971  10.433   6.072
   42POPC   NC3  986   7.501   2.235   8.026
   42POPC   PO4  987   7.797   1.727   8.331
   42POPC   GL1  988   7.411   1.746   7.858
   42POPC   GL2  989   7.586   1.978   7.607
   42POPC   C1A  990   7.476   1.616   7.310
   42POPC   D2A  991   7.748   1.870   6.972
   42POPC   C3A  992   7.659   1.994   6.494
   42POPC   C4A  993   7.360   1.861   6.150
   42POPC   C1B  994   7.346   2.097   7.228
   42POPC   C2B  995   7.266   1.939   6.811
   42POPC   C3B  996   7.183   2.216   6.464
   42POPC   C4B  997   6.944   2.152   6.081
   43POPC   NC3  998   7.579   1.240   7.961
   43POPC   PO4  999   6.880   1.255   8.058
   43POPC   GL1 1000   6.992   1.379   7.648
   43POPC   GL2 1001   7.218   1.107   7.633
   43POPC   C1A 1002   7.071   1.357   7.198
   43POPC   D2A 1003   6.979   1.403   6.778
   43POPC   C3A 1004   7.261   1.442   6.436
   43POPC   C4A 1005   7.155   1.437   5.987
   43POPC   C1B 1006   7.494   1.086   7.282
   43POPC   C2B 1007   7.261   0.973   6.923
   43POPC   C3B 1008   7.363   0.933   6.524
   43POPC   C4B 1009   7.481   1.073   6.124
   44POPC   NC3 1010   1.910   9.675   7.805
   44POPC   PO4 1011   2.322   9.163   7.995
   44POPC   GL1 1012   2.318   9.421   7.640
   44POPC   GL2 1013   2.068   9.248   7.486
   44POPC   C1A 1014   2.343   9.624   7.214
   44POPC   D2A 1015   2.338   9.373   6.844
   44POPC   C3A 1016   2.116   9.447   6.475
   44POPC   C4A 1017   2.135   9.740   6.154
   44POPC   C1B 1018   1.879   9.295   7.071
   44POPC   C2B 1019   1.736   9.624   6.785
   44POPC   C3B 1020   1.661   9.741   6.367
   44POPC   C4B 1021   1.693   9.927   5.989
   45POPC   NC3 1022  11.055   3.466   8.008
   45POPC   PO4 1023   0.097   3.227   7.727
   45POPC   GL1 1024  11.178   3.457   7.523
   45POPC   GL2 1025  11.021   3.824   7.663
   45POPC   C1A 1026  10.858   3.659   7.213
   45POPC   D2A 1027  10.755   3.471   6.834
   45POPC   C3A 1028  11.075   3.219   6.651
   45POPC   C4A 1029  11.034   3.203   6.210
   45POPC   C1B 1030  11.307   3.925   7.351
   45POPC   C2B 1031  11.305   3.732   6.950
   45POPC   C3B 1032  11.148   3.729   6.539
   45POPC   C4B 1033  11.449   3.520   6.271
   46POPC   NC3 1034   8.818   8.224   8.012
   46POPC   PO4 1035   8.458   7.757   7.792
   46POPC   GL1 1036   8.836   7.896   7.582
   46POPC   GL2 1037   8.831   8.248   7.503
   46POPC   C1A 1038   9.008   7.844   7.162
   46POPC   D2A 1039   9.061   7.975   6.715
   46POPC   C3A 1040   8.931   7.804   6.300
   46POPC   C4A 1041   8.646   7.779   5.917
   46POPC   C1B 1042   8.824   8.355   7.059
   46POPC   C2B 1043   9.143   8.474   6.771
   46POPC   C3B 1044   9.097   8.336   6.342
   46POPC   C4B 1045   8.945   8.180   5.946
   47POPC   NC3 1046   1.384   8.271   8.070
   47POPC   PO4 1047   0.937   7.849   8.050
   47POPC   GL1 1048   1.103   8.016   7.671
   47POPC   GL2 1049   0.957   7.729   7.523
   47POPC   C1A 1050   1.279   8.232   7.285
   47POPC   D2A 1051   1.263   8.522   6.926
   47POPC   C3A 1052   1.325   8.443   6.474
   47POPC   C4A 1053   1.066   8.335   6.105
   47POPC   C1B 1054   1.214   7.711   7.160
   47POPC   C2B 1055   1.297   7.999   6.810
   47POPC   C3B 1056   1.253   7.949   6.371
   47POPC   C4B 1057   1.473   7.743   6.098
   48POPC   NC3 1058   0.614  10.428   8.069
   48POPC   PO4 1059   0.076  10.065   8.228
   48POPC   GL1 1060   0.289  10.130   7.772
   48POPC   GL2 1061   0.360  10.490   7.644
   48POPC   C1A 1062   0.612  10.115   7.393
   48POPC   D2A 1063   0.455  10.036   6.957
   48POPC   C3A 1064   0.720  10.197   6.635
   48POPC   C4A 1065   0.722  10.370   6.245
   48POPC   C1B 1066   0.211  10.406   7.247
   48POPC   C2B 1067   0.355  10.531   6.861
   48POPC   C3B 1068   0.266  10.466   6.451
   48POPC   C4B 1069   0.190  10.786   6.185
   49POPC   NC3 1070   1.206   3.378   8.073
   49POPC   PO4 1071   0.750   3.895   7.900
   49POPC   GL1 1072   1.152   3.803   7.646
   49POPC   GL2 1073   1.394   3.527   7.637
   49POPC   C1A 1074   1.266   3.712   7.191
   49POPC   D2A 1075   1.076   3.471   6.851
   49POPC   C3A 1076   1.116   3.710   6.446
   49POPC   C4A 1077   1.123   3.620   6.006
   49POPC   C1B 1078   1.526   3.264   7.299
   49POPC   C2B 1079   1.469   3.141   6.915
   49POPC   C3B 1080   1.473   3.352   6.544
   49POPC   C4B 1081   1.309   3.202   6.176
   50POPC   NC3 1082   1.885   7.109   8.226
   50POPC   PO4 1083   1.283   7.029   8.094
   50POPC   GL1 1084   1.410   6.991   7.666
   50POPC   GL2 1085   1.260   7.336   7.670
   50POPC   C1A 1086   1.413   6.962   7.208
   50POPC   D2A 1087   1.331   7.272   6.901
   50POPC   C3A 1088   1.169   7.154   6.506
   50POPC   C4A 1089   1.396   7.261   6.152
   50POPC   C1B 1090   1.002   7.229   7.346
   50POPC   C2B 1091   0.816   7.375   6.981
   50POPC   C3B 1092   1.000   7.611   6.654
   50POPC   C4B 1093   0.974   7.533   6.219
   51POPC   NC3 1094   3.434   9.471   8.271
   51POPC   PO4 1095   3.493  10.136   8.154
   51POPC   GL1 1096   3.487   9.917   7.775
   51POPC   GL2 1097   3.676   9.623   7.761
   51POPC   C1A 1098   3.552   9.941   7.339
   51POPC   D2A 1099   3.260   9.827   7.026
   51POPC   C3A 1100   3.473   9.797   6.662
   51POPC   C4A 1101   3.456   9.982   6.294
   51POPC   C1B 1102   3.473   9.434   7.372
   51POPC   C2B 1103   3.337   9.335   6.916
   51POPC   C3B 1104   3.519   9.329   6.468
   51POPC   C4B 1105   3.803   9.292   6.094
   52POPC   NC3 1106   8.948   3.317   8.230
   52POPC   PO4 1107   9.136   3.886   8.097
   52POPC   GL1 1108   9.223   3.606   7.719
   52POPC   GL2 1109   8.988   3.318   7.719
   52POPC   C1A 1110   9.091   3.602   7.267
   52POPC   D2A 1111   8.809   3.548   6.904
   52POPC   C3A 1112   8.960   3.640   6.487
   52POPC   C4A 1113   8.863   3.817   6.082
   52POPC   C1B 1114   8.852   3.149   7.317
   52POPC   C2B 1115   9.036   3.097   6.924
   52POPC   C3B 1116   8.785   3.132   6.576
   52POPC   C4B 1117   8.652   3.349   6.185
   53POPC   NC3 1118   1.736   5.322   7.983
   53POPC   PO4 1119   2.193   5.823   8.160
   53POPC   GL1 1120   2.144   5.596   7.751
   53POPC   GL2 1121   1.792   5.696   7.644
   53POPC   C1A 1122   2.151   5.705   7.282
   53POPC   D2A 1123   1.916   5.726   6.882
   53POPC   C3A 1124   2.160   5.684   6.496
   53POPC   C4A 1125   1.997   5.480   6.118
   53POPC   C1B 1126   1.659   5.961   7.294
   53POPC   C2B 1127   1.410   6.087   6.938
   53POPC   C3B 1128   1.460   6.184   6.508
   53POPC   C4B 1129   1.735   5.894   6.288
   54POPC   NC3 1130  11.086   9.780   8.145
   54POPC   PO4 1131   0.045   9.245   8.097
   54POPC   GL1 1132  11.440   9.457   7.668
   54POPC   GL2 1133  11.086   9.592   7.682
   54POPC   C1A 1134  11.271   9.605   7.220
   54POPC   D2A 1135  11.291   9.859   6.819
   54POPC   C3A 1136  11.443   9.631   6.474
   54POPC   C4A 1137  11.465   9.633   6.045
   54POPC   C1B 1138  10.862   9.869   7.380
   54POPC   C2B 1139  10.815   9.701   6.939
   54POPC   C3B 1140  10.920   9.584   6.515
   54POPC   C4B 1141  11.099   9.307   6.236
   55POPC   NC3 1142  10.780   5.080   8.052
   55POPC   PO4 1143  10.173   5.450   8.107
   55POPC   GL1 1144  10.283   5.273   7.697
   55POPC   GL2 1145  10.450   4.956   7.667
   55POPC   C1A 1146  10.382   5.388   7.270
   55POPC   D2A 1147  10.476   5.259   6.834
   55POPC   C3A 1148  10.187   5.255   6.517
   55POPC   C4A 1149  10.180   4.910   6.256
   55POPC   C1B 1150  10.672   4.801   7.302
   55POPC   C2B 1151  10.615   4.758   6.862
   55POPC   C3B 1152  10.664   4.893   6.432
   55POPC   C4B 1153  10.573   4.684   6.028
   56POPC   NC3 1154   5.938   0.480   8.115
   56POPC   PO4 1155   5.282   0.327   8.264
   56POPC   GL1 1156   5.492   0.493   7.796
   56POPC   GL2 1157   5.712   0.748   7.735
   56POPC   C1A 1158   5.796   0.374   7.396
   56POPC   D2A 1159   5.710   0.260   6.940
   56POPC   C3A 1160   6.032   0.198   6.607
   56POPC   C4A 1161   5.984   0.106   6.163
   56POPC   C1B 1162   6.104   0.787   7.484
   56POPC   C2B 1163   6.151   0.847   7.028
   56POPC   C3B 1164   5.857   0.730   6.695
   56POPC   C4B 1165   5.788   0.554   6.300
   57POPC   NC3 1166   9.541  10.919   8.192
   57POPC   PO4 1167   9.234  10.580   7.715
   57POPC   GL1 1168   9.486  10.955   7.623
   57POPC   GL2 1169   9.503  11.323   7.692
   57POPC   C1A 1170   9.476  11.131   7.197
   57POPC   D2A 1171   9.716  11.024   6.824
   57POPC   C3A 1172   9.499  10.976   6.425
   57POPC   C4A 1173   9.768  11.027   6.056
   57POPC   C1B 1174   9.783   0.004   7.361
   57POPC   C2B 1175   9.648   0.049   6.894
   57POPC   C3B 1176   9.687  11.448   6.433
   57POPC   C4B 1177   9.769   0.023   5.981
   58POPC   NC3 1178  10.534   8.324   8.327
   58POPC   PO4 1179   9.966   8.477   7.910
   58POPC   GL1 1180  10.053   8.274   7.570
   58POPC   GL2 1181  10.214   7.950   7.652
   58POPC   C1A 1182  10.152   8.205   7.164
   58POPC   D2A 1183  10.341   8.064   6.808
   58POPC   C3A 1184  10.272   8.296   6.467
   58POPC   C4A 1185  10.273   8.170   6.041
   58POPC   C1B 1186  10.570   8.007   7.360
   58POPC   C2B 1187  10.798   8.200   7.013
   58POPC   C3B 1188  10.784   8.259   6.569
   58POPC   C4B 1189  10.604   7.919   6.323
   59POPC   NC3 1190   4.626   1.213   8.043
   59POPC   PO4 1191   4.121   0.762   8.083
   59POPC   GL1 1192   4.015   1.041   7.736
   59POPC   GL2 1193   4.360   1.030   7.642
   59POPC   C1A 1194   3.897   0.935   7.295
   59POPC   D2A 1195   4.152   0.948   6.926
   59POPC   C3A 1196   3.974   0.957   6.550
   59POPC   C4A 1197   4.288   1.157   6.394
   59POPC   C1B 1198   4.272   1.293   7.284
   59POPC   C2B 1199   4.519   1.403   6.936
   59POPC   C3B 1200   4.571   1.536   6.541
   59POPC   C4B 1201   4.159   1.653   6.362
   60POPC   NC3 1202   1.370   4.916   8.162
   60POPC   PO4 1203   2.057   5.045   8.148
   60POPC   GL1 1204   1.977   4.913   7.735
   60POPC   GL2 1205   1.906   5.198   7.526
   60POPC   C1A 1206   2.026   4.750   7.317
   60POPC   D2A 1207   1.928   5.048   6.982
   60POPC   C3A 1208   1.881   4.817   6.599
   60POPC   C4A 1209   1.820   5.016   6.223
   60POPC   C1B 1210   2.290   5.216   7.328
   60POPC   C2B 1211   2.360   5.362   6.887
   60POPC   C3B 1212   2.248   5.184   6.464
   60POPC   C4B 1213   2.450   5.188   6.045
   61POPC   NC3 1214   9.804   5.162   8.226
   61POPC   PO4 1215   9.758   4.501   8.019
   61POPC   GL1 1216   9.930   4.862   7.735
   61POPC   GL2 1217   9.770   5.211   7.722
   61POPC   C1A 1218  10.054   4.989   7.290
   61POPC   D2A 1219  10.099   4.863   6.834
   61POPC   C3A 1220   9.753   4.969   6.500
   61POPC   C4A 1221   9.653   4.780   6.097
   61POPC   C1B 1222   9.552   5.086   7.348
   61POPC   C2B 1223   9.546   5.192   6.904
   61POPC   C3B 1224   9.327   5.264   6.519
   61POPC   C4B 1225   9.419   5.228   6.090
   62POPC   NC3 1226  11.325  11.097   7.950
   62POPC   PO4 1227  10.788  11.464   8.112
   62POPC   GL1 1228  11.075   0.002   7.758
   62POPC   GL2 1229  10.798  11.428   7.565
   62POPC   C1A 1230  11.291   0.039   7.356
   62POPC   D2A 1231  11.048   0.035   6.980
   62POPC   C3A 1232  11.322  11.485   6.636
   62POPC   C4A 1233  11.237  11.486   6.207
   62POPC   C1B 1234  10.996  11.119   7.317
   62POPC   C2B 1235  11.151  11.042   6.910
   62POPC   C3B 1236  11.292  10.988   6.488
   62POPC   C4B 1237  11.042  10.843   6.177
   63POPC   NC3 1238  10.196   3.403   8.220
   63POPC   PO4 1239  10.674   3.311   7.760
   63POPC   GL1 1240  10.294   3.283   7.568
   63POPC   GL2 1241  10.200   3.595   7.738
   63POPC   C1A 1242  10.331   3.293   7.110
   63POPC   D2A 1243  10.255   3.358   6.665
   63POPC   C3A 1244  10.596   3.501   6.347
   63POPC   C4A 1245  10.619   3.323   5.913
   63POPC   C1B 1246  10.153   3.754   7.333
   63POPC   C2B 1247  10.347   3.774   6.926
   63POPC   C3B 1248  10.195   3.877   6.532
   63POPC   C4B 1249  10.224   3.731   6.105
   64POPC   NC3 1250   6.747   0.080   8.238
   64POPC   PO4 1251   6.389   0.562   8.191
   64POPC   GL1 1252   6.335   0.401   7.748
   64POPC   GL2 1253   6.587   0.133   7.725
   64POPC   C1A 1254   6.301   0.347   7.271
   64POPC   D2A 1255   6.487   0.257   6.856
   64POPC   C3A 1256   6.394   0.595   6.557
   64POPC   C4A 1257   6.271   0.519   6.140
   64POPC   C1B 1258   6.776   0.445   7.445
   64POPC   C2B 1259   6.904   0.537   6.996
   64POPC   C3B 1260   6.891   0.439   6.539
   64POPC   C4B 1261   6.769   0.636   6.138
   65POPC   NC3 1262   4.676  10.358   8.189
   65POPC   PO4 1263   5.009  10.971   8.264
   65POPC   GL1 1264   4.957  10.625   7.847
   65POPC   GL2 1265   4.741  10.735   7.553
   65POPC   C1A 1266   5.181  10.413   7.457
   65POPC   D2A 1267   5.103  10.424   6.950
   65POPC   C3A 1268   5.154  10.112   6.608
   65POPC   C4A 1269   5.053  10.114   6.154
   65POPC   C1B 1270   5.114  10.857   7.247
   65POPC   C2B 1271   5.283  10.892   6.802
   65POPC   C3B 1272   5.171  10.657   6.406
   65POPC   C4B 1273   5.230  10.566   5.935
   66POPC   NC3 1274   0.022   5.420   8.074
   66POPC   PO4 1275   0.019   4.680   8.093
   66POPC   GL1 1276  11.200   4.816   7.817
   66POPC   GL2 1277  11.183   5.187   7.755
   66POPC   C1A 1278  11.171   4.862   7.373
   66POPC   D2A 1279  11.112   4.645   6.998
   66POPC   C3A 1280  11.145   4.878   6.646
   66POPC   C4A 1281  11.145   4.748   6.251
   66POPC   C1B 1282  10.859   5.272   7.433
   66POPC   C2B 1283  10.931   5.156   7.015
   66POPC   C3B 1284  10.941   5.356   6.607
   66POPC   C4B 1285  10.624   5.395   6.305
   67POPC   NC3 1286   7.928  10.286   8.092
   67POPC   PO4 1287   8.456   9.947   7.719
   67POPC   GL1 1288   8.065  10.139   7.610
   67POPC   GL2 1289   7.994  10.521   7.654
   67POPC   C1A 1290   7.884  10.277   7.212
   67POPC   D2A 1291   8.070  10.431   6.838
   67POPC   C3A 1292   8.146  10.129   6.528
   67POPC   C4A 1293   7.767  10.208   6.360
   67POPC   C1B 1294   7.794  10.744   7.357
   67POPC   C2B 1295   7.698  10.793   6.917
   67POPC   C3B 1296   7.966  10.890   6.613
   67POPC   C4B 1297   8.091  10.612   6.325
   68POPC   NC3 1298   4.543   2.827   8.449
   68POPC   PO4 1299   3.984   2.553   8.095
   68POPC   GL1 1300   4.194   2.633   7.694
   68POPC   GL2 1301   4.007   2.931   7.644
   68POPC   C1A 1302   4.501   2.591   7.310
   68POPC   D2A 1303   4.538   2.319   6.925
   68POPC   C3A 1304   4.589   2.560   6.538
   68POPC   C4A 1305   4.478   2.443   6.117
   68POPC   C1B 1306   3.989   2.729   7.228
   68POPC   C2B 1307   4.176   2.762   6.795
   68POPC   C3B 1308   4.160   2.795   6.324
   68POPC   C4B 1309   4.430   2.949   5.979
   69POPC   NC3 1310   1.395   6.206   8.201
   69POPC   PO4 1311   1.254   5.530   8.011
   69POPC   GL1 1312   1.246   5.866   7.707
   69POPC   GL2 1313   1.310   5.615   7.479
   69POPC   C1A 1314   1.041   6.008   7.271
   69POPC   D2A 1315   0.935   5.888   6.805
   69POPC   C3A 1316   0.942   6.135   6.413
   69POPC   C4A 1317   0.821   6.052   5.963
   69POPC   C1B 1318   1.600   5.447   7.199
   69POPC   C2B 1319   1.393   5.577   6.824
   69POPC   C3B 1320   1.260   5.705   6.420
   69POPC   C4B 1321   1.502   5.418   6.218
   70POPC   NC3 1322   3.524   0.088   8.136
   70POPC   PO4 1323   3.338  10.825   8.108
   70POPC   GL1 1324   3.523  10.950   7.701
   70POPC   GL2 1325   3.588  11.312   7.700
   70POPC   C1A 1326   3.793  10.989   7.317
   70POPC   D2A 1327   3.925  11.277   6.999
   70POPC   C3A 1328   3.764  11.159   6.587
   70POPC   C4A 1329   3.766  11.233   6.137
   70POPC   C1B 1330   3.339  11.286   7.312
   70POPC   C2B 1331   3.163  11.367   6.888
   70POPC   C3B 1332   3.302  11.347   6.432
   70POPC   C4B 1333   3.351  10.912   6.276
   71POPC   NC3 1334  11.126   4.454   8.238
   71POPC   PO4 1335  11.417   3.895   8.025
   71POPC   GL1 1336  11.369   4.272   7.786
   71POPC   GL2 1337  11.029   4.331   7.756
   71POPC   C1A 1338  11.427   4.429   7.355
   71POPC   D2A 1339  11.489   4.230   6.972
   71POPC   C3A 1340  11.368   4.319   6.565
   71POPC   C4A 1341  11.395   4.033   6.200
   71POPC   C1B 1342  10.945   4.308   7.350
   71POPC   C2B 1343  10.987   4.148   6.935
   71POPC   C3B 1344  10.881   4.430   6.570
   71POPC   C4B 1345  10.963   4.281   6.174
   72POPC   NC3 1346   9.370   4.273   8.076
   72POPC   PO4 1347   9.994   3.875   8.142
   72POPC   GL1 1348   9.825   3.949   7.720
   72POPC   GL2 1349   9.998   4.200   7.536
   72POPC   C1A 1350   9.590   3.798   7.341
   72POPC   D2A 1351   9.338   3.897   6.937
   72POPC   C3A 1352   9.433   3.884   6.491
   72POPC   C4A 1353   9.788   4.046   6.285
   72POPC   C1B 1354   9.755   4.555   7.344
   72POPC   C2B 1355   9.634   4.680   6.931
   72POPC   C3B 1356   9.623   4.474   6.526
   72POPC   C4B 1357   9.346   4.368   6.198
   73POPC   NC3 1358   2.708   8.060   8.033
   73POPC   PO4 1359   2.137   7.530   8.241
   73POPC   GL1 1360   2.079   7.414   7.827
   73POPC   GL2 1361   1.764   7.352   7.771
   73POPC   C1A 1362   2.129   7.468   7.379
   73POPC   D2A 1363   2.204   7.756   7.031
   73POPC   C3A 1364   2.178   7.558   6.615
   73POPC   C4A 1365   2.000   7.627   6.168
   73POPC   C1B 1366   1.632   7.404   7.337
   73POPC   C2B 1367   1.848   7.285   6.958
   73POPC   C3B 1368   1.726   7.330   6.537
   73POPC   C4B 1369   1.864   7.114   6.173
   74POPC   NC3 1370  10.591   1.302   8.323
   74POPC   PO4 1371  10.111   0.887   8.044
   74POPC   GL1 1372  10.320   1.144   7.744
   74POPC   GL2 1373  10.244   1.464   7.821
   74POPC   C1A 1374  10.420   1.091   7.335
   74POPC   D2A 1375  10.038   0.985   7.109
   74POPC   C3A 1376  10.058   1.051   6.670
   74POPC   C4A 1377  10.446   1.035   6.380
   74POPC   C1B 1378  10.158   1.501   7.353
   74POPC   C2B 1379  10.312   1.407   6.925
   74POPC   C3B 1380  10.262   1.506   6.487
   74POPC   C4B 1381  10.378   1.454   6.023
   75POPC   NC3 1382   0.561   4.736   8.022
   75POPC   PO4 1383   0.495   5.428   7.980
   75POPC   GL1 1384   0.534   5.110   7.667
   75POPC   GL2 1385   0.180   5.038   7.697
   75POPC   C1A 1386   0.648   5.063   7.233
   75POPC   D2A 1387   0.390   5.137   6.852
   75POPC   C3A 1388   0.590   5.058   6.482
   75POPC   C4A 1389   0.876   4.765   6.367
   75POPC   C1B 1390   0.172   4.875   7.262
   75POPC   C2B 1391   0.099   4.718   6.830
   75POPC   C3B 1392   0.103   4.947   6.421
   75POPC   C4B 1393   0.269   5.333   6.175
   76POPC   NC3 1394   0.932   7.380   8.095
   76POPC   PO4 1395   0.386   7.716   8.333
   76POPC   GL1 1396   0.532   7.645   7.835
   76POPC   GL2 1397   0.435   7.340   7.673
   76POPC   C1A 1398   0.492   7.697   7.345
   76POPC   D2A 1399   0.308   7.507   7.014
   76POPC   C3A 1400   0.504   7.635   6.644
   76POPC   C4A 1401   0.460   7.523   6.248
   76POPC   C1B 1402   0.514   7.099   7.335
   76POPC   C2B 1403   0.435   6.985   6.947
   76POPC   C3B 1404   0.381   7.139   6.575
   76POPC   C4B 1405   0.684   7.062   6.279
   77POPC   NC3 1406   2.046   4.372   8.028
   77POPC   PO4 1407   1.514   3.816   8.075
   77POPC   GL1 1408   1.576   4.144   7.733
   77POPC   GL2 1409   1.922   4.169   7.570
   77POPC   C1A 1410   1.527   4.327   7.289
   77POPC   D2A 1411   1.753   4.095   6.937
   77POPC   C3A 1412   1.612   4.161   6.495
   77POPC   C4A 1413   1.703   4.513   6.204
   77POPC   C1B 1414   2.206   4.002   7.213
   77POPC   C2B 1415   2.313   4.081   6.773
   77POPC   C3B 1416   2.112   4.326   6.440
   77POPC   C4B 1417   2.211   4.702   6.186
   78POPC   NC3 1418   7.146  10.251   8.022
   78POPC   PO4 1419   7.576  10.731   8.077
   78POPC   GL1 1420   7.482  10.475   7.669
   78POPC   GL2 1421   7.555  10.156   7.602
   78POPC   C1A 1422   7.318  10.636   7.225
   78POPC   D2A 1423   7.083  10.635   6.830
   78POPC   C3A 1424   7.385  10.530   6.519
   78POPC   C4A 1425   7.616  10.807   6.269
   78POPC   C1B 1426   7.222  10.160   7.314
   78POPC   C2B 1427   7.284  10.190   6.896
   78POPC   C3B 1428   7.235  10.036   6.486
   78POPC   C4B 1429   7.084  10.177   6.140
   79POPC   NC3 1430   2.008   1.112   8.070
   79POPC   PO4 1431   2.301   1.606   7.831
   79POPC   GL1 1432   2.066   1.320   7.571
   79POPC   GL2 1433   1.725   1.325   7.685
   79POPC   C1A 1434   2.121   1.155   7.131
   79POPC   D2A 1435   2.315   0.973   6.737
   79POPC   C3A 1436   2.106   1.192   6.386
   79POPC   C4A 1437   2.238   1.485   6.083
   79POPC   C1B 1438   1.633   1.124   7.293
   79POPC   C2B 1439   1.538   1.287   6.899
   79POPC   C3B 1440   1.576   1.159   6.488
   79POPC   C4B 1441   1.673   0.988   6.119
   80POPC   NC3 1442  10.403   9.094   8.183
   80POPC   PO4 1443  10.647   9.701   8.278
   80POPC   GL1 1444  10.574   9.691   7.796
   80POPC   GL2 1445  10.216   9.762   7.700
   80POPC   C1A 1446  10.500   9.529   7.328
   80POPC   D2A 1447  10.304   9.632   6.901
   80POPC   C3A 1448  10.368   9.560   6.451
   80POPC   C4A 1449  10.597   9.854   6.200
   80POPC   C1B 1450  10.169   9.959   7.284
   80POPC   C2B 1451   9.959  10.024   6.856
   80POPC   C3B 1452  10.142  10.055   6.403
   80POPC   C4B 1453  10.168   9.884   5.935
   81POPC   NC3 1454   1.882   3.547   8.001
   81POPC   PO4 1455   2.397   4.013   8.023
   81POPC   GL1 1456   2.215   3.753   7.665
   81POPC   GL2 1457   2.222   3.394   7.661
   81POPC   C1A 1458   1.832   3.693   7.362
   81POPC   D2A 1459   1.776   3.552   6.925
   81POPC   C3A 1460   1.964   3.779   6.577
   81POPC   C4A 1461   2.295   3.866   6.285
   81POPC   C1B 1462   2.048   3.228   7.265
   81POPC   C2B 1463   1.971   3.042   6.861
   81POPC   C3B 1464   1.974   3.270   6.488
   81POPC   C4B 1465   1.775   3.537   6.179
   82POPC   NC3 1466  10.301   2.146   7.977
   82POPC   PO4 1467   9.783   1.780   8.365
   82POPC   GL1 1468   9.770   1.681   7.817
   82POPC   GL2 1469   9.419   1.632   7.636
   82POPC   C1A 1470   9.883   1.921   7.384
   82POPC   D2A 1471  10.114   1.892   6.961
   82POPC   C3A 1472   9.876   1.845   6.531
   82POPC   C4A 1473   9.920   1.692   6.132
   82POPC   C1B 1474   9.413   1.849   7.244
   82POPC   C2B 1475   9.663   2.079   6.913
   82POPC   C3B 1476   9.606   2.315   6.489
   82POPC   C4B 1477   9.391   2.364   6.067
   83POPC   NC3 1478   0.829   5.683   8.199
   83POPC   PO4 1479   0.211   5.860   8.089
   83POPC   GL1 1480   0.300   5.789   7.679
   83POPC   GL2 1481   0.619   5.975   7.730
   83POPC   C1A 1482   0.309   5.478   7.328
   83POPC   D2A 1483   0.628   5.548   7.028
   83POPC   C3A 1484   0.481   5.576   6.598
   83POPC   C4A 1485   0.745   5.659   6.270
   83POPC   C1B 1486   0.524   6.072   7.285
   83POPC   C2B 1487   0.418   6.031   6.843
   83POPC   C3B 1488   0.434   6.052   6.380
   83POPC   C4B 1489   0.097   5.819   6.221
   84POPC   NC3 1490  10.367  10.090   8.096
   84POPC   PO4 1491  10.041  10.735   8.073
   84POPC   GL1 1492  10.189  10.423   7.708
   84POPC   GL2 1493  10.501  10.184   7.625
   84POPC   C1A 1494  10.314  10.500   7.271
   84POPC   D2A 1495  10.255  10.795   6.939
   84POPC   C3A 1496  10.273  10.621   6.547
   84POPC   C4A 1497  10.212  10.775   6.133
   84POPC   C1B 1498  10.827  10.400   7.407
   84POPC   C2B 1499  10.795  10.696   7.074
   84POPC   C3B 1500  10.816  10.725   6.630
   84POPC   C4B 1501  10.665  10.519   6.238
   85POPC   NC3 1502   4.418   0.460   7.884
   85POPC   PO4 1503   4.020  11.478   8.099
   85POPC   GL1 1504   3.942   0.196   7.674
   85POPC   GL2 1505   4.002   0.550   7.618
   85POPC   C1A 1506   4.030   0.261   7.197
   85POPC   D2A 1507   3.929   0.502   6.807
   85POPC   C3A 1508   4.049   0.334   6.378
   85POPC   C4A 1509   4.111   0.365   5.936
   85POPC   C1B 1510   4.338   0.664   7.299
   85POPC   C2B 1511   4.429   0.517   6.929
   85POPC   C3B 1512   4.402   0.670   6.537
   85POPC   C4B 1513   4.538   0.489   6.210
   86POPC   NC3 1514   1.955   1.800   8.091
   86POPC   PO4 1515   2.013   2.468   7.875
   86POPC   GL1 1516   2.048   2.240   7.544
   86POPC   GL2 1517   1.959   1.875   7.565
   86POPC   C1A 1518   2.130   2.326   7.131
   86POPC   D2A 1519   2.018   2.046   6.817
   86POPC   C3A 1520   2.072   2.220   6.411
   86POPC   C4A 1521   1.846   2.455   6.120
   86POPC   C1B 1522   1.832   1.619   7.201
   86POPC   C2B 1523   1.963   1.521   6.761
   86POPC   C3B 1524   1.804   1.612   6.342
   86POPC   C4B 1525   1.917   1.888   6.004
   87POPC   NC3 1526   9.564   3.719   8.102
   87POPC   PO4 1527   9.806   3.156   8.232
   87POPC   GL1 1528   9.760   3.334   7.784
   87POPC   GL2 1529   9.469   3.151   7.796
   87POPC   C1A 1530   9.847   3.359   7.285
   87POPC   D2A 1531   9.844   3.709   6.894
   87POPC   C3A 1532   9.807   3.541   6.461
   87POPC   C4A 1533   9.813   3.126   6.493
   87POPC   C1B 1534   9.371   3.197   7.368
   87POPC   C2B 1535   9.457   3.373   6.942
   87POPC   C3B 1536   9.325   3.285   6.528
   87POPC   C4B 1537   9.334   3.469   6.150
   88POPC   NC3 1538   8.816   9.046   8.153
   88POPC   PO4 1539   9.218   8.477   8.046
   88POPC   GL1 1540   8.904   8.706   7.733
   88POPC   GL2 1541   8.870   9.080   7.655
   88POPC   C1A 1542   8.678   8.773   7.320
   88POPC   D2A 1543   8.839   8.854   6.898
   88POPC   C3A 1544   8.690   8.677   6.517
   88POPC   C4A 1545   8.436   8.821   6.167
   88POPC   C1B 1546   8.987   9.234   7.224
   88POPC   C2B 1547   8.790   9.336   6.793
   88POPC   C3B 1548   8.837   9.172   6.333
   88POPC   C4B 1549   9.163   9.109   5.968
   89POPC   NC3 1550   2.674   1.353   8.065
   89POPC   PO4 1551   2.295   0.752   8.122
   89POPC   GL1 1552   2.468   0.993   7.706
   89POPC   GL2 1553   2.784   1.229   7.604
   89POPC   C1A 1554   2.604   0.966   7.232
   89POPC   D2A 1555   2.942   0.972   6.923
   89POPC   C3A 1556   2.788   0.864   6.505
   89POPC   C4A 1557   2.468   0.890   6.196
   89POPC   C1B 1558   3.103   1.393   7.343
   89POPC   C2B 1559   3.058   1.479   6.919
   89POPC   C3B 1560   3.065   1.290   6.516
   89POPC   C4B 1561   2.700   1.405   6.262
   90POPC   NC3 1562   9.610   8.239   8.095
   90POPC   PO4 1563   9.424   7.678   8.039
   90POPC   GL1 1564   9.308   8.066   7.704
   90POPC   GL2 1565   9.538   8.353   7.633
   90POPC   C1A 1566   9.274   8.257   7.250
   90POPC   D2A 1567   9.502   8.129   6.931
   90POPC   C3A 1568   9.527   8.204   6.556
   90POPC   C4A 1569   9.437   7.968   6.214
   90POPC   C1B 1570   9.721   7.976   7.351
   90POPC   C2B 1571   9.899   7.810   6.897
   90POPC   C3B 1572   9.934   7.923   6.411
   90POPC   C4B 1573   9.831   8.357   6.190
   91POPC   NC3 1574   6.689   1.670   7.997
   91POPC   PO4 1575   7.036   2.234   7.927
   91POPC   GL1 1576   6.975   1.901   7.603
   91POPC   GL2 1577   6.592   1.822   7.538
   91POPC   C1A 1578   6.907   1.834   7.159
   91POPC   D2A 1579   6.772   2.074   6.816
   91POPC   C3A 1580   6.869   1.816   6.492
   91POPC   C4A 1581   6.730   1.673   6.160
   91POPC   C1B 1582   6.217   1.767   7.278
   91POPC   C2B 1583   6.111   1.918   6.874
   91POPC   C3B 1584   6.351   1.990   6.519
   91POPC   C4B 1585   6.203   2.320   6.243
   92POPC   NC3 1586   6.287   3.430   8.289
   92POPC   PO4 1587   6.603   3.017   8.136
   92POPC   GL1 1588   6.453   3.266   7.739
   92POPC   GL2 1589   6.482   3.619   7.809
   92POPC   C1A 1590   6.390   3.252   7.237
   92POPC   D2A 1591   6.621   3.248   6.827
   92POPC   C3A 1592   6.402   3.259   6.415
   92POPC   C4A 1593   6.457   3.200   5.961
   92POPC   C1B 1594   6.606   3.691   7.372
   92POPC   C2B 1595   6.453   3.719   6.948
   92POPC   C3B 1596   6.629   3.695   6.548
   92POPC   C4B 1597   6.486   3.715   6.128
   93POPC   NC3 1598   8.082   1.385   8.172
   93POPC   PO4 1599   7.762   0.790   7.982
   93POPC   GL1 1600   7.926   1.074   7.623
   93POPC   GL2 1601   8.242   1.266   7.643
   93POPC   C1A 1602   7.939   1.329   7.206
   93POPC   D2A 1603   7.632   1.363   6.841
   93POPC   C3A 1604   7.829   1.173   6.479
   93POPC   C4A 1605   7.975   1.103   6.015
   93POPC   C1B 1606   8.282   0.890   7.314
   93POPC   C2B 1607   8.311   0.785   6.853
   93POPC   C3B 1608   8.250   0.909   6.432
   93POPC   C4B 1609   8.318   1.356   6.281
   94POPC   NC3 1610   6.432  10.736   8.107
   94POPC   PO4 1611   6.592  10.041   8.109
   94POPC   GL1 1612   6.567  10.351   7.779
   94POPC   GL2 1613   6.899  10.407   7.614
   94POPC   C1A 1614   6.422  10.534   7.384
   94POPC   D2A 1615   6.528  10.563   6.905
   94POPC   C3A 1616   6.241  10.681   6.547
   94POPC   C4A 1617   6.246  10.619   6.061
   94POPC   C1B 1618   6.694  10.104   7.343
   94POPC   C2B 1619   6.807  10.027   6.922
   94POPC   C3B 1620   6.802  10.290   6.565
   94POPC   C4B 1621   6.493  10.217   6.299
   95POPC   NC3 1622   6.863   2.654   8.031
   95POPC   PO4 1623   7.548   2.693   8.186
   95POPC   GL1 1624   7.333   2.725   7.758
   95POPC   GL2 1625   7.374   2.442   7.591
   95POPC   C1A 1626   7.032   2.700   7.347
   95POPC   D2A 1627   7.080   2.475   6.916
   95POPC   C3A 1628   7.069   2.718   6.496
   95POPC   C4A 1629   6.903   3.087   6.223
   95POPC   C1B 1630   7.507   2.591   7.193
   95POPC   C2B 1631   7.573   2.359   6.830
   95POPC   C3B 1632   7.598   2.530   6.442
   95POPC   C4B 1633   7.444   2.858   6.157
   96POPC   NC3 1634  11.109   2.124   8.084
   96POPC   PO4 1635  11.328   1.456   8.043
   96POPC   GL1 1636  11.250   1.783   7.734
   96POPC   GL2 1637  11.387   1.570   7.513
   96POPC   C1A 1638  11.056   1.961   7.351
   96POPC   D2A 1639  11.066   1.776   6.935
   96POPC   C3A 1640  11.149   2.027   6.560
   96POPC   C4A 1641  11.171   1.845   6.151
   96POPC   C1B 1642   0.040   1.834   7.194
   96POPC   C2B 1643   0.042   1.783   6.772
   96POPC   C3B 1644   0.138   1.918   6.401
   96POPC   C4B 1645   0.258   1.538   6.282
   97POPC   NC3 1646   5.250   0.774   8.151
   97POPC   PO4 1647   5.076   1.357   8.057
   97POPC   GL1 1648   4.977   1.131   7.691
   97POPC   GL2 1649   5.242   0.921   7.596
   97POPC   C1A 1650   4.759   1.091   7.283
   97POPC   D2A 1651   4.699   0.943   6.849
   97POPC   C3A 1652   4.920   0.824   6.478
   97POPC   C4A 1653   4.734   1.048   6.150
   97POPC   C1B 1654   5.236   1.287   7.296
   97POPC   C2B 1655   5.057   1.349   6.892
   97POPC   C3B 1656   5.039   1.318   6.457
   97POPC   C4B 1657   5.305   1.411   6.115
   98POPC   NC3 1658   0.302   3.655   7.849
   98POPC   PO4 1659   0.303   3.063   8.228
   98POPC   GL1 1660   0.590   3.091   7.748
   98POPC   GL2 1661   0.824   3.385   7.702
   98POPC   C1A 1662   0.491   3.150   7.238
   98POPC   D2A 1663   0.071   3.195   6.968
   98POPC   C3A 1664   0.068   3.082   6.516
   98POPC   C4A 1665   0.396   3.204   6.167
   98POPC   C1B 1666   0.759   3.588   7.261
   98POPC   C2B 1667   0.562   3.590   6.807
   98POPC   C3B 1668   0.612   3.660   6.323
   98POPC   C4B 1669   0.622   3.656   5.834
   99POPC   NC3 1670  10.264   6.573   7.950
   99POPC   PO4 1671  10.754   7.031   7.752
   99POPC   GL1 1672  10.423   6.885   7.576
   99POPC   GL2 1673  10.608   6.561   7.574
   99POPC   C1A 1674  10.437   6.865   7.144
   99POPC   D2A 1675  10.476   6.682   6.732
   99POPC   C3A 1676  10.592   6.954   6.420
   99POPC   C4A 1677  10.344   7.046   6.108
   99POPC   C1B 1678  10.468   6.349   7.232
   99POPC   C2B 1679  10.335   6.201   6.853
   99POPC   C3B 1680  10.399   6.266   6.418
   99POPC   C4B 1681  10.212   6.152   6.031
  100POPC   NC3 1682  10.531   5.830   8.069
  100POPC   PO4 1683   9.943   6.187   7.963
  100POPC   GL1 1684  10.305   6.117   7.684
  100POPC   GL2 1685  10.198   5.778   7.671
  100POPC   C1A 1686  10.583   5.866   7.372
  100POPC   D2A 1687  10.778   5.641   7.038
  100POPC   C3A 1688  10.696   5.861   6.671
  100POPC   C4A 1689  10.701   5.894   6.238
  100POPC   C1B 1690  10.104   5.922   7.245
  100POPC   C2B 1691  10.252   5.707   6.877
  100POPC   C3B 1692  10.238   5.763   6.429
  100POPC   C4B 1693  10.310   5.655   5.978
  101POPC   NC3 1694  11.435   2.866   8.030
  101POPC   PO4 1695  10.806   3.132   8.233
  101POPC   GL1 1696  10.991   2.941   7.756
  101POPC   GL2 1697  11.280   2.861   7.558
  101POPC   C1A 1698  10.941   3.042   7.254
  101POPC   D2A 1699  11.196   2.811   6.981
  101POPC   C3A 1700  10.990   2.664   6.663
  101POPC   C4A 1701  11.151   2.735   6.324
  101POPC   C1B 1702  11.233   2.458   7.356
  101POPC   C2B 1703  11.399   2.290   6.969
  101POPC   C3B 1704   0.026   2.435   6.567
  101POPC   C4B 1705  11.374   2.303   6.169
  102POPC   NC3 1706   3.631   2.916   8.047
  102POPC   PO4 1707   3.089   2.456   8.028
  102POPC   GL1 1708   3.290   2.695   7.706
  102POPC   GL2 1709   3.649   2.556   7.652
  102POPC   C1A 1710   3.262   2.882   7.286
  102POPC   D2A 1711   3.140   2.782   6.847
  102POPC   C3A 1712   3.308   2.948   6.448
  102POPC   C4A 1713   3.291   2.882   5.976
  102POPC   C1B 1714   3.565   2.424   7.207
  102POPC   C2B 1715   3.633   2.585   6.767
  102POPC   C3B 1716   3.682   2.601   6.315
  102POPC   C4B 1717   3.611   2.482   5.896
  103POPC   NC3 1718   9.537   7.242   8.105
  103POPC   PO4 1719  10.166   7.009   8.086
  103POPC   GL1 1720   9.923   7.098   7.724
  103POPC   GL2 1721   9.835   7.460   7.724
  103POPC   C1A 1722   9.818   7.010   7.282
  103POPC   D2A 1723   9.758   7.250   6.880
  103POPC   C3A 1724   9.597   7.064   6.454
  103POPC   C4A 1725   9.749   6.941   6.031
  103POPC   C1B 1726   9.563   7.488   7.360
  103POPC   C2B 1727   9.423   7.628   6.956
  103POPC   C3B 1728   9.547   7.592   6.538
  103POPC   C4B 1729   9.269   7.410   6.254
  104POPC   NC3 1730   5.460  10.367   8.430
  104POPC   PO4 1731   5.938   9.773   8.208
  104POPC   GL1 1732   5.704   9.950   7.859
  104POPC   GL2 1733   5.901   9.709   7.677
  104POPC   C1A 1734   5.582   9.977   7.407
  104POPC   D2A 1735   5.867   9.908   7.020
  104POPC   C3A 1736   5.710   9.905   6.570
  104POPC   C4A 1737   5.528   9.787   6.131
  104POPC   C1B 1738   5.718   9.499   7.284
  104POPC   C2B 1739   5.864   9.442   6.849
  104POPC   C3B 1740   5.785   9.425   6.401
  104POPC   C4B 1741   6.082   9.302   6.096
  105POPC   NC3 1742   1.991  11.392   8.151
  105POPC   PO4 1743   1.747  10.814   8.071
  105POPC   GL1 1744   1.770  11.112   7.717
  105POPC   GL2 1745   2.081  11.299   7.662
  105POPC   C1A 1746   1.872  11.071   7.278
  105POPC   D2A 1747   1.700  11.097   6.897
  105POPC   C3A 1748   1.963  11.077   6.541
  105POPC   C4A 1749   1.942  10.900   6.150
  105POPC   C1B 1750   2.286  11.436   7.288
  105POPC   C2B 1751   2.125  11.394   6.887
  105POPC   C3B 1752   2.349  11.438   6.484
  105POPC   C4B 1753   2.113  11.377   6.131
  106POPC   NC3 1754   4.098  10.054   7.926
  106POPC   PO4 1755   4.688   9.529   7.993
  106POPC   GL1 1756   4.463   9.755   7.727
  106POPC   GL2 1757   4.186   9.557   7.671
  106POPC   C1A 1758   4.454   9.834   7.293
  106POPC   D2A 1759   4.317   9.635   6.895
  106POPC   C3A 1760   4.367   9.916   6.535
  106POPC   C4A 1761   4.619   9.894   6.189
  106POPC   C1B 1762   3.949   9.619   7.288
  106POPC   C2B 1763   3.832   9.447   6.873
  106POPC   C3B 1764   3.939   9.622   6.456
  106POPC   C4B 1765   4.224   9.596   6.101
  107POPC   NC3 1766   2.643   9.517   8.046
  107POPC   PO4 1767   2.289  10.004   7.847
  107POPC   GL1 1768   2.663   9.798   7.619
  107POPC   GL2 1769   3.019   9.656   7.696
  107POPC   C1A 1770   2.811   9.895   7.243
  107POPC   D2A 1771   2.737   9.977   6.835
  107POPC   C3A 1772   2.422   9.839   6.647
  107POPC   C4A 1773   2.584   9.645   6.332
  107POPC   C1B 1774   2.969   9.408   7.303
  107POPC   C2B 1775   2.843   9.479   6.882
  107POPC   C3B 1776   3.048   9.566   6.504
  107POPC   C4B 1777   2.929   9.338   6.105
  108POPC   NC3 1778   6.862   8.739   8.012
  108POPC   PO4 1779   7.550   8.539   8.051
  108POPC   GL1 1780   7.522   8.854   7.725
  108POPC   GL2 1781   7.204   9.001   7.704
  108POPC   C1A 1782   7.490   8.846   7.265
  108POPC   D2A 1783   7.394   8.699   6.839
  108POPC   C3A 1784   7.622   8.748   6.473
  108POPC   C4A 1785   7.407   8.652   6.114
  108POPC   C1B 1786   7.108   9.206   7.315
  108POPC   C2B 1787   7.273   9.188   6.891
  108POPC   C3B 1788   7.155   8.992   6.479
  108POPC   C4B 1789   7.277   9.149   6.062
  109POPC   NC3 1790  10.500   2.898   7.904
  109POPC   PO4 1791  10.740   2.256   7.855
  109POPC   GL1 1792  10.488   2.484   7.576
  109POPC   GL2 1793  10.124   2.396   7.447
  109POPC   C1A 1794  10.740   2.563   7.229
  109POPC   D2A 1795  10.887   2.257   6.940
  109POPC   C3A 1796  10.690   2.260   6.522
  109POPC   C4A 1797  10.457   2.580   6.361
  109POPC   C1B 1798  10.254   2.786   7.223
  109POPC   C2B 1799  10.580   2.896   6.892
  109POPC   C3B 1800  10.628   3.026   6.496
  109POPC   C4B 1801  10.269   3.108   6.231
  110POPC   NC3 1802   9.640   8.792   8.050
  110POPC   PO4 1803   9.289   9.295   7.852
  110POPC   GL1 1804   9.367   8.892   7.626
  110POPC   GL2 1805   9.712   8.815   7.536
  110POPC   C1A 1806   9.276   8.777   7.198
  110POPC   D2A 1807   9.318   9.031   6.817
  110POPC   C3A 1808   9.206   8.849   6.439
  110POPC   C4A 1809   9.419   8.680   6.100
  110POPC   C1B 1810   9.738   8.506   7.206
  110POPC   C2B 1811   9.897   8.463   6.807
  110POPC   C3B 1812   9.704   8.709   6.528
  110POPC   C4B 1813   9.904   8.855   6.168
  111POPC   NC3 1814   3.126  10.400   8.067
  111POPC   PO4 1815   2.555  10.743   8.040
  111POPC   GL1 1816   2.833  10.648   7.720
  111POPC   GL2 1817   2.753  10.295   7.727
  111POPC   C1A 1818   3.020  10.731   7.337
  111POPC   D2A 1819   2.759  10.782   6.965
  111POPC   C3A 1820   2.964  10.721   6.583
  111POPC   C4A 1821   2.786  10.612   6.211
  111POPC   C1B 1822   2.621  10.387   7.315
  111POPC   C2B 1823   2.382  10.408   6.960
  111POPC   C3B 1824   2.540  10.377   6.589
  111POPC   C4B 1825   2.561  10.134   6.233
  112POPC   NC3 1826   7.849  11.154   7.977
  112POPC   PO4 1827   8.479  10.922   7.943
  112POPC   GL1 1828   8.232  11.187   7.629
  112POPC   GL2 1829   7.924  11.454   7.585
  112POPC   C1A 1830   8.208  10.997   7.219
  112POPC   D2A 1831   8.427  10.781   6.916
  112POPC   C3A 1832   8.461  10.976   6.545
  112POPC   C4A 1833   8.497  11.140   6.160
  112POPC   C1B 1834   8.092  11.494   7.228
  112POPC   C2B 1835   8.027  11.317   6.859
  112POPC   C3B 1836   8.156  11.382   6.466
  112POPC   C4B 1837   7.991  11.131   6.135
  113POPC   NC3 1838   2.384   2.210   7.933
  113POPC   PO4 1839   2.496   1.707   8.308
  113POPC   GL1 1840   2.723   1.837   7.813
  113POPC   GL2 1841   2.831   2.141   7.705
  113POPC   C1A 1842   2.449   1.967   7.354
  113POPC   D2A 1843   2.529   2.007   6.924
  113POPC   C3A 1844   2.373   1.785   6.531
  113POPC   C4A 1845   2.419   1.947   6.112
  113POPC   C1B 1846   2.935   1.922   7.328
  113POPC   C2B 1847   3.069   2.021   6.913
  113POPC   C3B 1848   3.109   2.227   6.535
  113POPC   C4B 1849   2.919   1.976   6.208
  114POPC   NC3 1850   4.364   9.201   8.022
  114POPC   PO4 1851   3.746   9.200   8.064
  114POPC   GL1 1852   3.857   9.154   7.626
  114POPC   GL2 1853   4.089   8.899   7.675
  114POPC   C1A 1854   4.110   9.148   7.216
  114POPC   D2A 1855   4.089   8.968   6.787
  114POPC   C3A 1856   4.205   9.167   6.381
  114POPC   C4A 1857   4.276   9.124   5.912
  114POPC   C1B 1858   4.369   8.718   7.358
  114POPC   C2B 1859   4.572   8.759   6.958
  114POPC   C3B 1860   4.578   8.848   6.508
  114POPC   C4B 1861   4.317   8.681   6.155
  115POPC   NC3 1862  10.932   1.375   7.811
  115POPC   PO4 1863  10.547   1.756   8.154
  115POPC   GL1 1864  10.642   1.782   7.689
  115POPC   GL2 1865  10.360   1.905   7.554
  115POPC   C1A 1866  10.659   1.629   7.232
  115POPC   D2A 1867  10.579   1.842   6.803
  115POPC   C3A 1868  10.743   1.725   6.422
  115POPC   C4A 1869  10.679   1.856   5.977
  115POPC   C1B 1870  10.499   2.112   7.232
  115POPC   C2B 1871  10.361   2.377   6.919
  115POPC   C3B 1872  10.127   2.270   6.577
  115POPC   C4B 1873  10.310   1.981   6.295
  116POPC   NC3 1874  10.931   6.746   8.057
  116POPC   PO4 1875  11.454   6.355   8.156
  116POPC   GL1 1876  11.471   6.367   7.731
  116POPC   GL2 1877  11.323   6.703   7.721
  116POPC   C1A 1878   0.018   6.223   7.299
  116POPC   D2A 1879  11.267   6.322   6.909
  116POPC   C3A 1880  11.493   6.204   6.582
  116POPC   C4A 1881   0.057   6.379   6.209
  116POPC   C1B 1882  11.095   6.529   7.388
  116POPC   C2B 1883  10.897   6.665   7.027
  116POPC   C3B 1884  11.013   6.720   6.599
  116POPC   C4B 1885  11.199   6.742   6.205
  117POPC   NC3 1886   2.167  10.443   7.946
  117POPC   PO4 1887   1.580   9.966   8.034
  117POPC   GL1 1888   1.546  10.221   7.648
  117POPC   GL2 1889   1.711  10.542   7.646
  117POPC   C1A 1890   1.692  10.187   7.215
  117POPC   D2A 1891   2.023  10.038   6.917
  117POPC   C3A 1892   2.027  10.108   6.463
  117POPC   C4A 1893   1.800  10.375   6.171
  117POPC   C1B 1894   2.006  10.576   7.306
  117POPC   C2B 1895   1.842  10.575   6.896
  117POPC   C3B 1896   2.051  10.587   6.560
  117POPC   C4B 1897   2.274  10.536   6.186
  118POPC   NC3 1898   2.783   0.505   8.089
  118POPC   PO4 1899   2.248   0.189   7.937
  118POPC   GL1 1900   2.440   0.467   7.695
  118POPC   GL2 1901   2.741   0.290   7.622
  118POPC   C1A 1902   2.410   0.504   7.268
  118POPC   D2A 1903   2.390   0.304   6.898
  118POPC   C3A 1904   2.451   0.479   6.526
  118POPC   C4A 1905   2.318   0.364   6.141
  118POPC   C1B 1906   2.801   0.171   7.192
  118POPC   C2B 1907   2.882   0.275   6.760
  118POPC   C3B 1908   2.835   0.172   6.346
  118POPC   C4B 1909   3.096   0.154   5.987
  119POPC   NC3 1910   2.916  11.023   8.065
  119POPC   PO4 1911   3.057   0.107   8.065
  119POPC   GL1 1912   2.971  11.337   7.678
  119POPC   GL2 1913   2.596  11.244   7.714
  119POPC   C1A 1914   2.823  11.185   7.272
  119POPC   D2A 1915   2.617  11.287   6.899
  119POPC   C3A 1916   2.822  11.209   6.536
  119POPC   C4A 1917   2.934  11.159   6.129
  119POPC   C1B 1918   2.392  10.932   7.402
  119POPC   C2B 1919   2.251  10.904   6.964
  119POPC   C3B 1920   2.446  10.887   6.567
  119POPC   C4B 1921   2.464  11.012   6.162
  120POPC   NC3 1922   1.538  10.414   8.141
  120POPC   PO4 1923   0.947  10.734   8.130
  120POPC   GL1 1924   1.212  10.635   7.793
  120POPC   GL2 1925   1.009  10.357   7.716
  120POPC   C1A 1926   1.134  10.713   7.350
  120POPC   D2A 1927   0.870  10.558   6.988
  120POPC   C3A 1928   1.099  10.603   6.575
  120POPC   C4A 1929   1.538  10.702   6.440
  120POPC   C1B 1930   1.130  10.199   7.320
  120POPC   C2B 1931   1.278  10.252   6.927
  120POPC   C3B 1932   1.550  10.190   6.624
  120POPC   C4B 1933   1.322  10.176   6.259
  121POPC   NC3 1934   9.831   1.225   8.154
  121POPC   PO4 1935   9.219   1.355   8.015
  121POPC   GL1 1936   9.483   1.115   7.739
  121POPC   GL2 1937   9.824   1.164   7.648
  121POPC   C1A 1938   9.547   0.858   7.345
  121POPC   D2A 1939   9.562   1.020   6.912
  121POPC   C3A 1940   9.283   1.080   6.566
  121POPC   C4A 1941   9.536   0.942   6.221
  121POPC   C1B 1942   9.681   1.377   7.287
  121POPC   C2B 1943   9.800   1.493   6.895
  121POPC   C3B 1944   9.701   1.371   6.484
  121POPC   C4B 1945   9.986   1.187   6.180
  122POPC   NC3 1946   9.912   0.255   8.054
  122POPC   PO4 1947   9.618   0.797   8.286
  122POPC   GL1 1948   9.686   0.667   7.831
  122POPC   GL2 1949   9.579   0.363   7.699
  122POPC   C1A 1950   9.976   0.564   7.451
  122POPC   D2A 1951  10.039   0.326   7.057
  122POPC   C3A 1952   9.818   0.527   6.706
  122POPC   C4A 1953   9.991   0.688   6.327
  122POPC   C1B 1954   9.389   0.332   7.318
  122POPC   C2B 1955   9.324   0.542   6.949
  122POPC   C3B 1956   9.320   0.346   6.568
  122POPC   C4B 1957   9.581   0.423   6.226
  123POPC   NC3 1958   5.088  11.412   8.386
  123POPC   PO4 1959   5.598   0.031   7.915
  123POPC   GL1 1960   5.378  11.249   7.605
  123POPC   GL2 1961   5.042  11.115   7.752
  123POPC   C1A 1962   5.299  11.344   7.151
  123POPC   D2A 1963   5.225   0.019   6.739
  123POPC   C3A 1964   5.157  11.226   6.415
  123POPC   C4A 1965   5.435  11.022   6.136
  123POPC   C1B 1966   4.834  11.252   7.387
  123POPC   C2B 1967   4.830  11.160   6.951
  123POPC   C3B 1968   4.711  11.369   6.613
  123POPC   C4B 1969   4.681  11.352   6.193
  124POPC   NC3 1970   0.428   9.092   8.307
  124POPC   PO4 1971   0.614   8.563   7.998
  124POPC   GL1 1972   0.511   8.817   7.646
  124POPC   GL2 1973   0.163   8.946   7.676
  124POPC   C1A 1974   0.540   8.902   7.201
  124POPC   D2A 1975   0.360   9.064   6.843
  124POPC   C3A 1976   0.633   8.893   6.550
  124POPC   C4A 1977   0.646   8.520   6.329
  124POPC   C1B 1978   0.131   8.638   7.320
  124POPC   C2B 1979   0.213   8.541   6.877
  124POPC   C3B 1980   0.181   8.654   6.432
  124POPC   C4B 1981   0.325   9.043   6.164
  125POPC   NC3 1982   4.194   0.358   8.332
  125POPC   PO4 1983   3.596   0.537   8.249
  125POPC   GL1 1984   3.510   0.511   7.776
  125POPC   GL2 1985   3.282   0.254   7.625
  125POPC   C1A 1986   3.599   0.499   7.301
  125POPC   D2A 1987   3.566   0.168   6.972
  125POPC   C3A 1988   3.562   0.279   6.522
  125POPC   C4A 1989   3.605   0.234   6.064
  125POPC   C1B 1990   3.097   0.554   7.302
  125POPC   C2B 1991   3.276   0.595   6.852
  125POPC   C3B 1992   3.172   0.561   6.372
  125POPC   C4B 1993   3.300   0.662   5.940
  126POPC   NC3 1994   0.912   8.932   7.988
  126POPC   PO4 1995   1.464   8.628   8.382
  126POPC   GL1 1996   1.444   8.734   7.867
  126POPC   GL2 1997   1.157   8.548   7.711
  126POPC   C1A 1998   1.506   8.781   7.369
  126POPC   D2A 1999   1.689   8.809   6.926
  126POPC   C3A 2000   1.738   9.106   6.588
  126POPC   C4A 2001   1.522   9.063   6.192
  126POPC   C1B 2002   0.997   8.713   7.335
  126POPC   C2B 2003   0.989   8.979   6.974
  126POPC   C3B 2004   1.190   8.930   6.616
  126POPC   C4B 2005   1.070   8.818   6.253
  127POPC   NC3 2006   9.682  10.499   7.876
  127POPC   PO4 2007   9.176  10.241   8.166
  127POPC   GL1 2008   9.393  10.113   7.675
  127POPC   GL2 2009   9.768  10.178   7.508
  127POPC   C1A 2010   9.415  10.174   7.170
  127POPC   D2A 2011   9.432   9.991   6.767
  127POPC   C3A 2012   9.428  10.268   6.401
  127POPC   C4A 2013   9.401  10.186   5.955
  127POPC   C1B 2014   9.801  10.524   7.207
  127POPC   C2B 2015   9.744  10.508   6.766
  127POPC   C3B 2016   9.807  10.578   6.340
  127POPC   C4B 2017   9.896  10.313   6.012
  128POPC   NC3 2018   3.395   8.960   7.898
  128POPC   PO4 2019   2.939   8.459   7.851
  128POPC   GL1 2020   3.246   8.655   7.513
  128POPC   GL2 2021   3.628   8.679   7.540
  128POPC   C1A 2022   3.135   8.792   7.088
  128POPC   D2A 2023   3.195   8.493   6.737
  128POPC   C3A 2024   3.176   8.694   6.378
  128POPC   C4A 2025   3.081   9.068   6.521
  128POPC   C1B 2026   3.619   8.971   7.190
  128POPC   C2B 2027   3.541   8.902   6.755
  128POPC   C3B 2028   3.757   8.865   6.384
  128POPC   C4B 2029   3.838   8.795   5.970
  129POPC   NC3 2030  10.461   0.699   8.266
  129POPC   PO4 2031  10.349   0.181   7.975
  129POPC   GL1 2032  10.470   0.313   7.614
  129POPC   GL2 2033  10.521   0.651   7.671
  129POPC   C1A 2034  10.502   0.105   7.193
  129POPC   D2A 2035  10.487   0.109   6.746
  129POPC   C3A 2036  10.139   0.165   6.490
  129POPC   C4A 2037  10.194   0.294   6.052
  129POPC   C1B 2038  10.437   0.613   7.216
  129POPC   C2B 2039  10.329   0.642   6.794
  129POPC   C3B 2040  10.474   0.532   6.431
  129POPC   C4B 2041  10.770   0.627   6.190
  130POPC   NC3 2042   2.485   7.235   8.097
  130POPC   PO4 2043   2.864   7.621   7.948
  130POPC   GL1 2044   2.571   7.422   7.621
  130POPC   GL2 2045   2.374   7.071   7.599
  130POPC   C1A 2046   2.610   7.472   7.163
  130POPC   D2A 2047   2.663   7.757   6.793
  130POPC   C3A 2048   2.645   7.550   6.393
  130POPC   C4A 2049   2.351   7.255   6.224
  130POPC   C1B 2050   2.311   7.065   7.111
  130POPC   C2B 2051   2.541   7.151   6.718
  130POPC   C3B 2052   2.694   6.904   6.347
  130POPC   C4B 2053   2.601   6.957   5.872
  131POPC   NC3 2054   1.127   1.872   8.071
  131POPC   PO4 2055   1.701   2.289   8.248
  131POPC   GL1 2056   1.578   2.103   7.824
  131POPC   GL2 2057   1.238   2.241   7.726
  131POPC   C1A 2058   1.585   2.177   7.345
  131POPC   D2A 2059   1.376   2.170   6.942
  131POPC   C3A 2060   1.571   2.005   6.572
  131POPC   C4A 2061   1.479   2.099   6.154
  131POPC   C1B 2062   1.055   2.028   7.354
  131POPC   C2B 2063   0.912   1.949   6.923
  131POPC   C3B 2064   1.045   2.046   6.488
  131POPC   C4B 2065   1.056   1.853   6.049
  132POPC   NC3 2066   5.152   9.602   8.008
  132POPC   PO4 2067   5.110  10.218   8.143
  132POPC   GL1 2068   4.957  10.020   7.698
  132POPC   GL2 2069   4.933   9.661   7.554
  132POPC   C1A 2070   5.108   9.976   7.221
  132POPC   D2A 2071   5.367   9.770   6.948
  132POPC   C3A 2072   5.039   9.616   6.688
  132POPC   C4A 2073   5.077   9.619   6.286
  132POPC   C1B 2074   5.050   9.415   7.173
  132POPC   C2B 2075   4.924   9.115   6.826
  132POPC   C3B 2076   5.040   9.100   6.383
  132POPC   C4B 2077   5.164   9.244   5.934
  133POPC   NC3 2078   5.772   1.620   8.043
  133POPC   PO4 2079   5.932   0.946   8.142
  133POPC   GL1 2080   5.979   1.202   7.781
  133POPC   GL2 2081   5.640   1.260   7.668
  133POPC   C1A 2082   6.081   1.276   7.341
  133POPC   D2A 2083   6.055   1.416   6.897
  133POPC   C3A 2084   5.900   1.237   6.524
  133POPC   C4A 2085   6.110   0.970   6.263
  133POPC   C1B 2086   5.663   0.992   7.288
  133POPC   C2B 2087   5.551   1.116   6.892
  133POPC   C3B 2088   5.437   1.003   6.492
  133POPC   C4B 2089   5.622   1.003   6.093
  134POPC   NC3 2090   9.457   9.608   8.145
  134POPC   PO4 2091   9.901  10.076   7.983
  134POPC   GL1 2092   9.704   9.714   7.709
  134POPC   GL2 2093   9.763   9.353   7.691
  134POPC   C1A 2094   9.706   9.719   7.269
  134POPC   D2A 2095   9.826   9.495   6.928
  134POPC   C3A 2096   9.733   9.642   6.537
  134POPC   C4A 2097   9.729   9.868   6.179
  134POPC   C1B 2098   9.573   9.209   7.273
  134POPC   C2B 2099   9.810   8.969   6.966
  134POPC   C3B 2100   9.929   9.163   6.568
  134POPC   C4B 2101   9.557   9.207   6.299
  135POPC   NC3 2102   8.800   1.517   7.876
  135POPC   PO4 2103   8.425   1.067   8.128
  135POPC   GL1 2104   8.638   0.948   7.719
  135POPC   GL2 2105   8.967   1.053   7.705
  135POPC   C1A 2106   8.688   1.181   7.302
  135POPC   D2A 2107   8.899   1.168   6.928
  135POPC   C3A 2108   8.678   1.151   6.582
  135POPC   C4A 2109   8.689   0.956   6.203
  135POPC   C1B 2110   9.198   1.250   7.331
  135POPC   C2B 2111   9.293   1.474   6.923
  135POPC   C3B 2112   8.965   1.576   6.634
  135POPC   C4B 2113   9.008   1.430   6.259
  136POPC   NC3 2114   9.193   0.871   8.135
  136POPC   PO4 2115   8.752   0.382   8.006
  136POPC   GL1 2116   9.079   0.526   7.759
  136POPC   GL2 2117   9.123   0.158   7.747
  136POPC   C1A 2118   9.055   0.725   7.356
  136POPC   D2A 2119   8.768   0.701   7.055
  136POPC   C3A 2120   8.936   0.714   6.643
  136POPC   C4A 2121   9.116   0.686   6.246
  136POPC   C1B 2122   8.879   0.243   7.377
  136POPC   C2B 2123   8.904   0.216   6.954
  136POPC   C3B 2124   8.595   0.357   6.687
  136POPC   C4B 2125   8.698   0.394   6.240
  137POPC   NC3 2126   3.625   1.044   8.104
  137POPC   PO4 2127   2.907   0.948   8.017
  137POPC   GL1 2128   3.241   0.955   7.676
  137POPC   GL2 2129   3.503   1.229   7.638
  137POPC   C1A 2130   3.378   0.966   7.233
  137POPC   D2A 2131   3.500   1.153   6.888
  137POPC   C3A 2132   3.465   0.948   6.523
  137POPC   C4A 2133   3.451   1.148   6.163
  137POPC   C1B 2134   3.738   1.413   7.289
  137POPC   C2B 2135   3.967   1.416   6.869
  137POPC   C3B 2136   3.740   1.407   6.491
  137POPC   C4B 2137   3.684   1.665   6.146
  138POPC   NC3 2138   3.741  10.499   8.277
  138POPC   PO4 2139   4.274  10.681   7.850
  138POPC   GL1 2140   3.855  10.504   7.704
  138POPC   GL2 2141   3.495  10.435   7.737
  138POPC   C1A 2142   3.645  10.481   7.273
  138POPC   D2A 2143   3.519  10.255   6.906
  138POPC   C3A 2144   3.538  10.482   6.526
  138POPC   C4A 2145   3.842  10.728   6.259
  138POPC   C1B 2146   3.170  10.255   7.407
  138POPC   C2B 2147   3.029  10.347   6.966
  138POPC   C3B 2148   3.051  10.225   6.497
  138POPC   C4B 2149   3.265  10.412   6.111
  139POPC   NC3 2150  11.236  10.268   8.501
  139POPC   PO4 2151  10.851  10.154   8.026
  139POPC   GL1 2152  11.216  10.096   7.728
  139POPC   GL2 2153  11.350  10.422   7.696
  139POPC   C1A 2154  11.270  10.141   7.255
  139POPC   D2A 2155  10.926  10.215   6.931
  139POPC   C3A 2156  10.932  10.099   6.484
  139POPC   C4A 2157  10.961  10.188   6.004
  139POPC   C1B 2158  11.269  10.668   7.308
  139POPC   C2B 2159  11.315  10.566   6.876
  139POPC   C3B 2160  11.261  10.474   6.454
  139POPC   C4B 2161  11.395  10.103   6.249
  140POPC   NC3 2162   3.362   2.079   8.095
  140POPC   PO4 2163   3.454   1.508   8.068
  140POPC   GL1 2164   3.294   1.764   7.677
  140POPC   GL2 2165   3.320   2.159   7.598
  140POPC   C1A 2166   3.402   1.801   7.230
  140POPC   D2A 2167   3.511   1.657   6.865
  140POPC   C3A 2168   3.294   1.735   6.492
  140POPC   C4A 2169   3.166   1.552   6.078
  140POPC   C1B 2170   3.738   2.027   7.519
  140POPC   C2B 2171   3.902   1.862   7.110
  140POPC   C3B 2172   3.810   1.950   6.607
  140POPC   C4B 2173   3.517   2.121   6.251
  141POPC   NC3 2174   2.774   3.738   8.073
  141POPC   PO4 2175   3.257   3.220   8.062
  141POPC   GL1 2176   3.027   3.187   7.691
  141POPC   GL2 2177   2.735   3.420   7.660
  141POPC   C1A 2178   3.092   3.379   7.294
  141POPC   D2A 2179   3.288   3.279   6.902
  141POPC   C3A 2180   3.052   3.405   6.535
  141POPC   C4A 2181   2.959   3.223   6.149
  141POPC   C1B 2182   2.494   3.516   7.261
  141POPC   C2B 2183   2.308   3.444   6.841
  141POPC   C3B 2184   2.519   3.429   6.424
  141POPC   C4B 2185   2.802   3.796   6.269
  142POPC   NC3 2186   8.790  10.038   8.028
  142POPC   PO4 2187   9.068   9.428   8.317
  142POPC   GL1 2188   9.082   9.721   7.821
  142POPC   GL2 2189   8.814   9.598   7.627
  142POPC   C1A 2190   9.201   9.750   7.350
  142POPC   D2A 2191   9.319   9.525   6.970
  142POPC   C3A 2192   9.221   9.478   6.559
  142POPC   C4A 2193   9.262   9.801   6.313
  142POPC   C1B 2194   8.731   9.711   7.165
  142POPC   C2B 2195   8.919   9.829   6.784
  142POPC   C3B 2196   8.784   9.701   6.370
  142POPC   C4B 2197   8.470   9.916   6.123
  143POPC   NC3 2198   7.220  10.968   8.274
  143POPC   PO4 2199   7.476  11.399   7.823
  143POPC   GL1 2200   7.499  11.053   7.610
  143POPC   GL2 2201   7.196  10.867   7.641
  143POPC   C1A 2202   7.664  11.208   7.214
  143POPC   D2A 2203   7.573   0.024   6.908
  143POPC   C3A 2204   7.639  11.320   6.519
  143POPC   C4A 2205   7.465  11.300   6.143
  143POPC   C1B 2206   7.163  11.141   7.243
  143POPC   C2B 2207   7.295  11.105   6.856
  143POPC   C3B 2208   7.199  11.005   6.483
  143POPC   C4B 2209   6.976  11.165   6.147
  144POPC   NC3 2210   8.617   2.423   8.006
  144POPC   PO4 2211   9.090   2.892   8.138
  144POPC   GL1 2212   9.094   2.807   7.715
  144POPC   GL2 2213   8.755   2.824   7.700
  144POPC   C1A 2214   9.143   2.735   7.276
  144POPC   D2A 2215   8.876   2.631   6.872
  144POPC   C3A 2216   9.024   2.667   6.451
  144POPC   C4A 2217   9.034   3.029   6.167
  144POPC   C1B 2218   8.639   2.626   7.321
  144POPC   C2B 2219   8.398   2.478   6.947
  144POPC   C3B 2220   8.541   2.466   6.520
  144POPC   C4B 2221   8.575   2.776   6.207
  145POPC   NC3 2222  11.296   1.047   8.317
  145POPC   PO4 2223  10.720   1.000   7.989
  145POPC   GL1 2224  10.996   0.880   7.686
  145POPC   GL2 2225  11.341   1.002   7.758
  145POPC   C1A 2226  10.880   0.887   7.258
  145POPC   D2A 2227  10.699   0.996   6.877
  145POPC   C3A 2228  11.010   0.847   6.596
  145POPC   C4A 2229  11.095   1.009   6.215
  145POPC   C1B 2230  11.335   1.091   7.306
  145POPC   C2B 2231  11.206   1.255   6.882
  145POPC   C3B 2232  11.265   1.445   6.454
  145POPC   C4B 2233  11.396   1.387   5.990
  146POPC   NC3 2234   5.114   0.087   7.905
  146POPC   PO4 2235   4.788   0.702   8.023
  146POPC   GL1 2236   4.764   0.686   7.598
  146POPC   GL2 2237   5.007   0.466   7.623
  146POPC   C1A 2238   4.861   0.590   7.178
  146POPC   D2A 2239   4.833   0.193   7.023
  146POPC   C3A 2240   4.821   0.350   6.630
  146POPC   C4A 2241   4.978   0.241   6.256
  146POPC   C1B 2242   5.301   0.377   7.315
  146POPC   C2B 2243   5.369   0.643   6.981
  146POPC   C3B 2244   5.351   0.497   6.588
  146POPC   C4B 2245   5.304   0.613   6.191
  147POPC   NC3 2246   5.214   7.674   8.518
  147POPC   PO4 2247   5.290   7.795   8.069
  147POPC   GL1 2248   5.173   7.854   7.606
  147POPC   GL2 2249   4.943   8.137   7.507
  147POPC   C1A 2250   5.238   7.929   7.145
  147POPC   D2A 2251   5.011   8.045   6.770
  147POPC   C3A 2252   5.225   8.123   6.376
  147POPC   C4A 2253   5.032   8.047   5.968
  147POPC   C1B 2254   5.010   8.425   7.136
  147POPC   C2B 2255   4.973   8.564   6.703
  147POPC   C3B 2256   4.886   8.494   6.289
  147POPC   C4B 2257   5.130   8.566   5.919
  148POPC   NC3 2258   0.789  11.157   8.207
  148POPC   PO4 2259   0.169  11.361   8.080
  148POPC   GL1 2260   0.230  11.484   7.672
  148POPC   GL2 2261   0.548  11.321   7.710
  148POPC   C1A 2262   0.229  11.252   7.264
  148POPC   D2A 2263   0.146  11.012   6.875
  148POPC   C3A 2264   0.258  11.228   6.501
  148POPC   C4A 2265   0.226  11.413   6.078
  148POPC   C1B 2266   0.605  10.933   7.416
  148POPC   C2B 2267   0.639  11.009   6.959
  148POPC   C3B 2268   0.628  10.834   6.537
  148POPC   C4B 2269   0.597  11.074   6.165
  149POPC   NC3 2270   0.854   5.527   7.704
  149POPC   PO4 2271   0.975   4.931   7.943
  149POPC   GL1 2272   1.103   5.104   7.598
  149POPC   GL2 2273   1.405   5.147   7.667
  149POPC   C1A 2274   1.163   5.187   7.180
  149POPC   D2A 2275   0.989   5.002   6.853
  149POPC   C3A 2276   0.956   5.353   6.647
  149POPC   C4A 2277   1.027   5.249   6.252
  149POPC   C1B 2278   1.545   4.884   7.369
  149POPC   C2B 2279   1.475   4.809   6.963
  149POPC   C3B 2280   1.423   5.064   6.596
  149POPC   C4B 2281   1.351   4.884   6.204
  150POPC   NC3 2282   1.096   4.162   8.073
  150POPC   PO4 2283   1.651   4.612   7.987
  150POPC   GL1 2284   1.289   4.608   7.704
  150POPC   GL2 2285   1.098   4.316   7.600
  150POPC   C1A 2286   1.076   4.696   7.288
  150POPC   D2A 2287   1.060   4.447   6.940
  150POPC   C3A 2288   1.278   4.539   6.580
  150POPC   C4A 2289   1.191   4.409   6.175
  150POPC   C1B 2290   0.879   4.097   7.282
  150POPC   C2B 2291   0.923   3.959   6.863
  150POPC   C3B 2292   0.819   4.181   6.487
  150POPC   C4B 2293   0.878   4.030   6.078
  151POPC   NC3 2294   0.398   0.988   7.920
  151POPC   PO4 2295   0.809   1.513   8.094
  151POPC   GL1 2296   0.735   1.335   7.721
  151POPC   GL2 2297   0.383   1.437   7.640
  151POPC   C1A 2298   0.784   1.347   7.293
  151POPC   D2A 2299   0.692   1.067   6.918
  151POPC   C3A 2300   0.593   1.258   6.551
  151POPC   C4A 2301   0.790   1.434   6.167
  151POPC   C1B 2302   0.334   1.130   7.280
  151POPC   C2B 2303   0.157   0.978   6.881
  151POPC   C3B 2304   0.073   1.005   6.441
  151POPC   C4B 2305   0.381   1.075   6.128
  152POPC   NC3 2306   0.426   1.827   8.075
  152POPC   PO4 2307  11.491   2.392   8.090
  152POPC   GL1 2308   0.051   2.221   7.665
  152POPC   GL2 2309   0.257   1.956   7.634
  152POPC   C1A 2310   0.317   2.290   7.270
  152POPC   D2A 2311   0.408   2.096   6.899
  152POPC   C3A 2312   0.513   2.248   6.532
  152POPC   C4A 2313   0.373   2.331   6.147
  152POPC   C1B 2314   0.559   1.819   7.327
  152POPC   C2B 2315   0.512   1.595   6.935
  152POPC   C3B 2316   0.634   1.758   6.533
  152POPC   C4B 2317   0.566   1.886   6.087
  153POPC   NC3 2318   9.478   6.293   8.035
  153POPC   PO4 2319   9.259   6.888   8.160
  153POPC   GL1 2320   9.464   6.748   7.747
  153POPC   GL2 2321   9.784   6.600   7.716
  153POPC   C1A 2322   9.479   6.574   7.285
  153POPC   D2A 2323   9.566   6.757   6.853
  153POPC   C3A 2324   9.507   6.560   6.415
  153POPC   C4A 2325   9.205   6.251   6.315
  153POPC   C1B 2326   9.973   6.433   7.363
  153POPC   C2B 2327  10.028   6.604   7.003
  153POPC   C3B 2328   9.952   6.463   6.632
  153POPC   C4B 2329  10.067   6.642   6.286
  154POPC   NC3 2330   2.610   8.756   8.022
  154POPC   PO4 2331   3.057   9.277   8.069
  154POPC   GL1 2332   2.759   9.167   7.699
  154POPC   GL2 2333   2.795   8.864   7.562
  154POPC   C1A 2334   2.535   9.145   7.260
  154POPC   D2A 2335   2.696   8.980   6.859
  154POPC   C3A 2336   2.584   9.169   6.449
  154POPC   C4A 2337   2.432   9.320   5.982
  154POPC   C1B 2338   2.605   8.619   7.235
  154POPC   C2B 2339   2.682   8.465   6.817
  154POPC   C3B 2340   2.659   8.660   6.426
  154POPC   C4B 2341   2.674   8.882   6.036
  155POPC   NC3 2342   0.209   7.360   8.111
  155POPC   PO4 2343  11.014   7.251   8.206
  155POPC   GL1 2344  11.277   7.220   7.806
  155POPC   GL2 2345  11.093   7.413   7.587
  155POPC   C1A 2346   0.013   7.226   7.360
  155POPC   D2A 2347  11.441   7.161   6.877
  155POPC   C3A 2348   0.013   7.538   6.593
  155POPC   C4A 2349  11.499   7.719   6.166
  155POPC   C1B 2350  11.033   7.147   7.199
  155POPC   C2B 2351  10.800   7.171   6.834
  155POPC   C3B 2352  10.977   7.311   6.448
  155POPC   C4B 2353  11.355   7.225   6.241
  156POPC   NC3 2354  10.167   4.291   8.007
  156POPC   PO4 2355  10.730   4.621   8.059
  156POPC   GL1 2356  10.520   4.437   7.657
  156POPC   GL2 2357  10.507   4.050   7.701
  156POPC   C1A 2358  10.259   4.522   7.254
  156POPC   D2A 2359  10.001   4.283   6.952
  156POPC   C3A 2360  10.139   4.418   6.544
  156POPC   C4A 2361  10.047   4.449   6.132
  156POPC   C1B 2362  10.514   4.092   7.270
  156POPC   C2B 2363  10.506   4.242   6.864
  156POPC   C3B 2364  10.680   3.979   6.527
  156POPC   C4B 2365  10.471   4.185   6.201
  157POPC   NC3 2366  10.381  11.222   8.067
  157POPC   PO4 2367   9.766  11.321   8.127
  157POPC   GL1 2368   9.973  11.135   7.753
  157POPC   GL2 2369  10.226  11.355   7.591
  157POPC   C1A 2370   9.964  11.017   7.311
  157POPC   D2A 2371  10.124  11.303   6.972
  157POPC   C3A 2372  10.145  11.139   6.535
  157POPC   C4A 2373  10.202  11.292   6.110
  157POPC   C1B 2374  10.475  11.083   7.324
  157POPC   C2B 2375  10.651  11.165   6.926
  157POPC   C3B 2376  10.845  11.256   6.548
  157POPC   C4B 2377  10.608  11.057   6.266
  158POPC   NC3 2378   1.367  11.085   8.042
  158POPC   PO4 2379   0.850   0.082   8.070
  158POPC   GL1 2380   1.141  11.429   7.736
  158POPC   GL2 2381   1.004  11.098   7.688
  158POPC   C1A 2382   1.362  11.227   7.353
  158POPC   D2A 2383   1.144  11.066   6.977
  158POPC   C3A 2384   1.309  11.120   6.594
  158POPC   C4A 2385   1.581  11.239   6.266
  158POPC   C1B 2386   0.858  11.361   7.311
  158POPC   C2B 2387   0.795   0.025   6.908
  158POPC   C3B 2388   0.843  11.304   6.535
  158POPC   C4B 2389   1.086  11.092   6.153
  159POPC   NC3 2390   0.235   9.665   8.051
  159POPC   PO4 2391   0.804   9.351   8.177
  159POPC   GL1 2392   0.507   9.318   7.809
  159POPC   GL2 2393   0.536   9.674   7.657
  159POPC   C1A 2394   0.339   9.316   7.365
  159POPC   D2A 2395   0.676   9.418   7.052
  159POPC   C3A 2396   0.833   9.360   6.634
  159POPC   C4A 2397   0.808   9.245   6.217
  159POPC   C1B 2398   0.210   9.805   7.351
  159POPC   C2B 2399   0.201   9.573   6.935
  159POPC   C3B 2400   0.448   9.679   6.574
  159POPC   C4B 2401   0.378   9.993   6.267
  160POPC   NC3 2402   9.807   5.729   7.996
  160POPC   PO4 2403   9.161   5.966   7.977
  160POPC   GL1 2404   9.504   5.960   7.638
  160POPC   GL2 2405   9.717   5.684   7.522
  160POPC   C1A 2406   9.617   6.064   7.205
  160POPC   D2A 2407   9.468   6.246   6.834
  160POPC   C3A 2408   9.620   6.028   6.488
  160POPC   C4A 2409   9.348   5.733   6.239
  160POPC   C1B 2410   9.873   5.472   7.208
  160POPC   C2B 2411   9.759   5.653   6.842
  160POPC   C3B 2412   9.761   5.519   6.443
  160POPC   C4B 2413   9.842   5.777   6.111
  161POPC   NC3 2414   6.153  10.137   8.044
  161POPC   PO4 2415   5.970  10.728   8.129
  161POPC   GL1 2416   6.056  10.556   7.739
  161POPC   GL2 2417   5.823  10.829   7.594
  161POPC   C1A 2418   6.075  10.176   7.424
  161POPC   D2A 2419   6.079  10.368   7.039
  161POPC   C3A 2420   6.168  10.175   6.689
  161POPC   C4A 2421   5.990  10.285   6.342
  161POPC   C1B 2422   5.678  10.486   7.391
  161POPC   C2B 2423   5.565  10.297   7.025
  161POPC   C3B 2424   5.576  10.407   6.641
  161POPC   C4B 2425   5.495  10.275   6.261
  162POPC   NC3 2426   4.342   2.265   8.026
  162POPC   PO4 2427   4.542   1.670   8.078
  162POPC   GL1 2428   4.418   1.582   7.665
  162POPC   GL2 2429   4.204   1.882   7.678
  162POPC   C1A 2430   4.424   1.807   7.235
  162POPC   D2A 2431   4.303   1.882   6.807
  162POPC   C3A 2432   4.565   2.037   6.468
  162POPC   C4A 2433   4.423   1.929   6.059
  162POPC   C1B 2434   4.168   2.228   7.360
  162POPC   C2B 2435   4.027   2.307   6.946
  162POPC   C3B 2436   4.137   2.322   6.525
  162POPC   C4B 2437   4.008   2.204   6.135
  163POPC   NC3 2438   8.917   5.590   8.054
  163POPC   PO4 2439   9.471   5.440   8.103
  163POPC   GL1 2440   9.290   5.463   7.674
  163POPC   GL2 2441   9.046   5.714   7.556
  163POPC   C1A 2442   9.357   5.568   7.192
  163POPC   D2A 2443   9.269   5.732   6.755
  163POPC   C3A 2444   8.924   5.575   6.450
  163POPC   C4A 2445   8.954   5.437   5.997
  163POPC   C1B 2446   9.108   6.022   7.198
  163POPC   C2B 2447   8.943   6.115   6.768
  163POPC   C3B 2448   8.759   6.052   6.363
  163POPC   C4B 2449   8.790   6.374   6.028
  164POPC   NC3 2450   7.798   2.988   7.915
  164POPC   PO4 2451   8.164   2.502   8.068
  164POPC   GL1 2452   7.924   2.353   7.690
  164POPC   GL2 2453   7.840   2.645   7.562
  164POPC   C1A 2454   7.950   2.337   7.191
  164POPC   D2A 2455   7.954   2.692   6.833
  164POPC   C3A 2456   8.088   2.640   6.386
  164POPC   C4A 2457   7.994   2.322   6.089
  164POPC   C1B 2458   8.171   2.812   7.289
  164POPC   C2B 2459   8.415   2.979   6.901
  164POPC   C3B 2460   8.279   3.114   6.454
  164POPC   C4B 2461   8.261   3.106   5.959
  165POPC   NC3 2462   1.157   0.413   7.968
  165POPC   PO4 2463   1.598   0.910   7.978
  165POPC   GL1 2464   1.513   0.672   7.576
  165POPC   GL2 2465   1.143   0.637   7.517
  165POPC   C1A 2466   1.440   0.615   7.098
  165POPC   D2A 2467   1.012   0.503   6.902
  165POPC   C3A 2468   1.090   0.567   6.466
  165POPC   C4A 2469   1.523   0.581   6.420
  165POPC   C1B 2470   1.218   0.222   7.310
  165POPC   C2B 2471   1.320   0.063   6.875
  165POPC   C3B 2472   1.263   0.103   6.423
  165POPC   C4B 2473   0.865   0.176   6.192
  166POPC   NC3 2474   9.542   2.776   8.150
  166POPC   PO4 2475  10.121   2.606   7.915
  166POPC   GL1 2476   9.879   2.852   7.635
  166POPC   GL2 2477   9.584   2.645   7.657
  166POPC   C1A 2478   9.700   2.840   7.208
  166POPC   D2A 2479   9.865   2.551   6.950
  166POPC   C3A 2480  10.115   2.775   6.686
  166POPC   C4A 2481   9.970   2.685   6.279
  166POPC   C1B 2482   9.497   2.357   7.319
  166POPC   C2B 2483   9.353   2.468   6.912
  166POPC   C3B 2484   9.452   2.817   6.709
  166POPC   C4B 2485   9.476   2.818   6.270
  167POPC   NC3 2486  10.444   8.468   7.824
  167POPC   PO4 2487  10.038   8.851   8.289
  167POPC   GL1 2488  10.129   8.931   7.784
  167POPC   GL2 2489  10.274   9.248   7.713
  167POPC   C1A 2490  10.180   8.751   7.310
  167POPC   D2A 2491  10.406   8.592   6.922
  167POPC   C3A 2492  10.289   8.796   6.535
  167POPC   C4A 2493  10.375   8.661   6.125
  167POPC   C1B 2494  10.081   9.254   7.311
  167POPC   C2B 2495  10.297   9.124   6.945
  167POPC   C3B 2496  10.637   9.172   6.659
  167POPC   C4B 2497  10.619   9.126   6.201
  168POPC   NC3 2498   1.616   1.194   3.931
  168POPC   PO4 2499   0.976   0.962   3.941
  168POPC   GL1 2500   1.241   1.095   4.241
  168POPC   GL2 2501   1.061   1.356   4.396
  168POPC   C1A 2502   1.478   1.089   4.607
  168POPC   D2A 2503   1.346   1.098   5.040
  168POPC   C3A 2504   1.550   1.346   5.374
  168POPC   C4A 2505   1.670   0.954   5.610
  168POPC   C1B 2506   0.939   0.976   4.644
  168POPC   C2B 2507   0.881   0.866   5.084
  168POPC   C3B 2508   1.110   0.962   5.475
  168POPC   C4B 2509   1.124   1.409   5.659
  169POPC   NC3 2510  10.859   3.421   3.844
  169POPC   PO4 2511  10.179   3.452   3.829
  169POPC   GL1 2512  10.209   3.685   4.223
  169POPC   GL2 2513  10.585   3.680   4.242
  169POPC   C1A 2514  10.093   3.513   4.641
  169POPC   D2A 2515  10.208   3.223   5.007
  169POPC   C3A 2516   9.968   3.220   5.394
  169POPC   C4A 2517  10.122   3.324   5.790
  169POPC   C1B 2518  10.574   3.556   4.705
  169POPC   C2B 2519  10.377   3.705   5.118
  169POPC   C3B 2520  10.403   3.697   5.589
  169POPC   C4B 2521  10.701   3.825   5.934
  170POPC   NC3 2522   9.755   5.698   3.748
  170POPC   PO4 2523   9.326   5.354   3.934
  170POPC   GL1 2524   9.638   5.455   4.205
  170POPC   GL2 2525   9.633   5.809   4.258
  170POPC   C1A 2526   9.675   5.455   4.636
  170POPC   D2A 2527   9.426   5.459   4.990
  170POPC   C3A 2528   9.629   5.630   5.346
  170POPC   C4A 2529   9.520   5.606   5.767
  170POPC   C1B 2530   9.795   5.959   4.701
  170POPC   C2B 2531   9.859   6.055   5.152
  170POPC   C3B 2532   9.571   6.223   5.489
  170POPC   C4B 2533   9.488   6.095   5.912
  171POPC   NC3 2534   3.617  10.276   3.981
  171POPC   PO4 2535   3.941  10.817   4.011
  171POPC   GL1 2536   3.762  10.625   4.353
  171POPC   GL2 2537   3.399  10.602   4.315
  171POPC   C1A 2538   3.892  10.678   4.774
  171POPC   D2A 2539   3.913  10.815   5.172
  171POPC   C3A 2540   3.860  10.505   5.520
  171POPC   C4A 2541   3.767  10.322   5.943
  171POPC   C1B 2542   3.481  10.372   4.704
  171POPC   C2B 2543   3.471  10.525   5.137
  171POPC   C3B 2544   3.354  10.380   5.555
  171POPC   C4B 2545   3.363  10.029   5.790
  172POPC   NC3 2546  10.496   2.108   4.043
  172POPC   PO4 2547   9.865   1.953   4.086
  172POPC   GL1 2548  10.089   2.189   4.383
  172POPC   GL2 2549  10.288   1.902   4.464
  172POPC   C1A 2550  10.318   2.280   4.788
  172POPC   D2A 2551  10.389   2.032   5.159
  172POPC   C3A 2552  10.316   2.326   5.504
  172POPC   C4A 2553  10.456   2.316   5.936
  172POPC   C1B 2554  10.561   1.618   4.703
  172POPC   C2B 2555  10.538   1.474   5.118
  172POPC   C3B 2556  10.508   1.619   5.538
  172POPC   C4B 2557  10.212   1.893   5.758
  173POPC   NC3 2558  10.143  11.184   3.902
  173POPC   PO4 2559  10.712  10.660   3.852
  173POPC   GL1 2560  10.494  10.933   4.227
  173POPC   GL2 2561  10.371  11.288   4.342
  173POPC   C1A 2562  10.389  10.953   4.708
  173POPC   D2A 2563  10.124  10.816   5.050
  173POPC   C3A 2564  10.376  10.724   5.405
  173POPC   C4A 2565  10.518  10.945   5.769
  173POPC   C1B 2566  10.199  11.472   4.721
  173POPC   C2B 2567  10.038  11.365   5.133
  173POPC   C3B 2568  10.143   0.139   5.485
  173POPC   C4B 2569  10.479  11.467   5.716
  174POPC   NC3 2570   6.405  11.351   3.886
  174POPC   PO4 2571   7.084  11.446   4.024
  174POPC   GL1 2572   6.752  11.298   4.262
  174POPC   GL2 2573   6.762  10.940   4.327
  174POPC   C1A 2574   6.486  11.331   4.601
  174POPC   D2A 2575   6.612  11.324   5.047
  174POPC   C3A 2576   6.362  11.491   5.380
  174POPC   C4A 2577   6.218  11.376   5.790
  174POPC   C1B 2578   6.600  10.865   4.761
  174POPC   C2B 2579   6.297  10.884   5.121
  174POPC   C3B 2580   6.465  10.965   5.528
  174POPC   C4B 2581   6.859  10.895   5.728
  175POPC   NC3 2582   2.984   9.872   4.028
  175POPC   PO4 2583   3.620   9.825   3.959
  175POPC   GL1 2584   3.518   9.960   4.361
  175POPC   GL2 2585   3.403   9.650   4.416
  175POPC   C1A 2586   3.720   9.931   4.755
  175POPC   D2A 2587   3.541   9.966   5.182
  175POPC   C3A 2588   3.817   9.962   5.544
  175POPC   C4A 2589   3.793   9.805   5.973
  175POPC   C1B 2590   3.480   9.487   4.825
  175POPC   C2B 2591   3.297   9.470   5.213
  175POPC   C3B 2592   3.476   9.574   5.588
  175POPC   C4B 2593   3.369   9.548   6.016
  176POPC   NC3 2594  10.520   7.921   3.870
  176POPC   PO4 2595  10.715   8.549   3.948
  176POPC   GL1 2596  10.473   8.385   4.304
  176POPC   GL2 2597  10.440   8.037   4.376
  176POPC   C1A 2598  10.441   8.310   4.783
  176POPC   D2A 2599  10.667   8.073   5.115
  176POPC   C3A 2600  10.501   8.348   5.391
  176POPC   C4A 2601  10.228   8.502   5.664
  176POPC   C1B 2602  10.352   7.795   4.780
  176POPC   C2B 2603  10.178   7.935   5.161
  176POPC   C3B 2604  10.230   7.957   5.586
  176POPC   C4B 2605  10.193   7.681   5.975
  177POPC   NC3 2606   9.568   2.245   4.281
  177POPC   PO4 2607   9.588   2.905   3.961
  177POPC   GL1 2608   9.516   2.752   4.303
  177POPC   GL2 2609   9.878   2.658   4.309
  177POPC   C1A 2610   9.434   2.792   4.722
  177POPC   D2A 2611   9.344   3.020   5.067
  177POPC   C3A 2612   9.496   2.916   5.422
  177POPC   C4A 2613   9.294   2.921   5.778
  177POPC   C1B 2614   9.889   2.553   4.735
  177POPC   C2B 2615   9.867   2.809   5.067
  177POPC   C3B 2616   9.960   2.700   5.461
  177POPC   C4B 2617   9.738   2.669   5.835
  178POPC   NC3 2618  10.815   0.410   3.754
  178POPC   PO4 2619  11.290   0.188   4.160
  178POPC   GL1 2620  11.287   0.572   4.395
  178POPC   GL2 2621   0.131   0.645   4.344
  178POPC   C1A 2622  11.049   0.542   4.817
  178POPC   D2A 2623  10.941   0.170   5.104
  178POPC   C3A 2624  11.059   0.247   5.548
  178POPC   C4A 2625  11.055   0.661   5.744
  178POPC   C1B 2626   0.116   0.412   4.739
  178POPC   C2B 2627  11.432   0.440   5.130
  178POPC   C3B 2628   0.053   0.455   5.513
  178POPC   C4B 2629  11.477   0.303   5.869
  179POPC   NC3 2630   6.650   9.560   3.858
  179POPC   PO4 2631   6.170   9.944   3.804
  179POPC   GL1 2632   6.376   9.891   4.212
  179POPC   GL2 2633   6.612   9.646   4.362
  179POPC   C1A 2634   6.360  10.005   4.665
  179POPC   D2A 2635   6.414   9.769   5.039
  179POPC   C3A 2636   6.258   9.834   5.450
  179POPC   C4A 2637   6.394   9.559   5.785
  179POPC   C1B 2638   6.839   9.829   4.726
  179POPC   C2B 2639   6.864  10.013   5.128
  179POPC   C3B 2640   6.757   9.819   5.509
  179POPC   C4B 2641   6.726   9.904   5.942
  180POPC   NC3 2642   9.324   8.941   3.836
  180POPC   PO4 2643   9.985   8.983   3.795
  180POPC   GL1 2644   9.693   9.174   4.141
  180POPC   GL2 2645   9.515   8.882   4.305
  180POPC   C1A 2646   9.582   9.299   4.593
  180POPC   D2A 2647   9.790   9.176   4.990
  180POPC   C3A 2648   9.602   9.213   5.396
  180POPC   C4A 2649   9.669   9.118   5.813
  180POPC   C1B 2650   9.470   8.819   4.747
  180POPC   C2B 2651   9.294   8.856   5.148
  180POPC   C3B 2652   9.361   8.772   5.586
  180POPC   C4B 2653   9.756   8.617   5.728
  181POPC   NC3 2654  11.177   8.426   4.101
  181POPC   PO4 2655  10.946   7.898   3.734
  181POPC   GL1 2656  10.926   7.963   4.186
  181POPC   GL2 2657  11.248   7.904   4.221
  181POPC   C1A 2658  10.914   8.101   4.650
  181POPC   D2A 2659  11.187   8.155   5.060
  181POPC   C3A 2660  10.993   8.308   5.476
  181POPC   C4A 2661  10.724   8.331   5.856
  181POPC   C1B 2662  11.331   7.782   4.648
  181POPC   C2B 2663  11.133   7.621   5.020
  181POPC   C3B 2664  11.053   7.802   5.433
  181POPC   C4B 2665  11.414   7.941   5.699
  182POPC   NC3 2666   5.726  10.959   3.945
  182POPC   PO4 2667   6.384  10.941   3.646
  182POPC   GL1 2668   6.230  10.933   4.136
  182POPC   GL2 2669   6.032  11.270   4.227
  182POPC   C1A 2670   6.129  10.966   4.607
  182POPC   D2A 2671   6.084  11.325   4.939
  182POPC   C3A 2672   5.940  11.207   5.367
  182POPC   C4A 2673   5.993  10.922   5.707
  182POPC   C1B 2674   5.714  11.259   4.584
  182POPC   C2B 2675   5.555  11.292   5.029
  182POPC   C3B 2676   5.473  11.426   5.463
  182POPC   C4B 2677   5.687  11.337   5.845
  183POPC   NC3 2678   1.125   8.102   3.805
  183POPC   PO4 2679   1.711   8.386   3.965
  183POPC   GL1 2680   1.386   8.288   4.257
  183POPC   GL2 2681   1.064   8.150   4.311
  183POPC   C1A 2682   1.444   8.091   4.669
  183POPC   D2A 2683   1.277   8.164   5.092
  183POPC   C3A 2684   1.351   7.901   5.453
  183POPC   C4A 2685   1.466   8.154   5.804
  183POPC   C1B 2686   0.941   8.015   4.723
  183POPC   C2B 2687   0.768   8.166   5.129
  183POPC   C3B 2688   0.926   8.161   5.532
  183POPC   C4B 2689   0.992   7.901   5.878
  184POPC   NC3 2690  11.016  10.977   4.053
  184POPC   PO4 2691  10.628   0.037   3.985
  184POPC   GL1 2692  10.881  11.359   4.356
  184POPC   GL2 2693  11.236  11.242   4.421
  184POPC   C1A 2694  10.818  11.254   4.771
  184POPC   D2A 2695  10.562  11.284   5.147
  184POPC   C3A 2696  10.883  11.264   5.458
  184POPC   C4A 2697  10.913  11.265   5.900
  184POPC   C1B 2698  11.324  11.475   4.807
  184POPC   C2B 2699  11.388  11.447   5.246
  184POPC   C3B 2700  11.378  11.355   5.653
  184POPC   C4B 2701  11.387  11.052   5.900
  185POPC   NC3 2702   2.033  11.076   3.870
  185POPC   PO4 2703   2.509  10.585   3.895
  185POPC   GL1 2704   2.300  10.694   4.268
  185POPC   GL2 2705   2.069  10.954   4.359
  185POPC   C1A 2706   2.411  10.796   4.696
  185POPC   D2A 2707   2.303  11.088   5.018
  185POPC   C3A 2708   2.081  10.985   5.365
  185POPC   C4A 2709   2.204  11.064   5.740
  185POPC   C1B 2710   1.899  11.166   4.721
  185POPC   C2B 2711   1.651  11.086   5.056
  185POPC   C3B 2712   1.587  11.047   5.458
  185POPC   C4B 2713   1.748  11.290   5.775
  186POPC   NC3 2714   3.620   2.901   3.792
  186POPC   PO4 2715   3.003   3.152   4.022
  186POPC   GL1 2716   3.362   2.940   4.258
  186POPC   GL2 2717   3.341   2.578   4.226
  186POPC   C1A 2718   3.388   2.778   4.721
  186POPC   D2A 2719   3.254   2.824   5.182
  186POPC   C3A 2720   3.592   2.834   5.532
  186POPC   C4A 2721   3.790   2.982   5.962
  186POPC   C1B 2722   3.100   2.370   4.609
  186POPC   C2B 2723   3.224   2.301   5.062
  186POPC   C3B 2724   3.227   2.436   5.545
  186POPC   C4B 2725   3.141   2.399   6.031
  187POPC   NC3 2726   9.697   1.529   4.207
  187POPC   PO4 2727   9.285   2.143   3.947
  187POPC   GL1 2728   9.147   1.975   4.380
  187POPC   GL2 2729   9.475   1.829   4.547
  187POPC   C1A 2730   9.064   1.819   4.830
  187POPC   D2A 2731   9.461   1.830   5.093
  187POPC   C3A 2732   9.541   1.747   5.532
  187POPC   C4A 2733   9.509   1.897   5.937
  187POPC   C1B 2734   9.870   1.974   4.805
  187POPC   C2B 2735   9.916   2.244   5.175
  187POPC   C3B 2736   9.811   2.202   5.625
  187POPC   C4B 2737   9.915   2.217   6.073
  188POPC   NC3 2738   2.771   7.376   3.897
  188POPC   PO4 2739   3.024   6.892   3.985
  188POPC   GL1 2740   2.909   7.191   4.372
  188POPC   GL2 2741   2.614   7.420   4.389
  188POPC   C1A 2742   2.862   7.292   4.851
  188POPC   D2A 2743   2.935   7.052   5.252
  188POPC   C3A 2744   3.004   7.271   5.655
  188POPC   C4A 2745   2.967   7.277   6.111
  188POPC   C1B 2746   2.481   7.044   4.631
  188POPC   C2B 2747   2.307   7.094   5.064
  188POPC   C3B 2748   2.503   7.251   5.446
  188POPC   C4B 2749   2.584   7.492   5.841
  189POPC   NC3 2750   8.472  11.276   4.123
  189POPC   PO4 2751   8.359  10.696   3.742
  189POPC   GL1 2752   8.310  10.790   4.206
  189POPC   GL2 2753   8.055  11.006   4.277
  189POPC   C1A 2754   8.354  10.938   4.670
  189POPC   D2A 2755   8.141  11.230   4.950
  189POPC   C3A 2756   8.080  11.110   5.372
  189POPC   C4A 2757   8.314  10.977   5.725
  189POPC   C1B 2758   7.839  11.305   4.528
  189POPC   C2B 2759   7.634  11.316   4.911
  189POPC   C3B 2760   7.578  11.284   5.336
  189POPC   C4B 2761   7.755  11.303   5.726
  190POPC   NC3 2762   5.725   0.218   3.601
  190POPC   PO4 2763   5.268   0.495   3.961
  190POPC   GL1 2764   5.005   0.465   4.347
  190POPC   GL2 2765   4.915   0.116   4.493
  190POPC   C1A 2766   5.131   0.504   4.778
  190POPC   D2A 2767   5.269   0.228   5.067
  190POPC   C3A 2768   5.313   0.431   5.429
  190POPC   C4A 2769   5.106   0.414   5.784
  190POPC   C1B 2770   4.655   0.308   4.737
  190POPC   C2B 2771   4.673   0.532   5.056
  190POPC   C3B 2772   4.740   0.498   5.430
  190POPC   C4B 2773   4.708   0.710   5.790
  191POPC   NC3 2774   4.786   1.776   3.916
  191POPC   PO4 2775   4.792   2.446   3.944
  191POPC   GL1 2776   4.899   2.208   4.316
  191POPC   GL2 2777   5.074   1.889   4.322
  191POPC   C1A 2778   4.733   2.185   4.755
  191POPC   D2A 2779   4.517   2.142   5.169
  191POPC   C3A 2780   4.816   2.245   5.492
  191POPC   C4A 2781   4.845   2.157   5.922
  191POPC   C1B 2782   4.880   1.702   4.706
  191POPC   C2B 2783   4.924   1.837   5.155
  191POPC   C3B 2784   5.090   1.818   5.611
  191POPC   C4B 2785   5.277   1.922   6.044
  192POPC   NC3 2786   4.155   0.219   3.853
  192POPC   PO4 2787   4.682  11.486   4.047
  192POPC   GL1 2788   4.375   0.224   4.337
  192POPC   GL2 2789   4.185   0.539   4.311
  192POPC   C1A 2790   4.155   0.166   4.752
  192POPC   D2A 2791   4.409   0.055   5.117
  192POPC   C3A 2792   4.347   0.168   5.517
  192POPC   C4A 2793   4.649   0.189   5.828
  192POPC   C1B 2794   4.281   0.667   4.749
  192POPC   C2B 2795   4.167   0.529   5.164
  192POPC   C3B 2796   4.247   0.683   5.563
  192POPC   C4B 2797   4.261   0.860   5.987
  193POPC   NC3 2798   1.204   2.101   4.018
  193POPC   PO4 2799   1.693   1.658   3.944
  193POPC   GL1 2800   1.513   1.608   4.364
  193POPC   GL2 2801   1.269   1.877   4.456
  193POPC   C1A 2802   1.349   1.540   4.802
  193POPC   D2A 2803   1.053   1.566   5.143
  193POPC   C3A 2804   1.220   1.873   5.404
  193POPC   C4A 2805   1.464   1.785   5.749
  193POPC   C1B 2806   0.895   1.870   4.730
  193POPC   C2B 2807   0.761   2.075   5.114
  193POPC   C3B 2808   0.967   2.365   5.353
  193POPC   C4B 2809   1.180   2.252   5.750
  194POPC   NC3 2810   5.851   0.524   4.091
  194POPC   PO4 2811   5.600  11.438   3.949
  194POPC   GL1 2812   5.523   0.191   4.367
  194POPC   GL2 2813   5.505   0.564   4.447
  194POPC   C1A 2814   5.709   0.242   4.803
  194POPC   D2A 2815   5.988   0.292   5.164
  194POPC   C3A 2816   5.900   0.223   5.574
  194POPC   C4A 2817   5.607   0.364   5.846
  194POPC   C1B 2818   5.896   0.716   4.686
  194POPC   C2B 2819   6.163   0.748   5.009
  194POPC   C3B 2820   6.077   0.910   5.420
  194POPC   C4B 2821   5.954   0.728   5.812
  195POPC   NC3 2822   4.037   9.680   3.834
  195POPC   PO4 2823   4.669   9.430   4.094
  195POPC   GL1 2824   4.228   9.485   4.250
  195POPC   GL2 2825   4.075   9.842   4.321
  195POPC   C1A 2826   3.946   9.451   4.612
  195POPC   D2A 2827   3.989   9.609   5.047
  195POPC   C3A 2828   4.236   9.354   5.346
  195POPC   C4A 2829   3.978   9.447   5.656
  195POPC   C1B 2830   4.369   9.763   4.707
  195POPC   C2B 2831   4.472   9.758   5.178
  195POPC   C3B 2832   4.500   9.757   5.641
  195POPC   C4B 2833   4.700  10.165   5.773
  196POPC   NC3 2834   2.986   1.814   4.009
  196POPC   PO4 2835   2.452   1.482   3.719
  196POPC   GL1 2836   2.391   1.705   4.230
  196POPC   GL2 2837   2.499   2.031   4.180
  196POPC   C1A 2838   2.272   1.779   4.664
  196POPC   D2A 2839   2.575   1.639   4.973
  196POPC   C3A 2840   2.535   1.781   5.410
  196POPC   C4A 2841   2.736   1.679   5.812
  196POPC   C1B 2842   2.722   1.997   4.580
  196POPC   C2B 2843   2.610   2.145   4.977
  196POPC   C3B 2844   2.826   2.182   5.351
  196POPC   C4B 2845   2.731   2.205   5.772
  197POPC   NC3 2846   7.567  11.425   3.883
  197POPC   PO4 2847   7.235   0.547   3.725
  197POPC   GL1 2848   7.402   0.509   4.202
  197POPC   GL2 2849   7.640   0.239   4.254
  197POPC   C1A 2850   7.217   0.620   4.647
  197POPC   D2A 2851   7.368   0.860   5.013
  197POPC   C3A 2852   7.231   0.733   5.411
  197POPC   C4A 2853   7.028   0.485   5.706
  197POPC   C1B 2854   7.392   0.139   4.600
  197POPC   C2B 2855   7.480   0.300   5.004
  197POPC   C3B 2856   7.374   0.234   5.413
  197POPC   C4B 2857   7.461   0.241   5.836
  198POPC   NC3 2858   1.099   7.582   3.722
  198POPC   PO4 2859   1.549   7.054   3.885
  198POPC   GL1 2860   1.382   7.351   4.199
  198POPC   GL2 2861   1.198   7.149   4.454
  198POPC   C1A 2862   1.440   7.579   4.600
  198POPC   D2A 2863   1.246   7.640   5.009
  198POPC   C3A 2864   1.456   7.364   5.313
  198POPC   C4A 2865   1.486   7.051   5.684
  198POPC   C1B 2866   0.906   7.498   4.615
  198POPC   C2B 2867   0.710   7.652   5.018
  198POPC   C3B 2868   0.881   7.670   5.427
  198POPC   C4B 2869   1.197   7.471   5.729
  199POPC   NC3 2870   0.845   3.652   3.916
  199POPC   PO4 2871   0.545   3.021   3.922
  199POPC   GL1 2872   0.545   3.321   4.257
  199POPC   GL2 2873   0.642   3.664   4.402
  199POPC   C1A 2874   0.451   3.288   4.687
  199POPC   D2A 2875   0.641   3.575   4.980
  199POPC   C3A 2876   0.665   3.357   5.356
  199POPC   C4A 2877   0.398   3.191   5.653
  199POPC   C1B 2878   0.229   3.746   4.636
  199POPC   C2B 2879   0.131   3.543   5.041
  199POPC   C3B 2880   0.270   3.650   5.448
  199POPC   C4B 2881   0.103   3.728   5.832
  200POPC   NC3 2882  10.474   5.780   3.986
  200POPC   PO4 2883  10.010   5.275   3.889
  200POPC   GL1 2884  10.150   5.525   4.288
  200POPC   GL2 2885  10.538   5.548   4.421
  200POPC   C1A 2886  10.172   5.408   4.729
  200POPC   D2A 2887  10.168   5.628   5.108
  200POPC   C3A 2888  10.106   5.515   5.524
  200POPC   C4A 2889   9.946   5.925   5.653
  200POPC   C1B 2890  10.469   5.882   4.709
  200POPC   C2B 2891  10.410   6.059   5.130
  200POPC   C3B 2892  10.452   5.903   5.536
  200POPC   C4B 2893  10.689   6.148   5.814
  201POPC   NC3 2894   8.947   5.617   3.801
  201POPC   PO4 2895   8.475   5.844   4.122
  201POPC   GL1 2896   8.796   5.559   4.316
  201POPC   GL2 2897   9.150   5.593   4.334
  201POPC   C1A 2898   8.918   5.598   4.788
  201POPC   D2A 2899   8.837   5.927   5.128
  201POPC   C3A 2900   8.669   5.789   5.556
  201POPC   C4A 2901   8.517   5.779   6.006
  201POPC   C1B 2902   9.279   5.920   4.621
  201POPC   C2B 2903   9.358   5.976   5.063
  201POPC   C3B 2904   9.188   5.893   5.496
  201POPC   C4B 2905   9.008   5.938   5.914
  202POPC   NC3 2906   6.036   1.496   3.949
  202POPC   PO4 2907   5.700   0.943   4.014
  202POPC   GL1 2908   5.528   1.074   4.393
  202POPC   GL2 2909   5.560   1.410   4.329
  202POPC   C1A 2910   5.464   0.951   4.826
  202POPC   D2A 2911   5.658   0.713   5.169
  202POPC   C3A 2912   5.567   0.946   5.549
  202POPC   C4A 2913   5.386   1.377   5.594
  202POPC   C1B 2914   5.969   1.254   4.556
  202POPC   C2B 2915   5.940   1.197   4.984
  202POPC   C3B 2916   5.846   1.384   5.361
  202POPC   C4B 2917   5.926   1.249   5.783
  203POPC   NC3 2918   7.032   1.420   3.999
  203POPC   PO4 2919   6.950   2.122   3.916
  203POPC   GL1 2920   7.304   1.961   4.214
  203POPC   GL2 2921   7.572   2.187   4.335
  203POPC   C1A 2922   7.484   1.794   4.627
  203POPC   D2A 2923   7.322   1.692   5.037
  203POPC   C3A 2924   7.334   1.731   5.480
  203POPC   C4A 2925   6.993   1.818   5.707
  203POPC   C1B 2926   7.600   2.286   4.792
  203POPC   C2B 2927   7.507   2.153   5.224
  203POPC   C3B 2928   7.284   2.239   5.615
  203POPC   C4B 2929   7.450   2.350   6.004
  204POPC   NC3 2930   8.009   1.481   3.797
  204POPC   PO4 2931   7.921   0.809   3.885
  204POPC   GL1 2932   8.267   0.949   4.144
  204POPC   GL2 2933   8.055   1.209   4.228
  204POPC   C1A 2934   8.473   1.121   4.526
  204POPC   D2A 2935   8.451   0.985   4.976
  204POPC   C3A 2936   8.490   1.234   5.345
  204POPC   C4A 2937   8.491   1.187   5.797
  204POPC   C1B 2938   7.998   1.194   4.659
  204POPC   C2B 2939   8.068   1.378   5.067
  204POPC   C3B 2940   8.026   1.310   5.516
  204POPC   C4B 2941   8.132   1.564   5.841
  205POPC   NC3 2942   8.687   9.209   3.923
  205POPC   PO4 2943   8.976   8.625   3.859
  205POPC   GL1 2944   8.994   8.885   4.251
  205POPC   GL2 2945   8.690   8.990   4.419
  205POPC   C1A 2946   9.088   9.151   4.657
  205POPC   D2A 2947   8.833   9.048   5.018
  205POPC   C3A 2948   8.968   9.092   5.463
  205POPC   C4A 2949   8.673   9.014   5.765
  205POPC   C1B 2950   8.953   8.662   4.700
  205POPC   C2B 2951   8.893   8.526   5.135
  205POPC   C3B 2952   8.889   8.568   5.597
  205POPC   C4B 2953   8.907   8.677   6.040
  206POPC   NC3 2954   4.903  11.177   3.781
  206POPC   PO4 2955   4.239  11.276   3.740
  206POPC   GL1 2956   4.262  11.246   4.213
  206POPC   GL2 2957   4.057  11.052   4.430
  206POPC   C1A 2958   4.469  11.280   4.627
  206POPC   D2A 2959   4.312  11.080   4.971
  206POPC   C3A 2960   4.623  11.087   5.286
  206POPC   C4A 2961   4.642  11.187   5.699
  206POPC   C1B 2962   3.830  11.228   4.755
  206POPC   C2B 2963   3.904  11.397   5.156
  206POPC   C3B 2964   4.140  11.199   5.469
  206POPC   C4B 2965   4.023  10.927   5.800
  207POPC   NC3 2966   0.501  10.821   3.977
  207POPC   PO4 2967   0.731  11.494   4.002
  207POPC   GL1 2968   0.573  11.226   4.274
  207POPC   GL2 2969   0.210  11.168   4.200
  207POPC   C1A 2970   0.700  11.067   4.684
  207POPC   D2A 2971   0.913  11.306   4.994
  207POPC   C3A 2972   0.729  11.187   5.389
  207POPC   C4A 2973   0.792  11.354   5.790
  207POPC   C1B 2974   0.209  11.178   4.629
  207POPC   C2B 2975   0.306  10.959   4.998
  207POPC   C3B 2976   0.219  11.068   5.375
  207POPC   C4B 2977   0.354  11.065   5.734
  208POPC   NC3 2978   8.743  10.485   3.916
  208POPC   PO4 2979   9.343  10.559   3.741
  208POPC   GL1 2980   9.146  10.588   4.268
  208POPC   GL2 2981   8.935  10.358   4.380
  208POPC   C1A 2982   8.804  10.688   4.706
  208POPC   D2A 2983   8.511  10.706   5.093
  208POPC   C3A 2984   8.731  10.751   5.516
  208POPC   C4A 2985   9.130  10.533   5.602
  208POPC   C1B 2986   9.229  10.416   4.734
  208POPC   C2B 2987   9.005  10.435   5.115
  208POPC   C3B 2988   8.655  10.287   5.332
  208POPC   C4B 2989   8.579  10.271   5.761
  209POPC   NC3 2990   5.130   0.055   4.053
  209POPC   PO4 2991   5.323  11.011   3.719
  209POPC   GL1 2992   5.232  11.071   4.195
  209POPC   GL2 2993   4.855  11.089   4.324
  209POPC   C1A 2994   5.204  11.239   4.659
  209POPC   D2A 2995   4.882  11.398   4.972
  209POPC   C3A 2996   4.955   0.007   5.436
  209POPC   C4A 2997   5.131  11.415   5.880
  209POPC   C1B 2998   4.811  10.908   4.781
  209POPC   C2B 2999   5.043  10.807   5.182
  209POPC   C3B 3000   5.184  10.982   5.606
  209POPC   C4B 3001   4.946  10.962   6.035
  210POPC   NC3 3002   0.506  10.157   3.692
  210POPC   PO4 3003  11.391   9.879   3.938
  210POPC   GL1 3004   0.182  10.137   4.225
  210POPC   GL2 3005   0.418  10.374   4.185
  210POPC   C1A 3006   0.261  10.092   4.685
  210POPC   D2A 3007   0.079  10.073   5.120
  210POPC   C3A 3008   0.357  10.202   5.471
  210POPC   C4A 3009   0.307  10.358   5.914
  210POPC   C1B 3010   0.343  10.605   4.593
  210POPC   C2B 3011   0.456  10.472   5.027
  210POPC   C3B 3012   0.565  10.679   5.414
  210POPC   C4B 3013   0.671  10.698   5.843
  211POPC   NC3 3014   2.137   1.792   3.833
  211POPC   PO4 3015   2.330   2.426   3.878
  211POPC   GL1 3016   2.049   2.291   4.207
  211POPC   GL2 3017   1.937   1.953   4.288
  211POPC   C1A 3018   2.131   2.287   4.647
  211POPC   D2A 3019   1.974   2.258   5.060
  211POPC   C3A 3020   2.288   2.250   5.367
  211POPC   C4A 3021   2.197   2.246   5.773
  211POPC   C1B 3022   1.728   1.959   4.688
  211POPC   C2B 3023   1.651   1.821   5.105
  211POPC   C3B 3024   1.867   1.929   5.468
  211POPC   C4B 3025   1.688   2.232   5.695
  212POPC   NC3 3026  11.008   8.796   3.701
  212POPC   PO4 3027   0.042   8.561   3.841
  212POPC   GL1 3028  11.421   8.839   4.208
  212POPC   GL2 3029  11.103   8.973   4.167
  212POPC   C1A 3030  11.262   8.843   4.656
  212POPC   D2A 3031  11.313   8.740   5.103
  212POPC   C3A 3032  11.474   8.434   5.416
  212POPC   C4A 3033  11.226   8.779   5.631
  212POPC   C1B 3034  10.914   9.194   4.500
  212POPC   C2B 3035  10.845   9.110   4.940
  212POPC   C3B 3036  11.067   9.186   5.328
  212POPC   C4B 3037  10.963   9.194   5.770
  213POPC   NC3 3038   7.127  10.955   3.916
  213POPC   PO4 3039   7.830  11.016   3.835
  213POPC   GL1 3040   7.570  10.869   4.177
  213POPC   GL2 3041   7.405  11.166   4.294
  213POPC   C1A 3042   7.571  10.866   4.648
  213POPC   D2A 3043   7.455  10.863   5.076
  213POPC   C3A 3044   7.638  10.782   5.436
  213POPC   C4A 3045   7.447  10.900   5.808
  213POPC   C1B 3046   7.123  11.186   4.630
  213POPC   C2B 3047   7.130  11.367   5.003
  213POPC   C3B 3048   7.078  11.148   5.351
  213POPC   C4B 3049   7.209  11.330   5.711
  214POPC   NC3 3050   4.035   1.428   4.105
  214POPC   PO4 3051   3.390   1.544   3.844
  214POPC   GL1 3052   3.300   1.415   4.260
  214POPC   GL2 3053   3.548   1.163   4.221
  214POPC   C1A 3054   3.556   1.434   4.670
  214POPC   D2A 3055   3.936   1.524   4.947
  214POPC   C3A 3056   3.740   1.493   5.343
  214POPC   C4A 3057   3.502   1.556   5.689
  214POPC   C1B 3058   3.285   0.973   4.547
  214POPC   C2B 3059   3.356   0.869   4.970
  214POPC   C3B 3060   3.335   0.847   5.401
  214POPC   C4B 3061   3.542   1.053   5.691
  215POPC   NC3 3062   9.705   6.637   4.021
  215POPC   PO4 3063  10.069   6.058   3.886
  215POPC   GL1 3064   9.877   6.253   4.292
  215POPC   GL2 3065   9.483   6.331   4.366
  215POPC   C1A 3066   9.831   6.510   4.686
  215POPC   D2A 3067   9.629   6.518   5.088
  215POPC   C3A 3068   9.850   6.705   5.482
  215POPC   C4A 3069   9.821   6.462   5.872
  215POPC   C1B 3070   9.360   6.725   4.674
  215POPC   C2B 3071   9.371   6.938   5.114
  215POPC   C3B 3072   9.346   6.713   5.525
  215POPC   C4B 3073   9.316   6.574   5.934
  216POPC   NC3 3074   4.500   9.009   4.030
  216POPC   PO4 3075   3.946   9.189   3.867
  216POPC   GL1 3076   3.932   9.009   4.287
  216POPC   GL2 3077   4.243   9.033   4.471
  216POPC   C1A 3078   3.807   8.976   4.750
  216POPC   D2A 3079   3.776   9.160   5.183
  216POPC   C3A 3080   4.023   8.923   5.515
  216POPC   C4A 3081   4.137   8.503   5.678
  216POPC   C1B 3082   4.536   8.932   4.792
  216POPC   C2B 3083   4.455   8.875   5.232
  216POPC   C3B 3084   4.561   8.792   5.643
  216POPC   C4B 3085   4.755   8.903   6.010
  217POPC   NC3 3086   1.179   4.414   3.950
  217POPC   PO4 3087   1.709   4.803   4.126
  217POPC   GL1 3088   1.438   4.403   4.365
  217POPC   GL2 3089   1.160   4.053   4.286
  217POPC   C1A 3090   1.134   4.321   4.703
  217POPC   D2A 3091   1.286   4.490   5.045
  217POPC   C3A 3092   1.300   4.359   5.442
  217POPC   C4A 3093   1.445   4.599   5.779
  217POPC   C1B 3094   1.060   3.803   4.672
  217POPC   C2B 3095   1.004   3.923   5.116
  217POPC   C3B 3096   0.988   3.978   5.575
  217POPC   C4B 3097   1.352   4.056   5.863
  218POPC   NC3 3098   1.664   3.659   3.786
  218POPC   PO4 3099   2.197   3.744   4.006
  218POPC   GL1 3100   2.041   3.604   4.359
  218POPC   GL2 3101   2.206   3.303   4.328
  218POPC   C1A 3102   1.960   3.762   4.749
  218POPC   D2A 3103   1.894   3.934   5.141
  218POPC   C3A 3104   1.957   3.675   5.455
  218POPC   C4A 3105   2.136   3.708   5.830
  218POPC   C1B 3106   1.966   3.236   4.731
  218POPC   C2B 3107   2.071   3.237   5.179
  218POPC   C3B 3108   1.964   3.198   5.633
  218POPC   C4B 3109   2.170   3.257   6.024
  219POPC   NC3 3110  10.584   1.130   3.844
  219POPC   PO4 3111   9.940   1.233   3.927
  219POPC   GL1 3112  10.220   1.089   4.286
  219POPC   GL2 3113  10.621   1.111   4.346
  219POPC   C1A 3114  10.303   1.152   4.737
  219POPC   D2A 3115  10.068   1.247   5.113
  219POPC   C3A 3116  10.021   1.644   5.301
  219POPC   C4A 3117   9.949   1.452   5.693
  219POPC   C1B 3118  10.818   1.036   4.750
  219POPC   C2B 3119  10.608   0.962   5.132
  219POPC   C3B 3120  10.424   1.106   5.517
  219POPC   C4B 3121  10.652   1.015   5.898
  220POPC   NC3 3122   8.685   3.582   3.891
  220POPC   PO4 3123   9.246   3.303   3.700
  220POPC   GL1 3124   9.165   3.311   4.184
  220POPC   GL2 3125   8.855   3.412   4.333
  220POPC   C1A 3126   9.249   3.514   4.643
  220POPC   D2A 3127   9.235   3.815   5.033
  220POPC   C3A 3128   9.119   3.583   5.406
  220POPC   C4A 3129   8.988   3.405   5.791
  220POPC   C1B 3130   8.563   3.359   4.684
  220POPC   C2B 3131   8.465   3.237   5.134
  220POPC   C3B 3132   8.528   3.387   5.550
  220POPC   C4B 3133   8.378   3.654   5.888
  221POPC   NC3 3134   0.868   0.520   3.865
  221POPC   PO4 3135   1.435   0.180   3.792
  221POPC   GL1 3136   1.157   0.263   4.184
  221POPC   GL2 3137   1.138   0.594   4.322
  221POPC   C1A 3138   1.019   0.184   4.612
  221POPC   D2A 3139   0.969   0.359   5.013
  221POPC   C3A 3140   0.819   0.181   5.360
  221POPC   C4A 3141   0.984   0.352   5.722
  221POPC   C1B 3142   1.340   0.604   4.741
  221POPC   C2B 3143   1.598   0.579   5.135
  221POPC   C3B 3144   1.591   0.350   5.552
  221POPC   C4B 3145   1.404   0.540   5.926
  222POPC   NC3 3146   1.532   8.802   4.125
  222POPC   PO4 3147   0.888   8.830   3.953
  222POPC   GL1 3148   1.045   8.674   4.305
  222POPC   GL2 3149   1.119   9.000   4.416
  222POPC   C1A 3150   1.210   8.531   4.699
  222POPC   D2A 3151   1.019   8.628   5.099
  222POPC   C3A 3152   1.248   8.537   5.471
  222POPC   C4A 3153   1.362   8.663   5.871
  222POPC   C1B 3154   1.305   9.004   4.827
  222POPC   C2B 3155   1.332   9.017   5.246
  222POPC   C3B 3156   0.999   8.987   5.502
  222POPC   C4B 3157   1.146   9.133   5.855
  223POPC   NC3 3158   9.982   0.631   3.872
  223POPC   PO4 3159   9.754  11.464   3.860
  223POPC   GL1 3160   9.752   0.268   4.203
  223POPC   GL2 3161   9.419   0.315   4.221
  223POPC   C1A 3162   9.675   0.344   4.661
  223POPC   D2A 3163   9.897   0.328   5.015
  223POPC   C3A 3164   9.692   0.394   5.373
  223POPC   C4A 3165   9.819   0.477   5.773
  223POPC   C1B 3166   9.244   0.567   4.541
  223POPC   C2B 3167   9.276   0.452   4.987
  223POPC   C3B 3168   9.255   0.655   5.396
  223POPC   C4B 3169   9.370   0.704   5.792
  224POPC   NC3 3170   8.092   2.946   4.022
  224POPC   PO4 3171   7.887   2.346   3.649
  224POPC   GL1 3172   8.154   2.450   4.054
  224POPC   GL2 3173   7.971   2.490   4.335
  224POPC   C1A 3174   8.453   2.545   4.454
  224POPC   D2A 3175   8.501   2.816   4.844
  224POPC   C3A 3176   8.525   2.729   5.327
  224POPC   C4A 3177   8.380   2.568   5.765
  224POPC   C1B 3178   7.946   2.726   4.707
  224POPC   C2B 3179   8.018   2.967   5.065
  224POPC   C3B 3180   8.064   2.884   5.502
  224POPC   C4B 3181   7.878   2.760   5.894
  225POPC   NC3 3182   7.461   0.910   3.894
  225POPC   PO4 3183   7.582   1.614   3.922
  225POPC   GL1 3184   7.564   1.365   4.332
  225POPC   GL2 3185   7.441   1.012   4.399
  225POPC   C1A 3186   7.534   1.302   4.801
  225POPC   D2A 3187   7.578   1.310   5.245
  225POPC   C3A 3188   7.568   1.078   5.611
  225POPC   C4A 3189   7.621   1.452   5.807
  225POPC   C1B 3190   7.055   1.148   4.691
  225POPC   C2B 3191   6.925   1.362   5.088
  225POPC   C3B 3192   7.107   1.251   5.478
  225POPC   C4B 3193   7.069   0.967   5.841
  226POPC   NC3 3194  10.310   4.871   3.841
  226POPC   PO4 3195  10.824   5.406   3.958
  226POPC   GL1 3196  10.573   5.087   4.226
  226POPC   GL2 3197  10.171   5.021   4.306
  226POPC   C1A 3198  10.625   5.108   4.683
  226POPC   D2A 3199  10.475   5.226   5.091
  226POPC   C3A 3200  10.650   5.246   5.499
  226POPC   C4A 3201  10.412   5.167   5.878
  226POPC   C1B 3202  10.319   4.707   4.571
  226POPC   C2B 3203  10.322   4.750   5.019
  226POPC   C3B 3204  10.217   4.950   5.428
  226POPC   C4B 3205  10.035   4.782   5.763
  227POPC   NC3 3206   2.158   4.209   4.001
  227POPC   PO4 3207   1.489   4.089   3.855
  227POPC   GL1 3208   1.650   3.941   4.298
  227POPC   GL2 3209   1.894   4.126   4.403
  227POPC   C1A 3210   1.581   4.113   4.790
  227POPC   D2A 3211   1.759   4.401   5.188
  227POPC   C3A 3212   1.773   4.153   5.596
  227POPC   C4A 3213   1.848   4.052   6.048
  227POPC   C1B 3214   2.096   4.260   4.759
  227POPC   C2B 3215   2.273   4.254   5.154
  227POPC   C3B 3216   2.277   4.082   5.525
  227POPC   C4B 3217   2.331   4.245   5.947
  228POPC   NC3 3218  11.040   4.246   3.909
  228POPC   PO4 3219  11.486   4.719   3.879
  228POPC   GL1 3220   0.017   4.525   4.271
  228POPC   GL2 3221  11.161   4.542   4.339
  228POPC   C1A 3222   0.200   4.396   4.671
  228POPC   D2A 3223   0.095   4.509   5.078
  228POPC   C3A 3224  11.399   4.318   5.414
  228POPC   C4A 3225  11.210   4.528   5.790
  228POPC   C1B 3226  11.269   4.129   4.550
  228POPC   C2B 3227  11.384   3.981   4.966
  228POPC   C3B 3228  11.295   3.816   5.382
  228POPC   C4B 3229  11.145   4.024   5.749
  229POPC   NC3 3230   3.463   5.755   4.018
  229POPC   PO4 3231   3.882   5.523   4.280
  229POPC   GL1 3232   3.616   5.790   4.554
  229POPC   GL2 3233   3.364   6.027   4.439
  229POPC   C1A 3234   3.509   5.892   5.011
  229POPC   D2A 3235   3.594   5.735   5.469
  229POPC   C3A 3236   3.736   6.042   5.788
  229POPC   C4A 3237   3.799   6.215   6.205
  229POPC   C1B 3238   3.126   5.704   4.692
  229POPC   C2B 3239   3.103   5.607   5.149
  229POPC   C3B 3240   3.126   5.591   5.593
  229POPC   C4B 3241   3.222   5.905   5.893
  230POPC   NC3 3242   9.103   2.900   3.851
  230POPC   PO4 3243   8.510   3.147   3.993
  230POPC   GL1 3244   8.797   2.891   4.264
  230POPC   GL2 3245   8.897   2.516   4.147
  230POPC   C1A 3246   8.985   3.035   4.651
  230POPC   D2A 3247   8.954   3.312   5.003
  230POPC   C3A 3248   8.935   3.090   5.384
  230POPC   C4A 3249   8.723   2.963   5.755
  230POPC   C1B 3250   8.973   2.516   4.603
  230POPC   C2B 3251   8.965   2.678   5.037
  230POPC   C3B 3252   9.040   2.597   5.479
  230POPC   C4B 3253   8.935   2.535   5.925
  231POPC   NC3 3254   9.985   3.136   4.101
  231POPC   PO4 3255  10.230   2.470   3.962
  231POPC   GL1 3256  10.405   2.596   4.326
  231POPC   GL2 3257  10.754   2.558   4.278
  231POPC   C1A 3258  10.307   2.834   4.691
  231POPC   D2A 3259  10.374   2.723   5.124
  231POPC   C3A 3260  10.414   2.984   5.493
  231POPC   C4A 3261  10.256   2.781   5.859
  231POPC   C1B 3262  10.740   2.562   4.743
  231POPC   C2B 3263  10.768   2.413   5.164
  231POPC   C3B 3264  10.732   2.597   5.607
  231POPC   C4B 3265  10.738   2.813   6.020
  232POPC   NC3 3266   1.794   7.476   3.926
  232POPC   PO4 3267   2.439   7.701   3.943
  232POPC   GL1 3268   2.145   7.560   4.269
  232POPC   GL2 3269   2.073   7.183   4.225
  232POPC   C1A 3270   2.117   7.382   4.675
  232POPC   D2A 3271   1.850   7.399   4.981
  232POPC   C3A 3272   2.087   7.546   5.320
  232POPC   C4A 3273   2.195   7.762   5.713
  232POPC   C1B 3274   1.700   7.107   4.545
  232POPC   C2B 3275   1.648   6.927   4.985
  232POPC   C3B 3276   1.880   7.067   5.371
  232POPC   C4B 3277   2.107   7.245   5.753
  233POPC   NC3 3278   0.424   8.786   4.004
  233POPC   PO4 3279   0.061   8.332   4.336
  233POPC   GL1 3280   0.287   8.710   4.533
  233POPC   GL2 3281   0.598   8.904   4.450
  233POPC   C1A 3282   0.226   9.081   4.787
  233POPC   D2A 3283   0.055   9.194   5.184
  233POPC   C3A 3284   0.207   8.877   5.445
  233POPC   C4A 3285   0.213   8.651   5.842
  233POPC   C1B 3286   0.774   9.043   4.833
  233POPC   C2B 3287   0.581   9.171   5.228
  233POPC   C3B 3288   0.544   9.172   5.686
  233POPC   C4B 3289   0.708   8.828   5.915
  234POPC   NC3 3290   3.511   9.034   3.885
  234POPC   PO4 3291   3.265   8.482   4.057
  234POPC   GL1 3292   3.425   8.753   4.400
  234POPC   GL2 3293   3.437   9.127   4.405
  234POPC   C1A 3294   3.458   8.617   4.847
  234POPC   D2A 3295   3.734   8.637   5.207
  234POPC   C3A 3296   3.532   8.571   5.608
  234POPC   C4A 3297   3.449   8.429   6.037
  234POPC   C1B 3298   3.215   9.057   4.817
  234POPC   C2B 3299   3.311   8.944   5.262
  234POPC   C3B 3300   3.548   9.078   5.652
  234POPC   C4B 3301   3.371   9.042   6.070
  235POPC   NC3 3302   2.774   2.772   3.819
  235POPC   PO4 3303   3.216   2.197   3.880
  235POPC   GL1 3304   2.844   2.417   4.170
  235POPC   GL2 3305   2.893   2.787   4.354
  235POPC   C1A 3306   2.593   2.487   4.584
  235POPC   D2A 3307   2.819   2.607   4.991
  235POPC   C3A 3308   2.643   2.641   5.413
  235POPC   C4A 3309   2.832   2.722   5.804
  235POPC   C1B 3310   2.913   3.044   4.767
  235POPC   C2B 3311   2.594   3.100   5.159
  235POPC   C3B 3312   2.490   3.071   5.639
  235POPC   C4B 3313   2.542   2.967   6.124
  236POPC   NC3 3314   1.854   0.352   3.879
  236POPC   PO4 3315   1.695  11.254   4.118
  236POPC   GL1 3316   1.627   0.173   4.335
  236POPC   GL2 3317   1.681   0.559   4.327
  236POPC   C1A 3318   1.752   0.252   4.757
  236POPC   D2A 3319   2.116   0.081   4.959
  236POPC   C3A 3320   1.987  11.488   5.351
  236POPC   C4A 3321   2.156   0.145   5.709
  236POPC   C1B 3322   2.114   0.523   4.528
  236POPC   C2B 3323   2.163   0.600   4.981
  236POPC   C3B 3324   2.059   0.540   5.397
  236POPC   C4B 3325   2.388   0.628   5.703
  237POPC   NC3 3326   1.981   2.715   3.879
  237POPC   PO4 3327   2.424   3.090   3.793
  237POPC   GL1 3328   2.415   2.858   4.203
  237POPC   GL2 3329   2.087   2.779   4.373
  237POPC   C1A 3330   2.423   2.967   4.677
  237POPC   D2A 3331   2.318   2.652   5.001
  237POPC   C3A 3332   2.128   2.757   5.386
  237POPC   C4A 3333   2.172   2.751   5.843
  237POPC   C1B 3334   1.866   2.720   4.771
  237POPC   C2B 3335   1.523   2.533   4.999
  237POPC   C3B 3336   1.414   2.589   5.409
  237POPC   C4B 3337   1.706   2.721   5.677
  238POPC   NC3 3338   0.264   0.141   4.067
  238POPC   PO4 3339   0.428   0.762   3.846
  238POPC   GL1 3340   0.632   0.703   4.276
  238POPC   GL2 3341   0.644   0.369   4.315
  238POPC   C1A 3342   0.608   0.591   4.744
  238POPC   D2A 3343   0.453   0.461   5.132
  238POPC   C3A 3344   0.635   0.640   5.469
  238POPC   C4A 3345   0.392   0.765   5.733
  238POPC   C1B 3346   0.528   0.083   4.678
  238POPC   C2B 3347   0.383  11.459   5.074
  238POPC   C3B 3348   0.348   0.042   5.518
  238POPC   C4B 3349   0.496   0.282   5.847
  239POPC   NC3 3350   1.927   9.579   3.872
  239POPC   PO4 3351   2.570   9.487   4.109
  239POPC   GL1 3352   2.167   9.671   4.325
  239POPC   GL2 3353   1.778   9.603   4.333
  239POPC   C1A 3354   2.019   9.653   4.757
  239POPC   D2A 3355   2.195   9.547   5.116
  239POPC   C3A 3356   2.244   9.913   5.355
  239POPC   C4A 3357   2.045   9.674   5.676
  239POPC   C1B 3358   1.637   9.328   4.637
  239POPC   C2B 3359   1.500   9.449   5.023
  239POPC   C3B 3360   1.663   9.483   5.398
  239POPC   C4B 3361   1.527   9.504   5.788
  240POPC   NC3 3362   0.352   1.903   4.195
  240POPC   PO4 3363  11.486   2.341   3.840
  240POPC   GL1 3364   0.202   2.369   4.324
  240POPC   GL2 3365   0.544   2.223   4.531
  240POPC   C1A 3366   0.180   2.404   4.803
  240POPC   D2A 3367   0.317   2.361   5.233
  240POPC   C3A 3368   0.271   1.964   5.456
  240POPC   C4A 3369   0.092   1.875   5.876
  240POPC   C1B 3370   0.343   1.913   4.869
  240POPC   C2B 3371   0.520   1.616   5.192
  240POPC   C3B 3372   0.745   1.800   5.577
  240POPC   C4B 3373   0.640   2.242   5.716
  241POPC   NC3 3374   9.127   7.449   3.944
  241POPC   PO4 3375   8.647   7.801   4.067
  241POPC   GL1 3376   8.858   7.542   4.377
  241POPC   GL2 3377   9.021   7.201   4.416
  241POPC   C1A 3378   8.897   7.622   4.780
  241POPC   D2A 3379   8.791   7.519   5.194
  241POPC   C3A 3380   9.069   7.375   5.504
  241POPC   C4A 3381   8.876   7.325   5.934
  241POPC   C1B 3382   8.953   7.112   4.889
  241POPC   C2B 3383   8.906   6.911   5.335
  241POPC   C3B 3384   8.883   6.823   5.803
  241POPC   C4B 3385   9.075   6.891   6.254
  242POPC   NC3 3386   2.894  10.862   3.925
  242POPC   PO4 3387   2.392  11.397   3.853
  242POPC   GL1 3388   2.543  11.152   4.203
  242POPC   GL2 3389   2.896  11.198   4.307
  242POPC   C1A 3390   2.529  11.313   4.631
  242POPC   D2A 3391   2.751  11.409   5.027
  242POPC   C3A 3392   2.510  11.328   5.407
  242POPC   C4A 3393   2.716  11.087   5.676
  242POPC   C1B 3394   2.907  10.915   4.622
  242POPC   C2B 3395   2.966  10.932   5.059
  242POPC   C3B 3396   3.161  10.858   5.446
  242POPC   C4B 3397   3.051  10.752   5.820
  243POPC   NC3 3398   6.455   2.067   3.928
  243POPC   PO4 3399   6.477   1.364   3.846
  243POPC   GL1 3400   6.470   1.621   4.208
  243POPC   GL2 3401   6.781   1.812   4.300
  243POPC   C1A 3402   6.335   1.677   4.627
  243POPC   D2A 3403   6.273   1.595   5.063
  243POPC   C3A 3404   6.588   1.750   5.355
  243POPC   C4A 3405   6.499   1.881   5.775
  243POPC   C1B 3406   6.997   1.946   4.706
  243POPC   C2B 3407   6.992   2.046   5.181
  243POPC   C3B 3408   6.763   2.241   5.516
  243POPC   C4B 3409   6.554   2.408   5.878
  244POPC   NC3 3410   9.503   1.384   3.767
  244POPC   PO4 3411   9.518   0.710   3.881
  244POPC   GL1 3412   9.685   0.927   4.258
  244POPC   GL2 3413   9.394   1.108   4.408
  244POPC   C1A 3414   9.791   1.048   4.700
  244POPC   D2A 3415   9.633   0.801   5.009
  244POPC   C3A 3416   9.757   0.903   5.387
  244POPC   C4A 3417   9.788   0.982   5.782
  244POPC   C1B 3418   9.399   1.380   4.795
  244POPC   C2B 3419   9.555   1.331   5.186
  244POPC   C3B 3420   9.423   1.251   5.576
  244POPC   C4B 3421   9.509   1.393   6.002
  245POPC   NC3 3422   8.068   8.702   3.818
  245POPC   PO4 3423   8.203   9.251   3.762
  245POPC   GL1 3424   8.169   8.994   4.219
  245POPC   GL2 3425   7.913   9.151   4.386
  245POPC   C1A 3426   8.266   9.032   4.714
  245POPC   D2A 3427   7.983   9.011   5.042
  245POPC   C3A 3428   8.270   8.996   5.406
  245POPC   C4A 3429   8.194   9.137   5.830
  245POPC   C1B 3430   7.880   8.704   4.615
  245POPC   C2B 3431   7.760   8.532   5.042
  245POPC   C3B 3432   7.912   8.435   5.458
  245POPC   C4B 3433   8.224   8.619   5.736
  246POPC   NC3 3434   7.572   8.099   4.038
  246POPC   PO4 3435   7.130   7.671   3.897
  246POPC   GL1 3436   7.190   7.915   4.343
  246POPC   GL2 3437   7.244   8.307   4.357
  246POPC   C1A 3438   7.201   8.067   4.813
  246POPC   D2A 3439   7.510   8.095   5.177
  246POPC   C3A 3440   7.360   7.963   5.600
  246POPC   C4A 3441   7.276   7.930   6.072
  246POPC   C1B 3442   7.355   8.566   4.707
  246POPC   C2B 3443   7.213   8.506   5.111
  246POPC   C3B 3444   7.395   8.500   5.509
  246POPC   C4B 3445   7.124   8.356   5.832
  247POPC   NC3 3446   4.329   2.348   3.929
  247POPC   PO4 3447   4.142   1.715   3.734
  247POPC   GL1 3448   4.122   1.930   4.143
  247POPC   GL2 3449   4.431   1.979   4.355
  247POPC   C1A 3450   3.957   1.909   4.569
  247POPC   D2A 3451   4.024   2.134   4.968
  247POPC   C3A 3452   4.052   1.902   5.352
  247POPC   C4A 3453   4.067   1.654   5.742
  247POPC   C1B 3454   4.390   1.792   4.808
  247POPC   C2B 3455   4.449   1.593   5.222
  247POPC   C3B 3456   4.562   1.791   5.589
  247POPC   C4B 3457   4.338   2.198   5.659
  248POPC   NC3 3458  10.861   0.352   4.247
  248POPC   PO4 3459  10.444   0.683   3.777
  248POPC   GL1 3460  10.447   0.637   4.222
  248POPC   GL2 3461  10.278   0.326   4.291
  248POPC   C1A 3462  10.526   0.611   4.709
  248POPC   D2A 3463  10.432   0.329   5.054
  248POPC   C3A 3464  10.664   0.511   5.370
  248POPC   C4A 3465  10.589   0.451   5.770
  248POPC   C1B 3466  10.058   0.647   4.562
  248POPC   C2B 3467  10.141   0.760   5.020
  248POPC   C3B 3468  10.186   0.648   5.455
  248POPC   C4B 3469  10.225   0.781   5.899
  249POPC   NC3 3470   9.148   0.443   3.811
  249POPC   PO4 3471   8.762  11.372   3.767
  249POPC   GL1 3472   9.055  11.459   4.138
  249POPC   GL2 3473   8.896   0.245   4.278
  249POPC   C1A 3474   9.186   0.034   4.646
  249POPC   D2A 3475   8.992   0.051   5.127
  249POPC   C3A 3476   9.238   0.163   5.515
  249POPC   C4A 3477   9.188   0.272   5.959
  249POPC   C1B 3478   8.790   0.352   4.726
  249POPC   C2B 3479   8.807   0.557   5.140
  249POPC   C3B 3480   8.780   0.379   5.531
  249POPC   C4B 3481   8.831   0.659   5.818
  250POPC   NC3 3482   7.842   2.004   3.957
  250POPC   PO4 3483   8.440   1.661   3.827
  250POPC   GL1 3484   8.212   1.705   4.239
  250POPC   GL2 3485   8.193   2.032   4.342
  250POPC   C1A 3486   7.997   1.727   4.682
  250POPC   D2A 3487   8.110   1.905   5.113
  250POPC   C3A 3488   7.846   1.792   5.442
  250POPC   C4A 3489   7.746   1.950   5.842
  250POPC   C1B 3490   8.143   2.244   4.738
  250POPC   C2B 3491   8.096   2.459   5.135
  250POPC   C3B 3492   7.961   2.337   5.543
  250POPC   C4B 3493   8.245   2.042   5.716
  251POPC   NC3 3494   2.923   8.359   3.795
  251POPC   PO4 3495   2.298   8.536   3.960
  251POPC   GL1 3496   2.365   8.379   4.422
  251POPC   GL2 3497   2.341   8.001   4.455
  251POPC   C1A 3498   2.510   8.335   4.899
  251POPC   D2A 3499   2.862   8.196   5.226
  251POPC   C3A 3500   3.084   8.230   5.663
  251POPC   C4A 3501   2.899   8.319   6.090
  251POPC   C1B 3502   2.354   7.810   4.877
  251POPC   C2B 3503   2.381   7.991   5.291
  251POPC   C3B 3504   2.590   8.078   5.702
  251POPC   C4B 3505   2.469   7.945   6.124
  252POPC   NC3 3506   6.542   3.621   4.032
  252POPC   PO4 3507   6.929   3.455   4.224
  252POPC   GL1 3508   6.633   3.593   4.538
  252POPC   GL2 3509   6.342   3.393   4.485
  252POPC   C1A 3510   6.456   3.598   4.971
  252POPC   D2A 3511   6.304   3.870   5.305
  252POPC   C3A 3512   6.600   3.867   5.637
  252POPC   C4A 3513   6.853   3.507   5.826
  252POPC   C1B 3514   6.632   3.134   4.764
  252POPC   C2B 3515   6.758   3.205   5.197
  252POPC   C3B 3516   6.473   3.396   5.482
  252POPC   C4B 3517   6.166   3.588   5.751
  253POPC   NC3 3518   8.163   9.672   3.974
  253POPC   PO4 3519   7.652  10.053   4.037
  253POPC   GL1 3520   7.911   9.873   4.367
  253POPC   GL2 3521   8.284   9.850   4.444
  253POPC   C1A 3522   7.948  10.045   4.781
  253POPC   D2A 3523   7.912   9.801   5.148
  253POPC   C3A 3524   7.684   9.811   5.527
  253POPC   C4A 3525   7.661   9.906   5.964
  253POPC   C1B 3526   8.158   9.566   4.766
  253POPC   C2B 3527   8.255   9.423   5.127
  253POPC   C3B 3528   7.986   9.412   5.474
  253POPC   C4B 3529   8.108   9.673   5.815
  254POPC   NC3 3530   9.444   9.850   3.794
  254POPC   PO4 3531   9.138   9.314   4.039
  254POPC   GL1 3532   9.293   9.660   4.269
  254POPC   GL2 3533   9.685   9.707   4.304
  254POPC   C1A 3534   9.212   9.671   4.699
  254POPC   D2A 3535   9.236   9.395   5.075
  254POPC   C3A 3536   9.222   9.553   5.500
  254POPC   C4A 3537   9.417   9.557   5.904
  254POPC   C1B 3538   9.916   9.657   4.748
  254POPC   C2B 3539   9.889   9.639   5.226
  254POPC   C3B 3540  10.002   9.473   5.640
  254POPC   C4B 3541   9.986   9.428   6.111
  255POPC   NC3 3542   5.226   0.966   3.997
  255POPC   PO4 3543   5.129   1.574   3.649
  255POPC   GL1 3544   5.038   1.404   4.150
  255POPC   GL2 3545   4.788   1.111   4.249
  255POPC   C1A 3546   5.108   1.267   4.606
  255POPC   D2A 3547   5.226   1.398   5.020
  255POPC   C3A 3548   4.905   1.369   5.338
  255POPC   C4A 3549   4.907   1.381   5.779
  255POPC   C1B 3550   4.771   0.851   4.627
  255POPC   C2B 3551   4.975   0.941   5.029
  255POPC   C3B 3552   5.060   0.899   5.459
  255POPC   C4B 3553   5.161   0.965   5.878
  256POPC   NC3 3554   0.159   8.054   3.964
  256POPC   PO4 3555   0.818   7.806   4.005
  256POPC   GL1 3556   0.550   8.015   4.316
  256POPC   GL2 3557   0.591   8.372   4.262
  256POPC   C1A 3558   0.430   8.045   4.764
  256POPC   D2A 3559   0.174   7.903   5.112
  256POPC   C3A 3560   0.384   8.060   5.481
  256POPC   C4A 3561   0.462   7.837   5.856
  256POPC   C1B 3562   0.709   8.474   4.686
  256POPC   C2B 3563   0.499   8.645   5.052
  256POPC   C3B 3564   0.625   8.576   5.478
  256POPC   C4B 3565   0.610   8.325   5.871
  257POPC   NC3 3566  10.179   7.323   4.234
  257POPC   PO4 3567   9.593   7.508   3.924
  257POPC   GL1 3568   9.705   7.516   4.358
  257POPC   GL2 3569   9.382   7.560   4.381
  257POPC   C1A 3570   9.901   7.439   4.811
  257POPC   D2A 3571  10.099   7.426   5.233
  257POPC   C3A 3572   9.839   7.632   5.523
  257POPC   C4A 3573   9.651   7.515   5.937
  257POPC   C1B 3574   9.369   7.420   4.784
  257POPC   C2B 3575   9.509   7.431   5.191
  257POPC   C3B 3576   9.586   7.175   5.538
  257POPC   C4B 3577   9.315   7.099   5.858
  258POPC   NC3 3578   8.292  11.145   3.669
  258POPC   PO4 3579   8.786  10.931   4.117
  258POPC   GL1 3580   8.812  11.157   4.464
  258POPC   GL2 3581   9.125  11.062   4.474
  258POPC   C1A 3582   8.620  11.371   4.809
  258POPC   D2A 3583   8.607  11.182   5.225
  258POPC   C3A 3584   8.575  11.403   5.602
  258POPC   C4A 3585   8.826  11.448   5.965
  258POPC   C1B 3586   9.033  11.093   4.904
  258POPC   C2B 3587   9.132  10.926   5.240
  258POPC   C3B 3588   9.061  11.185   5.562
  258POPC   C4B 3589   9.330  11.279   5.911
  259POPC   NC3 3590   1.723   6.634   3.763
  259POPC   PO4 3591   2.221   6.265   3.763
  259POPC   GL1 3592   1.925   6.373   4.156
  259POPC   GL2 3593   1.879   6.711   4.248
  259POPC   C1A 3594   1.821   6.317   4.642
  259POPC   D2A 3595   1.702   6.199   5.096
  259POPC   C3A 3596   1.909   6.317   5.516
  259POPC   C4A 3597   2.271   6.387   5.834
  259POPC   C1B 3598   2.053   6.775   4.683
  259POPC   C2B 3599   2.093   6.613   5.106
  259POPC   C3B 3600   2.251   6.765   5.507
  259POPC   C4B 3601   1.901   6.768   5.802
  260POPC   NC3 3602  11.190   5.697   3.941
  260POPC   PO4 3603  10.761   6.210   3.988
  260POPC   GL1 3604  10.902   5.917   4.308
  260POPC   GL2 3605  11.280   5.916   4.378
  260POPC   C1A 3606  10.959   5.723   4.727
  260POPC   D2A 3607  10.726   5.657   5.111
  260POPC   C3A 3608  10.924   5.745   5.486
  260POPC   C4A 3609  10.800   5.575   5.863
  260POPC   C1B 3610  11.468   5.937   4.779
  260POPC   C2B 3611  11.363   5.933   5.208
  260POPC   C3B 3612  11.419   5.735   5.603
  260POPC   C4B 3613  11.170   5.904   5.955
  261POPC   NC3 3614   5.118   9.262   4.008
  261POPC   PO4 3615   5.223  10.023   3.835
  261POPC   GL1 3616   5.127   9.820   4.203
  261POPC   GL2 3617   5.254   9.530   4.409
  261POPC   C1A 3618   4.982   9.910   4.617
  261POPC   D2A 3619   4.971   9.747   5.019
  261POPC   C3A 3620   4.929   9.924   5.398
  261POPC   C4A 3621   4.997   9.729   5.799
  261POPC   C1B 3622   4.935   9.346   4.712
  261POPC   C2B 3623   4.740   9.304   5.150
  261POPC   C3B 3624   4.711   9.288   5.620
  261POPC   C4B 3625   4.682   9.396   6.072
  262POPC   NC3 3626  10.880   6.669   3.949
  262POPC   PO4 3627  11.349   7.019   3.991
  262POPC   GL1 3628  11.210   6.784   4.329
  262POPC   GL2 3629  11.195   6.422   4.268
  262POPC   C1A 3630  11.320   6.724   4.728
  262POPC   D2A 3631  11.161   6.566   5.079
  262POPC   C3A 3632  11.202   6.770   5.450
  262POPC   C4A 3633  11.319   7.012   5.787
  262POPC   C1B 3634  11.046   6.267   4.660
  262POPC   C2B 3635  10.911   6.126   5.050
  262POPC   C3B 3636  11.044   6.243   5.463
  262POPC   C4B 3637  11.172   6.400   5.840
  263POPC   NC3 3638  11.106   7.453   3.883
  263POPC   PO4 3639  10.539   6.986   3.786
  263POPC   GL1 3640  10.857   7.130   4.183
  263POPC   GL2 3641  11.046   7.439   4.368
  263POPC   C1A 3642  10.935   7.068   4.689
  263POPC   D2A 3643  10.836   6.993   5.143
  263POPC   C3A 3644  10.884   7.180   5.540
  263POPC   C4A 3645  10.855   7.035   5.977
  263POPC   C1B 3646  11.396   7.257   4.630
  263POPC   C2B 3647  11.336   7.129   5.075
  263POPC   C3B 3648  11.348   7.392   5.457
  263POPC   C4B 3649  11.119   7.504   5.867
  264POPC   NC3 3650   5.284  10.555   3.796
  264POPC   PO4 3651   5.903  10.534   4.005
  264POPC   GL1 3652   5.883  10.528   4.408
  264POPC   GL2 3653   6.010  10.200   4.369
  264POPC   C1A 3654   5.735  10.693   4.824
  264POPC   D2A 3655   5.565  10.810   5.251
  264POPC   C3A 3656   5.648  10.561   5.620
  264POPC   C4A 3657   5.747  10.641   6.051
  264POPC   C1B 3658   5.848  10.157   4.774
  264POPC   C2B 3659   5.689  10.288   5.147
  264POPC   C3B 3660   5.813  10.090   5.499
  264POPC   C4B 3661   5.818  10.151   5.901
  265POPC   NC3 3662   0.136   3.445   3.981
  265POPC   PO4 3663  11.112   3.796   3.912
  265POPC   GL1 3664  11.212   3.503   4.232
  265POPC   GL2 3665  10.951   3.336   4.354
  265POPC   C1A 3666  11.420   3.333   4.606
  265POPC   D2A 3667  11.224   3.227   5.017
  265POPC   C3A 3668  11.393   3.301   5.453
  265POPC   C4A 3669  11.450   3.168   5.892
  265POPC   C1B 3670  11.060   3.668   4.686
  265POPC   C2B 3671  10.907   3.643   5.089
  265POPC   C3B 3672  10.878   3.541   5.501
  265POPC   C4B 3673  11.122   3.546   5.863
  266POPC   NC3 3674   1.247  11.309   3.978
  266POPC   PO4 3675   1.286  10.691   3.786
  266POPC   GL1 3676   1.324  10.874   4.275
  266POPC   GL2 3677   1.098  11.166   4.417
  266POPC   C1A 3678   1.272  10.853   4.778
  266POPC   D2A 3679   1.015  10.822   5.176
  266POPC   C3A 3680   1.119  10.919   5.633
  266POPC   C4A 3681   1.494  10.867   5.921
  266POPC   C1B 3682   1.396  11.365   4.703
  266POPC   C2B 3683   1.399   0.066   5.104
  266POPC   C3B 3684   1.237  11.422   5.491
  266POPC   C4B 3685   1.286  11.490   5.918
  267POPC   NC3 3686   1.556   5.032   3.773
  267POPC   PO4 3687   0.958   5.389   3.756
  267POPC   GL1 3688   1.106   5.360   4.186
  267POPC   GL2 3689   1.254   5.038   4.196
  267POPC   C1A 3690   1.298   5.382   4.616
  267POPC   D2A 3691   1.138   5.372   5.055
  267POPC   C3A 3692   1.347   5.417   5.442
  267POPC   C4A 3693   1.464   5.150   5.788
  267POPC   C1B 3694   1.196   4.837   4.613
  267POPC   C2B 3695   0.984   4.884   5.011
  267POPC   C3B 3696   1.168   4.884   5.421
  267POPC   C4B 3697   0.995   4.892   5.850
  268POPC   NC3 3698   1.161   6.783   4.047
  268POPC   PO4 3699   1.497   6.228   3.838
  268POPC   GL1 3700   1.422   6.273   4.300
  268POPC   GL2 3701   1.426   6.613   4.452
  268POPC   C1A 3702   1.176   6.238   4.726
  268POPC   D2A 3703   1.230   6.409   5.161
  268POPC   C3A 3704   1.003   6.323   5.546
  268POPC   C4A 3705   1.412   6.510   5.717
  268POPC   C1B 3706   1.145   6.762   4.780
  268POPC   C2B 3707   1.153   6.950   5.179
  268POPC   C3B 3708   1.028   6.826   5.570
  268POPC   C4B 3709   1.038   6.999   5.946
  269POPC   NC3 3710   0.605   5.314   4.069
  269POPC   PO4 3711   0.761   4.606   3.941
  269POPC   GL1 3712   0.472   4.803   4.239
  269POPC   GL2 3713   0.776   4.933   4.353
  269POPC   C1A 3714   0.402   4.963   4.703
  269POPC   D2A 3715   0.498   4.790   5.152
  269POPC   C3A 3716   0.451   4.982   5.564
  269POPC   C4A 3717   0.448   4.883   6.025
  269POPC   C1B 3718   0.815   5.246   4.674
  269POPC   C2B 3719   0.636   5.270   5.086
  269POPC   C3B 3720   0.851   5.281   5.479
  269POPC   C4B 3721   0.700   5.303   5.885
  270POPC   NC3 3722   6.454   0.879   3.779
  270POPC   PO4 3723   7.027   0.943   4.081
  270POPC   GL1 3724   6.641   0.803   4.282
  270POPC   GL2 3725   6.381   1.077   4.272
  270POPC   C1A 3726   6.627   0.693   4.721
  270POPC   D2A 3727   6.857   0.849   5.075
  270POPC   C3A 3728   6.702   0.858   5.497
  270POPC   C4A 3729   6.434   0.923   5.849
  270POPC   C1B 3730   6.503   1.193   4.705
  270POPC   C2B 3731   6.445   1.138   5.145
  270POPC   C3B 3732   6.357   1.330   5.521
  270POPC   C4B 3733   6.707   1.385   5.740
  271POPC   NC3 3734  10.261   7.374   3.671
  271POPC   PO4 3735  10.554   7.592   4.189
  271POPC   GL1 3736  10.564   7.363   4.540
  271POPC   GL2 3737  10.477   7.003   4.480
  271POPC   C1A 3738  10.487   7.303   4.918
  271POPC   D2A 3739  10.656   7.531   5.206
  271POPC   C3A 3740  10.501   7.533   5.581
  271POPC   C4A 3741  10.677   7.849   5.794
  271POPC   C1B 3742  10.223   6.876   4.801
  271POPC   C2B 3743  10.329   6.921   5.224
  271POPC   C3B 3744  10.395   7.042   5.594
  271POPC   C4B 3745  10.054   7.242   5.755
  272POPC   NC3 3746   9.528   7.975   3.990
  272POPC   PO4 3747  10.092   7.819   3.669
  272POPC   GL1 3748  10.025   7.857   4.135
  272POPC   GL2 3749   9.962   8.231   4.216
  272POPC   C1A 3750   9.879   7.919   4.606
  272POPC   D2A 3751   9.683   7.891   5.028
  272POPC   C3A 3752   9.770   8.140   5.427
  272POPC   C4A 3753   9.811   7.995   5.865
  272POPC   C1B 3754   9.595   8.357   4.531
  272POPC   C2B 3755   9.350   8.356   4.942
  272POPC   C3B 3756   9.281   8.298   5.378
  272POPC   C4B 3757   9.399   8.269   5.798
  273POPC   NC3 3758   0.956   9.340   3.856
  273POPC   PO4 3759   1.599   9.239   3.998
  273POPC   GL1 3760   1.279   9.468   4.254
  273POPC   GL2 3761   1.299   9.844   4.296
  273POPC   C1A 3762   1.122   9.463   4.663
  273POPC   D2A 3763   0.928   9.510   5.054
  273POPC   C3A 3764   1.134   9.499   5.439
  273POPC   C4A 3765   0.871   9.551   5.798
  273POPC   C1B 3766   1.500   9.841   4.684
  273POPC   C2B 3767   1.258   9.898   5.031
  273POPC   C3B 3768   1.310  10.009   5.431
  273POPC   C4B 3769   1.197   9.925   5.841
  274POPC   NC3 3770   0.575   6.122   3.798
  274POPC   PO4 3771   0.697   6.814   3.960
  274POPC   GL1 3772   0.444   6.483   4.156
  274POPC   GL2 3773   0.665   6.233   4.304
  274POPC   C1A 3774   0.177   6.379   4.531
  274POPC   D2A 3775   0.244   6.534   4.968
  274POPC   C3A 3776   0.062   6.394   5.364
  274POPC   C4A 3777   0.118   6.619   5.736
  274POPC   C1B 3778   0.699   6.504   4.655
  274POPC   C2B 3779   0.731   6.410   5.093
  274POPC   C3B 3780   0.560   6.606   5.457
  274POPC   C4B 3781   0.544   6.915   5.786
  275POPC   NC3 3782   4.725  10.053   3.922
  275POPC   PO4 3783   4.887  10.736   3.949
  275POPC   GL1 3784   5.052  10.383   4.217
  275POPC   GL2 3785   5.446  10.310   4.199
  275POPC   C1A 3786   4.843  10.397   4.616
  275POPC   D2A 3787   4.642  10.167   4.936
  275POPC   C3A 3788   4.719  10.386   5.310
  275POPC   C4A 3789   4.792  10.670   5.643
  275POPC   C1B 3790   5.373  10.291   4.633
  275POPC   C2B 3791   5.153  10.264   5.016
  275POPC   C3B 3792   5.214  10.373   5.431
  275POPC   C4B 3793   5.342  10.116   5.743
  276POPC   NC3 3794   4.608   2.881   3.951
  276POPC   PO4 3795   4.016   3.077   3.966
  276POPC   GL1 3796   4.219   2.734   4.267
  276POPC   GL2 3797   4.094   2.399   4.377
  276POPC   C1A 3798   4.413   2.596   4.703
  276POPC   D2A 3799   4.240   2.572   5.144
  276POPC   C3A 3800   4.495   2.665   5.525
  276POPC   C4A 3801   4.844   2.668   5.820
  276POPC   C1B 3802   3.890   2.597   4.721
  276POPC   C2B 3803   3.688   2.497   5.113
  276POPC   C3B 3804   3.893   2.394   5.480
  276POPC   C4B 3805   4.089   2.604   5.827
  277POPC   NC3 3806   8.707   4.648   3.858
  277POPC   PO4 3807   8.749   4.033   3.864
  277POPC   GL1 3808   8.961   3.921   4.262
  277POPC   GL2 3809   9.089   4.221   4.439
  277POPC   C1A 3810   8.849   3.843   4.713
  277POPC   D2A 3811   8.692   3.718   5.145
  277POPC   C3A 3812   8.748   3.864   5.587
  277POPC   C4A 3813   8.536   4.148   5.854
  277POPC   C1B 3814   9.016   4.353   4.872
  277POPC   C2B 3815   8.960   4.208   5.296
  277POPC   C3B 3816   9.051   4.304   5.739
  277POPC   C4B 3817   8.849   4.421   6.139
  278POPC   NC3 3818   1.034   2.925   4.050
  278POPC   PO4 3819   1.251   3.495   3.786
  278POPC   GL1 3820   1.298   3.568   4.206
  278POPC   GL2 3821   1.054   3.368   4.318
  278POPC   C1A 3822   1.501   3.545   4.622
  278POPC   D2A 3823   1.633   3.525   5.057
  278POPC   C3A 3824   1.455   3.806   5.363
  278POPC   C4A 3825   1.557   3.606   5.745
  278POPC   C1B 3826   0.977   3.251   4.733
  278POPC   C2B 3827   1.139   3.416   5.103
  278POPC   C3B 3828   1.108   3.475   5.527
  278POPC   C4B 3829   0.882   3.211   5.822
  279POPC   NC3 3830   3.142   1.144   3.756
  279POPC   PO4 3831   2.775   1.421   4.160
  279POPC   GL1 3832   2.802   1.116   4.438
  279POPC   GL2 3833   2.495   0.897   4.385
  279POPC   C1A 3834   2.905   1.210   4.892
  279POPC   D2A 3835   3.232   1.325   5.213
  279POPC   C3A 3836   3.074   1.263   5.651
  279POPC   C4A 3837   2.977   1.036   6.049
  279POPC   C1B 3838   2.348   1.262   4.611
  279POPC   C2B 3839   2.359   1.186   5.002
  279POPC   C3B 3840   2.633   1.280   5.358
  279POPC   C4B 3841   2.578   1.194   5.783
  280POPC   NC3 3842   3.813  11.256   3.949
  280POPC   PO4 3843   3.105  11.324   3.851
  280POPC   GL1 3844   3.355  11.394   4.223
  280POPC   GL2 3845   3.524  11.096   4.337
  280POPC   C1A 3846   3.228  11.374   4.690
  280POPC   D2A 3847   3.297   0.045   5.122
  280POPC   C3A 3848   3.119  11.364   5.497
  280POPC   C4A 3849   3.342  11.237   5.866
  280POPC   C1B 3850   3.418  10.891   4.728
  280POPC   C2B 3851   3.473  11.073   5.105
  280POPC   C3B 3852   3.630  11.060   5.501
  280POPC   C4B 3853   3.550  10.770   5.833
  281POPC   NC3 3854   5.159   8.270   3.897
  281POPC   PO4 3855   4.825   8.713   3.912
  281POPC   GL1 3856   4.880   8.468   4.309
  281POPC   GL2 3857   5.156   8.217   4.392
  281POPC   C1A 3858   4.908   8.415   4.783
  281POPC   D2A 3859   4.957   8.126   5.127
  281POPC   C3A 3860   4.928   8.310   5.530
  281POPC   C4A 3861   4.619   8.350   5.881
  281POPC   C1B 3862   5.316   7.994   4.762
  281POPC   C2B 3863   5.238   7.700   5.094
  281POPC   C3B 3864   5.243   7.877   5.511
  281POPC   C4B 3865   5.465   8.206   5.746
  282POPC   NC3 3866   6.935   0.425   4.042
  282POPC   PO4 3867   6.257   0.388   3.856
  282POPC   GL1 3868   6.456   0.263   4.288
  282POPC   GL2 3869   6.106   0.227   4.455
  282POPC   C1A 3870   6.833   0.206   4.645
  282POPC   D2A 3871   6.991   0.362   5.050
  282POPC   C3A 3872   6.865   0.117   5.403
  282POPC   C4A 3873   6.718  11.374   5.751
  282POPC   C1B 3874   6.353   0.268   4.820
  282POPC   C2B 3875   6.515   0.444   5.175
  282POPC   C3B 3876   6.333   0.497   5.526
  282POPC   C4B 3877   6.556   0.341   5.776
  283POPC   NC3 3878   7.953  10.562   3.902
  283POPC   PO4 3879   8.465  10.042   3.913
  283POPC   GL1 3880   8.437  10.299   4.276
  283POPC   GL2 3881   8.110  10.323   4.308
  283POPC   C1A 3882   8.417  10.295   4.740
  283POPC   D2A 3883   8.412   9.933   5.059
  283POPC   C3A 3884   8.198  10.054   5.482
  283POPC   C4A 3885   8.086  10.205   5.930
  283POPC   C1B 3886   7.991  10.585   4.610
  283POPC   C2B 3887   7.983  10.728   5.027
  283POPC   C3B 3888   8.119  10.578   5.453
  283POPC   C4B 3889   7.921  10.689   5.858
  284POPC   NC3 3890   2.519   5.914   3.781
  284POPC   PO4 3891   3.201   5.954   3.687
  284POPC   GL1 3892   2.958   5.923   4.128
  284POPC   GL2 3893   2.610   5.842   4.273
  284POPC   C1A 3894   2.883   6.137   4.577
  284POPC   D2A 3895   2.707   6.161   5.030
  284POPC   C3A 3896   2.855   6.010   5.465
  284POPC   C4A 3897   2.732   6.081   5.911
  284POPC   C1B 3898   2.577   5.733   4.723
  284POPC   C2B 3899   2.604   5.676   5.176
  284POPC   C3B 3900   2.603   5.555   5.611
  284POPC   C4B 3901   2.422   5.707   6.031
  285POPC   NC3 3902   1.878   5.951   3.848
  285POPC   PO4 3903   2.339   5.535   3.973
  285POPC   GL1 3904   2.072   5.619   4.302
  285POPC   GL2 3905   1.995   5.920   4.355
  285POPC   C1A 3906   1.800   5.443   4.611
  285POPC   D2A 3907   1.643   5.470   5.023
  285POPC   C3A 3908   1.768   5.756   5.357
  285POPC   C4A 3909   1.633   5.651   5.794
  285POPC   C1B 3910   2.059   5.850   4.789
  285POPC   C2B 3911   2.209   6.040   5.147
  285POPC   C3B 3912   2.314   5.964   5.548
  285POPC   C4B 3913   2.019   5.944   5.864
  286POPC   NC3 3914   7.254   9.969   4.268
  286POPC   PO4 3915   7.254  10.512   3.890
  286POPC   GL1 3916   7.147  10.560   4.368
  286POPC   GL2 3917   7.156  10.254   4.647
  286POPC   C1A 3918   7.076  10.700   4.815
  286POPC   D2A 3919   7.209  10.404   5.189
  286POPC   C3A 3920   7.166  10.511   5.637
  286POPC   C4A 3921   7.109  10.677   6.112
  286POPC   C1B 3922   7.547  10.380   4.796
  286POPC   C2B 3923   7.745  10.298   5.187
  286POPC   C3B 3924   7.678  10.303   5.609
  286POPC   C4B 3925   7.511  10.398   5.985
  287POPC   NC3 3926   2.042   5.170   4.079
  287POPC   PO4 3927   2.325   4.633   3.915
  287POPC   GL1 3928   2.108   4.600   4.362
  287POPC   GL2 3929   2.142   4.911   4.522
  287POPC   C1A 3930   1.735   4.632   4.727
  287POPC   D2A 3931   1.518   4.950   5.015
  287POPC   C3A 3932   1.700   4.864   5.427
  287POPC   C4A 3933   1.980   4.594   5.731
  287POPC   C1B 3934   2.266   5.309   4.754
  287POPC   C2B 3935   2.147   5.498   5.156
  287POPC   C3B 3936   2.108   5.476   5.608
  287POPC   C4B 3937   1.999   5.102   5.775
  288POPC   NC3 3938   0.341   4.426   3.877
  288POPC   PO4 3939   0.425   3.825   3.970
  288POPC   GL1 3940   0.434   4.124   4.308
  288POPC   GL2 3941   0.715   4.315   4.330
  288POPC   C1A 3942   0.612   4.061   4.751
  288POPC   D2A 3943   0.373   4.019   5.118
  288POPC   C3A 3944   0.467   4.131   5.547
  288POPC   C4A 3945   0.285   4.514   5.689
  288POPC   C1B 3946   0.698   4.560   4.707
  288POPC   C2B 3947   0.789   4.386   5.123
  288POPC   C3B 3948   0.801   4.532   5.536
  288POPC   C4B 3949   0.713   4.474   5.973
  289POPC   NC3 3950   1.958   8.604   3.652
  289POPC   PO4 3951   2.196   9.188   3.743
  289POPC   GL1 3952   2.020   9.150   4.234
  289POPC   GL2 3953   2.013   8.777   4.324
  289POPC   C1A 3954   2.117   9.146   4.696
  289POPC   D2A 3955   1.877   9.101   5.106
  289POPC   C3A 3956   2.107   9.189   5.494
  289POPC   C4A 3957   2.234   8.880   5.770
  289POPC   C1B 3958   1.758   8.767   4.718
  289POPC   C2B 3959   1.593   8.583   5.084
  289POPC   C3B 3960   1.748   8.635   5.503
  289POPC   C4B 3961   1.650   9.027   5.672
  290POPC   NC3 3962   0.647   1.135   3.691
  290POPC   PO4 3963   0.145   1.506   3.972
  290POPC   GL1 3964   0.281   1.402   4.340
  290POPC   GL2 3965   0.565   1.199   4.227
  290POPC   C1A 3966   0.114   1.444   4.770
  290POPC   D2A 3967  11.447   1.649   5.138
  290POPC   C3A 3968   0.066   1.470   5.513
  290POPC   C4A 3969   0.407   1.480   5.797
  290POPC   C1B 3970   0.374   1.011   4.625
  290POPC   C2B 3971   0.316   0.973   5.075
  290POPC   C3B 3972   0.550   1.152   5.414
  290POPC   C4B 3973   0.749   1.105   5.791
  291POPC   NC3 3974   8.312   0.584   3.779
  291POPC   PO4 3975   8.080  11.484   3.939
  291POPC   GL1 3976   8.123   0.417   4.219
  291POPC   GL2 3977   7.877   0.673   4.392
  291POPC   C1A 3978   8.349   0.612   4.597
  291POPC   D2A 3979   8.322   0.467   5.054
  291POPC   C3A 3980   8.399   0.728   5.470
  291POPC   C4A 3981   8.307   0.677   5.946
  291POPC   C1B 3982   7.918   0.293   4.724
  291POPC   C2B 3983   7.934   0.142   5.208
  291POPC   C3B 3984   7.970   0.259   5.681
  291POPC   C4B 3985   7.832   0.161   6.151
  292POPC   NC3 3986   8.908   1.925   3.742
  292POPC   PO4 3987   9.234   1.510   4.137
  292POPC   GL1 3988   8.753   1.660   4.297
  292POPC   GL2 3989   8.665   2.011   4.171
  292POPC   C1A 3990   8.502   1.625   4.719
  292POPC   D2A 3991   8.621   1.827   5.136
  292POPC   C3A 3992   8.599   1.680   5.572
  292POPC   C4A 3993   8.623   1.672   6.019
  292POPC   C1B 3994   8.656   2.099   4.619
  292POPC   C2B 3995   8.582   2.320   5.017
  292POPC   C3B 3996   8.678   2.230   5.478
  292POPC   C4B 3997   9.098   2.095   5.653
  293POPC   NC3 3998   9.732  10.350   3.855
  293POPC   PO4 3999   9.146  10.137   4.002
  293POPC   GL1 4000   9.438  10.161   4.315
  293POPC   GL2 4001   9.681  10.406   4.357
  293POPC   C1A 4002   9.573  10.042   4.721
  293POPC   D2A 4003   9.457   9.870   5.098
  293POPC   C3A 4004   9.335  10.055   5.462
  293POPC   C4A 4005   9.713   9.909   5.667
  293POPC   C1B 4006   9.767  10.512   4.791
  293POPC   C2B 4007   9.514  10.472   5.167
  293POPC   C3B 4008   9.647  10.435   5.570
  293POPC   C4B 4009   9.960  10.691   5.700
  294POPC   NC3 4010   2.590   1.072   3.909
  294POPC   PO4 4011   1.956   0.799   3.923
  294POPC   GL1 4012   1.958   1.036   4.298
  294POPC   GL2 4013   1.977   1.400   4.287
  294POPC   C1A 4014   1.952   0.964   4.715
  294POPC   D2A 4015   1.869   1.044   5.123
  294POPC   C3A 4016   2.177   1.026   5.445
  294POPC   C4A 4017   2.116   1.041   5.876
  294POPC   C1B 4018   1.873   1.464   4.748
  294POPC   C2B 4019   2.096   1.588   5.144
  294POPC   C3B 4020   2.136   1.509   5.585
  294POPC   C4B 4021   1.786   1.412   5.848
  295POPC   NC3 4022   3.592   1.956   3.723
  295POPC   PO4 4023   3.897   2.506   3.905
  295POPC   GL1 4024   3.673   2.202   4.193
  295POPC   GL2 4025   3.488   1.899   4.229
  295POPC   C1A 4026   3.571   2.211   4.654
  295POPC   D2A 4027   3.569   1.887   4.982
  295POPC   C3A 4028   3.534   2.024   5.384
  295POPC   C4A 4029   3.724   2.012   5.771
  295POPC   C1B 4030   3.221   1.835   4.605
  295POPC   C2B 4031   3.046   1.816   5.014
  295POPC   C3B 4032   3.083   1.753   5.444
  295POPC   C4B 4033   3.215   1.971   5.794
  296POPC   NC3 4034   1.185   5.798   3.874
  296POPC   PO4 4035   1.748   5.457   3.856
  296POPC   GL1 4036   1.533   5.718   4.250
  296POPC   GL2 4037   1.167   5.836   4.374
  296POPC   C1A 4038   1.538   5.872   4.714
  296POPC   D2A 4039   1.288   5.867   5.128
  296POPC   C3A 4040   1.404   6.029   5.548
  296POPC   C4A 4041   1.332   6.068   6.009
  296POPC   C1B 4042   0.944   5.751   4.753
  296POPC   C2B 4043   0.767   5.754   5.154
  296POPC   C3B 4044   0.932   5.783   5.548
  296POPC   C4B 4045   1.129   5.601   5.900
  297POPC   NC3 4046   0.230   9.658   4.158
  297POPC   PO4 4047   0.810   9.812   3.777
  297POPC   GL1 4048   0.797   9.728   4.228
  297POPC   GL2 4049   0.716   9.392   4.338
  297POPC   C1A 4050   0.868   9.901   4.661
  297POPC   D2A 4051   0.633   9.980   5.026
  297POPC   C3A 4052   0.803   9.912   5.420
  297POPC   C4A 4053   0.698  10.049   5.835
  297POPC   C1B 4054   0.510   9.517   4.761
  297POPC   C2B 4055   0.324   9.622   5.196
  297POPC   C3B 4056   0.360   9.690   5.647
  297POPC   C4B 4057   0.445   9.539   6.064
  298POPC   NC3 4058   0.127   2.785   3.910
  298POPC   PO4 4059   0.656   2.240   4.012
  298POPC   GL1 4060   0.634   2.650   4.262
  298POPC   GL2 4061   0.324   2.865   4.361
  298POPC   C1A 4062   0.642   2.716   4.710
  298POPC   D2A 4063   0.588   2.960   5.061
  298POPC   C3A 4064   0.601   2.735   5.444
  298POPC   C4A 4065   0.550   2.739   5.885
  298POPC   C1B 4066   0.091   2.887   4.737
  298POPC   C2B 4067   0.096   2.908   5.182
  298POPC   C3B 4068   0.120   2.779   5.581
  298POPC   C4B 4069   0.114   2.371   5.720
  299POPC   NC3 4070   7.338   2.361   3.859
  299POPC   PO4 4071   7.668   2.794   4.098
  299POPC   GL1 4072   7.439   2.672   4.445
  299POPC   GL2 4073   7.147   2.465   4.327
  299POPC   C1A 4074   7.460   2.776   4.890
  299POPC   D2A 4075   7.644   2.643   5.268
  299POPC   C3A 4076   7.429   2.737   5.639
  299POPC   C4A 4077   7.183   3.104   5.779
  299POPC   C1B 4078   7.081   2.448   4.778
  299POPC   C2B 4079   7.121   2.545   5.214
  299POPC   C3B 4080   6.919   2.722   5.561
  299POPC   C4B 4081   7.015   2.641   5.978
  300POPC   NC3 4082   1.350  10.289   3.993
  300POPC   PO4 4083   0.764  10.532   3.733
  300POPC   GL1 4084   0.906  10.580   4.191
  300POPC   GL2 4085   0.933  10.240   4.293
  300POPC   C1A 4086   0.851  10.562   4.696
  300POPC   D2A 4087   0.999  10.324   5.106
  300POPC   C3A 4088   0.998  10.406   5.583
  300POPC   C4A 4089   1.109  10.587   6.043
  300POPC   C1B 4090   1.276  10.296   4.634
  300POPC   C2B 4091   1.533  10.362   5.001
  300POPC   C3B 4092   1.488  10.535   5.401
  300POPC   C4B 4093   1.470  10.360   5.796
  301POPC   NC3 4094   8.853   1.397   3.876
  301POPC   PO4 4095   8.754   0.707   3.786
  301POPC   GL1 4096   8.762   0.756   4.259
  301POPC   GL2 4097   8.906   1.084   4.267
  301POPC   C1A 4098   8.867   0.845   4.719
  301POPC   D2A 4099   9.152   0.988   5.038
  301POPC   C3A 4100   8.955   1.063   5.465
  301POPC   C4A 4101   9.078   1.093   5.907
  301POPC   C1B 4102   8.919   1.334   4.649
  301POPC   C2B 4103   8.855   1.389   5.040
  301POPC   C3B 4104   9.074   1.581   5.348
  301POPC   C4B 4105   9.087   1.596   5.782
  302POPC   NC3 4106   0.064   1.022   4.008
  302POPC   PO4 4107  10.918   0.821   3.999
  302POPC   GL1 4108  11.160   1.067   4.337
  302POPC   GL2 4109  11.261   1.436   4.356
  302POPC   C1A 4110  11.345   0.983   4.748
  302POPC   D2A 4111  11.168   0.889   5.171
  302POPC   C3A 4112  11.472   0.956   5.482
  302POPC   C4A 4113  11.462   0.884   5.919
  302POPC   C1B 4114  11.079   1.482   4.796
  302POPC   C2B 4115  11.023   1.369   5.245
  302POPC   C3B 4116  11.053   1.192   5.660
  302POPC   C4B 4117  10.895   1.420   6.050
  303POPC   NC3 4118   2.105   8.093   4.004
  303POPC   PO4 4119   1.499   7.811   3.841
  303POPC   GL1 4120   1.721   7.893   4.261
  303POPC   GL2 4121   1.864   8.250   4.419
  303POPC   C1A 4122   1.890   7.822   4.665
  303POPC   D2A 4123   1.706   7.883   5.050
  303POPC   C3A 4124   1.847   7.988   5.422
  303POPC   C4A 4125   1.720   7.603   5.691
  303POPC   C1B 4126   1.970   8.304   4.840
  303POPC   C2B 4127   2.128   8.606   5.141
  303POPC   C3B 4128   2.227   8.423   5.534
  303POPC   C4B 4129   1.997   8.204   5.853
  304POPC   NC3 4130   0.607   5.548   3.501
  304POPC   PO4 4131   0.760   5.789   4.061
  304POPC   GL1 4132   0.598   5.694   4.395
  304POPC   GL2 4133   0.294   5.873   4.341
  304POPC   C1A 4134   0.362   5.507   4.712
  304POPC   D2A 4135   0.188   5.560   5.099
  304POPC   C3A 4136   0.399   5.528   5.479
  304POPC   C4A 4137   0.443   5.722   5.866
  304POPC   C1B 4138   0.491   6.029   4.744
  304POPC   C2B 4139   0.362   6.050   5.130
  304POPC   C3B 4140   0.495   6.097   5.524
  304POPC   C4B 4141   0.156   6.124   5.803
  305POPC   NC3 4142  10.372   6.417   3.857
  305POPC   PO4 4143  10.050   6.896   4.141
  305POPC   GL1 4144  10.291   6.552   4.340
  305POPC   GL2 4145  10.665   6.529   4.382
  305POPC   C1A 4146  10.302   6.353   4.725
  305POPC   D2A 4147  10.130   6.477   5.112
  305POPC   C3A 4148  10.231   6.358   5.521
  305POPC   C4A 4149  10.294   6.619   5.843
  305POPC   C1B 4150  10.709   6.629   4.814
  305POPC   C2B 4151  10.649   6.520   5.247
  305POPC   C3B 4152  10.754   6.649   5.657
  305POPC   C4B 4153  10.712   6.561   6.123
  306POPC   NC3 4154   9.231  10.958   3.956
  306POPC   PO4 4155   9.967  10.731   3.999
  306POPC   GL1 4156   9.617  10.909   4.310
  306POPC   GL2 4157   9.533  11.274   4.268
  306POPC   C1A 4158   9.472  10.897   4.783
  306POPC   D2A 4159   9.665  10.985   5.192
  306POPC   C3A 4160   9.499  10.913   5.607
  306POPC   C4A 4161   9.413  10.684   6.003
  306POPC   C1B 4162   9.685  11.344   4.690
  306POPC   C2B 4163   9.507  11.478   5.088
  306POPC   C3B 4164   9.667  11.393   5.502
  306POPC   C4B 4165  10.042  11.172   5.634
  307POPC   NC3 4166   7.378   9.064   3.861
  307POPC   PO4 4167   7.665   8.528   3.947
  307POPC   GL1 4168   7.512   8.831   4.296
  307POPC   GL2 4169   7.173   8.943   4.352
  307POPC   C1A 4170   7.544   9.063   4.729
  307POPC   D2A 4171   7.472   8.923   5.158
  307POPC   C3A 4172   7.755   8.924   5.485
  307POPC   C4A 4173   7.771   8.887   5.896
  307POPC   C1B 4174   7.050   8.972   4.812
  307POPC   C2B 4175   7.061   9.176   5.242
  307POPC   C3B 4176   7.121   8.912   5.629
  307POPC   C4B 4177   6.917   8.775   6.051
  308POPC   NC3 4178   9.644   4.986   3.947
  308POPC   PO4 4179   9.122   4.573   4.052
  308POPC   GL1 4180   9.398   4.651   4.403
  308POPC   GL2 4181   9.584   4.977   4.439
  308POPC   C1A 4182   9.449   4.711   4.853
  308POPC   D2A 4183   9.442   4.947   5.225
  308POPC   C3A 4184   9.477   4.705   5.610
  308POPC   C4A 4185   9.158   4.788   5.928
  308POPC   C1B 4186   9.890   4.980   4.765
  308POPC   C2B 4187   9.879   5.204   5.149
  308POPC   C3B 4188   9.739   5.165   5.599
  308POPC   C4B 4189   9.923   5.276   6.009
  309POPC   NC3 4190  11.159   9.419   3.889
  309POPC   PO4 4191   0.216   9.211   4.061
  309POPC   GL1 4192  11.434   9.317   4.409
  309POPC   GL2 4193  11.224   9.618   4.355
  309POPC   C1A 4194  11.481   9.563   4.795
  309POPC   D2A 4195  11.251   9.663   5.147
  309POPC   C3A 4196  11.370   9.554   5.542
  309POPC   C4A 4197   0.011   9.205   5.774
  309POPC   C1B 4198  10.949   9.642   4.714
  309POPC   C2B 4199  10.737   9.584   5.089
  309POPC   C3B 4200  10.856   9.610   5.491
  309POPC   C4B 4201  10.991   9.693   5.906
  310POPC   NC3 4202   9.705   3.320   3.679
  310POPC   PO4 4203   9.729   3.894   4.007
  310POPC   GL1 4204   9.666   3.641   4.361
  310POPC   GL2 4205   9.619   3.264   4.401
  310POPC   C1A 4206   9.684   3.759   4.786
  310POPC   D2A 4207   9.842   3.991   5.123
  310POPC   C3A 4208   9.893   3.767   5.516
  310POPC   C4A 4209   9.763   3.685   5.939
  310POPC   C1B 4210   9.711   3.247   4.827
  310POPC   C2B 4211   9.575   3.469   5.202
  310POPC   C3B 4212   9.514   3.376   5.642
  310POPC   C4B 4213   9.707   3.161   5.996
  311POPC   NC3 4214   3.169   0.284   3.698
  311POPC   PO4 4215   3.712   0.213   3.960
  311POPC   GL1 4216   3.457   0.401   4.320
  311POPC   GL2 4217   3.678   0.683   4.400
  311POPC   C1A 4218   3.285   0.414   4.764
  311POPC   D2A 4219   3.029   0.475   5.170
  311POPC   C3A 4220   3.254   0.354   5.541
  311POPC   C4A 4221   3.630   0.072   5.575
  311POPC   C1B 4222   3.779   0.536   4.809
  311POPC   C2B 4223   3.642   0.464   5.222
  311POPC   C3B 4224   3.737   0.585   5.662
  311POPC   C4B 4225   3.775   0.732   6.123
  312POPC   NC3 4226   4.401  10.850   3.917
  312POPC   PO4 4227   4.252  10.122   3.817
  312POPC   GL1 4228   4.179  10.349   4.188
  312POPC   GL2 4229   4.521  10.450   4.213
  312POPC   C1A 4230   4.144  10.241   4.649
  312POPC   D2A 4231   3.977  10.244   5.087
  312POPC   C3A 4232   4.268  10.173   5.445
  312POPC   C4A 4233   4.213  10.067   5.924
  312POPC   C1B 4234   4.392  10.688   4.578
  312POPC   C2B 4235   4.358  10.585   5.008
  312POPC   C3B 4236   4.328  10.705   5.429
  312POPC   C4B 4237   4.325  10.528   5.807
  313POPC   NC3 4238  11.478   1.877   3.732
  313POPC   PO4 4239  10.846   2.006   3.780
  313POPC   GL1 4240  10.993   2.102   4.227
  313POPC   GL2 4241  11.335   2.009   4.224
  313POPC   C1A 4242  10.850   2.062   4.696
  313POPC   D2A 4243  10.894   1.863   5.124
  313POPC   C3A 4244  10.761   2.066   5.521
  313POPC   C4A 4245  10.979   2.233   5.868
  313POPC   C1B 4246  11.357   1.922   4.672
  313POPC   C2B 4247  11.341   2.138   5.072
  313POPC   C3B 4248  11.273   2.029   5.484
  313POPC   C4B 4249  11.092   1.696   5.667
  314POPC   NC3 4250  11.157   5.058   3.878
  314POPC   PO4 4251   0.127   5.517   3.951
  314POPC   GL1 4252  11.496   5.116   4.260
  314POPC   GL2 4253  11.111   5.142   4.373
  314POPC   C1A 4254  11.419   4.862   4.671
  314POPC   D2A 4255   0.062   5.054   5.081
  314POPC   C3A 4256  11.458   4.865   5.474
  314POPC   C4A 4257  11.458   4.981   5.919
  314POPC   C1B 4258  11.337   5.378   4.721
  314POPC   C2B 4259  11.200   5.437   5.174
  314POPC   C3B 4260  11.163   5.290   5.623
  314POPC   C4B 4261  10.911   5.083   5.962
  315POPC   NC3 4262  11.090  10.410   4.004
  315POPC   PO4 4263   0.073  10.851   3.787
  315POPC   GL1 4264  11.437  10.753   4.270
  315POPC   GL2 4265  11.370  10.450   4.441
  315POPC   C1A 4266  11.358  10.847   4.760
  315POPC   D2A 4267  11.263  10.928   5.219
  315POPC   C3A 4268  11.494  10.644   5.543
  315POPC   C4A 4269  11.334  10.513   5.935
  315POPC   C1B 4270  11.231  10.074   4.667
  315POPC   C2B 4271  10.949  10.057   5.036
  315POPC   C3B 4272  11.094  10.048   5.477
  315POPC   C4B 4273  11.446  10.037   5.737
  316POPC   NC3 4274   6.327  10.356   3.949
  316POPC   PO4 4275   6.868   9.944   4.020
  316POPC   GL1 4276   6.718  10.242   4.360
  316POPC   GL2 4277   6.451  10.523   4.396
  316POPC   C1A 4278   6.699  10.354   4.805
  316POPC   D2A 4279   6.707  10.575   5.183
  316POPC   C3A 4280   6.696  10.323   5.520
  316POPC   C4A 4281   6.710  10.452   5.921
  316POPC   C1B 4282   6.224  10.496   4.774
  316POPC   C2B 4283   6.234  10.285   5.140
  316POPC   C3B 4284   6.190  10.454   5.541
  316POPC   C4B 4285   6.305  10.161   5.831
  317POPC   NC3 4286   5.716   9.915   3.898
  317POPC   PO4 4287   5.574   9.254   4.072
  317POPC   GL1 4288   5.776   9.597   4.297
  317POPC   GL2 4289   5.613   9.884   4.402
  317POPC   C1A 4290   5.984   9.668   4.687
  317POPC   D2A 4291   5.887   9.759   5.114
  317POPC   C3A 4292   5.865   9.384   5.376
  317POPC   C4A 4293   5.665   9.197   5.768
  317POPC   C1B 4294   5.456   9.808   4.818
  317POPC   C2B 4295   5.406   9.877   5.257
  317POPC   C3B 4296   5.496   9.660   5.614
  317POPC   C4B 4297   5.893   9.664   5.792
  318POPC   NC3 4298   2.634   3.469   3.943
  318POPC   PO4 4299   2.620   4.073   3.948
  318POPC   GL1 4300   2.548   3.739   4.368
  318POPC   GL2 4301   2.727   3.371   4.412
  318POPC   C1A 4302   2.399   3.509   4.756
  318POPC   D2A 4303   2.323   3.694   5.113
  318POPC   C3A 4304   2.473   3.537   5.471
  318POPC   C4A 4305   2.597   3.501   5.911
  318POPC   C1B 4306   2.897   3.573   4.774
  318POPC   C2B 4307   3.023   3.378   5.162
  318POPC   C3B 4308   2.962   3.293   5.603
  318POPC   C4B 4309   3.104   3.633   5.887
  319POPC   NC3 4310  11.016   2.434   3.813
  319POPC   PO4 4311  11.245   3.096   3.888
  319POPC   GL1 4312  11.310   2.949   4.274
  319POPC   GL2 4313  11.262   2.608   4.222
  319POPC   C1A 4314  11.067   2.929   4.617
  319POPC   D2A 4315  10.736   3.071   4.891
  319POPC   C3A 4316  10.883   2.941   5.274
  319POPC   C4A 4317  10.988   3.079   5.670
  319POPC   C1B 4318  11.217   2.424   4.592
  319POPC   C2B 4319  11.209   2.621   4.994
  319POPC   C3B 4320  11.206   2.532   5.418
  319POPC   C4B 4321  11.205   2.672   5.836
  320POPC   NC3 4322   9.354   4.172   4.005
  320POPC   PO4 4323   9.943   4.568   3.885
  320POPC   GL1 4324   9.890   4.557   4.328
  320POPC   GL2 4325   9.737   4.233   4.382
  320POPC   C1A 4326   9.925   4.468   4.797
  320POPC   D2A 4327   9.856   4.650   5.198
  320POPC   C3A 4328   9.835   4.349   5.490
  320POPC   C4A 4329   9.681   4.270   5.842
  320POPC   C1B 4330   9.489   4.215   4.750
  320POPC   C2B 4331   9.439   4.311   5.183
  320POPC   C3B 4332   9.415   3.993   5.503
  320POPC   C4B 4333   9.325   3.924   5.941
  321POPC   NC3 4334   7.262  10.053   3.765
  321POPC   PO4 4335   7.083   9.406   3.886
  321POPC   GL1 4336   7.110   9.467   4.339
  321POPC   GL2 4337   7.459   9.387   4.326
  321POPC   C1A 4338   7.202   9.456   4.822
  321POPC   D2A 4339   7.584   9.406   5.139
  321POPC   C3A 4340   7.449   9.331   5.565
  321POPC   C4A 4341   7.019   9.421   5.695
  321POPC   C1B 4342   7.654   9.605   4.679
  321POPC   C2B 4343   7.441   9.893   4.966
  321POPC   C3B 4344   7.232   9.737   5.321
  321POPC   C4B 4345   7.211  10.001   5.682
  322POPC   NC3 4346  10.343  10.422   4.003
  322POPC   PO4 4347  10.900  10.647   4.350
  322POPC   GL1 4348  10.516  10.474   4.495
  322POPC   GL2 4349  10.165  10.576   4.454
  322POPC   C1A 4350  10.401  10.404   4.915
  322POPC   D2A 4351  10.538  10.231   5.284
  322POPC   C3A 4352  10.802  10.453   5.568
  322POPC   C4A 4353  11.007  10.811   5.666
  322POPC   C1B 4354  10.070  10.149   4.631
  322POPC   C2B 4355   9.928  10.141   5.107
  322POPC   C3B 4356  10.102  10.208   5.529
  322POPC   C4B 4357  10.373  10.402   5.834
  323POPC   NC3 4358   2.348  10.186   4.082
  323POPC   PO4 4359   1.729  10.022   4.037
  323POPC   GL1 4360   1.819  10.422   4.222
  323POPC   GL2 4361   2.053  10.303   4.479
  323POPC   C1A 4362   1.719  10.659   4.608
  323POPC   D2A 4363   1.991  10.675   4.965
  323POPC   C3A 4364   2.068  10.466   5.357
  323POPC   C4A 4365   1.916  10.623   5.730
  323POPC   C1B 4366   2.040  10.147   4.885
  323POPC   C2B 4367   1.770   9.918   5.144
  323POPC   C3B 4368   1.795  10.088   5.532
  323POPC   C4B 4369   2.150  10.174   5.832
  324POPC   NC3 4370   2.646   9.321   3.677
  324POPC   PO4 4371   2.618   9.988   3.775
  324POPC   GL1 4372   2.633   9.913   4.365
  324POPC   GL2 4373   2.895   9.662   4.484
  324POPC   C1A 4374   2.559   9.804   4.832
  324POPC   D2A 4375   2.740   9.488   5.131
  324POPC   C3A 4376   2.532   9.534   5.521
  324POPC   C4A 4377   2.524   9.828   5.837
  324POPC   C1B 4378   3.129   9.905   4.804
  324POPC   C2B 4379   3.031   9.930   5.253
  324POPC   C3B 4380   2.985   9.731   5.658
  324POPC   C4B 4381   2.985   9.863   6.107
  325POPC   NC3 4382  10.273   8.627   3.852
  325POPC   PO4 4383  10.746   9.166   3.822
  325POPC   GL1 4384  10.574   8.946   4.223
  325POPC   GL2 4385  10.213   8.846   4.297
  325POPC   C1A 4386  10.708   8.732   4.603
  325POPC   D2A 4387  10.853   8.544   4.979
  325POPC   C3A 4388  10.798   8.768   5.336
  325POPC   C4A 4389  10.639   8.812   5.716
  325POPC   C1B 4390  10.266   8.981   4.706
  325POPC   C2B 4391  10.335   8.823   5.119
  325POPC   C3B 4392  10.076   8.964   5.461
  325POPC   C4B 4393  10.222   9.062   5.852
  326POPC   NC3 4394  10.111   4.104   3.882
  326POPC   PO4 4395  10.647   4.505   3.848
  326POPC   GL1 4396  10.573   4.185   4.158
  326POPC   GL2 4397  10.268   4.208   4.345
  326POPC   C1A 4398  10.703   4.047   4.588
  326POPC   D2A 4399  10.901   4.145   4.984
  326POPC   C3A 4400  10.729   4.040   5.388
  326POPC   C4A 4401  10.710   4.295   5.742
  326POPC   C1B 4402  10.183   4.015   4.719
  326POPC   C2B 4403  10.315   4.231   5.083
  326POPC   C3B 4404  10.321   4.436   5.462
  326POPC   C4B 4405  10.199   4.128   5.775
  327POPC   NC3 4406   2.465   9.020   4.095
  327POPC   PO4 4407   3.060   9.100   3.749
  327POPC   GL1 4408   2.958   8.990   4.237
  327POPC   GL2 4409   2.796   8.651   4.236
  327POPC   C1A 4410   2.708   9.082   4.699
  327POPC   D2A 4411   2.428   9.056   5.108
  327POPC   C3A 4412   2.662   9.061   5.513
  327POPC   C4A 4413   3.066   9.223   5.634
  327POPC   C1B 4414   2.938   8.619   4.685
  327POPC   C2B 4415   2.815   8.710   5.134
  327POPC   C3B 4416   2.726   8.575   5.583
  327POPC   C4B 4417   3.086   8.722   5.819
  328POPC   NC3 4418   0.659   2.609   3.736
  328POPC   PO4 4419   1.314   2.557   3.970
  328POPC   GL1 4420   1.104   2.436   4.366
  328POPC   GL2 4421   1.461   2.358   4.479
  328POPC   C1A 4422   1.048   2.404   4.808
  328POPC   D2A 4423   1.075   2.809   4.997
  328POPC   C3A 4424   1.043   2.971   5.371
  328POPC   C4A 4425   1.030   2.733   5.733
  328POPC   C1B 4426   1.387   2.804   4.581
  328POPC   C2B 4427   1.485   3.081   4.876
  328POPC   C3B 4428   1.578   3.068   5.296
  328POPC   C4B 4429   1.405   3.110   5.701
  329POPC   NC3 4430   5.363   2.235   3.986
  329POPC   PO4 4431   5.996   1.961   3.962
  329POPC   GL1 4432   5.915   1.781   4.351
  329POPC   GL2 4433   5.590   1.928   4.366
  329POPC   C1A 4434   5.828   1.681   4.788
  329POPC   D2A 4435   5.914   1.950   5.121
  329POPC   C3A 4436   6.067   1.816   5.514
  329POPC   C4A 4437   6.091   2.194   5.749
  329POPC   C1B 4438   5.356   1.876   4.771
  329POPC   C2B 4439   5.438   1.815   5.219
  329POPC   C3B 4440   5.586   1.967   5.610
  329POPC   C4B 4441   5.696   1.675   5.909
  330POPC   NC3 4442  10.244   9.281   4.033
  330POPC   PO4 4443  10.067   9.899   3.786
  330POPC   GL1 4444  10.270   9.749   4.241
  330POPC   GL2 4445  10.658   9.652   4.228
  330POPC   C1A 4446  10.425   9.476   4.652
  330POPC   D2A 4447  10.277   9.341   5.080
  330POPC   C3A 4448  10.516   9.242   5.447
  330POPC   C4A 4449  10.505   9.484   5.852
  330POPC   C1B 4450  10.569   9.965   4.603
  330POPC   C2B 4451  10.331   9.867   4.983
  330POPC   C3B 4452  10.360   9.763   5.416
  330POPC   C4B 4453  10.609   9.979   5.710
  331POPC   NC3 4454   2.667  10.358   3.531
  331POPC   PO4 4455   3.132  10.317   4.001
  331POPC   GL1 4456   3.031  10.243   4.409
  331POPC   GL2 4457   2.759  10.469   4.341
  331POPC   C1A 4458   2.996  10.441   4.822
  331POPC   D2A 4459   2.945  10.444   5.247
  331POPC   C3A 4460   2.653  10.211   5.482
  331POPC   C4A 4461   2.864  10.257   5.835
  331POPC   C1B 4462   2.533  10.295   4.678
  331POPC   C2B 4463   2.464  10.420   5.049
  331POPC   C3B 4464   2.533  10.740   5.337
  331POPC   C4B 4465   2.508  10.633   5.760
  332POPC   NC3 4466   8.774   8.209   3.917
  332POPC   PO4 4467   9.221   7.826   3.693
  332POPC   GL1 4468   9.102   7.960   4.213
  332POPC   GL2 4469   9.097   8.327   4.312
  332POPC   C1A 4470   9.290   7.945   4.661
  332POPC   D2A 4471   9.192   7.850   5.115
  332POPC   C3A 4472   8.996   7.896   5.516
  332POPC   C4A 4473   9.190   7.729   5.856
  332POPC   C1B 4474   8.839   8.156   4.690
  332POPC   C2B 4475   8.698   8.047   5.134
  332POPC   C3B 4476   8.548   8.184   5.589
  332POPC   C4B 4477   8.478   8.316   6.060
  333POPC   NC3 4478   2.768   4.495   3.946
  333POPC   PO4 4479   3.200   4.792   4.309
  333POPC   GL1 4480   2.691   4.676   4.409
  333POPC   GL2 4481   2.523   4.300   4.390
  333POPC   C1A 4482   2.505   4.575   4.811
  333POPC   D2A 4483   2.753   4.390   5.162
  333POPC   C3A 4484   2.593   4.488   5.573
  333POPC   C4A 4485   2.664   4.711   5.960
  333POPC   C1B 4486   2.571   4.028   4.789
  333POPC   C2B 4487   2.776   3.874   5.197
  333POPC   C3B 4488   2.743   3.934   5.652
  333POPC   C4B 4489   2.872   4.222   5.947
  334POPC   NC3 4490   8.890   9.769   3.921
  334POPC   PO4 4491   8.424   9.407   4.232
  334POPC   GL1 4492   8.787   9.513   4.390
  334POPC   GL2 4493   8.796   9.867   4.393
  334POPC   C1A 4494   8.722   9.545   4.825
  334POPC   D2A 4495   8.745   9.484   5.241
  334POPC   C3A 4496   8.515   9.466   5.586
  334POPC   C4A 4497   8.823   9.476   5.907
  334POPC   C1B 4498   8.860  10.048   4.771
  334POPC   C2B 4499   8.960   9.916   5.140
  334POPC   C3B 4500   8.830   9.872   5.555
  334POPC   C4B 4501   8.963   9.950   5.938
  335POPC   NC3 4502   0.300   7.065   3.987
  335POPC   PO4 4503   0.032   7.624   3.839
  335POPC   GL1 4504   0.169   7.606   4.261
  335POPC   GL2 4505   0.488   7.482   4.266
  335POPC   C1A 4506   0.296   7.567   4.711
  335POPC   D2A 4507   0.313   7.324   5.067
  335POPC   C3A 4508   0.344   7.531   5.460
  335POPC   C4A 4509   0.195   7.346   5.857
  335POPC   C1B 4510   0.557   7.116   4.589
  335POPC   C2B 4511   0.657   6.929   5.005
  335POPC   C3B 4512   0.722   7.184   5.385
  335POPC   C4B 4513   0.707   7.386   5.814
  336POPC   NC3 4514   4.425   1.455   3.489
  336POPC   PO4 4515   4.489   1.507   4.120
  336POPC   GL1 4516   4.417   1.404   4.495
  336POPC   GL2 4517   4.279   1.080   4.452
  336POPC   C1A 4518   4.607   1.272   4.864
  336POPC   D2A 4519   4.453   0.990   5.186
  336POPC   C3A 4520   4.514   1.141   5.605
  336POPC   C4A 4521   4.435   1.416   5.979
  336POPC   C1B 4522   3.911   1.036   4.752
  336POPC   C2B 4523   3.842   0.963   5.214
  336POPC   C3B 4524   4.019   1.144   5.602
  336POPC   C4B 4525   3.933   1.241   6.035
  337POPC   NC3 4526   2.780   0.096   4.014
  337POPC   PO4 4527   2.943   0.711   3.787
  337POPC   GL1 4528   2.956   0.612   4.284
  337POPC   GL2 4529   2.916   0.260   4.466
  337POPC   C1A 4530   2.866   0.720   4.747
  337POPC   D2A 4531   2.638   0.802   5.168
  337POPC   C3A 4532   2.863   0.768   5.590
  337POPC   C4A 4533   2.794   0.559   6.011
  337POPC   C1B 4534   2.560   0.319   4.782
  337POPC   C2B 4535   2.505   0.317   5.244
  337POPC   C3B 4536   2.734   0.239   5.612
  337POPC   C4B 4537   2.585  11.483   5.951
  338W        W 4538   4.586   7.122   1.921
  339W        W 4539   5.153   6.005   0.009
  340W        W 4540   7.840   4.658  10.365
  341W        W 4541  10.030   0.245  10.591
  342W        W 4542   0.232   4.729   3.433
  343W        W 4543   7.470   3.856  10.487
  344W        W 4544  10.858   8.804  11.748
  345W        W 4545   8.564   3.204   8.913
  346W        W 4546   1.430   0.907   0.898
  347W        W 4547   1.250   6.506  10.832
  348W        W 4548   4.316   9.024   2.262
  349W        W 4549   7.649   6.537   2.718
  350W        W 4550  11.348   0.994   2.139
  351W        W 4551  10.018   2.849   3.675
  352W        W 4552   0.446  11.419   3.254
  353W        W 4553   2.246  10.427  10.440
  354W        W 4554  10.711   5.805  11.474
  355W        W 4555   3.824   7.620   0.900
  356W        W 4556  11.493   8.166  11.809
  357W        W 4557  11.113   7.995   2.201
  358W        W 4558   5.977   3.649   7.933
  359W        W 4559   5.931   4.094   3.959
  360W        W 4560   2.541   3.022   0.095
  361W        W 4561   9.168   5.282   2.914
  362W        W 4562   2.431  10.317   0.441
  363W        W 4563   2.585  10.901   3.494
  364W        W 4564   4.644   0.368   0.452
  365W        W 4565   6.227   0.378   2.805
  366W        W 4566   2.346   5.761   0.951
  367W        W 4567   9.345  11.124  10.299
  368W        W 4568   7.253   6.156  10.499
  369W        W 4569   5.814   6.845  11.462
  370W        W 4570  11.283  10.559  11.310
  371W        W 4571   2.162  10.933   3.197
  372W        W 4572   7.957   8.414   1.850
  373W        W 4573   7.015   4.748   1.432
  374W        W 4574   0.877   1.399  10.452
  375W        W 4575   5.656   0.506   0.016
  376W        W 4576  10.430   2.786   3.158
  377W        W 4577   2.661   8.793   3.694
  378W        W 4578   3.274   8.575   0.824
  379W        W 4579   5.245   2.428  10.770
  380W        W 4580   2.713   2.571   9.885
  381W        W 4581   2.645   4.720   3.399
  382W        W 4582   3.826   8.983   3.026
  383W        W 4583   6.087   0.484   9.293
  384W        W 4584   6.719   6.486   1.946
  385W        W 4585   5.826   4.141   8.133
  386W        W 4586   0.607   2.471  11.824
  387W        W 4587   1.749   5.367  10.382
  388W        W 4588   0.587   2.804   0.684
  389W        W 4589   3.241   1.513   0.034
  390W        W 4590   6.605   1.016   0.873
  391W        W 4591   6.053   7.402  10.283
  392W        W 4592   4.432   8.935   0.786
  393W        W 4593   2.657   4.141   9.784
  394W        W 4594   3.707   4.737  11.656
  395W        W 4595  10.796   6.739  11.097
  396W        W 4596   0.942  10.513   2.751
  397W        W 4597   9.612   0.332   1.992
  398W        W 4598   8.929   2.465  10.962
  399W        W 4599   9.205   8.962   3.018
  400W        W 4600   9.166  10.810   9.950
  401W        W 4601   8.991  11.295   1.693
  402W        W 4602   9.046   9.537   9.900
  403W        W 4603   5.221   9.242   1.306
  404W        W 4604   9.399  10.399  11.426
  405W        W 4605   7.677   5.232   0.738
  406W        W 4606   1.490   2.809   1.473
  407W        W 4607   3.849   4.657   2.740
  408W        W 4608   5.684  10.338  11.324
  409W        W 4609  10.474   3.271   9.041
  410W        W 4610   9.843  10.633  11.489
  411W        W 4611   4.252   1.770  10.588
  412W        W 4612   3.199   8.203   9.574
  413W        W 4613  10.507   4.634   1.464
  414W        W 4614   1.099   8.367   8.865
  415W        W 4615  11.359   4.367   0.559
  416W        W 4616  10.422   7.412   1.678
  417W        W 4617   6.585   7.591  11.467
  418W        W 4618   5.534   6.167   0.308
  419W        W 4619   4.198   2.820   0.450
  420W        W 4620   4.719   6.218   0.160
  421W        W 4621   8.044   9.988  10.879
  422W        W 4622   9.463  11.334   1.914
  423W        W 4623   4.315   0.164   9.747
  424W        W 4624   7.098   4.297   0.086
  425W        W 4625   9.148   7.301   3.452
  426W        W 4626   9.453   4.223  11.533
  427W        W 4627   5.420   3.569   9.117
  428W        W 4628  10.601   8.856   0.373
  429W        W 4629   5.559  11.210   2.177
  430W        W 4630   5.688   4.505   2.968
  431W        W 4631   5.104  11.478  10.602
  432W        W 4632   5.760   3.268  10.300
  433W        W 4633  10.936   8.062  11.107
  434W        W 4634   1.799   3.253   3.119
  435W        W 4635  11.217   0.383  10.810
  436W        W 4636   6.004  10.072  11.692
  437W        W 4637   3.643   5.187   8.125
  438W        W 4638   4.747   8.890   8.147
  439W        W 4639   2.254  10.250   9.904
  440W        W 4640   1.740   9.829   0.026
  441W        W 4641   6.974   2.670   1.619
  442W        W 4642  10.024   2.369  10.842
  443W        W 4643   0.344   0.406   9.016
  444W        W 4644   6.462   0.178  11.025
  445W        W 4645   6.484   3.825   9.840
  446W        W 4646   1.012   6.308   3.936
  447W        W 4647   9.287   9.400   8.928
  448W        W 4648   5.186   7.392   1.803
  449W        W 4649  10.235   7.652   0.843
  450W        W 4650   9.127   5.039  11.943
  451W        W 4651   4.976  10.550  10.641
  452W        W 4652   1.335   3.412  10.644
  453W        W 4653   2.691   4.031  11.954
  454W        W 4654   4.476   0.350   8.820
  455W        W 4655   4.754   3.133   2.767
  456W        W 4656   4.035   4.285  11.428
  457W        W 4657   2.633  10.306   0.920
  458W        W 4658  10.792   1.771  10.936
  459W        W 4659   6.968   9.727   3.499
  460W        W 4660  10.894   0.920   0.256
  461W        W 4661   9.847   1.258   9.796
  462W        W 4662   8.447   9.151   8.971
  463W        W 4663   2.463   5.359   1.669
  464W        W 4664   7.714   3.858   4.039
  465W        W 4665   0.997   6.608   8.382
  466W        W 4666   7.401   7.514  10.741
  467W        W 4667   2.157   6.516   3.259
  468W        W 4668   8.783   9.462   1.807
  469W        W 4669   9.516   0.580   9.814
  470W        W 4670   8.122   4.635  10.784
  471W        W 4671   2.112   2.304   0.231
  472W        W 4672  11.157   4.981  11.138
  473W        W 4673   8.374   5.591   0.334
  474W        W 4674   1.346   3.387  11.643
  475W        W 4675   2.356   3.735  10.020
  476W        W 4676   6.224   1.039   9.904
  477W        W 4677   6.572   6.914   2.225
  478W        W 4678  11.034  11.284   2.196
  479W        W 4679   3.508   6.160   1.757
  480W        W 4680   4.671   2.217  11.292
  481W        W 4681   9.557   0.286  11.337
  482W        W 4682   9.440   9.116  10.289
  483W        W 4683  10.434   8.682  11.443
  484W        W 4684   5.993   6.923   0.838
  485W        W 4685   2.502   8.195   9.110
  486W        W 4686   2.890  10.623   3.173
  487W        W 4687   5.755   3.660  11.375
  488W        W 4688   9.625   7.207   9.489
  489W        W 4689  10.569   7.025  11.908
  490W        W 4690   3.325   6.953  11.464
  491W        W 4691  11.303  11.136   0.071
  492W        W 4692   2.738   4.540   0.063
  493W        W 4693   6.562   4.075   9.375
  494W        W 4694   4.002   8.311   3.514
  495W        W 4695   1.260   9.933  10.748
  496W        W 4696   7.634  11.061   1.686
  497W        W 4697  10.009   3.753  11.618
  498W        W 4698  11.115   5.461  10.872
  499W        W 4699   7.213   4.004   2.469
  500W        W 4700   1.852   6.124  11.340
  501W        W 4701   9.756   9.029   0.898
  502W        W 4702   8.458   1.628  10.850
  503W        W 4703   9.652  11.206   2.737
  504W        W 4704   1.372   1.747   0.681
  505W        W 4705   4.274   9.151   1.242
  506W        W 4706   0.340   4.735  11.692
  507W        W 4707   0.583   4.217   0.720
  508W        W 4708  10.497  10.224   0.675
  509W        W 4709   0.797   0.334  11.822
  510W        W 4710   8.470   5.462   3.770
  511W        W 4711   0.850  10.779   9.863
  512W        W 4712   4.683   0.886   2.138
  513W        W 4713   3.604   8.551  11.736
  514W        W 4714   3.419   8.061   3.143
  515W        W 4715   4.286   3.346   2.810
  516W        W 4716   1.175   7.822   1.065
  517W        W 4717   8.768   1.516   3.009
  518W        W 4718   5.272   8.687   8.624
  519W        W 4719   8.089   1.188   9.308
  520W        W 4720   0.919  11.287   0.933
  521W        W 4721   6.754   5.615   2.453
  522W        W 4722   4.359   1.356   9.487
  523W        W 4723   2.158   6.579   1.301
  524W        W 4724   0.895   7.946   9.096
  525W        W 4725   3.550   0.442   2.349
  526W        W 4726   1.926   3.756   8.466
  527W        W 4727   7.158   1.403  11.441
  528W        W 4728   3.690   6.560   3.096
  529W        W 4729   0.831   6.601  10.017
  530W        W 4730   1.598   5.318   0.819
  531W        W 4731   1.610   2.701  11.666
  532W        W 4732   6.412   8.873  10.257
  533W        W 4733   3.104  11.038   3.423
  534W        W 4734  10.619   0.321   1.735
  535W        W 4735  10.011   8.600   9.691
  536W        W 4736   5.256   3.566  11.335
  537W        W 4737  10.578   3.096  11.569
  538W        W 4738   1.743   0.523   2.614
  539W        W 4739   5.531   3.490   4.277
  540W        W 4740   2.473   8.582  10.772
  541W        W 4741   1.762   7.944   3.018
  542W        W 4742   7.980   3.461   2.105
  543W        W 4743   9.663   9.630   0.092
  544W        W 4744   7.983  11.291   2.929
  545W        W 4745  10.000   7.433   0.458
  546W        W 4746   5.571   8.568  10.680
  547W        W 4747   2.128   0.960   9.385
  548W        W 4748   7.227   1.257   2.265
  549W        W 4749   7.147  10.393  10.867
  550W        W 4750   0.712   6.489   2.796
  551W        W 4751   2.301   1.716   2.464
  552W        W 4752   5.698   4.221   0.110
  553W        W 4753   2.046   5.231  11.734
  554W        W 4754   0.502   5.098   2.813
  555W        W 4755   4.157   8.521  10.508
  556W        W 4756   3.349   9.420   1.914
  557W        W 4757   5.259   8.248   2.978
  558W        W 4758  10.040   3.520   0.059
  559W        W 4759   0.692   3.613   2.798
  560W        W 4760   9.598   1.430  10.602
  561W        W 4761   4.338   6.554   1.714
  562W        W 4762  11.142   9.514   9.524
  563W        W 4763   9.277   9.457   3.114
  564W        W 4764   3.990  10.977   3.166
  565W        W 4765   7.029  11.056   1.545
  566W        W 4766   2.182   9.750  10.808
  567W        W 4767   4.086   2.631   2.321
  568W        W 4768   6.222   4.110   8.646
  569W        W 4769   3.267   0.020   2.205
  570W        W 4770   6.063   7.175   3.944
  571W        W 4771  10.473   6.497   2.855
  572W        W 4772   3.421   8.971   3.366
  573W        W 4773   6.723  11.068   0.548
  574W        W 4774   6.143   3.022   8.609
  575W        W 4775   5.563   5.566  10.006
  576W        W 4776   1.342   4.207   2.935
  577W        W 4777   7.623   0.503  11.568
  578W        W 4778   6.911   6.527   0.706
  579W        W 4779   2.318   4.817  10.952
  580W        W 4780   0.509   1.314   9.877
  581W        W 4781   5.938   0.591   9.845
  582W        W 4782   7.591   2.472   1.213
  583W        W 4783   3.805   2.320  11.767
  584W        W 4784   8.206   1.320   1.756
  585W        W 4785   0.793   9.043   3.021
  586W        W 4786   9.963  11.398   9.860
  587W        W 4787   4.905   1.846   3.294
  588W        W 4788   3.643   1.622   9.033
  589W        W 4789   7.377   7.133  11.492
  590W        W 4790   3.154   4.232   2.771
  591W        W 4791   5.620   7.559  10.516
  592W        W 4792  10.463   4.712   1.954
  593W        W 4793   5.150   5.589   0.318
  594W        W 4794   9.443   7.702   9.409
  595W        W 4795   4.957   1.414  11.551
  596W        W 4796   4.920   3.102   8.656
  597W        W 4797   0.316   9.052   9.259
  598W        W 4798   3.750   5.182   2.668
  599W        W 4799  10.340   4.755   2.428
  600W        W 4800   4.346   1.706  11.509
  601W        W 4801   2.234   3.610   1.744
  602W        W 4802  10.898   8.462  11.398
  603W        W 4803   3.740  11.331  10.877
  604W        W 4804   5.724   0.123   1.875
  605W        W 4805   1.647   1.877   1.784
  606W        W 4806   6.203   3.394   0.023
  607W        W 4807   5.057   8.107  11.275
  608W        W 4808   2.861   7.402   0.682
  609W        W 4809   3.530   2.870  11.264
  610W        W 4810   4.226   9.570   8.927
  611W        W 4811   5.602   6.581   1.159
  612W        W 4812  10.711   9.451  11.110
  613W        W 4813   3.717   7.499   3.088
  614W        W 4814   1.312   8.672  11.911
  615W        W 4815   0.194   3.017   9.312
  616W        W 4816   2.713   3.600   1.527
  617W        W 4817   3.150   2.976   2.349
  618W        W 4818   1.920   8.547   9.921
  619W        W 4819   4.657   2.909  11.832
  620W        W 4820   1.823   9.458   2.573
  621W        W 4821   4.064  10.278  11.847
  622W        W 4822   3.642   6.260  11.897
  623W        W 4823   1.262   9.061   0.718
  624W        W 4824   5.167   1.030   9.955
  625W        W 4825   9.062   8.073   2.940
  626W        W 4826   2.748   8.350   1.513
  627W        W 4827   0.871   3.042  11.031
  628W        W 4828   9.159   0.992   8.661
  629W        W 4829   4.307   8.058  11.992
  630W        W 4830   6.099   8.698   3.637
  631W        W 4831   7.789   2.059  11.871
  632W        W 4832   1.310   9.838   3.028
  633W        W 4833   3.285   0.413   1.880
  634W        W 4834   4.169   6.022   8.219
  635W        W 4835   3.156   6.172   0.731
  636W        W 4836   7.587   6.880   9.948
  637W        W 4837  11.214   5.677   2.752
  638W        W 4838   1.426   9.513  10.486
  639W        W 4839   7.425  11.171  11.866
  640W        W 4840   2.024   2.294  10.461
  641W        W 4841   9.300   9.901  11.364
  642W        W 4842   2.343  11.045   9.121
  643W        W 4843   8.357   6.135   3.138
  644W        W 4844   3.406   3.455   4.182
  645W        W 4845   6.518   1.829   0.429
  646W        W 4846   5.319   7.646   0.798
  647W        W 4847  10.846   6.395   3.518
  648W        W 4848   9.414   0.851   9.089
  649W        W 4849   3.610   4.981  10.785
  650W        W 4850   6.028   9.929  11.192
  651W        W 4851   1.701   4.124   9.412
  652W        W 4852   1.638   7.109   0.996
  653W        W 4853   8.135   3.388   2.613
  654W        W 4854   7.353   0.934  11.405
  655W        W 4855   7.055   1.864   1.629
  656W        W 4856   5.225   2.665  11.790
  657W        W 4857   7.926   8.992   0.834
  658W        W 4858  10.053   4.318   9.366
  659W        W 4859   9.877   3.922   3.044
  660W        W 4860   7.428   5.983   9.862
  661W        W 4861   8.519   1.402  11.456
  662W        W 4862   1.455   8.176   1.305
  663W        W 4863   8.005  10.784   0.569
  664W        W 4864   5.232   0.644   0.921
  665W        W 4865   8.229   6.101   0.382
  666W        W 4866   9.089   8.067  10.744
  667W        W 4867   5.462   6.514   9.163
  668W        W 4868   6.209   9.876   8.630
  669W        W 4869   9.975   5.700   8.973
  670W        W 4870  11.205   3.801   2.678
  671W        W 4871   7.533   4.713   1.654
  672W        W 4872   8.544   8.988  11.978
  673W        W 4873   2.689   6.160   1.989
  674W        W 4874   1.251   6.554  10.313
  675W        W 4875   4.735   9.384   1.185
  676W        W 4876   5.197   9.399   9.994
  677W        W 4877   5.190   8.559   2.059
  678W        W 4878  11.410   2.947   8.890
  679W        W 4879   0.801   9.086   0.502
  680W        W 4880   6.032   2.057   2.764
  681W        W 4881   4.078   2.888  11.092
  682W        W 4882   7.047   0.084   9.235
  683W        W 4883   1.770   7.963   0.368
  684W        W 4884  10.905   6.370   9.307
  685W        W 4885   1.289   6.490   9.779
  686W        W 4886   8.998  10.850   2.027
  687W        W 4887   8.055   7.165   0.677
  688W        W 4888   1.210  10.887   9.507
  689W        W 4889   1.406   6.954  10.997
  690W        W 4890   8.600   9.808   9.807
  691W        W 4891   8.855   4.061  11.755
  692W        W 4892   6.255   2.192   3.213
  693W        W 4893   6.038   9.456   0.820
  694W        W 4894   1.121   0.289  10.874
  695W        W 4895   4.736   5.653   0.642
  696W        W 4896   4.214   7.541  10.497
  697W        W 4897   8.954   8.676   8.486
  698W        W 4898   2.960   5.295   1.585
  699W        W 4899   6.331   3.316   1.339
  700W        W 4900   6.520   8.375  11.018
  701W        W 4901   4.055   7.251   2.776
  702W        W 4902  10.765   4.174  10.055
  703W        W 4903   2.680   1.219  10.824
  704W        W 4904   9.150   5.902  10.750
  705W        W 4905   6.993   0.613  11.214
  706W        W 4906   7.153   6.162   2.267
  707W        W 4907   3.085   3.114   9.521
  708W        W 4908   4.948   5.219  11.482
  709W        W 4909   4.117   0.276   1.527
  710W        W 4910   0.880   1.268   1.440
  711W        W 4911   4.671   2.823   3.447
  712W        W 4912  10.392   6.473   9.015
  713W        W 4913   2.625   6.151   2.858
  714W        W 4914   9.971   8.878  11.577
  715W        W 4915   8.252   0.309  10.496
  716W        W 4916   8.823   0.251   1.837
  717W        W 4917   6.573   8.182   1.982
  718W        W 4918   4.143   6.084   0.823
  719W        W 4919   6.274   1.433  11.635
  720W        W 4920   8.010   6.460   0.013
  721W        W 4921   2.656   3.287   0.540
  722W        W 4922   1.252   0.773   9.950
  723W        W 4923   4.700   5.681  11.516
  724W        W 4924   2.993   3.742   2.835
  725W        W 4925  11.053   1.616   2.829
  726W        W 4926   6.921   7.506  11.867
  727W        W 4927   3.780  10.875   8.989
  728W        W 4928   4.930  10.780   3.455
  729W        W 4929   4.396   0.716  11.660
  730W        W 4930  10.461   6.907  10.728
  731W        W 4931   6.629   1.570   0.852
  732W        W 4932   0.212   3.510   9.907
  733W        W 4933   5.010  10.361  11.972
  734W        W 4934   0.824   7.148   0.490
  735W        W 4935   6.106   2.694   1.218
  736W        W 4936   8.906   1.470   1.730
  737W        W 4937   1.201  10.074   3.508
  738W        W 4938  10.926   1.297  10.666
  739W        W 4939   1.645  11.440  10.114
  740W        W 4940   1.135   7.305   1.049
  741W        W 4941   2.105   6.208   0.914
  742W        W 4942   4.510   3.195   2.258
  743W        W 4943  10.043  10.861  10.881
  744W        W 4944  10.349   8.841  10.929
  745W        W 4945   8.103  10.156  10.414
  746W        W 4946   9.989   7.184   1.886
  747W        W 4947   5.469   8.422   9.034
  748W        W 4948   3.809  10.444   1.411
  749W        W 4949   4.803   0.998  11.793
  750W        W 4950   1.272  10.674   1.921
  751W        W 4951   1.798   2.422   2.846
  752W        W 4952   6.689   5.217   1.388
  753W        W 4953  10.016   8.452   9.211
  754W        W 4954   3.348   4.686   2.614
  755W        W 4955   4.588   3.703   1.985
  756W        W 4956   4.297   2.438  10.976
  757W        W 4957   8.586   1.948   9.373
  758W        W 4958  11.304   4.251   9.389
  759W        W 4959   9.397   5.484   9.970
  760W        W 4960   8.379   8.081  10.010
  761W        W 4961   6.948   4.186   0.580
  762W        W 4962   1.272   5.338   1.264
  763W        W 4963   3.457   3.239  10.384
  764W        W 4964   4.709   0.378   9.386
  765W        W 4965   9.749   6.718   8.210
  766W        W 4966   8.187   0.438   9.976
  767W        W 4967   6.328   6.107  11.472
  768W        W 4968   5.175   4.833  11.736
  769W        W 4969   2.264   3.845   8.954
  770W        W 4970  11.498  11.221   0.987
  771W        W 4971   9.948   6.207   8.951
  772W        W 4972   1.136   9.533   9.006
  773W        W 4973   6.280   5.290   1.760
  774W        W 4974   7.930   9.799  11.800
  775W        W 4975   4.554   2.297  10.018
  776W        W 4976   0.402   0.316   1.942
  777W        W 4977   7.488   1.014   3.021
  778W        W 4978   7.466   1.474  10.485
  779W        W 4979   0.061   7.311   0.356
  780W        W 4980  10.702   2.937   9.409
  781W        W 4981   8.488   2.387  11.233
  782W        W 4982   5.749   3.688   2.297
  783W        W 4983   7.238   8.457  11.949
  784W        W 4984   7.802   4.235   1.587
  785W        W 4985   0.162   6.141   9.887
  786W        W 4986   4.769   4.118   9.600
  787W        W 4987   7.667   9.556   9.764
  788W        W 4988   5.574   0.289  11.548
  789W        W 4989   5.587   9.899   8.559
  790W        W 4990  11.248   2.217  10.612
  791W        W 4991   7.806   7.934   0.597
  792W        W 4992  11.059   7.008  11.951
  793W        W 4993   7.961   4.292   2.827
  794W        W 4994   6.756   8.061   0.265
  795W        W 4995  11.271   0.327   9.915
  796W        W 4996   7.547  10.588   2.629
  797W        W 4997   4.542   0.839  10.333
  798W        W 4998   7.448   5.209  11.763
  799W        W 4999   7.217   0.879   9.800
  800W        W 5000   6.636  11.343   9.059
  801W        W 5001   7.940   6.167   8.722
  802W        W 5002   4.610   3.080   0.306
  803W        W 5003   3.052   9.048  11.469
  804W        W 5004   7.539   1.704  11.076
  805W        W 5005   8.841   7.995   2.002
  806W        W 5006  11.305  10.792   0.756
  807W        W 5007   0.792   7.522  11.781
  808W        W 5008   4.740   7.495  11.311
  809W        W 5009   1.023   7.966   9.597
  810W        W 5010   9.840   6.549  11.775
  811W        W 5011   0.088  11.452  11.764
  812W        W 5012  10.533   0.324   9.280
  813W        W 5013   5.371   6.585   2.056
  814W        W 5014   2.894  10.131   1.781
  815W        W 5015   5.341   6.748  11.619
  816W        W 5016  10.239   5.664   9.418
  817W        W 5017  11.067   4.482  10.368
  818W        W 5018   6.458   3.754   8.952
  819W        W 5019   4.193   6.534   2.203
  820W        W 5020   4.031   6.692  10.020
  821W        W 5021   8.863   9.913  11.135
  822W        W 5022   8.947   1.101  11.425
  823W        W 5023   9.710   8.142   1.747
  824W        W 5024   3.771   9.515   2.269
  825W        W 5025   0.270   7.510   1.926
  826W        W 5026   4.710   9.789   8.834
  827W        W 5027   7.083   9.374  11.695
  828W        W 5028   5.439  10.345  10.322
  829W        W 5029   5.473   3.782   8.643
  830W        W 5030  10.467  11.344   9.845
  831W        W 5031  11.470   8.468  10.816
  832W        W 5032   1.289  10.863   3.027
  833W        W 5033   8.899   1.439  10.683
  834W        W 5034   7.258   0.079   9.701
  835W        W 5035  10.324   5.649   0.404
  836W        W 5036   8.619   3.731   8.179
  837W        W 5037  10.375   7.271  10.346
  838W        W 5038  10.332   2.920   9.749
  839W        W 5039   0.451   2.211  10.781
  840W        W 5040  10.913   0.064   0.789
  841W        W 5041   7.875   5.720   0.339
  842W        W 5042  10.876   0.710   9.884
  843W        W 5043   4.070   5.528  11.792
  844W        W 5044   3.734   8.934  10.093
  845W        W 5045   9.522  10.563  11.896
  846W        W 5046   4.668   0.494   0.948
  847W        W 5047   1.006   2.688   2.139
  848W        W 5048   1.971   0.444  11.055
  849W        W 5049  10.910   6.174  11.806
  850W        W 5050   9.351   5.662   0.677
  851W        W 5051   5.920   3.652   8.942
  852W        W 5052   1.636   9.352   2.103
  853W        W 5053   0.038   7.140   3.516
  854W        W 5054   8.010   7.205   2.555
  855W        W 5055   0.861   3.286  11.469
  856W        W 5056   6.564   0.295   1.991
  857W        W 5057   8.089   0.500   3.318
  858W        W 5058  10.691   9.787  11.509
  859W        W 5059   7.716   2.228   2.170
  860W        W 5060   5.105   6.995  10.443
  861W        W 5061   9.646   2.061   1.804
  862W        W 5062   6.632  11.269  10.769
  863W        W 5063   4.417   9.747   0.948
  864W        W 5064   5.933   6.617  10.418
  865W        W 5065   1.244   7.572   9.226
  866W        W 5066   1.891  10.611   9.854
  867W        W 5067  10.746   8.355   0.363
  868W        W 5068   8.873   9.954   1.051
  869W        W 5069   0.691   5.984   2.847
  870W        W 5070  10.797   9.581  10.052
  871W        W 5071  10.003  10.091   1.687
  872W        W 5072   2.766   2.272   3.631
  873W        W 5073   5.604  11.480   3.159
  874W        W 5074  11.016  11.186   9.010
  875W        W 5075   7.980   1.849   1.939
  876W        W 5076   2.975   0.666   9.553
  877W        W 5077  10.868   9.146   9.761
  878W        W 5078   4.620   1.933   2.516
  879W        W 5079   5.462   7.161  11.911
  880W        W 5080   8.577   3.221  11.296
  881W        W 5081   9.958   9.978   9.228
  882W        W 5082   0.331   6.097   9.409
  883W        W 5083   4.119   1.607  11.951
  884W        W 5084   8.482   1.725   8.925
  885W        W 5085  10.500   9.800   0.402
  886W        W 5086   4.199   7.224  10.886
  887W        W 5087   5.535   9.887   2.482
  888W        W 5088   4.981   6.902  11.934
  889W        W 5089   5.040   4.529   1.239
  890W        W 5090   4.365  11.274   2.979
  891W        W 5091   7.095   7.481   2.664
  892W        W 5092  11.151  10.258   2.354
  893W        W 5093   0.507   9.990   1.882
  894W        W 5094   0.816   0.684   9.102
  895W        W 5095   5.650   0.895  11.676
  896W        W 5096   7.847  10.395   0.278
  897W        W 5097   6.695   7.233   1.805
  898W        W 5098   9.425   7.330   1.863
  899W        W 5099   6.439   3.205   9.549
  900W        W 5100   6.190   7.006   3.067
  901W        W 5101   6.185   3.553  10.287
  902W        W 5102   3.388   9.333   0.272
  903W        W 5103   3.873   1.658  10.922
  904W        W 5104   2.010   0.458   9.521
  905W        W 5105   1.905   1.552   2.740
  906W        W 5106   5.162   6.944   9.233
  907W        W 5107  10.614   5.046  10.339
  908W        W 5108   8.959   9.317   9.335
  909W        W 5109   1.356   3.143   9.782
  910W        W 5110   3.817   3.722   2.170
  911W        W 5111   5.890   7.472   9.309
  912W        W 5112   6.760   7.817   3.231
  913W        W 5113   6.419   9.940   2.918
  914W        W 5114   0.907   3.660   9.314
  915W        W 5115   5.701  10.369  10.796
  916W        W 5116   3.532   0.799  10.467
  917W        W 5117   7.099   6.926   9.780
  918W        W 5118   9.736  11.439  10.331
  919W        W 5119   4.962   8.354   0.258
  920W        W 5120   7.056   0.496   2.697
  921W        W 5121   0.314   7.346  10.334
  922W        W 5122   3.570  10.351   2.520
  923W        W 5123   6.957   7.425   9.815
  924W        W 5124   9.049   6.454   8.378
  925W        W 5125   3.940   9.841  11.563
  926W        W 5126  10.423   7.658  11.527
  927W        W 5127   9.919   6.689  10.761
  928W        W 5128   2.834   1.410   3.363
  929W        W 5129   2.964   9.860   9.483
  930W        W 5130   7.640   6.679   0.320
  931W        W 5131   9.354  10.574   0.375
  932W        W 5132   0.236   4.606   0.820
  933W        W 5133  11.065   2.663  10.788
  934W        W 5134   1.822  10.403   2.603
  935W        W 5135   2.447   0.694   1.637
  936W        W 5136   9.815   4.153  11.915
  937W        W 5137  10.027   3.683  11.125
  938W        W 5138   1.417   7.578   3.348
  939W        W 5139   5.041   3.636  10.065
  940W        W 5140   8.650  10.512   0.895
  941W        W 5141   1.892   8.380   1.534
  942W        W 5142   9.340   2.893   1.563
  943W        W 5143   9.239   5.745   8.468
  944W        W 5144   6.769   7.567   0.788
  945W        W 5145   3.129   7.448   0.215
  946W        W 5146   4.828   9.481   3.254
  947W        W 5147   4.483   1.203  11.460
  948W        W 5148   7.612   3.341   2.454
  949W        W 5149   3.134  10.360  11.789
  950W        W 5150   6.687   8.982   9.830
  951W        W 5151   0.326   2.614   9.980
  952W        W 5152   2.321   7.205   9.054
  953W        W 5153   6.251   3.773  11.445
  954W        W 5154   0.694   7.299   2.661
  955W        W 5155   3.635   9.403   0.738
  956W        W 5156   0.521   1.728   9.039
  957W        W 5157  11.449   0.025   8.895
  958W        W 5158   6.749   9.793   0.377
  959W        W 5159   5.890   7.294  11.682
  960W        W 5160   4.954   7.982  10.664
  961W        W 5161   3.278   2.140   9.210
  962W        W 5162   3.712   1.978  11.308
  963W        W 5163   7.248   3.111  10.132
  964W        W 5164   7.726   9.551   0.242
  965W        W 5165   9.959   4.985   9.232
  966W        W 5166   4.461  11.011   0.891
  967W        W 5167   9.776   2.396  11.295
  968W        W 5168  10.807   9.407   9.097
  969W        W 5169   5.285   5.095   0.365
  970W        W 5170   9.154   5.944  10.223
  971W        W 5171   6.099   9.496   2.982
  972W        W 5172  11.294   6.527  11.879
  973W        W 5173   1.005   0.279   9.584
  974W        W 5174   1.019   0.506  10.416
  975W        W 5175   7.342   7.944  10.437
  976W        W 5176   0.214   0.784   2.848
  977W        W 5177   6.107   7.554  11.279
  978W        W 5178   4.544   4.540   1.339
  979W        W 5179  10.352  10.838   1.972
  980W        W 5180   3.082   0.836   1.223
  981W        W 5181   8.619   4.718   1.740
  982W        W 5182   4.705   7.583  10.311
  983W        W 5183   8.610   4.838  11.969
  984W        W 5184   3.221   7.393  11.714
  985W        W 5185   7.280   2.318   1.843
  986W        W 5186   8.439   2.723   3.560
  987W        W 5187   5.691  10.831   9.460
  988W        W 5188  11.377   8.653  11.631
  989W        W 5189   9.005   4.538   8.336
  990W        W 5190   9.290   0.333   1.056
  991W        W 5191   7.062   5.512  11.983
  992W        W 5192   3.931   2.108   2.898
  993W        W 5193   8.118   6.564   1.356
  994W        W 5194   3.910   6.651   8.974
  995W        W 5195   5.274  11.476   9.694
  996W        W 5196   6.917   8.608   1.324
  997W        W 5197  10.921  10.085  11.883
  998W        W 5198   1.881   5.026  10.753
  999W        W 5199   4.285   8.161   1.397
 1000W        W 5200   0.968   5.004   2.619
 1001W        W 5201  10.387   8.961  11.872
 1002W        W 5202   2.685   1.189  10.317
 1003W        W 5203   8.888   2.789   1.809
 1004W        W 5204   7.959   9.043   2.638
 1005W        W 5205   7.139   3.087  10.651
 1006W        W 5206  11.024   5.673  11.855
 1007W        W 5207   2.706   3.116   9.868
 1008W        W 5208   3.937   0.751   1.609
 1009W        W 5209   7.243   8.996  11.258
 1010W        W 5210   7.599   3.624  10.943
 1011W        W 5211   2.681   4.113   1.520
 1012W        W 5212   1.377   3.876   3.390
 1013W        W 5213  10.910  10.631   1.691
 1014W        W 5214   0.786   6.063   2.349
 1015W        W 5215  10.154   8.103   8.839
 1016W        W 5216   3.771  10.460   1.933
 1017W        W 5217  10.768   2.330   9.287
 1018W        W 5218   0.544   0.486   9.497
 1019W        W 5219   6.130  11.447   3.368
 1020W        W 5220   5.254   7.254   2.786
 1021W        W 5221   9.468  10.684   3.257
 1022W        W 5222   0.064   5.868   3.592
 1023W        W 5223   5.997   9.953   3.236
 1024W        W 5224   5.171   6.538   9.593
 1025W        W 5225   6.740  10.960  10.320
 1026W        W 5226   7.886   2.220  10.244
 1027W        W 5227   0.186  10.912   1.771
 1028W        W 5228   9.095   5.075   8.132
 1029W        W 5229   5.634   3.738   0.266
 1030W        W 5230   0.886   2.830   3.141
 1031W        W 5231   1.297   2.541  10.420
 1032W        W 5232   9.085   2.096   9.460
 1033W        W 5233   6.874   8.108  10.693
 1034W        W 5234   2.912   8.050   0.007
 1035W        W 5235   4.066   0.189   2.314
 1036W        W 5236   9.432   3.718   8.965
 1037W        W 5237  10.793   6.586   0.098
 1038W        W 5238   8.234   4.875   0.546
 1039W        W 5239   0.898  11.156   8.988
 1040W        W 5240  10.976   9.745   8.717
 1041W        W 5241   8.876   7.646   3.181
 1042W        W 5242   0.905   2.057   8.720
 1043W        W 5243   5.929   1.280   1.206
 1044W        W 5244   5.750   5.791   2.501
 1045W        W 5245   7.454   8.571   9.636
 1046W        W 5246  11.226   0.725   2.558
 1047W        W 5247   9.010   9.004  10.723
 1048W        W 5248   5.595   4.536  11.193
 1049W        W 5249   2.867   0.434   0.751
 1050W        W 5250   4.182  10.091   8.756
 1051W        W 5251   3.187   6.726  10.775
 1052W        W 5252   0.466  11.475   8.731
 1053W        W 5253   7.096   0.781   1.830
 1054W        W 5254   5.240   0.013   3.537
 1055W        W 5255   1.584   7.205  10.226
 1056W        W 5256   4.761   8.622   8.588
 1057W        W 5257   3.507   0.281   3.242
 1058W        W 5258   3.198   5.744   1.534
 1059W        W 5259   7.290   6.072   1.425
 1060W        W 5260   6.129   2.164   1.272
 1061W        W 5261   3.660   8.526   3.193
 1062W        W 5262   7.594   9.710   2.324
 1063W        W 5263   4.833   9.621  10.271
 1064W        W 5264   5.495   7.608   1.248
 1065W        W 5265   7.430   4.955   9.476
 1066W        W 5266  11.343   0.830  10.002
 1067W        W 5267   3.203   9.407   3.178
 1068W        W 5268   5.661   7.519   1.698
 1069W        W 5269   2.785   4.574  11.180
 1070W        W 5270   9.816   1.881  11.380
 1071W        W 5271   0.190   1.322   8.917
 1072W        W 5272   9.529   3.139  11.056
 1073W        W 5273   1.430   3.926  10.435
 1074W        W 5274   4.312   4.161   0.641
 1075W        W 5275   5.711  10.323   2.261
 1076W        W 5276   9.138   3.197   2.590
 1077W        W 5277   5.827  11.122   1.733
 1078W        W 5278   1.218   2.781   3.517
 1079W        W 5279  10.925  11.432  10.890
 1080W        W 5280   7.666  11.316   2.137
 1081W        W 5281   7.057   1.015   2.680
 1082W        W 5282   2.526   4.369  11.584
 1083W        W 5283   1.001   4.594  10.912
 1084W        W 5284   2.040   1.463   8.484
 1085W        W 5285   7.306   2.212  11.882
 1086W        W 5286   0.776   3.762   1.318
 1087W        W 5287   9.765   9.512   2.001
 1088W        W 5288   7.768   3.880  11.376
 1089W        W 5289   6.442   7.429   3.167
 1090W        W 5290   8.630   5.127   0.408
 1091W        W 5291   4.796   9.098   3.586
 1092W        W 5292   4.283   6.503   9.516
 1093W        W 5293   4.171   4.158   1.215
 1094W        W 5294   8.085   5.165   3.942
 1095W        W 5295   7.083   3.958   9.501
 1096W        W 5296   2.859   1.268   9.277
 1097W        W 5297   5.520   3.247   3.061
 1098W        W 5298   6.949   0.978   9.356
 1099W        W 5299   7.977   9.434   2.984
 1100W        W 5300   4.532   6.523   9.958
 1101W        W 5301   5.131   2.384   1.363
 1102W        W 5302   4.538   6.552  11.463
 1103W        W 5303   7.687   7.498   0.852
 1104W        W 5304   5.459  10.374   0.274
 1105W        W 5305  10.937   2.279  11.975
 1106W        W 5306   5.111   2.043  10.442
 1107W        W 5307   4.665   5.592  11.010
 1108W        W 5308   2.888   0.857   2.648
 1109W        W 5309   1.182   0.434   0.219
 1110W        W 5310  10.480   0.793   1.899
 1111W        W 5311   6.046   7.873  10.522
 1112W        W 5312   5.175   4.428   3.442
 1113W        W 5313   0.507   6.198   8.892
 1114W        W 5314   3.816   4.076   0.852
 1115W        W 5315   4.846   2.761   9.012
 1116W        W 5316   3.311   9.138  10.561
 1117W        W 5317   6.691   9.020  11.694
 1118W        W 5318   5.818   3.250  11.673
 1119W        W 5319   5.088   4.669   2.181
 1120W        W 5320   5.331   6.099   9.987
 1121W        W 5321   4.603   5.103  10.698
 1122W        W 5322   5.247   0.319   1.813
 1123W        W 5323   2.611  10.921   1.558
 1124W        W 5324   1.800   7.784  10.921
 1125W        W 5325   3.633   0.737   0.193
 1126W        W 5326   9.366   0.382  11.815
 1127W        W 5327   4.976   0.221   8.833
 1128W        W 5328   8.159   8.927  11.235
 1129W        W 5329   7.464   0.162  11.941
 1130W        W 5330  10.345  10.342   3.106
 1131W        W 5331   0.604   8.782   1.298
 1132W        W 5332   7.500   9.402   3.314
 1133W        W 5333   0.486   8.188   2.110
 1134W        W 5334  10.450   6.931   1.864
 1135W        W 5335   6.430   0.048  11.903
 1136W        W 5336   5.722   7.567   2.199
 1137W        W 5337   6.990   6.518  11.800
 1138W        W 5338   9.885   8.090   1.281
 1139W        W 5339   6.061   9.618   9.155
 1140W        W 5340   7.213  10.877   3.304
 1141W        W 5341   5.245  11.284   0.465
 1142W        W 5342   4.598  11.404  10.611
 1143W        W 5343  10.450   0.988   8.809
 1144W        W 5344   6.184   2.970   1.711
 1145W        W 5345  11.260   2.710   1.398
 1146W        W 5346   0.928   7.050  11.968
 1147W        W 5347   9.470  10.741   2.753
 1148W        W 5348  10.881   1.119  10.181
 1149W        W 5349   3.432   0.849   1.648
 1150W        W 5350   8.838   2.462   0.917
 1151W        W 5351   8.469  10.242   1.306
 1152W        W 5352   0.979   7.092   9.265
 1153W        W 5353   7.402   1.120   0.740
 1154W        W 5354   6.633   7.568   0.292
 1155W        W 5355   5.087   9.853  11.795
 1156W        W 5356  11.052   3.224   1.326
 1157W        W 5357   1.412   1.461  10.638
 1158W        W 5358   5.010   1.695   2.289
 1159W        W 5359   0.117   6.477   0.516
 1160W        W 5360   0.374   6.641  11.516
 1161W        W 5361   4.822   3.306  11.455
 1162W        W 5362   4.801  11.321  11.580
 1163W        W 5363   7.954   4.428   2.055
 1164W        W 5364   5.132   0.868   2.494
 1165W        W 5365   9.808   0.905   1.095
 1166W        W 5366   8.765   3.585   8.641
 1167W        W 5367   4.101   2.382   9.805
 1168W        W 5368   2.469   1.885   0.972
 1169W        W 5369   0.450  10.810   3.442
 1170W        W 5370   0.112   8.216  10.403
 1171W        W 5371   2.265   9.660   8.933
 1172W        W 5372   5.035   5.655   1.375
 1173W        W 5373   9.317   4.212   9.066
 1174W        W 5374  11.265   5.235   0.543
 1175W        W 5375   1.763   1.039   8.800
 1176W        W 5376   3.573   7.221   1.037
 1177W        W 5377   3.621   4.935   9.448
 1178W        W 5378   7.377  10.884   1.231
 1179W        W 5379   3.135   1.183  11.071
 1180W        W 5380   9.884   9.008  11.085
 1181W        W 5381   3.437   7.468   9.851
 1182W        W 5382  11.226   1.856  11.891
 1183W        W 5383  11.473   1.294   9.811
 1184W        W 5384   7.871   4.611   1.263
 1185W        W 5385   7.878  10.682  10.494
 1186W        W 5386  10.011   5.239   2.939
 1187W        W 5387   7.484   4.114  10.931
 1188W        W 5388   0.078   0.855  11.737
 1189W        W 5389   5.821   1.336  11.867
 1190W        W 5390   2.781   4.063  10.994
 1191W        W 5391   6.771   8.189  11.595
 1192W        W 5392   9.207   1.148  10.422
 1193W        W 5393   4.816   0.166   9.854
 1194W        W 5394   8.011   5.221   1.432
 1195W        W 5395   5.048  10.907   1.742
 1196W        W 5396   8.309  10.986   0.933
 1197W        W 5397  10.276   8.957   0.996
 1198W        W 5398  11.313   5.036   3.354
 1199W        W 5399   1.726   5.203   8.981
 1200W        W 5400   2.572   7.992   0.943
 1201W        W 5401   6.124   6.689   3.732
 1202W        W 5402   7.028   5.643   1.453
 1203W        W 5403   8.726   4.069   2.275
 1204W        W 5404   0.027   1.886   9.081
 1205W        W 5405   9.061   2.380   2.985
 1206W        W 5406   1.430   1.750   0.178
 1207W        W 5407   1.757   2.379   1.795
 1208W        W 5408   0.822   9.805   9.882
 1209W        W 5409   6.891   9.938  10.920
 1210W        W 5410   4.552   4.819   8.266
 1211W        W 5411   7.924   8.940  10.389
 1212W        W 5412   4.653   3.812   0.860
 1213W        W 5413   8.957   9.869  10.609
 1214W        W 5414   1.979   7.557  11.354
 1215W        W 5415   6.027   3.595   4.118
 1216W        W 5416   0.009   0.412  10.396
 1217W        W 5417   8.002  10.782  11.546
 1218W        W 5418   5.836   3.106   1.375
 1219W        W 5419   2.291   4.101  10.580
 1220W        W 5420   0.684   8.737   9.026
 1221W        W 5421   6.219   4.547   9.390
 1222W        W 5422  11.375   9.788   1.631
 1223W        W 5423   1.792  10.094  11.578
 1224W        W 5424   0.934   1.920   9.356
 1225W        W 5425   8.453   9.529   2.796
 1226W        W 5426   5.481   0.847   9.584
 1227W        W 5427   5.415   3.325   1.101
 1228W        W 5428   9.220   2.032   0.397
 1229W        W 5429   5.624   8.983   2.000
 1230W        W 5430  10.020   9.931   2.710
 1231W        W 5431   6.643   4.188   3.163
 1232W        W 5432   9.932   9.871   1.219
 1233W        W 5433   9.208   0.620  10.417
 1234W        W 5434   3.789   8.033  10.006
 1235W        W 5435   8.714   2.193   0.249
 1236W        W 5436   9.092   9.480   1.375
 1237W        W 5437   1.835   2.642  10.120
 1238W        W 5438   8.904   7.191   9.995
 1239W        W 5439   5.626   9.547   8.910
 1240W        W 5440   3.123   2.370  10.128
 1241W        W 5441   1.262   4.724   0.142
 1242W        W 5442  11.440   1.884   1.979
 1243W        W 5443   9.485   5.087   9.044
 1244W        W 5444  11.238  11.261   0.548
 1245W        W 5445   2.592  10.764   9.567
 1246W        W 5446   8.547   9.539   0.795
 1247W        W 5447   3.871   0.426   9.687
 1248W        W 5448   5.940   4.741  11.841
 1249W        W 5449   0.773   0.089   0.269
 1250W        W 5450   7.200   2.303   9.354
 1251W        W 5451   2.583   2.330   0.416
 1252W        W 5452   3.192   1.754   2.505
 1253W        W 5453  10.857   7.992  11.600
 1254W        W 5454   8.489   1.754   1.864
 1255W        W 5455   9.365   7.626   3.080
 1256W        W 5456   8.519   5.750  11.832
 1257W        W 5457   5.639   2.128  10.892
 1258W        W 5458   2.164   6.574   8.514
 1259W        W 5459  10.880   4.132   9.106
 1260W        W 5460   4.821  10.238   9.158
 1261W        W 5461   3.352   6.095  10.198
 1262W        W 5462  11.244   2.339   2.928
 1263W        W 5463   1.154   1.792  10.309
 1264W        W 5464   8.897   9.938   2.040
 1265W        W 5465   3.218   1.594   9.600
 1266W        W 5466   0.749  10.693   8.796
 1267W        W 5467  10.525   1.338  11.043
 1268W        W 5468  11.368   8.827  11.150
 1269W        W 5469   8.757   3.197   3.538
 1270W        W 5470   2.192  11.383   1.392
 1271W        W 5471   3.442  11.142   2.535
 1272W        W 5472   5.899   4.170  11.454
 1273W        W 5473   2.269   9.050   0.995
 1274W        W 5474   0.891   0.437   2.638
 1275W        W 5475   7.652  11.090   2.581
 1276W        W 5476   3.797   8.155   8.715
 1277W        W 5477   6.131   6.507   0.280
 1278W        W 5478  11.349   7.421  11.922
 1279W        W 5479   1.554   4.383   8.977
 1280W        W 5480   5.528  11.394   2.654
 1281W        W 5481  11.436   7.586   1.100
 1282W        W 5482   6.125   4.842   0.849
 1283W        W 5483   4.667   3.583  10.979
 1284W        W 5484   8.516   2.475   1.357
 1285W        W 5485   1.952  10.883  10.944
 1286W        W 5486   7.705   4.380   3.271
 1287W        W 5487   6.678   8.366   8.992
 1288W        W 5488   7.729   2.245   2.688
 1289W        W 5489   1.595   7.050  11.527
 1290W        W 5490   7.082   1.883  11.281
 1291W        W 5491   5.596   6.612   2.641
 1292W        W 5492   9.021   3.324   1.141
 1293W        W 5493   9.402   7.454   0.419
 1294W        W 5494   8.007   2.937  11.878
 1295W        W 5495   0.506   7.110  11.719
 1296W        W 5496  10.972  10.948   2.608
 1297W        W 5497   5.436   2.367   3.509
 1298W        W 5498   1.105   2.454  11.678
 1299W        W 5499   9.940   9.462   2.482
 1300W        W 5500   0.948   8.335   8.337
 1301W        W 5501   9.177   4.215   2.118
 1302W        W 5502   6.157  10.402   1.973
 1303W        W 5503   5.662   4.148   3.532
 1304W        W 5504   3.759   9.820   8.909
 1305W        W 5505  11.027  11.015  10.478
 1306W        W 5506   3.812   9.809  10.608
 1307W        W 5507   2.541   7.514   1.146
 1308W        W 5508  10.894  10.015   0.886
 1309W        W 5509   0.956   3.651   1.811
 1310W        W 5510   2.140   0.851   9.881
 1311W        W 5511   7.016   1.292   0.998
 1312W        W 5512   6.694   4.318  11.767
 1313W        W 5513  10.934   8.524   1.878
 1314W        W 5514   1.042   0.824  10.867
 1315W        W 5515   3.602  11.238  10.386
 1316W        W 5516   9.329   1.052   2.569
 1317W        W 5517   9.504   2.414   0.113
 1318W        W 5518   1.763  10.822   0.128
 1319W        W 5519  10.031   6.104  11.974
 1320W        W 5520   6.559   4.767   1.131
 1321W        W 5521   2.773   7.401   8.906
 1322W        W 5522   8.954  11.475   3.235
 1323W        W 5523  10.985  10.054   3.660
 1324W        W 5524   1.102   5.632   3.345
 1325W        W 5525   2.400   7.921   1.450
 1326W        W 5526   0.423   3.151   2.790
 1327W        W 5527   6.415   6.682   0.664
 1328W        W 5528   3.157  10.100   3.297
 1329W        W 5529   3.600   0.377   1.441
 1330W        W 5530   2.560   1.098   9.682
 1331W        W 5531   3.326   7.156   0.578
 1332W        W 5532  11.062   1.667   9.328
 1333W        W 5533   2.617   3.503  11.801
 1334W        W 5534   5.729   5.254   1.210
 1335W        W 5535   6.159   2.892  11.804
 1336W        W 5536   6.015   1.316  10.295
 1337W        W 5537   4.626   7.955  11.547
 1338W        W 5538  11.321   9.300   9.098
 1339W        W 5539  11.320   9.782   0.714
 1340W        W 5540   7.472   6.847   9.421
 1341W        W 5541   3.320  10.621   9.124
 1342W        W 5542   2.248   6.918   2.290
 1343W        W 5543   8.736   4.700  10.604
 1344W        W 5544   8.971   3.282   3.074
 1345W        W 5545   7.478   7.033   2.683
 1346W        W 5546   9.090   6.478   0.945
 1347W        W 5547   5.340   0.027   9.164
 1348W        W 5548   0.876   9.790  11.820
 1349W        W 5549  10.721  11.125   1.777
 1350W        W 5550   5.772  10.472   2.796
 1351W        W 5551   3.919   1.591   2.079
 1352W        W 5552   3.226   4.656  11.862
 1353W        W 5553   7.046   9.503   3.031
 1354W        W 5554   4.054   1.294  10.614
 1355W        W 5555   3.590  10.724  10.344
 1356W        W 5556   5.393   4.045  11.416
 1357W        W 5557   6.963   9.026   1.069
 1358W        W 5558   8.903   1.437  10.144
 1359W        W 5559   1.933   3.867  10.284
 1360W        W 5560   0.243   5.013   9.433
 1361W        W 5561   3.350   7.641  11.290
 1362W        W 5562   6.491   2.589   1.827
 1363W        W 5563   4.162  11.278   9.414
 1364W        W 5564   1.255   4.382   3.447
 1365W        W 5565   4.083   8.191   2.280
 1366W        W 5566   5.624   1.201  10.894
 1367W        W 5567   1.837   7.101   9.791
 1368W        W 5568   1.803   3.603  11.716
 1369W        W 5569   3.106   8.693   1.320
 1370W        W 5570   8.178   7.655   0.815
 1371W        W 5571   4.576   1.860   9.410
 1372W        W 5572   7.719   1.464   2.193
 1373W        W 5573   7.644   1.405   9.242
 1374W        W 5574   9.352   0.361   8.178
 1375W        W 5575   3.291   2.568   3.552
 1376W        W 5576   2.949   9.636   1.666
 1377W        W 5577   1.296   0.286  10.044
 1378W        W 5578   3.988   4.059  10.558
 1379W        W 5579   2.180   5.309   1.137
 1380W        W 5580   5.107   3.609   3.951
 1381W        W 5581   3.746   8.796  11.111
 1382W        W 5582   7.109   8.926   9.530
 1383W        W 5583   9.047  10.346   9.292
 1384W        W 5584   6.598   1.401   3.358
 1385W        W 5585   2.160  10.024   3.172
 1386W        W 5586   4.158   6.213  10.777
 1387W        W 5587   4.146   9.363   0.753
 1388W        W 5588   4.564   0.066   2.325
 1389W        W 5589   1.431   1.135  11.042
 1390W        W 5590   2.684  11.142  11.752
 1391W        W 5591   8.486   1.003   1.107
 1392W        W 5592   5.082   3.274  10.968
 1393W        W 5593   9.325   0.787   2.991
 1394W        W 5594   3.291   2.626   2.937
 1395W        W 5595  11.228   2.196   3.431
 1396W        W 5596   8.527   9.610   3.620
 1397W        W 5597   5.989   7.295   8.596
 1398W        W 5598   3.083   2.363   0.464
 1399W        W 5599   3.614  10.604  11.754
 1400W        W 5600   2.343   4.144   0.867
 1401W        W 5601   8.437   0.752  10.710
 1402W        W 5602  10.300  10.470   9.742
 1403W        W 5603   2.741   7.857   0.456
 1404W        W 5604   8.428   8.831   8.552
 1405W        W 5605   8.189   5.990   8.283
 1406W        W 5606   5.690  10.291   1.736
 1407W        W 5607   6.602   8.093   0.730
 1408W        W 5608   5.668   2.327   8.676
 1409W        W 5609   3.495   1.906   2.123
 1410W        W 5610   3.312   5.715  10.547
 1411W        W 5611  11.309   2.732   3.499
 1412W        W 5612   6.024   2.825   3.650
 1413W        W 5613   6.202  10.539   1.493
 1414W        W 5614   9.674   1.458  11.117
 1415W        W 5615  10.431   0.707   0.465
 1416W        W 5616   2.577   5.654   2.621
 1417W        W 5617   6.083   8.855   2.776
 1418W        W 5618   5.584   8.638   9.914
 1419W        W 5619  10.990   9.908   0.362
 1420W        W 5620   6.540   4.377   8.956
 1421W        W 5621   8.682   8.102   0.055
 1422W        W 5622   7.435   4.323  10.307
 1423W        W 5623   4.646   5.633  10.497
 1424W        W 5624   8.820   4.807   0.800
 1425W        W 5625   4.920   9.625   3.718
 1426W        W 5626   2.392   7.060   1.432
 1427W        W 5627   9.951   2.831  11.094
 1428W        W 5628   1.371   1.645   9.329
 1429W        W 5629   9.696   9.191   0.417
 1430W        W 5630  10.423   1.663   0.223
 1431W        W 5631   4.187   4.695   9.353
 1432W        W 5632   2.226   6.397   9.395
 1433W        W 5633   9.557   6.532   9.074
 1434W        W 5634   7.711   9.416  10.268
 1435W        W 5635   2.395   8.166   1.898
 1436W        W 5636   8.087   8.611   8.913
 1437W        W 5637   9.730   2.087   0.743
 1438W        W 5638   8.980   7.510  11.502
 1439W        W 5639   8.470   4.748   2.675
 1440W        W 5640   8.615   6.490   9.638
 1441W        W 5641   1.692  10.978   1.858
 1442W        W 5642   8.144   6.429   9.453
 1443W        W 5643  11.342   6.030   3.146
 1444W        W 5644   8.042   0.270  11.330
 1445W        W 5645   7.570   7.166   0.487
 1446W        W 5646   0.324   5.846   2.267
 1447W        W 5647   5.215  10.808  10.253
 1448W        W 5648   7.359   7.833   2.355
 1449W        W 5649   6.051   2.009   8.866
 1450W        W 5650   6.349   6.087  10.108
 1451W        W 5651   8.689   4.075   3.347
 1452W        W 5652   5.603   9.301  11.309
 1453W        W 5653   7.262   9.753   0.040
 1454W        W 5654   8.666   3.719   0.422
 1455W        W 5655   8.874  11.187  11.918
 1456W        W 5656   4.962  11.175   0.902
 1457W        W 5657   4.892   3.268   9.174
 1458W        W 5658   1.928   4.750   8.896
 1459W        W 5659   5.440   6.606  10.353
 1460W        W 5660   1.249   1.243   0.046
 1461W        W 5661   6.221   8.008   0.245
 1462W        W 5662   9.773   8.628   0.579
 1463W        W 5663  10.772   2.791   1.210
 1464W        W 5664   0.294  10.354  11.314
 1465W        W 5665   6.014   0.882   0.043
 1466W        W 5666   1.374   9.094  11.642
 1467W        W 5667   2.292   1.444  10.601
 1468W        W 5668   2.088   9.360   9.352
 1469W        W 5669   5.264   9.251   3.275
 1470W        W 5670   6.509   9.502   2.269
 1471W        W 5671   5.979   5.512  10.350
 1472W        W 5672   8.457   3.062   3.108
 1473W        W 5673   3.913   0.419  10.932
 1474W        W 5674   7.255   5.072   9.961
 1475W        W 5675   7.589   5.888  11.217
 1476W        W 5676   2.945   1.262   0.423
 1477W        W 5677   8.419   9.753   1.270
 1478W        W 5678  10.704   5.265  11.776
 1479W        W 5679   3.183   4.588   3.468
 1480W        W 5680   0.574   0.802  11.748
 1481W        W 5681   8.590   6.959  10.302
 1482W        W 5682   0.680   8.152  10.043
 1483W        W 5683   0.359   0.759  11.280
 1484W        W 5684   5.949   9.004   1.025
 1485W        W 5685   4.750   0.485   1.813
 1486W        W 5686   2.843   0.450   8.944
 1487W        W 5687   7.796   3.080   2.875
 1488W        W 5688   9.098   3.334   9.442
 1489W        W 5689   2.826   4.230   3.508
 1490W        W 5690   1.746   2.699  10.631
 1491W        W 5691  10.867   9.899   9.220
 1492W        W 5692   0.293   7.636  10.849
 1493W        W 5693   9.142   6.216   2.284
 1494W        W 5694   7.486   5.743  11.724
 1495W        W 5695   5.947   5.187  11.386
 1496W        W 5696   1.453   6.191   1.659
 1497W        W 5697   1.893   6.137   1.400
 1498W        W 5698  10.941   4.070   0.606
 1499W        W 5699   9.467   5.946   9.763
 1500W        W 5700   2.576   5.251  11.816
 1501W        W 5701   7.918   1.347   3.149
 1502W        W 5702   2.384   0.973  11.999
 1503W        W 5703   6.125   1.262  10.794
 1504W        W 5704   5.245   1.556  10.594
 1505W        W 5705   0.058   0.334   9.486
 1506W        W 5706   0.388   8.430   0.969
 1507W        W 5707   2.078   4.042  11.401
 1508W        W 5708   2.876   0.323   9.922
 1509W        W 5709   0.269   5.574   2.714
 1510W        W 5710   6.459   2.067  11.853
 1511W        W 5711   4.255   2.554  11.880
 1512W        W 5712   3.564   2.081  10.001
 1513W        W 5713   1.020   2.070   0.072
 1514W        W 5714   6.567   8.145   9.483
 1515W        W 5715   0.123  10.429   2.417
 1516W        W 5716   1.309   3.999   1.959
 1517W        W 5717   4.342  10.979   9.010
 1518W        W 5718  10.940   6.723   9.748
 1519W        W 5719   1.642  10.358   3.566
 1520W        W 5720   2.506   5.787  10.001
 1521W        W 5721   4.890   2.345   3.439
 1522W        W 5722   3.287   5.014  10.052
 1523W        W 5723   2.111   4.582  11.395
 1524W        W 5724  11.332   3.314  10.580
 1525W        W 5725   1.677   7.470   1.717
 1526W        W 5726   6.581   0.763   8.896
 1527W        W 5727   7.827   9.876  11.309
 1528W        W 5728  10.664   4.291  11.774
 1529W        W 5729   6.817   1.002  11.516
 1530W        W 5730   3.179   9.757   0.471
 1531W        W 5731   3.750   2.780   1.184
 1532W        W 5732   7.359   5.587  10.816
 1533W        W 5733   7.155   4.856  11.169
 1534W        W 5734   8.523   8.646   4.087
 1535W        W 5735   7.972   5.719  10.052
 1536W        W 5736  10.541   5.994   2.754
 1537W        W 5737   6.459   4.728  10.180
 1538W        W 5738   2.493   0.518   8.564
 1539W        W 5739   3.309   2.741  10.439
 1540W        W 5740   5.692   1.810   8.531
 1541W        W 5741   5.827   6.109   1.328
 1542W        W 5742   1.836   7.444   9.065
 1543W        W 5743   9.965   9.839  11.726
 1544W        W 5744   1.483   3.307   2.706
 1545W        W 5745   7.749   0.078   0.371
 1546W        W 5746   8.492  11.419   2.119
 1547W        W 5747   5.191   3.930   3.564
 1548W        W 5748   3.794   8.506   0.727
 1549W        W 5749   7.943   1.447   2.658
 1550W        W 5750   3.734   0.710   0.736
 1551W        W 5751   8.041   8.453   2.359
 1552W        W 5752  10.477   2.302   2.977
 1553W        W 5753   2.213   8.114   9.939
 1554W        W 5754  10.973   7.195  10.990
 1555W        W 5755   4.553   3.520   8.634
 1556W        W 5756   5.034   3.574   8.788
 1557W        W 5757   3.833   1.248   1.693
 1558W        W 5758  11.043   0.399   2.919
 1559W        W 5759  10.559   5.213   2.248
 1560W        W 5760   7.192   5.261  10.439
 1561W        W 5761   4.789   3.566   2.460
 1562W        W 5762   8.933   1.981   8.974
 1563W        W 5763   8.624   3.334   0.790
 1564W        W 5764   5.697   2.719   0.016
 1565W        W 5765   4.584  10.770   9.436
 1566W        W 5766   0.829   4.710  10.445
 1567W        W 5767   2.821   1.350   2.840
 1568W        W 5768   5.285   5.086   1.977
 1569W        W 5769   3.291   7.488   8.985
 1570W        W 5770   5.551   2.688   1.421
 1571W        W 5771   4.252   0.754   9.074
 1572W        W 5772   5.536   4.961  10.879
 1573W        W 5773  10.351   4.759  10.720
 1574W        W 5774  10.902   9.832   2.178
 1575W        W 5775   7.947   6.555   2.290
 1576W        W 5776   0.368   5.658   1.050
 1577W        W 5777   8.601   0.741   9.877
 1578W        W 5778  10.497   2.398  11.040
 1579W        W 5779   8.009   7.896   1.797
 1580W        W 5780   5.544   3.813   1.094
 1581W        W 5781   9.109   8.398   0.033
 1582W        W 5782   9.697   5.076  10.025
 1583W        W 5783   9.947   9.101   9.598
 1584W        W 5784  11.289   7.215   0.785
 1585W        W 5785   4.672  10.701  11.030
 1586W        W 5786   9.518  10.084   0.358
 1587W        W 5787   0.717   0.634   0.224
 1588W        W 5788   2.783   6.640   1.797
 1589W        W 5789   3.174   0.433  10.517
 1590W        W 5790   4.807   5.139   0.520
 1591W        W 5791   0.796   4.532   9.895
 1592W        W 5792   1.528   1.877   1.138
 1593W        W 5793   3.977   2.638   9.079
 1594W        W 5794   4.426   6.629   9.048
 1595W        W 5795   9.490   0.080   9.910
 1596W        W 5796  10.568   8.546   0.826
 1597W        W 5797  10.798   2.698   0.708
 1598W        W 5798   0.836  11.070   3.255
 1599W        W 5799   9.006  11.350   2.221
 1600W        W 5800  10.415   3.820  10.842
 1601W        W 5801   1.740   7.253  10.710
 1602W        W 5802   0.850  11.391   2.451
 1603W        W 5803   4.018   1.091   1.221
 1604W        W 5804   0.113   4.594   9.182
 1605W        W 5805  11.381  10.837   1.321
 1606W        W 5806   1.278   8.637  11.395
 1607W        W 5807   1.830   3.405   8.884
 1608W        W 5808   4.346   2.279  10.497
 1609W        W 5809   0.680   3.286   3.184
 1610W        W 5810   2.975   9.516   2.723
 1611W        W 5811   7.604   7.201  11.971
 1612W        W 5812   1.644   0.170  10.757
 1613W        W 5813   7.402   9.839  11.556
 1614W        W 5814  11.391   4.549  11.482
 1615W        W 5815  11.053   2.050   8.962
 1616W        W 5816   8.582   6.480  10.170
 1617W        W 5817   0.262  11.002  11.947
 1618W        W 5818   2.706   6.364   3.966
 1619W        W 5819   4.632   7.047  11.578
 1620W        W 5820   9.849   1.223   1.682
 1621W        W 5821   5.191   1.329   2.782
 1622W        W 5822   1.712   4.891   1.859
 1623W        W 5823   3.774   9.880   2.644
 1624W        W 5824   8.852   2.826   2.323
 1625W        W 5825   4.471   8.209   9.042
 1626W        W 5826   6.728   3.595   9.430
 1627W        W 5827   9.817   6.984   9.073
 1628W        W 5828   4.424   2.768   9.272
 1629W        W 5829   8.633   8.881   2.451
 1630W        W 5830   2.209   0.975  10.358
 1631W        W 5831   2.526   4.511   0.550
 1632W        W 5832   6.064   7.943   9.526
 1633W        W 5833   1.546   1.305   2.238
 1634W        W 5834   4.318   1.439   1.743
 1635W        W 5835   1.474   8.661   1.487
 1636W        W 5836   2.894   2.354  11.601
 1637W        W 5837   8.381   1.376   3.389
 1638W        W 5838   5.013   7.232   9.628
 1639W        W 5839   2.532   3.533   2.598
 1640W        W 5840  10.316   7.935   0.421
 1641W        W 5841   3.836   5.970   0.448
 1642W        W 5842   3.810   0.917  10.886
 1643W        W 5843   5.435   3.307   1.612
 1644W        W 5844   7.271   3.814  11.338
 1645W        W 5845   3.615   0.887   3.372
 1646W        W 5846   2.191   1.769  11.006
 1647W        W 5847   2.246   5.228   0.201
 1648W        W 5848   0.020   4.228  10.253
 1649W        W 5849   2.815   5.052   2.556
 1650W        W 5850   7.938   5.057   9.531
 1651W        W 5851   2.883   9.861   0.880
 1652W        W 5852   4.038   9.829   0.059
 1653W        W 5853   9.085   3.947  11.260
 1654W        W 5854  10.769  10.775   9.140
 1655W        W 5855  11.493   0.050   3.570
 1656W        W 5856   0.533   7.492   0.239
 1657W        W 5857   4.711   2.100  10.793
 1658W        W 5858   8.084   3.169   1.177
 1659W        W 5859   9.155   6.237   2.807
 1660W        W 5860   1.638   8.300   8.803
 1661W        W 5861  10.910   5.752   9.992
 1662W        W 5862   5.529   0.268   0.463
 1663W        W 5863   2.215   8.155   2.782
 1664W        W 5864   0.385  11.254   3.721
 1665W        W 5865   1.053   2.243   2.354
 1666W        W 5866   8.032   7.543   2.152
 1667W        W 5867   9.087   2.001   2.637
 1668W        W 5868   2.332   5.575  11.434
 1669W        W 5869   6.305   8.309  10.332
 1670W        W 5870   8.084   7.997  11.578
 1671W        W 5871   0.309   4.208   3.398
 1672W        W 5872  11.462   5.192   2.802
 1673W        W 5873   2.931  10.195   0.437
 1674W        W 5874   6.096   3.020   2.374
 1675W        W 5875   2.025   4.799   2.749
 1676W        W 5876   9.015  11.171  11.271
 1677W        W 5877   4.751   9.904   2.982
 1678W        W 5878   8.353   7.625  10.744
 1679W        W 5879   4.745   9.390   9.751
 1680W        W 5880   8.094   0.667  11.651
 1681W        W 5881   1.671   9.554   9.629
 1682W        W 5882   7.566   2.000   3.467
 1683W        W 5883   8.924   1.453   8.828
 1684W        W 5884   1.981   7.636   9.930
 1685W        W 5885   0.028  10.930  10.652
 1686W        W 5886   0.218   0.263  11.005
 1687W        W 5887   4.336  10.452   9.094
 1688W        W 5888   6.608   4.389   8.430
 1689W        W 5889   8.607  11.399  11.465
 1690W        W 5890   4.693   2.074   8.475
 1691W        W 5891   9.431   4.140   3.133
 1692W        W 5892   9.007   8.775   9.379
 1693W        W 5893   2.090   7.201   1.876
 1694W        W 5894   9.550   2.626  10.866
 1695W        W 5895   3.270   2.911   1.346
 1696W        W 5896   7.072   1.817   9.462
 1697W        W 5897   3.553   3.845  11.813
 1698W        W 5898  11.099   4.985  10.484
 1699W        W 5899   8.949   9.110   3.453
 1700W        W 5900  11.220   9.311   2.487
 1701W        W 5901   4.187   2.501   3.139
 1702W        W 5902   0.304   7.527   0.747
 1703W        W 5903   3.055   6.177   9.352
 1704W        W 5904   1.318   0.321  11.738
 1705W        W 5905  10.467   9.382   1.266
 1706W        W 5906   9.019   3.773  10.789
 1707W        W 5907   6.003   2.309  10.097
 1708W        W 5908  11.277   3.304  10.075
 1709W        W 5909   8.815   7.107   2.578
 1710W        W 5910   8.362   9.882  11.308
 1711W        W 5911   2.743  11.380   0.724
 1712W        W 5912   7.519   2.708   2.672
 1713W        W 5913  10.470   9.551   8.732
 1714W        W 5914   4.646   8.624   3.342
 1715W        W 5915   0.399   1.942   3.329
 1716W        W 5916   2.356   2.833   1.322
 1717W        W 5917   6.069   9.347  11.062
 1718W        W 5918   7.325   7.813   1.453
 1719W        W 5919   6.136   0.506   8.757
 1720W        W 5920   6.477  10.887   8.819
 1721W        W 5921   7.956   0.455   8.854
 1722W        W 5922   7.132   7.266   9.364
 1723W        W 5923   5.959   7.557   0.244
 1724W        W 5924   1.707   7.410   2.987
 1725W        W 5925  10.459   3.136   2.374
 1726W        W 5926   1.388   9.711   3.819
 1727W        W 5927  10.678   6.962   1.390
 1728W        W 5928   8.374   6.875   9.330
 1729W        W 5929   7.098  10.036   9.083
 1730W        W 5930   4.436   8.148   3.236
 1731W        W 5931   4.574   7.095  10.503
 1732W        W 5932   2.869   9.411  10.909
 1733W        W 5933   3.074   9.990  11.047
 1734W        W 5934   8.147   6.670  10.417
 1735W        W 5935  11.289   1.404   1.820
 1736W        W 5936   4.217   7.654   3.128
 1737W        W 5937   2.144   7.126   0.984
 1738W        W 5938   0.332   1.311   9.412
 1739W        W 5939  11.046  11.250   1.275
 1740W        W 5940   4.477   5.277   0.965
 1741W        W 5941   5.235   7.847   1.628
 1742W        W 5942   9.750   5.455   9.364
 1743W        W 5943   9.122   4.879   8.702
 1744W        W 5944  11.315   5.466  10.392
 1745W        W 5945  10.732   0.597   2.533
 1746W        W 5946   8.251   1.493   2.233
 1747W        W 5947   9.636   7.140  11.820
 1748W        W 5948   1.759   0.575  11.509
 1749W        W 5949   8.531   0.430   2.243
 1750W        W 5950  10.947   7.217   3.132
 1751W        W 5951  10.858   9.057   2.722
 1752W        W 5952   1.727   2.675  11.149
 1753W        W 5953   2.602   7.220   2.796
 1754W        W 5954   6.495   0.166   0.969
 1755W        W 5955   8.608   1.051   1.610
 1756W        W 5956   7.085   8.908  10.765
 1757W        W 5957   8.998   7.430   9.098
 1758W        W 5958   4.893   3.240   3.658
 1759W        W 5959   0.367   8.595  11.850
 1760W        W 5960   5.626   2.764   2.362
 1761W        W 5961  11.428   5.971   0.549
 1762W        W 5962   1.444   2.741   2.505
 1763W        W 5963   1.474   7.149   8.545
 1764W        W 5964   7.199   3.335  11.101
 1765W        W 5965  10.831   7.470  11.810
 1766W        W 5966   6.670   0.549   0.677
 1767W        W 5967   4.351   2.060  11.928
 1768W        W 5968  10.094   6.851  10.315
 1769W        W 5969   1.777  11.293  11.934
 1770W        W 5970   2.220   5.668   0.472
 1771W        W 5971   3.097  11.429  10.129
 1772W        W 5972   3.173   6.473   1.175
 1773W        W 5973  10.878   3.841   3.105
 1774W        W 5974   3.677   9.807   0.407
 1775W        W 5975   3.325   3.754   2.046
 1776W        W 5976   3.395  11.165  11.533
 1777W        W 5977   3.360   4.247   1.787
 1778W        W 5978   3.608   4.810   0.163
 1779W        W 5979   2.965   4.246   0.437
 1780W        W 5980   2.449  11.447   1.858
 1781W        W 5981   8.367   3.125   2.206
 1782W        W 5982   6.267  10.915   1.846
 1783W        W 5983   3.262  11.039   2.051
 1784W        W 5984   0.882   3.222   9.983
 1785W        W 5985   7.999  10.481  10.045
 1786W        W 5986   7.410   8.995  10.375
 1787W        W 5987   8.156   5.168   2.728
 1788W        W 5988   5.689  10.336   9.375
 1789W        W 5989   6.646   7.303   9.173
 1790W        W 5990   2.090   5.622   2.440
 1791W        W 5991   5.433   5.142  11.348
 1792W        W 5992   6.263   0.859   1.412
 1793W        W 5993   7.862   4.552   0.707
 1794W        W 5994   4.131   5.138  10.033
 1795W        W 5995   6.179   3.307  11.241
 1796W        W 5996  10.445   0.296   2.228
 1797W        W 5997   4.252  10.583   0.536
 1798W        W 5998   2.822   5.059   9.873
 1799W        W 5999   7.651   7.581   2.762
 1800W        W 6000   0.498   1.493  10.813
 1801W        W 6001   2.467   9.848   9.351
 1802W        W 6002   9.071   0.369   9.953
 1803W        W 6003   8.962  10.503  10.313
 1804W        W 6004   9.415   1.496   9.586
 1805W        W 6005  11.281   0.986   8.849
 1806W        W 6006   8.570   3.319   9.421
 1807W        W 6007   0.266   5.779  11.327
 1808W        W 6008   4.331   8.342  10.054
 1809W        W 6009   1.536   7.793  11.471
 1810W        W 6010   6.877   3.309   0.480
 1811W        W 6011   8.064   0.659   1.001
 1812W        W 6012   9.940  10.977   9.455
 1813W        W 6013   2.834   3.931   1.984
 1814W        W 6014   5.475   5.293   0.778
 1815W        W 6015   9.512   7.051   4.283
 1816W        W 6016   8.122  10.604   9.206
 1817W        W 6017   5.612   5.723  11.979
 1818W        W 6018  10.010   9.995   0.218
 1819W        W 6019   3.737  11.322   2.172
 1820W        W 6020   3.767   1.232  11.963
 1821W        W 6021   6.302   4.329   1.756
 1822W        W 6022   1.910   2.649   2.269
 1823W        W 6023   3.718   0.191   0.803
 1824W        W 6024  11.473   2.142   0.308
 1825W        W 6025   0.804   9.581   0.315
 1826W        W 6026   9.341   5.517  10.478
 1827W        W 6027   4.248   9.605   1.476
 1828W        W 6028   7.891   4.942  11.885
 1829W        W 6029   7.761   8.630   1.277
 1830W        W 6030   0.395   5.215   2.327
 1831W        W 6031   5.034   0.995   9.410
 1832W        W 6032   2.092   7.465   1.388
 1833W        W 6033   5.111   8.465   3.442
 1834W        W 6034   0.580   8.370  10.514
 1835W        W 6035   6.108   4.047  10.132
 1836W        W 6036  10.004   4.621  11.077
 1837W        W 6037   6.002   3.285   0.926
 1838W        W 6038   7.610  10.471   0.725
 1839W        W 6039   5.296   6.964   0.348
 1840W        W 6040   6.020   2.381  11.748
 1841W        W 6041   4.676   4.786  11.558
 1842W        W 6042   1.561   0.835  11.917
 1843W        W 6043   3.616   5.090  11.289
 1844W        W 6044   5.423   5.719   9.172
 1845W        W 6045  10.235   0.383  11.033
 1846W        W 6046   6.271   6.548   3.249
 1847W        W 6047   6.488   5.556  11.018
 1848W        W 6048   8.003   0.568   2.429
 1849W        W 6049   8.689   2.439   9.384
 1850W        W 6050  11.281   7.016  10.248
 1851W        W 6051   9.541   3.276   1.299
 1852W        W 6052   9.096   6.029   4.075
 1853W        W 6053  11.397  10.366   1.534
 1854W        W 6054   7.163   6.859   0.417
 1855W        W 6055   1.948   5.536  10.814
 1856W        W 6056   8.680   3.242  10.780
 1857W        W 6057   9.083   3.711   2.479
 1858W        W 6058   4.116   0.347  11.468
 1859W        W 6059   3.342   2.377   1.307
 1860W        W 6060   0.393   4.181   2.021
 1861W        W 6061   5.204   6.675   1.585
 1862W        W 6062   6.709   6.793   1.545
 1863W        W 6063  10.092   8.160   0.807
 1864W        W 6064   3.121   1.233   8.821
 1865W        W 6065   4.517   9.459   8.472
 1866W        W 6066   6.156   2.194   0.255
 1867W        W 6067  10.732   0.422  10.941
 1868W        W 6068   8.573   9.987   8.841
 1869W        W 6069   1.174   5.246   9.036
 1870W        W 6070   3.717   9.313   8.965
 1871W        W 6071   5.023  11.278   0.021
 1872W        W 6072  10.326   3.095   0.026
 1873W        W 6073   6.881   2.236  11.623
 1874W        W 6074   2.284   1.271  11.163
 1875W        W 6075   7.125   2.700  11.745
 1876W        W 6076   4.161   3.330   0.378
 1877W        W 6077   4.485   3.517   1.251
 1878W        W 6078   5.321   2.094   3.100
 1879W        W 6079   3.511   2.853   9.462
 1880W        W 6080   9.634   6.233   1.884
 1881W        W 6081   3.111   8.767   8.690
 1882W        W 6082   2.714   9.444  11.446
 1883W        W 6083  10.295  10.053  10.472
 1884W        W 6084   0.303   6.736  11.006
 1885W        W 6085   2.360   9.881   0.874
 1886W        W 6086  10.082   9.524   0.397
 1887W        W 6087   0.359   2.317   0.625
 1888W        W 6088   1.930   0.155   0.409
 1889W        W 6089   9.475   9.406   2.659
 1890W        W 6090  11.411   6.613   9.954
 1891W        W 6091   3.100   8.383   2.380
 1892W        W 6092   3.104   8.487  11.832
 1893W        W 6093   5.626   1.677   0.228
 1894W        W 6094   3.031   4.949   3.845
 1895W        W 6095   4.732   6.121  10.265
 1896W        W 6096   1.632   6.779  10.574
 1897W        W 6097   2.273   6.226   1.722
 1898W        W 6098   1.173   3.686   2.960
 1899W        W 6099   4.320   3.161  11.490
 1900W        W 6100   7.434   6.135   8.635
 1901W        W 6101   9.921  10.933  10.372
 1902W        W 6102   5.860   7.052   3.448
 1903W        W 6103   2.308   8.618   1.694
 1904W        W 6104   1.851   6.106   2.466
 1905W        W 6105   1.318   0.961   1.492
 1906W        W 6106   6.976   4.258  11.332
 1907W        W 6107   6.118   1.299   2.607
 1908W        W 6108   8.613   5.333   1.479
 1909W        W 6109   5.812   3.821  10.526
 1910W        W 6110   3.194   0.711  11.462
 1911W        W 6111   4.715   3.703   3.489
 1912W        W 6112   5.903   4.591   3.434
 1913W        W 6113   0.438   1.445   1.233
 1914W        W 6114   9.516  10.056  11.814
 1915W        W 6115   2.781   8.107  10.800
 1916W        W 6116   2.246   3.508  11.436
 1917W        W 6117   3.631   5.239  11.830
 1918W        W 6118   2.490   4.733  10.101
 1919W        W 6119   7.993   9.603   3.476
 1920W        W 6120   1.114   2.221  10.031
 1921W        W 6121   1.625   9.421   9.132
 1922W        W 6122   7.192   4.215   3.260
 1923W        W 6123   2.262   1.465   9.469
 1924W        W 6124   7.350  11.349   3.055
 1925W        W 6125   3.248   5.259   9.613
 1926W        W 6126   2.502   7.698   9.890
 1927W        W 6127   1.393   8.295   2.769
 1928W        W 6128   2.026   5.623   9.975
 1929W        W 6129   2.372   2.326   1.206
 1930W        W 6130   2.185   6.664   9.914
 1931W        W 6131   0.752   9.967  10.518
 1932W        W 6132   4.690   7.967   2.385
 1933W        W 6133   2.092   6.168  10.022
 1934W        W 6134  10.738   5.887   9.425
 1935W        W 6135   0.277   8.379   3.448
 1936W        W 6136   1.437   2.318   1.379
 1937W        W 6137   3.085   5.080   3.353
 1938W        W 6138   0.710   8.579   2.726
 1939W        W 6139   1.393   4.869   1.440
 1940W        W 6140   9.063   8.471   8.962
 1941W        W 6141   3.188   4.030   3.236
 1942W        W 6142   5.633   8.118   4.037
 1943W        W 6143  10.048   4.551   8.919
 1944W        W 6144   8.162   9.760   9.559
 1945W        W 6145  10.764  11.386   9.424
 1946W        W 6146   0.321   6.582   1.629
 1947W        W 6147   7.382   2.186   9.866
 1948W        W 6148   9.527   9.147   8.459
 1949W        W 6149   8.112   5.230   9.981
 1950W        W 6150   3.946   9.463   2.889
 1951W        W 6151   0.368   6.552   0.966
 1952W        W 6152  10.950   8.943   3.207
 1953W        W 6153   0.417   2.750   8.898
 1954W        W 6154   3.291  11.444   0.377
 1955W        W 6155   0.768   5.866  11.275
 1956W        W 6156   6.455   8.456   0.416
 1957W        W 6157   6.449   1.730   2.559
 1958W        W 6158   6.594   2.748  11.094
 1959W        W 6159   2.827   8.433  10.414
 1960W        W 6160   6.030   5.523   2.159
 1961W        W 6161   0.933   2.204  10.533
 1962W        W 6162   4.765  10.413   2.971
 1963W        W 6163   4.665   9.378   0.679
 1964W        W 6164   8.908  10.397   9.784
 1965W        W 6165   2.016   2.170   2.450
 1966W        W 6166   8.667  10.749  10.784
 1967W        W 6167   1.262   0.473   1.367
 1968W        W 6168   5.649   0.942   3.253
 1969W        W 6169   8.379  10.316   2.127
 1970W        W 6170   4.387   1.342   0.364
 1971W        W 6171   0.401   1.274   2.981
 1972W        W 6172   1.225   5.810   8.500
 1973W        W 6173   4.171   3.685   0.736
 1974W        W 6174   7.467   5.083   8.957
 1975W        W 6175   4.753   4.418  11.904
 1976W        W 6176   2.680   3.515  10.881
 1977W        W 6177   3.176   9.556  11.294
 1978W        W 6178   5.653   8.509   1.248
 1979W        W 6179  10.578   0.035  11.774
 1980W        W 6180   9.006   4.421   3.128
 1981W        W 6181  11.118   4.595   9.056
 1982W        W 6182  11.109   0.536   0.895
 1983W        W 6183   1.510   0.632  10.947
 1984W        W 6184   2.769   5.387  10.278
 1985W        W 6185   3.117   5.110   1.140
 1986W        W 6186   8.238   5.243   1.879
 1987W        W 6187   9.828   0.933   3.475
 1988W        W 6188   1.874   7.973   9.131
 1989W        W 6189   2.211   4.335  11.985
 1990W        W 6190   2.820   2.263   0.897
 1991W        W 6191   4.371   9.512  10.085
 1992W        W 6192   8.533   9.881   2.385
 1993W        W 6193   0.068  10.433   1.018
 1994W        W 6194   5.172   7.670  11.067
 1995W        W 6195   1.870   1.372  10.876
 1996W        W 6196   4.126   3.146   1.408
 1997W        W 6197   7.264   9.268   0.167
 1998W        W 6198   6.746   1.393   9.585
 1999W        W 6199  10.200   1.801  11.735
 2000W        W 6200  10.500  10.923   9.550
 2001W        W 6201   1.870   1.362  10.350
 2002W        W 6202   4.760   6.720   0.396
 2003W        W 6203   0.245   6.972   0.702
 2004W        W 6204  11.269   4.569   2.381
 2005W        W 6205  10.046   8.110   2.152
 2006W        W 6206   3.349   5.130   2.352
 2007W        W 6207  10.094   8.733   1.510
 2008W        W 6208   5.645  10.961   2.930
 2009W        W 6209  10.990  11.403   2.815
 2010W        W 6210  10.896  10.300   1.318
 2011W        W 6211   5.020  10.959  11.304
 2012W        W 6212   8.157   8.949   1.301
 2013W        W 6213   8.690   8.148   9.131
 2014W        W 6214   6.054   8.203   1.209
 2015W        W 6215   8.849   3.787   0.925
 2016W        W 6216   2.292   3.806  11.005
 2017W        W 6217   9.791   2.558   1.808
 2018W        W 6218   1.187   4.731   3.075
 2019W        W 6219   4.251   4.586   0.914
 2020W        W 6220   7.112  10.957   0.207
 2021W        W 6221   9.003  11.338   9.986
 2022W        W 6222  11.336   2.353   9.933
 2023W        W 6223   7.226   4.113   1.547
 2024W        W 6224   1.221   6.946   9.998
 2025W        W 6225   3.238   8.995   2.847
 2026W        W 6226   2.421   0.188   0.974
 2027W        W 6227   3.770   5.725   1.941
 2028W        W 6228   9.999   3.615   9.075
 2029W        W 6229   6.077   0.871   1.929
 2030W        W 6230  10.017   3.674  10.019
 2031W        W 6231   8.447  10.037   0.798
 2032W        W 6232   4.809   2.084   0.161
 2033W        W 6233   6.679   8.654   9.418
 2034W        W 6234   1.696   8.859   0.288
 2035W        W 6235   4.390   5.887   2.506
 2036W        W 6236  10.857   1.209   9.094
 2037W        W 6237  11.031   7.386   0.319
 2038W        W 6238  11.121   5.555   9.542
 2039W        W 6239   9.081   7.942  11.238
 2040W        W 6240   5.808   4.868   9.570
 2041W        W 6241   5.745   3.840   9.383
 2042W        W 6242   0.265   5.535   0.553
 2043W        W 6243   9.606   8.858   9.893
 2044W        W 6244   1.807   6.258   0.509
 2045W        W 6245   3.866   7.526  10.118
 2046W        W 6246   7.181   1.709   9.949
 2047W        W 6247   0.155   5.136   0.068
 2048W        W 6248   3.489   0.778   9.541
 2049W        W 6249   3.635   3.285   1.345
 2050W        W 6250  10.448  10.574   8.731
 2051W        W 6251   6.911   4.918  10.724
 2052W        W 6252   9.110   8.584   1.352
 2053W        W 6253   9.614   3.238   8.957
 2054W        W 6254   1.431   5.237  10.949
 2055W        W 6255   4.661   3.692   2.948
 2056W        W 6256   0.595   5.982  11.744
 2057W        W 6257   2.344   4.312  11.041
 2058W        W 6258   1.836   4.639   2.308
 2059W        W 6259   6.510   8.863   8.918
 2060W        W 6260   8.189   3.301  10.947
 2061W        W 6261   9.216   5.549  11.767
 2062W        W 6262   8.308   4.402   1.468
 2063W        W 6263   3.269   4.675  11.342
 2064W        W 6264   9.565   5.045  10.519
 2065W        W 6265   8.521   0.592   0.776
 2066W        W 6266   8.325   8.014   0.448
 2067W        W 6267   5.452   3.281   2.114
 2068W        W 6268   8.154  10.454   0.942
 2069W        W 6269   6.860   0.751  10.745
 2070W        W 6270   8.293   3.768   3.501
 2071W        W 6271   7.560  10.227   2.177
 2072W        W 6272   9.120   5.203   0.977
 2073W        W 6273   8.793  10.042   3.495
 2074W        W 6274   0.085   8.029   8.650
 2075W        W 6275   3.749   7.652   8.829
 2076W        W 6276   9.904   5.222   8.765
 2077W        W 6277   3.515  11.373   3.552
 2078W        W 6278   8.010   3.117  11.392
 2079W        W 6279  10.112   0.427   1.843
 2080W        W 6280   1.044   4.116   1.024
 2081W        W 6281   7.765  11.166  10.527
 2082W        W 6282   9.986   3.704  10.566
 2083W        W 6283   6.621   3.208   8.665
 2084W        W 6284   7.612   8.106   2.758
 2085W        W 6285   4.475   1.372  10.329
 2086W        W 6286   8.345   2.402   0.874
 2087W        W 6287   3.302  10.461   2.944
 2088W        W 6288   4.051   8.650  11.503
 2089W        W 6289  11.207   6.966   1.317
 2090W        W 6290  10.855   2.091   2.699
 2091W        W 6291   5.765   6.552   3.135
 2092W        W 6292   6.198   9.429   4.071
 2093W        W 6293   6.271  10.424   2.967
 2094W        W 6294   2.342   9.672   2.841
 2095W        W 6295   8.893   4.064   8.506
 2096W        W 6296   3.267   8.946  11.952
 2097W        W 6297   4.771   4.788  10.309
 2098W        W 6298   0.297   6.256   3.341
 2099W        W 6299   1.647   3.056   3.580
 2100W        W 6300   9.580   8.034  11.779
 2101W        W 6301   2.139   9.464   2.194
 2102W        W 6302   8.621   8.039  10.972
 2103W        W 6303   2.720   8.190   9.977
 2104W        W 6304   2.920   9.449   1.181
 2105W        W 6305   6.104   1.678   1.526
 2106W        W 6306   6.585   1.897   3.469
 2107W        W 6307  10.353   2.687   2.626
 2108W        W 6308   3.146   3.414   1.250
 2109W        W 6309   7.989   2.597  11.291
 2110W        W 6310   5.986   6.213  11.076
 2111W        W 6311   2.767   3.315   3.020
 2112W        W 6312   0.474  10.466   9.648
 2113W        W 6313  11.359   9.525   1.174
 2114W        W 6314   6.337   7.120  11.513
 2115W        W 6315   0.332   2.619   0.227
 2116W        W 6316   9.419   6.057   1.008
 2117W        W 6317   2.613   8.516   0.020
 2118W        W 6318   4.603   8.071   0.995
 2119W        W 6319   6.849   3.488   0.003
 2120W        W 6320   1.984   5.588   8.746
 2121W        W 6321  10.930   0.322  11.413
 2122W        W 6322   9.103   7.587  10.653
 2123W        W 6323   5.317   0.847   0.398
 2124W        W 6324   7.338  10.501   0.275
 2125W        W 6325  10.701   1.836  11.826
 2126W        W 6326   5.666   6.713   0.070
 2127W        W 6327   9.816   4.086   8.882
 2128W        W 6328   7.680   6.434   9.696
 2129W        W 6329   9.395   2.949   0.381
 2130W        W 6330   7.953   7.207  10.063
 2131W        W 6331   1.794   8.091   2.520
 2132W        W 6332   5.575   3.530  10.900
 2133W        W 6333   9.820   1.717   1.061
 2134W        W 6334   1.366   6.234   0.225
 2135W        W 6335   5.292   8.656   9.469
 2136W        W 6336   3.423   0.530   8.770
 2137W        W 6337   3.386   9.521   1.398
 2138W        W 6338   8.017   2.632   2.853
 2139W        W 6339   2.345   1.579   1.960
 2140W        W 6340   9.865   9.385  11.511
 2141W        W 6341   4.984   3.785   8.319
 2142W        W 6342   0.274   1.334   0.399
 2143W        W 6343   2.569   4.247   9.273
 2144W        W 6344   3.686   5.254   9.856
 2145W        W 6345   5.938   5.803  10.773
 2146W        W 6346   5.640   6.238   2.297
 2147W        W 6347   2.181   0.748   2.318
 2148W        W 6348   8.928   6.715   2.218
 2149W        W 6349   3.708   5.579  11.381
 2150W        W 6350   5.766   1.655  10.667
 2151W        W 6351   0.810   7.922   0.227
 2152W        W 6352  11.296   1.922   2.481
 2153W        W 6353   6.979   5.052   1.011
 2154W        W 6354  11.191   2.427  11.525
 2155W        W 6355   7.058   7.998   2.818
 2156W        W 6356   9.476   6.423   1.371
 2157W        W 6357   1.206   3.637   9.930
 2158W        W 6358   7.701   5.632   2.079
 2159W        W 6359   3.387   9.075   1.083
 2160W        W 6360   2.932   3.883   1.138
 2161W        W 6361   9.481   9.960   0.880
 2162W        W 6362   5.249   8.770   3.080
 2163W        W 6363   8.800   8.225   0.538
 2164W        W 6364   6.947   9.381   1.993
 2165W        W 6365   5.647   1.521   0.744
 2166W        W 6366   7.445   8.060   9.548
 2167W        W 6367   2.119  10.580   3.570
 2168W        W 6368   8.365   1.204   2.896
 2169W        W 6369   9.268   5.599   9.401
 2170W        W 6370  10.480   9.329   0.697
 2171W        W 6371   8.600   5.947   3.601
 2172W        W 6372   2.266   6.328  10.865
 2173W        W 6373   7.968   4.771   3.047
 2174W        W 6374   5.321   2.412   0.339
 2175W        W 6375   9.541   6.496   3.086
 2176W        W 6376  11.280   3.980   0.226
 2177W        W 6377  10.808   3.640   1.494
 2178W        W 6378   6.541   7.379  10.542
 2179W        W 6379   9.569  10.765  11.074
 2180W        W 6380   5.661   0.501   8.987
 2181W        W 6381   1.867   5.868  10.385
 2182W        W 6382   6.940   9.721   9.989
 2183W        W 6383   3.698   1.924   1.157
 2184W        W 6384   6.411   4.247  11.356
 2185W        W 6385   2.473  10.734   2.275
 2186W        W 6386   1.896   8.964   9.045
 2187W        W 6387   5.352   4.157   1.441
 2188W        W 6388   6.148   5.461   3.138
 2189W        W 6389  10.819  10.031  10.462
 2190W        W 6390   4.538   0.870   9.481
 2191W        W 6391   5.773   2.386   3.113
 2192W        W 6392   1.687   6.680  10.076
 2193W        W 6393   4.633   5.708   9.971
 2194W        W 6394   3.121   7.986   2.726
 2195W        W 6395   1.422  10.238   1.705
 2196W        W 6396   0.827   3.163   1.921
 2197W        W 6397   7.829   8.583   2.804
 2198W        W 6398   8.992   3.136  11.615
 2199W        W 6399  10.495   4.182   0.406
 2200W        W 6400   9.078   7.953  11.756
 2201W        W 6401  10.024   1.568   2.921
 2202W        W 6402   0.691   8.841   9.543
 2203W        W 6403   9.303   9.936   1.350
 2204W        W 6404   6.247   2.372   9.162
 2205W        W 6405   8.856   5.545   0.627
 2206W        W 6406  10.522   1.504   8.797
 2207W        W 6407   3.627  10.221   3.474
 2208W        W 6408   3.718   8.580   1.733
 2209W        W 6409   8.706   1.001  10.306
 2210W        W 6410   5.222   7.711   2.185
 2211W        W 6411   7.186  10.052  10.490
 2212W        W 6412  10.303   6.185   9.455
 2213W        W 6413   2.830   1.503   9.930
 2214W        W 6414  10.352   6.043   1.686
 2215W        W 6415  10.059   2.473   3.313
 2216W        W 6416   5.593   2.194  10.386
 2217W        W 6417   0.850   2.681  10.192
 2218W        W 6418   5.658   8.968   1.474
 2219W        W 6419   9.089   6.277   0.375
 2220W        W 6420  11.018   8.351  11.922
 2221W        W 6421  10.867   1.614  10.044
 2222W        W 6422  10.998   8.061   8.824
 2223W        W 6423   3.652   1.662  11.715
 2224W        W 6424   9.991  10.372  11.079
 2225W        W 6425  10.863   4.764   1.140
 2226W        W 6426   9.962   0.879   2.044
 2227W        W 6427   7.443   4.821   3.273
 2228W        W 6428   1.607   7.575   1.203
 2229W        W 6429   7.159   2.852   9.334
 2230W        W 6430  10.528  11.311   1.360
 2231W        W 6431   1.256   9.100   0.194
 2232W        W 6432   1.302   2.918  10.784
 2233W        W 6433   5.689   9.695  11.947
 2234W        W 6434   2.408   9.967   1.852
 2235W        W 6435   5.640  11.034  11.875
 2236W        W 6436   8.885   1.963  10.855
 2237W        W 6437   3.831   6.229   9.989
 2238W        W 6438   7.468   1.512   3.310
 2239W        W 6439   7.258   1.416   1.779
 2240W        W 6440  10.065   3.218   8.711
 2241W        W 6441   3.232   8.137  11.112
 2242W        W 6442   6.568   0.774   1.815
 2243W        W 6443   7.622   1.372   0.330
 2244W        W 6444   6.391   3.188   0.495
 2245W        W 6445   6.139   5.545   1.244
 2246W        W 6446   3.337   0.711  10.966
 2247W        W 6447   4.155   2.399   1.878
 2248W        W 6448   9.854   3.085   0.918
 2249W        W 6449   4.079   9.976   3.328
 2250W        W 6450   3.444   6.074  11.442
 2251W        W 6451   4.883   4.054   4.091
 2252W        W 6452   0.601   6.523   0.446
 2253W        W 6453   9.954   7.620   8.650
 2254W        W 6454   4.756   8.951   2.531
 2255W        W 6455   8.152   9.165  10.785
 2256W        W 6456   3.704   2.384   9.472
 2257W        W 6457   3.956   3.858   9.290
 2258W        W 6458   5.257   2.130   2.302
 2259W        W 6459   9.940   4.728   9.692
 2260W        W 6460   9.398   0.005   9.006
 2261W        W 6461   4.810  10.738   8.996
 2262W        W 6462   3.715   1.245  10.263
 2263W        W 6463   5.939   3.673   9.828
 2264W        W 6464   9.700   4.195   3.576
 2265W        W 6465   0.405   8.151  10.931
 2266W        W 6466   0.152   4.178  10.755
 2267W        W 6467   0.117   8.814   1.415
 2268W        W 6468   3.779   8.123   1.311
 2269W        W 6469   8.176  11.242   0.344
 2270W        W 6470   5.732  11.342   9.472
 2271W        W 6471   2.669   9.976   3.181
 2272W        W 6472  10.302   5.490  11.494
 2273W        W 6473   5.969   0.766   3.618
 2274W        W 6474   1.520   0.545  10.433
 2275W        W 6475   8.042  10.078   8.616
 2276W        W 6476   1.884   6.024   3.338
 2277W        W 6477   5.629   7.940   0.446
 2278W        W 6478   0.650   6.999  11.256
 2279W        W 6479   5.853   5.310   2.678
 2280W        W 6480   6.679   4.133  10.918
 2281W        W 6481   2.178   2.800  10.922
 2282W        W 6482   9.295  10.872   0.795
 2283W        W 6483   8.986   7.048   1.828
 2284W        W 6484   6.482   0.642  11.255
 2285W        W 6485   5.198   0.925  10.913
 2286W        W 6486   3.200   0.868   2.113
 2287W        W 6487   8.088   5.955  11.049
 2288W        W 6488   3.637   2.608   9.929
 2289W        W 6489   5.498   0.425   2.279
 2290W        W 6490   6.067   1.906  11.500
 2291W        W 6491   0.996   1.742   1.051
 2292W        W 6492  10.737   6.276  11.284
 2293W        W 6493   0.781   7.520   9.489
 2294W        W 6494   0.227   8.529   2.961
 2295W        W 6495   3.848   9.442   1.197
 2296W        W 6496   2.268   2.333  10.019
 2297W        W 6497   4.883   4.310   1.698
 2298W        W 6498   6.035   4.571   0.356
 2299W        W 6499  10.222   6.999   0.272
 2300W        W 6500   3.143   4.240   9.623
 2301W        W 6501   0.829   7.627   0.715
 2302W        W 6502   1.099   7.502   0.226
 2303W        W 6503   0.189   4.788   2.559
 2304W        W 6504   6.970   6.597  10.410
 2305W        W 6505   8.388   1.915   1.010
 2306W        W 6506   2.259   0.223   2.972
 2307W        W 6507   9.786   5.766   0.250
 2308W        W 6508   9.987  11.445   0.626
 2309W        W 6509   5.089   0.214  11.727
 2310W        W 6510   1.459   3.001  10.286
 2311W        W 6511   7.651  11.211   3.418
 2312W        W 6512   3.145   9.995   1.337
 2313W        W 6513  10.449  11.040   2.948
 2314W        W 6514   4.011   5.034   1.026
 2315W        W 6515   9.420  11.031   2.316
 2316W        W 6516   2.805   6.771  11.361
 2317W        W 6517   4.403   0.727   1.367
 2318W        W 6518   9.966   5.699  10.789
 2319W        W 6519   0.782   6.565   2.294
 2320W        W 6520   5.652   8.517   2.298
 2321W        W 6521   4.090   9.380  11.827
 2322W        W 6522   2.854   1.838  10.817
 2323W        W 6523   1.912   2.589   1.338
 2324W        W 6524   2.850   2.613   1.281
 2325W        W 6525   2.810   2.839  10.305
 2326W        W 6526  11.382   5.659   9.095
 2327W        W 6527  10.328  10.977   0.953
 2328W        W 6528   1.833   4.629   9.406
 2329W        W 6529  10.855   1.375   0.514
 2330W        W 6530   4.433   7.120   3.108
 2331W        W 6531   4.184   0.284   9.266
 2332W        W 6532   9.038   4.922   3.265
 2333W        W 6533  10.506   8.940   2.365
 2334W        W 6534   8.482   0.726   2.674
 2335W        W 6535   8.185   5.644   2.214
 2336W        W 6536  10.691   0.801   2.996
 2337W        W 6537  10.375   6.133   1.149
 2338W        W 6538   0.985   7.931  10.429
 2339W        W 6539   8.608   6.475  11.168
 2340W        W 6540   0.541   1.012  10.877
 2341W        W 6541   6.011   2.367   9.600
 2342W        W 6542   6.472   8.597  11.503
 2343W        W 6543   3.194  10.687   2.442
 2344W        W 6544  10.838   6.541  10.220
 2345W        W 6545   6.086   7.842   2.768
 2346W        W 6546   0.879   4.062  10.076
 2347W        W 6547   9.424   5.258   8.568
 2348W        W 6548   7.713  11.281   1.240
 2349W        W 6549   6.354  10.750   0.322
 2350W        W 6550   7.848   5.047   3.499
 2351W        W 6551   2.946   7.276  11.293
 2352W        W 6552   9.133   1.813   9.884
 2353W        W 6553   3.655  10.407  10.854
 2354W        W 6554   0.465  10.280   2.806
 2355W        W 6555   0.086   3.723  10.370
 2356W        W 6556   4.684  10.915  10.367
 2357W        W 6557   1.822   1.805  10.597
 2358W        W 6558   1.975   1.840   0.912
 2359W        W 6559   9.237   7.012   0.089
 2360W        W 6560   3.230   9.100  10.044
 2361W        W 6561   5.168   8.869   1.658
 2362W        W 6562   3.153  10.328   9.532
 2363W        W 6563   1.197   6.313   1.233
 2364W        W 6564  11.217   3.421   3.480
 2365W        W 6565   3.387   3.889   0.376
 2366W        W 6566  11.487   2.439   9.019
 2367W        W 6567   0.218   9.767  10.395
 2368W        W 6568   2.133   1.339   8.985
 2369W        W 6569   7.797  10.503   8.809
 2370W        W 6570   7.863   4.043   0.627
 2371W        W 6571  11.191   6.162  10.062
 2372W        W 6572   5.240   1.259   2.188
 2373W        W 6573   9.730   7.603   0.049
 2374W        W 6574   2.687   5.502   0.268
 2375W        W 6575   7.333   3.267   2.869
 2376W        W 6576   5.186   9.063   2.245
 2377W        W 6577   2.860   5.404   4.070
 2378W        W 6578   7.137   8.605   3.957
 2379W        W 6579   3.863   4.197   1.671
 2380W        W 6580  10.347   8.512   2.156
 2381W        W 6581   0.361   9.281   0.314
 2382W        W 6582  11.408   2.212   1.373
 2383W        W 6583   7.590   4.326   0.279
 2384W        W 6584   2.283   1.333   1.506
 2385W        W 6585   3.642   6.724   1.170
 2386W        W 6586   1.155  10.991   8.547
 2387W        W 6587   9.483   2.970   9.404
 2388W        W 6588   1.439  10.409   0.007
 2389W        W 6589   4.274   3.629   2.391
 2390W        W 6590   0.453   5.045  10.601
 2391W        W 6591   3.227   7.373  10.401
 2392W        W 6592   4.110   5.591   9.759
 2393W        W 6593  10.393   5.897   9.857
 2394W        W 6594   2.611   5.070   1.268
 2395W        W 6595   0.837   6.642   8.998
 2396W        W 6596   4.434   3.658  11.431
 2397W        W 6597   2.363   6.630   2.756
 2398W        W 6598   1.641   7.476   0.281
 2399W        W 6599   2.344   9.392   0.247
 2400W        W 6600   0.867   3.530   2.313
 2401W        W 6601   8.173   6.070   2.500
 2402W        W 6602   7.648  10.083   2.674
 2403W        W 6603   6.425   5.205   2.260
 2404W        W 6604   7.142   4.873   1.962
 2405W        W 6605   1.582   7.013   2.720
 2406W        W 6606   4.187   1.703   2.689
 2407W        W 6607   3.655  10.777  11.243
 2408W        W 6608   1.551   2.282   2.262
 2409W        W 6609   6.458   0.670  10.190
 2410W        W 6610   4.684   9.861   1.368
 2411W        W 6611   5.484   9.182   8.583
 2412W        W 6612   0.875   6.661   9.518
 2413W        W 6613   9.537  10.164   3.391
 2414W        W 6614   1.355   4.389  11.733
 2415W        W 6615   1.057   5.906  11.967
 2416W        W 6616   0.547   1.410   2.496
 2417W        W 6617   8.513   9.610   9.207
 2418W        W 6618   7.178   4.536   2.356
 2419W        W 6619   0.968   1.182  10.001
 2420W        W 6620   5.130   2.911   1.224
 2421W        W 6621   0.405   7.895   1.121
 2422W        W 6622   9.459   9.673  10.347
 2423W        W 6623   9.114  11.334   2.739
 2424W        W 6624  10.649   8.080   1.980
 2425W        W 6625   9.421   7.642   2.277
 2426W        W 6626   9.556   8.366   8.997
 2427W        W 6627  10.802  10.151   2.702
 2428W        W 6628   3.354   0.479   1.011
 2429W        W 6629   7.221   8.065  11.436
 2430W        W 6630   7.552   2.753   3.580
 2431W        W 6631   8.383  10.683  10.358
 2432W        W 6632   9.525   2.432   1.356
 2433W        W 6633   5.483  10.657   3.349
 2434W        W 6634  11.380   2.866   9.844
 2435W        W 6635   5.209   2.875   1.798
 2436W        W 6636   7.077   9.025   3.223
 2437W        W 6637  11.410   3.312  11.083
 2438W        W 6638   4.645   2.727   2.489
 2439W        W 6639   6.440   0.854   9.384
 2440W        W 6640   0.768  10.242   1.380
 2441W        W 6641   8.641   4.856   8.529
 2442W        W 6642   2.343   1.194   3.301
 2443W        W 6643  10.267   3.383   0.979
 2444W        W 6644   2.613   8.876   0.410
 2445W        W 6645   5.511   8.957  10.343
 2446W        W 6646   6.578   4.264   1.266
 2447W        W 6647  10.904   6.267   3.016
 2448W        W 6648   8.426   3.785  11.926
 2449W        W 6649   9.018   0.500   0.179
 2450W        W 6650   4.608   3.016   1.194
 2451W        W 6651   9.285   2.216   0.934
 2452W        W 6652   1.987   9.537   1.731
 2453W        W 6653   1.041   9.060   9.206
 2454W        W 6654   4.799   8.062  10.164
 2455W        W 6655   2.377   5.027  11.399
 2456W        W 6656   0.994   2.761   1.628
 2457W        W 6657   4.308   6.072   9.796
 2458W        W 6658   0.552   2.678   1.927
 2459W        W 6659   9.497   3.989   2.651
 2460W        W 6660   3.872   3.789  11.421
 2461W        W 6661   2.233   7.945   2.315
 2462W        W 6662   0.282   4.915  11.179
 2463W        W 6663   8.399   6.976  11.508
 2464W        W 6664   3.430   3.913   9.323
 2465W        W 6665   0.968   3.717  11.733
 2466W        W 6666   8.136   8.178  11.038
 2467W        W 6667   6.524   9.926  11.335
 2468W        W 6668   1.103   1.856   2.731
 2469W        W 6669  10.149  10.939   9.923
 2470W        W 6670   2.709   4.126   8.810
 2471W        W 6671   0.620   8.066   8.656
 2472W        W 6672   4.963   3.350   1.420
 2473W        W 6673   9.781   3.634   8.572
 2474W        W 6674   5.993   8.493  11.360
 2475W        W 6675   5.189   9.321  10.506
 2476W        W 6676  11.069   5.932  10.501
 2477W        W 6677  10.876  10.243  11.374
 2478W        W 6678   4.350   4.316   1.737
 2479W        W 6679   1.336   1.429   1.277
 2480W        W 6680   6.498   3.454   2.720
 2481W        W 6681   7.448  10.083   1.687
 2482W        W 6682   9.988   7.459   9.149
 2483W        W 6683   4.143   3.408   1.919
 2484W        W 6684   6.896   2.062   0.155
 2485W        W 6685   6.262   2.689   0.259
 2486W        W 6686  11.328   6.072  10.906
 2487W        W 6687   2.603   3.879  11.443
 2488W        W 6688   1.719   1.261   9.287
 2489W        W 6689   8.912   2.824   1.290
 2490W        W 6690   6.574   1.824   1.372
 2491W        W 6691   2.903   6.596   2.696
 2492W        W 6692   8.452   4.536  11.563
 2493W        W 6693   0.303   4.601   0.327
 2494W        W 6694   1.847  11.197   9.077
 2495W        W 6695   0.491   4.325  11.956
 2496W        W 6696  10.706   2.255  11.512
 2497W        W 6697   8.347   7.266  11.952
 2498W        W 6698   2.721   1.745   9.482
 2499W        W 6699   6.243   3.028  10.325
 2500W        W 6700  10.007   8.090   3.223
 2501W        W 6701   2.842   2.256  11.103
 2502W        W 6702   9.203  11.424   9.513
 2503W        W 6703   2.685   3.800   3.245
 2504W        W 6704   6.673   8.649   2.139
 2505W        W 6705   1.888   1.625   1.386
 2506W        W 6706   7.129  11.149  10.912
 2507W        W 6707   4.199   3.044  11.976
 2508W        W 6708   1.632  10.727   1.404
 2509W        W 6709   4.790   8.851  10.998
 2510W        W 6710   3.207   5.117  11.578
 2511W        W 6711   5.663  10.492   0.716
 2512W        W 6712   6.490   3.844  11.884
 2513W        W 6713   3.511   4.980   3.640
 2514W        W 6714   2.209  10.735   2.716
 2515W        W 6715   4.755   2.416  11.763
 2516W        W 6716   3.103   8.397   0.352
 2517W        W 6717   0.767   6.592   1.320
 2518W        W 6718  10.029  11.316   1.213
 2519W        W 6719   7.598   2.857  10.516
 2520W        W 6720   7.946  10.278   1.851
 2521W        W 6721   5.449   1.414   1.206
 2522W        W 6722   1.007   6.882   2.621
 2523W        W 6723   3.139   2.736  10.947
 2524W        W 6724   3.072   4.247  10.602
 2525W        W 6725   5.575   1.869   3.640
 2526W        W 6726  10.019   6.648   2.706
 2527W        W 6727   6.647   9.935   1.311
 2528W        W 6728   8.223   7.644  10.232
 2529W        W 6729   4.306  10.141  11.316
 2530W        W 6730   3.566   0.913   1.174
 2531W        W 6731  10.779   1.417   1.932
 2532W        W 6732   3.286   5.753   9.528
 2533W        W 6733   0.974   3.671   0.263
 2534W        W 6734   2.958   1.777   1.024
 2535W        W 6735  10.017   2.815  10.586
 2536W        W 6736   7.076   9.008   2.719
 2537W        W 6737   8.495   6.256  11.929
 2538W        W 6738   2.448   0.243   0.455
 2539W        W 6739  11.256   3.614   1.787
 2540W        W 6740  10.281   9.414   9.814
 2541W        W 6741   7.483   6.675  11.827
 2542W        W 6742   5.476   7.212   8.511
 2543W        W 6743   3.618   4.456  10.708
 2544W        W 6744   0.912   3.271   1.433
 2545W        W 6745   6.281   3.285   3.731
 2546W        W 6746   1.419   1.393  10.127
 2547W        W 6747  10.205   7.096  11.267
 2548W        W 6748   6.693   9.161   9.334
 2549W        W 6749   3.136  10.477  10.848
 2550W        W 6750   2.665   1.919   3.249
 2551W        W 6751   3.689   2.624  10.773
 2552W        W 6752   9.488   4.608  10.004
 2553W        W 6753   8.117   0.876   1.470
 2554W        W 6754   2.395   6.577  10.376
 2555W        W 6755   5.837   6.098   9.137
 2556W        W 6756   0.908   6.017   1.524
 2557W        W 6757   6.973   5.242  11.546
 2558W        W 6758  10.001   2.238   9.895
 2559W        W 6759   3.357   6.983   2.383
 2560W        W 6760   4.609   0.248   1.377
 2561W        W 6761  11.004   0.538   2.008
 2562W        W 6762  10.456   9.956   1.918
 2563W        W 6763   6.461   5.215  11.444
 2564W        W 6764   5.931  11.457  11.763
 2565W        W 6765   9.519   0.140  10.791
 2566W        W 6766   1.292   8.407   1.897
 2567W        W 6767   6.431   4.899   9.698
 2568W        W 6768   5.061   9.056   0.236
 2569W        W 6769  11.219   4.000   1.434
 2570W        W 6770  10.036   6.291   3.097
 2571W        W 6771   1.112   7.112  11.404
 2572W        W 6772   8.665  10.025   0.255
 2573W        W 6773   7.561   2.981   1.190
 2574W        W 6774   2.620   4.627   9.621
 2575W        W 6775   8.302  10.999   9.650
 2576W        W 6776   0.388   6.663   8.664
 2577W        W 6777   7.504   1.206  10.927
 2578W        W 6778   5.327  10.610  11.614
 2579W        W 6779  10.945   0.966   1.729
 2580W        W 6780  10.554   3.510  11.235
 2581W        W 6781   6.900   3.707   0.774
 2582W        W 6782   8.136   2.975   8.711
 2583W        W 6783   1.914   8.815   1.276
 2584W        W 6784   1.715   0.678   1.244
 2585W        W 6785   2.565   9.399   2.449
 2586W        W 6786  10.870   2.729   8.959
 2587W        W 6787   1.217   5.720  11.477
 2588W        W 6788   4.988   5.299   0.991
 2589W        W 6789  10.778   6.236   9.784
 2590W        W 6790  10.723   5.145  10.827
 2591W        W 6791   0.609   9.468  11.473
 2592W        W 6792   7.663   6.103   2.398
 2593W        W 6793   1.407   7.122   1.453
 2594W        W 6794   5.631   2.200  11.425
 2595W        W 6795   5.768  11.138   9.937
 2596W        W 6796   0.318   0.993   2.346
 2597W        W 6797   6.061   5.698  11.247
 2598W        W 6798   0.752   1.514   3.325
 2599W        W 6799   6.717   1.743   2.997
 2600W        W 6800   8.658   6.105   2.741
 2601W        W 6801   4.079   5.143   9.532
 2602W        W 6802  11.498   2.397  11.047
 2603W        W 6803  11.436   4.596  10.976
 2604W        W 6804   1.393   3.253   1.222
 2605W        W 6805   9.431  10.623   9.540
 2606W        W 6806   1.925   4.416   0.937
 2607W        W 6807   8.542   0.241   3.473
 2608W        W 6808   4.932   7.654   9.348
 2609W        W 6809   5.276   2.791   9.822
 2610W        W 6810   8.577   2.338  11.745
 2611W        W 6811   5.792   8.755   8.607
 2612W        W 6812   6.950   2.629   2.137
 2613W        W 6813   4.723   9.410   2.759
 2614W        W 6814   8.937   6.363   3.711
 2615W        W 6815   2.714   9.078  11.869
 2616W        W 6816  10.527   7.465   0.389
 2617W        W 6817   3.066   6.509   9.929
 2618W        W 6818  10.777   4.775   3.112
 2619W        W 6819   0.367  10.130  11.774
 2620W        W 6820   7.554   4.207   8.753
 2621W        W 6821   1.393   3.646   1.551
 2622W        W 6822  10.950   4.400   0.205
 2623W        W 6823   1.161  10.555   1.408
 2624W        W 6824   6.587   6.146   9.660
 2625W        W 6825   3.627   1.186   8.705
 2626W        W 6826   3.335   1.010  11.841
 2627W        W 6827  10.423   6.675   0.994
 2628W        W 6828   2.107   3.222   0.407
 2629W        W 6829   9.004   4.775   2.758
 2630W        W 6830   2.498   9.438   9.644
 2631W        W 6831   1.719   8.375   0.071
 2632W        W 6832   1.209   7.362   9.699
 2633W        W 6833   0.324   5.777   3.163
 2634W        W 6834  10.921   4.835   2.123
 2635W        W 6835   3.518  10.712   0.696
 2636W        W 6836   6.645   6.246   8.743
 2637W        W 6837   1.509   2.229  11.941
 2638W        W 6838   3.841   2.311   1.467
 2639W        W 6839   8.437   5.571  11.317
 2640W        W 6840   7.907   3.602  11.827
 2641W        W 6841   7.991  11.490  10.196
 2642W        W 6842   0.251   0.925   3.365
 2643W        W 6843   6.730   3.094   0.922
 2644W        W 6844   9.838  10.372   3.026
 2645W        W 6845  11.016   0.348   9.472
 2646W        W 6846   2.121   6.894   3.625
 2647W        W 6847   6.445   9.084   0.906
 2648W        W 6848   5.614   5.590  11.483
 2649W        W 6849   8.141   1.780   1.467
 2650W        W 6850   4.698   4.589   9.432
 2651W        W 6851   7.594   9.406  11.777
 2652W        W 6852   8.760   6.844   3.596
 2653W        W 6853   5.701   0.451   0.902
 2654W        W 6854  10.485   5.079   2.784
 2655W        W 6855   0.516   2.110   0.171
 2656W        W 6856   1.448   6.149  10.536
 2657W        W 6857   0.401   0.813   1.879
 2658W        W 6858   5.460   2.894   0.452
 2659W        W 6859   6.181   1.345   0.227
 2660W        W 6860   7.093   3.531  10.392
 2661W        W 6861   6.032   6.097   3.273
 2662W        W 6862   5.010   2.792   0.233
 2663W        W 6863  10.877   0.463  11.915
 2664W        W 6864  10.382   5.179   0.157
 2665W        W 6865   6.369   6.033   0.364
 2666W        W 6866  11.116   3.952  10.394
 2667W        W 6867   5.606   8.055   2.634
 2668W        W 6868   5.942   8.080   2.254
 2669W        W 6869   4.058   5.983  11.996
 2670W        W 6870   1.821   6.904  11.966
 2671W        W 6871  11.163   6.376   0.359
 2672W        W 6872   6.795   2.189   1.911
 2673W        W 6873   1.061   0.795  11.863
 2674W        W 6874   8.203   7.184  10.514
 2675W        W 6875   1.732   2.239  10.856
 2676W        W 6876   6.233   9.960   2.241
 2677W        W 6877   9.088   0.876   9.993
 2678W        W 6878   6.891   9.106  10.318
 2679W        W 6879   6.785   0.749   2.282
 2680W        W 6880   9.964   4.215  11.405
 2681W        W 6881   9.932   6.686   1.736
 2682W        W 6882   8.557  10.904  11.262
 2683W        W 6883   7.213   4.657   4.139
 2684W        W 6884  10.913   2.139  10.161
 2685W        W 6885   9.301   4.136  10.130
 2686W        W 6886   3.824   6.631   1.650
 2687W        W 6887   5.615   1.799  11.738
 2688W        W 6888   4.336   6.957   9.734
 2689W        W 6889   2.982  11.429   1.738
 2690W        W 6890   8.479   8.902  10.424
 2691W        W 6891   3.882  11.073  11.667
 2692W        W 6892   6.533   7.873  11.874
 2693W        W 6893   4.198   2.208  11.472
 2694W        W 6894   8.081   3.805  10.911
 2695W        W 6895   5.711   2.910   1.864
 2696W        W 6896   6.431   7.797   1.093
 2697W        W 6897   8.703   5.133  11.119
 2698W        W 6898   0.725   5.570   2.510
 2699W        W 6899   3.650   0.520  11.350
 2700W        W 6900   4.972  11.038  10.788
 2701W        W 6901   2.870   8.950   0.904
 2702W        W 6902   8.046   2.707  10.282
 2703W        W 6903   7.092   0.781   0.944
 2704W        W 6904   4.746   7.157   2.680
 2705W        W 6905   6.710   3.693   2.242
 2706W        W 6906  10.083   1.497  10.774
 2707W        W 6907   4.575   9.901   3.456
 2708W        W 6908   8.873   5.623   2.647
 2709W        W 6909   8.223   4.235   3.249
 2710W        W 6910   1.762   6.533  11.017
 2711W        W 6911   0.785   1.827   2.351
 2712W        W 6912   1.308   7.522  10.535
 2713W        W 6913   8.813   7.095  11.801
 2714W        W 6914   0.014   3.759   2.235
 2715W        W 6915   4.708   6.670   1.408
 2716W        W 6916   7.495   4.084   2.882
 2717W        W 6917   7.791  10.693  11.092
 2718W        W 6918   7.928   7.690   1.268
 2719W        W 6919   0.787   6.442  10.517
 2720W        W 6920   7.536   4.657   9.945
 2721W        W 6921   6.531   0.891   3.261
 2722W        W 6922   6.089   5.604   0.272
 2723W        W 6923   9.069   6.706   3.193
 2724W        W 6924   5.459   8.915   0.982
 2725W        W 6925   5.521  10.915  11.241
 2726W        W 6926   6.547  10.935   1.426
 2727W        W 6927   9.047   9.949   9.608
 2728W        W 6928   2.872   6.074   3.314
 2729W        W 6929   3.209   5.543  10.062
 2730W        W 6930   8.418   5.982   9.601
 2731W        W 6931   2.173   5.605   3.488
 2732W        W 6932   5.054   3.782   1.171
 2733W        W 6933   5.587   9.317   9.366
 2734W        W 6934   7.565  10.004   0.399
 2735W        W 6935  10.613   4.526   8.910
 2736W        W 6936   2.691   8.937   1.790
 2737W        W 6937   2.799   7.679  11.680
 2738W        W 6938  11.270  11.467  10.300
 2739W        W 6939   7.564  10.570   1.711
 2740W        W 6940   0.453   9.163   2.234
 2741W        W 6941   4.769  10.211  11.005
 2742W        W 6942   1.877   0.073  11.509
 2743W        W 6943   9.025   6.722  10.970
 2744W        W 6944   3.804   2.721   0.117
 2745W        W 6945   7.873   9.786   1.735
 2746W        W 6946  10.255   5.017  11.669
 2747W        W 6947  10.976   2.966   3.190
 2748W        W 6948   7.107   8.715  10.032
 2749W        W 6949  10.336   7.690   2.096
 2750W        W 6950   6.957   1.268  10.039
 2751W        W 6951   9.137   0.368   2.203
 2752W        W 6952   4.752  11.366   3.321
 2753W        W 6953   8.881   3.558  10.353
 2754W        W 6954  11.495   8.024   1.376
 2755W        W 6955   7.475   7.269   3.140
 2756W        W 6956   5.235  10.800   0.655
 2757W        W 6957  10.678   7.134  11.425
 2758W        W 6958   1.713   9.860   0.531
 2759W        W 6959   2.216   1.868  10.274
 2760W        W 6960   8.463   7.660   1.857
 2761W        W 6961   8.414   4.193  10.764
 2762W        W 6962   2.145   9.875   1.392
 2763W        W 6963   5.061   7.775   0.403
 2764W        W 6964   3.162  11.416  10.626
 2765W        W 6965   5.284   6.921   9.948
 2766W        W 6966   8.652   5.851   1.383
 2767W        W 6967   1.828   8.610  11.337
 2768W        W 6968   1.889   9.392   1.235
 2769W        W 6969   7.541   9.183   9.440
 2770W        W 6970   2.370   6.979   3.178
 2771W        W 6971   1.899   9.004   3.300
 2772W        W 6972   0.879   9.073   2.522
 2773W        W 6973   2.628  11.370  10.885
 2774W        W 6974   6.213  10.435  11.352
 2775W        W 6975   1.245  11.472   1.303
 2776W        W 6976   8.008   7.596   8.843
 2777W        W 6977   6.522   6.702  11.726
 2778W        W 6978   4.206   3.870   8.818
 2779W        W 6979   2.677  10.143  11.989
 2780W        W 6980   6.868   6.549   2.428
 2781W        W 6981   1.105   7.108   1.871
 2782W        W 6982   0.736   8.344   9.365
 2783W        W 6983   7.510   2.556   0.701
 2784W        W 6984   3.521   9.992   9.662
 2785W        W 6985   9.747   1.491   3.349
 2786W        W 6986   9.037   6.169   1.359
 2787W        W 6987   7.653   4.273   2.426
 2788W        W 6988   5.629   5.686   0.489
 2789W        W 6989   2.659   5.078   8.883
 2790W        W 6990  10.140  11.252   2.587
 2791W        W 6991   4.771   0.664   9.901
 2792W        W 6992   1.302   4.401  10.200
 2793W        W 6993   1.334   1.801   9.811
 2794W        W 6994   3.927   8.106   3.041
 2795W        W 6995   3.964   6.456   2.660
 2796W        W 6996  11.289   8.573   9.516
 2797W        W 6997   2.190   7.694   1.866
 2798W        W 6998   5.672   4.294  10.246
 2799W        W 6999   5.209  10.742   8.690
 2800W        W 7000  11.277   2.847  11.228
 2801W        W 7001  10.927   8.474   9.148
 2802W        W 7002   2.497   5.534   8.704
 2803W        W 7003   0.187   9.140  10.845
 2804W        W 7004   8.971   5.599   8.967
 2805W        W 7005   2.680   9.460   3.184
 2806W        W 7006   5.796   8.878  11.008
 2807W        W 7007   0.387   8.938   0.812
 2808W        W 7008   8.547   9.792  10.304
 2809W        W 7009   4.543   3.970  11.811
 2810W        W 7010   6.837   2.298  11.118
 2811W        W 7011   0.339   4.030   9.886
 2812W        W 7012   4.204   0.425   0.037
 2813W        W 7013   4.906   2.804  11.415
 2814W        W 7014   1.776   0.938  10.650
 2815W        W 7015   6.029   5.103   9.984
 2816W        W 7016   9.559   9.876   2.424
 2817W        W 7017  11.469   0.356   1.663
 2818W        W 7018   8.901   1.775   2.181
 2819W        W 7019  11.054   0.038   1.721
 2820W        W 7020   2.868   8.524  11.081
 2821W        W 7021   6.529   3.634  10.880
 2822W        W 7022  10.322   9.171  11.332
 2823W        W 7023   3.871   1.390   3.430
 2824W        W 7024   5.200   4.126  11.903
 2825W        W 7025   1.890   1.967   3.060
 2826W        W 7026   3.286   8.604  11.356
 2827W        W 7027   6.640   6.619   3.619
 2828W        W 7028   2.757   0.025   2.276
 2829W        W 7029   1.111   5.417   0.760
 2830W        W 7030   9.971   1.207  10.319
 2831W        W 7031   2.873   5.897  10.358
 2832W        W 7032   4.871   9.536   0.201
 2833W        W 7033   6.232   5.848   9.405
 2834W        W 7034   5.528   1.928   9.542
 2835W        W 7035   0.456   0.952   1.365
 2836W        W 7036   9.086   5.061   4.276
 2837W        W 7037   6.742   2.589   4.024
 2838W        W 7038   3.246   0.494   2.832
 2839W        W 7039   0.237   2.166   2.816
 2840W        W 7040   6.450  11.171   0.977
 2841W        W 7041   4.516   8.573   0.222
 2842W        W 7042   8.130  10.054   9.130
 2843W        W 7043   0.868  11.052   3.766
 2844W        W 7044  10.024  10.335  11.837
 2845W        W 7045   2.696   8.147   2.927
 2846W        W 7046   9.938   6.235   1.462
 2847W        W 7047   3.299   9.214   2.372
 2848W        W 7048   8.328   0.778   8.988
 2849W        W 7049   0.031   0.670   1.194
 2850W        W 7050   5.237  10.147  10.788
 2851W        W 7051   8.901   9.519   0.404
 2852W        W 7052   9.336   2.258  10.100
 2853W        W 7053   5.640   7.053   9.014
 2854W        W 7054   6.589   9.484   2.780
 2855W        W 7055   8.463   9.021   1.734
 2856W        W 7056   4.563   9.747  10.989
 2857W        W 7057   4.369   9.574  11.450
 2858W        W 7058   4.155  10.054   0.500
 2859W        W 7059   7.940  10.055   0.732
 2860W        W 7060   4.318   1.432  11.037
 2861W        W 7061   8.970   0.655   9.513
 2862W        W 7062   7.574  10.382   1.238
 2863W        W 7063   0.451   9.915   9.511
 2864W        W 7064  10.821   0.225   1.273
 2865W        W 7065   2.767   7.372  10.185
 2866W        W 7066   9.909   6.515   0.285
 2867W        W 7067  10.361   1.288   9.243
 2868W        W 7068   8.377   5.044  11.496
 2869W        W 7069   7.426   0.936   9.158
 2870W        W 7070   8.759   7.558  11.045
 2871W        W 7071   0.763   2.297   9.655
 2872W        W 7072   2.165   9.179   2.867
 2873W        W 7073   8.456   3.239   8.394
 2874W        W 7074   0.304   1.739  10.046
 2875W        W 7075   8.344   4.131   0.480
 2876W        W 7076   6.259   5.750   0.789
 2877W        W 7077   6.088   0.976   8.995
 2878W        W 7078   6.054   7.439   9.786
 2879W        W 7079   2.329   0.247  11.352
 2880W        W 7080   4.327   6.819   2.681
 2881W        W 7081   2.087   7.881   1.048
 2882W        W 7082   8.037   9.260   9.561
 2883W        W 7083   7.629   6.705  11.336
 2884W        W 7084  10.850  11.434   0.231
 2885W        W 7085   2.199   7.472   3.093
 2886W        W 7086   2.402   5.268   2.171
 2887W        W 7087   3.302   4.717   8.957
 2888W        W 7088   2.166   2.883   9.307
 2889W        W 7089  10.496  10.014   3.481
 2890W        W 7090   8.890   0.634   8.977
 2891W        W 7091   3.430  10.900   3.855
 2892W        W 7092   0.117   1.455   2.221
 2893W        W 7093   6.804   7.962  11.164
 2894W        W 7094   2.692  10.678  10.427
 2895W        W 7095   4.586   4.033   2.555
 2896W        W 7096   8.161   3.658   0.337
 2897W        W 7097   2.375   7.568   0.684
 2898W        W 7098   6.468   9.390  10.403
 2899W        W 7099   4.101   6.423  11.238
 2900W        W 7100  10.851   5.354  11.299
 2901W        W 7101   0.883   6.693  11.591
 2902W        W 7102   0.270   0.421   9.950
 2903W        W 7103   7.151  11.326   3.541
 2904W        W 7104   5.988   8.104  10.993
 2905W        W 7105   7.416   9.592   1.853
 2906W        W 7106   5.687  11.353   1.312
 2907W        W 7107   7.940   3.691  10.426
 2908W        W 7108   2.260   1.170   2.785
 2909W        W 7109   0.069   4.176   2.549
 2910W        W 7110   4.043   3.384   8.753
 2911W        W 7111   9.400   6.557   3.580
 2912W        W 7112   5.342  11.318   1.695
 2913W        W 7113   9.024   2.295   1.364
 2914W        W 7114   8.953   9.027   1.556
 2915W        W 7115   9.964   0.461   2.353
 2916W        W 7116   0.346   9.253   1.210
 2917W        W 7117   0.698   9.525   1.963
 2918W        W 7118   5.139   9.603   8.548
 2919W        W 7119   0.322   8.022   3.101
 2920W        W 7120   8.059   9.504   2.466
 2921W        W 7121  11.421  11.377   2.526
 2922W        W 7122   7.111   2.951   4.099
 2923W        W 7123   4.827  10.820   9.888
 2924W        W 7124   6.437   2.361  10.815
 2925W        W 7125   5.157   6.887   3.582
 2926W        W 7126   4.084  11.059  11.185
 2927W        W 7127   2.747  11.072   2.014
 2928W        W 7128  10.598   0.471   0.889
 2929W        W 7129   5.236   2.624   0.821
 2930W        W 7130   0.229   6.961   1.258
 2931W        W 7131   0.589   1.769   2.871
 2932W        W 7132   0.878   7.672   9.994
 2933W        W 7133   1.556   2.125  10.292
 2934W        W 7134   0.178   9.575   2.074
 2935W        W 7135   2.880   2.127   0.056
 2936W        W 7136   8.418   6.764  11.984
 2937W        W 7137  10.608   8.573  10.467
 2938W        W 7138   1.808   9.313  11.858
 2939W        W 7139   6.303  10.476  11.878
 2940W        W 7140   0.352   3.396   2.358
 2941W        W 7141   7.282   2.409  11.356
 2942W        W 7142   3.394   5.668   2.841
 2943W        W 7143   3.571   4.336   3.051
 2944W        W 7144  11.096   0.878  10.956
 2945W        W 7145   3.223   5.174   2.855
 2946W        W 7146   0.852   9.505  10.309
 2947W        W 7147  10.367   0.437   0.018
 2948W        W 7148   5.082  10.100   2.615
 2949W        W 7149   9.546   5.035   2.668
 2950W        W 7150   9.529   6.979   8.629
 2951W        W 7151   2.663   1.988   1.864
 2952W        W 7152   3.864   1.442   9.461
 2953W        W 7153  10.895   5.668   0.743
 2954W        W 7154   3.960  11.302   9.988
 2955W        W 7155   2.669  10.237  10.754
 2956W        W 7156   0.296   5.227   3.255
 2957W        W 7157   7.569   3.354  10.496
 2958W        W 7158   9.876   9.610   9.559
 2959W        W 7159   5.170   9.325   8.991
 2960W        W 7160   5.521   6.315  11.824
 2961W        W 7161   1.228   3.238   0.181
 2962W        W 7162   5.972   1.749   2.372
 2963W        W 7163   0.890  10.346   1.866
 2964W        W 7164   3.785   1.234   2.420
 2965W        W 7165   9.381   2.790   1.030
 2966W        W 7166   7.409   5.010   3.788
 2967W        W 7167   5.064   6.092   0.519
 2968W        W 7168   4.934  10.108   1.730
 2969W        W 7169   9.372   8.134   1.357
 2970W        W 7170   7.942   9.072   9.094
 2971W        W 7171   3.854   5.508   0.247
 2972W        W 7172   1.712   3.150  10.948
 2973W        W 7173   8.952   8.827   0.274
 2974W        W 7174   2.897  10.305   9.095
 2975W        W 7175   9.078   1.500   2.593
 2976W        W 7176   5.122   7.322   8.878
 2977W        W 7177  10.777   3.275   0.902
 2978W        W 7178   2.740   1.859   2.712
 2979W        W 7179   5.850   3.305   9.387
 2980W        W 7180  10.022   9.470   0.892
 2981W        W 7181   8.961   2.941   0.770
 2982W        W 7182   0.178   4.048  11.660
 2983W        W 7183   5.203   1.441  11.086
 2984W        W 7184   2.172   4.275   9.588
 2985W        W 7185   6.780   2.106   2.417
 2986W        W 7186   0.513   0.433  10.390
 2987W        W 7187  10.146   7.086   9.491
 2988W        W 7188   3.549   6.707   9.829
 2989W        W 7189   6.115   6.526   9.949
 2990W        W 7190   2.712   6.751   8.259
 2991W        W 7191   0.346   0.070   1.163
 2992W        W 7192   2.082   4.299   9.075
 2993W        W 7193  11.408   3.900   0.762
 2994W        W 7194   3.714   0.850   9.081
 2995W        W 7195   6.529   4.579  10.704
 2996W        W 7196   8.626  10.477   9.015
 2997W        W 7197   0.147   0.412   3.219
 2998W        W 7198   8.857   4.869  11.519
 2999W        W 7199   9.752  11.312  11.714
 3000W        W 7200   0.456   3.264   8.939
 3001W        W 7201   2.227   0.016   0.011
 3002W        W 7202  10.910   0.437   0.431
 3003W        W 7203   4.874   1.465   9.565
 3004W        W 7204   0.919   1.379   2.851
 3005W        W 7205   4.323   2.334   2.647
 3006W        W 7206   7.267   2.805   3.113
 3007W        W 7207   3.479   9.469   2.755
 3008W        W 7208   4.366   3.700  10.569
 3009W        W 7209  10.767   0.801  10.577
 3010W        W 7210   9.886   7.674   2.971
 3011W        W 7211   1.230   5.780   1.862
 3012W        W 7212   0.778   8.513  11.223
 3013W        W 7213   2.978   6.000   9.860
 3014W        W 7214   1.299   3.172   1.746
 3015W        W 7215   7.406   2.098   0.927
 3016W        W 7216   1.385   8.602   0.954
 3017W        W 7217   4.120   9.181  10.441
 3018W        W 7218   0.697   8.388   3.755
 3019W        W 7219   3.744   4.920  10.286
 3020W        W 7220   9.586   5.139  11.721
 3021W        W 7221  10.004   8.102   2.687
 3022W        W 7222   2.274   1.951   9.247
 3023W        W 7223   5.644   8.997   2.514
 3024W        W 7224   5.134   3.813  10.914
 3025W        W 7225   6.699   2.688   8.548
 3026W        W 7226   4.255   1.122  11.913
 3027W        W 7227   6.546   1.670   8.771
 3028W        W 7228   3.221   5.288  11.038
 3029W        W 7229   2.639   0.615   1.179
 3030W        W 7230   3.848   5.851   1.470
 3031W        W 7231   3.626   4.342   1.239
 3032W        W 7232   5.088   5.706  10.212
 3033W        W 7233   0.695   7.996  11.353
 3034W        W 7234   8.679   7.460  10.382
 3035W        W 7235   4.620   7.955  11.043
 3036W        W 7236  11.207  11.034   1.787
 3037W        W 7237  10.059   5.185   2.445
 3038W        W 7238   6.255   3.269   9.060
 3039W        W 7239   1.391   5.723  10.205
 3040W        W 7240   2.665   1.693  10.371
 3041W        W 7241  10.150   9.603   1.638
 3042W        W 7242   2.651   0.188  11.817
 3043W        W 7243   0.157   2.616   0.990
 3044W        W 7244   3.139   7.540   1.679
 3045W        W 7245   3.616   9.769   3.177
 3046W        W 7246   0.913  10.803  11.945
 3047W        W 7247   6.282   7.681   0.625
 3048W        W 7248   6.025   1.368   8.451
 3049W        W 7249   9.890   5.164  11.314
 3050W        W 7250   9.184   7.940   9.026
 3051W        W 7251   7.963   4.708   2.527
 3052W        W 7252   6.771   8.832  11.154
 3053W        W 7253   7.712   3.634   2.831
 3054W        W 7254   3.156  10.897  11.906
 3055W        W 7255   7.739   7.582  10.367
 3056W        W 7256  11.021  11.465   3.329
 3057W        W 7257   7.055   0.569   9.074
 3058W        W 7258   0.517  10.847  11.557
 3059W        W 7259   9.915   7.605   9.629
 3060W        W 7260   0.895   0.450   0.666
 3061W        W 7261   2.330   7.210   9.929
 3062W        W 7262   1.193   1.181   9.177
 3063W        W 7263   4.420   2.668  11.412
 3064W        W 7264   3.696  11.381   9.079
 3065W        W 7265  10.408   8.176  11.478
 3066W        W 7266  10.942   2.741   0.210
 3067W        W 7267   9.935   4.863   3.464
 3068W        W 7268   8.889   7.253   0.331
 3069W        W 7269   2.769   1.816  11.639
 3070W        W 7270   7.492  10.378   9.794
 3071W        W 7271   9.480   8.891   8.942
 3072W        W 7272   7.447   6.754   3.171
 3073W        W 7273   5.519  10.763   1.906
 3074W        W 7274   1.462   5.263  11.485
 3075W        W 7275   0.010  10.083   2.019
 3076W        W 7276   5.536   0.618  10.162
 3077W        W 7277   5.824   7.570   0.803
 3078W        W 7278   5.235   3.733   2.268
 3079W        W 7279  10.538   1.421   2.915
 3080W        W 7280   8.175   5.043  10.465
 3081W        W 7281   6.672  10.471   1.229
 3082W        W 7282   6.754   3.767  11.328
 3083W        W 7283   6.059  11.007   1.273
 3084W        W 7284   9.864   4.701  11.565
 3085W        W 7285  11.278   9.269   3.406
 3086W        W 7286   0.502   5.925  10.845
 3087W        W 7287   7.470   8.524  11.472
 3088W        W 7288   5.177   5.725   9.675
 3089W        W 7289   8.057   0.011   3.407
 3090W        W 7290   2.673  10.191  10.255
 3091W        W 7291   8.319   0.789  11.208
 3092W        W 7292   9.427   7.372   1.056
 3093W        W 7293   8.964   1.598   9.339
 3094W        W 7294   5.605   4.481   1.081
 3095W        W 7295   2.914   4.650   8.614
 3096W        W 7296   5.308  10.979   9.775
 3097W        W 7297   1.844   6.557   2.785
 3098W        W 7298   4.160  11.444   8.873
 3099W        W 7299   6.608   9.864   8.944
 3100W        W 7300   5.824   6.050  11.538
 3101W        W 7301   0.853   2.657  10.716
 3102W        W 7302   4.582   5.452   1.447
 3103W        W 7303   4.283   7.840  10.075
 3104W        W 7304   2.836   7.516   2.098
 3105W        W 7305   1.434   8.157  10.525
 3106W        W 7306   7.507   2.756   1.651
 3107W        W 7307  11.383   1.259   0.036
 3108W        W 7308   8.038   0.824   1.978
 3109W        W 7309   6.128   0.450  11.777
 3110W        W 7310   5.243  10.487   1.057
 3111W        W 7311   8.117   2.446  11.932
 3112W        W 7312   7.048   4.076   1.079
 3113W        W 7313   3.253   8.670   9.362
 3114W        W 7314   3.595   5.760  11.861
 3115W        W 7315   5.814  10.762   0.285
 3116W        W 7316   4.044   0.788  10.431
 3117W        W 7317  11.394   5.199   9.747
 3118W        W 7318   6.446   4.766  11.704
 3119W        W 7319   1.206   8.591   9.328
 3120W        W 7320   3.265   7.911   0.367
 3121W        W 7321   3.272   8.209   1.264
 3122W        W 7322   1.805  11.225  10.564
 3123W        W 7323   4.567   0.012   0.894
 3124W        W 7324   8.531  11.360   2.637
 3125W        W 7325   6.159   1.297   0.738
 3126W        W 7326   0.893   7.270   4.071
 3127W        W 7327   0.371   3.807   0.996
 3128W        W 7328   3.735   3.202  11.885
 3129W        W 7329   1.631  10.307   9.016
 3130W        W 7330   3.531  11.249   3.055
 3131W        W 7331  11.045   8.726   0.582
 3132W        W 7332   5.703   2.301   9.201
 3133W        W 7333   2.530   5.075   3.787
 3134W        W 7334   6.763  10.534   9.077
 3135W        W 7335   5.738   2.828  10.016
 3136W        W 7336   3.975   4.676   9.817
 3137W        W 7337   4.560   9.073   0.288
 3138W        W 7338   7.764   8.323   9.237
 3139W        W 7339   0.255   0.852  10.279
 3140W        W 7340  11.472   1.237   1.303
 3141W        W 7341  11.134  10.736   3.566
 3142W        W 7342   1.289  11.367  10.498
 3143W        W 7343   6.855   7.871   2.341
 3144W        W 7344   6.501   4.503   2.617
 3145W        W 7345   1.024   4.512   1.331
 3146W        W 7346   4.268  10.330   2.006
 3147W        W 7347   0.625  10.055   0.195
 3148W        W 7348   1.417   9.522  11.013
 3149W        W 7349   8.967   1.091   9.195
 3150W        W 7350   2.918   0.293   0.248
 3151W        W 7351  11.391   8.727   3.361
 3152W        W 7352  11.231   4.547   3.424
 3153W        W 7353  11.215   4.348   9.875
 3154W        W 7354   1.910   1.869   0.039
 3155W        W 7355   6.964   9.800   0.912
 3156W        W 7356   5.292   8.950  10.989
 3157W        W 7357   1.891   3.885   0.884
 3158W        W 7358  10.492   8.443  11.921
 3159W        W 7359   4.395   9.942   9.234
 3160W        W 7360   2.558   1.231   2.387
 3161W        W 7361   8.450   5.564   8.993
 3162W        W 7362   1.557  10.402   0.988
 3163W        W 7363   3.739   1.767  10.423
 3164W        W 7364   5.607   1.678   1.618
 3165W        W 7365   8.162   1.045   2.442
 3166W        W 7366  10.532   9.334   0.181
 3167W        W 7367   6.239   5.077  10.469
 3168W        W 7368   3.597  10.978   9.456
 3169W        W 7369   8.494   2.671   9.993
 3170W        W 7370   2.305   8.668   9.105
 3171W        W 7371  10.815   9.592   3.540
 3172W        W 7372   9.340   4.281   9.623
 3173W        W 7373   5.740   7.987   9.090
 3174W        W 7374   3.153   6.951   1.048
 3175W        W 7375   9.989   4.552  10.175
 3176W        W 7376   2.826   2.802   0.476
 3177W        W 7377   5.572   2.844   3.375
 3178W        W 7378   6.960   0.780  10.243
 3179W        W 7379  11.457  10.951   2.264
 3180W        W 7380   2.112   6.117  11.765
 3181W        W 7381  11.345   7.610   1.621
 3182W        W 7382   1.689   0.699   9.170
 3183W        W 7383  10.592   8.858   1.387
 3184W        W 7384   3.207   8.873   1.981
 3185W        W 7385   6.079   8.312   1.777
 3186W        W 7386   0.364  11.070   1.318
 3187W        W 7387   5.995  10.913  11.441
 3188W        W 7388   9.869   2.229  11.777
 3189W        W 7389   8.928   0.876  10.739
 3190W        W 7390   8.615   3.789   2.677
 3191W        W 7391   1.232   6.589   3.543
 3192W        W 7392   8.875   1.221   9.689
 3193W        W 7393   3.821   7.789  11.429
 3194W        W 7394   8.316   9.551   2.013
 3195W        W 7395   9.307   7.841   1.837
 3196W        W 7396   0.950   9.873   9.377
 3197W        W 7397   8.793   4.564   1.269
 3198W        W 7398   1.090  11.307  11.940
 3199W        W 7399   1.193   0.998   2.635
 3200W        W 7400   5.746   3.276   8.385
 3201W        W 7401   9.932   6.179   9.846
 3202W        W 7402   5.639   0.932   2.212
 3203W        W 7403   2.695   7.169  11.742
 3204W        W 7404   5.754  11.271   0.416
 3205W        W 7405   2.644   2.846   9.452
 3206W        W 7406   3.735   2.733   3.291
 3207W        W 7407  10.943   8.955   9.291
 3208W        W 7408   2.190  11.245   2.774
 3209W        W 7409   9.079   4.719   9.675
 3210W        W 7410   8.130   9.384   1.567
 3211W        W 7411   7.539   9.038   2.933
 3212W        W 7412   1.997   7.630   2.637
 3213W        W 7413   8.696  11.320   0.395
 3214W        W 7414   0.788   1.591  11.344
 3215W        W 7415   8.448   0.573   1.729
 3216W        W 7416   7.506   7.985   1.007
 3217W        W 7417   4.003   2.826   9.565
 3218W        W 7418   0.830   8.805   0.061
 3219W        W 7419  10.773   4.860  11.451
 3220W        W 7420  11.275   8.183   0.370
 3221W        W 7421   2.736   1.526  11.223
 3222W        W 7422   6.608   0.756   2.769
 3223W        W 7423   4.182   0.962   3.412
 3224W        W 7424  10.816  10.787  10.899
 3225W        W 7425   7.258   1.347   9.581
 3226W        W 7426  10.930   2.546   9.718
 3227W        W 7427   9.430   6.619   0.317
 3228W        W 7428   1.874   2.909   2.724
 3229W        W 7429   3.478   4.398   0.456
 3230W        W 7430   9.564   6.554   0.808
 3231W        W 7431  10.219   1.271   3.325
 3232W        W 7432   7.513   9.425  11.290
 3233W        W 7433   9.885   9.485  10.529
 3234W        W 7434   3.918  10.063   9.336
 3235W        W 7435   3.441   7.965   1.741
 3236W        W 7436  10.610   1.825   9.192
 3237W        W 7437  10.838   0.836   3.481
 3238W        W 7438   3.607   8.950   0.542
 3239W        W 7439   6.980   4.321   2.786
 3240W        W 7440   3.142   3.215   0.457
 3241W        W 7441   6.534   9.205   8.476
 3242W        W 7442   6.097   5.220  11.897
 3243W        W 7443   4.333   8.615   2.577
 3244W        W 7444   6.279  11.298   0.374
 3245W        W 7445   3.657   6.505   2.140
 3246W        W 7446   2.814   4.332   0.932
 3247W        W 7447   1.246  10.070   1.265
 3248W        W 7448  11.311  10.288   9.944
 3249W        W 7449   8.083  10.318  11.279
 3250W        W 7450   0.936   5.620   9.949
 3251W        W 7451   8.418   7.065   9.823
 3252W        W 7452   0.785   7.776  10.883
 3253W        W 7453   3.948   3.207   0.900
 3254W        W 7454   6.398   5.752  10.543
 3255W        W 7455  10.420   9.788   0.928
 3256W        W 7456   0.787   9.973   0.675
 3257W        W 7457   0.399  11.035   9.950
 3258W        W 7458   4.654   4.392  10.011
 3259W        W 7459   0.855   1.260  11.723
 3260W        W 7460  11.483   0.165   0.712
 3261W        W 7461  10.910   1.250   3.206
 3262W        W 7462   1.890  10.463   3.102
 3263W        W 7463   6.309   6.028   1.220
 3264W        W 7464   0.322  11.463  10.247
 3265W        W 7465  10.278   0.527   2.767
 3266W        W 7466   5.368  10.082   0.762
 3267W        W 7467   5.993  11.357   2.872
 3268W        W 7468   2.798   9.390   9.237
 3269W        W 7469   8.384   9.275   3.261
 3270W        W 7470   9.918   2.832   0.455
 3271W        W 7471   9.393   0.022   1.444
 3272W        W 7472   5.056  11.476   2.489
 3273W        W 7473   9.669   0.045   0.148
 3274W        W 7474   8.408   8.624   2.060
 3275W        W 7475   3.335   8.468   2.821
 3276W        W 7476   0.380   6.084   0.739
 3277W        W 7477   4.213   6.534   8.564
 3278W        W 7478   5.059   2.365   9.992
 3279W        W 7479   1.187   8.762   2.845
 3280W        W 7480   2.597   8.453   3.326
 3281W        W 7481   0.363  11.033   8.447
 3282W        W 7482   7.507   1.423   1.184
 3283W        W 7483   1.421   2.211   3.236
 3284W        W 7484   9.964   7.187   9.945
 3285W        W 7485   1.297   0.592   2.372
 3286W        W 7486   2.688   3.466   1.018
 3287W        W 7487  11.297   6.875   0.372
 3288W        W 7488   7.469   8.189   0.311
 3289W        W 7489   6.972  10.174   0.064
 3290W        W 7490   0.463   0.459   1.467
 3291W        W 7491   5.516   3.258   0.095
 3292W        W 7492   8.659   5.993  10.057
 3293W        W 7493   2.217   4.120   1.756
 3294W        W 7494   0.396   2.968  11.846
 3295W        W 7495   7.673   0.074   1.675
 3296W        W 7496   1.928   5.136   2.337
 3297W        W 7497   7.473   2.674   2.164
 3298W        W 7498   1.413   6.932   9.525
 3299W        W 7499   8.489   0.294   2.967
 3300W        W 7500   1.561   9.455   0.845
 3301W        W 7501  11.337   1.618   0.417
 3302W        W 7502   6.599   7.102   9.652
 3303W        W 7503   9.050   8.898  11.235
 3304W        W 7504   3.744   4.640   0.827
 3305W        W 7505   1.804   0.460  10.014
 3306W        W 7506   8.381   8.896   9.413
 3307W        W 7507   1.046   7.945  11.746
 3308W        W 7508   0.439   5.556  10.480
 3309W        W 7509   2.957   9.511   9.861
 3310W        W 7510  10.852   0.679   8.934
 3311W        W 7511   3.241   8.206  10.095
 3312W        W 7512   7.464   0.530   0.270
 3313W        W 7513  11.321   6.455  10.452
 3314W        W 7514   3.170   1.275   1.552
 3315W        W 7515   3.194   7.690  10.802
 3316W        W 7516   6.679   9.062   2.420
 3317W        W 7517   8.056   0.511   0.305
 3318W        W 7518   1.883   3.082   1.277
 3319W        W 7519   4.989  10.352   0.506
 3320W        W 7520  10.304   3.686   8.664
 3321W        W 7521   3.886   2.339   0.916
 3322W        W 7522   7.539   5.625   1.576
 3323W        W 7523   1.371   8.908   1.931
 3324W        W 7524   6.211  10.134   1.180
 3325W        W 7525  10.588   6.083   0.680
 3326W        W 7526   4.020   2.193   3.521
 3327W        W 7527   9.768   3.065   1.859
 3328W        W 7528   0.191   4.513   2.982
 3329W        W 7529   0.546   3.893  10.570
 3330W        W 7530   6.044  10.582   1.018
 3331W        W 7531  10.478  11.208   0.495
 3332W        W 7532  10.378  10.465   9.227
 3333W        W 7533   4.361   5.995  11.185
 3334W        W 7534   9.348   1.005   9.574
 3335W        W 7535   3.074   1.447  10.558
 3336W        W 7536   4.735   6.792   9.484
 3337W        W 7537   4.660   1.101   2.898
 3338W        W 7538  10.720   3.619   2.660
 3339W        W 7539   0.617   9.053  10.509
 3340W        W 7540   8.506   1.449   8.480
 3341W        W 7541   0.854   0.489   3.162
 3342W        W 7542   0.400   2.237   8.757
 3343W        W 7543   6.177  11.476   9.872
 3344W        W 7544   4.085   1.612   1.309
 3345W        W 7545   9.940   6.656  11.275
 3346W        W 7546   4.059   5.041   0.052
 3347W        W 7547   8.043  10.529   1.429
 3348W        W 7548   7.267   5.462   1.041
 3349W        W 7549  11.363   6.015   2.389
 3350W        W 7550   9.477   8.404   2.767
 3351W        W 7551   0.576   7.497  11.281
 3352W        W 7552   7.470   6.044   1.902
 3353W        W 7553   2.990   9.681   3.552
 3354W        W 7554   6.776   4.218   2.279
 3355W        W 7555   3.432   6.553   2.647
 3356W        W 7556   4.998   7.527   1.292
 3357W        W 7557   0.869   8.422  11.717
 3358W        W 7558   7.415   9.902  10.045
 3359W        W 7559   0.937   5.680  10.464
 3360W        W 7560   8.002   8.934   3.171
 3361W        W 7561   5.705   3.122  11.174
 3362W        W 7562  11.449   2.829   2.954
 3363W        W 7563   5.199  10.538  11.105
 3364W        W 7564   2.260   8.580   0.780
 3365W        W 7565   0.376   1.760  11.597
 3366W        W 7566   2.896   7.165  10.792
 3367W        W 7567   8.353   5.658   2.763
 3368W        W 7568   0.961   8.029   1.487
 3369W        W 7569   6.717   9.143   4.158
 3370W        W 7570   1.106  11.245   0.465
 3371W        W 7571   6.587   3.052   0.046
 3372W        W 7572   9.169   6.433   1.807
 3373W        W 7573   2.839   2.964   1.926
 3374W        W 7574   6.506   4.368   9.806
 3375W        W 7575   3.201   3.513   3.235
 3376W        W 7576   4.752   0.767  11.303
 3377W        W 7577   9.371   4.102  10.635
 3378W        W 7578   7.791   3.372   8.718
 3379W        W 7579   3.789   6.462   9.450
 3380W        W 7580  10.324   9.500  11.743
 3381W        W 7581   3.817   4.129   2.642
 3382W        W 7582   4.530   7.307   9.432
 3383W        W 7583   6.939   0.486   9.591
 3384W        W 7584   1.028   6.215   8.779
 3385W        W 7585   1.282   2.438  10.926
 3386W        W 7586   4.897   6.548  10.604
 3387W        W 7587   9.369   2.316  11.623
 3388W        W 7588  10.933   6.723   2.676
 3389W        W 7589   4.276   5.294   1.863
 3390W        W 7590   5.020   2.381   1.876
 3391W        W 7591   5.471   4.973   2.799
 3392W        W 7592   9.789   9.959  11.272
 3393W        W 7593   4.406   7.065   0.615
 3394W        W 7594   8.255   6.975   3.360
 3395W        W 7595  10.852  11.039  11.848
 3396W        W 7596  10.499   6.102   3.268
 3397W        W 7597   5.248   2.240   8.957
 3398W        W 7598   7.032   1.018   8.822
 3399W        W 7599   7.056   2.864  11.255
 3400W        W 7600   6.786   7.044  10.182
 3401W        W 7601   5.237   5.728   0.841
 3402W        W 7602  10.027   7.180  10.802
 3403W        W 7603   9.038   6.213   9.757
 3404W        W 7604   4.183   1.929   1.706
 3405W        W 7605   2.950   8.647   9.937
 3406W        W 7606   0.404   9.557   8.520
 3407W        W 7607   9.915   8.667   8.751
 3408W        W 7608   6.506   9.645   9.413
 3409W        W 7609   3.104   1.689   1.882
 3410W        W 7610   8.419   2.536   8.528
 3411W        W 7611   5.246   1.434   9.205
 3412W        W 7612   4.150   3.184   9.890
 3413W        W 7613   9.509  10.281  10.938
 3414W        W 7614   3.018   3.166  10.643
 3415W        W 7615   3.574   8.552   0.242
 3416W        W 7616   1.370   2.636   9.903
 3417W        W 7617   1.785   7.657  10.412
 3418W        W 7618   4.105   6.736  10.831
 3419W        W 7619   7.834   6.928   1.549
 3420W        W 7620   1.947   2.852   1.781
 3421W        W 7621   8.425   6.303   0.823
 3422W        W 7622   6.682  11.271   2.376
 3423W        W 7623   2.748   2.566   9.048
 3424W        W 7624   2.348   6.912   9.499
 3425W        W 7625   4.316   0.374  10.605
 3426W        W 7626   3.115  10.832   9.559
 3427W        W 7627   7.099   5.015   0.092
 3428W        W 7628  10.813   9.010   0.949
 3429W        W 7629   9.594   1.478   2.629
 3430W        W 7630   4.250   9.949   2.815
 3431W        W 7631   0.688   0.919   2.713
 3432W        W 7632   6.707  10.592   3.223
 3433W        W 7633  10.938  10.904   0.337
 3434W        W 7634  10.944   8.066   2.724
 3435W        W 7635   5.826   6.677  10.927
 3436W        W 7636   8.962   4.405  11.385
 3437W        W 7637   2.204   8.383   9.502
 3438W        W 7638   4.136   3.058   3.215
 3439W        W 7639   2.513   2.171   2.330
 3440W        W 7640   4.153   3.651  10.121
 3441W        W 7641   6.553  10.504  10.164
 3442W        W 7642   3.473   8.746   2.411
 3443W        W 7643   6.618   5.194  11.985
 3444W        W 7644   9.886   2.690   9.585
 3445W        W 7645  10.824   8.947  11.232
 3446W        W 7646   1.338   5.208   0.353
 3447W        W 7647   7.207   6.974   0.923
 3448W        W 7648   2.323   1.073   1.942
 3449W        W 7649   8.670   7.790   0.907
 3450W        W 7650   7.003   3.915  11.761
 3451W        W 7651   7.117   8.561   3.443
 3452W        W 7652   9.803   4.561   1.022
 3453W        W 7653   8.629  11.221   1.285
 3454W        W 7654   1.680   0.831   9.652
 3455W        W 7655   8.088   0.982   3.450
 3456W        W 7656   8.199  10.479  10.810
 3457W        W 7657  10.861   5.748   3.117
 3458W        W 7658   2.048   4.954   3.609
 3459W        W 7659   5.280   7.874  10.282
 3460W        W 7660   1.772   2.706   9.596
 3461W        W 7661   0.093   1.750  10.553
 3462W        W 7662   9.407   2.733   3.024
 3463W        W 7663   3.407   1.235   9.280
 3464W        W 7664   7.106   3.930   1.992
 3465W        W 7665   8.752   5.130   8.947
 3466W        W 7666   0.269   8.285   0.246
 3467W        W 7667   7.698   8.039  11.257
 3468W        W 7668   5.163   6.846   2.491
 3469W        W 7669   2.440   9.473  10.159
 3470W        W 7670   6.701   6.917  10.702
 3471W        W 7671   5.059   4.215   2.390
 3472W        W 7672   0.047   9.641  10.917
 3473W        W 7673   5.918   7.484   3.144
 3474W        W 7674  11.386   8.791   9.067
 3475W        W 7675   7.746   8.545  11.936
 3476W        W 7676   5.163   9.387   1.849
 3477W        W 7677   1.737   9.476   3.057
 3478W        W 7678   3.033   5.264   0.641
 3479W        W 7679   5.970   6.071   0.055
 3480W        W 7680  10.851   4.521   9.492
 3481W        W 7681   9.011   6.703   1.408
 3482W        W 7682   0.787  10.805   1.185
 3483W        W 7683   5.985   0.810  10.338
 3484W        W 7684  11.471   1.280  10.807
 3485W        W 7685   9.570   5.409  10.941
 3486W        W 7686   4.310   9.453   9.448
 3487W        W 7687  10.299   2.788   8.926
 3488W        W 7688   4.026   5.547   2.375
 3489W        W 7689  10.823   8.190  10.138
 3490W        W 7690   4.691   0.830   3.325
 3491W        W 7691   1.375   6.102  11.134
 3492W        W 7692   6.030   6.479  11.772
 3493W        W 7693   9.774   4.088  10.308
 3494W        W 7694   8.336   1.442   0.853
 3495W        W 7695   5.736   5.742   0.985
 3496W        W 7696   3.572   8.308   2.143
 3497W        W 7697   8.538   4.692   3.194
 3498W        W 7698   1.220   8.648   0.434
 3499W        W 7699   8.868  10.461   0.449
 3500W        W 7700   0.819   4.729   2.183
 3501W        W 7701   0.535  10.584  10.910
 3502W        W 7702  10.018   1.715   9.568
 3503W        W 7703   4.312   3.705   9.638
 3504W        W 7704   2.416   3.040   3.294
 3505W        W 7705   3.302   9.579   8.812
 3506W        W 7706   2.387   5.328  10.972
 3507W        W 7707   9.360   7.021   0.678
 3508W        W 7708   7.503   4.590   2.805
 3509W        W 7709  11.060  11.404   8.548
 3510W        W 7710   1.573   8.614   3.169
 3511W        W 7711  10.850   8.362   1.295
 3512W        W 7712   6.785   5.246   1.886
 3513W        W 7713  11.312   5.753   1.905
 3514W        W 7714   8.305  11.195  10.501
 3515W        W 7715   2.791   5.040  10.875
 3516W        W 7716   2.262   6.633  11.284
 3517W        W 7717   1.599   8.528   2.320
 3518W        W 7718   3.035  10.567   0.753
 3519W        W 7719   3.271   5.603   9.025
 3520W        W 7720   1.031  10.717  11.001
 3521W        W 7721   1.820   6.591  11.546
 3522W        W 7722   8.147   8.433   3.204
 3523W        W 7723   4.597   9.026   9.378
 3524W        W 7724  11.340   3.312   9.556
 3525W        W 7725   3.189   4.167  11.989
 3526W        W 7726   9.042   2.306   2.227
 3527W        W 7727   1.278   0.732  11.391
 3528W        W 7728   3.130   4.761   9.521
 3529W        W 7729   5.259   1.406   0.427
 3530W        W 7730   9.327   4.688   2.313
 3531W        W 7731   0.484   0.249   2.868
 3532W        W 7732   0.730   6.396  11.141
 3533W        W 7733   3.781   2.577   2.777
 3534W        W 7734   1.065  10.402   0.890
 3535W        W 7735   6.134   7.682   8.907
 3536W        W 7736   0.730   3.328  11.977
 3537W        W 7737   1.741   9.829   8.841
 3538W        W 7738   4.310   1.855   0.387
 3539W        W 7739   3.320   4.610  10.346
 3540W        W 7740  10.427  10.885   0.089
 3541W        W 7741   6.571   9.298  11.188
 3542W        W 7742   8.149   2.156  11.522
 3543W        W 7743   0.938   3.759  11.233
 3544W        W 7744   4.622   1.498  11.933
 3545W        W 7745   5.233  10.619   9.294
 3546W        W 7746   8.855  10.404   2.277
 3547W        W 7747  11.149   5.194   0.012
 3548W        W 7748   8.052  10.371   2.949
 3549W        W 7749   9.367   5.534   2.476
 3550W        W 7750   1.634   1.848  11.604
 3551W        W 7751   6.437   9.373   8.942
 3552W        W 7752   5.992  10.426  10.355
 3553W        W 7753   7.876   8.925   1.725
 3554W        W 7754  10.968   7.420   1.342
 3555W        W 7755   1.885   8.967   2.369
 3556W        W 7756   4.951   8.302  11.743
 3557W        W 7757  10.173  11.393   0.098
 3558W        W 7758   6.706  11.296   1.860
 3559W        W 7759   4.768   9.881   9.563
 3560W        W 7760   8.583  10.338  11.097
 3561W        W 7761   5.384   7.272   3.295
 3562W        W 7762   6.293   3.847   1.395
 3563W        W 7763   2.730   3.054  11.065
 3564W        W 7764  11.380   5.583   0.892
 3565W        W 7765   7.944   3.229   9.583
 3566W        W 7766   5.251  11.086   3.231
 3567W        W 7767   1.295   0.092   2.306
 3568W        W 7768   1.335   9.138   3.168
 3569W        W 7769   7.132   7.412   2.118
 3570W        W 7770   4.096   6.473  11.772
 3571W        W 7771  10.981   1.869   1.721
 3572W        W 7772   9.282  11.465   3.656
 3573W        W 7773   6.176   2.485   8.643
 3574W        W 7774   6.714   9.917   2.497
 3575W        W 7775   3.633   3.595   8.982
 3576W        W 7776   3.113  10.049   9.990
 3577W        W 7777   8.133   0.219   0.722
 3578W        W 7778  10.000  10.325   8.862
 3579W        W 7779   8.704   2.402   2.588
 3580W        W 7780   0.402   2.293   1.315
 3581W        W 7781   3.666   0.372   9.229
 3582W        W 7782  11.408  11.039   8.694
 3583W        W 7783  11.027   2.318   2.282
 3584W        W 7784   1.837   6.036  10.854
 3585W        W 7785   3.439   8.603   9.834
 3586W        W 7786   2.585   7.097   1.935
 3587W        W 7787   9.946   4.830   0.620
 3588W        W 7788   7.734   8.831   2.219
 3589W        W 7789  11.324  10.562   1.986
 3590W        W 7790   0.921   5.429   1.625
 3591W        W 7791   6.974   1.889   0.647
 3592W        W 7792   1.981   2.292  11.751
 3593W        W 7793   6.540   5.683   1.518
 3594W        W 7794   9.119   3.449  11.210
 3595W        W 7795   3.511   7.482   2.617
 3596W        W 7796   3.584   7.078  10.183
 3597W        W 7797   7.273   6.223  11.009
 3598W        W 7798   3.997   9.327   8.519
 3599W        W 7799   6.155   2.817   0.739
 3600W        W 7800   9.545   9.059  11.767
 3601W        W 7801   2.398   9.161   8.984
 3602W        W 7802   9.218   5.780   3.027
 3603W        W 7803   4.992   6.661  11.238
 3604W        W 7804   4.247   4.723  11.246
 3605W        W 7805   5.360   8.849  11.895
 3606W        W 7806   3.234   7.911   2.228
 3607W        W 7807   8.456   1.810   0.511
 3608W        W 7808  11.358   7.828   3.030
 3609W        W 7809   0.994   8.262  10.821
 3610W        W 7810   1.134   4.269  11.276
 3611W        W 7811   6.108   5.280   9.472
 3612W        W 7812   6.667  10.207   0.806
 3613W        W 7813   6.803   0.297  10.067
 3614W        W 7814   5.626   4.068   9.811
 3615W        W 7815   4.616   1.610   2.949
 3616W        W 7816   8.068   8.125   0.993
 3617W        W 7817   1.911  10.314   0.225
 3618W        W 7818   1.314   2.729   9.345
 3619W        W 7819   6.488   2.633   2.338
 3620W        W 7820   4.110   7.568   9.645
 3621W        W 7821   2.296   5.559  10.432
 3622W        W 7822   9.546   8.263  10.739
 3623W        W 7823   1.896   6.984   9.271
 3624W        W 7824   9.961   0.869   0.591
 3625W        W 7825   6.178   8.537   2.239
 3626W        W 7826  11.314   1.104   0.525
 3627W        W 7827   7.484   7.674   0.229
 3628W        W 7828  11.070   6.159   0.867
 3629W        W 7829   2.138   9.005   0.508
 3630W        W 7830   8.389   6.889   2.322
 3631W        W 7831   3.237   4.706   2.097
 3632W        W 7832  10.959   1.388   1.443
 3633W        W 7833   4.671   1.909   0.919
 3634W        W 7834   5.644   0.641   1.786
 3635W        W 7835   3.203   7.570   3.041
 3636W        W 7836   1.066   7.629  11.334
 3637W        W 7837  10.027   9.957   3.250
 3638W        W 7838   5.759   2.220   2.352
 3639W        W 7839   9.034  10.817   1.531
 3640W        W 7840   6.545   8.171   2.917
 3641W        W 7841   1.831  10.404  10.732
 3642W        W 7842   9.947   8.751   0.084
 3643W        W 7843   1.744   4.237   9.921
 3644W        W 7844   4.266   8.491   0.946
 3645W        W 7845   9.864   5.681  11.286
 3646W        W 7846   0.182   1.716   0.055
 3647W        W 7847   3.658  10.468   9.479
 3648W        W 7848   8.511  10.849   0.444
 3649W        W 7849   5.017   3.881   9.208
 3650W        W 7850   8.041   0.048   2.432
 3651W        W 7851   5.456   7.450   0.358
 3652W        W 7852  10.433   0.839  10.955
 3653W        W 7853   8.221   1.893   0.069
 3654W        W 7854   0.691   0.055  11.061
 3655W        W 7855   8.071  10.332   3.456
 3656W        W 7856   8.549   6.619   3.135
 3657W        W 7857  10.970   8.573  10.894
 3658W        W 7858   1.330   0.272   2.808
 3659W        W 7859   5.037   5.241  10.441
 3660W        W 7860   8.542   4.634  11.080
 3661W        W 7861   2.322   5.216   2.676
 3662W        W 7862   9.373   2.318   9.092
 3663W        W 7863   4.061   1.229   9.043
 3664W        W 7864   2.609   6.555   2.288
 3665W        W 7865   7.297   7.970  10.946
 3666W        W 7866   5.096   3.880   2.751
 3667W        W 7867   4.495   9.878   1.862
 3668W        W 7868   8.353  11.452   9.245
 3669W        W 7869   8.477   0.310   8.913
 3670W        W 7870   0.902   2.291   1.434
 3671W        W 7871   2.873  10.528   9.927
 3672W        W 7872   5.110   3.258   0.456
 3673W        W 7873   9.633   3.479   9.414
 3674W        W 7874  10.055   7.184   2.821
 3675W        W 7875  10.607   2.667  11.840
 3676W        W 7876   5.068   3.067   3.195
 3677W        W 7877   6.329   6.584  10.840
 3678W        W 7878   0.359  10.836   0.876
 3679W        W 7879  11.391   3.079   0.071
 3680W        W 7880   1.261   0.358   9.100
 3681W        W 7881  11.222   2.341   1.821
 3682W        W 7882   3.782   5.216   2.068
 3683W        W 7883   2.378   3.114   1.756
 3684W        W 7884   4.299   9.251  10.938
 3685W        W 7885   6.013   5.307  10.873
 3686W        W 7886   5.668   1.353   3.583
 3687W        W 7887   3.315   8.663  10.849
 3688W        W 7888   8.722   5.147   1.961
 3689W        W 7889   6.289   3.988  10.608
 3690W        W 7890   2.334  10.377   1.332
 3691W        W 7891   4.905   4.103   3.153
 3692W        W 7892   8.138  10.757   0.079
 3693W        W 7893   7.292   2.133  10.902
 3694W        W 7894   2.836  11.031   9.941
 3695W        W 7895   6.500   5.676   2.017
 3696W        W 7896   7.085   7.563  11.325
 3697W        W 7897   4.363   5.989   1.535
 3698W        W 7898   9.711   0.109   3.361
 3699W        W 7899   4.187   9.008   1.759
 3700W        W 7900   9.499   4.519   2.780
 3701W        W 7901   3.385   2.271  11.006
 3702W        W 7902   6.143   5.619   9.879
 3703W        W 7903   2.382   7.970  11.512
 3704W        W 7904   2.279   5.680  11.958
 3705W        W 7905   0.356   6.592   9.185
 3706W        W 7906   9.958   1.036  11.022
 3707W        W 7907   0.444  11.353   1.764
 3708W        W 7908  11.378   2.660  10.345
 3709W        W 7909   7.967   6.651   3.727
 3710W        W 7910   2.674   6.655  10.816
 3711W        W 7911   3.159   5.881   2.021
 3712W        W 7912   5.750   6.707   1.644
 3713W        W 7913  11.407   9.062   2.926
 3714W        W 7914   1.111   2.956  11.768
 3715W        W 7915  11.043   7.952   9.344
 3716W        W 7916   5.668   9.423   1.723
 3717W        W 7917   3.835   2.459  11.231
 3718W        W 7918   9.573   5.211   0.734
 3719W        W 7919   8.525   7.439   1.376
 3720W        W 7920   9.520   3.266  11.561
 3721W        W 7921   2.296   3.579  10.523
 3722W        W 7922   9.710   9.599   3.434
 3723W        W 7923   8.591  11.313  10.932
 3724W        W 7924   7.109   2.660  10.315
 3725W        W 7925   3.147   6.163   2.869
 3726W        W 7926   1.128   0.897   0.426
 3727W        W 7927   8.543   5.657   1.850
 3728W        W 7928  10.070   6.138   2.601
 3729W        W 7929   4.162   7.735  10.972
 3730W        W 7930  10.412  11.498   0.917
 3731W        W 7931   0.117   2.649   8.507
 3732W        W 7932   6.122   2.785  11.304
 3733W        W 7933   4.251   0.063   0.449
 3734W        W 7934   6.268   6.930   1.300
 3735W        W 7935   6.069   4.813   1.780
 3736W        W 7936   7.767   5.573   1.122
 3737W        W 7937   7.292   9.390   0.987
 3738W        W 7938   5.149   9.197   0.712
 3739W        W 7939   1.897  10.039   1.834
 3740W        W 7940   5.287   4.657  10.275
 3741W        W 7941   4.300   3.801   0.235
 3742W        W 7942   3.087   2.568   9.460
 3743W        W 7943   6.907   4.708   9.852
 3744W        W 7944   5.066   9.682   0.677
 3745W        W 7945   5.166   0.875   3.020
 3746W        W 7946   9.387   3.562   2.916
 3747W        W 7947   0.278   6.347  10.667
 3748W        W 7948   0.802  11.274   1.423
 3749W        W 7949   3.268   4.242  11.058
 3750W        W 7950   4.042   0.310  10.169
 3751W        W 7951   0.478   5.751   1.560
 3752W        W 7952  10.837   3.233   0.015
 3753W        W 7953   8.160   8.180   2.765
 3754W        W 7954   6.233   8.305  11.834
 3755W        W 7955   9.088   6.531   9.366
 3756W        W 7956   2.159   3.881   2.647
 3757W        W 7957   3.541  10.862   1.246
 3758W        W 7958   9.623   1.901   9.824
 3759W        W 7959   8.294   4.310   2.440
 3760W        W 7960   9.477  10.781   1.851
 3761W        W 7961   9.533   8.547  11.785
 3762W        W 7962   3.306   1.944   0.291
 3763W        W 7963   3.864   9.082   2.526
 3764W        W 7964   9.271   1.380   3.063
 3765W        W 7965   6.111   0.313  10.256
 3766W        W 7966   7.616   4.608  10.966
 3767W        W 7967  10.842  11.058   0.827
 3768W        W 7968   6.047   8.125   0.706
 3769W        W 7969   6.671   4.670  11.219
 3770W        W 7970   2.223   4.250  10.093
 3771W        W 7971   8.510   3.625   9.968
 3772W        W 7972   0.741   9.778   1.165
 3773W        W 7973   3.039   0.450   2.361
 3774W        W 7974   8.420   3.604  10.545
 3775W        W 7975   2.914   5.175   2.076
 3776W        W 7976   6.093   4.111   9.127
 3777W        W 7977   9.300   5.431   3.431
 3778W        W 7978   2.581   5.675   3.123
 3779W        W 7979   6.918  10.684   8.605
 3780W        W 7980   4.184   5.632  10.255
 3781W        W 7981   6.671   3.144   2.332
 3782W        W 7982   0.806  11.235   9.494
 3783W        W 7983   0.339   7.602   8.816
 3784W        W 7984   8.018   1.898   2.440
 3785W        W 7985   9.785   7.900   0.470
 3786W        W 7986   9.820   5.981   9.389
 3787W        W 7987   3.360   3.328  11.565
 3788W        W 7988   5.611   0.877   2.733
 3789W        W 7989  10.931   9.927   3.147
 3790W        W 7990   2.160   8.198   8.725
 3791W        W 7991   8.593  10.087   9.373
 3792W        W 7992   1.825   5.982   9.102
 3793W        W 7993  11.276   7.492   2.109
 3794W        W 7994  10.063   5.343   1.504
 3795W        W 7995   7.944   8.180   9.706
 3796W        W 7996   8.011   1.942   8.939
 3797W        W 7997   9.825   0.922   2.538
 3798W        W 7998   5.699   9.892   0.433
 3799W        W 7999  10.793   2.728  11.280
 3800W        W 8000   9.783   1.532  11.786
 3801W        W 8001   9.001   2.975  11.092
 3802W        W 8002   3.408   5.679   0.574
 3803W        W 8003   0.688   1.201   9.067
 3804W        W 8004   2.555   2.231  10.445
 3805W        W 8005   1.848   3.591   1.316
 3806W        W 8006   3.645   7.856   9.564
 3807W        W 8007   7.890   7.401  10.832
 3808W        W 8008   5.237   3.498  10.527
 3809W        W 8009   4.693  10.029  10.536
 3810W        W 8010   7.956   3.820   9.065
 3811W        W 8011   3.612   8.604   1.216
 3812W        W 8012   6.664   7.399   2.313
 3813W        W 8013   7.592   7.544  11.230
 3814W        W 8014   3.137  10.462  10.347
 3815W        W 8015   0.630   2.792   1.219
 3816W        W 8016   9.800   2.361  10.374
 3817W        W 8017   8.487   9.383  11.134
 3818W        W 8018   8.528  10.569   9.513
 3819W        W 8019   4.465  11.345  10.124
 3820W        W 8020  11.209   9.142  11.529
 3821W        W 8021   1.621   9.369   3.522
 3822W        W 8022   8.106   5.450   8.233
 3823W        W 8023   2.013   8.882   9.550
 3824W        W 8024   8.755   5.333   3.372
 3825W        W 8025   8.430   8.195   1.788
 3826W        W 8026  10.944   1.233   9.656
 3827W        W 8027   9.092   8.089   2.435
 3828W        W 8028   3.989   9.994   1.745
 3829W        W 8029   8.189   5.519   9.471
 3830W        W 8030  10.694   2.309   1.878
 3831W        W 8031   7.389   4.468   1.233
 3832W        W 8032   9.471   6.963  10.834
 3833W        W 8033   0.453   6.854   2.562
 3834W        W 8034  10.382   6.550   0.480
 3835W        W 8035   1.775   4.106  11.822
 3836W        W 8036   4.674   4.099  10.895
 3837W        W 8037   0.574   5.011   3.674
 3838W        W 8038   1.824  10.257   1.378
 3839W        W 8039   7.225  11.432   0.345
 3840W        W 8040   6.293   6.991  10.045
 3841W        W 8041   9.996   9.772   8.760
 3842W        W 8042   2.481  10.488   1.811
 3843W        W 8043   8.923   2.967   0.172
 3844W        W 8044   9.425   0.396   9.347
 3845W        W 8045  10.277   1.288   1.990
 3846W        W 8046   0.799   3.496  10.820
 3847W        W 8047   6.943   1.533   2.596
 3848W        W 8048   8.451  10.506  11.563
 3849W        W 8049  11.002  10.318  10.863
 3850W        W 8050   9.502   1.919  11.956
 3851W        W 8051   3.504   3.339   2.344
 3852W        W 8052   9.988   0.396   0.359
 3853W        W 8053   3.788   8.964  11.995
 3854W        W 8054   8.975  10.359   1.349
 3855W        W 8055   3.783   0.262   0.298
 3856W        W 8056   2.304   1.412  10.034
 3857W        W 8057   9.405   3.634  10.325
 3858W        W 8058   6.997   9.484   9.555
 3859W        W 8059   8.588   5.109   4.129
 3860W        W 8060  10.141   0.810   1.486
 3861W        W 8061   1.410   1.456   2.690
 3862W        W 8062   0.801   9.381   1.487
 3863W        W 8063   7.301  10.946   0.704
 3864W        W 8064   6.468   2.323   2.751
 3865W        W 8065   9.572   1.823   3.005
 3866W        W 8066   4.986   3.370   1.928
 3867W        W 8067   2.458   1.347  11.639
 3868W        W 8068   7.178   3.473   2.217
 3869W        W 8069   8.516  10.964   9.180
 3870W        W 8070  10.447  10.963  10.587
 3871W        W 8071   9.825   3.568   1.830
 3872W        W 8072  11.407   6.692   8.923
 3873W        W 8073   0.307   9.678   3.645
 3874W        W 8074   3.551   5.407   1.370
 3875W        W 8075   6.001   1.854   9.349
 3876W        W 8076   4.712   4.305   0.924
 3877W        W 8077   6.041   1.750   0.514
 3878W        W 8078   3.140   3.453   9.135
 3879W        W 8079   6.070   7.433  10.785
 3880W        W 8080   4.501   8.886  10.578
 3881W        W 8081  10.949   9.402   0.497
 3882W        W 8082   5.128   4.665   0.702
 3883W        W 8083   4.480   8.710   8.997
 3884W        W 8084   5.778   1.868   3.159
 3885W        W 8085  10.309  10.148  11.433
 3886W        W 8086   5.736   4.377   9.410
 3887W        W 8087   9.507   7.405   8.981
 3888W        W 8088   4.768   0.689  10.768
 3889W        W 8089   4.273   4.223   9.532
 3890W        W 8090   7.225   1.826   2.958
 3891W        W 8091   1.335  10.432  11.501
 3892W        W 8092   4.475   1.265   1.280
 3893W        W 8093   4.805   3.625   9.593
 3894W        W 8094   3.379   7.121   3.267
 3895W        W 8095   8.971  10.735  11.714
 3896W        W 8096  11.216   5.759  11.333
 3897W        W 8097   4.789  10.639   0.875
 3898W        W 8098  11.315   0.164   0.206
 3899W        W 8099   4.169   9.855   9.745
 3900W        W 8100   3.604   8.085   2.614
 3901W        W 8101   3.129   9.894  11.998
 3902W        W 8102   2.698   9.084   9.933
 3903W        W 8103   9.446   9.290  10.755
 3904W        W 8104   5.539   4.709   0.159
 3905W        W 8105   8.456   0.505  11.958
 3906W        W 8106  10.894  11.254  11.379
 3907W        W 8107   8.865   5.863  11.463
 3908W        W 8108   9.549   3.629  10.843
 3909W        W 8109   6.332   5.156   2.762
 3910W        W 8110   5.225  10.128   9.458
 3911W        W 8111   0.473   3.302   0.877
 3912W        W 8112  11.405   1.346   3.117
 3913W        W 8113   8.352   1.256  10.551
 3914W        W 8114   4.914  10.846  11.789
 3915W        W 8115   1.763   0.190   9.143
 3916W        W 8116   4.634   8.419  10.733
 3917W        W 8117   5.592  11.272  10.797
 3918W        W 8118   8.554   1.744   2.564
 3919W        W 8119   6.336   7.299   0.953
 3920W        W 8120   0.220   9.028   8.765
 3921W        W 8121  10.509   2.259   2.354
 3922W        W 8122   4.218   9.466   1.994
 3923W        W 8123  10.389   8.535   2.668
 3924W        W 8124  11.316   3.835   9.947
 3925W        W 8125   7.153   0.326  11.586
 3926W        W 8126   2.247   5.760   1.965
 3927W        W 8127   0.459   3.661   1.934
 3928W        W 8128   8.045   2.223   1.247
 3929W        W 8129   7.216   7.840   9.947
 3930W        W 8130   2.744   7.972   2.344
 3931W        W 8131   7.418   5.233   2.252
 3932W        W 8132   8.420   6.428   3.586
 3933W        W 8133   7.644   5.084   2.706
 3934W        W 8134   9.671  10.253   2.050
 3935W        W 8135   6.045   7.796   1.842
 3936W        W 8136  10.437  11.477  10.758
 3937W        W 8137   5.655   1.721  11.186
 3938W        W 8138   7.217   5.197   1.580
 3939W        W 8139   8.572   1.839  11.733
 3940W        W 8140   3.275   2.711   1.838
 3941W        W 8141   0.506   4.339  10.322
 3942W        W 8142   1.230  11.036   1.567
 3943W        W 8143   3.891   4.099   0.358
 3944W        W 8144   9.465   4.781   8.326
 3945W        W 8145   9.042   4.760  11.042
 3946W        W 8146   7.659   1.024   2.493
 3947W        W 8147   4.582  10.851   8.548
 3948W        W 8148   7.195   8.422   0.908
 3949W        W 8149   7.607   8.388   3.223
 3950W        W 8150   5.436   7.763   3.109
 3951W        W 8151   6.283  11.345  11.403
 3952W        W 8152   3.796   2.785   1.688
 3953W        W 8153   7.525   3.101  11.840
 3954W        W 8154   3.258   1.816   1.411
 3955W        W 8155   7.959   3.161   1.659
 3956W        W 8156   1.979   9.439  10.375
 3957W        W 8157   1.035   5.573  10.965
 3958W        W 8158   9.331   2.855   2.074
 3959W        W 8159   2.705   7.572   3.180
 3960W        W 8160   8.459   4.297  11.997
 3961W        W 8161   7.162   7.350   1.618
 3962W        W 8162   7.154   4.568   3.634
 3963W        W 8163   6.661   3.089   1.812
 3964W        W 8164   4.180   3.846   2.853
 3965W        W 8165   4.264   8.868  10.072
 3966W        W 8166   7.871   4.454  11.722
 3967W        W 8167   2.189   7.438  10.870
 3968W        W 8168   9.531   4.608  11.936
 3969W        W 8169   2.120   6.142   2.886
 3970W        W 8170   1.347   8.675  10.601
 3971W        W 8171   8.327   5.098   9.194
 3972W        W 8172   4.772  10.379   1.327
 3973W        W 8173   6.063   3.208   9.880
 3974W        W 8174   9.047   5.568   1.620
 3975W        W 8175   8.473   7.135   1.871
 3976W        W 8176   9.074   4.681   0.346
 3977W        W 8177   5.854   2.639  10.470
 3978W        W 8178   2.093   5.636   2.964
 3979W        W 8179   1.795   8.808  11.791
 3980W        W 8180  11.430   9.022   0.454
 3981W        W 8181   0.726   7.727   2.932
 3982W        W 8182   5.134   9.953   9.933
 3983W        W 8183   8.628   9.303  10.120
 3984W        W 8184   4.792   0.738   9.003
 3985W        W 8185   7.695   2.192   9.252
 3986W        W 8186   4.846   0.825   0.617
 3987W        W 8187   7.645  11.197  11.066
 3988W        W 8188   2.362   3.818   2.187
 3989W        W 8189   8.099   7.199   1.187
 3990W        W 8190   6.739   4.996   0.548
 3991W        W 8191   6.653  10.888   2.773
 3992W        W 8192   1.305   3.784   2.476
 3993W        W 8193   0.725   5.719   0.664
 3994W        W 8194   4.700   1.738   8.925
 3995W        W 8195   8.971   9.549   2.721
 3996W        W 8196   2.033   0.488  10.533
 3997W        W 8197   6.579   1.255   9.089
 3998W        W 8198   6.127   6.947  11.984
 3999W        W 8199   8.913   7.747   0.439
 4000W        W 8200   5.283   8.034   0.035
 4001W        W 8201   2.201   0.898   1.214
 4002W        W 8202   9.474   4.618   3.319
 4003W        W 8203  10.417   0.537   9.725
 4004W        W 8204   7.473   9.217   2.424
 4005W        W 8205  11.291   1.724   1.256
 4006W        W 8206   7.613   8.460  10.985
 4007W        W 8207   1.938  10.797   2.279
 4008W        W 8208   4.360   9.550   3.132
 4009W        W 8209   4.229   2.849   2.757
 4010W        W 8210   9.623   5.992   2.352
 4011W        W 8211   7.976   3.744   9.927
 4012W        W 8212   3.347   5.409   1.900
 4013W        W 8213   4.641   4.377   2.152
 4014W        W 8214   5.917   4.055   3.076
 4015W        W 8215   7.180  10.970   2.777
 4016W        W 8216   9.322   4.617   1.353
 4017W        W 8217   2.653   7.601  10.710
 4018W        W 8218  10.715   2.181  10.629
 4019W        W 8219   1.321   2.274   0.428
 4020W        W 8220   6.071   6.419   0.954
 4021W        W 8221   3.356   1.382   3.335
 4022W        W 8222   6.553   6.965   4.002
 4023W        W 8223   5.721   8.210  10.336
 4024W        W 8224   1.329   5.182   3.339
 4025W        W 8225   2.880   9.274   8.736
 4026W        W 8226   8.254   5.657   3.334
 4027W        W 8227   0.389   2.891   3.392
 4028W        W 8228   2.925   0.811   1.692
 4029W        W 8229   5.699  10.824   8.560
 4030W        W 8230   5.931   1.300  11.290
 4031W        W 8231   6.431   6.129   1.746
 4032W        W 8232   1.280   0.810   8.845
 4033W        W 8233   9.532   4.142   0.861
 4034W        W 8234   3.878   6.887   2.409
 4035W        W 8235   4.321   8.534   9.467
 4036W        W 8236   4.607   8.031   0.488
 4037W        W 8237   3.016   5.113   0.045
 4038W        W 8238   9.376   1.379   9.075
 4039W        W 8239   6.886  10.591   0.510
 4040W        W 8240   5.697   1.156   1.670
 4041W        W 8241  11.313   6.642   1.786
 4042W        W 8242   4.041  10.556   3.528
 4043W        W 8243   3.743   0.280  11.795
 4044W        W 8244   4.041   8.507   0.017
 4045W        W 8245   2.489   0.560   9.651
 4046W        W 8246   2.742  11.392   9.028
 4047W        W 8247   1.788   3.620  11.203
 4048W        W 8248   3.652   6.397   8.595
 4049W        W 8249   1.210   1.881   1.522
 4050W        W 8250  11.300   7.493  10.066
 4051W        W 8251   6.749   7.870   8.274
 4052W        W 8252   0.410  11.267  10.733
 4053W        W 8253   8.767   7.588  11.963
 4054W        W 8254   5.522   3.031  10.683
 4055W        W 8255   6.644   1.882  10.870
 4056W        W 8256  11.282   5.142   9.227
 4057W        W 8257   8.090   9.312  11.928
 4058W        W 8258   7.453   0.531   9.495
 4059W        W 8259   3.243   4.631   0.932
 4060W        W 8260   7.699   9.992   9.503
 4061W        W 8261   4.020   8.471   9.058
 4062W        W 8262   1.762  11.171   0.484
 4063W        W 8263   9.456  11.053   8.711
 4064W        W 8264   0.549   6.179   1.879
 4065W        W 8265   5.021   3.818   1.690
 4066W        W 8266   5.528   5.196  11.862
 4067W        W 8267   2.150   8.413  11.746
 4068W        W 8268   2.304   3.430   8.611
 4069W        W 8269  10.780   5.524  10.455
 4070W        W 8270   3.997   0.936   9.516
 4071W        W 8271   7.604   3.766   1.665
 4072W        W 8272   4.738   9.117  10.191
 4073W        W 8273  10.808   3.901   0.067
 4074W        W 8274   7.949  11.194  11.881
 4075W        W 8275   5.634   0.220  10.496
 4076W        W 8276   3.079   5.133   9.168
 4077W        W 8277   6.767  10.630   0.017
 4078W        W 8278   2.221   9.878  11.850
 4079W        W 8279   4.008   3.159   2.367
 4080W        W 8280   3.237   6.357   4.022
 4081W        W 8281   7.531   0.080   2.643
 4082W        W 8282   3.093  10.008  10.546
 4083W        W 8283   2.960  10.619   1.948
 4084W        W 8284   6.830   1.960   8.419
 4085W        W 8285   8.468   7.495  11.505
 4086W        W 8286   9.541   4.576   8.789
 4087W        W 8287   6.318   8.046  11.387
 4088W        W 8288   1.033   6.275   1.937
 4089W        W 8289  11.005   1.807  11.417
 4090W        W 8290   2.640   7.497   9.403
 4091W        W 8291   8.311   7.768  11.962
 4092W        W 8292   9.534   4.905   0.336
 4093W        W 8293   0.037   2.883  10.787
 4094W        W 8294   6.719  10.287  10.583
 4095W        W 8295   3.748   3.871   8.559
 4096W        W 8296   5.764   8.846   9.466
 4097W        W 8297   3.531   5.345   3.247
 4098W        W 8298   6.634   6.821  11.197
 4099W        W 8299   0.554   9.483   0.774
 4100W        W 8300   3.652   1.727   3.093
 4101W        W 8301   0.552   3.833   0.001
 4102W        W 8302   9.767   1.927  10.858
 4103W        W 8303   5.684   2.174   0.084
 4104W        W 8304   6.497   6.623   2.776
 4105W        W 8305   2.321   4.807  11.858
 4106W        W 8306   0.791   8.503   1.761
 4107W        W 8307  11.079  10.572  11.811
 4108W        W 8308   5.009   4.737   9.844
 4109W        W 8309   2.987   0.775   8.551
 4110W        W 8310   4.480   4.832   9.822
 4111W        W 8311   0.537   7.457   3.746
 4112W        W 8312  10.880   9.522   0.972
 4113W        W 8313   9.814   9.514  11.025
 4114W        W 8314   3.957   0.001   3.217
 4115W        W 8315   9.612   5.971  10.493
 4116W        W 8316   1.952   0.819   1.699
 4117W        W 8317  11.231   2.754   2.436
 4118W        W 8318   3.187   6.654   3.115
 4119W        W 8319   9.943   7.664  10.123
 4120W        W 8320   6.856  11.197   8.592
 4121W        W 8321   2.191   1.371   0.993
 4122W        W 8322   5.285   0.963   1.376
 4123W        W 8323   0.372  10.573   1.410
 4124W        W 8324   8.461   6.187   8.665
 4125W        W 8325  10.850  10.323   8.957
 4126W        W 8326   1.740   8.511   9.281
 4127W        W 8327  10.841   7.873   0.463
 4128W        W 8328   0.058   6.214   1.952
 4129W        W 8329  11.441   7.626   9.592
 4130W        W 8330  10.006   8.495  11.224
 4131W        W 8331  11.348   4.109  11.239
 4132W        W 8332  11.473  10.069   2.834
 4133W        W 8333   6.043   3.765  10.983
 4134W        W 8334   9.809   4.100  10.917
 4135W        W 8335  10.983   6.822  10.625
 4136W        W 8336   2.430  10.521   9.156
 4137W        W 8337   4.332   4.309   0.148
 4138W        W 8338   2.778   0.754  10.991
 4139W        W 8339   6.565   1.256   2.870
 4140W        W 8340   9.413   4.064   8.553
 4141W        W 8341   6.743   2.736   3.162
 4142W        W 8342   6.579  11.049   9.840
 4143W        W 8343   8.802  11.003   0.838
 4144W        W 8344   0.162   2.665  11.515
 4145W        W 8345   6.811   0.827   0.258
 4146W        W 8346   0.307   4.368  11.262
 4147W        W 8347   1.074   4.956   1.812
 4148W        W 8348   6.711  10.350  11.598
 4149W        W 8349   4.021   4.604   0.400
 4150W        W 8350   0.950   3.357   8.879
 4151W        W 8351   0.857  10.836   0.679
 4152W        W 8352   8.193   6.646   1.846
 4153W        W 8353   1.773   9.876   1.036
 4154W        W 8354   7.722   9.598   0.784
 4155W        W 8355  10.100   1.763   0.630
 4156W        W 8356   7.580   3.997   1.169
 4157W        W 8357   9.522   6.198   0.029
 4158W        W 8358   2.824  10.847   9.116
 4159W        W 8359   1.653   4.317  11.304
 4160W        W 8360   7.028   3.225   3.290
 4161W        W 8361   3.660   6.099   2.849
 4162W        W 8362   9.432  11.222   3.190
 4163W        W 8363  10.688   7.119   9.492
 4164W        W 8364   8.167  10.977  10.925
 4165W        W 8365   5.644   7.633   3.560
 4166W        W 8366   3.011   6.497   3.578
 4167W        W 8367  10.514   6.149   0.175
 4168W        W 8368   2.672   3.446   2.010
 4169W        W 8369   6.576   1.814  11.401
 4170W        W 8370  11.288   8.934  10.607
 4171W        W 8371   8.780   6.953   9.038
 4172W        W 8372  10.674  10.326   2.199
 4173W        W 8373   9.960   9.009   3.190
 4174W        W 8374   2.787   6.131  10.838
 4175W        W 8375   9.829   1.049  11.636
 4176W        W 8376   9.626  10.560   8.551
 4177W        W 8377   9.141  10.375   0.871
 4178W        W 8378  10.435   2.171   1.443
 4179W        W 8379   3.512   1.507  11.229
 4180W        W 8380   5.625   1.363   2.506
 4181W        W 8381   3.977   0.716   2.479
 4182W        W 8382  10.810   4.186   8.580
 4183W        W 8383   7.645  10.705  11.909
 4184W        W 8384   7.714   9.028   0.091
 4185W        W 8385  10.695  10.147   8.516
 4186W        W 8386   6.066   4.291  10.964
 4187W        W 8387   8.977   2.781   3.339
 4188W        W 8388   9.901   8.551   2.440
 4189W        W 8389   3.140   3.715  10.859
 4190W        W 8390   2.376   4.657   8.287
 4191W        W 8391   1.919   7.051  11.140
 4192W        W 8392   2.051   1.267   2.322
 4193W        W 8393   2.765   0.475  11.404
 4194W        W 8394   9.921  11.089   1.827
 4195W        W 8395   1.805  10.254  10.216
 4196W        W 8396   9.609   8.577   1.461
 4197W        W 8397  10.722  10.309  10.001
 4198W        W 8398   9.502   6.977   3.282
 4199W        W 8399   5.546   5.258  10.451
 4200W        W 8400   5.708   7.700   8.382
 4201W        W 8401  11.389   6.759  11.401
 4202W        W 8402   9.722   8.307   0.189
 4203W        W 8403   3.766  11.489  11.360
 4204W        W 8404  10.306   8.159  10.593
 4205W        W 8405  10.796   0.939   0.776
 4206W        W 8406   0.808   7.428  10.460
 4207W        W 8407   8.153   6.547   8.432
 4208W        W 8408  10.854   5.168   0.836
 4209W        W 8409   7.596   2.585  10.968
 4210W        W 8410   4.641   7.504  10.811
 4211W        W 8411  10.369   6.446  10.503
 4212W        W 8412   6.064   0.377  10.765
 4213W        W 8413   3.931  11.246   2.694
 4214W        W 8414   2.826   4.540   2.507
 4215W        W 8415   5.007  11.195   8.839
 4216W        W 8416   1.696  11.235   1.419
 4217W        W 8417   2.896   6.063   2.435
 4218W        W 8418   9.880   1.652   2.038
 4219W        W 8419   4.692   1.250   9.115
 4220W        W 8420   4.226   2.764   0.955
 4221W        W 8421   6.617   0.289   2.500
 4222W        W 8422   7.485   0.715   8.697
 4223W        W 8423   7.933   8.235   3.614
 4224W        W 8424   9.471   0.046   2.412
 4225W        W 8425   6.733   5.674   1.018
 4226W        W 8426   9.630   3.426   0.388
 4227W        W 8427  10.844   2.657   2.779
 4228W        W 8428   2.826   9.783   2.159
 4229W        W 8429   8.022   9.408  11.399
 4230W        W 8430   8.340   9.911   3.240
 4231W        W 8431  10.005   3.087   9.258
 4232W        W 8432   4.946  11.466   1.999
 4233W        W 8433   0.011   8.075   0.851
 4234W        W 8434   8.830   6.905   0.961
 4235W        W 8435   3.680   4.473   3.548
 4236W        W 8436  10.315   2.212   9.009
 4237W        W 8437   2.854   7.776  11.175
 4238W        W 8438   3.705   8.440  10.276
 4239W        W 8439   9.123   4.164   1.219
 4240W        W 8440   1.716   5.706   1.638
 4241W        W 8441   8.262   8.397   9.340
 4242W        W 8442  10.898   1.841   0.297
 4243W        W 8443   9.511   7.884   9.886
 4244W        W 8444   7.803   6.102   1.519
 4245W        W 8445   9.715   7.195   1.444
 4246W        W 8446   1.219   4.947   0.950
 4247W        W 8447  10.814   4.996   9.034
 4248W        W 8448   5.055   6.967   2.009
 4249W        W 8449   4.038  10.925   1.388
 4250W        W 8450   4.310   9.629  10.577
 4251W        W 8451  11.131   4.238  10.807
 4252W        W 8452   9.105   0.931   0.436
 4253W        W 8453   0.954   3.120  10.472
 4254W        W 8454   6.839   6.195  11.367
 4255W        W 8455   4.271   1.139   2.570
 4256W        W 8456   8.076   1.168  11.642
 4257W        W 8457   8.365   6.096  11.461
 4258W        W 8458   0.921  10.433   0.372
 4259W        W 8459   0.353   4.672   8.480
 4260W        W 8460   3.874   8.836   8.707
 4261W        W 8461   5.361   9.839   1.637
 4262W        W 8462   0.813   8.154   0.963
 4263W        W 8463   3.445   1.327   2.022
 4264W        W 8464   9.137   1.447   0.486
 4265W        W 8465   8.433   4.318   1.956
 4266W        W 8466  10.270   9.554   9.209
 4267W        W 8467   0.984   8.484   9.787
 4268W        W 8468   7.256   2.323   2.881
 4269W        W 8469   9.493   4.413   0.432
 4270W        W 8470  10.416   6.671  11.481
 4271W        W 8471   2.914   8.980   3.275
 4272W        W 8472   6.004   4.780   2.654
 4273W        W 8473   5.346   3.128   9.367
 4274W        W 8474   0.790   0.145   9.128
 4275W        W 8475   7.229   1.935  10.398
 4276W        W 8476   1.441   7.097   9.047
 4277W        W 8477   4.224   7.430  11.403
 4278W        W 8478  10.963   5.706   2.286
 4279W        W 8479   9.168   9.797   0.092
 4280W        W 8480   8.001   4.070   0.071
 4281W        W 8481  11.053   8.043   1.661
 4282W        W 8482  10.980   5.228   2.996
 4283W        W 8483   1.351   6.630  11.866
 4284W        W 8484   7.959   4.338   9.063
 4285W        W 8485   0.261   8.512   2.455
 4286W        W 8486   0.303   1.836  11.096
 4287W        W 8487   8.945   0.838   0.911
 4288W        W 8488   6.279   2.156   2.271
 4289W        W 8489  10.211   1.033   2.864
 4290W        W 8490   0.020   3.805   9.493
 4291W        W 8491   7.962   7.777   3.844
 4292W        W 8492   9.536   9.118   2.229
 4293W        W 8493  11.249   6.996   2.191
 4294W        W 8494   7.093  10.351   1.955
 4295W        W 8495   7.102  10.132   0.552
 4296W        W 8496   0.940   7.988   1.993
 4297W        W 8497   4.252   8.453   8.604
 4298W        W 8498  10.090   8.994   2.674
 4299W        W 8499   2.409   9.015   3.300
 4300W        W 8500   0.475   0.288   3.615
 4301W        W 8501   8.248   3.227   3.567
 4302W        W 8502   4.093   7.181   1.019
 4303W        W 8503   4.755   6.093   3.539
 4304W        W 8504  10.801   8.508   2.979
 4305W        W 8505   8.168   9.520  10.007
 4306W        W 8506   3.126   6.534   2.191
 4307W        W 8507   0.294   6.525   0.017
 4308W        W 8508   1.685   1.412   0.925
 4309W        W 8509   2.774   8.458   0.995
 4310W        W 8510   7.677   5.134  10.251
 4311W        W 8511   8.143   7.698   2.639
 4312W        W 8512   4.637   0.289  11.484
 4313W        W 8513   6.540   6.228  11.921
 4314W        W 8514   7.050   1.191  10.538
 4315W        W 8515  10.935   1.127   2.706
 4316W        W 8516   0.620   4.667   9.425
 4317W        W 8517   9.415  10.924  11.531
 4318W        W 8518   9.385   9.855   1.869
 4319W        W 8519   9.037   3.631   9.878
 4320W        W 8520   9.967   4.766   2.792
 4321W        W 8521   3.859   5.965   9.509
 4322W        W 8522   8.956   9.000   8.904
 4323W        W 8523   6.808   2.220   3.096
 4324W        W 8524   7.706   6.191   0.471
 4325W        W 8525   4.565   3.433  11.930
 4326W        W 8526   6.469   3.190   3.210
 4327W        W 8527   4.506   2.028   3.560
 4328W        W 8528   7.531   1.905   1.398
 4329W        W 8529   9.837   3.587   2.657
 4330W        W 8530  11.179   9.427   1.973
 4331W        W 8531   9.141   8.560   9.879
 4332W        W 8532   4.543  10.293   0.235
 4333W        W 8533   2.839   4.194   7.810
 4334W        W 8534   2.728  10.643  11.661
 4335W        W 8535  10.426   5.960  10.713
 4336W        W 8536   6.051   3.717   3.617
 4337W        W 8537   6.225   3.664   9.400
 4338W        W 8538   1.177   7.025  10.517
 4339W        W 8539   6.159   0.917  11.557
 4340W        W 8540   7.193  10.512  11.734
 4341W        W 8541   4.691   2.465   1.109
 4342W        W 8542   3.158  11.293  11.107
 4343W        W 8543  10.175   4.187   8.520
 4344W        W 8544   8.425  10.020  11.805
 4345W        W 8545   9.158   3.144  10.234
 4346W        W 8546   6.475   9.817   3.412
 4347W        W 8547   6.269  10.326   3.453
 4348W        W 8548   1.268   5.334   2.860
 4349W        W 8549   9.352   4.734  11.476
 4350W        W 8550   1.753   2.559   0.474
 4351W        W 8551   8.918   4.282  10.880
 4352W        W 8552   2.768   0.369   1.905
 4353W        W 8553   0.666   8.693   2.227
 4354W        W 8554   4.469   0.833   0.268
 4355W        W 8555  10.372   7.931  10.155
 4356W        W 8556   6.982  11.301  10.013
 4357W        W 8557   6.695   0.163  11.468
 4358W        W 8558  10.011   8.391  11.726
 4359W        W 8559   4.091   8.839   0.411
 4360W        W 8560  10.921   6.551   1.184
 4361W        W 8561   8.923   0.553   8.455
 4362W        W 8562   5.032   3.226   9.767
 4363W        W 8563   1.157  10.530   9.113
 4364W        W 8564   3.877  10.340   0.885
 4365W        W 8565   2.987   3.166  11.884
 4366W        W 8566   5.923   6.615   8.951
 4367W        W 8567   8.748   6.863   8.165
 4368W        W 8568   9.836   1.313   9.286
 4369W        W 8569  11.284  10.294   3.295
 4370W        W 8570   2.398   1.996  11.950
 4371W        W 8571   6.143  10.045   9.436
 4372W        W 8572  10.279   2.630   1.277
 4373W        W 8573   5.189   2.585   3.115
 4374W        W 8574   7.584   3.403  11.430
 4375W        W 8575   4.064   7.044  10.399
 4376W        W 8576   4.534   6.634  11.951
 4377W        W 8577   3.781   2.220   2.420
 4378W        W 8578   3.233   0.984   3.029
 4379W        W 8579   6.181   9.046  11.555
 4380W        W 8580   0.783   1.011   3.207
 4381W        W 8581   8.275   6.041   9.111
 4382W        W 8582   2.740  10.549   2.687
 4383W        W 8583   8.111   3.319   9.113
 4384W        W 8584  11.277   9.574   2.942
 4385W        W 8585  11.362   8.467   1.135
 4386W        W 8586   4.457   0.058   1.835
 4387W        W 8587   8.070   7.410   3.063
 4388W        W 8588  11.438   3.244   2.635
 4389W        W 8589   4.800   2.586  10.968
 4390W        W 8590  10.350   7.665   3.230
 4391W        W 8591   9.415   2.694  10.390
 4392W        W 8592  10.965   7.103   1.778
 4393W        W 8593   9.326   8.812   1.830
 4394W        W 8594   0.878   4.124   3.187
 4395W        W 8595   6.060   2.270  11.138
 4396W        W 8596   7.832  10.820   1.051
 4397W        W 8597   7.216  11.350  11.394
 4398W        W 8598   3.182   4.135  10.121
 4399W        W 8599   7.530   7.081  10.993
 4400W        W 8600   9.854   0.052   1.630
 4401W        W 8601  11.423   5.038  11.609
 4402W        W 8602   9.550   6.160   3.875
 4403W        W 8603   3.694   6.772  11.914
 4404W        W 8604  10.866  10.798   2.152
 4405W        W 8605   9.943   6.692   9.838
 4406W        W 8606   4.661   9.402   1.703
 4407W        W 8607   0.567   6.032  10.325
 4408W        W 8608   4.578   2.531   0.271
 4409W        W 8609   4.956   0.389   3.256
 4410W        W 8610   7.751   4.555   9.508
 4411W        W 8611   3.132   1.300   1.037
 4412W        W 8612   8.455   2.225   8.947
 4413W        W 8613   0.803   2.850   0.158
 4414W        W 8614   4.316   9.068   2.825
 4415W        W 8615   7.992   2.849   3.316
 4416W        W 8616   0.328   3.135   1.936
 4417W        W 8617   3.486   6.689   3.555
 4418W        W 8618   0.118   2.555   9.512
 4419W        W 8619   8.893   2.499   8.907
 4420W        W 8620   9.224   8.329   1.820
 4421W        W 8621   9.866   9.959  10.741
 4422W        W 8622  10.361   9.016  10.422
 4423W        W 8623   6.422   7.979   3.717
 4424W        W 8624   5.595   3.359   0.621
 4425W        W 8625   9.938   4.417   3.170
 4426W        W 8626  11.019   3.591   2.244
 4427W        W 8627  10.866   1.990   9.679
 4428W        W 8628   3.473   7.691   1.294
 4429W        W 8629   3.254   1.965  11.745
 4430W        W 8630   9.001   6.125  11.882
 4431W        W 8631   0.730   1.216   1.938
 4432W        W 8632   3.797   9.519   1.713
 4433W        W 8633   5.766   1.367   2.997
 4434W        W 8634  10.728   2.728   2.243
 4435W        W 8635   8.739   9.118   2.898
 4436W        W 8636   1.177   1.553   8.463
 4437W        W 8637  10.296  10.965   9.068
 4438W        W 8638   6.637   0.009   3.451
 4439W        W 8639   1.435   4.824   9.169
 4440W        W 8640   4.594  11.381   8.579
 4441W        W 8641   9.792   3.616   0.850
 4442W        W 8642   2.778   2.480   1.792
 4443W        W 8643   6.848   6.244   9.223
 4444W        W 8644   2.356   8.431  11.258
 4445W        W 8645   3.195   0.034   0.867
 4446W        W 8646   3.059   3.734  11.743
 4447W        W 8647   7.603   0.317   2.198
 4448W        W 8648   0.223   2.853   2.422
 4449W        W 8649   5.155   8.191   2.441
 4450W        W 8650  11.332   0.516   9.066
 4451W        W 8651   1.324   1.803   2.237
 4452W        W 8652   1.237   3.237   9.299
 4453W        W 8653   9.998   4.326   0.398
 4454W        W 8654   9.450   1.572   1.768
 4455W        W 8655   2.629   8.351   0.510
 4456W        W 8656   9.808  10.572   9.915
 4457W        W 8657   1.303   3.310   0.711
 4458W        W 8658   1.622   1.445   3.489
 4459W        W 8659   1.959   9.862   9.316
 4460W        W 8660   2.365   5.827  10.901
 4461W        W 8661   1.063   5.029   9.552
 4462W        W 8662   7.577   3.168   9.169
 4463W        W 8663   0.067   5.951  10.385
 4464W        W 8664   9.252   4.615  10.592
 4465W        W 8665   3.105   0.596   3.315
 4466W        W 8666   9.257   1.176  10.996
 4467W        W 8667  10.400   6.768   2.394
 4468W        W 8668   9.004   1.178   1.313
 4469W        W 8669   4.755   1.714  11.194
 4470W        W 8670   9.417   6.371  10.098
 4471W        W 8671   1.877   3.736   3.319
 4472W        W 8672   9.515   5.017   9.557
 4473W        W 8673  10.903   4.374  11.314
 4474W        W 8674   6.115   9.204   1.500
 4475W        W 8675   4.446   7.807   9.346
 4476W        W 8676   7.021   8.929   9.017
 4477W        W 8677   8.196   0.854  10.267
 4478W        W 8678   8.621   6.670   8.634
 4479W        W 8679   2.892   9.287   2.078
 4480W        W 8680   6.062   6.829   2.614
 4481W        W 8681   3.421   6.217   9.697
 4482W        W 8682   6.754   9.345   0.110
 4483W        W 8683   7.058   3.241  11.601
 4484W        W 8684   1.509   6.090  11.730
 4485W        W 8685   1.147   8.466   3.438
 4486W        W 8686   8.905   6.616   0.013
 4487W        W 8687   3.167   6.126   8.783
 4488W        W 8688   8.046   2.818  10.800
 4489W        W 8689  11.381  10.851   9.175
 4490W        W 8690   1.295   2.246   9.536
 4491W        W 8691   2.621   6.827   3.649
 4492W        W 8692   2.273   3.351   9.123
 4493W        W 8693   0.962   1.676   1.904
 4494W        W 8694   4.062   5.089  11.536
 4495W        W 8695   3.769   0.806  10.000
 4496W        W 8696  10.947   3.973   9.626
 4497W        W 8697   5.690   0.145   9.975
 4498W        W 8698   8.634   1.777   9.861
 4499W        W 8699   7.462   1.849   1.945
 4500W        W 8700  10.787   4.310   3.303
 4501W        W 8701   0.944   2.859   8.996
 4502W        W 8702   4.774   8.035   1.494
 4503W        W 8703   9.078   1.226   2.147
 4504W        W 8704   9.977   5.097  10.814
 4505W        W 8705   5.887   4.109   1.287
 4506W        W 8706   2.163   8.489   0.286
 4507W        W 8707   8.825   3.081   9.809
 4508W        W 8708  10.838   1.847   2.233
 4509W        W 8709   4.258   4.669  10.255
 4510W        W 8710   5.527   5.466  10.928
 4511W        W 8711   1.743   4.244   3.273
 4512W        W 8712   0.443   2.672  11.036
 4513W        W 8713   4.366   0.906   0.851
 4514W        W 8714   4.499  10.556  11.821
 4515W        W 8715  10.523   0.052  11.259
 4516W        W 8716   4.855   6.177   1.511
 4517W        W 8717   8.858   0.667   1.386
 4518W        W 8718  10.789   0.824  11.349
 4519W        W 8719   8.113   2.454   2.376
 4520W        W 8720   7.650  10.879   3.039
 4521W        W 8721   5.694   7.692  11.002
 4522W        W 8722   8.409   2.826   2.606
 4523W        W 8723   4.262   0.759   2.937
 4524W        W 8724   8.536   9.333   9.631
 4525W        W 8725   3.108   1.920  10.349
 4526W        W 8726   8.868   2.921   9.230
 4527W        W 8727   3.373   6.084   0.281
 4528W        W 8728   1.929   9.346   8.709
 4529W        W 8729   3.569   9.028  11.536
 4530W        W 8730   6.099   4.518   8.367
 4531W        W 8731   9.399   5.744   1.974
 4532W        W 8732   4.725  11.324   0.444
 4533W        W 8733   6.304   1.660  10.527
 4534W        W 8734   3.583   1.026  11.365
 4535W        W 8735  11.500   3.164  11.576
 4536W        W 8736   3.902   4.381   8.572
 4537W        W 8737   6.510   2.352   9.839
 4538W        W 8738   5.201   9.155   2.756
 4539W        W 8739   1.879   0.938  11.171
 4540W        W 8740   3.962   0.482   3.411
 4541W        W 8741   6.979   3.643   9.899
 4542W        W 8742   2.130   2.043   1.956
 4543W        W 8743   3.479   4.572   9.854
 4544W        W 8744   6.547   7.315  11.049
 4545W        W 8745   7.141   6.406   9.625
 4546W        W 8746   2.189   3.311  10.971
 4547W        W 8747   6.981   4.709   8.213
 4548W        W 8748   8.565   4.120  11.260
 4549W        W 8749  10.751   9.518  10.583
 4550W        W 8750   4.145   7.049  11.796
 4551W        W 8751   6.869   2.248  10.582
 4552W        W 8752  10.516   1.762  11.356
 4553W        W 8753   3.898   9.345   0.304
 4554W        W 8754   6.507   7.456  10.045
 4555W        W 8755   7.142   0.351   0.637
 4556W        W 8756   4.597   4.165   9.091
 4557W        W 8757   6.946   3.519   1.748
 4558W        W 8758   9.668   3.991   9.354
 4559W        W 8759   9.086  11.018   3.499
 4560W        W 8760   3.593   3.799   3.024
 4561W        W 8761   7.830   3.538   0.697
 4562W        W 8762   4.177   9.908   2.278
 4563W        W 8763   7.214   0.444  10.554
 4564W        W 8764   9.441   6.843   1.672
 4565W        W 8765   2.900   6.542   9.046
 4566W        W 8766   0.039   0.667   0.647
 4567W        W 8767   2.684  10.272   2.241
 4568W        W 8768   3.134   8.514   3.309
 4569W        W 8769   8.593   8.651   9.027
 4570W        W 8770  11.359   7.523  11.104
 4571W        W 8771   4.181   3.352  10.917
 4572W        W 8772   7.130   2.268   1.326
 4573W        W 8773   5.272   3.125   4.008
 4574W        W 8774   6.579   8.786   3.367
 4575W        W 8775   8.877   1.921   0.791
 4576W        W 8776  10.081   7.952  11.961
 4577W        W 8777  11.304   6.819   3.150
 4578W        W 8778   3.306   9.517   9.334
 4579W        W 8779   0.063   7.006   9.319
 4580W        W 8780   4.639  11.253  11.108
 4581W        W 8781  10.016   9.903   2.190
 4582W        W 8782  10.886   3.125  10.410
 4583W        W 8783  10.326  10.330   2.610
 4584W        W 8784   2.414   9.489   1.214
 4585W        W 8785   2.364   7.346   3.560
 4586W        W 8786  10.792   6.753   3.164
 4587W        W 8787  11.234   7.543   3.412
 4588W        W 8788   6.567   4.249  10.286
 4589W        W 8789   9.524   9.464   1.026
 4590W        W 8790   2.135   7.390   9.490
 4591W        W 8791   8.951   1.670   8.371
 4592W        W 8792   0.339   3.131   0.351
 4593W        W 8793   9.056  10.004   2.520
 4594W        W 8794   0.472   3.426   3.618
 4595W        W 8795   8.825   2.912   8.590
 4596W        W 8796  11.383   7.473  10.575
 4597W        W 8797  10.315   2.867   0.817
 4598W        W 8798   5.098   4.794  11.215
 4599W        W 8799   2.834   5.538   9.693
 4600W        W 8800   1.479   2.761   1.990
 4601W        W 8801   6.413   3.546   1.800
 4602W        W 8802   5.186   1.682   8.751
 4603W        W 8803   3.407   3.827   2.539
 4604W        W 8804   9.628  10.439   0.785
 4605W        W 8805   5.634   6.262  10.706
 4606W        W 8806   8.702   8.468  10.156
 4607W        W 8807   1.750   2.236   9.285
 4608W        W 8808  10.512   3.790   9.812
 4609W        W 8809   3.805   4.703   8.994
 4610W        W 8810   5.383   7.402   9.300
 4611W        W 8811   5.526   2.439   1.946
 4612W        W 8812   5.571   0.716  11.214
 4613W        W 8813   6.698   8.486  11.977
 4614W        W 8814   1.845   6.663   0.835
 4615W        W 8815   2.860   9.299  10.383
 4616W        W 8816  10.458   1.160   0.257
 4617W        W 8817   6.983   7.807   9.462
 4618W        W 8818   1.391  10.373  10.993
 4619W        W 8819   3.436   0.894   2.567
 4620W        W 8820  10.798   5.450   0.286
 4621W        W 8821   8.164   3.154   0.681
 4622W        W 8822   3.127   1.415  11.549
 4623W        W 8823   8.293   3.150   9.935
 4624W        W 8824   1.866  10.554  11.735
 4625W        W 8825  10.850   7.519   0.824
 4626W        W 8826   0.034  10.473  10.866
 4627W        W 8827  11.002   2.228  11.082
 4628W        W 8828  11.158   4.147  11.734
 4629W        W 8829   1.490   2.292  11.382
 4630W        W 8830   8.862   0.186  11.815
 4631W        W 8831  10.804   5.756   1.791
 4632W        W 8832   9.229   0.116  10.371
 4633W        W 8833   5.168   7.742   2.680
 4634W        W 8834   9.035   6.749  10.438
 4635W        W 8835   3.554   9.066   9.619
 4636W        W 8836   4.232   6.135  10.290
 4637W        W 8837   2.336   2.592   2.583
 4638W        W 8838   6.642   9.328   3.333
 4639W        W 8839   6.110   8.847   9.840
 4640W        W 8840   8.184   4.081  11.588
 4641W        W 8841   1.294  10.884   1.005
 4642W        W 8842   3.174   2.938   9.059
 4643W        W 8843   6.984   0.144  10.988
 4644W        W 8844   3.790   1.956   0.132
 4645W        W 8845   5.735   2.631  10.973
 4646W        W 8846   3.614   4.909   8.566
 4647W        W 8847  10.316   3.379   9.528
 4648W        W 8848  10.498   7.385   1.173
 4649W        W 8849   2.676   9.636  11.920
 4650W        W 8850  10.456   3.339  10.017
 4651W        W 8851   9.871   2.571   0.958
 4652W        W 8852   6.452   6.591  10.345
 4653W        W 8853  10.774  10.558  10.441
 4654W        W 8854   3.591  10.120  11.986
 4655W        W 8855   4.755   4.066   0.339
 4656W        W 8856  11.253   7.666   2.579
 4657W        W 8857   7.260   9.625   0.534
 4658W        W 8858  10.715   3.416   3.338
 4659W        W 8859  10.286   9.345  10.827
 4660W        W 8860   1.853   6.072   1.951
 4661W        W 8861   8.994   3.753   1.961
 4662W        W 8862  10.244  10.880   1.453
 4663W        W 8863   0.323   6.366   2.377
 4664W        W 8864   5.211   0.687  11.881
 4665W        W 8865   5.753   5.259   1.780
 4666W        W 8866   3.459   1.189   0.357
 4667W        W 8867   9.532   7.767  10.944
 4668W        W 8868   9.994   6.576   9.338
 4669W        W 8869   9.945   0.625  11.391
 4670W        W 8870   2.242   8.924   0.023
 4671W        W 8871  10.007   5.246   0.995
 4672W        W 8872  10.104   6.099   0.497
 4673W        W 8873   9.504   9.889   8.980
 4674W        W 8874   7.730   0.260   9.837
 4675W        W 8875   7.992   0.843   2.916
 4676W        W 8876   4.323   5.369   2.752
 4677W        W 8877   1.333   4.784  10.573
 4678W        W 8878   2.693   4.280   3.005
 4679W        W 8879   1.126   4.881  10.080
 4680W        W 8880   4.784   1.375   1.946
 4681W        W 8881  11.016   9.058   0.142
 4682W        W 8882   9.697   7.148  11.281
 4683W        W 8883   2.651   6.400   8.625
 4684W        W 8884   6.223   7.707   8.356
 4685W        W 8885  10.492   6.652   9.490
 4686W        W 8886   4.838   8.802  11.848
 4687W        W 8887   5.168   2.667   4.207
 4688W        W 8888   5.658   2.741   9.487
 4689W        W 8889   5.966   9.996   2.713
 4690W        W 8890   9.610   6.909   2.798
 4691W        W 8891   5.032   3.232  11.949
 4692W        W 8892   8.905   0.332  10.774
 4693W        W 8893  11.344   8.366   9.978
 4694W        W 8894   1.044   9.267  10.717
 4695W        W 8895   2.620   7.433   0.203
 4696W        W 8896   4.044   3.332   9.355
 4697W        W 8897   5.626   7.548   8.863
 4698W        W 8898   2.526   3.059  11.564
 4699W        W 8899   6.632  11.109   0.047
 4700W        W 8900   8.125   9.612  10.511
 4701W        W 8901  10.208   7.986   1.677
 4702W        W 8902   0.755   0.967   9.535
 4703W        W 8903   7.614   4.865   0.356
 4704W        W 8904   6.487   1.051  11.935
 4705W        W 8905   4.604   3.064  11.061
 4706W        W 8906  10.508   4.166   9.471
 4707W        W 8907   1.447  10.857  11.249
 4708W        W 8908   5.193   0.808   3.519
 4709W        W 8909   9.078  10.294  12.000
 4710W        W 8910  10.005   3.836   2.240
 4711W        W 8911   0.253   6.603   2.976
 4712W        W 8912   3.524   3.373   9.443
 4713W        W 8913   3.696   3.337   3.288
 4714W        W 8914   8.379   4.638   8.924
 4715W        W 8915   3.756   4.108  11.043
 4716W        W 8916   6.860   3.115   2.827
 4717W        W 8917   1.010   1.608   8.958
 4718W        W 8918   8.461   6.392   2.211
 4719W        W 8919   5.251   4.239   9.513
 4720W        W 8920   3.363  10.082   8.656
 4721W        W 8921   5.696   6.594   0.577
 4722W        W 8922   0.271   8.627   1.919
 4723W        W 8923   8.150   8.389   8.440
 4724W        W 8924   1.421   4.318  10.804
 4725W        W 8925   3.566   1.215   9.782
 4726W        W 8926   5.257   8.909   3.648
 4727W        W 8927  10.899   4.415   1.811
 4728W        W 8928  10.476   5.005   9.848
 4729W        W 8929  11.287   7.751  11.553
 4730W        W 8930   0.814   0.803   2.233
 4731W        W 8931   5.554   4.484  10.690
 4732W        W 8932   8.178  11.470   1.162
 4733W        W 8933  11.261   0.889  10.485
 4734W        W 8934   7.010   1.124  11.050
 4735W        W 8935   0.800   0.187  10.051
 4736W        W 8936   1.952  11.383   3.186
 4737W        W 8937   9.019   1.702   1.276
 4738W        W 8938   4.727   2.345   9.537
 4739W        W 8939   9.870   2.934   3.196
 4740W        W 8940   3.808   3.635   0.200
 4741W        W 8941   7.643   0.284   1.185
 4742W        W 8942   8.215   9.012   9.973
 4743W        W 8943  10.036   9.229   8.664
 4744W        W 8944   7.408  10.875   9.541
 4745W        W 8945  11.444   1.171   2.641
 4746W        W 8946  10.954   5.927   0.306
 4747W        W 8947   5.576   2.175   1.501
 4748W        W 8948   4.607   3.276   3.219
 4749W        W 8949   8.574   5.236   0.953
 4750W        W 8950   8.318   7.083   8.844
 4751W        W 8951   3.293  10.496   0.252
 4752W        W 8952  10.358   6.542   1.480
 4753W        W 8953   7.924   2.930   2.404
 4754W        W 8954   3.191   3.864   8.828
 4755W        W 8955   5.534   5.779  10.476
 4756W        W 8956   3.223   8.092   8.666
 4757W        W 8957   9.022   0.210  11.295
 4758W        W 8958   4.195   6.747   1.260
 4759W        W 8959   0.801   0.047  10.554
 4760W        W 8960  10.821   4.718   2.608
 4761W        W 8961  11.061   6.854   9.269
 4762W        W 8962  11.448   3.970   8.993
 4763W        W 8963  10.893   5.369   1.464
 4764W        W 8964  11.410   6.524   9.450
 4765W        W 8965   9.990   1.373   0.267
 4766W        W 8966   4.132   7.006   9.274
 4767W        W 8967   1.797   3.334   1.764
 4768W        W 8968  10.109  10.536   0.754
 4769W        W 8969   8.372   2.225   9.748
 4770W        W 8970   6.737   4.552   9.401
 4771W        W 8971  10.555   2.785   1.700
 4772W        W 8972   4.954   7.007   3.125
 4773W        W 8973   0.264   2.152   9.766
 4774W        W 8974   7.836   7.986   2.302
 4775W        W 8975   3.955   6.016  11.512
 4776W        W 8976  11.348   4.645   1.854
 4777W        W 8977   4.598   7.537   0.355
 4778W        W 8978   5.553   4.589   2.470
 4779W        W 8979  10.434   7.544   9.376
 4780W        W 8980   7.485   4.324  11.396
 4781W        W 8981   8.324   8.720   2.812
 4782W        W 8982   3.655   3.245   1.868
 4783W        W 8983   2.039   6.994  10.293
 4784W        W 8984  10.303   1.778   1.146
 4785W        W 8985  11.371   8.678   8.555
 4786W        W 8986  10.158   2.186   1.899
 4787W        W 8987   7.159   9.920   2.744
 4788W        W 8988   0.220   6.265  11.164
 4789W        W 8989   1.222   0.985   2.003
 4790W        W 8990  10.454   9.836   2.968
 4791W        W 8991   8.717   0.002  10.441
 4792W        W 8992   9.352   2.192  11.118
 4793W        W 8993   8.523   3.447   1.282
 4794W        W 8994   9.137   5.180  10.798
 4795W        W 8995   4.783   7.907   0.022
 4796W        W 8996  11.426  11.416  10.779
 4797W        W 8997   0.662   9.385   3.407
 4798W        W 8998   0.466   0.015   9.722
 4799W        W 8999   1.947   7.928  11.809
 4800W        W 9000  10.424   8.545   8.907
 4801W        W 9001   3.816   2.888  10.340
 4802W        W 9002   4.871   4.996   1.399
 4803W        W 9003   1.145   2.810   0.584
 4804W        W 9004   7.394   3.784   0.736
 4805W        W 9005   8.523   6.786  10.775
 4806W        W 9006   2.137   4.748   0.336
 4807W        W 9007   4.740   1.597  10.708
 4808W        W 9008   1.541   2.861   0.925
 4809W        W 9009   9.034  10.960   0.360
 4810W        W 9010   0.695   7.104   2.182
 4811W        W 9011   1.247   2.811  11.296
 4812W        W 9012  11.009  10.142   1.802
 4813W        W 9013   4.790   1.275   2.455
 4814W        W 9014   9.608   9.815   2.972
 4815W        W 9015  10.805   4.570   0.671
 4816W        W 9016   5.948   6.086   9.755
 4817W        W 9017   9.949   5.297   0.412
 4818W        W 9018   9.179   4.684   9.167
 4819W        W 9019   9.101   7.656  10.136
 4820W        W 9020   0.241   2.271   1.810
 4821W        W 9021   9.977  11.083  11.330
 4822W        W 9022   9.509  10.122   9.457
 4823W        W 9023   9.429   6.613  11.263
 4824W        W 9024   1.141   9.550   3.411
 4825W        W 9025   9.810   8.594   1.947
 4826W        W 9026   8.054   4.560   0.204
 4827W        W 9027   9.966   1.892   0.161
 4828W        W 9028   6.572   7.501   8.688
 4829W        W 9029   7.167   4.586   8.682
 4830W        W 9030   0.497   7.934   9.606
 4831W        W 9031   3.448   6.064   1.239
 4832W        W 9032   1.579   6.166  10.042
 4833W        W 9033   1.702   0.823   2.152
 4834W        W 9034   5.951   1.350   2.075
 4835W        W 9035   1.101   8.503   2.384
 4836W        W 9036   1.856   4.044  10.892
 4837W        W 9037   6.691   2.388   3.557
 4838W        W 9038   6.532   8.558   1.657
 4839W        W 9039   0.906   3.649   0.808
 4840W        W 9040   6.859  11.189   3.130
 4841W        W 9041   1.194   5.541   9.449
 4842W        W 9042   6.822   1.207   1.932
 4843W        W 9043  10.427   9.979  11.916
 4844W        W 9044   6.707   4.679   0.144
 4845W        W 9045   1.620   7.966   0.853
 4846W        W 9046   0.280   3.502  10.789
 4847W        W 9047  10.022   7.570  11.125
 4848W        W 9048   7.114  10.190  11.323
 4849W        W 9049   7.986   5.221   0.310
 4850W        W 9050   5.618   1.369   8.803
 4851W        W 9051   8.947   6.093   8.826
 4852W        W 9052   2.248   4.175   8.525
 4853W        W 9053   5.143   5.634  11.242
 4854W        W 9054   4.738   8.568  10.249
 4855W        W 9055   7.753   1.826   2.982
 4856W        W 9056   0.168   9.468   9.496
 4857W        W 9057   7.681   1.343  11.393
 4858W        W 9058   6.301   4.031   2.252
 4859W        W 9059   0.618   2.221  10.135
 4860W        W 9060   7.594   6.188  11.954
 4861W        W 9061   0.774   5.222  10.252
 4862W        W 9062   7.983   2.477   8.850
 4863W        W 9063   7.414   4.292   0.757
 4864W        W 9064   8.368   3.284  11.770
 4865W        W 9065   8.590   4.578   9.805
 4866W        W 9066   0.367   0.303  11.506
 4867W        W 9067   3.011   3.497   2.383
 4868W        W 9068   8.975   0.374   0.665
 4869W        W 9069   0.333   8.349  11.415
 4870W        W 9070   3.083   5.608   3.233
 4871W        W 9071   1.994   1.016  11.682
 4872W        W 9072  10.511   8.374  11.014
 4873W        W 9073   5.869  10.054   8.967
 4874W        W 9074   2.589   5.996   9.513
 4875W        W 9075   4.165   0.540   0.551
 4876W        W 9076   4.326   8.120   2.725
 4877W        W 9077   8.745   7.110   3.158
 4878W        W 9078   8.046   1.886  11.021
 4879W        W 9079   3.947   8.673   2.212
 4880W        W 9080   2.612  10.984   2.953
 4881W        W 9081   9.663   4.257   2.256
 4882W        W 9082   5.582   1.828   9.041
 4883W        W 9083   3.755   4.619  11.156
 4884W        W 9084   0.412   5.247  11.566
 4885W        W 9085   5.641   4.808   0.665
 4886W        W 9086   7.907   8.754   9.514
 4887W        W 9087   0.722   3.010   8.548
 4888W        W 9088   2.882   7.051   1.486
 4889W        W 9089   5.769  10.877  10.397
 4890W        W 9090   1.269  11.390   9.311
 4891W        W 9091   2.425   2.565   3.088
 4892W        W 9092   0.582   2.675   9.361
 4893W        W 9093   9.758   9.067   1.747
 4894W        W 9094   1.423   6.132   2.206
 4895W        W 9095   9.365   2.830  11.837
 4896W        W 9096   6.133  11.035   9.610
 4897W        W 9097   1.809   3.588  10.693
 4898W        W 9098   1.748   9.902  10.579
 4899W        W 9099   4.390  10.489  10.079
 4900W        W 9100   7.712   0.839  11.948
 4901W        W 9101   5.175   8.492   1.066
 4902W        W 9102   3.203   2.185   1.762
 4903W        W 9103   0.672   9.144  11.067
 4904W        W 9104   9.510   2.347   9.608
 4905W        W 9105   9.946   2.167   1.298
 4906W        W 9106   9.261  11.409  11.657
 4907W        W 9107   7.906   5.502  10.528
 4908W        W 9108  10.608   3.103   0.457
 4909W        W 9109   5.655   8.499   0.728
 4910W        W 9110   5.081   6.341   2.395
 4911W        W 9111   7.473   1.308   8.766
 4912W        W 9112   6.542   1.151  10.338
 4913W        W 9113   7.592   6.516   1.310
 4914W        W 9114   0.566  10.373   0.930
 4915W        W 9115   3.995   7.640   1.374
 4916W        W 9116   5.790   9.950  10.308
 4917W        W 9117   8.492   2.650  10.526
 4918W        W 9118   9.328   7.947   0.226
 4919W        W 9119   3.092   9.141   1.556
 4920W        W 9120   1.822   4.501   3.713
 4921W        W 9121   1.687   0.182   1.195
 4922W        W 9122   7.485   0.914  10.454
 4923W        W 9123   7.372   7.329  10.118
 4924W        W 9124   1.851   1.201   3.111
 4925W        W 9125   9.495   7.630  11.462
 4926W        W 9126   6.584   3.968   2.698
 4927W        W 9127   1.119   5.136  11.865
 4928W        W 9128  11.460   7.241   8.878
 4929W        W 9129   2.074   5.944   9.572
 4930W        W 9130   9.394   9.788  10.866
 4931W        W 9131   1.781   4.899   1.037
 4932W        W 9132   2.853  11.070   2.504
 4933W        W 9133   0.492   1.763   9.550
 4934W        W 9134  10.372   2.227  11.948
 4935W        W 9135   7.022   9.575  11.239
 4936W        W 9136  11.301   6.702   0.854
 4937W        W 9137   6.948   6.087  10.049
 4938W        W 9138   4.611   4.531   3.154
 4939W        W 9139   3.348   3.327   3.688
 4940W        W 9140   5.141   8.887   9.969
 4941W        W 9141   3.880  10.867  10.736
 4942W        W 9142   4.343   0.948  10.835
 4943W        W 9143   4.739   2.803   0.720
 4944W        W 9144   9.832   7.673   1.898
 4945W        W 9145   2.772  11.471  11.373
 4946W        W 9146   7.237  11.387   1.863
 4947W        W 9147  10.862   2.620  10.284
 4948W        W 9148   9.894   6.376  10.320
 4949W        W 9149   2.637   3.084   2.376
 4950W        W 9150   6.428   8.741   8.271
 4951W        W 9151  10.952   9.569  11.971
 4952W        W 9152   0.830   2.427   0.422
 4953W        W 9153   5.465   4.111   9.054
 4954W        W 9154   2.894  10.936  10.813
 4955W        W 9155   8.605   6.421   1.284
 4956W        W 9156   5.114   9.543   2.426
 4957W        W 9157   5.852   6.700   2.170
 4958W        W 9158   9.970   1.975   3.433
 4959W        W 9159   0.807   6.253   0.923
 4960W        W 9160   0.723  10.838   1.726
 4961W        W 9161   5.748   9.190  11.813
 4962W        W 9162   2.658   2.258   9.494
 4963W        W 9163   0.252   1.447   3.472
 4964W        W 9164   9.954   4.266   2.676
 4965W        W 9165   3.827   8.102  11.818
 4966W        W 9166   2.987   5.641   8.592
 4967W        W 9167   9.983   6.198  10.817
 4968W        W 9168   5.511   0.971   9.101
 4969W        W 9169  11.390   2.654   0.515
 4970W        W 9170   9.800  10.916   0.940
 4971W        W 9171  10.006  10.786   2.769
 4972W        W 9172   2.737   7.990   9.512
 4973W        W 9173  10.773   7.647   2.367
 4974W        W 9174   4.720   7.588   1.746
 4975W        W 9175  10.768   4.930   3.590
 4976W        W 9176  10.292   1.933  10.945
 4977W        W 9177   1.610   6.164   0.979
 4978W        W 9178  10.364   6.993   9.049
 4979W        W 9179   8.111   9.939   0.260
 4980W        W 9180   6.928   4.423   1.833
 4981W        W 9181   4.703   4.718   3.618
 4982W        W 9182   6.545   5.474   0.466
 4983W        W 9183   7.915   9.971   9.982
 4984W        W 9184   5.053   4.526   3.944
 4985W        W 9185   2.199   3.318   2.195
 4986W        W 9186   5.681   9.061   3.036
 4987W        W 9187   5.529   4.105   2.580
 4988W        W 9188   2.538   2.672   0.869
 4989W        W 9189  10.252   7.259   2.343
 4990W        W 9190   5.673   3.181   8.894
 4991W        W 9191   8.435  10.994  11.751
 4992W        W 9192   1.038   4.090   0.518
 4993W        W 9193   3.394   6.596  10.316
 4994W        W 9194  10.307   6.573  11.973
 4995W        W 9195   4.155   9.084   9.070
 4996W        W 9196   9.900   5.672   9.857
 4997W        W 9197   3.487   8.495   8.931
 4998W        W 9198   4.361  10.993  10.762
 4999W        W 9199  10.008   1.666  10.075
 5000W        W 9200  10.022   1.285   8.795
 5001W        W 9201  10.052   0.861   0.076
 5002W        W 9202   6.063   5.779   1.700
 5003W        W 9203   1.268   9.454  10.000
 5004W        W 9204   2.500   7.719   2.723
 5005W        W 9205   9.906   0.773   8.905
 5006W        W 9206   3.980   1.341  11.482
 5007W        W 9207   2.077   1.620   3.369
 5008W        W 9208   8.640   3.094  10.296
 5009W        W 9209  10.463  10.808   3.417
 5010W        W 9210   2.283   9.364  11.185
 5011W        W 9211   8.453   2.642   2.047
 5012W        W 9212   7.328  11.342   8.811
 5013W        W 9213   8.136   0.807   8.479
 5014W        W 9214   0.204   6.080   2.775
 5015W        W 9215   8.676   9.991   2.871
 5016W        W 9216   4.554   5.308   9.664
 5017W        W 9217   5.960   6.231   2.731
 5018W        W 9218   3.689  10.774   2.803
 5019W        W 9219   1.601   5.616   3.174
 5020W        W 9220   4.711   4.535   2.636
 5021W        W 9221   8.116   4.620   3.542
 5022W        W 9222   6.842   9.361   0.672
 5023W        W 9223   0.080   5.645  10.822
 5024W        W 9224   0.623   1.459   0.753
 5025W        W 9225   2.345   0.671   0.769
 5026W        W 9226   8.364   2.147   3.722
 5027W        W 9227   4.875   6.029   1.009
 5028W        W 9228  10.230  11.400   9.393
 5029W        W 9229   7.105   2.639   9.793
 5030W        W 9230  10.879   7.557   9.656
 5031W        W 9231   5.541   6.422  11.276
 5032W        W 9232   0.947   2.374   9.148
 5033W        W 9233   5.489   0.011   0.019
 5034W        W 9234   1.607   3.479  10.215
 5035W        W 9235   4.748   2.825   2.015
 5036W        W 9236   4.962   8.094   1.974
 5037W        W 9237   8.514   5.537   9.862
 5038W        W 9238   0.703   4.156  10.999
 5039W        W 9239  11.264   2.198   9.429
 5040W        W 9240   9.615   8.366   9.918
 5041W        W 9241   5.773   9.862   2.007
 5042W        W 9242   6.972   4.554   0.929
 5043W        W 9243   4.792   1.655   0.431
 5044W        W 9244   2.279  11.254  11.435
 5045W        W 9245   1.275   0.479   1.885
 5046W        W 9246   4.086   2.328   0.314
 5047W        W 9247   7.239   4.461   9.541
 5048W        W 9248   9.897  10.467   9.390
 5049W        W 9249   1.923   6.381  10.464
 5050W        W 9250   7.004   8.302   9.714
 5051W        W 9251   0.755   8.403   0.402
 5052W        W 9252   9.388   3.918   1.676
 5053W        W 9253   9.871   2.616   2.815
 5054W        W 9254   6.752  10.759   1.880
 5055W        W 9255   5.487   8.108   2.014
 5056W        W 9256   9.362   0.935  11.906
 5057W        W 9257   5.502  11.034   9.028
 5058W        W 9258   6.220   2.744   9.885
 5059W        W 9259   2.265   7.102   0.068
 5060W        W 9260  11.294  11.399   9.373
 5061W        W 9261   5.658   0.697  10.711
 5062W        W 9262  10.870   8.332   9.645
 5063W        W 9263  10.295   5.984  11.203
 5064W        W 9264   6.986   3.172   1.378
 5065W        W 9265   2.746   8.506   9.480
 5066W        W 9266  10.852   7.612   1.852
 5067W        W 9267   9.405   4.395  11.058
 5068W        W 9268   7.492  11.349   9.312
 5069W        W 9269  10.813   3.920   1.909
 5070W        W 9270   2.585   6.301   9.984
 5071W        W 9271  10.586   7.889   0.003
 5072W        W 9272   0.447  11.339   0.709
 5073W        W 9273  11.428   5.024   2.173
 5074W        W 9274   4.624  11.423   9.125
 5075W        W 9275   8.924   5.339   8.524
 5076W        W 9276   8.885   2.837   2.836
 5077W        W 9277   0.478   3.611  11.537
 5078W        W 9278   8.452   2.949   1.546
 5079W        W 9279   8.056   3.937   1.936
 5080W        W 9280   0.511   5.400  11.018
 5081W        W 9281   2.458   2.517  11.884
 5082W        W 9282   2.780   3.104   1.428
 5083W        W 9283   6.161  10.569   9.406
 5084W        W 9284   4.653  10.873   1.362
 5085W        W 9285   1.036   9.515   0.785
 5086W        W 9286   4.669   6.809   2.307
 5087W        W 9287   5.209   9.848   9.026
 5088W        W 9288   0.284   9.927   0.917
 5089W        W 9289   5.805   7.081   0.383
 5090W        W 9290   7.886   6.935   2.976
 5091W        W 9291   3.843  10.789   9.885
 5092W        W 9292   2.599   6.191  11.876
 5093W        W 9293   1.354   2.033   8.995
 5094W        W 9294   0.823   1.874  10.913
 5095W        W 9295   4.094   0.872  11.292
 5096W        W 9296   2.022  11.107  10.083
 5097W        W 9297   1.354   7.865   8.808
 5098W        W 9298   2.172   4.945   1.503
 5099W        W 9299   2.643   9.747  10.561
 5100W        W 9300  10.531  11.265   2.258
 5101W        W 9301   6.250   0.455   3.321
 5102W        W 9302   3.862   7.349   2.233
 5103W        W 9303   3.846   8.533   2.705
 5104W        W 9304  10.033   3.307   1.435
 5105W        W 9305   3.480   2.225  10.499
 5106W        W 9306   0.355   9.599   1.583
 5107W        W 9307   8.878   4.131   9.861
 5108W        W 9308   0.195   3.670   2.750
 5109W        W 9309   0.501   3.065  10.688
 5110W        W 9310   4.157  10.821   1.892
 5111W        W 9311   4.146  10.914  10.301
 5112W        W 9312   5.369   9.465   0.306
 5113W        W 9313   0.154  10.580   3.077
 5114W        W 9314  10.568   0.882  11.845
 5115W        W 9315   2.863   8.626   2.884
 5116W        W 9316   9.528   2.718   3.510
 5117W        W 9317   5.725   7.746  10.047
 5118W        W 9318   8.543   1.481   1.335
 5119W        W 9319   8.111   9.419   1.054
 5120W        W 9320   9.370   2.730  11.330
 5121W        W 9321   6.713   7.898   9.902
 5122W        W 9322   5.783   4.813  10.345
 5123W        W 9323   7.655  10.300  10.802
 5124W        W 9324   5.101   5.721  10.741
 5125W        W 9325   9.157   3.743   0.203
 5126W        W 9326   2.201   0.801   8.904
 5127W        W 9327   0.284   7.544   3.294
 5128W        W 9328   6.866   8.573   2.988
 5129W        W 9329   0.653  10.360   2.332
 5130W        W 9330   2.941   0.269  10.961
 5131W        W 9331   2.977   4.581   9.974
 5132W        W 9332   6.491   4.038   0.784
 5133W        W 9333   3.833   4.687   8.157
 5134W        W 9334   4.784   2.717   1.543
 5135W        W 9335   8.151   1.822   9.991
 5136W        W 9336   3.363   2.376   0.016
 5137W        W 9337   8.502   1.889  11.252
 5138W        W 9338   3.747  10.352   8.948
 5139W        W 9339   9.540   0.603   0.247
 5140W        W 9340   8.591   4.997  10.154
 5141W        W 9341   6.661  10.370  11.092
 5142W        W 9342   9.548   2.362   2.211
 5143W        W 9343  10.698   1.313  11.539
 5144W        W 9344   1.414   3.881  11.479
 5145W        W 9345   8.053   2.769   0.374
 5146W        W 9346   0.434   5.711   9.954
 5147W        W 9347   4.184   7.468   9.060
 5148W        W 9348  10.364   4.556  11.449
 5149W        W 9349   4.692   3.554   0.434
 5150W        W 9350   6.781   3.149   9.168
 5151W        W 9351   7.707   5.778   8.348
 5152W        W 9352   4.558   6.367   2.518
 5153W        W 9353   5.567   8.976   0.420
 5154W        W 9354   2.750   3.410  10.285
 5155W        W 9355   2.816   2.355   2.764
 5156W        W 9356   5.456   2.409   2.706
 5157W        W 9357   6.721   2.803   0.470
 5158W        W 9358   3.168   0.814   9.113
 5159W        W 9359   8.986  10.006  10.120
 5160W        W 9360  11.391   5.587   0.217
 5161W        W 9361   4.522   3.210   9.527
 5162W        W 9362   8.057   1.834   3.438
 5163W        W 9363   8.484   6.970   0.457
 5164W        W 9364  10.464   8.096   2.958
 5165W        W 9365   7.627   0.738   3.424
 5166W        W 9366   4.089  11.396  10.501
 5167W        W 9367   1.920   5.219  11.233
 5168W        W 9368   4.542   5.441   2.276
 5169W        W 9369   5.592   3.701   3.819
 5170W        W 9370   7.376   4.788  10.530
 5171W        W 9371  11.325   6.406   2.785
 5172W        W 9372   1.710   2.323   0.936
 5173W        W 9373   5.203   9.917   2.110
 5174W        W 9374  11.493  11.445   2.014
 5175W        W 9375   9.177   9.540   2.250
 5176W        W 9376   0.774   7.172   9.941
 5177W        W 9377   6.959   1.249  11.943
 5178W        W 9378   0.775   7.497   1.807
 5179W        W 9379   0.860   9.134   1.047
 5180W        W 9380   5.171   5.571  11.760
 5181W        W 9381  10.110   5.017  10.308
 5182W        W 9382  10.125   1.964  10.472
 5183W        W 9383   4.993   1.510  10.118
 5184W        W 9384   8.853   6.946   9.535
 5185W        W 9385   0.804   2.037  11.610
 5186W        W 9386   0.750   5.505   3.007
 5187W        W 9387   6.260   5.046   0.373
 5188W        W 9388   1.251   5.272  10.442
 5189W        W 9389   5.331   6.718  10.845
 5190W        W 9390   1.624   5.069  11.965
 5191W        W 9391   0.266  11.433   0.239
 5192W        W 9392   0.485   4.582  10.820
 5193W        W 9393  11.328   8.890   1.877
 5194W        W 9394   8.714  11.271   9.564
 5195W        W 9395  10.499   7.372  10.960
 5196W        W 9396   9.111   9.064   2.520
 5197W        W 9397  11.256   4.801   0.814
 5198W        W 9398   3.272   2.641   0.860
 5199W        W 9399   8.533   0.943   9.420
 5200W        W 9400   7.059   8.341   1.961
 5201W        W 9401   5.131  11.495   2.991
 5202W        W 9402   3.006   3.780   4.165
 5203W        W 9403   1.204   8.171   0.642
 5204W        W 9404   1.332   9.555   0.400
 5205W        W 9405   0.737   0.919  10.422
 5206W        W 9406  10.328   2.569   9.384
 5207W        W 9407  10.526   1.586   9.645
 5208W        W 9408  10.236   8.459   0.398
 5209W        W 9409   2.300  10.225   2.709
 5210W        W 9410   9.968   8.063  10.959
 5211W        W 9411   2.276  11.261   0.475
 5212W        W 9412   7.652   2.451   3.172
 5213W        W 9413  10.138   0.317  10.100
 5214W        W 9414   8.459  11.303   3.162
 5215W        W 9415   9.447   6.685   2.152
 5216W        W 9416   4.123   8.094   9.634
 5217W        W 9417   9.802   0.814   9.439
 5218W        W 9418   7.167  10.387   3.407
 5219W        W 9419   0.671   6.931  10.376
 5220W        W 9420  11.300   1.792  10.970
 5221W        W 9421   2.124   2.961   8.778
 5222W        W 9422   7.716   7.744   9.878
 5223W        W 9423   8.607   5.992  11.017
 5224W        W 9424   7.493   7.050   1.906
 5225W        W 9425   1.757  10.985   2.848
 5226W        W 9426   1.819  10.487  11.241
 5227W        W 9427   2.966   7.863  10.384
 5228W        W 9428   1.816   3.704   2.307
 5229W        W 9429   9.450   8.789   0.217
 5230W        W 9430   0.391   6.068   0.229
 5231W        W 9431   0.505   3.890   2.410
 5232W        W 9432   4.671   2.647   2.985
 5233W        W 9433   0.725   0.688   9.966
 5234W        W 9434  10.395   7.474   9.876
 5235W        W 9435   3.221   0.158   9.129
 5236W        W 9436   3.752   0.611   2.931
 5237W        W 9437   1.189   5.706   2.375
 5238W        W 9438   7.565   1.040   1.941
 5239W        W 9439   7.482   8.367   2.316
 5240W        W 9440   8.599   6.455   0.382
 5241W        W 9441  10.222   2.221   0.864
 5242W        W 9442   6.671   9.886   1.992
 5243W        W 9443   3.689  11.457   9.579
 5244W        W 9444   4.670   4.623  10.966
 5245W        W 9445   4.794   9.009   3.057
 5246W        W 9446   2.683   1.136   1.277
 5247W        W 9447   4.768   7.001  10.023
 5248W        W 9448   1.344   9.524  11.908
 5249W        W 9449   2.392   3.802   9.488
 5250W        W 9450   4.655   4.758   1.799
 5251W        W 9451   2.886   9.956  11.535
 5252W        W 9452   9.242   7.350  11.087
 5253W        W 9453   8.776   8.687   0.749
 5254W        W 9454   8.054   1.456   8.734
 5255W        W 9455   9.632   9.559   1.510
 5256W        W 9456   0.717   4.663  11.322
 5257W        W 9457   8.132   8.831  11.753
 5258W        W 9458   1.823   7.411  11.819
 5259W        W 9459   4.726   8.491   0.715
 5260W        W 9460   6.366   7.426   1.464
 5261W        W 9461   3.744   8.856  10.597
 5262W        W 9462  10.367   5.027  11.170
 5263W        W 9463   1.430   5.235   2.377
 5264W        W 9464   1.892   0.464   0.815
 5265W        W 9465   2.826   7.025   2.381
 5266W        W 9466   7.902   5.214  11.443
 5267W        W 9467   1.789   5.240   2.834
 5268W        W 9468   6.349   1.263   1.734
 5269W        W 9469   1.635   3.044   0.445
 5270W        W 9470  11.071   0.918   1.234
 5271W        W 9471   1.462   0.026   0.245
 5272W        W 9472   4.098   3.526  11.793
 5273W        W 9473   5.176   0.813   1.942
 5274W        W 9474  10.049   8.978   9.123
 5275W        W 9475   2.005  10.393   9.400
 5276W        W 9476   2.739   4.605   1.361
 5277W        W 9477   4.540   5.133  11.204
 5278W        W 9478   8.979   5.718   9.782
 5279W        W 9479   4.639   4.013   1.364
 5280W        W 9480   7.814   9.528  10.905
 5281W        W 9481   4.217   1.316   3.045
 5282W        W 9482   9.398   8.636   2.313
 5283W        W 9483   1.436   5.553  11.923
 5284W        W 9484   3.776   1.115   2.934
 5285W        W 9485   9.977   2.741  10.082
 5286W        W 9486   1.170   7.316   2.893
 5287W        W 9487   5.939   5.592   9.061
 5288W        W 9488   6.534   2.865   3.620
 5289W        W 9489   9.720   1.131   2.995
 5290W        W 9490   4.084  11.345   0.874
 5291W        W 9491   0.904  11.048  10.650
 5292W        W 9492   8.316   6.793   0.933
 5293W        W 9493   7.123   7.023  11.943
 5294W        W 9494   9.930  10.883  11.942
 5295W        W 9495   3.737   6.918  11.160
 5296W        W 9496   2.219   8.054   0.574
 5297W        W 9497   9.642   4.212   1.349
 5298W        W 9498  10.629   0.699   1.376
 5299W        W 9499   7.589   7.357   2.309
 5300W        W 9500   1.985   5.326   1.860
 5301W        W 9501  10.561  10.479  11.764
 5302W        W 9502   1.603   7.005   1.913
 5303W        W 9503   8.321   4.021  10.282
 5304W        W 9504   5.657   3.236   2.561
 5305W        W 9505   6.083   0.324   2.254
 5306W        W 9506   9.569   7.681   1.441
 5307W        W 9507   9.904   3.188   9.780
 5308W        W 9508   9.612   4.900   1.724
 5309W        W 9509   8.211   3.670   9.495
 5310W        W 9510   6.684   3.979   1.711
 5311W        W 9511   9.985   8.529  10.714
 5312W        W 9512   8.478  10.266  10.037
 5313W        W 9513   0.321  11.453   9.243
 5314W        W 9514   3.670   3.610  10.980
 5315W        W 9515  11.458  10.719   9.681
 5316W        W 9516   0.174   7.183  11.335
 5317W        W 9517   8.944   9.371  11.414
 5318W        W 9518   2.616   0.829   9.227
 5319W        W 9519   0.532   3.438  10.316
 5320W        W 9520  10.223   2.722   2.097
 5321W        W 9521   5.625   8.539   1.764
 5322W        W 9522   3.961   7.995   1.780
 5323W        W 9523   8.248   3.847   4.006
 5324W        W 9524   1.215   4.073   9.221
 5325W        W 9525   2.268   1.891   9.761
 5326W        W 9526   9.885  10.798   2.250
 5327W        W 9527   5.191   9.834   3.353
 5328W        W 9528   1.965   2.145  11.281
 5329W        W 9529   7.982  10.406   2.424
 5330W        W 9530   1.846   3.226   8.407
 5331W        W 9531   0.396  10.021  10.926
 5332W        W 9532   8.567   3.568   3.137
 5333W        W 9533   9.916   7.672   2.411
 5334W        W 9534   6.546  10.927   9.332
 5335W        W 9535   2.796   5.302  11.338
 5336W        W 9536   4.956   2.520   8.608
 5337W        W 9537   6.727   8.633   0.826
 5338W        W 9538   1.875   6.923   8.765
 5339W        W 9539   3.637   0.147   2.748
 5340W        W 9540   4.989   8.301   8.921
 5341W        W 9541   7.050   9.349   8.563
 5342W        W 9542   1.252   7.577   2.057
 5343W        W 9543   7.997   5.913   0.799
 5344W        W 9544   5.634  10.961   0.952
 5345W        W 9545   0.675   8.786  10.074
 5346W        W 9546   4.005   6.196   1.845
 5347W        W 9547  10.733   7.475   3.524
 5348W        W 9548   1.644   6.663   8.339
 5349W        W 9549   0.313  10.999   9.462
 5350W        W 9550   5.215   4.693   1.673
 5351W        W 9551   2.796   4.819  11.627
 5352W        W 9552   3.148   3.341   1.767
 5353W        W 9553   0.144   7.906  10.000
 5354W        W 9554   6.308   6.482   2.309
 5355W        W 9555   2.216  10.984   1.872
 5356W        W 9556   0.433   0.519   2.433
 5357W        W 9557   9.718   7.035   0.313
 5358W        W 9558   0.880   7.084   1.422
 5359W        W 9559   5.220   1.366   1.693
 5360W        W 9560   1.755   4.811  10.297
 5361W        W 9561   5.772   5.192   0.312
 5362W        W 9562   1.776   8.100   9.625
 5363W        W 9563   1.186   1.908  11.272
 5364W        W 9564  10.968   9.959   9.724
 5365W        W 9565   3.938   9.377   3.391
 5366W        W 9566   6.898   2.618   2.667
 5367W        W 9567   6.369   2.529  10.339
 5368W        W 9568   2.222   1.468   0.072
 5369W        W 9569   1.148   1.312   3.624
 5370W        W 9570   7.780   0.354   3.727
 5371W        W 9571   2.294   5.774   9.130
 5372W        W 9572   8.945   7.486   2.170
 5373W        W 9573  11.239   5.164   1.181
 5374W        W 9574   1.405  10.339   2.914
 5375W        W 9575   2.860   3.222   3.523
 5376W        W 9576  10.455   8.940   3.011
 5377W        W 9577   8.605   7.379   9.460
 5378W        W 9578   1.899   4.538  10.898
 5379W        W 9579  10.099   1.308   1.224
 5380W        W 9580   7.574   1.790   9.586
 5381W        W 9581   3.160   5.614   0.104
 5382W        W 9582   4.049   5.158  11.024
 5383W        W 9583   2.684   3.088   8.984
 5384W        W 9584   0.206   1.820   1.514
 5385W        W 9585   9.791   1.319   0.772
 5386W        W 9586   8.945   0.767   1.890
 5387W        W 9587   7.574   5.066   1.247
 5388W        W 9588   6.691  10.379   2.707
 5389W        W 9589   0.842  10.293  10.084
 5390W        W 9590   0.083   9.370   0.757
 5391W        W 9591   7.659   1.027   9.595
 5392W        W 9592   7.693   6.518   1.831
 5393W        W 9593   8.096   6.674   9.920
 5394W        W 9594   3.707   9.068   2.011
 5395W        W 9595   1.663   8.876  10.926
 5396W        W 9596   7.018   6.002  11.834
 5397W        W 9597   6.231   0.809   2.423
 5398W        W 9598   8.065  10.816   2.733
 5399W        W 9599   0.234   5.471   1.905
 5400W        W 9600   8.090   3.696   1.459
 5401W        W 9601  10.875   1.386   0.008
 5402W        W 9602   8.988   8.581   2.714
 5403W        W 9603   8.465   1.464   9.492
 5404W        W 9604   0.283   7.579  11.726
 5405W        W 9605   7.112   6.684  11.324
 5406W        W 9606   2.317   7.944  10.986
 5407W        W 9607   0.356   1.281  11.836
 5408W        W 9608   3.952   6.298   1.270
 5409W        W 9609   6.663   7.519   3.667
 5410W        W 9610  11.339   8.452   2.183
 5411W        W 9611   9.121  11.382   0.716
 5412W        W 9612   0.167   5.157   0.930
 5413W        W 9613   9.880   0.402  11.846
 5414W        W 9614   5.081   0.247   0.234
 5415W        W 9615   6.234   3.500   2.274
 5416W        W 9616  10.790  10.419   3.356
 5417W        W 9617  11.185   5.280   8.742
 5418W        W 9618   5.707   8.618   3.302
 5419W        W 9619   8.976   3.666   3.454
 5420W        W 9620  11.202   1.521   8.845
 5421W        W 9621   2.739  11.293   0.230
 5422W        W 9622   5.716   2.391   1.022
 5423W        W 9623   5.091   7.736  11.642
 5424W        W 9624   1.201   8.239   0.132
 5425W        W 9625  10.622   7.844   1.418
 5426W        W 9626   7.659   3.066   0.704
 5427W        W 9627  11.408   3.759   3.139
 5428W        W 9628   4.360   5.005   1.419
 5429W        W 9629   0.182   9.237  10.326
 5430W        W 9630   8.747   7.980  10.377
 5431W        W 9631   1.711  10.834   9.412
 5432W        W 9632   9.353   6.621  11.786
 5433W        W 9633   9.133   7.364   9.594
 5434W        W 9634  11.500  11.372   9.831
 5435W        W 9635  10.771   0.222   9.922
 5436W        W 9636   1.974  10.701   8.974
 5437W        W 9637   7.750   6.288   8.243
 5438W        W 9638   0.200   5.543   9.505
 5439W        W 9639  10.841   7.161   8.916
 5440W        W 9640   6.442   2.803   8.976
 5441W        W 9641  10.094   0.751  10.546
 5442W        W 9642   6.793   6.105   1.323
 5443W        W 9643   9.503   3.296   2.265
 5444W        W 9644   5.255   5.827   2.355
 5445W        W 9645   7.302   0.448  10.050
 5446W        W 9646   8.923   0.789   2.406
 5447W        W 9647   3.666   3.599   0.712
 5448W        W 9648   0.197   3.057  10.253
 5449W        W 9649   0.415   8.687  10.892
 5450W        W 9650   7.590   6.381   3.489
 5451W        W 9651   1.296   7.848  10.920
 5452W        W 9652   4.000   1.014   0.422
 5453W        W 9653   9.488   2.787   9.902
 5454W        W 9654   7.286   1.004   0.268
 5455W        W 9655   6.809   0.790   8.404
 5456W        W 9656   5.518   3.772   1.828
 5457W        W 9657   9.529   1.364   1.296
 5458W        W 9658   0.484   7.067   8.995
 5459W        W 9659   0.224   8.722  10.385
 5460W        W 9660   0.295   3.866  11.143
 5461W        W 9661   1.403  10.869  11.783
 5462W        W 9662  10.767   9.349   2.258
 5463W        W 9663   2.034   8.360   3.216
 5464W        W 9664   1.643  10.383   2.137
 5465W        W 9665   4.638   8.137   9.682
 5466W        W 9666   9.467   6.893   9.878
 5467W        W 9667   3.694   5.440  10.332
 5468W        W 9668  11.377   6.046   0.033
 5469W        W 9669   3.356   7.208  10.969
 5470W        W 9670  10.874   8.553   8.645
 5471W        W 9671  10.735   6.984   0.407
 5472W        W 9672   3.348   9.131  11.065
 5473W        W 9673   1.626   9.622  11.477
 5474W        W 9674   5.890   1.516   9.803
 5475W        W 9675   4.899  10.378  10.182
 5476W        W 9676   1.311   5.732   0.383
 5477W        W 9677   2.149   1.750  11.569
 5478W        W 9678   9.824   0.626   3.019
 5479W        W 9679   7.698   9.052   9.908
 5480W        W 9680   7.143   7.127  10.539
 5481W        W 9681  11.482   9.852   8.692
 5482W        W 9682   1.360  10.440   9.977
 5483W        W 9683   5.462  10.736   2.450
 5484W        W 9684   5.008   7.965   3.355
 5485W        W 9685   3.253   0.188  11.458
 5486W        W 9686   2.267   7.495  10.353
 5487W        W 9687   1.485   4.258   2.375
 5488W        W 9688  10.475   2.458   9.918
 5489W        W 9689   4.962   6.404  11.719
 5490W        W 9690   7.060   1.778   1.133
 5491W        W 9691   0.409   0.349   0.511
 5492W        W 9692   8.362   7.205  11.029
 5493W        W 9693   2.358   3.063   2.797
 5494W        W 9694  10.571   6.012   2.186
 5495W        W 9695   4.296  11.376  11.529
 5496W        W 9696   2.418  10.213  11.520
 5497W        W 9697   0.963  11.476   8.579
 5498W        W 9698   9.419   0.789   2.120
 5499W        W 9699   7.697   6.618   8.670
 5500W        W 9700   6.593   8.583   3.841
 5501W        W 9701   2.374   0.387   9.156
 5502W        W 9702   8.484   5.064   9.662
 5503W        W 9703   3.710   0.848   2.068
 5504W        W 9704   1.716   0.367   1.658
 5505W        W 9705   4.268   2.268   9.290
 5506W        W 9706   0.366   8.046   9.117
 5507W        W 9707   9.984  10.021   0.724
 5508W        W 9708   0.413   3.390   1.482
 5509W        W 9709   4.224   0.021  11.003
 5510W        W 9710  11.120   1.433   2.330
 5511W        W 9711   5.099   6.975   1.063
 5512W        W 9712  11.490   5.596   1.421
 5513W        W 9713   1.387   7.077   0.143
 5514W        W 9714   1.409   3.735   1.028
 5515W        W 9715   3.307   7.626   0.798
 5516W        W 9716   6.115   1.716   3.507
 5517W        W 9717   8.466   8.451   3.604
 5518W        W 9718  10.119  10.383   3.545
 5519W        W 9719   9.533   7.734  10.418
 5520W        W 9720   8.046  10.991  10.096
 5521W        W 9721  10.867   8.689  10.012
 5522W        W 9722   2.500   4.321   2.148
 5523W        W 9723   8.677   8.535  11.756
 5524W        W 9724   2.387   6.067  10.436
 5525W        W 9725   2.888   8.906  10.723
 5526W        W 9726   7.125   5.734  11.362
 5527W        W 9727   2.875   9.331   0.283
 5528W        W 9728   5.096   9.076  11.466
 5529W        W 9729   3.440   0.215  10.982
 5530W        W 9730   4.629   4.557   0.495
 5531W        W 9731   0.638   0.519  10.860
 5532W        W 9732   8.413   7.881   3.106
 5533W        W 9733  10.394   5.602   0.906
 5534W        W 9734   1.848   5.689  11.646
 5535W        W 9735   2.036   4.684   9.881
 5536W        W 9736  11.036   5.307   1.959
 5537W        W 9737   4.839  10.447  11.461
 5538W        W 9738   4.418   4.057   3.247
 5539W        W 9739   7.284   2.268   8.819
 5540W        W 9740   3.694   1.785   1.662
 5541W        W 9741   8.399   4.153   9.271
 5542W        W 9742   7.860   3.260   0.246
 5543W        W 9743   4.375   3.260   3.659
 5544W        W 9744   9.018   5.025   1.452
 5545W        W 9745   4.249   7.025   8.761
 5546W        W 9746   7.776   0.906   0.459
 5547W        W 9747   6.116   4.554   1.316
 5548W        W 9748  10.356   6.423   9.989
 5549W        W 9749   5.869   9.402   0.340
 5550W        W 9750   4.175   1.381   0.827
 5551W        W 9751  11.214   9.848  10.189
 5552W        W 9752   7.218   9.539  10.371
 5553W        W 9753   6.017   4.275   2.618
 5554W        W 9754   4.934   2.323   2.687
 5555W        W 9755  10.338   9.516  10.308
 5556W        W 9756   2.593   9.839  11.109
 5557W        W 9757   1.431   1.721   3.112
 5558W        W 9758   5.548   5.395   2.262
 5559W        W 9759   4.898   7.103   1.523
 5560W        W 9760   0.371   1.303  11.299
 5561W        W 9761   5.572   4.634   9.010
 5562W        W 9762   5.914   6.501   9.454
 5563W        W 9763   0.234   6.802   2.094
 5564W        W 9764   9.916  10.471   1.240
 5565W        W 9765   2.306   3.349   1.320
 5566W        W 9766   4.959   9.111   8.559
 5567W        W 9767   8.536   3.868   1.755
 5568W        W 9768   1.512   4.816   2.687
 5569W        W 9769   6.229  11.460   1.406
 5570W        W 9770   1.868   6.915   3.139
 5571W        W 9771   3.159   3.606   0.771
 5572W        W 9772   7.694   9.211   1.289
 5573W        W 9773   7.878   8.075  10.220
 5574W        W 9774   9.575  11.384   0.981
 5575W        W 9775   6.755   6.566   9.940
 5576W        W 9776   3.045   5.528   2.481
 5577W        W 9777   7.327   8.555   2.780
 5578W        W 9778   3.394  10.937  10.809
 5579W        W 9779   8.037   1.324   1.257
 5580W        W 9780   5.926   3.065   0.335
 5581W        W 9781  11.292   1.096   3.566
 5582W        W 9782  10.315   3.710   1.707
 5583W        W 9783   4.601   3.366  10.033
 5584W        W 9784   8.505   7.662   9.050
 5585W        W 9785   7.750   5.269   8.566
 5586W        W 9786   1.720   3.143   2.262
 5587W        W 9787   3.140   7.036   9.891
 5588W        W 9788   2.272   2.442   1.682
 5589W        W 9789   9.504   7.395   9.960
 5590W        W 9790   7.486   0.241  11.151
 5591W        W 9791   6.622   2.343   1.388
 5592W        W 9792   8.640   7.645   9.897
 5593W        W 9793  10.974   3.591   0.457
 5594W        W 9794   3.596   2.345   0.469
 5595W        W 9795   8.135   6.601  11.288
 5596W        W 9796   6.944   0.334   1.120
 5597W        W 9797   0.935   5.713   9.000
 5598W        W 9798  10.292   5.659   2.434
 5599W        W 9799   4.214   6.918  11.309
 5600W        W 9800   0.112   0.740  10.818
 5601W        W 9801   1.455  11.367   0.844
 5602W        W 9802  10.002   0.295   9.125
 5603W        W 9803   2.221   1.911   8.719
 5604W        W 9804   1.377   1.424   1.775
 5605W        W 9805   9.130   9.967   3.111
 5606W        W 9806   8.623   1.159  11.017
 5607W        W 9807   9.292   2.670   2.544
 5608W        W 9808   9.165  11.498   0.213
 5609W        W 9809   7.516   8.770   9.147
 5610W        W 9810   2.768   1.597   1.495
 5611W        W 9811  10.703  10.612   2.885
 5612W        W 9812  10.450   8.213   3.463
 5613W        W 9813   8.373   7.923   1.364
 5614W        W 9814   2.169   0.687   2.823
 5615W        W 9815   6.438   1.170  11.205
 5616W        W 9816   7.190   6.463   1.726
 5617W        W 9817   5.405   5.279   9.540
 5618W        W 9818   0.123   1.628   2.726
 5619W        W 9819   3.177   2.821   9.919
 5620W        W 9820   3.008   4.707   2.994
 5621W        W 9821   2.051   5.143   0.663
 5622W        W 9822   6.043   9.365   9.611
 5623W        W 9823   9.038   5.130   2.400
 5624W        W 9824   8.461   0.399   1.226
 5625W        W 9825  10.358   6.476  11.010
 5626W        W 9826   7.082   8.434  11.064
 5627W        W 9827   4.053   4.742  10.714
 5628W        W 9828   2.328   7.723   8.978
 5629W        W 9829   6.563   3.079   4.133
 5630W        W 9830  11.223  11.034  11.060
 5631W        W 9831   0.003   3.449   9.078
 5632W        W 9832   2.997   8.367   9.045
 5633W        W 9833   6.230   9.338  11.987
 5634W        W 9834   2.255   2.817   9.822
 5635W        W 9835   9.891   6.166  11.450
 5636W        W 9836   8.686   6.606   1.782
 5637W        W 9837  10.408  10.469  10.796
 5638W        W 9838  10.046   4.086   0.893
 5639W        W 9839   7.026   0.764   3.149
 5640W        W 9840  10.406   4.511   2.869
 5641W        W 9841   8.753   2.299   1.812
 5642W        W 9842   9.201   3.831   9.425
 5643W        W 9843   5.494   5.042   9.980
 5644W        W 9844   6.939  10.773   2.367
 5645W        W 9845   3.532   7.715  11.955
 5646W        W 9846   0.245   2.742   1.528
 5647W        W 9847   1.847   8.181   1.995
 5648W        W 9848   9.150   9.065   9.776
 5649W        W 9849   1.192   4.803  11.470
 5650W        W 9850  11.374   9.824   9.208
 5651W        W 9851   8.593   9.350  10.626
 5652W        W 9852   7.967   2.320  10.749
 5653W        W 9853   0.500   8.045  11.830
 5654W        W 9854   4.468   2.814  10.647
 5655W        W 9855   8.921   1.571  11.189
 5656W        W 9856   3.485   3.798   1.173
 5657W        W 9857   6.444   3.526   0.871
 5658W        W 9858   6.571   2.858   1.362
 5659W        W 9859  10.446   3.292  10.617
 5660W        W 9860   3.706   8.288  11.293
 5661W        W 9861   4.156   6.600   0.759
 5662W        W 9862   4.738   0.311  10.339
 5663W        W 9863  10.057   0.112  11.446
 5664W        W 9864  10.995  11.253   9.929
 5665W        W 9865   0.822   5.056   3.231
 5666W        W 9866  10.075   1.372   2.451
 5667W        W 9867   8.877   4.171   0.265
 5668W        W 9868   0.762   9.914   3.269
 5669W        W 9869  10.868   9.650   2.664
 5670W        W 9870   3.433   3.146   0.884
 5671W        W 9871  11.021   7.019   3.588
 5672W        W 9872   1.288   2.346   2.784
 5673W        W 9873   2.135  10.859   1.372
 5674W        W 9874   7.139  10.320   2.452
 5675W        W 9875   3.420  11.073   9.931
 5676W        W 9876   2.228   3.320   9.636
 5677W        W 9877   3.499   3.968  10.623
 5678W        W 9878   1.879   5.534   9.339
 5679W        W 9879   8.666   5.187   2.880
 5680W        W 9880   5.543   7.343   9.777
 5681W        W 9881   4.328   7.568   0.798
 5682W        W 9882   0.947   2.694   2.652
 5683W        W 9883   0.186   6.843  10.505
 5684W        W 9884   5.393   4.132   3.995
 5685W        W 9885   8.184   8.075   8.964
 5686W        W 9886   8.881   5.496  10.240
 5687W        W 9887   7.477   2.371  10.497
 5688W        W 9888   7.703  11.238   9.784
 5689W        W 9889   0.207   5.262   8.973
 5690W        W 9890   1.889   6.989   1.457
 5691W        W 9891   0.961   5.274   2.174
 5692W        W 9892   7.642   0.576   1.755
 5693W        W 9893  11.420   5.688   9.941
 5694W        W 9894   2.621  11.257   9.516
 5695W        W 9895  10.842   7.175  10.003
 5696W        W 9896   3.735   4.749   2.257
 5697W        W 9897   4.652   9.900   0.514
 5698W        W 9898   7.874   1.542  11.927
 5699W        W 9899   0.729   0.429   8.658
 5700W        W 9900  11.332   0.024  11.292
 5701W        W 9901   0.465   7.996   0.609
 5702W        W 9902  10.240  11.340  10.302
 5703W        W 9903   1.445   4.239   0.231
 5704W        W 9904   4.923   1.309   3.263
 5705W        W 9905   7.678   8.986  10.929
 5706W        W 9906   6.906   8.858   8.516
 5707W        W 9907   3.678   5.490  10.852
 5708W        W 9908   4.944   4.340  10.500
 5709W        W 9909   0.383   8.778   0.327
 5710W        W 9910   6.950   4.582  10.339
 5711W        W 9911   8.221   9.604   8.783
 5712W        W 9912   5.022   2.902  10.626
 5713W        W 9913   9.759   4.566  10.634
 5714W        W 9914  11.139   8.484  10.419
 5715W        W 9915   4.459   8.012   1.904
 5716W        W 9916   6.422   1.322   1.234
 5717W        W 9917   1.434   9.090   1.205
 5718W        W 9918   9.912   6.450   3.579
 5719W        W 9919   1.311   7.160   2.330
 5720W        W 9920   8.057   4.149   1.092
 5721W        W 9921   4.811   5.241   1.867
 5722W        W 9922   0.391   3.485   9.426
 5723W        W 9923   6.951   1.702   2.109
 5724W        W 9924   4.428  10.270   0.888
 5725W        W 9925  10.029   8.084   9.822
 5726W        W 9926  10.294   3.976  11.986
 5727W        W 9927   8.412   6.166   1.717
 5728W        W 9928  11.285   3.410   0.859
 5729W        W 9929   4.463   6.312   1.152
 5730W        W 9930   0.025   8.554   0.643
 5731W        W 9931   8.836   1.137   3.394
 5732W        W 9932   3.880   7.121   1.483
 5733W        W 9933   9.043   4.314   0.731
 5734W        W 9934   7.738   1.489   1.653
 5735W        W 9935  11.359  10.123  11.632
 5736W        W 9936   4.165   5.057   2.357
 5737W        W 9937   8.926   7.561   1.674
 5738W        W 9938   3.169   7.709   9.429
 5739W        W 9939   2.293   4.786   0.969
 5740W        W 9940   1.423  11.434   8.815
 5741W        W 9941   1.432  11.314  11.547
 5742W        W 9942   7.138   2.939   8.820
 5743W        W 9943  11.182   9.275  10.997
 5744W        W 9944   0.426   3.735   3.225
 5745W        W 9945   1.013   8.469  10.308
 5746W        W 9946   8.811   6.001   8.342
 5747W        W 9947   6.366   0.808  10.690
 5748W        W 9948   5.508   3.715   8.134
 5749W        W 9949   9.546   8.640   3.234
 5750W        W 9950   5.910   3.384   1.888
 5751W        W 9951   2.279   8.446  10.321
 5752W        W 9952   5.723   9.108   3.557
 5753W        W 9953   3.616   1.886   9.505
 5754W        W 9954   1.344   4.752   2.202
 5755W        W 9955   6.061   8.341   2.700
 5756W        W 9956  10.375   6.596   3.385
 5757W        W 9957   0.301  10.560   9.161
 5758W        W 9958   9.560   5.544   1.133
 5759W        W 9959   8.519   0.939   2.099
 5760W        W 9960   2.899   7.874   1.332
 5761W        W 9961   0.089  10.578  11.733
 5762W        W 9962   5.187   0.964  11.439
 5763W        W 9963   9.062   7.596   2.665
 5764W        W 9964   2.272   0.859  10.847
 5765W        W 9965   6.289  10.512  10.771
 5766W        W 9966   3.533   3.789   3.544
 5767W        W 9967  10.574   9.989  10.983
 5768W        W 9968   6.156   1.747  11.017
 5769W        W 9969   8.104   7.674  11.193
 5770W        W 9970   2.159   8.900  11.033
 5771W        W 9971   8.935   6.030   0.783
 5772W        W 9972  10.178   4.251  10.591
 5773W        W 9973   3.267   9.092   9.065
 5774W        W 9974  10.502   9.052   8.871
 5775W        W 9975  10.038   9.012   2.168
 5776W        W 9976  10.308   5.398  10.579
 5777W        W 9977   1.681   3.800   2.842
 5778W        W 9978  11.264  10.280   0.621
 5779W        W 9979   1.935  11.435   1.842
 5780W        W 9980   4.520  10.911  11.458
 5781W        W 9981   2.767   2.053   9.043
 5782W        W 9982   6.140   9.066   2.297
 5783W        W 9983   8.930   0.341   2.683
 5784W        W 9984   9.545   6.439   9.594
 5785W        W 9985   1.372   3.832  10.954
 5786W        W 9986   7.424   7.613  11.713
 5787W        W 9987   0.982   3.668  10.380
 5788W        W 9988   4.922   7.199   0.596
 5789W        W 9989  10.442  10.805   2.474
 5790W        W 9990   3.323   3.765   9.790
 5791W        W 9991   1.706  11.326   3.601
 5792W        W 9992   7.203   7.501   1.045
 5793W        W 9993   3.129  10.807  11.282
 5794W        W 9994   0.287  10.066   1.406
 5795W        W 9995   8.628   1.981   1.443
 5796W        W 9996   5.167   1.939  10.945
 5797W        W 9997   4.699   6.061  10.777
 5798W        W 9998  10.062   7.591   1.348
 5799W        W 9999   2.368   9.874   2.361
 5800W        W10000  10.342   4.959   8.850
 5801W        W10001   4.700  10.562   1.828
 5802W        W10002   6.992   0.372   0.128
 5803W        W10003   0.598  11.350  11.778
 5804W        W10004   9.207   5.204  11.320
 5805W        W10005   8.058   5.679   8.701
 5806W        W10006   8.560  11.028   1.772
 5807W        W10007   2.516   4.766   2.878
 5808W        W10008   3.709   3.076   9.036
 5809W        W10009   3.479   9.466   3.611
 5810W        W10010   2.596   9.366   0.731
 5811W        W10011   2.689   4.291  10.269
 5812W        W10012   3.694   4.239   2.164
 5813W        W10013   8.456   9.568   0.156
 5814W        W10014   7.720   6.439   9.156
 5815W        W10015   1.920   0.983   0.746
 5816W        W10016   8.979  10.868   2.526
 5817W        W10017   2.838   5.563  10.772
 5818W        W10018  10.882  10.533   0.865
 5819W        W10019   5.647  10.133   9.843
 5820W        W10020   5.643   9.588   3.232
 5821W        W10021   6.564   1.238   2.360
 5822W        W10022   6.103   1.499   8.976
 5823W        W10023   0.858   4.855   8.489
 5824W        W10024   8.706   4.762   9.308
 5825W        W10025   6.219   1.626   3.014
 5826W        W10026   6.669   0.580  11.764
 5827W        W10027   4.695   1.319   0.800
 5828W        W10028   9.453   8.772  10.832
 5829W        W10029   2.642   9.000  11.158
 5830W        W10030   3.646   2.368   1.953
 5831W        W10031   0.021   8.936   2.349
 5832W        W10032   1.837   8.705   1.909
 5833W        W10033   8.946   8.453  11.032
 5834W        W10034   8.057   4.789   1.717
 5835W        W10035   7.091   6.501   1.188
 5836W        W10036   5.970   8.487   0.316
 5837W        W10037   9.891   1.868   2.498
 5838W        W10038   8.648   6.436   9.112
 5839W        W10039   6.227   3.649   3.151
 5840W        W10040   2.595   8.815   1.311
 5841W        W10041   3.670   9.949   1.337
 5842W        W10042   0.877   4.611  11.808
 5843W        W10043  11.412   3.658  11.462
 5844W        W10044  10.483   5.706  11.926
 5845W        W10045   7.496   4.082   9.809
 5846W        W10046   7.908   7.936   3.163
 5847W        W10047   1.455   9.889   9.283
 5848W        W10048  10.493   0.054   2.843
 5849W        W10049   2.229  10.658   0.879
 5850W        W10050   2.883   3.436  11.364
 5851W        W10051  11.426   1.058  11.297
 5852W        W10052   8.295   3.735   0.845
 5853W        W10053   5.243   9.739   1.152
 5854W        W10054   0.317   7.471   9.297
 5855W        W10055  10.411   4.219   1.793
 5856W        W10056   8.947   0.143   8.774
 5857W        W10057   0.374   8.355   1.479
 5858W        W10058  10.794   1.828   1.240
 5859W        W10059   1.173  10.336   2.321
 5860W        W10060  10.078   3.254  11.443
 5861W        W10061   6.410   7.806  10.896
 5862W        W10062   6.057   4.331   0.837
 5863W        W10063   6.646   1.289   0.422
 5864W        W10064   7.992   4.257  11.117
 5865W        W10065   8.684   5.856  10.541
 5866W        W10066   7.415   8.289  10.066
 5867W        W10067   8.941   8.075   9.896
 5868W        W10068   6.735  11.421   1.353
 5869W        W10069   1.620   6.169   9.528
 5870W        W10070   1.695   0.942  10.145
 5871W        W10071   1.648   2.504   3.567
 5872W        W10072   6.853   1.416   1.470
 5873W        W10073   5.225   2.157  11.850
 5874W        W10074  11.357   0.404  11.730
 5875W        W10075   2.233   9.014   2.004
 5876W        W10076   8.924   8.519   2.194
 5877W        W10077   3.905   7.026   3.253
 5878W        W10078  10.834   5.876   3.611
 5879W        W10079   2.501   7.061  10.500
 5880W        W10080  10.472   5.641   1.407
 5881W        W10081   3.205   5.621  11.527
 5882W        W10082   7.944   6.996   9.575
 5883W        W10083   6.684   0.335   3.044
 5884W        W10084   9.367   3.203   8.500
 5885W        W10085   4.701   7.063   9.029
 5886W        W10086   5.116   7.161  11.002
 5887W        W10087   8.327   4.817   2.172
 5888W        W10088  11.327   4.798   0.294
 5889W        W10089   2.349   8.662   2.920
 5890W        W10090   6.469   8.014   8.673
 5891W        W10091  11.042   2.831   1.849
 5892W        W10092   6.529   8.477   9.898
 5893W        W10093   5.556   3.276   9.811
 5894W        W10094  10.462   5.541  11.024
 5895W        W10095  10.273   0.289   1.343
 5896W        W10096   3.423  10.191   0.644
 5897W        W10097   4.915   1.153  10.518
 5898W        W10098   2.661  10.981  11.257
 5899W        W10099   7.536  10.173  11.920
 5900W        W10100   2.108   6.660   0.358
 5901W        W10101  10.417   1.053   9.699
 5902W        W10102   7.330   8.334   1.412
 5903W        W10103   2.550   8.875  10.351
 5904W        W10104   2.693   5.818   1.614
 5905W        W10105   7.519   9.568   2.815
 5906W        W10106   8.639   3.281   2.654
 5907W        W10107   6.488  11.396   2.843
 5908W        W10108   5.303   4.771   9.421
 5909W        W10109   1.678   9.755  10.099
 5910W        W10110   0.259   7.617   2.753
 5911W        W10111   2.879  10.451   1.395
 5912W        W10112  10.402   3.812   1.215
 5913W        W10113   6.214   8.167   9.087
 5914W        W10114   9.505   0.216   0.594
 5915W        W10115   6.012   7.153   1.703
 5916W        W10116   4.476  10.502  10.592
 5917W        W10117   0.375  11.024   8.961
 5918W        W10118  11.082   1.853   0.795
 5919W        W10119   3.382   9.775   0.947
 5920W        W10120   5.422   1.054  10.433
 5921W        W10121   6.564   9.516   1.648
 5922W        W10122   6.229   1.868   8.413
 5923W        W10123   0.294   8.485   8.804
 5924W        W10124   1.665   3.138  11.943
 5925W        W10125   9.040   8.538   3.249
 5926W        W10126   4.670   8.752   9.787
 5927W        W10127   9.291   2.833   8.927
 5928W        W10128   7.250  11.470   1.330
 5929W        W10129   6.312   8.820   0.024
 5930W        W10130   9.458   6.136   8.738
 5931W        W10131  10.006   4.569   1.788
 5932W        W10132   1.749   1.987   3.555
 5933W        W10133   1.049   2.306   3.585
 5934W        W10134  11.267   9.464  10.521
 5935W        W10135   2.616   1.097   8.787
 5936W        W10136  10.883   4.731   9.965
 5937W        W10137   2.128   6.804  10.756
 5938W        W10138   7.130   7.963  11.948
 5939W        W10139   1.438  10.897  10.740
 5940W        W10140   9.259   7.491  11.923
 5941W        W10141   4.223   8.465   1.838
 5942W        W10142  10.008   5.777   1.218
 5943W        W10143   4.485  10.695   2.292
 5944W        W10144  10.075   2.653  11.969
 5945W        W10145   2.762   8.494   2.022
 5946W        W10146  10.512   4.551  10.293
 5947W        W10147   7.404   9.873  10.993
 5948W        W10148   4.221  11.170   2.277
 5949W        W10149   8.226   8.585   0.825
 5950W        W10150   8.970   6.770   0.495
 5951W        W10151   6.709   1.867   9.805
 5952W        W10152   1.607   0.672   0.426
 5953W        W10153   9.159   6.729   2.679
 5954W        W10154   8.998   7.392   0.808
 5955W        W10155   7.116   5.566   9.963
 5956W        W10156   2.644   9.947   1.346
 5957W        W10157  11.315   0.673   0.163
 5958W        W10158   7.124   2.535   0.256
 5959W        W10159   5.305   5.233   1.496
 5960W        W10160   5.219   0.219  10.181
 5961W        W10161  11.017   8.881   2.274
 5962W        W10162   0.683   9.248   8.862
 5963W        W10163   7.489   1.839   2.473
 5964W        W10164  10.986   5.982   8.972
 5965W        W10165   2.641  11.468   2.769
 5966W        W10166   0.693   4.123  11.531
 5967W        W10167   8.901   5.576  11.035
 5968W        W10168  11.178   7.217  11.486
 5969W        W10169   5.788   6.972  10.054
 5970W        W10170   9.198   2.338   3.497
 5971W        W10171   1.790  11.288   2.311
 5972W        W10172   6.933   2.231  10.084
 5973W        W10173  10.430   7.513   8.868
 5974W        W10174   0.893   0.216   1.652
 5975W        W10175   8.602   8.986  11.477
 5976W        W10176   1.421   9.826   2.003
 5977W        W10177   4.262   4.336   2.830
 5978W        W10178  10.062   5.076   1.947
 5979W        W10179  10.401  11.082  11.609
 5980W        W10180  10.612   3.164   2.882
 5981W        W10181  10.976   7.677  10.796
 5982W        W10182   7.031   7.134  11.047
 5983W        W10183   9.355   9.526  11.695
 5984W        W10184  10.597   8.002   0.901
 5985W        W10185   5.047   5.232  10.958
 5986W        W10186   1.594   1.953   2.653
 5987W        W10187   1.454   4.504   1.091
 5988W        W10188   9.246   7.061  11.522
 5989W        W10189   0.192   9.434   2.612
 5990W        W10190   1.065   6.687   0.312
 5991W        W10191  11.425   1.502  11.559
 5992W        W10192   6.244   8.967   9.356
 5993W        W10193   3.817  10.820   2.307
 5994W        W10194   6.151   5.700  11.750
 5995W        W10195   5.548   1.856   2.674
 5996W        W10196   2.505   8.969   9.474
 5997W        W10197  10.037  10.952   0.456
 5998W        W10198  10.010   8.553   3.442
 5999W        W10199   6.912   7.072   3.625
 6000W        W10200   4.186  10.015  10.275
 6001W        W10201   3.317  10.349  11.311
 6002W        W10202   3.019   6.225   1.607
 6003W        W10203   2.743   0.415   3.007
 6004W        W10204   6.144  11.006  11.932
 6005W        W10205   7.997   6.106   2.007
 6006W        W10206   4.536   4.310  11.384
 6007W        W10207   5.042   0.185   0.747
 6008W        W10208   4.056   9.698  11.064
 6009W        W10209   9.960   8.549   2.942
 6010W        W10210   5.127   3.592   3.191
 6011W        W10211  10.447   1.943  10.052
 6012W        W10212   2.723   5.490   3.575
 6013W        W10213   7.664   9.860  10.520
 6014W        W10214   8.266   5.580   1.209
 6015W        W10215   3.880   0.777  11.747
 6016W        W10216   1.043   7.063   3.631
 6017W        W10217   2.346   7.946   3.252
 6018W        W10218   0.516   7.934   3.580
 6019W        W10219   7.926   1.432   9.746
 6020W        W10220   1.330   2.538   8.819
 6021W        W10221   8.264   8.069  10.550
 6022W        W10222  10.841   0.989   2.226
 6023W        W10223   0.508   1.903   1.006
 6024W        W10224   9.381   9.623   9.414
 6025W        W10225   7.932   5.177   2.274
 6026W        W10226   8.798   4.599   2.267
 6027W        W10227   5.127   3.705   0.200
 6028W        W10228   9.281   7.130   2.358
 6029W        W10229   8.361   0.452   9.429
 6030W        W10230   7.899  11.252   0.765
 6031W        W10231   1.003   7.305  10.933
 6032W        W10232   8.965   5.202   9.830
 6033W        W10233   6.517  10.262   0.316
 6034W        W10234   6.992   3.606   2.689
 6035W        W10235   6.208  11.430   1.914
 6036W        W10236   6.079   9.497   3.535
 6037W        W10237   1.485   8.866   3.616
 6038W        W10238   5.538   9.517   0.768
 6039W        W10239  11.010   3.218   9.113
 6040W        W10240   0.725   6.528   3.501
 6041W        W10241   0.009   5.351  11.229
 6042W        W10242   2.720   4.023   2.510
 6043W        W10243   9.778   3.088   0.021
 6044W        W10244   7.094   4.446  10.842
 6045W        W10245   3.811   6.976   0.625
 6046W        W10246   7.385   6.638   2.246
 6047W        W10247  11.032  10.961   9.526
 6048W        W10248   6.988   8.633  11.552
 6049W        W10249   4.645   7.218   1.045
 6050W        W10250   1.722   0.300   2.158
 6051W        W10251   5.505   4.553   9.837
 6052W        W10252  10.408   3.049  11.086
 6053W        W10253  10.188   7.043   1.404
 6054W        W10254   2.435   8.637   9.878
 6055W        W10255   8.434   0.311  10.988
 6056W        W10256  10.969   5.394   3.481
 6057W        W10257  10.592   1.402   2.413
 6058W        W10258   9.593   8.232   0.882
 6059W        W10259   3.670   9.481  11.331
 6060W        W10260   6.592   0.338  10.559
 6061W        W10261   3.643   5.761   9.922
 6062W        W10262   6.982   1.754  11.763
 6063W        W10263   9.854   8.145  10.330
 6064W        W10264  10.375   3.991   2.572
 6065W        W10265   8.249   2.183   2.773
 6066W        W10266  10.221   2.182  11.404
 6067W        W10267   2.405  10.492   3.125
 6068W        W10268   3.772   9.806  10.077
 6069W        W10269   8.638   0.955   8.600
 6070W        W10270   2.603   4.873   1.797
 6071W        W10271   6.054   3.256   2.863
 6072W        W10272   2.687   3.389   9.411
 6073W        W10273  10.021   7.680  10.622
 6074W        W10274   6.913   5.868  10.914
 6075W        W10275   5.924  10.813   2.230
 6076W        W10276   4.493   7.657   1.282
 6077W        W10277   9.616  11.063   1.420
 6078W        W10278   5.928   5.035   2.227
 6079W        W10279   9.922   2.204   9.341
 6080W        W10280   4.548   4.464   4.051
 6081W        W10281   9.075   8.233   0.964
 6082W        W10282   6.096   8.534  10.747
 6083W        W10283  10.177  10.376   2.127
 6084W        W10284   6.267   8.488   8.674
 6085W        W10285   7.687   3.490   1.179
 6086W        W10286   1.836   1.729   2.240
 6087W        W10287   3.125  11.344   9.602
 6088W        W10288   8.957   0.669  11.693
 6089W        W10289   0.785   9.272   9.851
 6090W        W10290   9.348   4.744   0.817
 6091W        W10291   2.208   5.737   1.453
 6092W        W10292   0.756   4.303   9.085
 6093W        W10293   8.913   3.917   9.005
 6094W        W10294   0.286   9.775   0.436
 6095W        W10295   1.870   7.746   8.665
 6096W        W10296   4.886   8.910   1.027
 6097W        W10297  10.892   5.052   9.543
 6098W        W10298   7.389   9.649   9.279
 6099W        W10299   4.265   9.470   2.510
 6100W        W10300  11.086   4.311   1.032
 6101W        W10301   0.894   4.180   2.185
 6102W        W10302   5.782   6.161  10.227
 6103W        W10303   3.458   9.511   9.822
 6104W        W10304   9.949   1.713   1.545
 6105W        W10305   9.493   5.373   0.166
 6106W        W10306   2.841   5.734   0.711
 6107W        W10307   6.988   4.727  11.655
 6108W        W10308   8.772   8.578   1.720
 6109W        W10309   3.901   9.829   0.877
 6110W        W10310   9.563   3.747  11.350
 6111W        W10311   3.667   0.245  10.523
 6112W        W10312   4.637   7.004  11.032
 6113W        W10313   7.825   0.868  11.237
 6114W        W10314   8.489  11.280  10.042
 6115W        W10315   2.788  10.630   0.177
 6116W        W10316   8.967   2.827  10.605
 6117W        W10317   4.435  10.926   3.409
 6118W        W10318  10.333  10.652  11.316
 6119W        W10319   3.740   8.080   0.330
 6120W        W10320   2.852   8.184  11.485
 6121W        W10321   4.726   3.309  10.541
 6122W        W10322   1.163   8.962   9.740
 6123W        W10323  10.115   1.452  11.349
 6124W        W10324   6.247   1.361   9.477
 6125W        W10325   0.477   7.843  10.417
 6126W        W10326   3.118   8.902   0.444
 6127W        W10327   3.344   0.433   0.507
 6128W        W10328   5.198   8.154   9.410
 6129W        W10329  11.204   2.796   9.353
 6130W        W10330   9.342  10.520   2.316
 6131W        W10331   9.002  10.489   3.351
 6132W        W10332   0.351   8.856  11.375
 6133W        W10333   2.172   2.391   9.528
 6134W        W10334   8.034   0.375   1.479
 6135W        W10335   9.704  11.451   9.428
 6136W        W10336   1.697   4.807  11.540
 6137W        W10337   1.967  10.550   1.772
 6138W        W10338   8.138   8.912   0.336
 6139W        W10339   6.266   6.737   1.857
 6140W        W10340   4.217   4.627  11.763
 6141W        W10341   7.097   8.937   0.589
 6142W        W10342   4.205   2.746   3.604
 6143W        W10343   2.996   3.732   3.655
 6144W        W10344   3.721   8.850   9.208
 6145W        W10345   6.437   0.463   0.206
 6146W        W10346   6.147  11.267   2.392
 6147W        W10347   5.180   6.600   0.675
 6148W        W10348   5.161  11.032   2.735
 6149W        W10349   2.731   0.194  10.439
 6150W        W10350   7.708  10.770   2.167
 6151W        W10351   8.137  11.031   1.423
 6152W        W10352   5.456   8.051  10.743
 6153W        W10353  10.291   1.300   0.701
 6154W        W10354   5.589   8.552   3.779
 6155W        W10355   9.529   2.521   0.602
 6156W        W10356   5.180   4.466   2.850
 6157W        W10357   0.909   3.165   3.611
 6158W        W10358   2.357  11.145   0.975
 6159W        W10359   3.646   6.906  10.658
 6160W        W10360   6.617   5.641  10.089
 6161W        W10361   6.440   2.398  11.449
 6162W        W10362   1.992   8.445  10.885
 6163W        W10363   1.192   9.441   9.505
 6164W        W10364   6.298   7.181   0.440
 6165W        W10365   8.824   1.683   0.171
 6166W        W10366   9.780   2.831   2.346
 6167W        W10367   4.025   4.624   1.395
 6168W        W10368   5.503  10.048   2.977
 6169W        W10369   6.315  10.298   8.988
 6170W        W10370   7.039  10.973   9.042
 6171W        W10371   5.741   2.840   2.886
 6172W        W10372   1.160   1.676  11.743
 6173W        W10373  11.483   9.104  11.953
 6174W        W10374   7.879   5.466  11.894
 6175W        W10375   5.635   7.165  11.083
 6176W        W10376   4.291   2.046   8.800
 6177W        W10377   6.169   6.461   1.451
 6178W        W10378   3.288   9.960   2.809
 6179W        W10379   0.721   1.145   0.192
 6180W        W10380   0.285  10.057   9.042
 6181W        W10381   7.164   9.984   9.596
 6182W        W10382  10.916   6.235   2.497
 6183W        W10383   6.632  10.353   2.204
 6184W        W10384  10.832   3.426   9.610
 6185W        W10385   7.937   1.322  10.255
 6186W        W10386   9.823   4.225   9.809
 6187W        W10387   7.301   0.722   2.296
 6188W        W10388   0.956   8.016   2.538
 6189W        W10389  10.391   9.910   9.975
 6190W        W10390   3.733   6.486   0.359
 6191W        W10391   5.372   5.508   2.747
 6192W        W10392   1.856   4.096   1.358
 6193W        W10393   9.103  10.741   8.959
 6194W        W10394  10.122   1.717   9.079
 6195W        W10395  10.282   0.746   3.294
 6196W        W10396   1.340   6.588  11.347
 6197W        W10397   6.516   1.753   9.285
 6198W        W10398   9.362   0.483   8.729
 6199W        W10399   6.617  10.540   9.664
 6200W        W10400   1.784   8.522  10.419
 6201W        W10401   6.567   4.197   0.252
 6202W        W10402   0.726   4.561   3.428
 6203W        W10403   9.319   4.156   0.008
 6204W        W10404   6.707   9.449   1.165
 6205W        W10405   9.937  10.593   1.742
 6206W        W10406   2.125   7.606   0.250
 6207W        W10407   8.879   1.017   2.883
 6208W        W10408   8.519  10.408   3.161
 6209W        W10409   6.972  11.443  11.872
 6210W        W10410   3.389   9.909   1.777
 6211W        W10411   6.204   8.587   0.851
 6212W        W10412  11.206   7.919  10.363
 6213W        W10413  11.242   0.857   3.077
 6214W        W10414   7.726   0.756  10.022
 6215W        W10415   8.141   5.421   0.747
 6216W        W10416   9.063   5.684   1.126
 6217W        W10417   6.148   7.549   3.597
 6218W        W10418   8.840   1.399   0.895
 6219W        W10419   5.972  11.343  10.373
 6220W        W10420   5.957   8.087   8.624
 6221W        W10421   8.474   7.417   2.344
 6222W        W10422   4.581   0.059  11.998
 6223W        W10423  10.003   3.309   2.270
 6224W        W10424   8.712   8.397   9.581
 6225W        W10425  11.339   3.196   2.140
 6226W        W10426   0.699   1.653   0.017
 6227W        W10427   4.888   2.296   0.624
 6228W        W10428   9.333   8.333   3.642
 6229W        W10429  10.285   2.682  11.450
 6230W        W10430  10.578   8.105   9.165
 6231W        W10431   8.576   8.794   3.257
 6232W        W10432   0.927  10.301  11.855
 6233W        W10433   8.168   5.959  10.491
 6234W        W10434   2.093  10.056   3.667
 6235W        W10435   3.595   7.223   0.092
 6236W        W10436   4.748   9.914  11.433
 6237W        W10437   0.362  10.304  10.495
 6238W        W10438   9.290   0.594  10.962
 6239W        W10439   5.046   1.822   2.783
 6240W        W10440   2.001  10.229   0.737
 6241W        W10441   0.993   6.063  10.795
 6242W        W10442   4.896   7.522   3.067
 6243W        W10443   5.458   0.464   3.216
 6244W        W10444   7.922   0.487  10.882
 6245W        W10445   4.563   3.208   1.690
 6246W        W10446   2.272   6.727   1.791
 6247W        W10447   9.337   1.440   0.025
 6248W        W10448   3.791   0.326   1.914
 6249W        W10449   7.487   3.568  10.006
 6250W        W10450   4.552   7.509  11.805
 6251W        W10451   4.602   3.887  10.037
 6252W        W10452   5.756   5.661   9.542
 6253W        W10453   8.906  10.278  11.498
 6254W        W10454   5.470   1.371  11.508
 6255W        W10455   5.209   0.480   9.754
 6256W        W10456  11.454   6.888   2.654
 6257W        W10457   1.923   8.108  11.306
 6258W        W10458   5.985   5.331   0.752
 6259W        W10459  10.886   7.297  10.489
 6260W        W10460   5.676   8.066   1.530
 6261W        W10461   0.871  11.008   2.761
 6262W        W10462   0.812   6.379  11.989
 6263W        W10463   1.322  11.241   2.669
 6264W        W10464   7.285   6.898   1.445
 6265W        W10465   4.741   9.325  11.205
 6266W        W10466   8.909   9.018   2.051
 6267W        W10467   8.592   4.567   0.409
 6268W        W10468   8.893   4.234   1.684
 6269W        W10469   7.854   3.543   3.650
 6270W        W10470   5.618   8.039   0.988
 6271W        W10471   0.890   9.668  11.015
 6272W        W10472   9.932  11.470   2.172
 6273W        W10473   1.809   0.405   3.141
 6274W        W10474   9.064   6.231  11.142
 6275W        W10475   9.896  10.462  10.598
 6276W        W10476   7.839   5.607   2.594
 6277W        W10477  11.328   6.514   2.295
 6278W        W10478   0.151   2.192  10.302
 6279W        W10479   3.530   4.256  11.501
 6280W        W10480  10.502   0.384  10.452
 6281W        W10481   9.677   0.723   1.655
 6282W        W10482   3.977   3.650   1.204
 6283W        W10483   2.602   6.185   0.752
 6284W        W10484  11.090   4.715  11.839
 6285W        W10485   1.649   4.813   0.513
 6286W        W10486   4.162  10.555  11.017
 6287W        W10487   1.647   1.822   8.523
 6288W        W10488   3.677   8.354   9.417
 6289W        W10489   1.416  10.734   2.529
 6290W        W10490   4.284  10.339   9.594
 6291W        W10491   7.290   3.690   3.162
 6292W        W10492   1.207   4.559   0.630
 6293W        W10493   7.598  10.356  11.441
 6294W        W10494   8.992   9.821   9.119
 6295W        W10495   3.308   2.112   0.857
 6296W        W10496   4.196   2.005   2.229
 6297W        W10497   3.382   1.801  10.797
 6298W        W10498   1.375   8.051   2.263
 6299W        W10499   3.104   4.273   9.115
 6300W        W10500   7.144   3.048   1.920
 6301W        W10501   2.685   9.093   2.837
 6302W        W10502   7.665   3.656   9.501
 6303W        W10503  11.010  10.968   3.121
 6304W        W10504   7.719   0.394  10.400
 6305W        W10505   2.326   4.361   2.636
 6306W        W10506   8.419   2.851   9.517
 6307W        W10507   3.379   4.445   8.506
 6308W        W10508   9.160   6.744   4.013
 6309W        W10509   6.696   2.833  10.056
 6310W        W10510   7.872   0.998   8.890
 6311W        W10511   3.868   6.476  10.450
 6312W        W10512   5.694   1.867   1.117
 6313W        W10513   9.555   1.851   9.256
 6314W        W10514   8.958  11.228   9.096
 6315W        W10515   1.437   0.738   3.003
 6316W        W10516   2.714   8.672  11.547
 6317W        W10517   6.854  10.084   3.129
 6318W        W10518   6.927   1.942   8.997
 6319W        W10519   3.680   9.382  10.330
 6320W        W10520   9.442   0.530   3.404
 6321W        W10521   5.050   4.633   8.172
 6322W        W10522  10.003   2.338   0.385
 6323W        W10523   2.148   4.609   1.892
 6324W        W10524   6.760   8.377   8.464
 6325W        W10525  10.636   6.072  10.270
 6326W        W10526   7.485   1.257  10.029
 6327W        W10527   4.113   1.899   9.619
 6328W        W10528   5.945   9.133   8.989
 6329W        W10529   1.367   3.621   8.984
 6330W        W10530   9.551   6.068  11.034
 6331W        W10531   1.087   4.513   2.582
 6332W        W10532   1.759   3.929   8.916
 6333W        W10533   1.917   2.111   1.383
 6334W        W10534   3.714   3.129  10.817
 6335W        W10535   5.655   1.006   0.847
 6336W        W10536   9.406   0.788  11.416
 6337W        W10537   5.429   7.112   1.440
 6338W        W10538   3.617   9.579  11.889
 6339W        W10539  10.419   7.118   3.250
 6340W        W10540   0.149   2.424   3.264
 6341W        W10541  10.389   4.064   3.097
 6342W        W10542   9.424   3.173   3.257
 6343W        W10543   0.918   4.051   2.678
 6344W        W10544   8.190   3.849   2.928
 6345W        W10545   7.903   7.993   0.113
 6346W        W10546   0.760   4.680   0.906
 6347W        W10547   8.160   2.381   9.331
 6348W        W10548   5.615   4.711   1.995
 6349W        W10549   3.899   8.957   0.963
 6350W        W10550   8.910   6.007   1.849
 6351W        W10551   6.705   0.896   9.809
 6352W        W10552   8.806   3.449  11.986
 6353W        W10553   6.571   2.589   0.927
 6354W        W10554   6.928   6.008   1.817
 6355W        W10555   9.532   8.637   9.439
 6356W        W10556   1.295  10.792   0.337
 6357W        W10557   3.730   8.378  10.788
 6358W        W10558   0.819   1.777   9.931
 6359W        W10559   1.799   9.368   0.358
 6360W        W10560   2.348   5.224  10.000
 6361W        W10561   9.346   1.697   0.882
 6362W        W10562   9.862   0.173   2.772
 6363W        W10563   9.443  11.039   9.245
 6364W        W10564   1.956   2.761   3.231
 6365W        W10565   9.319   1.084   1.706
 6366W        W10566  10.439   5.957   9.012
 6367W        W10567   3.083   1.119   9.698
 6368W        W10568   8.456   7.502   0.408
 6369W        W10569   5.582  10.167   3.475
 6370W        W10570   9.103   1.916   3.194
 6371W        W10571   9.417   3.293   9.839
 6372W        W10572   9.335   5.700  11.301
 6373W        W10573   0.542   7.014   3.501
 6374W        W10574  10.250   3.224   3.370
 6375W        W10575   3.640   3.129   9.891
 6376W        W10576   1.387   8.106   9.261
 6377W        W10577   0.446   9.783   2.879
 6378W        W10578   1.324   0.343   3.326
 6379W        W10579   6.619   7.126   2.733
 6380W        W10580   7.358   3.569  11.881
 6381W        W10581   7.647  11.059   0.319
 6382W        W10582   4.760   8.932   1.999
 6383W        W10583   4.249   4.378   3.622
 6384W        W10584   5.468   8.472   0.233
 6385W        W10585   1.758   2.219   9.813
 6386W        W10586   8.620   5.913   2.281
 6387W        W10587   1.204   9.939  10.247
 6388W        W10588   3.046   7.418   1.178
 6389W        W10589   9.822   2.848   1.383
 6390W        W10590   6.091   0.397   1.202
 6391W        W10591   4.341  11.324   1.330
 6392W        W10592   5.963   6.285   1.883
 6393W        W10593   0.818  10.484  11.392
 6394W        W10594   7.089   2.743   1.113
 6395W        W10595   5.326   4.173   8.298
 6396W        W10596   1.392  10.966   9.021
 6397W        W10597   4.613   9.206   8.900
 6398W        W10598   1.141   9.986   0.230
 6399W        W10599   4.920   3.349   0.913
 6400W        W10600  11.124   1.626   3.476
 6401W        W10601   4.909   2.829   9.490
 6402W        W10602  10.129   7.955   9.332
 6403W        W10603   5.213  10.098  11.336
 6404W        W10604   2.746   3.858  10.513
 6405W        W10605   7.179   3.008   2.436
 6406W        W10606   2.847   6.042   0.298
 6407W        W10607   9.478   5.627   8.932
 6408W        W10608   8.447   4.116   8.766
 6409W        W10609  11.011   2.293   0.487
 6410W        W10610   5.236   2.403   9.451
 6411W        W10611   2.156   9.048  10.037
 6412W        W10612   4.082  10.369   2.510
 6413W        W10613   0.429   6.973   0.216
 6414W        W10614   9.578   5.037   1.221
 6415W        W10615   3.337  10.420   1.644
 6416W        W10616   3.385   6.662   0.698
 6417W        W10617   3.278   1.588   0.649
 6418W        W10618   4.621   8.421  11.247
 6419W        W10619   7.965   2.839   9.241
 6420W        W10620  10.379   1.821   3.192
 6421W        W10621   3.675   1.257   0.808
 6422W        W10622   1.653   9.097   9.886
 6423W        W10623   4.586   5.241  10.187
 6424W        W10624   5.147   0.437  11.264
 6425W        W10625   8.147  10.751   1.889
 6426W        W10626   2.415   9.275  10.686
 6427W        W10627  10.435   3.988  11.415
 6428W        W10628   6.142   2.840   9.390
 6429W        W10629   1.357   7.549   0.678
 6430W        W10630   4.017   2.874   8.587
 6431W        W10631  10.113   3.813   0.470
 6432W        W10632  11.325   1.370  10.298
 6433W        W10633   8.010   7.000   0.206
 6434W        W10634   1.116   9.492  11.447
 6435W        W10635  11.352   9.791   2.427
 6436W        W10636   9.611  11.130  10.728
 6437W        W10637   4.181   8.151  11.439
 6438W        W10638   9.406   6.883   1.160
 6439W        W10639   4.750   5.751   1.817
 6440W        W10640   3.141  10.967  10.355
 6441W        W10641   7.174   2.917   0.627
 6442W        W10642   6.680   0.023   9.634
 6443W        W10643   7.142  10.484   0.942
 6444W        W10644   9.609   1.253   2.165
 6445W        W10645   3.807  11.280   0.440
 6446W        W10646   6.746   7.979   4.104
 6447W        W10647   1.260   9.389   1.738
 6448W        W10648   4.205   6.612   3.128
 6449W        W10649   9.532   8.719  11.324
 6450W        W10650   1.188   5.925   0.835
 6451W        W10651  11.484   0.470   2.186
 6452W        W10652   2.892   7.978   1.841
 6453W        W10653   4.746   4.439   8.570
 6454W        W10654  10.452   3.740  10.341
 6455W        W10655   6.064   4.568   8.890
 6456W        W10656   3.415   0.025   8.654
 6457W        W10657   0.925   5.092  10.802
 6458W        W10658   0.221  10.568  10.089
 6459W        W10659   9.187  10.810  10.713
 6460W        W10660   7.587   6.075   1.033
 6461W        W10661   9.512   9.126   3.413
 6462W        W10662   7.698   2.149  11.279
 6463W        W10663   0.452   9.101  11.814
 6464W        W10664  10.329   5.447  10.087
 6465W        W10665   8.856   3.311   2.162
 6466W        W10666   0.382   8.968   2.718
 6467W        W10667   9.172   3.297  10.717
 6468W        W10668   4.813   8.500   9.360
 6469W        W10669  11.243   4.744   2.898
 6470W        W10670   7.204  11.239   2.347
 6471W        W10671   6.099   4.046   0.389
 6472W        W10672   1.864   3.678   9.813
 6473W        W10673  11.239   8.635   2.679
 6474W        W10674   1.536   8.270  11.629
 6475W        W10675   7.860  11.434   8.910
 6476W        W10676   0.711   5.284   8.767
 6477W        W10677   3.787   9.308  10.844
 6478W        W10678   2.793   7.006   9.263
 6479W        W10679   8.058   5.956  11.923
 6480W        W10680   3.900   2.375  10.296
 6481W        W10681   8.405   1.314  10.004
 6482W        W10682   0.472  11.047   2.186
 6483W        W10683   0.860   2.348  11.173
 6484W        W10684   9.616   6.079   3.375
 6485W        W10685   2.718   5.202   3.039
 6486W        W10686   1.752   8.952   0.815
 6487W        W10687   7.005  10.716  11.255
 6488W        W10688  11.059   7.213   2.622
 6489W        W10689   9.837   5.468  10.341
 6490W        W10690   1.261   3.261   3.244
 6491W        W10691   7.546   2.839   0.263
 6492W        W10692   4.390   0.508  11.085
 6493W        W10693   0.894   9.998   2.704
 6494W        W10694  10.319   0.885   0.997
 6495W        W10695   5.573   6.895   9.518
 6496W        W10696   0.237   6.643   3.693
 6497W        W10697   6.421   8.101   2.444
 6498W        W10698   5.615   3.680   2.816
 6499W        W10699   5.272   3.126  10.208
 6500W        W10700   1.348   5.831   1.312
 6501W        W10701   8.390   7.925   9.502
 6502W        W10702   5.730   0.878   8.620
 6503W        W10703   7.445   0.013  10.700
 6504W        W10704   9.025   2.026  11.868
 6505W        W10705   8.829   9.912   1.550
 6506W        W10706   4.191   8.237  10.938
 6507W        W10707  10.047   8.638  10.208
 6508W        W10708   6.414   0.449   9.721
 6509W        W10709   5.072  11.013   2.230
 6510W        W10710   2.870   6.980   0.379
 6511W        W10711   1.826   1.763   9.527
 6512W        W10712   7.888   0.196   9.347
 6513W        W10713   9.308   1.718  10.896
 6514W        W10714   4.025  11.309   1.759
 6515W        W10715   0.473   0.579   0.963
 6516W        W10716  11.386   9.513   0.269
 6517W        W10717   2.207  10.995  11.892
 6518W        W10718  10.449   0.823  10.169
 6519W        W10719   8.786   9.490   8.772
 6520W        W10720   0.025   8.123   9.534
 6521W        W10721   9.599   1.670   0.434
 6522W        W10722   5.240   4.256   0.394
 6523W        W10723   0.652   5.009   0.045
 6524W        W10724   3.485   7.815  10.357
 6525W        W10725  10.099   6.984  11.748
 6526W        W10726   4.082  11.409  12.000
 6527W        W10727   4.174   0.342   1.028
 6528W        W10728   1.745   8.091  10.129
 6529W        W10729   7.552   8.862   3.426
 6530W        W10730  10.459   9.861   2.434
 6531W        W10731   6.110   7.156   2.204
 6532W        W10732  10.336   4.686   0.949
 6533W        W10733  10.476   5.135   1.200
 6534W        W10734   7.838   9.922   3.119
 6535W        W10735  11.475   7.127   1.736
 6536W        W10736   6.146  10.335   9.870
 6537W        W10737   7.627   0.249   3.229
 6538W        W10738   2.878   6.621   0.766
 6539W        W10739   2.784  10.406  11.218
 6540W        W10740   4.181   3.579   3.283
 6541W        W10741  10.482   8.449   1.678
 6542W        W10742   0.208   0.854   9.224
 6543W        W10743   5.566   8.806  11.438
 6544W        W10744   5.988   8.318   9.914
 6545W        W10745   7.356   2.099   0.412
 6546W        W10746   3.124   1.747   3.025
 6547W        W10747   1.425   5.313   1.814
 6548W        W10748   5.952   8.610   9.062
 6549W        W10749   0.328   1.819   0.532
 6550W        W10750   0.321   4.703   2.070
 6551W        W10751   1.690   9.869   3.394
 6552W        W10752   1.264   6.671   2.158
 6553W        W10753   0.536   4.410   2.476
 6554W        W10754   5.766   0.793   1.303
 6555W        W10755   1.576   6.136   2.918
 6556W        W10756   0.466   8.082   2.625
 6557W        W10757   9.014   7.210   1.322
 6558W        W10758   1.689  10.850   3.376
 6559W        W10759   9.766   5.644   8.495
 6560W        W10760   0.629   7.665   2.295
 6561W        W10761   6.243   7.919   3.246
 6562W        W10762   4.390   5.381   0.260
 6563W        W10763   4.928   5.202   0.015
 6564W        W10764   6.589   0.356   9.227
 6565W        W10765   0.851   6.813  10.849
 6566W        W10766   6.505   9.094   1.925
 6567W        W10767   2.712   2.036   9.984
 6568W        W10768   5.041   8.398   9.845
 6569W        W10769   9.293   3.293   0.022
 6570W        W10770   8.396   7.946   3.613
 6571W        W10771   1.224   6.802   1.116
 6572W        W10772   8.921   2.131  11.382
 6573W        W10773   8.520   3.984   1.259
 6574W        W10774  10.120   5.907  10.301
 6575W        W10775   1.729   1.032   2.647
 6576W        W10776   4.221   4.331  10.933
 6577W        W10777   6.011  11.447   0.902
 6578W        W10778   1.042   6.209  11.542
 6579W        W10779   8.938   6.644  11.499
 6580W        W10780   5.482   6.193   0.821
 6581W        W10781   0.828   0.494  11.331
 6582W        W10782   2.590   0.205   1.460
 6583W        W10783   6.877   2.537   9.027
 6584W        W10784   7.831   9.349   2.027
 6585W        W10785   9.517   7.910   2.695
 6586W        W10786   5.591   5.670   1.496
 6587W        W10787   4.178   8.299   0.468
 6588W        W10788   7.721   6.910   0.989
 6589W        W10789   1.264   1.816   3.593
 6590W        W10790   6.164   6.201  10.567
 6591W        W10791   9.465   1.923   1.351
 6592W        W10792   2.316   3.130   0.874
 6593W        W10793   2.235   9.117   1.515
 6594W        W10794   7.117   3.807   0.288
 6595W        W10795   4.094   4.299   9.052
 6596W        W10796   2.807   0.676  11.863
 6597W        W10797   4.257  10.439   3.057
 6598W        W10798   9.544   4.892  11.018
 6599W        W10799   8.988   9.467  10.927
 6600W        W10800  11.411   2.151   8.575
 6601W        W10801   8.037  11.481  10.865
 6602W        W10802   8.642   1.803  10.394
 6603W        W10803   4.731   8.486   1.761
 6604W        W10804   8.623   0.217   9.802
 6605W        W10805   4.091   5.124   9.020
 6606W        W10806   3.242   7.218   9.431
 6607W        W10807   3.722   7.286  11.594
 6608W        W10808   5.508   7.146   0.810
 6609W        W10809   4.951   1.397   1.266
 6610W        W10810   9.497   7.044   3.771
 6611W        W10811   0.946   0.029   3.524
 6612W        W10812   3.809   9.564   9.416
 6613W        W10813  11.325   0.187   1.193
 6614W        W10814   0.908   8.766  10.801
 6615W        W10815   1.475  10.394   9.488
 6616W        W10816   6.184  10.411   2.478
 6617W        W10817   9.408  11.059   0.023
 6618W        W10818   0.420   2.194   9.268
 6619W        W10819   7.375   3.358   0.397
 6620W        W10820   2.434   4.587   8.783
 6621W        W10821   9.918   7.237   0.969
 6622W        W10822   0.459   3.809   9.035
 6623W        W10823   9.543   3.795   9.827
 6624W        W10824   8.630   1.295   0.439
 6625W        W10825   0.301   9.054   9.830
 6626W        W10826   8.014  10.325  11.796
 6627W        W10827   6.214   7.877  10.016
 6628W        W10828   2.770   0.951   0.802
 6629W        W10829   2.890   4.440   1.843
 6630W        W10830   6.095  10.054  10.718
 6631W        W10831  10.461   1.698   1.650
 6632W        W10832   0.397  11.247   2.775
 6633W        W10833   2.126   6.434   2.179
 6634W        W10834   5.407   4.080   3.100
 6635W        W10835   3.116   0.810   0.254
 6636W        W10836   7.630  10.670   3.519
 6637W        W10837   4.555   7.105   0.116
 6638W        W10838  10.821   6.582   1.690
 6639W        W10839   2.454  10.760   8.699
 6640W        W10840   7.026   6.890   1.941
 6641W        W10841   0.304   1.935   2.365
 6642W        W10842   2.661   7.045   0.990
 6643W        W10843   1.544   6.182   8.720
 6644W        W10844   6.063   9.271  10.122
 6645W        W10845   6.123   0.819   0.919
 6646W        W10846   6.134  10.206   0.670
 6647W        W10847   3.659   7.884  10.915
 6648W        W10848   7.432   4.659  11.919
 6649W        W10849   9.785   0.547  10.923
 6650W        W10850   7.137   7.883   0.576
 6651W        W10851   1.425   3.069   8.855
 6652W        W10852  10.818   9.029   1.834
 6653W        W10853   8.578   8.895  10.949
 6654W        W10854   9.061   8.893  11.768
 6655W        W10855   1.746   6.732   2.317
 6656W        W10856   7.464  10.881  11.446
 6657W        W10857   1.782   3.856   1.817
 6658W        W10858   1.485   5.641   8.912
 6659W        W10859   5.477   8.120   3.504
 6660W        W10860   9.409   9.596   0.530
 6661W        W10861   0.839   1.951   0.594
 6662W        W10862   4.872   3.933  11.323
 6663W        W10863  10.164   4.324   2.215
 6664W        W10864   8.528   0.938  11.684
 6665W        W10865   2.198   4.599  10.488
 6666W        W10866   1.105   9.019  10.261
 6667W        W10867   7.960   2.720   0.920
 6668W        W10868   2.237  11.497  10.422
 6669W        W10869   7.070   1.436   9.115
 6670W        W10870   1.024   8.487   1.292
 6671W        W10871   7.426   0.705  10.937
 6672W        W10872   6.507   8.596   2.624
 6673W        W10873  10.249   4.126  10.092
 6674W        W10874   1.489   1.457   8.855
 6675W        W10875   2.263  10.701  11.417
 6676W        W10876   0.983   0.021  11.465
 6677W        W10877   1.247   8.124  10.026
 6678W        W10878   2.333   4.286   3.541
 6679W        W10879   1.638   6.575   1.295
 6680W        W10880   1.349   6.666   8.768
 6681W        W10881   9.269   2.433   1.790
 6682W        W10882   8.375   4.107   9.787
 6683W        W10883   5.028   5.273   9.917
 6684W        W10884   0.253   4.077   0.357
 6685W        W10885   4.147   1.880   0.863
 6686W        W10886   7.048   4.278   9.086
 6687W        W10887   2.365   6.647   0.830
 6688W        W10888   7.009   4.084  10.476
 6689W        W10889   8.882   2.645  11.464
 6690W        W10890   8.991   2.685  10.109
 6691W        W10891  10.501   3.553   0.259
 6692W        W10892   4.033   4.021  11.857
 6693W        W10893   9.861   5.564   2.148
 6694W        W10894   7.935   7.156  11.301
 6695W        W10895   8.240   8.213   4.029
 6696W        W10896   8.713   5.478   9.407
 6697W        W10897   7.552   9.181   0.561
 6698W        W10898   8.023   6.521   3.232
 6699W        W10899   5.443   8.131   8.613
 6700W        W10900   0.080   4.230   1.139
 6701W        W10901   1.209   2.195   0.914
 6702W        W10902   9.976   9.216   1.326
 6703W        W10903   1.370   8.992   2.418
 6704W        W10904   3.700   1.885   0.642
 6705W        W10905   5.101   8.599  11.358
 6706W        W10906  10.862  10.402   0.298
 6707W        W10907   6.169   7.119   9.051
 6708W        W10908   0.915   6.123   0.429
 6709W        W10909   6.205   8.480   3.175
 6710W        W10910  11.275   0.791   9.508
 6711W        W10911   0.932   0.808   1.124
 6712W        W10912   7.504   8.071   1.878
 6713W        W10913   7.625  10.031   8.987
 6714W        W10914   5.287   8.760   4.144
 6715W        W10915  11.179   0.457   3.407
 6716W        W10916   6.050   3.553   0.482
 6717W        W10917   5.236  10.474   1.562
 6718W        W10918   8.528  11.311   8.775
 6719W        W10919   6.700   3.241  11.159
 6720W        W10920  10.884   3.769  11.567
 6721W        W10921   9.803  10.140  10.225
 6722W        W10922   0.423   5.713   9.065
 6723W        W10923   8.596   9.288   1.309
 6724W        W10924   7.573   2.584   9.550
 6725W        W10925   0.782   4.139   1.673
 6726W        W10926   8.699   3.653  11.510
 6727W        W10927   3.967   7.738   2.672
 6728W        W10928   5.763  11.360  11.291
 6729W        W10929   7.092   7.369   0.373
 6730W        W10930   7.422   1.817   9.055
 6731W        W10931   8.826   0.206   9.291
 6732W        W10932   7.432   9.255   8.941
 6733W        W10933   4.233  10.836   2.715
 6734W        W10934  11.180   2.412   0.957
 6735W        W10935   3.064   2.245   3.200
 6736W        W10936  10.966   9.279   1.411
 6737W        W10937   1.404   3.780  11.990
 6738W        W10938   1.579   1.240   8.375
 6739W        W10939   2.797   0.218   9.419
 6740W        W10940   8.434   2.722   9.025
 6741W        W10941   7.034  10.775   9.907
 6742W        W10942   2.382   2.730   2.087
 6743W        W10943   9.113   1.948   1.744
 6744W        W10944   1.593   5.705   9.731
 6745W        W10945   2.019   8.072  10.559
 6746W        W10946   1.051   6.111  10.177
 6747W        W10947  11.175   4.043   3.470
 6748W        W10948   7.490   5.683  10.296
 6749W        W10949   7.883   6.103   2.923
 6750W        W10950   7.682   4.721   8.629
 6751W        W10951   9.433   9.057   1.341
 6752W        W10952   4.045   4.598   3.206
 6753W        W10953   3.184   6.697   9.463
 6754W        W10954   7.815   1.854   0.387
 6755W        W10955   9.292   3.732   0.688
 6756W        W10956  10.546   1.670  10.499
 6757W        W10957   4.143   4.777   1.903
 6758W        W10958   8.109  11.070   2.305
 6759W        W10959   4.568   2.130   3.041
 6760W        W10960   1.761  10.669   0.606
 6761W        W10961   2.008   2.769   0.008
 6762W        W10962  10.678   9.525   1.765
 6763W        W10963  10.866   5.490   9.113
 6764W        W10964   9.841   5.623   2.654
 6765W        W10965   2.821   4.666   8.035
 6766W        W10966  10.062   5.227   9.689
 6767W        W10967   4.339   7.321  10.062
 6768W        W10968   4.224   3.820   1.627
 6769W        W10969   7.946   2.689   1.941
 6770W        W10970   6.168   4.557   2.210
 6771W        W10971   2.886   4.885  10.381
 6772W        W10972   0.679   6.153   9.810
 6773W        W10973   5.225   8.181   0.662
 6774W        W10974   5.199   9.618   9.518
 6775W        W10975   3.758   4.148   9.697
 6776W        W10976  11.043   9.788  10.883
 6777W        W10977   7.043   6.789   2.857
 6778W        W10978   3.350   7.432   2.140
 6779W        W10979   3.745   5.740   0.968
 6780W        W10980   8.722   5.946   0.298
 6781W        W10981   0.270  10.305   0.509
 6782W        W10982   0.152   6.191  11.652
 6783W        W10983   1.657   7.597   9.531
 6784W        W10984   5.120   8.437  10.875
 6785W        W10985   7.513   5.720   0.684
 6786W        W10986  10.814   8.133  10.634
 6787W        W10987   5.667   2.895   0.927
 6788W        W10988  10.664   4.356   2.269
 6789W        W10989  11.046   1.366  11.159
 6790W        W10990   3.716   7.420  10.604
 6791W        W10991   1.318   1.955  10.757
 6792W        W10992   6.756  11.192  11.268
 6793W        W10993   4.128   1.217   9.945
 6794W        W10994   5.813   2.535   0.489
 6795W        W10995   0.014   0.332   2.706
 6796W        W10996   4.306  10.497   1.509
 6797W        W10997   6.966   7.579  10.313
 6798W        W10998   5.757   5.764   2.998
 6799W        W10999   6.801   1.649  10.357
 6800W        W11000   8.840  11.014  10.377
 6801W        W11001   8.434   9.047   0.896
 6802W        W11002  10.947   3.160   2.501
 6803W        W11003   1.842   3.148  11.449
 6804W        W11004   6.238  11.485   9.365
 6805W        W11005   0.888   5.450   0.244
 6806W        W11006   9.958   7.949  11.455
 6807W        W11007   9.686   5.622   3.137
 6808W        W11008   5.583   7.660  11.913
 6809W        W11009   5.182   9.642   2.904
 6810W        W11010   5.248   0.649   8.697
 6811W        W11011   4.091   8.982   9.568
 6812W        W11012   5.194   9.947   0.271
 6813W        W11013  10.782   6.140   1.450
 6814W        W11014   9.636   3.935   0.368
 6815W        W11015   9.892   5.789   1.705
 6816W        W11016   9.107   4.687   1.844
 6817W        W11017   5.386   3.303   3.548
 6818W        W11018   4.095   5.462   1.277
 6819W        W11019   1.753   2.713   9.063
 6820W        W11020   7.857   1.305   0.787
 6821W        W11021  11.075   0.239   2.420
 6822W        W11022   0.354  10.470   1.928
 6823W        W11023   2.083   8.909  10.542
 6824W        W11024   9.961   9.157  10.116
 6825W        W11025   0.870   8.203   3.019
 6826W        W11026   2.370   4.790   2.349
 6827W        W11027   6.950   5.336  11.031
 6828W        W11028   5.797   8.142   3.103
 6829W        W11029   1.832   4.312   2.761
 6830W        W11030   9.855   8.989  10.578
 6831W        W11031  10.912   2.326   1.402
 6832W        W11032   8.822   0.673  11.182
 6833W        W11033   2.226   6.223   8.891
 6834W        W11034   0.679   0.939   0.660
 6835W        W11035  10.043   3.241  10.291
 6836W        W11036   8.013   2.697   1.432
 6837W        W11037   0.132   9.319  11.328
 6838W        W11038   5.231   9.095   8.130
 6839W        W11039   6.196   2.824  10.794
 6840W        W11040   8.401   2.229  10.248
 6841W        W11041   8.418  11.474  11.954
 6842W        W11042   6.647  10.294   1.692
 6843W        W11043   6.473   7.612   9.553
 6844W        W11044   8.479   2.883   1.017
 6845W        W11045   7.432   1.417   2.735
 6846W        W11046   9.664   5.782  11.749
 6847W        W11047   3.166   3.830   1.577
 6848W        W11048   4.553   9.851  11.918
 6849W        W11049   2.279   4.399   1.325
 6850W        W11050   8.873   7.148  10.736
 6851W        W11051   5.374   1.441   9.711
 6852W        W11052   4.265   0.706   9.908
 6853W        W11053   6.110   0.887   2.945
 6854W        W11054   1.877   8.549   2.750
 6855W        W11055   7.039   1.333   3.085
 6856W        W11056   8.474   2.123   2.221
 6857W        W11057   7.249   6.704  10.824
 6858W        W11058  11.350  10.336   9.008
 6859W        W11059   4.382   2.325   0.724
 6860W        W11060   8.839   5.984   9.322
 6861W        W11061   1.445   3.671   9.487
 6862W        W11062  11.369   5.717   8.506
 6863W        W11063   7.448  10.004   0.906
 6864W        W11064  11.488   1.750   9.585
 6865W        W11065   1.665   5.638   2.148
 6866W        W11066   0.984   8.975   3.484
 6867W        W11067  11.342   1.249   9.297
 6868W        W11068  10.866   7.591  11.289
 6869W        W11069   0.708   5.727   9.498
 6870W        W11070   4.475   6.106  11.712
 6871W        W11071   9.318   1.175   0.876
 6872W        W11072   1.502   8.365  10.996
 6873W        W11073   1.306   1.207   3.146
 6874W        W11074   9.953  10.998   8.526
 6875W        W11075   0.803   7.470   8.967
 6876W        W11076   9.004   3.895   2.981
 6877W        W11077  10.465   3.550  11.752
 6878W        W11078   7.146   4.649   0.450
 6879W        W11079  10.849   6.652   2.179
 6880W        W11080   1.272  11.103   3.497
 6881W        W11081   8.405   4.908   1.339
 6882W        W11082   8.707   3.804   9.504
 6883W        W11083   1.830   1.785   9.022
 6884W        W11084   8.097  10.977   8.855
 6885W        W11085   7.879   9.582   9.177
 6886W        W11086   5.932   6.090   0.598
 6887W        W11087   9.354  10.160  10.464
 6888W        W11088   0.836   7.403   3.305
 6889W        W11089   2.816   8.859   9.099
 6890W        W11090   9.541   8.193  11.270
 6891W        W11091   1.200   7.567   1.531
 6892W        W11092   1.275   3.349  11.145
 6893W        W11093   6.146   8.682   1.358
 6894W        W11094   1.446  11.385   3.133
 6895W        W11095   8.703   0.493  10.310
 6896W        W11096  10.498   2.140   0.434
 6897W        W11097   9.448   5.907   1.493
 6898W        W11098  10.908   6.678  11.591
 6899W        W11099   1.746   3.186   9.381
 6900W        W11100   5.904  10.843  10.910
 6901W        W11101   2.161  10.322   2.202
 6902W        W11102   2.286   2.724  10.364
 6903W        W11103   8.498   9.805  10.817
 6904W        W11104   6.404   1.514  10.007
 6905W        W11105  11.445   0.873   1.656
 6906W        W11106   0.408   2.254  11.364
 6907W        W11107   8.138   1.280  11.134
 6908W        W11108   9.636   6.042   2.864
 6909W        W11109   7.039   2.791   3.610
 6910W        W11110   9.639   1.880  10.348
 6911W        W11111   1.872   7.083   0.505
 6912W        W11112   5.128   2.768   3.655
 6913W        W11113   4.852   6.146   9.763
 6914W        W11114   8.009   3.874   2.454
 6915W        W11115   4.652   1.152   9.905
 6916W        W11116   8.392   2.798  11.532
 6917W        W11117   2.780   5.794  11.234
 6918W        W11118   8.426   0.053   1.610
 6919W        W11119   3.818  11.414   1.298
 6920W        W11120  11.384  10.601   0.227
 6921W        W11121   5.824   0.695   0.471
 6922W        W11122   1.778   4.320  10.436
 6923W        W11123   5.087   4.786  10.713
 6924W        W11124  10.594   1.741   0.735
 6925W        W11125   3.584  11.203   0.880
 6926W        W11126   0.090   4.671  10.503
 6927W        W11127   6.227   9.629   1.262
 6928W        W11128  11.430   7.756   9.083
 6929W        W11129   4.544   6.500  10.967
 6930W        W11130   5.189  10.433   2.089
 6931W        W11131   1.477   7.600   2.556
 6932W        W11132   5.982   7.719   1.315
 6933W        W11133   7.335   5.871   0.236
 6934W        W11134   0.188   7.270   2.373
 6935W        W11135   6.139   7.026  11.070
 6936W        W11136   9.571   0.961  10.133
 6937W        W11137   9.919   9.676  10.064
 6938W        W11138   0.935   3.886   8.824
 6939W        W11139   0.748  10.762   9.318
 6940W        W11140   8.649   7.907   2.649
 6941W        W11141  11.168   9.649  11.356
 6942W        W11142   3.343   3.799  11.326
 6943W        W11143  10.430   2.639   0.338
 6944W        W11144   5.698   7.043   2.949
 6945W        W11145   7.250   2.280   2.378
 6946W        W11146   2.485   5.022   7.868
 6947W        W11147  10.014   2.351   2.404
 6948W        W11148   9.598   5.150   2.188
 6949W        W11149   5.246  10.985   1.286
 6950W        W11150   4.396   2.533   8.817
 6951W        W11151  11.484   4.412  11.995
 6952W        W11152   9.022   3.349   0.475
 6953W        W11153   7.552  10.814  10.080
 6954W        W11154   8.889   4.288   9.371
 6955W        W11155  10.293   3.209   1.869
 6956W        W11156   7.423   6.511   0.773
 6957W        W11157  11.044   5.778   1.221
 6958W        W11158   3.241   5.215  10.522
 6959W        W11159  10.710   5.520   2.679
 6960W        W11160  11.386   9.369   8.578
 6961W        W11161   5.213   4.196   0.914
 6962W        W11162   9.016   7.013   8.595
 6963W        W11163   7.434   4.795   0.850
 6964W        W11164   3.147   1.869  11.258
 6965W        W11165  11.043   5.186   2.483
 6966W        W11166   3.644   4.672   1.751
 6967W        W11167   0.742   2.369   0.938
 6968W        W11168   2.684   6.616   1.277
 6969W        W11169   2.281   3.524   3.064
 6970W        W11170   5.710   1.060   9.969
 6971W        W11171   9.554   8.153   2.237
 6972W        W11172   8.080   1.666  11.488
 6973W        W11173  10.422   8.406   9.932
 6974W        W11174   0.374   7.472   9.828
 6975W        W11175   7.223   8.467  10.541
 6976W        W11176  11.468   9.268   1.586
 6977W        W11177  10.502  11.427   8.943
 6978W        W11178   5.132   1.664  11.982
 6979W        W11179  10.843   2.491   3.301
 6980W        W11180   7.874  10.743   9.645
 6981W        W11181   7.427   5.311  11.255
 6982W        W11182   1.722   9.977  11.076
 6983W        W11183  10.484   3.616   2.187
 6984W        W11184  11.258   6.043   9.546
 6985W        W11185   4.199   4.077   2.167
 6986W        W11186   8.257   5.180   8.687
 6987W        W11187   3.265   5.810  11.042
 6988W        W11188   6.055  11.054   9.113
 6989W        W11189   7.345   6.252  11.512
 6990W        W11190   3.225   5.616   1.037
 6991W        W11191   0.708   1.810   1.481
 6992W        W11192   7.478   4.583   9.090
 6993W        W11193   1.149   0.800   3.482
 6994W        W11194   6.947   8.364   2.473
 6995W        W11195   5.626   9.134   9.864
 6996W        W11196   3.024   2.871  11.448
 6997W        W11197   8.615   8.316   8.638
 6998W        W11198   6.030   3.311  10.737
 6999W        W11199  11.478   9.841   9.759
 7000W        W11200   8.471   3.685   9.060
 7001W        W11201   2.338   0.774  11.353
 7002W        W11202   0.303  11.325  11.319
 7003W        W11203   5.347   2.637  10.316
 7004W        W11204   7.991   8.418   0.382
 7005W        W11205   8.854   8.099   3.423
 7006W        W11206  11.494   5.121  10.773
 7007W        W11207   0.528   7.044   9.515
 7008W        W11208   0.835   6.197   9.297
 7009W        W11209   9.358   2.216  10.620
 7010W        W11210   8.601  10.525   0.032
 7011W        W11211   4.181   5.678  10.790
 7012W        W11212   4.861   1.171   0.256
 7013W        W11213  10.956   8.354   3.490
 7014W        W11214   1.527   8.997   9.393
 7015W        W11215   6.109   4.445  10.455
 7016W        W11216  10.423  10.018   8.956
 7017W        W11217  10.437   9.977   1.399
 7018W        W11218   0.396   3.165  11.220
 7019W        W11219   7.634   0.889   1.151
 7020W        W11220   3.407   2.129   2.789
 7021W        W11221   0.601   1.825  10.444
 7022W        W11222   4.740   4.207   3.627
 7023W        W11223   3.091  11.439  11.878
 7024W        W11224   1.158   6.288   2.610
 7025W        W11225   4.724   6.735   8.635
 7026W        W11226   2.586   8.427   2.506
 7027W        W11227   2.350   5.515   9.566
 7028W        W11228   1.360   4.150   1.464
 7029W        W11229  11.459   4.841   8.759
 7030W        W11230   2.403   3.586   0.237
 7031W        W11231   7.060   3.769  10.868
 7032W        W11232   2.623   7.504   1.637
 7033W        W11233   4.596   2.255   1.627
 7034W        W11234   3.716   9.044   1.489
 7035W        W11235   3.938   8.550   9.812
 7036W        W11236  11.453   6.507   1.291
 7037W        W11237   6.975   0.278   1.680
 7038W        W11238   7.228   3.653   1.315
 7039W        W11239  11.059   1.764  10.501
 7040W        W11240   9.675   0.467  10.302
 7041W        W11241   5.454   4.830   3.306
 7042W        W11242   5.727   0.353   2.779
 7043W        W11243   4.139   7.772   0.380
 7044W        W11244   7.983   0.304   2.866
 7045W        W11245   9.379   8.690   0.941
 7046W        W11246   6.026   9.547   2.452
 7047W        W11247   9.254   7.199  10.367
 7048W        W11248   4.561  10.420   3.506
 7049W        W11249   3.072   1.272   2.384
 7050W        W11250  10.917   9.795   1.398
 7051W        W11251   8.455   7.460   3.416
 7052W        W11252  10.717   2.220   0.923
 7053W        W11253   8.130   1.433   0.367
 7054W        W11254   8.533  10.804   2.266
 7055W        W11255   0.207   9.456   3.175
 7056W        W11256   8.871   3.265   1.634
 7057W        W11257   5.968   2.473   1.642
 7058W        W11258   4.294   1.939  11.057
 7059W        W11259   6.709   6.613   0.234
 7060W        W11260   1.424   0.690   3.903
 7061W        W11261   2.531   5.305   0.751
 7062W        W11262   3.924   4.067   3.312
 7063W        W11263   3.843   3.558  10.511
 7064W        W11264   5.257  10.476   9.828
 7065W        W11265   0.704   9.985  11.384
 7066W        W11266   9.029  10.674  11.192
 7067W        W11267   7.941   7.500  11.694
 7068W        W11268   8.230   8.341  11.915
 7069W        W11269  10.860   1.967   3.188
 7070W        W11270  11.442   7.067  10.882
 7071W        W11271   4.300   8.925  11.883
 7072W        W11272   4.979  11.260  10.113
 7073W        W11273   5.216   0.442  10.740
 7074W        W11274   3.696   5.473   9.391
 7075W        W11275   6.865   8.151   1.526
 7076W        W11276   2.937   8.027   3.363
 7077W        W11277   1.848   9.910   2.320
 7078W        W11278   2.928   6.013   1.154
 7079W        W11279   1.882   1.356   1.839
 7080W        W11280   6.064   9.059  10.609
 7081W        W11281   6.068   1.775  11.990
 7082W        W11282   7.585   3.805   2.175
 7083W        W11283   7.569   2.641  10.054
 7084W        W11284   2.002   4.175   2.238
 7085W        W11285  11.020   3.303  11.421
 7086W        W11286  10.748  11.427  10.351
 7087W        W11287   2.599   6.527   0.344
 7088W        W11288  10.531   7.697  10.571
 7089W        W11289   2.281   3.619   0.734
 7090W        W11290   5.931   3.755   8.442
 7091W        W11291   5.273   2.133   0.925
 7092W        W11292   6.953   9.491   9.044
 7093W        W11293  10.575   3.720   9.264
 7094W        W11294   3.407   6.116   2.393
 7095W        W11295   7.229   6.388   0.247
 7096W        W11296   2.897   6.411  10.405
 7097W        W11297   2.675   6.553   3.185
 7098W        W11298   6.749   3.651   3.142
 7099W        W11299   5.147   4.172  10.027
 7100W        W11300   9.594   0.915  10.647
 7101W        W11301   9.018  10.329  10.821
 7102W        W11302   0.985   4.144   0.005
 7103W        W11303   8.020   6.093   3.514
 7104W        W11304   9.281   6.977   9.164
 7105W        W11305   9.483   0.535   2.569
 7106W        W11306   4.979   8.845   9.028
 7107W        W11307   3.267   0.908   0.734
 7108W        W11308   6.700   6.159  10.497
 7109W        W11309   5.714   9.426   1.224
 7110W        W11310   3.809  10.285  11.362
 7111W        W11311   2.558   0.453   2.534
 7112W        W11312   9.513  11.299  11.199
 7113W        W11313   9.581   5.098   3.175
 7114W        W11314   7.590   7.318   1.337
 7115W        W11315   6.584   9.011   1.417
 7116W        W11316   1.365   9.884   2.512
 7117W        W11317  11.370   9.061   9.561
 7118W        W11318   6.577   1.584   0.001
 7119W        W11319   0.353   9.950   2.399
 7120W        W11320   3.344   8.068  11.617
 7121W        W11321   2.760   5.546   9.173
 7122W        W11322  10.123   3.289   0.504
 7123W        W11323   3.516   4.836   3.125
 7124W        W11324   7.878   2.214   0.758
 7125W        W11325   2.227  11.494   8.853
 7126W        W11326   1.131   4.524   9.468
 7127W        W11327   1.860   1.297   9.792
 7128W        W11328   8.185   6.187  10.006
 7129W        W11329   4.103   8.673   1.382
 7130W        W11330   1.516   4.721   9.800
 7131W        W11331   6.108   4.113   9.633
 7132W        W11332   7.211   5.155   0.575
 7133W        W11333   9.906   7.300   3.314
 7134W        W11334   3.055   8.086   0.800
 7135W        W11335   8.480   8.492  11.268
 7136W        W11336   3.668   6.268   0.832
 7137W        W11337   8.372   6.987   2.833
 7138W        W11338  10.828   8.425   2.382
 7139W        W11339   0.486   7.892   1.653
 7140W        W11340  10.258   1.306  11.824
 7141W        W11341   5.284   2.824  11.095
 7142W        W11342  11.426   3.143   1.642
 7143W        W11343   7.606   7.397   9.139
 7144W        W11344   7.585  10.920   9.044
 7145W        W11345   4.640   1.870   1.962
 7146W        W11346   2.378  10.743  10.031
 7147W        W11347   2.874   6.251  11.447
 7148W        W11348  11.332   3.765  10.848
 7149W        W11349   8.509   2.563   3.034
 7150W        W11350   8.622   8.741   1.261
 7151W        W11351   5.633   8.568   2.809
 7152W        W11352   1.776   0.350  11.971
 7153W        W11353   2.355   7.423   2.307
 7154W        W11354   2.251   8.888  11.522
 7155W        W11355   5.674   7.045  10.572
 7156W        W11356   0.982   1.350  10.941
 7157W        W11357   0.329   8.967   3.255
 7158W        W11358   1.298   9.944   9.756
 7159W        W11359   2.176   9.874   0.360
 7160W        W11360  10.540   7.952   9.676
 7161W        W11361   2.646   2.646  10.762
 7162W        W11362   6.124   6.193   8.702
 7163W        W11363   0.040   2.355   2.312
 7164W        W11364  11.365   4.676   1.324
 7165W        W11365   9.892  11.293   8.980
 7166W        W11366   6.200   9.825   0.309
 7167W        W11367   6.070   6.992   9.556
 7168W        W11368   4.650   4.923   2.287
 7169W        W11369   7.954  11.142   9.327
 7170W        W11370   8.965   1.534  11.697
 7171W        W11371   5.266  10.537   2.908
 7172W        W11372   3.860   5.079   0.529
 7173W        W11373   3.045   0.032   3.238
 7174W        W11374   6.953   8.871   1.775
 7175W        W11375  10.435   2.899  10.245
 7176W        W11376   4.454   7.985  10.548
 7177W        W11377  10.918  10.824   8.646
 7178W        W11378   9.489   3.789   2.162
 7179W        W11379   0.123   3.294   3.177
 7180W        W11380   0.450   6.181   1.306
 7181W        W11381   4.319  10.945   9.827
 7182W        W11382   2.856   1.176  11.927
 7183W        W11383   7.344   9.918   3.223
 7184W        W11384   5.249   7.849   9.007
 7185W        W11385   6.711   8.576  10.557
 7186W        W11386   9.049  10.905   3.021
 7187W        W11387   2.168   9.512   3.343
 7188W        W11388  10.049   4.853   1.367
 7189W        W11389  10.468   8.062   2.452
 7190W        W11390   6.095   4.671  11.336
 7191W        W11391   6.554  10.014   9.832
 7192W        W11392   4.673   6.724   0.902
 7193W        W11393   3.118   1.840   3.517
 7194W        W11394   1.654   1.780  11.092
 7195W        W11395   3.781  10.265   2.986
 7196W        W11396   1.303   7.418  11.759
 7197W        W11397   3.916   6.056   2.330
 7198W        W11398   8.487   2.773   0.026
 7199W        W11399   9.038   9.410  10.402
 7200W        W11400   8.506   8.560   0.292
 7201W        W11401   0.271   8.544   9.322
 7202W        W11402   0.825   3.235   0.493
 7203W        W11403   9.094   2.648   9.603
 7204W        W11404   9.367   0.230   2.976
 7205W        W11405   6.500   9.461   9.890
 7206W        W11406   9.329   1.033   3.448
 7207W        W11407   7.014   8.456   0.424
 7208W        W11408   5.622   9.464   2.740
 7209W        W11409  11.398   8.033   3.512
 7210W        W11410   1.460   5.682  10.706
 7211W        W11411   6.987  11.496   2.733
 7212W        W11412   0.444  10.762   2.623
 7213W        W11413   8.718   2.306   3.400
 7214W        W11414  11.401   7.968  10.847
 7215W        W11415   9.139  11.174   1.187
 7216W        W11416   5.236   3.335   8.339
 7217W        W11417  10.395   4.513   9.806
 7218W        W11418   4.664   6.669   3.394
 7219W        W11419   8.511   7.281   0.883
 7220W        W11420   5.668   4.825   1.473
 7221W        W11421   2.819   2.112   1.394
 7222W        W11422   9.554   9.361   9.859
 7223W        W11423   3.282   0.449  11.920
 7224W        W11424   9.394   3.249   0.806
 7225W        W11425   7.784   3.126  10.077
 7226W        W11426   6.979   7.983   1.061
 7227W        W11427   9.472   0.708   0.748
 7228W        W11428   5.878  10.594   8.977
 7229W        W11429  10.734   4.155   1.403
 7230W        W11430   9.911   6.217   0.949
 7231W        W11431   5.327   4.920   1.096
 7232W        W11432   1.351   1.218  11.547
 7233W        W11433   9.819  10.363   2.515
 7234W        W11434   3.675   6.529  11.468
 7235W        W11435  10.158   4.279   1.349
 7236W        W11436   3.137   0.006   2.714
 7237W        W11437   0.677   9.428   9.359
 7238W        W11438   2.123  11.450  10.941
 7239W        W11439  10.418   1.364  10.098
 7240W        W11440   5.222   8.386  10.336
 7241W        W11441   6.177  10.842  10.079
 7242W        W11442   7.631  10.454   9.303
 7243W        W11443   0.449   9.081   1.720
 7244W        W11444  10.393   1.855   2.670
 7245W        W11445   8.518   1.997   8.485
 7246W        W11446   4.742   0.526  11.967
 7247W        W11447  10.297   9.473   2.122
 7248W        W11448   4.825   0.926   1.125
 7249W        W11449   8.469   3.222   0.290
 7250W        W11450   8.340   7.978   2.242
 7251W        W11451   0.688   8.606   3.260
 7252W        W11452   3.793   8.607   3.964
 7253W        W11453   5.915   4.991   3.103
 7254W        W11454   2.330   2.126   2.850
 7255W        W11455   5.264  10.828   0.152
 7256W        W11456  10.415   6.931   9.915
 7257W        W11457   3.233   6.523  11.730
 7258W        W11458   3.605   7.004   1.938
 7259W        W11459   6.463   5.241   0.922
 7260W        W11460   4.656   7.624   9.801
 7261W        W11461   2.022   2.737   0.876
 7262W        W11462   1.716   9.124   1.638
 7263W        W11463   5.148   4.322  10.987
 7264W        W11464   6.380   7.090   3.542
 7265W        W11465   0.485   7.177  10.803
 7266W        W11466   5.670   2.065   0.612
 7267W        W11467   5.486   8.927   9.039
 7268W        W11468   8.626   0.801   0.322
 7269W        W11469   0.830   6.761   0.820
 7270W        W11470   1.290   7.012   0.646
 7271W        W11471   9.679   8.149   9.461
 7272W        W11472   0.113   3.092   1.169
 7273W        W11473   2.760   1.671   2.247
 7274W        W11474   8.515   5.626   8.488
 7275W        W11475   8.581   8.454  10.670
 7276W        W11476   0.618   7.198   0.987
 7277W        W11477   2.121   9.725   9.815
 7278W        W11478   7.774   6.360  11.002
 7279W        W11479   5.160   0.037   1.239
 7280W        W11480   2.375   6.061   2.400
 7281W        W11481  10.037   9.489   3.000
 7282W        W11482   5.562   7.073   1.949
 7283W        W11483   3.630   6.916   9.331
 7284W        W11484   7.119   0.266   3.287
 7285W        W11485   4.743   2.238   9.034
 7286W        W11486   2.314   3.851   1.274
 7287W        W11487  10.963   3.781   1.033
 7288W        W11488   0.421   5.047   0.512
 7289W        W11489   4.101  10.653  11.514
 7290W        W11490   0.830   1.006  11.301
 7291W        W11491   6.357   2.557   8.171
 7292W        W11492   3.675   7.506   1.757
 7293W        W11493   0.926   5.217  11.324
 7294W        W11494   3.128  10.966   0.433
 7295W        W11495   4.339   4.970   0.579
 7296W        W11496   1.538  10.965   9.904
 7297W        W11497   3.919   2.814  11.597
 7298W        W11498   5.335   4.015  10.497
 7299W        W11499   6.669   4.733   2.170
 7300W        W11500   6.589   7.677   2.744
 7301W        W11501   9.005   6.682   9.937
 7302W        W11502   8.129  11.249  11.360
 7303W        W11503   7.577   3.227   3.323
 7304W        W11504   9.340   1.765   8.721
 7305W        W11505   3.057   0.938  10.608
 7306W        W11506   1.752   5.241   1.412
 7307W        W11507   8.780   5.353  11.613
 7308W        W11508   6.207   1.935   9.796
 7309W        W11509   2.904   7.872   9.031
 7310W        W11510   9.540   2.236   2.701
 7311W        W11511   8.553   6.391   8.162
 7312W        W11512   7.915   4.843   9.066
 7313W        W11513   4.737   8.479   2.292
 7314W        W11514   9.500   3.714   3.418
 7315W        W11515   0.369  10.082  10.004
 7316W        W11516   4.794   1.179   3.742
 7317W        W11517   6.418   2.897   2.762
 7318W        W11518   1.994   3.398   2.661
 7319W        W11519   1.440   7.945   1.764
 7320W        W11520   3.116   6.523   0.264
 7321W        W11521   4.259   0.554   1.971
 7322W        W11522   7.019   2.394   0.746
 7323W        W11523   1.686   8.433   0.570
 7324W        W11524   0.034   2.052   0.902
 7325W        W11525   5.581   2.716   3.887
 7326W        W11526   6.528   3.373  11.625
 7327W        W11527   5.597   4.612   8.250
 7328W        W11528   7.446   8.869   0.946
 7329W        W11529   0.415   9.624  11.940
 7330W        W11530   5.738   1.395   9.326
 7331W        W11531   5.559   2.361   9.857
 7332W        W11532   0.814   5.521  11.723
 7333W        W11533   3.603  10.885   0.201
 7334W        W11534   5.291   9.826  10.401
 7335W        W11535   8.866   9.367  11.914
 7336W        W11536  10.814   3.685   8.811
 7337W        W11537   4.259   7.708   2.266
 7338W        W11538   9.569   6.445   2.572
 7339W        W11539   4.472   8.461  11.726
 7340W        W11540   4.129   5.537   0.693
 7341W        W11541  11.346   8.978   0.992
 7342W        W11542   3.003   9.727   8.401
 7343W        W11543   4.178   1.804   3.213
 7344W        W11544  11.426   1.866   3.121
 7345W        W11545   0.490   3.632   0.475
 7346W        W11546   8.943   3.740   1.449
 7347W        W11547   0.881  10.518  10.539
 7348W        W11548   7.674   1.921  10.635
 7349W        W11549   3.121  11.022   0.962
 7350W        W11550   0.781   4.128   3.710
 7351W        W11551   1.710  11.337   9.579
 7352W        W11552   1.079   1.262   0.860
 7353W        W11553   4.490   4.671   8.947
 7354W        W11554   3.666   3.182   0.397
 7355W        W11555   8.159   7.525   9.729
 7356W        W11556   2.224  10.228  11.034
 7357W        W11557   1.915   3.790   0.256
 7358W        W11558  10.864   3.594  10.656
 7359W        W11559   3.549  10.767   3.308
 7360W        W11560   9.419   1.830   2.246
 7361W        W11561   3.290   0.627  10.022
 7362W        W11562  11.497  11.345   1.512
 7363W        W11563   2.282   2.744   0.439
 7364W        W11564  11.354   8.876  10.058
 7365W        W11565   4.720   5.938   4.050
 7366W        W11566   6.382  10.907  11.083
 7367W        W11567   6.640   5.698  11.509
 7368W        W11568   7.869   2.207   9.741
 7369W        W11569  11.093   3.692   9.247
 7370W        W11570  10.838   4.953   0.352
 7371W        W11571   2.287   9.366  11.715
 7372W        W11572   1.558   5.367   8.470
 7373W        W11573   0.894   9.530   2.949
 7374W        W11574   1.872   7.895   1.513
 7375W        W11575   1.817   5.686   1.132
 7376W        W11576   1.872   7.529   0.747
 7377W        W11577   3.831   3.548   2.661
 7378W        W11578   6.128   9.488   1.937
 7379W        W11579   7.653   4.560   3.757
 7380W        W11580   1.254   6.664   1.629
 7381W        W11581   9.850  10.489   0.304
 7382W        W11582   1.819   4.589   1.448
 7383W        W11583   1.633   5.662  11.188
 7384W        W11584   9.369  10.324   9.960
 7385W        W11585   2.737   5.541   1.187
 7386W        W11586   5.668   7.544   2.705
 7387W        W11587   0.976   4.199  10.562
 7388W        W11588   9.518   4.407   1.797
 7389W        W11589   2.642  10.269   9.556
 7390W        W11590   5.335   4.249   1.959
 7391W        W11591   0.462   1.716   1.941
 7392W        W11592   3.701   1.732   2.567
 7393W        W11593   0.870   0.750   1.665
 7394W        W11594   2.314   7.077   8.554
 7395W        W11595   8.355   5.275  11.942
 7396W        W11596  10.375   2.091   9.557
 7397W        W11597   1.170   5.834   2.885
 7398W        W11598   6.038   2.586   2.110
 7399W        W11599   3.561   5.172   8.991
 7400W        W11600   8.035   5.707   3.853
 7401W        W11601   2.379   6.078   3.319
 7402W        W11602  11.022   8.269   0.799
 7403W        W11603   4.436   0.335   3.233
 7404W        W11604   9.251   0.454   1.640
 7405W        W11605   5.607   4.046  10.958
 7406W        W11606   9.589   7.390   2.679
 7407W        W11607   0.036  10.250   9.475
 7408W        W11608   5.957  10.264   0.183
 7409W        W11609   2.779   9.996   2.668
 7410W        W11610   1.829   7.246   2.321
 7411W        W11611   1.427   8.638  10.060
 7412W        W11612   9.069   5.138   9.339
 7413W        W11613   4.067  10.768   9.406
 7414W        W11614   6.390   7.994   1.540
 7415W        W11615  10.380   4.690   0.386
 7416W        W11616   7.321   5.701   2.442
 7417W        W11617   3.274   8.212  10.608
 7418W        W11618   2.735   0.918   3.145
 7419W        W11619  10.718   9.400   3.086
 7420W        W11620   6.649   3.753  10.326
 7421W        W11621   3.239   6.961   8.988
 7422W        W11622   8.454   0.254   8.405
 7423W        W11623   3.749   2.775   0.677
 7424W        W11624   2.496  11.374   3.278
 7425W        W11625  11.140   7.935   9.846
 7426W        W11626   5.024   3.109   2.342
 7427W        W11627   6.750   9.799  10.446
 7428W        W11628   3.533   4.447   9.354
 7429W        W11629  11.096   8.795   1.428
 7430W        W11630   3.125  10.926   1.548
 7431W        W11631   6.986  11.143   9.516
 7432W        W11632   6.385   9.386   0.467
 7433W        W11633   8.358   9.981   1.741
 7434W        W11634   4.960   3.696  11.740
 7435W        W11635   7.661   1.773  10.112
 7436W        W11636   3.657  10.933   1.747
 7437W        W11637   0.316   4.291   8.817
 7438W        W11638   4.718   5.706   0.035
 7439W        W11639  10.763   0.805   9.406
 7440W        W11640   1.193  11.338   9.825
 7441W        W11641   2.387   8.905   2.470
 7442W        W11642  10.552   4.217   0.934
 7443W        W11643   0.163   2.198  11.823
 7444W        W11644   2.941   2.664   0.003
 7445W        W11645  10.708   5.231   8.545
 7446W        W11646   7.593   8.103  11.755
 7447W        W11647   0.584   5.111   1.861
 7448W        W11648   2.233   3.844  11.840
 7449W        W11649  10.304   0.987  11.420
 7450W        W11650  11.373  10.080  11.133
 7451W        W11651  10.487  11.358   3.360
 7452W        W11652   7.080   1.840   3.460
 7453W        W11653   3.012   2.130   2.228
 7454W        W11654   8.156   9.941   2.719
 7455W        W11655   3.245   9.619  10.271
 7456W        W11656  10.665   0.359   3.265
 7457W        W11657   3.284   4.120   0.840
 7458W        W11658   4.108   6.973   1.932
 7459W        W11659  11.039  10.715   9.982
 7460W        W11660   5.119   7.215  11.526
 7461W        W11661   8.115  10.844   3.270
 7462W        W11662   2.220   5.079   8.624
 7463W        W11663  10.785   0.356   8.516
 7464W        W11664   5.536   7.184   3.815
 7465W        W11665  10.406   5.460   8.889
 7466W        W11666   2.856   2.721   3.304
 7467W        W11667  10.741   9.279  11.612
 7468W        W11668  10.349   5.604   3.048
 7469W        W11669   8.126  10.270   9.603
 7470W        W11670   1.781  10.092   9.737
 7471W        W11671   5.539   4.587   3.790
 7472W        W11672   4.683   9.303  11.774
 7473W        W11673   7.605   4.771   2.172
 7474W        W11674   7.129   8.443   9.243
 7475W        W11675   1.087   4.862   3.653
 7476W        W11676   1.590   8.188   3.486
 7477W        W11677   4.041   7.604  11.879
 7478W        W11678   9.168   3.658  11.680
 7479W        W11679   5.631   0.345   9.488
 7480W        W11680   8.610   8.017  11.522
 7481W        W11681  11.319  10.026   1.165
 7482W        W11682  11.395   8.280   9.068
 7483W        W11683   3.378  10.392   1.115
 7484W        W11684   1.856   8.372   1.033
 7485W        W11685   1.211   9.065  11.145
 7486W        W11686   2.661   9.777   0.420
 7487W        W11687   5.039   5.325   2.357
 7488W        W11688   7.742   2.372   0.270
 7489W        W11689  10.318   9.128   1.739
 7490W        W11690   8.938  10.440   2.821
 7491W        W11691   1.084   4.395   8.692
 7492W        W11692   2.905   8.869   2.412
 7493W        W11693   1.712   1.413  11.893
 7494W        W11694   3.494   2.550   9.011
 7495W        W11695   7.175   8.790   2.254
 7496W        W11696   6.815   7.642   1.398
 7497W        W11697   2.680   0.312   3.520
 7498W        W11698   1.221   9.555   1.247
 7499W        W11699   7.818   8.581  10.002
 7500W        W11700   6.147   7.337   2.693
 7501W        W11701   2.634   0.718   0.356
 7502W        W11702   3.117   1.668   9.104
 7503W        W11703   8.039   4.724  11.295
 7504W        W11704   4.689   8.490   1.253
 7505W        W11705   5.113   6.091   1.948
 7506W        W11706   4.710   4.830   0.941
 7507W        W11707   1.220   0.744   9.435
 7508W        W11708   7.524   2.646   9.054
 7509W        W11709   6.565   9.027  10.731
 7510W        W11710   1.803   6.616   9.590
 7511W        W11711  10.452   0.202   0.459
 7512W        W11712   8.204   8.499  10.311
 7513W        W11713   4.499   5.255  11.741
 7514W        W11714   0.938   3.099   0.966
 7515W        W11715   9.992   6.799   0.706
 7516W        W11716   2.393   8.028   0.068
 7517W        W11717   0.733   5.698   2.001
 7518W        W11718   8.685   2.044   2.948
 7519W        W11719   5.035   4.390  11.491
 7520W        W11720   9.289   8.400   0.512
 7521W        W11721   8.883   2.293  10.441
 7522W        W11722   3.925   2.372   8.617
 7523W        W11723  10.973   5.245  10.032
 7524W        W11724   6.769   5.136  10.119
 7525W        W11725   9.050   2.535   0.455
 7526W        W11726   8.859   4.442   8.858
 7527W        W11727   3.207   8.413   1.759
 7528W        W11728   3.567   4.870   1.260
 7529W        W11729  10.551   3.738   0.727
 7530W        W11730   6.572   3.335  10.024
 7531W        W11731   0.958   4.781   9.037
 7532W        W11732   5.450   8.376  11.691
 7533W        W11733   1.930   3.669   9.316
 7534W        W11734   3.897   2.150  10.791
 7535W        W11735  10.422   1.170  10.566
 7536W        W11736   3.424   5.238   4.126
 7537W        W11737   6.172   2.738   3.170
 7538W        W11738   4.061   9.143  11.369
 7539W        W11739   6.012   4.782  10.833
 7540W        W11740   8.226   8.438   1.388
 7541W        W11741   9.323   1.808  11.458
 7542W        W11742   1.653   6.475   3.290
 7543W        W11743   8.134   7.343   9.259
 7544W        W11744   8.264   1.710   2.983
 7545W        W11745   8.561  10.864   2.845
 7546W        W11746   2.218   4.074   3.100
 7547W        W11747  11.438   9.603  11.773
 7548W        W11748   0.447   2.649   2.867
 7549W        W11749   6.182   5.050   1.329
 7550W        W11750   6.578   9.005   2.921
 7551W        W11751   7.690  11.457  11.526
 7552W        W11752   6.319   0.890   0.451
 7553W        W11753   0.863   8.935  11.526
 7554W        W11754   2.132   9.809  11.344
 7555W        W11755   5.018   7.404   0.049
 7556W        W11756  10.734  10.838   1.273
 7557W        W11757   3.977   7.958   9.169
 7558W        W11758   5.059   4.079   8.735
 7559W        W11759   9.082   3.313   8.932
 7560W        W11760   4.363   9.538   0.297
 7561W        W11761   2.376   6.703   8.998
 7562W        W11762   6.142   6.005   2.258
 7563W        W11763   6.219   4.499   3.046
 7564W        W11764   0.866   5.656   1.163
 7565W        W11765   0.371   9.558   9.956
 7566W        W11766   8.571   5.215   8.166
 7567W        W11767   3.331   2.486   2.416
 7568W        W11768  10.379   0.477   8.811
 7569W        W11769   8.576   3.678  11.021
 7570W        W11770  11.357   8.254  11.295
 7571W        W11771  10.168   0.256   3.197
 7572W        W11772   6.218   6.583  11.326
 7573W        W11773  10.809   3.288   1.878
 7574W        W11774   5.138   7.401  10.096
 7575W        W11775   0.488  10.843  10.430
 7576W        W11776   5.197   8.673   2.571
 7577W        W11777   9.971  11.420  10.965
 7578W        W11778   7.105   9.319   1.490
 7579W        W11779   9.181   8.253   9.442
 7580W        W11780   5.222   1.927   0.424
 7581W        W11781   4.213   4.550   2.372
 7582W        W11782   8.967   8.920  10.229
 7583W        W11783   0.654   2.394   3.269
 7584W        W11784   7.591   6.354   4.003
 7585W        W11785   9.014   6.479   7.872
 7586W        W11786   7.977   6.852  10.867
 7587W        W11787   2.793  11.295   1.245
 7588W        W11788   9.638   4.574   9.303
 7589W        W11789   6.909   7.602  10.823
 7590W        W11790   5.633   9.819  10.836
 7591W        W11791   0.387   6.566   9.686
 7592W        W11792   2.132   0.402   1.349
 7593W        W11793   3.017   2.334  10.635
 7594W        W11794  10.820  10.762  11.408
 7595W        W11795   1.241   7.837   2.943
 7596W        W11796   0.386   7.102   3.020
 7597W        W11797   5.041   8.837  10.544
 7598W        W11798   7.444   1.644   0.725
 7599W        W11799   5.602   0.249  11.010
 7600W        W11800   7.887   7.798   9.357
 7601W        W11801   6.440   9.687  10.867
 7602W        W11802   5.258   2.893   2.730
 7603W        W11803   5.193   6.158  10.464
 7604W        W11804   5.211   2.108   8.475
 7605W        W11805   1.449   0.229  11.252
 7606W        W11806   2.716   1.626   0.121
 7607W        W11807   0.897   6.882   3.134
 7608W        W11808   8.232   3.651   8.616
 7609W        W11809   0.902   9.068   1.989
 7610W        W11810   6.102  11.338  10.893
 7611W        W11811   5.626   9.457  10.289
 7612W        W11812   3.557   0.147  10.038
 7613W        W11813  11.199  10.507   2.814
 7614W        W11814   6.606   8.939   0.434
 7615W        W11815   0.332   4.183   9.365
 7616W        W11816   1.504   7.417  11.144
 7617W        W11817   8.513   2.821  11.003
 7618W        W11818   2.859   9.809   8.955
 7619W        W11819   4.820   2.469  10.443
 7620W        W11820   3.523   1.300  10.733
 7621W        W11821   4.819   7.654   0.829
 7622W        W11822   1.573   5.168   9.495
 7623W        W11823   3.482   5.453   8.535
 7624W        W11824  10.327   5.581   1.924
 7625W        W11825   2.752   5.715  11.750
 7626W        W11826   9.208   5.182   1.903
 7627W        W11827   2.707   3.615   8.933
 7628W        W11828   5.965  10.327   8.520
 7629W        W11829   6.683  10.130   9.368
 7630W        W11830   2.216   2.428   9.019
 7631W        W11831   6.330   8.208   8.224
 7632W        W11832   6.977   0.002  10.478
 7633W        W11833   8.661  10.807   9.946
 7634W        W11834   6.025   4.546   9.926
 7635W        W11835   5.652   2.711  11.495
 7636W        W11836   4.106  10.634   8.668
 7637W        W11837   5.775   3.219   3.868
 7638W        W11838   5.060   0.700  10.330
 7639W        W11839   2.666   4.549  10.695
 7640W        W11840  11.084  11.489  11.776
 7641W        W11841   7.452   1.260  11.840
 7642W        W11842   5.558   5.933  11.096
 7643W        W11843   1.804   6.403   0.023
 7644W        W11844   5.453  11.270  10.298
 7645W        W11845   2.958   8.403   8.358
 7646W        W11846   4.230   5.533  11.314
 7647W        W11847   4.770   7.470   2.260
 7648W        W11848   6.059   2.122  10.597
 7649W        W11849   9.288   8.158  10.267
 7650W        W11850   2.805   1.262   1.922
 7651W        W11851   8.891   1.133   0.004
 7652W        W11852   4.725   9.327  10.685
 7653W        W11853   0.919  11.280   1.945
 7654W        W11854   1.126   2.657   1.131
 7655W        W11855   8.213   6.080   1.231
 7656W        W11856   9.944   0.355   9.625
 7657W        W11857   0.277   6.976   9.983
 7658W        W11858   2.625   8.542   8.728
 7659W        W11859   2.691   5.045   8.376
 7660W        W11860   2.736   4.253   8.323
 7661W        W11861  11.389   4.807  10.066
 7662W        W11862   4.271   2.713  10.199
 7663W        W11863   5.047   4.443   9.090
 7664W        W11864   5.639   9.832   9.357
 7665W        W11865   5.846   3.607   1.435
 7666W        W11866   9.497  10.409   9.040
 7667W        W11867   6.236   5.660   2.639
 7668W        W11868  10.432   5.195   9.320
 7669W        W11869   9.290   7.448   8.514
 7670W        W11870  11.271   8.316   3.089
 7671W        W11871   0.011   6.035   1.087
 7672W        W11872  11.299   4.743   9.554
 7673W        W11873  11.320   1.851  10.063
 7674W        W11874   2.988   6.917  10.356
 7675W        W11875   6.846   7.129  11.532
 7676W        W11876   6.425   6.626   9.555
 7677W        W11877   5.161   2.361  11.315
 7678W        W11878   7.737   5.068  10.772
 7679W        W11879   6.736   3.657   1.274
 7680W        W11880   2.656   1.448   0.793
 7681W        W11881   2.817   2.596   2.313
 7682W        W11882   7.128  10.495   2.924
 7683W        W11883   9.777   9.430   9.088
 7684W        W11884  10.606   4.771  11.935
 7685W        W11885   7.581  10.368   3.112
 7686W        W11886   0.899   1.447   9.520
 7687W        W11887   3.675   3.913  10.150
 7688W        W11888  10.515   5.154   1.715
 7689W        W11889   0.686   9.558   2.478
 7690W        W11890   1.820   5.157   9.937
 7691W        W11891   3.836   3.280  11.350
 7692W        W11892   9.948  10.086   9.740
 7693W        W11893  10.309  11.427   1.817
 7694W        W11894   7.121   2.611  10.828
 7695W        W11895   4.782   9.504   9.250
 7696W        W11896   5.155   9.579  11.363
 7697W        W11897  10.006   2.115   2.928
 7698W        W11898   7.985   5.723  11.483
 7699W        W11899   9.951   4.912   0.062
 7700W        W11900   1.204  10.846  10.275
 7701W        W11901   7.664   0.475   0.725
 7702W        W11902   6.787   7.162   1.186
 7703W        W11903  10.276   0.767   9.264
 7704W        W11904   0.051   6.963  11.847
 7705W        W11905   6.516   4.543   0.642
 7706W        W11906   8.161  11.486   9.714
 7707W        W11907   0.691   3.018   2.374
 7708W        W11908   5.124   7.993   1.133
 7709W        W11909  10.344   0.909   2.386
 7710W        W11910   0.220   9.816  11.392
 7711W        W11911   8.467   9.496  11.636
 7712W        W11912   2.299   0.665   3.316
 7713W        W11913   2.321  10.495  11.949
 7714W        W11914   0.082   1.539   0.869
 7715W        W11915   2.318   8.371   1.237
 7716W        W11916   3.743   3.076   2.839
 7717W        W11917   4.424   9.433   3.641
 7718W        W11918   2.333  11.225   2.303
 7719W        W11919   3.662   7.570   0.434
 7720W        W11920   2.643   4.971   0.356
 7721W        W11921   1.332   9.990  11.750
 7722W        W11922   7.905   1.479  10.744
 7723W        W11923  10.496   1.180   1.542
 7724W        W11924   0.750   3.155   9.363
 7725W        W11925   7.098   1.631  10.818
 7726W        W11926   6.224   7.653   2.305
 7727W        W11927   6.571   6.538   1.130
 7728W        W11928   1.764   2.037   0.498
 7729W        W11929   9.398   1.304  11.519
 7730W        W11930   3.686   3.714   1.654
 7731W        W11931   7.445   4.308   1.966
 7732W        W11932   1.902   1.538   0.472
 7733W        W11933   1.143   9.452   2.248
 7734W        W11934   9.954   6.659   8.706
 7735W        W11935   5.971  10.699   3.252
 7736W        W11936   0.260   9.520   9.003
 7737W        W11937   7.861   5.500  11.027
 7738W        W11938   8.224   9.075   2.197
 7739W        W11939   0.987   3.198   2.773
 7740W        W11940   3.009   4.214  11.506
 7741W        W11941  10.192   4.484  11.929
 7742W        W11942   7.575  10.325  10.294
 7743W        W11943   1.676   9.009   2.828
 7744W        W11944  10.834   6.565   0.679
 7745W        W11945   6.708   0.076   0.435
 7746W        W11946  11.281   6.106   1.541
 7747W        W11947   9.597   3.691  11.915
 7748W        W11948   1.981  11.456   0.867
 7749W        W11949   3.730   7.820   2.194
 7750W        W11950   1.742   5.784   0.648
 7751W        W11951   8.856   8.122   1.472
 7752W        W11952   4.934   6.520   9.078
 7753W        W11953   0.018   2.730   1.974
 7754W        W11954  10.458  11.088  11.093
 7755W        W11955   6.694   2.215   9.386
 7756W        W11956   4.395   1.525   2.253
 7757W        W11957   3.590   4.194   8.925
 7758W        W11958   4.788   0.219  10.964
 7759W        W11959   2.863   7.073   3.268
 7760W        W11960   5.722  10.632   9.943
 7761W        W11961  10.960   4.779   8.588
 7762W        W11962   9.245   9.086   0.628
 7763W        W11963  10.577   2.771  10.705
 7764W        W11964   6.177   1.737   1.008
 7765W        W11965   6.487  10.686   0.811
 7766W        W11966   3.166   4.216   2.264
 7767W        W11967   5.254   6.796   8.755
 7768W        W11968   0.415   5.581   0.049
 7769W        W11969  11.469   6.186   9.057
 7770W        W11970  10.850   5.878  10.981
 7771W        W11971   4.224  10.099  10.791
 7772W        W11972   8.986   9.038   1.057
 7773W        W11973   5.057  11.107   9.340
 7774W        W11974   8.525   5.309   2.393
 7775W        W11975   3.168   3.318   9.978
 7776W        W11976   8.189   0.970   0.105
 7777W        W11977   1.376  10.384  10.485
 7778W        W11978   1.919   4.288   0.436
 7779W        W11979   6.542   3.693   0.379
 7780W        W11980   6.434  10.822   2.313
 7781W        W11981   0.694   9.776   8.935
 7782W        W11982   6.190   4.292  11.891
 7783W        W11983   9.567  11.075   9.797
 7784W        W11984   2.409   5.065  10.507
 7785W        W11985   8.212   5.108  10.991
 7786W        W11986   9.399   3.742   1.186
 7787W        W11987   7.039   7.032   2.421
 7788W        W11988   1.766   7.715   2.154
 7789W        W11989  11.332   9.388   9.981
 7790W        W11990   2.488   3.112  10.613
 7791W        W11991   8.880   9.812  11.668
 7792W        W11992   5.152   1.888   1.833
 7793W        W11993   4.822  11.315   1.534
 7794W        W11994   2.917   3.658   0.244
 7795W        W11995   5.369   2.732   9.035
 7796W        W11996   7.974   0.226  11.879
 7797W        W11997   6.396   9.108   3.728
 7798W        W11998   8.393   3.395   1.781
 7799W        W11999   5.991   0.190   0.217
 7800W        W12000   6.505  10.846  11.582
 7801W        W12001  10.454   2.231   3.525
 7802W        W12002   0.783   6.704   1.819
 7803W        W12003   8.434   1.401  11.958
 7804W        W12004   1.796   1.750  10.034
 7805W        W12005   3.271   8.682  10.340
 7806W        W12006   6.589   6.146   0.808
 7807W        W12007   9.494   8.114   3.204
 7808W        W12008   1.417   3.525   2.064
 7809W        W12009   6.277   8.853  11.100
 7810W        W12010   8.867   6.229   3.228
 7811W        W12011   8.787   9.586   3.194
 7812W        W12012   5.699   5.136   9.144
 7813W        W12013   9.343   3.393   1.777
 7814W        W12014   7.632   5.406   9.808
 7815W        W12015   3.131   2.092   9.694
 7816W        W12016   0.952   1.971   3.203
 7817W        W12017   8.935   0.511   3.201
 7818W        W12018  10.393   6.446   1.990
 7819W        W12019   7.920   4.254  10.049
 7820W        W12020   6.670   2.533  11.988
 7821W        W12021   4.448   5.776   1.069
 7822W        W12022  10.846   7.013   0.922
 7823W        W12023   4.443   3.240   0.779
 7824W        W12024  10.654   9.583   9.553
 7825W        W12025  11.377   5.525   3.210
 7826W        W12026   6.658   2.733   9.493
 7827W        W12027   5.498  10.161  11.811
 7828W        W12028   2.789   4.847   0.839
 7829W        W12029   2.492   9.456   1.797
 7830W        W12030   5.086   6.466   1.140
 7831W        W12031   1.812   3.356   0.840
 7832W        W12032  10.463   9.114   9.411
 7833W        W12033   4.318   8.649   3.728
 7834W        W12034   0.841   0.262   1.144
 7835W        W12035   5.969   8.196   3.607
 7836W        W12036   7.643   6.551  10.538
 7837W        W12037   4.454   4.216  10.451
 7838W        W12038   8.970  10.841   9.464
 7839W        W12039   7.863   6.941   9.070
 7840W        W12040   8.523   6.926   1.395
 7841W        W12041   2.688  10.787   1.085
 7842W        W12042  10.009  11.274   3.100
 7843W        W12043   3.094   7.041   1.942
 7844W        W12044   3.782   5.964  11.030
 7845W        W12045   4.819   6.141  11.301
 7846W        W12046   9.554   8.613  10.355
 7847W        W12047   3.358  10.025   9.169
 7848W        W12048   2.239   7.877   9.475
 7849W        W12049   3.351   3.461   0.075
 7850W        W12050   1.477   7.844  11.978
 7851W        W12051   4.490   2.753   9.764
 7852W        W12052   8.590   9.137   0.445
 7853W        W12053   9.101  11.319  10.777
 7854W        W12054   7.191   2.357   3.385
 7855W        W12055   2.570   2.633  11.282
 7856W        W12056   0.371   4.806   1.247
 7857W        W12057   4.679   0.131   2.816
 7858W        W12058   5.774   4.366   1.683
 7859W        W12059   6.648   6.093   2.255
 7860W        W12060   5.883   2.726   8.969
 7861W        W12061   8.275   5.158   3.220
 7862W        W12062   6.935   5.132   2.370
 7863W        W12063   9.120   8.415  11.508
 7864W        W12064   2.241   5.265   9.096
 7865W        W12065   1.282   4.115   9.744
 7866W        W12066   0.858   0.301   2.149
 7867W        W12067   7.461  11.476  10.184
 7868W        W12068   0.735   2.169   1.942
 7869W        W12069   7.170   0.765  11.844
 7870W        W12070   8.350   4.534  10.302
 7871W        W12071  11.100   4.101   2.294
 7872W        W12072   9.904   3.785   1.340
 7873W        W12073   3.128   9.343   0.732
 7874W        W12074   3.816   1.634   9.933
 7875W        W12075  10.849   4.653  10.849
 7876W        W12076   8.263   6.356  10.805
 7877W        W12077  10.099   3.838   9.537
 7878W        W12078  10.686   4.156  10.569
 7879W        W12079   5.119   7.487  10.600
 7880W        W12080  11.457  10.953   2.792
 7881W        W12081   0.421   5.279   1.401
 7882W        W12082  10.155   3.771   3.444
 7883W        W12083   6.332   3.971   8.165
 7884W        W12084   3.226   5.429   3.695
 7885W        W12085   8.495   0.790   3.194
 7886W        W12086   1.800   6.503   9.072
 7887W        W12087   2.316   1.851   0.450
 7888W        W12088  10.864   3.906  11.077
 7889W        W12089   5.217   1.844  11.435
 7890W        W12090   5.477   8.157   9.896
 7891W        W12091   5.868   2.013   1.907
 7892W        W12092   2.316   7.544  11.790
 7893W        W12093   3.073   0.344   1.418
 7894W        W12094   7.665   3.120  10.963
 7895W        W12095   2.440  10.680  10.901
 7896W        W12096   4.224   3.211  10.407
 7897W        W12097   8.582   4.266   2.866
 7898W        W12098   1.370   0.392   0.848
 7899W        W12099   0.293   0.398   0.006
 7900W        W12100   7.059   0.239   2.223
 7901W        W12101   9.099   6.581   8.861
 7902W        W12102   4.195   7.487   1.824
 7903W        W12103   8.588   1.822   3.375
 7904W        W12104   1.515   0.328   9.577
 7905W        W12105   1.461   2.869   8.362
 7906W        W12106   7.337   6.459  10.092
 7907W        W12107  10.571   7.112   2.754
 7908W        W12108  11.351   9.781   3.417
 7909W        W12109   6.444   9.761   0.813
 7910W        W12110   1.912   7.772   3.496
 7911W        W12111   2.845   1.888   0.538
 7912W        W12112   7.041   4.837   9.125
 7913W        W12113   3.295   6.213  10.700
 7914W        W12114   9.610   3.114   2.756
 7915W        W12115   6.456   6.073  10.972
 7916W        W12116  10.346  10.388   0.225
 7917W        W12117   3.125   6.048  11.845
 7918W        W12118   5.368   1.911  10.021
 7919W        W12119   7.693   5.953  10.708
 7920W        W12120   7.501   5.382   0.241
 7921W        W12121   9.409  10.243   2.787
 7922W        W12122   0.996   9.849   1.665
 7923W        W12123   4.611   1.763   1.435
 7924W        W12124   6.152   2.253   0.765
 7925W        W12125   1.786   2.261   8.767
 7926W        W12126   2.182   7.081  11.567
 7927W        W12127   9.471   9.134   9.388
 7928W        W12128   4.658   1.887  10.294
 7929W        W12129   1.394   7.034   3.267
 7930W        W12130   9.987   3.270  10.841
 7931W        W12131   8.956   5.078   3.760
 7932W        W12132   6.473   9.968  11.893
 7933W        W12133   5.195   8.349   1.559
 7934W        W12134   6.592   2.324   0.474
 7935W        W12135  11.291  10.533  10.408
 7936W        W12136   4.801   0.980   1.623
 7937W        W12137   7.726   8.984  11.472
 7938W        W12138   5.518   7.534  11.436
 7939W        W12139   7.627   3.116   2.021
 7940W        W12140   7.945   6.878  11.720
 7941W        W12141   4.688   9.386   2.216
 7942W        W12142   2.255   6.149   0.269
 7943W        W12143   3.943   0.424   8.795
 7944W        W12144   5.948   0.951   9.481
 7945W        W12145   7.520   4.103   9.265
 7946W        W12146   9.492   1.902   3.555
 7947W        W12147   4.612  11.075   1.960
 7948W        W12148   5.716   1.182   0.355
 7949W        W12149   5.415  10.794  10.733
 7950W        W12150   6.988   4.192   9.958
 7951W        W12151   7.668   7.070  10.483
 7952W        W12152   3.679   6.457  10.933
 7953W        W12153  10.025   8.324   8.392
 7954W        W12154  11.001   0.426  10.336
 7955W        W12155  10.815   4.203   2.745
 7956W        W12156   1.337   6.640   2.935
 7957W        W12157   2.309   4.731   9.242
 7958W        W12158   2.373   1.619   2.967
 7959W        W12159   2.980   7.518   2.575
 7960W        W12160   5.496  11.457   0.863
 7961W        W12161   9.565   5.401   1.624
 7962W        W12162   0.987   7.048   8.721
 7963W        W12163   7.091   3.038   0.112
 7964W        W12164   1.790   5.417   0.301
 7965W        W12165   6.822   3.277   3.744
 7966W        W12166   6.680   5.341  10.578
 7967W        W12167   3.587   1.429   1.281
 7968W        W12168   4.098   8.026   0.896
 7969W        W12169   4.330   4.848   2.807
 7970W        W12170   2.186   0.385   1.940
 7971W        W12171   8.326  10.380   0.448
 7972W        W12172   5.250   9.371  11.835
 7973W        W12173   7.642   2.577  11.790
 7974W        W12174   2.847   2.863   2.792
 7975W        W12175   4.822   2.884  10.133
 7976W        W12176   0.770   7.591   1.277
 7977W        W12177   8.634  10.870   3.359
 7978W        W12178   0.797   4.120   9.564
 7979W        W12179   6.121   0.411   1.714
 7980W        W12180  10.530  10.718   0.563
 7981W        W12181   4.938  10.604   2.515
 7982W        W12182   5.615   9.634   9.818
 7983W        W12183   8.060   7.384   1.662
 7984W        W12184   3.037   9.081   9.556
 7985W        W12185  10.300   3.579   2.961
 7986W        W12186   5.126   1.655   0.854
 7987W        W12187   5.112   1.138   8.812
 7988W        W12188   9.968  10.801   3.287
 7989W        W12189   8.526   0.400  11.482
 7990W        W12190   8.547   7.457   2.850
 7991W        W12191   4.453   0.542   2.454
 7992W        W12192   7.474   3.057   9.683
 7993W        W12193   7.245  10.871   1.973
 7994W        W12194   0.010   5.549  11.721
 7995W        W12195   5.077  10.311   3.377
 7996W        W12196   8.676   9.381   2.337
 7997W        W12197   9.563   1.117   0.364
 7998W        W12198   6.564   9.510  11.647
 7999W        W12199   1.798   5.896   0.131
 8000W        W12200   5.640   3.682   3.316
 8001W        W12201   8.655   1.246   2.474
 8002W        W12202   9.009   4.532  11.871
 8003W        W12203  11.023   9.035   8.772
 8004W        W12204   2.467   7.049  11.064
 8005W        W12205   0.921   9.922   2.188
 8006W        W12206   9.640  11.002   3.645
 8007W        W12207   8.814   7.089  11.251
 8008W        W12208   6.554   2.199   8.789
 8009W        W12209   3.241   6.495  11.208
 8010W        W12210   0.698   3.661   9.803
 8011W        W12211   8.124   6.224   3.995
 8012W        W12212  10.475   8.590   9.433
 8013W        W12213  10.783   9.034  10.737
 8014W        W12214   6.560   4.794   1.662
 8015W        W12215   7.955   4.133   3.674
 8016W        W12216   7.542   2.874  11.391
 8017W        W12217   3.343   2.780   0.332
 8018W        W12218   2.704   6.532   9.535
 8019W        W12219   7.180   6.627   3.720
 8020W        W12220   1.447   2.807   3.035
 8021W        W12221   1.375   6.043   3.395
 8022W        W12222   0.677   5.216   0.936
 8023W        W12223   8.348   5.574  10.823
 8024W        W12224   8.680  10.491   1.766
 8025W        W12225   2.651   8.036   8.602
 8026W        W12226   6.917   9.869  11.665
 8027W        W12227   9.148   1.804  10.405
 8028W        W12228   2.709   6.036   8.993
 8029W        W12229   2.255   6.615  11.848
 8030W        W12230   5.274   6.030  11.508
 8031W        W12231   5.820   2.714   8.352
 8032W        W12232   0.305   7.455   1.415
 8033W        W12233  10.809   7.670  10.146
 8034W        W12234   3.423   5.238   0.327
 8035W        W12235   9.297   9.320   1.812
 8036W        W12236   7.010   9.795   1.646
 8037W        W12237   5.932   8.679  10.288
 8038W        W12238   5.859   0.033   9.014
 8039W        W12239  10.878   7.927   3.234
 8040W        W12240   3.209  10.220   2.174
 8041W        W12241   6.494  11.408  10.270
 8042W        W12242   5.426   9.541   3.690
 8043W        W12243   4.482   1.642   9.885
 8044W        W12244   2.432   2.178  11.462
 8045W        W12245   6.078   8.826   1.836
 8046W        W12246   0.258  10.072   3.259
 8047W        W12247   3.405  10.516   9.921
 8048W        W12248   9.070  10.222   8.786
 8049W        W12249   6.989  10.974  11.690
 8050W        W12250   8.718   5.758   3.122
 8051W        W12251  10.321   2.427  10.403
 8052W        W12252   5.019   6.514  10.096
 8053W        W12253   6.897   8.983   3.696
 8054W        W12254   9.906   4.068   1.790
 8055W        W12255   9.335   6.087   9.246
 8056W        W12256   0.349   1.335  10.364
 8057W        W12257  11.261   4.228   2.990
 8058W        W12258   7.238  11.075  10.398
 8059W        W12259  10.343   1.783   2.165
 8060W        W12260   8.659   5.211  10.621
 8061W        W12261   7.569   4.824  11.455
 8062W        W12262   3.120   4.767   0.419
 8063W        W12263   3.446   8.000   9.112
 8064W        W12264   7.802   3.877   3.263
 8065W        W12265   2.473   7.483  11.313
 8066W        W12266   4.195   3.844  11.024
 8067W        W12267   0.420   0.858   8.757
 8068W        W12268   7.920   0.701   9.314
 8069W        W12269   9.805   2.826  11.579
 8070W        W12270  11.393   8.627   0.139
 8071W        W12271   3.413   9.916  11.556
 8072W        W12272   1.764   4.586   0.014
 8073W        W12273   0.929  11.492   2.974
 8074W        W12274   5.227   5.580   1.877
 8075W        W12275   6.729   0.502   3.558
 8076W        W12276   2.402   7.073   0.547
 8077W        W12277   9.558  11.179   0.496
 8078W        W12278   2.769   6.921   8.739
 8079W        W12279  10.388   5.079   3.284
 8080W        W12280   1.453   3.729   0.491
 8081W        W12281  10.382   5.133   0.662
 8082W        W12282  11.381   8.431   1.654
 8083W        W12283   4.166   4.160  10.026
 8084W        W12284   4.768   0.622   2.834
 8085W        W12285   9.601   2.292   3.208
 8086W        W12286   7.595   7.562   1.832
 8087W        W12287   6.602   2.078   0.936
 8088W        W12288  10.141   8.996   0.500
 8089W        W12289   6.551   0.416   1.435
 8090W        W12290   3.306   6.648   1.672
 8091W        W12291   3.566   8.067   0.834
 8092W        W12292   3.241   3.242   2.797
 8093W        W12293   0.765   2.237   2.794
 8094W        W12294   5.957   3.825  11.869
 8095W        W12295   0.433   3.063   9.765
 8096W        W12296  10.412  10.021   9.478
 8097W        W12297   9.093   5.032  10.307
 8098W        W12298   5.568   9.437   2.223
 8099W        W12299   3.123   5.130   8.669
 8100W        W12300   3.594   9.932  11.072
 8101W        W12301   4.273   2.649   1.448
 8102W        W12302   8.459  10.397   2.628
 8103W        W12303   2.188   2.276   0.735
 8104W        W12304   4.752   0.320   8.357
 8105W        W12305   9.805   7.013   2.344
 8106W        W12306   0.431   4.811  10.124
 8107W        W12307   3.782   5.946  10.492
 8108W        W12308  11.062   2.884  11.710
 8109W        W12309   2.802   0.806  10.025
 8110W        W12310   0.517   9.515  10.715
 8111W        W12311   6.946  11.396   0.865
 8112W        W12312   6.865   6.069   0.359
 8113W        W12313   0.827  11.196  10.171
 8114W        W12314   7.336   8.935  11.770
 8115W        W12315  10.563   8.715   3.452
 8116W        W12316   3.823   2.113   9.063
 8117W        W12317   4.155   1.964  10.128
 8118W        W12318   6.321   6.309   9.169
 8119W        W12319   5.180   1.150   0.851
 8120W        W12320   0.677   5.251   9.278
 8121W        W12321   8.056   5.688   1.680
 8122W        W12322   9.076   8.531  10.536
 8123W        W12323  10.943   9.134  10.267
 8124W        W12324   6.332  10.038  10.283
 8125W        W12325   8.188   6.565   8.943
 8126W        W12326   2.100   7.111   2.735
 8127W        W12327   7.091  10.562   1.502
 8128W        W12328   6.088   9.796   9.901
 8129W        W12329  10.963   4.894   1.618
 8130W        W12330   0.393   2.614  10.482
 8131W        W12331  10.001   0.785   9.928
 8132W        W12332   1.848  11.006  11.507
 8133W        W12333   0.221   4.523   9.745
 8134W        W12334   2.463   6.152   1.268
 8135W        W12335   7.494   9.709   1.339
 8136W        W12336  11.109   7.850   0.031
 8137W        W12337   4.368   8.960   8.526
 8138W        W12338   8.126   3.193  10.448
 8139W        W12339   1.234   9.963  11.264
 8140W        W12340   3.970  10.848   0.882
 8141W        W12341   6.277  10.971  10.559
 8142W        W12342   5.064   9.676  10.865
 8143W        W12343   5.137   2.621   2.306
 8144W        W12344   3.670   4.346  11.979
 8145W        W12345   2.687  11.191  10.410
 8146W        W12346   7.526   4.055  11.831
 8147W        W12347   9.045   9.512   0.879
 8148W        W12348   7.970   8.476  11.424
 8149W        W12349   2.243  10.951  10.513
 8150W        W12350   2.820   3.656   9.833
 8151W        W12351   7.445  10.784  10.744
 8152W        W12352   1.260   1.001  10.436
 8153W        W12353   6.028   3.813   0.911
 8154W        W12354   5.718   4.257   8.636
 8155W        W12355   2.927   3.025   0.933
 8156W        W12356  10.453   7.872  11.049
 8157W        W12357   1.432  10.310   0.498
 8158W        W12358   6.088   8.960   0.509
 8159W        W12359   2.690   0.795   2.162
 8160W        W12360   1.037   1.372   2.325
 8161W        W12361   5.540   1.479  10.197
 8162W        W12362   2.548  11.448   9.994
 8163W        W12363   7.273  10.508   8.947
 8164W        W12364  10.392   8.919   9.898
 8165W        W12365   1.620   9.050  10.396
 8166W        W12366   9.573   6.129   0.530
 8167W        W12367   3.613   7.003   2.831
 8168W        W12368   7.905   5.356   9.068
 8169W        W12369   8.497   1.242   9.003
 8170W        W12370  11.292   6.572  10.947
 8171W        W12371   3.637   2.840   2.199
 8172W        W12372  11.378   2.577  11.987
 8173W        W12373   3.556  10.184  10.341
 8174W        W12374  10.800   7.601   2.868
 8175W        W12375  10.243   9.673  11.252
 8176W        W12376   3.723   7.425   9.311
 8177W        W12377  11.431  10.989  10.155
 8178W        W12378   3.178   6.964  11.977
 8179W        W12379   5.530   4.467  11.691
 8180W        W12380   4.751  10.925   3.009
 8181W        W12381   4.603   6.284   0.657
 8182W        W12382   5.864   7.240   1.213
 8183W        W12383   5.611   6.636   3.644
 8184W        W12384   2.081   0.068   9.861
 8185W        W12385   3.888   5.098   1.584
 8186W        W12386   6.661   8.293   3.400
 8187W        W12387   8.902   7.808   9.457
 8188W        W12388   3.385   1.385   2.778
 8189W        W12389  10.635   5.466   9.686
 8190W        W12390   1.261   6.446   0.723
 8191W        W12391   8.122   6.600   0.490
 8192W        W12392   6.737  10.220   3.622
 8193W        W12393   3.483   8.314   3.624
 8194W        W12394   6.210   7.000  10.561
 8195W        W12395   0.184  10.857  11.168
 8196W        W12396   7.493   0.301   9.033
 8197W        W12397  11.200   2.915   0.937
 8198W        W12398   8.081   0.289   1.979
 8199W        W12399   0.327   8.482   9.832
 8200W        W12400   1.485   1.248   0.493
 8201W        W12401   7.698   8.431   0.798
 8202W        W12402   8.252   2.247   1.748
 8203W        W12403  11.116   1.343   0.943
 8204W        W12404   6.896  10.919   1.047
 8205W        W12405  11.470   0.534   3.822
 8206W        W12406   1.878   9.334  10.861
 8207W        W12407   9.937   6.511   2.222
 8208W        W12408   8.005   2.723   9.771
 8209W        W12409   2.205   9.918  10.302
 8210W        W12410   6.639   1.372  10.788
 8211W        W12411   8.676   6.600   2.645
 8212W        W12412   2.206   5.131   3.160
 8213W        W12413   8.108   8.644  10.807
 8214W        W12414   7.480   8.592   1.839
 8215W        W12415   5.168   6.236  10.959
 8216W        W12416   6.124  10.868   2.738
 8217W        W12417   5.326   6.042   1.267
 8218W        W12418  10.001   5.425  11.910
 8219W        W12419   7.113  10.576  10.384
 8220W        W12420   3.146  10.961   2.906
 8221W        W12421   4.511   3.625   9.159
 8222W        W12422   2.133  10.170   8.939
 8223W        W12423   7.232   3.320   0.925
 8224W        W12424   7.399   9.095   1.901
 8225W        W12425   2.147  11.013   9.601
 8226W        W12426   7.563   0.582   2.744
 8227W        W12427   8.967   4.552  10.158
 8228W        W12428   3.345   9.596  10.784
 8229W        W12429   7.178   5.581   1.955
 8230W        W12430   0.458   4.101   2.886
 8231W        W12431  10.330   7.630   2.700
 8232W        W12432   0.670  11.045  11.108
 8233W        W12433   2.308   2.286  10.920
 8234W        W12434   7.110   1.482   0.375
 8235W        W12435   2.202  10.768   0.368
 8236W        W12436   3.301   9.734   2.341
 8237W        W12437  11.051   7.901   1.143
 8238W        W12438   6.551   7.863  10.394
 8239W        W12439   0.077   3.781   3.610
 8240W        W12440  10.909   3.145  10.937
 8241W        W12441  10.947   0.182   8.991
 8242W        W12442   5.465   3.672  11.792
 8243W        W12443   6.211   4.178   3.478
 8244W        W12444   2.377   4.061   0.367
 8245W        W12445   2.119   2.709  11.492
 8246W        W12446  10.335   4.087   8.996
 8247W        W12447   1.375   2.707   0.130
 8248W        W12448   8.246   0.990   0.627
 8249W        W12449   7.947   4.099   9.533
 8250W        W12450   5.847   7.650   4.026
 8251W        W12451   8.080   4.725   9.904
 8252W        W12452   4.123   5.212  10.530
 8253W        W12453   1.149   4.464   1.827
 8254W        W12454  11.381  10.061  10.616
 8255W        W12455  11.227   6.275  11.389
 8256W        W12456   7.075   6.361   4.165
 8257W        W12457   5.023   4.703   0.206
 8258W        W12458   9.975   9.240  11.991
 8259W        W12459   0.911   3.666   3.415
 8260W        W12460   5.251   4.554   8.635
 8261W        W12461  11.482   3.521   0.394
 8262W        W12462   1.406  11.470   1.808
 8263W        W12463   1.328  11.103   2.181
 8264W        W12464   9.570   6.775  10.372
 8265W        W12465   5.608   6.512   9.872
 8266W        W12466   3.378   7.131   1.494
 8267W        W12467   1.299   6.013   9.181
 8268W        W12468   1.297   9.932   0.794
 8269W        W12469   0.373   0.028   2.353
 8270W        W12470   6.467   2.039  10.247
 8271W        W12471  10.280  10.544  10.259
 8272W        W12472   7.946   0.971  10.724
 8273W        W12473   6.601   7.815   9.107
 8274W        W12474   1.814   7.272   3.474
 8275W        W12475   4.073  10.758   0.043
 8276W        W12476   8.546  10.733   1.337
 8277W        W12477   6.594   5.724   0.023
 8278W        W12478   6.754   7.066   0.651
 8279W        W12479   6.648   3.282  10.535
 8280W        W12480   7.924   6.424   0.911
 8281W        W12481  10.082   5.873   3.404
 8282W        W12482   4.604  10.001  10.011
 8283W        W12483   9.410  10.644   1.223
 8284W        W12484   9.058   4.273   2.620
 8285W        W12485   8.957   5.565   2.143
 8286W        W12486   9.967   6.806   3.184
 8287W        W12487  11.075   0.946  11.756
 8288W        W12488   3.788   4.414  10.234
 8289W        W12489   9.233   5.811   0.215
 8290W        W12490   5.501   6.257   1.685
 8291W        W12491  11.421   7.309   2.981
 8292W        W12492  10.426   9.385   2.653
 8293W        W12493   6.533   8.322   1.177
 8294W        W12494   9.755   7.263  10.398
 8295W        W12495   4.333   7.207   2.351
 8296W        W12496  11.212   6.289   8.609
 8297W        W12497   4.136   4.835   8.590
 8298W        W12498  11.117   3.114   0.487
 8299W        W12499   1.578   6.682   0.383
 8300W        W12500   8.126   9.390   0.525
 8301W        W12501   8.036   9.939   2.211
 8302W        W12502   4.743  10.792   0.322
 8303W        W12503   8.690   8.865   9.812
 8304W        W12504   3.803  10.413   0.348
 8305W        W12505   9.602   8.900   2.715
 8306W        W12506   6.094   3.776   2.674
 8307W        W12507   0.723  10.269   9.156
 8308W        W12508   1.796   6.552   1.782
 8309W        W12509  11.453   5.115   1.651
 8310W        W12510   3.943   9.355   9.875
 8311W        W12511   1.672  11.285  11.093
 8312W        W12512   3.526   5.614   2.358
 8313W        W12513   2.163   0.208   3.503
 8314W        W12514   9.434   9.236  11.266
 8315W        W12515   6.402   1.679   2.042
 8316W        W12516  10.466   5.512   3.554
 8317W        W12517   1.947   3.140  10.485
 8318W        W12518   1.762   0.030   2.749
 8319W        W12519   6.906   8.242  10.207
 8320W        W12520   9.281   9.268   0.149
 8321W        W12521   2.476   7.968  10.375
 8322W        W12522   2.340   1.868   1.488
 8323W        W12523   4.797   8.011   2.889
 8324W        W12524  11.446  10.056   0.145
 8325W        W12525   7.686   5.177   1.816
 8326W        W12526   2.623   0.695  10.498
 8327W        W12527   3.424   6.477   9.069
 8328W        W12528   5.754  11.109   3.459
 8329W        W12529   4.647   9.819   2.487
 8330W        W12530   2.155   3.276  11.886
 8331W        W12531   3.851   7.135   9.747
 8332W        W12532   3.789   7.415  11.104
 8333W        W12533   7.723   8.470  10.494
 8334W        W12534   0.115   7.802   0.184
 8335W        W12535   1.620   5.687   2.660
 8336W        W12536  10.387   4.697   9.331
 8337W        W12537   6.122   1.209   3.365
 8338W        W12538   1.816   9.144  11.357
 8339W        W12539   8.558   2.722   0.525
 8340W        W12540   3.890  10.284   9.932
 8341W        W12541   9.056   9.977   0.572
 8342W        W12542   2.298   3.224  10.141
 8343W        W12543   8.618   0.032   0.867
 8344W        W12544   7.785   7.928  10.748
 8345W        W12545   1.595   9.773   1.510
 8346W        W12546  10.366   4.574   3.409
 8347W        W12547   6.154   9.049   3.254
 8348W        W12548   7.964  10.024   1.266
 8349W        W12549   8.852   5.468   0.113
 8350W        W12550  11.027   6.193   1.987
 8351W        W12551  11.305   7.702   0.599
 8352W        W12552   5.529   3.690  10.130
 8353W        W12553   8.451   2.179  10.765
 8354W        W12554   3.161   4.805   1.581
 8355W        W12555   1.482   4.754  11.068
 8356W        W12556   3.108   7.082   2.819
 8357W        W12557  10.830   6.338  10.741
 8358W        W12558   3.183  10.541   3.567
 8359W        W12559   6.261   9.957   1.700
 8360W        W12560   1.817   1.400  11.387
 8361W        W12561  10.869   6.623   8.852
 8362W        W12562   6.926   4.654   3.180
 8363W        W12563  10.341   8.303   1.229
 8364W        W12564   2.352   1.147   0.496
 8365W        W12565   0.554   2.439   2.379
 8366W        W12566   6.647   2.867  11.579
 8367W        W12567  10.801   2.902   3.669
 8368W        W12568   2.610   9.876   9.876
 8369W        W12569   2.236   0.515  11.793
 8370W        W12570   7.788   8.145   1.427
 8371W        W12571   0.275   1.296   1.717
 8372W        W12572  11.033  10.430   9.476
 8373W        W12573   5.499   6.129   9.513
 8374W        W12574   3.575   2.231   3.266
 8375W        W12575   0.472   7.081   1.718
 8376W        W12576   3.888   1.503   0.391
 8377W        W12577   5.565   7.809   9.539
 8378W        W12578   9.083   7.728   1.216
 8379W        W12579   7.491   8.688   0.389
 8380W        W12580  10.439  10.421   1.669
 8381W        W12581   4.186   8.591   3.094
 8382W        W12582   4.333   9.036   3.336
 8383W        W12583   8.621   8.336   3.007
 8384W        W12584   5.552   0.336   1.386
 8385W        W12585  11.087   3.394   2.964
 8386W        W12586   5.817  10.566  11.780
 8387W        W12587   4.541   4.868   0.095
 8388W        W12588   1.706   4.856   3.196
 8389W        W12589   8.087   1.839   9.452
 8390W        W12590   9.843   3.433   3.151
 8391W        W12591   7.876   1.769   1.012
 8392W        W12592  11.341  11.026  11.567
 8393W        W12593   5.177   6.497   0.172
 8394W        W12594   2.179  11.474   9.372
 8395W        W12595   0.648  11.084   0.277
 8396W        W12596   5.186   1.848   1.335
 8397W        W12597   6.455   5.044  10.948
 8398W        W12598   3.139   4.304   1.337
 8399W        W12599   1.788   9.941   2.834
 8400W        W12600   4.685   8.247   3.687
 8401W        W12601   6.975   8.870   0.102
 8402W        W12602   5.071   1.906   9.294
 8403W        W12603   2.036  11.072   8.597
 8404W        W12604   7.445   3.284   1.586
 8405W        W12605   0.246   1.064   0.893
 8406W        W12606   1.009  11.001  11.479
 8407W        W12607   4.481  11.069  11.945
 8408W        W12608   1.147  10.053   8.913
 8409W        W12609   5.608   9.804  11.448
 8410W        W12610   5.225   0.419   2.738
 8411W        W12611   3.271   3.262  11.069
 8412W        W12612  10.072   6.031   2.107
 8413W        W12613   0.477  10.552   0.089
 8414W        W12614   2.146   4.591   3.195
 8415W        W12615   3.383   2.420  11.490
 8416W        W12616   4.282   2.167   1.242
 8417W        W12617   5.854   8.667  11.844
 8418W        W12618   6.035   0.329  11.288
 8419W        W12619   4.156   0.259   2.806
 8420W        W12620   0.802   4.521   0.324
 8421W        W12621   9.931   8.575   1.059
 8422W        W12622   6.032   0.830  11.064
 8423W        W12623   5.206   0.532   9.232
 8424W        W12624   8.996   2.519  11.951
 8425W        W12625   7.732   6.151  10.237
 8426W        W12626   2.101   5.071   9.540
 8427W        W12627   2.441   0.360  10.851
 8428W        W12628   9.994   5.368   3.415
 8429W        W12629   5.103   9.121   9.478
 8430W        W12630   4.383   7.175   1.468
 8431W        W12631   8.529   0.280   0.389
 8432W        W12632   0.887  10.209  10.958
 8433W        W12633   2.080   9.477   0.761
 8434W        W12634   4.844   3.832  10.490
 8435W        W12635   3.535   5.241   0.870
 8436W        W12636   1.197   3.133   2.294
 8437W        W12637   7.284   0.568   1.396
 8438W        W12638   0.286   3.935   1.524
 8439W        W12639   8.850   2.249   9.901
 8440W        W12640   0.160  10.977   0.440
 8441W        W12641   9.478   9.851   9.878
 8442W        W12642  10.410   6.180  11.661
 8443W        W12643   1.299   6.513   9.254
 8444W        W12644   8.838   4.096  10.399
 8445W        W12645   7.962   7.509   0.291
 8446W        W12646   0.723   2.785  11.451
 8447W        W12647   6.350   7.611   4.071
 8448W        W12648   0.478   4.834   8.942
 8449W        W12649   4.955   0.434   2.280
 8450W        W12650   6.997  10.251  10.004
 8451W        W12651   3.893   8.835   3.513
 8452W        W12652   4.535   8.908  11.434
 8453W        W12653   4.589   2.342   2.168
 8454W        W12654   0.575   4.292   1.229
 8455W        W12655   3.745   7.135   8.880
 8456W        W12656   0.367   6.492  10.191
 8457W        W12657   0.277   0.878   9.730
 8458W        W12658   5.786   8.132  11.990
 8459W        W12659   5.623   9.301  10.779
 8460W        W12660   1.903   1.076   0.225
 8461W        W12661   2.811   4.678   9.135
 8462W        W12662  10.740   7.156   2.232
 8463W        W12663  10.374   7.137   0.749
 8464W        W12664  10.618   1.343   1.074
 8465W        W12665   6.172   0.378   0.653
 8466W        W12666  11.443   8.155   2.631
 8467W        W12667   2.576   1.587   8.992
 8468W        W12668   4.401   6.596  10.445
 8469W        W12669   8.588  10.247  10.561
 8470W        W12670   3.318   0.306   9.615
 8471W        W12671   3.198   3.675  10.337
 8472W        W12672   7.100   6.052   0.874
 8473W        W12673   7.045   7.595   8.967
 8474W        W12674   8.150   1.847  10.498
 8475W        W12675  11.402   4.135   1.885
 8476W        W12676   4.783   1.908  11.681
 8477W        W12677   6.984   5.727  10.435
 8478W        W12678   6.027   9.572  10.578
 8479W        W12679   5.111   7.827   9.799
 8480W        W12680   3.821   3.625   9.747
 8481W        W12681   1.046   8.942   1.518
 8482W        W12682   5.173   8.698   0.596
 8483W        W12683   7.971   7.046   2.061
 8484W        W12684   9.132   5.169   0.464
 8485W        W12685   4.790  10.364   9.671
 8486W        W12686   8.369   5.507  10.327
 8487W        W12687   2.639  10.889   0.595
 8488W        W12688   9.344   0.803   1.260
 8489W        W12689   9.785   2.652   9.078
 8490W        W12690  10.853   3.012   9.912
 8491W        W12691  11.377   0.556  11.259
 8492W        W12692   2.789   1.023  11.430
 8493W        W12693   2.230   2.165   3.415
 8494W        W12694   9.461   1.465  10.099
 8495W        W12695   5.923   1.821  10.206
 8496W        W12696   4.497   7.602   2.708
 8497W        W12697   5.434   6.117   2.761
 8498W        W12698   4.780   8.522   2.845
 8499W        W12699   4.236   2.902   1.920
 8500W        W12700   6.068  10.967   0.695
 8501W        W12701   7.894   4.191  10.590
 8502W        W12702   4.270  11.067   0.414
 8503W        W12703   5.188  11.423  11.110
 8504W        W12704   7.227   9.247   9.940
 8505W        W12705   9.380   6.163  11.533
 8506W        W12706  10.678   3.891   3.617
 8507W        W12707   3.952   8.003  10.496
 8508W        W12708   6.788  10.768  10.783
 8509W        W12709   4.892  10.077   0.942
 8510W        W12710   1.660   0.884   3.475
 8511W        W12711   7.099  10.474   9.458
 8512W        W12712   9.821  10.789   8.986
 8513W        W12713   2.140   0.188   2.442
 8514W        W12714   2.386   6.117  11.335
 8515W        W12715   4.162   1.716   9.149
 8516W        W12716  10.471   4.317  11.012
 8517W        W12717   9.754   0.401   1.264
 8518W        W12718   0.922   4.984   0.512
 8519W        W12719   1.333   5.304   9.922
 8520W        W12720   8.484   5.804   0.816
 8521W        W12721   1.165   8.150  11.302
 8522W        W12722   0.219   3.457  11.947
 8523W        W12723   2.729   3.857   0.672
 8524W        W12724   2.627   5.104   9.410
 8525W        W12725   9.872   5.696   0.741
 8526W        W12726   8.574   8.277   1.032
 8527W        W12727   6.026   9.399   8.565
 8528W        W12728   9.604   3.153  10.518
 8529W        W12729   6.330   2.102   1.742
 8530W        W12730   5.831   9.859   1.475
 8531W        W12731   7.139   9.882   2.180
 8532W        W12732   4.657  11.255   9.622
 8533W        W12733   5.704   8.329   9.475
 8534W        W12734   5.649   5.842   1.988
 8535ION    NA+12735   2.766   6.676  11.880
 8536ION    NA+12736   4.174   1.067   2.070
 8537ION    NA+12737   1.084  10.565   3.391
 8538ION    NA+12738   6.804   0.898   1.365
 8539ION    NA+12739   7.200   3.415   9.452
 8540ION    NA+12740  10.249   9.563   3.500
 8541ION    NA+12741  11.454   2.013  11.409
 8542ION    NA+12742   5.637   4.060   0.657
 8543ION    NA+12743  11.232   7.151   9.674
 8544ION    NA+12744   8.239   4.620   9.425
 8545ION    NA+12745   6.821   6.439  10.904
 8546ION    NA+12746   7.754   2.280   1.667
 8547ION    NA+12747   8.053   4.974   0.988
 8548ION    NA+12748   8.131   2.310   3.251
 8549ION    NA+12749   1.821  10.989   0.987
 8550ION    NA+12750   0.899   9.293  11.893
 8551ION    NA+12751   7.862   6.234  11.516
 8552ION    NA+12752   5.353   1.587   3.224
 8553ION    NA+12753   3.994  10.441  10.456
 8554ION    NA+12754   1.847   3.126   9.922
 8555ION    NA+12755   9.848   4.725   2.284
 8556ION    NA+12756   0.863   8.669   0.829
 8557ION    NA+12757   6.330   7.422  11.915
 8558ION    NA+12758   8.047   3.414   3.139
 8559ION    NA+12759   8.852   6.333  10.673
 8560ION    NA+12760   9.737   7.741   0.942
 8561ION    NA+12761   6.374  10.999   3.185
 8562ION    NA+12762   8.237   2.282   0.398
 8563ION    NA+12763   0.930   2.798   9.696
 8564ION    NA+12764   2.118   0.622   0.302
 8565ION    NA+12765   3.400   2.840  11.797
 8566ION    NA+12766   6.559   7.694   1.909
 8567ION    NA+12767   3.224   4.893   8.233
 8568ION    NA+12768   4.666  11.132   2.557
 8569ION    NA+12769   5.690  10.273   1.202
 8570ION    NA+12770   3.172   4.712  10.830
 8571ION    NA+12771  10.436   0.487  11.513
 8572ION    NA+12772   7.131   7.536   3.437
 8573ION    NA+12773   7.641   3.769   0.261
 8574ION    NA+12774  10.239   7.446  11.970
 8575ION    NA+12775   3.696  10.014   2.161
 8576ION    NA+12776   3.222   1.126  10.176
 8577ION    NA+12777   1.448   7.663  10.027
 8578ION    NA+12778   1.439   8.779   8.824
 8579ION    NA+12779   3.131   9.424  11.802
 8580ION    NA+12780   8.899   0.150   1.323
 8581ION    NA+12781   0.535   5.228   9.796
 8582ION    NA+12782   5.640   7.099   2.446
 8583ION    NA+12783   2.905   3.861   9.360
 8584ION    NA+12784   7.019   5.623   0.571
 8585ION    NA+12785   3.500  11.438   1.727
 8586ION    NA+12786   0.917  10.807   2.282
 8587ION    NA+12787   4.824   6.517   1.920
 8588ION    NA+12788   1.036   6.291   3.122
 8589ION    NA+12789   9.800   1.984   8.804
 8590ION    NA+12790   6.668   6.883   3.178
 8591ION    NA+12791   9.174  10.348   1.839
 8592ION    NA+12792   1.504   4.163   0.736
 8593ION    NA+12793   1.667   4.365   1.882
 8594ION    NA+12794   3.365   6.199   3.331
 8595ION    NA+12795   9.624   7.692   3.488
 8596ION    NA+12796   5.775   8.023  11.468
 8597ION    NA+12797   1.158   6.002   9.682
 8598ION    NA+12798   8.440   3.645   2.228
 8599ION    NA+12799   9.820   2.333   3.783
 8600ION    NA+12800   7.409   1.739   0.043
 8601ION    NA+12801   8.548   8.377   2.494
 8602ION    NA+12802   0.009  11.049   3.302
 8603ION    NA+12803   6.817   7.463   4.196
 8604ION    NA+12804   5.324  11.282  11.578
 8605ION    NA+12805   6.042   2.552   2.622
 8606ION    NA+12806   8.291   8.545   9.816
 8607ION    NA+12807   7.340   8.869   1.438
 8608ION    NA+12808   4.743  10.203   2.194
 8609ION    NA+12809   4.277   5.801   2.009
 8610ION    NA+12810   0.038   8.011   1.898
 8611ION    NA+12811   4.167  10.067   1.270
 8612ION    NA+12812   8.137   0.932   9.755
 8613ION    NA+12813   4.362   5.909   0.387
 8614ION    NA+12814  10.081   0.424   0.862
 8615ION    NA+12815   9.718   7.883   9.023
 8616ION    NA+12816   6.009   3.908   1.849
 8617ION    NA+12817   7.325   9.362  10.828
 8618ION    NA+12818   5.912   3.247   3.351
 8619ION    NA+12819   1.775   1.154   1.357
 8620ION    NA+12820   7.645   2.865   8.617
 8621ION    NA+12821   6.194   8.482   9.488
 8622ION    NA+12822   0.663   4.676   1.626
 8623ION    NA+12823   3.184   6.622   8.603
 8624ION    NA+12824   4.139   6.801   0.254
 8625ION    CL-12825   5.519   1.701   2.136
 8626ION    CL-12826   0.204   7.862  11.303
 8627ION    CL-12827  11.319   4.336   8.644
 8628ION    CL-12828   2.128   8.483   2.293
 8629ION    CL-12829   6.988   7.808   1.858
 8630ION    CL-12830   4.660   8.935   1.495
 8631ION    CL-12831   8.203   3.601  11.385
 8632ION    CL-12832   0.140   7.833   2.293
 8633ION    CL-12833   9.165   5.909   3.528
 8634ION    CL-12834   0.272   0.869   0.221
 8635ION    CL-12835   7.448  11.473   0.818
 8636ION    CL-12836   3.311  11.361   1.331
 8637ION    CL-12837   6.939   3.149   9.698
 8638ION    CL-12838   5.036   0.523   1.384
 8639ION    CL-12839  11.466  11.420   3.041
 8640ION    CL-12840   4.769   1.190  11.026
 8641ION    CL-12841   5.808   9.904   0.962
 8642ION    CL-12842  11.152   7.354   9.283
 8643ION    CL-12843   0.264   4.461   1.622
 8644ION    CL-12844   6.057   7.766  11.743
 8645ION    CL-12845  10.616  10.941  10.115
 8646ION    CL-12846   3.577  11.342  11.976
 8647ION    CL-12847   7.217   1.063   1.411
 8648ION    CL-12848   9.124   1.560   3.542
 8649ION    CL-12849   3.235  11.147   9.130
 8650ION    CL-12850   0.981  10.351   9.591
 8651ION    CL-12851   3.283   3.001   3.289
 8652ION    CL-12852   6.936   7.247   3.135
 8653ION    CL-12853   6.701   2.785  10.600
 8654ION    CL-12854  11.462   3.563   1.301
 8655ION    CL-12855   2.361   0.434  10.131
 8656ION    CL-12856   9.493  10.638  10.339
 8657ION    CL-12857   1.014   7.906   3.406
 8658ION    CL-12858   6.485   7.253   4.428
 8659ION    CL-12859   8.468   4.967   3.642
 8660ION    CL-12860   5.365   2.858   8.525
 8661ION    CL-12861   8.182   6.516   2.749
 8662ION    CL-12862   7.027   9.480   2.497
 8663ION    CL-12863   5.200   3.395   2.728
 8664ION    CL-12864  11.210   3.566  11.928
 8665ION    CL-12865  10.530   3.213   1.395
 8666ION    CL-12866   7.564   7.322   9.646
 8667ION    CL-12867   1.017   1.510   0.407
 8668ION    CL-12868   3.334   1.552  10.100
 8669ION    CL-12869  10.881   3.601  10.110
 8670ION    CL-12870   1.352   1.226   9.657
 8671ION    CL-12871  11.438   5.497   2.332
 8672ION    CL-12872   2.662   6.827   9.981
 8673ION    CL-12873   6.888   9.417  10.763
 8674ION    CL-12874   8.306   4.599   0.962
 8675ION    CL-12875   4.257   8.739  11.014
 8676ION    CL-12876   5.291   3.770   0.665
 8677ION    CL-12877   0.227   5.270  10.120
 8678ION    CL-12878   5.812   4.177   2.148
 8679ION    CL-12879   9.146   9.570   3.578
 8680ION    CL-12880  11.007   5.523   8.095
 8681ION    CL-12881   3.017   7.763   9.900
 8682ION    CL-12882   5.312   1.182  11.962
 8683ION    CL-12883   9.893   6.687   1.203
 8684ION    CL-12884   9.198   7.177   2.932
 8685ION    CL-12885   4.080   7.255   0.269
 8686ION    CL-12886   9.300   6.385  10.675
 8687ION    CL-12887   0.701   4.612   2.918
 8688ION    CL-12888  10.429  10.447   1.142
 8689ION    CL-12889   7.123  10.113   1.281
 8690ION    CL-12890   5.312   3.696   9.620
 8691ION    CL-12891   4.539   6.174   2.011
 8692ION    CL-12892   4.234   6.343   0.305
 8693ION    CL-12893  10.841   0.895   8.474
 8694ION    CL-12894   5.540   8.304  11.190
 8695ION    CL-12895   5.323   3.112  11.543
 8696ION    CL-12896   4.435   3.054   8.834
 8697ION    CL-12897   9.966   7.462  11.617
 8698ION    CL-12898   0.750   6.011   3.366
 8699ION    CL-12899  10.113   3.124   2.775
 8700ION    CL-12900   9.330   7.815   0.769
 8701ION    CL-12901   7.482   1.771  11.602
 8702ION    CL-12902   2.716   5.660   2.114
 8703ION    CL-12903   5.674  10.686   1.397
 8704ION    CL-12904   1.232   2.299   1.854
 8705ION    CL-12905   1.160  11.274  11.039
 8706ION    CL-12906   4.908   1.923   9.800
 8707ION    CL-12907   8.075  11.284   1.848
 8708ION    CL-12908   1.333   9.402   2.725
 8709ION    CL-12909   6.627   7.103   0.046
 8710ION    CL-12910   1.751  10.750  10.347
 8711ION    CL-12911   0.868   4.989   1.359
 8712ION    CL-12912   6.050   9.555  11.551
 8713ION    CL-12913   5.454  10.326   8.885
 8714ION    CL-12914   9.534  10.315   1.577
  11.50000  11.50000  12.00000
