Protein in INSANE! Membrane UpperLeaflet>POPC=1.0 LowerLeaflet>POPC=1.0
11125
    1AU     AUC    1   5.238   5.289   6.009
    1AU     AUC    2   5.519   5.296   5.837
    1AU     AUC    3   5.487   5.275   6.185
    1AU     AUC    4   4.962   5.289   5.846
    1AU     AUC    5   4.974   5.328   6.193
    1AU     AUC    6   5.077   5.571   6.010
    1AU     AUC    7   5.430   5.557   6.002
    1AU     AUC    8   5.048   5.027   6.016
    1AU     AUC    9   5.402   5.003   6.012
    1AU     AUC   10   5.235   5.113   6.285
    1AU     AUC   11   5.233   5.461   6.281
    1AU     AUC   12   5.233   5.124   5.736
    1AU     AUC   13   5.267   5.444   5.730
    1AU     AUC   14   5.840   5.288   5.686
    1AU     AUC   15   5.842   5.270   6.031
    1AU     AUC   16   5.773   5.253   6.389
    1AU     AUC   17   4.648   5.291   5.682
    1AU     AUC   18   4.632   5.328   6.043
    1AU     AUC   19   4.679   5.366   6.371
    1AU     AUC   20   4.926   5.897   5.983
    1AU     AUC   21   5.280   5.895   5.973
    1AU     AUC   22   5.642   5.835   5.995
    1AU     AUC   23   4.845   4.751   6.018
    1AU     AUC   24   5.197   4.693   5.993
    1AU     AUC   25   5.575   4.699   5.995
    1AU     AUC   26   5.209   4.935   6.573
    1AU     AUC   27   5.241   5.308   6.629
    1AU     AUC   28   5.258   5.641   6.574
    1AU     AUC   29   5.256   4.952   5.456
    1AU     AUC   30   5.241   5.280   5.393
    1AU     AUC   31   5.257   5.599   5.415
    1AU     AUC   32   5.488   5.076   6.520
    1AU     AUC   33   5.541   5.426   6.522
    1AU     AUC   34   5.569   5.125   5.521
    1AU     AUC   35   5.562   5.468   5.520
    1AU     AUC   36   4.928   5.169   6.524
    1AU     AUC   37   4.959   5.545   6.492
    1AU     AUC   38   4.927   5.107   5.556
    1AU     AUC   39   4.912   5.435   5.512
    1AU     AUC   40   5.775   5.568   5.813
    1AU     AUC   41   5.730   5.565   6.184
    1AU     AUC   42   4.759   5.603   5.840
    1AU     AUC   43   4.782   5.657   6.187
    1AU     AUC   44   5.735   4.983   5.861
    1AU     AUC   45   5.684   4.947   6.202
    1AU     AUC   46   4.713   4.992   5.873
    1AU     AUC   47   4.762   5.045   6.224
    1AU     AUC   48   5.104   5.837   6.277
    1AU     AUC   49   5.449   5.754   6.271
    1AU     AUC   50   5.037   4.819   6.306
    1AU     AUC   51   5.357   4.764   6.281
    1AU     AUC   52   5.078   5.731   5.702
    1AU     AUC   53   5.455   5.751   5.673
    1AU     AUC   54   5.036   4.825   5.712
    1AU     AUC   55   5.439   4.841   5.720
    1AU    AUSL   56   5.748   5.133   6.787
    1AU    AUSL   57   5.491   4.762   6.672
    1AU     AUL   58   5.654   4.707   7.022
    1AU       S   59   5.864   4.540   6.649
    1AU     LIG   60   5.751   4.206   6.924
    1AU     LIG   61   5.997   3.926   7.180
    1AU     LIG   62   6.265   3.612   7.394
    1AU     LIG   63   6.446   3.470   7.801
    1AU       S   64   5.892   5.050   6.854
    1AU     LIG   65   5.901   5.045   7.326
    1AU     LIG   66   6.147   5.041   7.744
    1AU     LIG   67   6.503   5.070   8.075
    1AU     LIG   68   6.895   5.175   8.343
    1AU    AUSL   69   5.327   5.092   6.914
    1AU    AUSL   70   5.082   5.480   6.920
    1AU     AUL   71   5.273   5.422   7.264
    1AU       S   72   5.345   5.034   7.038
    1AU     LIG   73   5.410   4.974   7.462
    1AU     LIG   74   5.682   4.811   7.796
    1AU     LIG   75   5.798   4.651   8.228
    1AU     LIG   76   5.931   4.626   8.684
    1AU       S   77   4.875   5.231   7.129
    1AU     LIG   78   4.923   5.223   7.596
    1AU     LIG   79   4.680   5.188   7.989
    1AU     LIG   80   4.539   5.204   8.436
    1AU     LIG   81   4.552   5.455   8.842
    1AU    AUSL   82   5.503   5.502   6.872
    1AU    AUSL   83   5.882   5.518   6.629
    1AU     AUL   84   5.769   5.446   7.038
    1AU       S   85   5.416   5.821   7.003
    1AU     LIG   86   5.670   5.799   7.392
    1AU     LIG   87   5.735   5.898   7.866
    1AU     LIG   88   5.775   5.946   8.352
    1AU     LIG   89   5.804   5.896   8.829
    1AU       S   90   6.003   5.786   6.815
    1AU     LIG   91   6.437   5.811   6.880
    1AU     LIG   92   6.694   6.065   7.168
    1AU     LIG   93   6.955   6.332   7.457
    1AU     LIG   94   7.381   6.441   7.633
    1AU    AUSL   95   5.705   5.333   5.370
    1AU    AUSL   96   5.649   5.770   5.323
    1AU     AUL   97   5.812   5.652   5.075
    1AU       S   98   5.642   5.368   4.770
    1AU     LIG   99   6.090   5.363   4.677
    1AU     LIG  100   6.247   5.122   4.312
    1AU     LIG  101   6.295   4.994   3.867
    1AU     LIG  102   6.483   5.047   3.443
    1AU       S  103   6.000   5.981   5.347
    1AU     LIG  104   6.075   6.159   4.932
    1AU     LIG  105   6.255   6.345   4.524
    1AU     LIG  106   6.494   6.662   4.274
    1AU     LIG  107   6.728   6.965   4.014
    1AU    AUSL  108   5.515   5.055   5.089
    1AU    AUSL  109   5.988   5.023   5.443
    1AU     AUL  110   5.906   5.192   5.148
    1AU       S  111   6.098   4.757   5.214
    1AU     LIG  112   6.227   4.423   4.871
    1AU     LIG  113   6.468   4.038   4.729
    1AU     LIG  114   6.735   3.759   4.449
    1AU     LIG  115   7.143   3.743   4.192
    1AU       S  116   5.650   5.150   4.752
    1AU     LIG  117   5.903   4.842   4.589
    1AU     LIG  118   5.949   4.708   4.146
    1AU     LIG  119   5.870   4.756   3.685
    1AU     LIG  120   6.051   4.835   3.262
    1AU    AUSL  121   5.359   5.483   5.170
    1AU    AUSL  122   5.123   5.103   5.260
    1AU     AUL  123   5.232   5.126   4.940
    1AU       S  124   4.776   5.127   4.812
    1AU     LIG  125   4.860   4.830   4.493
    1AU     LIG  126   4.691   4.629   4.100
    1AU     LIG  127   4.507   4.694   3.668
    1AU     LIG  128   4.587   4.780   3.216
    1AU       S  129   5.425   5.531   4.820
    1AU     LIG  130   5.468   5.363   4.319
    1AU     LIG  131   5.809   5.196   4.009
    1AU     LIG  132   5.965   5.255   3.559
    1AU     LIG  133   5.907   5.491   3.156
    1AU    AUSL  134   4.682   5.435   6.744
    1AU    AUSL  135   5.017   5.783   6.629
    1AU     AUL  136   4.864   5.724   6.963
    1AU       S  137   4.669   5.336   7.170
    1AU     LIG  138   4.481   4.995   7.407
    1AU     LIG  139   4.267   4.925   7.825
    1AU     LIG  140   4.111   4.958   8.274
    1AU     LIG  141   3.767   5.076   8.584
    1AU       S  142   4.606   6.037   6.703
    1AU     LIG  143   4.623   6.206   7.116
    1AU     LIG  144   4.466   6.446   7.501
    1AU     LIG  145   4.188   6.741   7.748
    1AU     LIG  146   4.032   6.901   8.174
    1AU    AUSL  147   4.989   5.142   6.660
    1AU    AUSL  148   4.573   5.007   6.643
    1AU     AUL  149   4.471   5.240   6.762
    1AU       S  150   4.485   4.784   6.899
    1AU     LIG  151   4.053   4.654   6.715
    1AU     LIG  152   3.842   4.250   6.844
    1AU     LIG  153   3.640   3.912   7.105
    1AU     LIG  154   3.273   3.770   7.371
    1AU       S  155   4.848   5.091   7.052
    1AU     LIG  156   4.953   4.777   7.367
    1AU     LIG  157   4.752   4.715   7.770
    1AU     LIG  158   4.571   4.719   8.199
    1AU     LIG  159   4.445   4.562   8.612
    1AU    AUSL  160   4.699   5.193   5.298
    1AU    AUSL  161   4.884   4.800   5.441
    1AU     AUL  162   4.926   4.825   5.129
    1AU       S  163   4.573   5.073   4.937
    1AU     LIG  164   4.356   4.899   4.574
    1AU     LIG  165   4.275   4.930   4.112
    1AU     LIG  166   4.030   4.929   3.710
    1AU     LIG  167   3.593   5.077   3.585
    1AU       S  168   4.511   4.710   5.298
    1AU     LIG  169   4.547   4.432   5.000
    1AU     LIG  170   4.226   4.117   4.869
    1AU     LIG  171   3.878   3.917   4.615
    1AU     LIG  172   3.644   3.712   4.253
    1AU    AUSL  173   4.946   5.488   5.078
    1AU    AUSL  174   4.540   5.580   5.436
    1AU     AUL  175   4.588   5.492   5.132
    1AU       S  176   4.263   5.809   5.254
    1AU     LIG  177   4.112   5.917   4.850
    1AU     LIG  178   3.991   6.243   4.563
    1AU     LIG  179   3.665   6.443   4.308
    1AU     LIG  180   3.191   6.455   4.207
    1AU       S  181   4.854   5.365   4.766
    1AU     LIG  182   4.641   5.278   4.348
    1AU     LIG  183   4.709   5.123   3.915
    1AU     LIG  184   4.634   5.220   3.468
    1AU     LIG  185   4.758   5.462   3.072
    1AU    AUSL  186   6.046   5.797   5.987
    1AU    AUSL  187   5.998   5.568   5.574
    1AU     AUL  188   6.351   5.871   5.682
    1AU       S  189   6.099   5.611   5.427
    1AU     LIG  190   6.320   5.702   5.055
    1AU     LIG  191   6.548   5.993   4.778
    1AU     LIG  192   6.785   6.308   4.527
    1AU     LIG  193   7.030   6.612   4.264
    1AU       S  194   6.371   5.920   6.135
    1AU     LIG  195   6.814   6.006   5.913
    1AU     LIG  196   7.273   6.131   5.965
    1AU     LIG  197   7.509   6.524   6.087
    1AU     LIG  198   7.780   6.781   6.373
    1AU    AUSL  199   6.212   5.389   5.905
    1AU    AUSL  200   6.136   5.092   6.250
    1AU     AUL  201   6.414   5.267   6.325
    1AU       S  202   6.389   5.475   5.915
    1AU     LIG  203   6.756   5.531   5.694
    1AU     LIG  204   7.205   5.656   5.747
    1AU     LIG  205   7.661   5.736   5.764
    1AU     LIG  206   8.046   5.509   5.558
    1AU       S  207   6.431   4.832   6.114
    1AU     LIG  208   6.881   4.698   6.155
    1AU     LIG  209   7.274   4.464   6.223
    1AU     LIG  210   7.686   4.349   6.335
    1AU     LIG  211   8.086   4.511   6.490
    1AU    AUSL  212   5.904   5.446   6.213
    1AU    AUSL  213   5.858   5.890   6.361
    1AU     AUL  214   6.125   5.630   6.392
    1AU       S  215   6.068   6.045   6.618
    1AU     LIG  216   6.308   6.322   6.907
    1AU     LIG  217   6.630   6.589   7.141
    1AU     LIG  218   6.871   6.967   7.313
    1AU     LIG  219   6.976   7.456   7.267
    1AU       S  220   6.497   5.690   6.126
    1AU     LIG  221   6.929   5.574   6.185
    1AU     LIG  222   7.387   5.696   6.230
    1AU     LIG  223   7.793   5.663   6.455
    1AU     LIG  224   8.085   5.931   6.671
    1AU    AUSL  225   4.596   5.882   6.011
    1AU    AUSL  226   4.668   5.670   6.393
    1AU     AUL  227   4.361   5.990   6.234
    1AU       S  228   4.517   5.849   6.642
    1AU     LIG  229   4.352   5.756   7.044
    1AU     LIG  230   4.142   6.094   7.303
    1AU     LIG  231   3.885   6.355   7.596
    1AU     LIG  232   3.572   6.448   7.947
    1AU       S  233   4.603   6.277   5.942
    1AU     LIG  234   4.139   6.242   5.826
    1AU     LIG  235   3.658   6.322   5.833
    1AU     LIG  236   3.214   6.515   5.864
    1AU     LIG  237   2.803   6.685   6.032
    1AU    AUSL  238   4.546   5.478   5.842
    1AU    AUSL  239   4.696   5.957   5.603
    1AU     AUL  240   4.380   5.825   5.711
    1AU       S  241   4.185   5.290   5.473
    1AU     LIG  242   3.874   5.660   5.555
    1AU     LIG  243   3.449   5.872   5.661
    1AU     LIG  244   3.100   6.151   5.493
    1AU     LIG  245   2.626   6.200   5.443
    1AU       S  246   4.536   6.196   5.435
    1AU     LIG  247   4.245   6.370   5.101
    1AU     LIG  248   4.248   6.650   4.728
    1AU     LIG  249   3.974   6.988   4.571
    1AU     LIG  250   3.652   7.257   4.768
    1AU    AUSL  251   4.314   5.535   6.213
    1AU    AUSL  252   4.271   5.164   5.918
    1AU     AUL  253   4.150   5.482   5.920
    1AU       S  254   4.075   5.095   6.201
    1AU     LIG  255   3.753   5.153   5.884
    1AU     LIG  256   3.388   4.897   5.726
    1AU     LIG  257   2.975   4.680   5.727
    1AU     LIG  258   2.569   4.817   5.623
    1AU       S  259   4.187   5.562   6.425
    1AU     LIG  260   3.758   5.543   6.247
    1AU     LIG  261   3.317   5.693   6.390
    1AU     LIG  262   2.884   5.921   6.387
    1AU     LIG  263   2.485   6.213   6.361
    1AU    AUSL  264   5.957   4.719   6.078
    1AU    AUSL  265   5.753   4.975   6.394
    1AU     AUL  266   6.105   4.896   6.459
    1AU       S  267   6.243   4.615   6.097
    1AU     LIG  268   6.558   4.298   6.067
    1AU     LIG  269   6.984   4.107   5.997
    1AU     LIG  270   7.436   3.956   6.067
    1AU     LIG  271   7.765   3.845   6.372
    1AU       S  272   5.966   4.464   6.523
    1AU     LIG  273   6.260   4.276   6.861
    1AU     LIG  274   6.515   4.019   7.175
    1AU     LIG  275   6.745   3.804   7.521
    1AU     LIG  276   7.057   3.872   7.877
    1AU    AUSL  277   5.919   5.090   5.854
    1AU    AUSL  278   5.864   4.653   5.659
    1AU     AUL  279   6.134   4.830   5.696
    1AU       S  280   6.479   4.973   5.944
    1AU     LIG  281   6.660   4.645   5.691
    1AU     LIG  282   7.116   4.517   5.718
    1AU     LIG  283   7.558   4.377   5.793
    1AU     LIG  284   7.961   4.304   5.585
    1AU       S  285   6.063   4.514   5.344
    1AU     LIG  286   6.080   4.063   5.232
    1AU     LIG  287   6.249   3.671   5.014
    1AU     LIG  288   6.533   3.373   4.773
    1AU     LIG  289   6.685   2.914   4.756
    1AU    AUSL  290   4.467   4.793   6.073
    1AU    AUSL  291   4.590   5.025   5.674
    1AU     AUL  292   4.227   4.870   5.798
    1AU       S  293   4.393   4.837   5.367
    1AU     LIG  294   4.060   4.499   5.202
    1AU     LIG  295   3.718   4.229   5.004
    1AU     LIG  296   3.370   4.022   4.757
    1AU     LIG  297   3.028   4.054   4.435
    1AU       S  298   4.052   4.867   6.243
    1AU     LIG  299   3.711   4.668   6.059
    1AU     LIG  300   3.266   4.548   6.129
    1AU     LIG  301   2.901   4.374   6.372
    1AU     LIG  302   2.564   4.020   6.319
    1AU    AUSL  303   4.549   5.181   6.259
    1AU    AUSL  304   4.800   4.792   6.345
    1AU     AUL  305   4.468   4.752   6.407
    1AU       S  306   4.517   4.563   6.831
    1AU     LIG  307   4.341   4.149   6.706
    1AU     LIG  308   4.022   3.760   6.748
    1AU     LIG  309   3.722   3.420   6.940
    1AU     LIG  310   3.279   3.327   7.107
    1AU       S  311   4.144   5.092   6.382
    1AU     LIG  312   3.619   5.068   6.392
    1AU     LIG  313   3.204   5.053   6.182
    1AU     LIG  314   2.773   4.883   6.162
    1AU     LIG  315   2.443   4.659   6.421
    1AU    AUSL  316   5.283   6.091   6.489
    1AU    AUSL  317   4.866   6.045   6.309
    1AU     AUL  318   5.068   6.121   6.713
    1AU       S  319   4.727   6.247   6.417
    1AU     LIG  320   4.397   6.479   6.725
    1AU     LIG  321   4.156   6.623   7.133
    1AU     LIG  322   3.940   7.009   7.356
    1AU     LIG  323   3.701   7.453   7.366
    1AU       S  324   5.374   6.435   6.456
    1AU     LIG  325   5.516   6.531   6.835
    1AU     LIG  326   5.508   6.960   7.017
    1AU     LIG  327   5.586   7.392   7.174
    1AU     LIG  328   5.632   7.700   7.530
    1AU    AUSL  329   5.152   6.261   6.082
    1AU    AUSL  330   5.448   6.188   5.738
    1AU     AUL  331   5.398   6.546   5.880
    1AU       S  332   5.176   6.498   6.288
    1AU     LIG  333   5.330   6.925   6.515
    1AU     LIG  334   5.339   7.370   6.694
    1AU     LIG  335   5.100   7.796   6.684
    1AU     LIG  336   4.841   8.157   6.865
    1AU       S  337   5.163   6.387   5.524
    1AU     LIG  338   5.496   6.777   5.443
    1AU     LIG  339   5.725   7.220   5.349
    1AU     LIG  340   5.988   7.660   5.314
    1AU     LIG  341   6.170   8.122   5.271
    1AU    AUSL  342   5.520   6.014   6.133
    1AU    AUSL  343   5.495   5.726   6.524
    1AU     AUL  344   5.598   6.049   6.581
    1AU       S  345   5.882   5.914   6.909
    1AU     LIG  346   6.149   6.007   7.278
    1AU     LIG  347   6.415   6.314   7.523
    1AU     LIG  348   6.666   6.627   7.773
    1AU     LIG  349   6.708   6.846   8.191
    1AU       S  350   5.622   6.320   6.211
    1AU     LIG  351   5.801   6.701   6.430
    1AU     LIG  352   5.810   7.132   6.637
    1AU     LIG  353   5.823   7.583   6.762
    1AU     LIG  354   5.886   8.029   6.693
    1AU    AUSL  355   5.177   4.575   6.438
    1AU    AUSL  356   5.592   4.588   6.270
    1AU     AUL  357   5.402   4.442   6.648
    1AU       S  358   5.146   4.092   6.479
    1AU     LIG  359   4.906   3.968   6.830
    1AU     LIG  360   4.857   3.510   6.940
    1AU     LIG  361   4.886   3.034   6.958
    1AU     LIG  362   4.711   2.642   7.174
    1AU       S  363   5.766   4.371   6.348
    1AU     LIG  364   5.999   3.965   6.542
    1AU     LIG  365   6.304   3.699   6.835
    1AU     LIG  366   6.660   3.474   7.093
    1AU     LIG  367   6.881   3.026   7.128
    1AU    AUSL  368   4.856   4.421   6.155
    1AU    AUSL  369   4.965   4.739   6.765
    1AU     AUL  370   4.845   4.457   6.519
    1AU       S  371   4.954   4.042   6.321
    1AU     LIG  372   4.760   3.650   6.446
    1AU     LIG  373   4.601   3.218   6.565
    1AU     LIG  374   4.505   2.771   6.702
    1AU     LIG  375   4.616   2.312   6.765
    1AU       S  376   4.758   4.629   6.952
    1AU     LIG  377   4.585   4.220   7.170
    1AU     LIG  378   4.175   3.978   7.184
    1AU     LIG  379   3.959   3.612   7.391
    1AU     LIG  380   4.028   3.385   7.806
    1AU    AUSL  381   5.293   4.336   6.097
    1AU    AUSL  382   5.056   4.592   5.810
    1AU     AUL  383   4.949   4.244   5.901
    1AU       S  384   5.307   4.166   5.631
    1AU     LIG  385   4.956   3.812   5.629
    1AU     LIG  386   4.754   3.353   5.574
    1AU     LIG  387   4.730   2.864   5.488
    1AU     LIG  388   4.624   2.480   5.238
    1AU       S  389   5.303   4.133   6.229
    1AU     LIG  390   5.259   3.648   6.262
    1AU     LIG  391   5.132   3.284   6.540
    1AU     LIG  392   5.336   2.880   6.678
    1AU     LIG  393   5.762   2.656   6.656
    1AU    AUSL  394   5.266   5.946   5.396
    1AU    AUSL  395   5.700   5.850   5.741
    1AU     AUL  396   5.550   6.115   5.395
    1AU       S  397   5.156   6.376   5.318
    1AU     LIG  398   5.464   6.494   5.027
    1AU     LIG  399   5.535   6.948   4.934
    1AU     LIG  400   5.497   7.311   4.633
    1AU     LIG  401   5.569   7.607   4.266
    1AU       S  402   5.943   6.061   5.612
    1AU     LIG  403   6.355   6.301   5.368
    1AU     LIG  404   6.527   6.488   4.951
    1AU     LIG  405   6.799   6.803   4.693
    1AU     LIG  406   7.143   7.151   4.678
    1AU    AUSL  407   5.071   5.964   5.791
    1AU    AUSL  408   4.973   5.646   5.465
    1AU     AUL  409   4.946   5.963   5.338
    1AU       S  410   4.989   6.339   5.641
    1AU     LIG  411   5.008   6.844   5.579
    1AU     LIG  412   5.190   7.236   5.363
    1AU     LIG  413   5.048   7.704   5.312
    1AU     LIG  414   4.777   8.033   5.094
    1AU       S  415   4.530   5.965   5.151
    1AU     LIG  416   4.555   6.164   4.740
    1AU     LIG  417   4.437   6.359   4.341
    1AU     LIG  418   4.143   6.684   4.190
    1AU     LIG  419   4.136   7.152   4.068
    1AU    AUSL  420   5.257   4.589   5.413
    1AU    AUSL  421   4.640   4.585   5.739
    1AU     AUL  422   4.908   4.442   5.468
    1AU       S  423   4.452   4.556   5.530
    1AU     LIG  424   4.389   4.147   5.406
    1AU     LIG  425   4.006   3.907   5.287
    1AU     LIG  426   3.671   3.689   5.037
    1AU     LIG  427   3.456   3.274   4.937
    1AU       S  428   5.310   4.177   5.432
    1AU     LIG  429   5.292   3.724   5.260
    1AU     LIG  430   5.033   3.312   5.141
    1AU     LIG  431   4.820   2.905   4.967
    1AU     LIG  432   4.730   2.619   4.579
    1AU    AUSL  433   5.482   4.577   5.805
    1AU    AUSL  434   5.546   4.898   5.477
    1AU     AUL  435   5.602   4.542   5.420
    1AU       S  436   5.555   4.200   5.733
    1AU     LIG  437   5.447   3.724   5.781
    1AU     LIG  438   5.265   3.325   5.605
    1AU     LIG  439   5.235   2.887   5.395
    1AU     LIG  440   5.388   2.424   5.418
    1AU       S  441   5.861   4.718   5.090
    1AU     LIG  442   5.724   4.322   4.964
    1AU     LIG  443   5.943   3.978   4.727
    1AU     LIG  444   6.204   3.669   4.474
    1AU     LIG  445   6.417   3.557   4.068
    2POPC   NC3  446  10.065   5.818   8.069
    2POPC   PO4  447   0.016   5.323   7.937
    2POPC   GL1  448  10.287   5.469   7.651
    2POPC   GL2  449   9.951   5.563   7.660
    2POPC   C1A  450  10.156   5.370   7.240
    2POPC   D2A  451  10.345   5.400   6.857
    2POPC   C3A  452  10.116   5.425   6.445
    2POPC   C4A  453  10.142   5.389   5.959
    2POPC   C1B  454  10.233   5.883   7.406
    2POPC   C2B  455  10.301   5.942   6.982
    2POPC   C3B  456  10.072   5.920   6.613
    2POPC   C4B  457  10.204   5.852   6.197
    3POPC   NC3  458   0.466   9.306   8.306
    3POPC   PO4  459   0.622   9.637   7.792
    3POPC   GL1  460   0.448   9.485   7.451
    3POPC   GL2  461   0.273   9.218   7.506
    3POPC   C1A  462   0.210   9.597   7.151
    3POPC   D2A  463   0.361   9.718   6.794
    3POPC   C3A  464   0.071   9.673   6.508
    3POPC   C4A  465   0.254   9.718   6.138
    3POPC   C1B  466   0.257   9.003   7.118
    3POPC   C2B  467   0.541   9.090   6.757
    3POPC   C3B  468   0.440   9.340   6.405
    3POPC   C4B  469   0.502   9.322   5.914
    4POPC   NC3  470   9.372   7.512   8.218
    4POPC   PO4  471   9.015   6.921   8.088
    4POPC   GL1  472   9.300   7.156   7.827
    4POPC   GL2  473   9.646   6.991   7.811
    4POPC   C1A  474   9.213   7.138   7.395
    4POPC   D2A  475   9.237   6.980   6.982
    4POPC   C3A  476   9.212   7.186   6.579
    4POPC   C4A  477   9.197   7.088   6.151
    4POPC   C1B  478   9.715   7.214   7.431
    4POPC   C2B  479   9.759   7.123   7.020
    4POPC   C3B  480   9.831   7.171   6.601
    4POPC   C4B  481   9.612   7.374   6.278
    5POPC   NC3  482   5.901   8.549   8.127
    5POPC   PO4  483   5.699   9.185   8.169
    5POPC   GL1  484   5.889   8.925   7.787
    5POPC   GL2  485   5.620   8.941   7.521
    5POPC   C1A  486   6.109   8.968   7.405
    5POPC   D2A  487   5.844   9.196   7.060
    5POPC   C3A  488   5.781   9.070   6.612
    5POPC   C4A  489   5.653   8.771   6.300
    5POPC   C1B  490   5.759   8.689   7.157
    5POPC   C2B  491   5.591   8.527   6.762
    5POPC   C3B  492   5.542   8.265   6.394
    5POPC   C4B  493   5.686   8.239   5.970
    6POPC   NC3  494   6.500   1.850   8.089
    6POPC   PO4  495   6.101   2.360   7.997
    6POPC   GL1  496   6.457   2.129   7.661
    6POPC   GL2  497   6.403   1.765   7.599
    6POPC   C1A  498   6.539   2.058   7.178
    6POPC   D2A  499   6.310   2.243   6.796
    6POPC   C3A  500   6.579   2.342   6.411
    6POPC   C4A  501   6.426   2.284   5.976
    6POPC   C1B  502   6.652   1.509   7.310
    6POPC   C2B  503   6.745   1.615   6.905
    6POPC   C3B  504   6.627   1.884   6.645
    6POPC   C4B  505   6.391   1.886   6.286
    7POPC   NC3  506   9.133   5.830   7.954
    7POPC   PO4  507   8.818   5.293   8.159
    7POPC   GL1  508   8.836   5.345   7.730
    7POPC   GL2  509   8.538   5.490   7.606
    7POPC   C1A  510   8.969   5.469   7.323
    7POPC   D2A  511   8.970   5.625   6.870
    7POPC   C3A  512   8.919   5.490   6.437
    7POPC   C4A  513   8.906   5.631   6.033
    7POPC   C1B  514   8.518   5.630   7.146
    7POPC   C2B  515   8.488   5.449   6.720
    7POPC   C3B  516   8.422   5.601   6.302
    7POPC   C4B  517   8.088   5.653   6.035
    8POPC   NC3  518   3.736   9.626   8.054
    8POPC   PO4  519   3.198   9.946   8.132
    8POPC   GL1  520   3.155   9.776   7.721
    8POPC   GL2  521   3.253   9.430   7.780
    8POPC   C1A  522   3.327   9.830   7.297
    8POPC   D2A  523   3.149   9.728   6.880
    8POPC   C3A  524   3.464   9.595   6.598
    8POPC   C4A  525   3.448   9.437   6.161
    8POPC   C1B  526   3.425   9.211   7.425
    8POPC   C2B  527   3.449   9.245   6.987
    8POPC   C3B  528   3.555   9.064   6.567
    8POPC   C4B  529   3.770   8.949   6.189
    9POPC   NC3  530   2.611   7.869   8.448
    9POPC   PO4  531   3.033   8.216   8.079
    9POPC   GL1  532   2.669   7.977   7.860
    9POPC   GL2  533   2.445   8.183   7.699
    9POPC   C1A  534   2.576   7.783   7.404
    9POPC   D2A  535   2.840   7.648   7.032
    9POPC   C3A  536   2.687   7.675   6.601
    9POPC   C4A  537   2.499   7.522   6.232
    9POPC   C1B  538   2.868   8.204   7.432
    9POPC   C2B  539   2.988   8.140   7.012
    9POPC   C3B  540   3.002   8.076   6.555
    9POPC   C4B  541   2.794   7.963   6.158
   10POPC   NC3  542   8.551   6.943   8.159
   10POPC   PO4  543   8.554   7.544   8.200
   10POPC   GL1  544   8.811   7.392   7.799
   10POPC   GL2  545   8.778   7.034   7.658
   10POPC   C1A  546   8.789   7.493   7.306
   10POPC   D2A  547   8.511   7.678   6.935
   10POPC   C3A  548   8.434   7.491   6.488
   10POPC   C4A  549   8.422   7.531   6.016
   10POPC   C1B  550   8.761   6.997   7.203
   10POPC   C2B  551   8.752   7.181   6.797
   10POPC   C3B  552   8.728   7.025   6.363
   10POPC   C4B  553   8.754   7.152   5.908
   11POPC   NC3  554   6.148   9.115   8.176
   11POPC   PO4  555   6.333   8.411   8.169
   11POPC   GL1  556   6.305   8.549   7.734
   11POPC   GL2  557   6.571   8.788   7.719
   11POPC   C1A  558   6.418   8.596   7.267
   11POPC   D2A  559   6.679   8.424   6.953
   11POPC   C3A  560   6.547   8.514   6.528
   11POPC   C4A  561   6.430   8.522   6.090
   11POPC   C1B  562   6.710   8.990   7.350
   11POPC   C2B  563   6.602   8.946   6.909
   11POPC   C3B  564   6.643   8.998   6.475
   11POPC   C4B  565   6.199   8.952   6.260
   12POPC   NC3  566   4.983   1.130   8.033
   12POPC   PO4  567   5.326   1.730   8.041
   12POPC   GL1  568   4.971   1.524   7.712
   12POPC   GL2  569   5.030   1.192   7.540
   12POPC   C1A  570   4.766   1.511   7.259
   12POPC   D2A  571   5.035   1.487   6.863
   12POPC   C3A  572   4.804   1.516   6.470
   12POPC   C4A  573   4.847   1.442   6.009
   12POPC   C1B  574   4.960   1.015   7.148
   12POPC   C2B  575   4.813   1.065   6.744
   12POPC   C3B  576   5.016   1.071   6.343
   12POPC   C4B  577   4.624   1.001   6.143
   13POPC   NC3  578   0.172   9.540   7.879
   13POPC   PO4  579   9.948   9.443   8.072
   13POPC   GL1  580  10.170   9.592   7.734
   13POPC   GL2  581  10.284   9.246   7.685
   13POPC   C1A  582  10.138   9.854   7.353
   13POPC   D2A  583  10.279   9.774   6.927
   13POPC   C3A  584  10.097   9.891   6.537
   13POPC   C4A  585  10.220   9.692   6.139
   13POPC   C1B  586  10.277   9.347   7.270
   13POPC   C2B  587  10.402   9.270   6.854
   13POPC   C3B  588  10.122   9.363   6.546
   13POPC   C4B  589   9.987   9.256   6.163
   14POPC   NC3  590   1.607   5.551   8.375
   14POPC   PO4  591   0.948   5.569   8.202
   14POPC   GL1  592   1.135   5.538   7.747
   14POPC   GL2  593   1.359   5.280   7.582
   14POPC   C1A  594   1.115   5.809   7.355
   14POPC   D2A  595   1.253   5.664   6.922
   14POPC   C3A  596   1.115   5.887   6.526
   14POPC   C4A  597   1.148   5.701   6.116
   14POPC   C1B  598   0.974   5.336   7.305
   14POPC   C2B  599   0.818   5.375   6.845
   14POPC   C3B  600   0.853   5.376   6.374
   14POPC   C4B  601   0.852   5.322   5.904
   15POPC   NC3  602   8.535   3.391   7.994
   15POPC   PO4  603   8.623   4.009   7.803
   15POPC   GL1  604   8.733   3.637   7.519
   15POPC   GL2  605   8.706   3.246   7.521
   15POPC   C1A  606   8.861   3.540   7.078
   15POPC   D2A  607   8.614   3.447   6.704
   15POPC   C3A  608   8.850   3.367   6.362
   15POPC   C4A  609   8.816   3.576   5.984
   15POPC   C1B  610   8.388   3.394   7.206
   15POPC   C2B  611   8.198   3.670   6.905
   15POPC   C3B  612   8.115   3.502   6.501
   15POPC   C4B  613   8.379   3.551   6.201
   16POPC   NC3  614   0.475   2.766   8.065
   16POPC   PO4  615   0.323   2.104   8.138
   16POPC   GL1  616   0.323   2.387   7.737
   16POPC   GL2  617   0.117   2.708   7.711
   16POPC   C1A  618   0.093   2.408   7.319
   16POPC   D2A  619   0.122   2.655   6.930
   16POPC   C3A  620   0.384   2.539   6.566
   16POPC   C4A  621   0.084   2.432   6.247
   16POPC   C1B  622   0.414   2.807   7.343
   16POPC   C2B  623   0.432   3.067   6.962
   16POPC   C3B  624   0.305   3.046   6.529
   16POPC   C4B  625   0.426   2.852   6.144
   17POPC   NC3  626   8.887   7.850   8.102
   17POPC   PO4  627   8.482   8.174   7.778
   17POPC   GL1  628   8.670   7.995   7.476
   17POPC   GL2  629   8.970   7.855   7.602
   17POPC   C1A  630   8.657   8.257   7.139
   17POPC   D2A  631   8.339   8.266   6.879
   17POPC   C3A  632   8.505   8.074   6.559
   17POPC   C4A  633   8.606   8.197   6.139
   17POPC   C1B  634   9.092   7.961   7.183
   17POPC   C2B  635   8.991   8.123   6.770
   17POPC   C3B  636   8.957   7.925   6.383
   17POPC   C4B  637   8.912   7.496   6.269
   18POPC   NC3  638   2.868  10.116   8.414
   18POPC   PO4  639   3.106   0.089   7.934
   18POPC   GL1  640   3.316  10.343   7.626
   18POPC   GL2  641   3.555  10.105   7.765
   18POPC   C1A  642   3.537  10.326   7.232
   18POPC   D2A  643   3.446  10.173   6.795
   18POPC   C3A  644   3.602  10.413   6.401
   18POPC   C4A  645   3.406  10.337   5.963
   18POPC   C1B  646   3.823   9.892   7.451
   18POPC   C2B  647   3.812   9.851   7.015
   18POPC   C3B  648   3.836   9.949   6.586
   18POPC   C4B  649   3.561   9.937   6.238
   19POPC   NC3  650   9.627   8.362   7.931
   19POPC   PO4  651   9.281   7.950   8.337
   19POPC   GL1  652   9.471   7.845   7.848
   19POPC   GL2  653   9.432   8.097   7.556
   19POPC   C1A  654   9.385   7.611   7.448
   19POPC   D2A  655   9.222   7.495   7.006
   19POPC   C3A  656   9.343   7.669   6.583
   19POPC   C4A  657   9.339   7.748   6.098
   19POPC   C1B  658   9.617   8.183   7.221
   19POPC   C2B  659   9.487   8.062   6.852
   19POPC   C3B  660   9.438   8.145   6.418
   19POPC   C4B  661   9.719   8.077   6.065
   20POPC   NC3  662   8.400   9.170   8.262
   20POPC   PO4  663   9.022   8.920   8.169
   20POPC   GL1  664   8.766   9.097   7.764
   20POPC   GL2  665   8.588   9.407   7.728
   20POPC   C1A  666   8.615   9.123   7.290
   20POPC   D2A  667   8.772   9.180   6.863
   20POPC   C3A  668   8.580   9.134   6.476
   20POPC   C4A  669   8.800   9.146   6.099
   20POPC   C1B  670   8.891   9.535   7.394
   20POPC   C2B  671   8.938   9.643   6.958
   20POPC   C3B  672   8.608   9.632   6.651
   20POPC   C4B  673   8.645   9.613   6.233
   21POPC   NC3  674   9.464   4.669   8.539
   21POPC   PO4  675   9.385   4.514   7.893
   21POPC   GL1  676   9.495   4.824   7.648
   21POPC   GL2  677   9.533   5.143   7.834
   21POPC   C1A  678   9.492   4.777   7.202
   21POPC   D2A  679   9.204   4.792   6.908
   21POPC   C3A  680   9.321   4.748   6.508
   21POPC   C4A  681   9.006   4.659   6.229
   21POPC   C1B  682   9.669   5.229   7.395
   21POPC   C2B  683   9.375   5.293   7.086
   21POPC   C3B  684   9.289   5.254   6.687
   21POPC   C4B  685   9.448   5.201   6.300
   22POPC   NC3  686   0.855   0.876   8.125
   22POPC   PO4  687   1.443   0.742   8.011
   22POPC   GL1  688   1.173   0.873   7.688
   22POPC   GL2  689   1.066   1.207   7.774
   22POPC   C1A  690   1.199   1.048   7.268
   22POPC   D2A  691   1.387   1.091   6.888
   22POPC   C3A  692   1.206   0.885   6.576
   22POPC   C4A  693   1.180   1.079   6.205
   22POPC   C1B  694   1.334   1.459   7.514
   22POPC   C2B  695   1.263   1.568   7.080
   22POPC   C3B  696   1.086   1.468   6.672
   22POPC   C4B  697   1.388   1.521   6.365
   23POPC   NC3  698   6.889   8.707   8.113
   23POPC   PO4  699   7.348   9.192   8.121
   23POPC   GL1  700   7.078   9.051   7.773
   23POPC   GL2  701   7.225   8.712   7.714
   23POPC   C1A  702   7.213   9.052   7.338
   23POPC   D2A  703   7.108   8.808   6.968
   23POPC   C3A  704   7.237   8.907   6.528
   23POPC   C4A  705   7.041   8.791   6.151
   23POPC   C1B  706   7.007   8.491   7.391
   23POPC   C2B  707   7.161   8.282   7.015
   23POPC   C3B  708   7.068   8.435   6.606
   23POPC   C4B  709   6.908   8.322   6.219
   24POPC   NC3  710   0.022   6.407   8.165
   24POPC   PO4  711   9.952   6.647   8.064
   24POPC   GL1  712   9.772   6.436   7.718
   24POPC   GL2  713  10.082   6.257   7.710
   24POPC   C1A  714   9.825   6.277   7.263
   24POPC   D2A  715  10.008   6.366   6.874
   24POPC   C3A  716   9.797   6.385   6.504
   24POPC   C4A  717   9.765   6.085   6.221
   24POPC   C1B  718  10.320   6.381   7.322
   24POPC   C2B  719  10.489   6.431   6.885
   24POPC   C3B  720  10.327   6.364   6.440
   24POPC   C4B  721  10.463   6.582   6.056
   25POPC   NC3  722   5.353   0.347   8.263
   25POPC   PO4  723   4.658   0.098   8.238
   25POPC   GL1  724   4.792   0.354   7.812
   25POPC   GL2  725   4.913   0.701   7.761
   25POPC   C1A  726   4.951   0.237   7.373
   25POPC   D2A  727   5.087   0.412   6.987
   25POPC   C3A  728   4.999   0.129   6.644
   25POPC   C4A  729   5.104   0.146   6.222
   25POPC   C1B  730   4.677   0.661   7.390
   25POPC   C2B  731   4.618   0.641   6.944
   25POPC   C3B  732   4.840   0.604   6.537
   25POPC   C4B  733   4.958   0.620   6.110
   26POPC   NC3  734   5.855   1.191   8.073
   26POPC   PO4  735   5.361   0.774   8.022
   26POPC   GL1  736   5.504   0.993   7.626
   26POPC   GL2  737   5.509   1.370   7.643
   26POPC   C1A  738   5.475   1.096   7.149
   26POPC   D2A  739   5.758   1.247   6.770
   26POPC   C3A  740   5.590   1.045   6.378
   26POPC   C4A  741   5.403   0.848   6.021
   26POPC   C1B  742   5.698   1.528   7.228
   26POPC   C2B  743   5.504   1.723   6.856
   26POPC   C3B  744   5.454   1.577   6.456
   26POPC   C4B  745   5.834   1.456   6.232
   27POPC   NC3  746   9.219   5.097   8.288
   27POPC   PO4  747   9.594   5.690   8.057
   27POPC   GL1  748   9.443   5.638   7.610
   27POPC   GL2  749   9.607   5.959   7.587
   27POPC   C1A  750   9.291   5.831   7.212
   27POPC   D2A  751   9.460   6.066   6.862
   27POPC   C3A  752   9.228   5.914   6.521
   27POPC   C4A  753   9.316   5.925   6.114
   27POPC   C1B  754   9.788   5.742   7.212
   27POPC   C2B  755   9.811   5.464   6.880
   27POPC   C3B  756   9.642   5.626   6.541
   27POPC   C4B  757   9.719   5.588   6.145
   28POPC   NC3  758   5.318   9.088   7.912
   28POPC   PO4  759   5.736   9.671   8.011
   28POPC   GL1  760   5.577   9.457   7.696
   28POPC   GL2  761   5.900   9.386   7.616
   28POPC   C1A  762   5.390   9.330   7.286
   28POPC   D2A  763   5.170   9.433   6.903
   28POPC   C3A  764   5.341   9.335   6.512
   28POPC   C4A  765   5.429   9.552   6.145
   28POPC   C1B  766   5.809   9.666   7.305
   28POPC   C2B  767   5.602   9.751   6.927
   28POPC   C3B  768   5.754   9.623   6.534
   28POPC   C4B  769   5.958   9.429   6.205
   29POPC   NC3  770   9.577   2.614   8.230
   29POPC   PO4  771   9.728   3.214   8.127
   29POPC   GL1  772   9.633   2.911   7.777
   29POPC   GL2  773   9.262   2.803   7.719
   29POPC   C1A  774   9.623   2.686   7.372
   29POPC   D2A  775   9.283   2.769   7.055
   29POPC   C3A  776   9.429   2.849   6.635
   29POPC   C4A  777   9.633   2.586   6.322
   29POPC   C1B  778   9.190   2.420   7.443
   29POPC   C2B  779   9.135   2.280   7.042
   29POPC   C3B  780   9.275   2.354   6.637
   29POPC   C4B  781   9.165   2.380   6.217
   30POPC   NC3  782   2.672   3.416   8.479
   30POPC   PO4  783   2.299   3.163   8.103
   30POPC   GL1  784   2.329   3.427   7.753
   30POPC   GL2  785   2.338   3.143   7.559
   30POPC   C1A  786   2.577   3.551   7.361
   30POPC   D2A  787   2.734   3.354   6.979
   30POPC   C3A  788   2.587   3.475   6.549
   30POPC   C4A  789   2.436   3.474   6.119
   30POPC   C1B  790   2.807   3.089   7.464
   30POPC   C2B  791   2.978   2.909   7.072
   30POPC   C3B  792   2.967   3.040   6.634
   30POPC   C4B  793   3.157   3.235   6.268
   31POPC   NC3  794   4.677  10.115   8.344
   31POPC   PO4  795   4.181   9.766   8.111
   31POPC   GL1  796   4.474   9.907   7.826
   31POPC   GL2  797   4.405  10.247   7.724
   31POPC   C1A  798   4.415   9.835   7.383
   31POPC   D2A  799   4.313  10.009   6.969
   31POPC   C3A  800   4.319   9.828   6.574
   31POPC   C4A  801   4.437   9.974   6.177
   31POPC   C1B  802   4.129  10.291   7.353
   31POPC   C2B  803   3.948  10.370   6.935
   31POPC   C3B  804   4.180  10.326   6.567
   31POPC   C4B  805   4.155   0.020   6.203
   32POPC   NC3  806   2.793   5.327   8.598
   32POPC   PO4  807   2.327   5.244   8.154
   32POPC   GL1  808   2.412   5.353   7.660
   32POPC   GL2  809   2.423   5.725   7.612
   32POPC   C1A  810   2.577   5.443   7.205
   32POPC   D2A  811   2.698   5.628   6.797
   32POPC   C3A  812   2.866   5.406   6.393
   32POPC   C4A  813   3.104   5.506   5.973
   32POPC   C1B  814   2.448   5.953   7.191
   32POPC   C2B  815   2.271   5.943   6.763
   32POPC   C3B  816   2.420   5.711   6.387
   32POPC   C4B  817   2.404   5.878   5.951
   33POPC   NC3  818   5.654  10.126   8.130
   33POPC   PO4  819   6.242  10.204   7.906
   33POPC   GL1  820   5.896  10.062   7.637
   33POPC   GL2  821   5.561  10.195   7.652
   33POPC   C1A  822   5.781  10.154   7.212
   33POPC   D2A  823   5.939  10.335   6.876
   33POPC   C3A  824   5.845  10.117   6.542
   33POPC   C4A  825   6.011  10.137   6.142
   33POPC   C1B  826   5.270  10.316   7.316
   33POPC   C2B  827   5.414  10.270   6.884
   33POPC   C3B  828   5.404  10.353   6.482
   33POPC   C4B  829   5.513  10.173   6.112
   34POPC   NC3  830   6.207   9.731   7.884
   34POPC   PO4  831   6.591   9.156   8.082
   34POPC   GL1  832   6.459   9.315   7.688
   34POPC   GL2  833   6.774   9.440   7.571
   34POPC   C1A  834   6.262   9.424   7.282
   34POPC   D2A  835   6.114   9.602   6.907
   34POPC   C3A  836   6.235   9.312   6.612
   34POPC   C4A  837   6.481   9.394   6.224
   34POPC   C1B  838   6.659   9.676   7.189
   34POPC   C2B  839   6.611   9.594   6.778
   34POPC   C3B  840   6.759   9.755   6.449
   34POPC   C4B  841   6.944   9.785   6.095
   35POPC   NC3  842   0.566   1.791   7.865
   35POPC   PO4  843  10.408   1.679   8.011
   35POPC   GL1  844   0.102   1.641   7.651
   35POPC   GL2  845   0.176   1.935   7.550
   35POPC   C1A  846   0.323   1.535   7.284
   35POPC   D2A  847   0.458   1.676   6.929
   35POPC   C3A  848   0.538   1.528   6.583
   35POPC   C4A  849   0.402   1.678   6.216
   35POPC   C1B  850   0.477   2.060   7.290
   35POPC   C2B  851   0.352   2.178   6.927
   35POPC   C3B  852   0.279   2.036   6.554
   35POPC   C4B  853   0.553   2.162   6.205
   36POPC   NC3  854   3.521   1.045   8.233
   36POPC   PO4  855   3.131   1.402   7.926
   36POPC   GL1  856   3.379   1.148   7.677
   36POPC   GL2  857   3.576   0.845   7.712
   36POPC   C1A  858   3.269   1.154   7.269
   36POPC   D2A  859   3.014   1.064   6.946
   36POPC   C3A  860   3.263   1.213   6.599
   36POPC   C4A  861   3.159   1.351   6.197
   36POPC   C1B  862   3.774   1.030   7.329
   36POPC   C2B  863   3.828   1.256   6.973
   36POPC   C3B  864   3.847   1.104   6.601
   36POPC   C4B  865   3.649   1.213   6.245
   37POPC   NC3  866   9.813   4.318   8.087
   37POPC   PO4  867   0.031   4.368   7.993
   37POPC   GL1  868  10.307   4.407   7.676
   37POPC   GL2  869  10.019   4.181   7.646
   37POPC   C1A  870  10.400   4.450   7.286
   37POPC   D2A  871  10.131   4.455   6.983
   37POPC   C3A  872  10.362   4.485   6.648
   37POPC   C4A  873  10.230   4.602   6.251
   37POPC   C1B  874  10.224   3.965   7.316
   37POPC   C2B  875  10.124   3.945   6.912
   37POPC   C3B  876   9.982   4.186   6.577
   37POPC   C4B  877  10.101   4.115   6.156
   38POPC   NC3  878   8.388   0.324   8.012
   38POPC   PO4  879   7.805   0.711   8.048
   38POPC   GL1  880   8.039   0.573   7.703
   38POPC   GL2  881   7.972   0.208   7.700
   38POPC   C1A  882   7.863   0.625   7.317
   38POPC   D2A  883   7.848   0.850   6.975
   38POPC   C3A  884   7.767   0.665   6.614
   38POPC   C4A  885   7.955   0.745   6.251
   38POPC   C1B  886   8.046   0.158   7.257
   38POPC   C2B  887   7.757   0.257   6.935
   38POPC   C3B  888   7.935   0.180   6.527
   38POPC   C4B  889   7.919   0.271   6.072
   39POPC   NC3  890   8.117   1.930   8.188
   39POPC   PO4  891   7.582   1.539   8.247
   39POPC   GL1  892   7.704   1.555   7.801
   39POPC   GL2  893   7.903   1.841   7.738
   39POPC   C1A  894   7.660   1.611   7.349
   39POPC   D2A  895   7.842   1.736   6.957
   39POPC   C3A  896   7.606   1.697   6.582
   39POPC   C4A  897   7.629   1.738   6.171
   39POPC   C1B  898   7.969   2.041   7.369
   39POPC   C2B  899   8.208   2.118   6.992
   39POPC   C3B  900   8.014   2.034   6.574
   39POPC   C4B  901   7.912   2.155   6.173
   40POPC   NC3  902  10.281   7.875   7.961
   40POPC   PO4  903   9.795   7.407   8.053
   40POPC   GL1  904   9.915   7.617   7.638
   40POPC   GL2  905   9.932   7.971   7.584
   40POPC   C1A  906   9.801   7.677   7.166
   40POPC   D2A  907   9.976   7.950   6.829
   40POPC   C3A  908  10.055   7.842   6.397
   40POPC   C4A  909  10.426   7.776   6.111
   40POPC   C1B  910  10.279   7.839   7.282
   40POPC   C2B  911  10.484   7.902   6.866
   40POPC   C3B  912  10.374   8.227   6.565
   40POPC   C4B  913  10.238   8.258   6.131
   41POPC   NC3  914   2.157   4.781   8.051
   41POPC   PO4  915   1.671   5.298   8.002
   41POPC   GL1  916   1.885   5.280   7.586
   41POPC   GL2  917   1.823   4.951   7.546
   41POPC   C1A  918   2.209   5.098   7.256
   41POPC   D2A  919   2.193   4.955   6.798
   41POPC   C3A  920   2.397   5.160   6.417
   41POPC   C4A  921   2.284   4.968   6.003
   41POPC   C1B  922   1.752   5.207   7.103
   41POPC   C2B  923   1.695   5.104   6.673
   41POPC   C3B  924   1.920   4.887   6.344
   41POPC   C4B  925   1.788   4.651   5.953
   42POPC   NC3  926   7.716   8.442   8.197
   42POPC   PO4  927   8.372   8.366   8.322
   42POPC   GL1  928   8.067   8.419   7.838
   42POPC   GL2  929   7.749   8.592   7.721
   42POPC   C1A  930   8.011   8.364   7.344
   42POPC   D2A  931   7.934   8.553   6.925
   42POPC   C3A  932   7.934   8.320   6.521
   42POPC   C4A  933   8.147   8.390   6.131
   42POPC   C1B  934   7.625   8.757   7.311
   42POPC   C2B  935   7.620   8.924   6.886
   42POPC   C3B  936   7.744   8.848   6.441
   42POPC   C4B  937   7.522   8.961   6.041
   43POPC   NC3  938   1.144   5.950   8.032
   43POPC   PO4  939   1.217   6.630   8.100
   43POPC   GL1  940   1.350   6.324   7.768
   43POPC   GL2  941   1.070   6.256   7.605
   43POPC   C1A  942   1.499   6.148   7.379
   43POPC   D2A  943   1.264   6.182   7.015
   43POPC   C3A  944   1.441   6.347   6.656
   43POPC   C4A  945   1.492   6.152   6.264
   43POPC   C1B  946   1.157   6.617   7.369
   43POPC   C2B  947   1.209   6.822   6.987
   43POPC   C3B  948   1.259   6.919   6.564
   43POPC   C4B  949   1.152   6.587   6.299
   44POPC   NC3  950   1.458   3.183   8.373
   44POPC   PO4  951   0.878   2.999   8.032
   44POPC   GL1  952   1.140   3.189   7.673
   44POPC   GL2  953   1.261   3.551   7.735
   44POPC   C1A  954   1.219   3.312   7.249
   44POPC   D2A  955   1.161   3.583   6.917
   44POPC   C3A  956   1.244   3.321   6.621
   44POPC   C4A  957   1.056   3.274   6.258
   44POPC   C1B  958   1.462   3.760   7.362
   44POPC   C2B  959   1.669   3.552   7.014
   44POPC   C3B  960   1.602   3.688   6.612
   44POPC   C4B  961   1.410   3.620   6.231
   45POPC   NC3  962   1.171   9.489   7.883
   45POPC   PO4  963   0.755   8.975   8.151
   45POPC   GL1  964   0.799   9.151   7.680
   45POPC   GL2  965   0.954   9.490   7.443
   45POPC   C1A  966   0.766   9.094   7.234
   45POPC   D2A  967   1.067   9.329   6.959
   45POPC   C3A  968   0.904   9.454   6.590
   45POPC   C4A  969   0.890   9.189   6.252
   45POPC   C1B  970   1.340   9.627   7.273
   45POPC   C2B  971   1.471   9.726   6.887
   45POPC   C3B  972   1.416   9.488   6.562
   45POPC   C4B  973   1.251   9.512   6.191
   46POPC   NC3  974   8.853   2.533   8.408
   46POPC   PO4  975   8.403   3.013   8.237
   46POPC   GL1  976   8.456   2.843   7.778
   46POPC   GL2  977   8.754   2.600   7.754
   46POPC   C1A  978   8.340   2.878   7.305
   46POPC   D2A  979   8.559   2.984   6.919
   46POPC   C3A  980   8.383   3.025   6.503
   46POPC   C4A  981   8.577   3.002   6.127
   46POPC   C1B  982   8.804   2.696   7.297
   46POPC   C2B  983   8.638   2.473   6.921
   46POPC   C3B  984   8.690   2.607   6.493
   46POPC   C4B  985   9.029   2.858   6.321
   47POPC   NC3  986   0.464   8.600   8.054
   47POPC   PO4  987   0.070   9.145   8.108
   47POPC   GL1  988   0.107   8.809   7.745
   47POPC   GL2  989   0.470   8.750   7.548
   47POPC   C1A  990   0.047   8.506   7.404
   47POPC   D2A  991   0.137   8.394   6.985
   47POPC   C3A  992   0.296   8.653   6.651
   47POPC   C4A  993   0.148   8.540   6.226
   47POPC   C1B  994   0.609   8.629   7.092
   47POPC   C2B  995   0.797   8.407   6.723
   47POPC   C3B  996   0.845   8.703   6.385
   47POPC   C4B  997   0.486   8.892   6.188
   48POPC   NC3  998   2.828   0.512   8.030
   48POPC   PO4  999   2.555  10.420   8.224
   48POPC   GL1 1000   2.540   0.179   7.778
   48POPC   GL2 1001   2.634   0.521   7.578
   48POPC   C1A 1002   2.401   0.179   7.314
   48POPC   D2A 1003   2.541   0.464   6.970
   48POPC   C3A 1004   2.709   0.324   6.567
   48POPC   C4A 1005   2.493   0.366   6.168
   48POPC   C1B 1006   2.913   0.670   7.265
   48POPC   C2B 1007   3.072   0.564   6.866
   48POPC   C3B 1008   3.037   0.763   6.530
   48POPC   C4B 1009   2.908   0.657   6.187
   49POPC   NC3 1010   9.887   0.339   8.308
   49POPC   PO4 1011   9.689   0.845   7.875
   49POPC   GL1 1012   9.564   0.526   7.609
   49POPC   GL2 1013   9.217   0.476   7.616
   49POPC   C1A 1014   9.486   0.330   7.199
   49POPC   D2A 1015   9.149   0.175   6.916
   49POPC   C3A 1016   9.364   0.246   6.537
   49POPC   C4A 1017   9.660   0.210   6.182
   49POPC   C1B 1018   9.282   0.787   7.275
   49POPC   C2B 1019   9.218   0.694   6.878
   49POPC   C3B 1020   9.299   0.821   6.474
   49POPC   C4B 1021   9.334   0.587   6.157
   50POPC   NC3 1022   3.985   1.117   7.919
   50POPC   PO4 1023   4.592   1.402   8.070
   50POPC   GL1 1024   4.532   1.102   7.728
   50POPC   GL2 1025   4.378   0.763   7.811
   50POPC   C1A 1026   4.462   1.103   7.285
   50POPC   D2A 1027   4.374   1.346   6.929
   50POPC   C3A 1028   4.372   1.238   6.529
   50POPC   C4A 1029   4.364   1.507   6.168
   50POPC   C1B 1030   4.167   0.691   7.393
   50POPC   C2B 1031   4.142   0.850   6.979
   50POPC   C3B 1032   4.222   0.732   6.583
   50POPC   C4B 1033   4.115   0.943   6.207
   51POPC   NC3 1034   3.222   2.715   8.015
   51POPC   PO4 1035   3.790   2.800   8.094
   51POPC   GL1 1036   3.647   2.743   7.647
   51POPC   GL2 1037   3.428   2.431   7.630
   51POPC   C1A 1038   3.644   2.938   7.193
   51POPC   D2A 1039   3.449   2.986   6.768
   51POPC   C3A 1040   3.647   3.029   6.350
   51POPC   C4A 1041   3.527   3.159   5.902
   51POPC   C1B 1042   3.301   2.525   7.199
   51POPC   C2B 1043   3.156   2.539   6.770
   51POPC   C3B 1044   3.311   2.650   6.377
   51POPC   C4B 1045   3.217   2.352   6.034
   52POPC   NC3 1046   2.558   1.196   8.003
   52POPC   PO4 1047   2.871   1.633   8.379
   52POPC   GL1 1048   2.713   1.621   7.788
   52POPC   GL2 1049   2.827   1.260   7.571
   52POPC   C1A 1050   2.639   1.588   7.260
   52POPC   D2A 1051   2.879   1.528   6.831
   52POPC   C3A 1052   2.750   1.208   6.484
   52POPC   C4A 1053   2.562   1.350   6.079
   52POPC   C1B 1054   2.549   1.007   7.330
   52POPC   C2B 1055   2.359   0.962   6.911
   52POPC   C3B 1056   2.476   0.775   6.528
   52POPC   C4B 1057   2.444   0.867   6.098
   53POPC   NC3 1058   3.443   7.920   8.073
   53POPC   PO4 1059   3.908   8.414   8.049
   53POPC   GL1 1060   3.649   8.300   7.648
   53POPC   GL2 1061   3.322   8.123   7.642
   53POPC   C1A 1062   3.529   8.217   7.189
   53POPC   D2A 1063   3.409   8.295   6.776
   53POPC   C3A 1064   3.488   8.013   6.423
   53POPC   C4A 1065   3.296   8.080   6.025
   53POPC   C1B 1066   3.249   7.811   7.337
   53POPC   C2B 1067   3.355   7.784   6.895
   53POPC   C3B 1068   3.188   7.594   6.515
   53POPC   C4B 1069   3.163   7.599   6.074
   54POPC   NC3 1070   3.610   8.775   7.956
   54POPC   PO4 1071   3.055   8.983   7.978
   54POPC   GL1 1072   3.047   8.889   7.571
   54POPC   GL2 1073   3.235   8.617   7.593
   54POPC   C1A 1074   2.967   8.670   7.164
   54POPC   D2A 1075   3.254   8.776   6.876
   54POPC   C3A 1076   3.219   8.680   6.481
   54POPC   C4A 1077   3.219   8.958   6.145
   54POPC   C1B 1078   3.580   8.721   7.271
   54POPC   C2B 1079   3.780   8.650   6.827
   54POPC   C3B 1080   3.689   8.481   6.387
   54POPC   C4B 1081   3.520   8.566   5.943
   55POPC   NC3 1082   1.388   4.146   8.112
   55POPC   PO4 1083   0.991   4.581   8.052
   55POPC   GL1 1084   0.952   4.347   7.688
   55POPC   GL2 1085   1.090   4.038   7.706
   55POPC   C1A 1086   1.177   4.401   7.291
   55POPC   D2A 1087   1.266   4.579   6.867
   55POPC   C3A 1088   1.011   4.510   6.532
   55POPC   C4A 1089   1.077   4.406   6.131
   55POPC   C1B 1090   0.995   3.927   7.279
   55POPC   C2B 1091   1.335   4.061   6.936
   55POPC   C3B 1092   1.254   4.051   6.493
   55POPC   C4B 1093   0.929   3.749   6.388
   56POPC   NC3 1094   9.119   8.476   8.299
   56POPC   PO4 1095   9.625   8.832   8.016
   56POPC   GL1 1096   9.470   8.705   7.605
   56POPC   GL2 1097   9.200   8.846   7.682
   56POPC   C1A 1098   9.550   8.703   7.173
   56POPC   D2A 1099   9.313   8.534   6.792
   56POPC   C3A 1100   9.480   8.658   6.444
   56POPC   C4A 1101   9.475   8.535   6.040
   56POPC   C1B 1102   9.160   9.069   7.300
   56POPC   C2B 1103   9.262   9.028   6.871
   56POPC   C3B 1104   9.072   8.944   6.480
   56POPC   C4B 1105   9.291   9.018   6.075
   57POPC   NC3 1106   1.080   7.848   8.114
   57POPC   PO4 1107   1.408   8.293   7.821
   57POPC   GL1 1108   1.255   7.961   7.628
   57POPC   GL2 1109   0.887   7.956   7.655
   57POPC   C1A 1110   1.418   7.997   7.226
   57POPC   D2A 1111   1.502   7.748   6.913
   57POPC   C3A 1112   1.363   7.915   6.558
   57POPC   C4A 1113   1.540   7.821   6.213
   57POPC   C1B 1114   0.845   7.785   7.273
   57POPC   C2B 1115   0.988   7.907   6.905
   57POPC   C3B 1116   0.814   7.908   6.516
   57POPC   C4B 1117   1.003   7.962   6.169
   58POPC   NC3 1118   2.092   7.330   8.009
   58POPC   PO4 1119   1.477   7.594   8.045
   58POPC   GL1 1120   1.607   7.316   7.673
   58POPC   GL2 1121   1.922   7.299   7.538
   58POPC   C1A 1122   1.556   7.094   7.269
   58POPC   D2A 1123   1.768   7.302   6.913
   58POPC   C3A 1124   1.642   7.245   6.470
   58POPC   C4A 1125   1.695   6.818   6.243
   58POPC   C1B 1126   2.330   7.315   7.358
   58POPC   C2B 1127   2.387   7.411   6.931
   58POPC   C3B 1128   2.134   7.460   6.587
   58POPC   C4B 1129   2.081   7.212   6.200
   59POPC   NC3 1130   6.961   9.449   8.108
   59POPC   PO4 1131   7.533   9.856   8.049
   59POPC   GL1 1132   7.241   9.670   7.744
   59POPC   GL2 1133   7.431   9.401   7.659
   59POPC   C1A 1134   7.149   9.604   7.289
   59POPC   D2A 1135   6.940   9.305   7.011
   59POPC   C3A 1136   7.029   9.355   6.589
   59POPC   C4A 1137   7.000   9.285   6.166
   59POPC   C1B 1138   7.623   9.362   7.296
   59POPC   C2B 1139   7.422   9.372   6.926
   59POPC   C3B 1140   7.567   9.332   6.561
   59POPC   C4B 1141   7.491   9.438   6.208
   60POPC   NC3 1142   0.475   7.582   7.858
   60POPC   PO4 1143   0.674   8.190   8.061
   60POPC   GL1 1144   0.438   8.238   7.687
   60POPC   GL2 1145   0.172   7.986   7.621
   60POPC   C1A 1146   0.517   8.184   7.283
   60POPC   D2A 1147   0.488   8.033   6.891
   60POPC   C3A 1148   0.377   8.182   6.511
   60POPC   C4A 1149   0.613   8.317   6.189
   60POPC   C1B 1150   0.291   7.718   7.252
   60POPC   C2B 1151   0.461   7.545   6.866
   60POPC   C3B 1152   0.282   7.695   6.475
   60POPC   C4B 1153   0.469   7.860   6.081
   61POPC   NC3 1154   2.657   1.972   8.170
   61POPC   PO4 1155   2.059   2.207   8.272
   61POPC   GL1 1156   2.316   2.189   7.785
   61POPC   GL2 1157   2.659   2.123   7.679
   61POPC   C1A 1158   2.392   2.049   7.271
   61POPC   D2A 1159   2.585   1.929   6.822
   61POPC   C3A 1160   2.457   2.168   6.409
   61POPC   C4A 1161   2.325   2.196   5.914
   61POPC   C1B 1162   2.976   1.960   7.390
   61POPC   C2B 1163   3.102   2.059   6.963
   61POPC   C3B 1164   3.001   2.052   6.537
   61POPC   C4B 1165   2.770   1.708   6.358
   62POPC   NC3 1166   4.217   2.637   8.070
   62POPC   PO4 1167   4.644   3.104   7.880
   62POPC   GL1 1168   4.367   2.813   7.575
   62POPC   GL2 1169   4.135   2.496   7.582
   62POPC   C1A 1170   4.196   2.753   7.129
   62POPC   D2A 1171   3.985   2.969   6.780
   62POPC   C3A 1172   4.171   2.993   6.370
   62POPC   C4A 1173   3.994   2.971   5.964
   62POPC   C1B 1174   3.799   2.456   7.251
   62POPC   C2B 1175   3.691   2.548   6.810
   62POPC   C3B 1176   3.898   2.564   6.399
   62POPC   C4B 1177   4.356   2.475   6.306
   63POPC   NC3 1178   2.795   8.610   7.972
   63POPC   PO4 1179   2.315   9.138   8.059
   63POPC   GL1 1180   2.549   8.975   7.714
   63POPC   GL2 1181   2.599   8.633   7.525
   63POPC   C1A 1182   2.654   9.070   7.318
   63POPC   D2A 1183   2.530   8.873   6.975
   63POPC   C3A 1184   2.753   8.875   6.606
   63POPC   C4A 1185   2.594   8.876   6.208
   63POPC   C1B 1186   2.462   8.376   7.195
   63POPC   C2B 1187   2.606   8.392   6.783
   63POPC   C3B 1188   2.684   8.414   6.373
   63POPC   C4B 1189   3.008   8.489   6.075
   64POPC   NC3 1190   5.727   0.472   7.913
   64POPC   PO4 1191   5.279  10.412   8.076
   64POPC   GL1 1192   5.393   0.161   7.696
   64POPC   GL2 1193   5.354   0.497   7.560
   64POPC   C1A 1194   5.657   0.140   7.295
   64POPC   D2A 1195   5.556   0.237   6.848
   64POPC   C3A 1196   5.817   0.147   6.476
   64POPC   C4A 1197   5.706   0.139   6.017
   64POPC   C1B 1198   5.696   0.641   7.249
   64POPC   C2B 1199   5.636   0.731   6.804
   64POPC   C3B 1200   5.447   0.531   6.431
   64POPC   C4B 1201   5.827   0.602   6.211
   65POPC   NC3 1202   8.969   4.308   7.821
   65POPC   PO4 1203   9.487   4.074   8.302
   65POPC   GL1 1204   9.494   4.037   7.797
   65POPC   GL2 1205   9.654   3.780   7.660
   65POPC   C1A 1206   9.530   4.228   7.332
   65POPC   D2A 1207   9.527   4.360   6.866
   65POPC   C3A 1208   9.127   4.289   6.623
   65POPC   C4A 1209   9.183   4.127   6.230
   65POPC   C1B 1210   9.733   3.778   7.207
   65POPC   C2B 1211   9.639   3.836   6.773
   65POPC   C3B 1212   9.626   3.928   6.352
   65POPC   C4B 1213   9.621   4.388   6.279
   66POPC   NC3 1214   1.432  10.191   8.240
   66POPC   PO4 1215   0.870   0.024   8.122
   66POPC   GL1 1216   1.161  10.383   7.766
   66POPC   GL2 1217   1.268  10.025   7.752
   66POPC   C1A 1218   1.347  10.466   7.356
   66POPC   D2A 1219   1.300  10.213   6.946
   66POPC   C3A 1220   1.422  10.390   6.608
   66POPC   C4A 1221   1.340  10.393   6.215
   66POPC   C1B 1222   1.056  10.030   7.360
   66POPC   C2B 1223   0.952   9.844   6.935
   66POPC   C3B 1224   1.071   9.953   6.487
   66POPC   C4B 1225   1.168   9.965   6.022
   67POPC   NC3 1226  10.281   1.239   8.122
   67POPC   PO4 1227   0.524   1.198   8.121
   67POPC   GL1 1228   0.288   1.186   7.752
   67POPC   GL2 1229   0.581   1.252   7.616
   67POPC   C1A 1230   0.222   1.042   7.315
   67POPC   D2A 1231   0.046   1.249   6.970
   67POPC   C3A 1232   0.227   1.127   6.599
   67POPC   C4A 1233   0.293   1.027   6.175
   67POPC   C1B 1234   0.828   1.431   7.316
   67POPC   C2B 1235   0.769   1.193   6.963
   67POPC   C3B 1236   0.731   1.054   6.547
   67POPC   C4B 1237   0.744   1.309   6.179
   68POPC   NC3 1238   8.790   6.555   7.880
   68POPC   PO4 1239   8.761   5.935   7.695
   68POPC   GL1 1240   8.866   6.178   7.408
   68POPC   GL2 1241   8.887   6.537   7.403
   68POPC   C1A 1242   8.826   6.088   7.007
   68POPC   D2A 1243   8.555   6.114   6.682
   68POPC   C3A 1244   8.754   6.006   6.332
   68POPC   C4A 1245   8.923   6.176   5.975
   68POPC   C1B 1246   8.591   6.531   7.134
   68POPC   C2B 1247   8.641   6.628   6.719
   68POPC   C3B 1248   8.587   6.512   6.315
   68POPC   C4B 1249   8.397   6.827   6.012
   69POPC   NC3 1250   7.746   9.429   8.042
   69POPC   PO4 1251   8.137   8.861   8.049
   69POPC   GL1 1252   7.939   9.064   7.670
   69POPC   GL2 1253   8.065   9.383   7.645
   69POPC   C1A 1254   8.037   9.067   7.207
   69POPC   D2A 1255   8.260   9.296   6.872
   69POPC   C3A 1256   8.075   9.275   6.450
   69POPC   C4A 1257   8.273   9.335   6.051
   69POPC   C1B 1258   8.093   9.598   7.275
   69POPC   C2B 1259   7.865   9.611   6.900
   69POPC   C3B 1260   7.800   9.848   6.545
   69POPC   C4B 1261   7.938   9.718   6.154
   70POPC   NC3 1262   1.268   4.958   8.073
   70POPC   PO4 1263   1.741   4.434   8.140
   70POPC   GL1 1264   1.445   4.603   7.713
   70POPC   GL2 1265   1.142   4.812   7.626
   70POPC   C1A 1266   1.440   4.846   7.256
   70POPC   D2A 1267   1.262   5.126   6.965
   70POPC   C3A 1268   1.198   5.018   6.566
   70POPC   C4A 1269   1.419   4.759   6.281
   70POPC   C1B 1270   0.904   4.839   7.280
   70POPC   C2B 1271   0.789   4.797   6.911
   70POPC   C3B 1272   0.699   4.913   6.529
   70POPC   C4B 1273   0.930   4.891   6.151
   71POPC   NC3 1274  10.401   2.150   7.906
   71POPC   PO4 1275   9.846   2.238   8.309
   71POPC   GL1 1276   9.880   2.198   7.824
   71POPC   GL2 1277   9.995   1.890   7.725
   71POPC   C1A 1278  10.012   2.254   7.350
   71POPC   D2A 1279  10.271   2.260   6.961
   71POPC   C3A 1280  10.252   2.030   6.592
   71POPC   C4A 1281  10.453   1.940   6.186
   71POPC   C1B 1282  10.220   1.786   7.336
   71POPC   C2B 1283  10.461   1.773   6.983
   71POPC   C3B 1284   0.008   1.590   6.584
   71POPC   C4B 1285  10.456   1.427   6.193
   72POPC   NC3 1286   7.339   1.334   8.577
   72POPC   PO4 1287   7.143   0.926   8.116
   72POPC   GL1 1288   7.226   0.937   7.691
   72POPC   GL2 1289   7.266   1.296   7.685
   72POPC   C1A 1290   6.951   0.973   7.328
   72POPC   D2A 1291   6.681   1.008   6.975
   72POPC   C3A 1292   6.877   1.021   6.591
   72POPC   C4A 1293   7.037   0.968   6.182
   72POPC   C1B 1294   7.171   1.446   7.303
   72POPC   C2B 1295   7.113   1.293   6.955
   72POPC   C3B 1296   7.152   1.440   6.577
   72POPC   C4B 1297   7.265   1.406   6.167
   73POPC   NC3 1298  10.488   3.913   7.909
   73POPC   PO4 1299   0.661   3.932   7.994
   73POPC   GL1 1300   0.548   4.039   7.612
   73POPC   GL2 1301   0.339   4.329   7.578
   73POPC   C1A 1302   0.386   3.933   7.218
   73POPC   D2A 1303   0.092   4.121   6.953
   73POPC   C3A 1304  10.486   4.008   6.538
   73POPC   C4A 1305   0.110   4.277   6.231
   73POPC   C1B 1306   0.671   4.373   7.253
   73POPC   C2B 1307   0.805   4.178   6.875
   73POPC   C3B 1308   0.596   4.153   6.484
   73POPC   C4B 1309   0.586   4.491   6.212
   74POPC   NC3 1310   1.646   6.447   8.156
   74POPC   PO4 1311   1.829   6.960   7.989
   74POPC   GL1 1312   1.647   6.725   7.646
   74POPC   GL2 1313   1.845   6.393   7.654
   74POPC   C1A 1314   1.650   6.595   7.185
   74POPC   D2A 1315   1.687   6.791   6.780
   74POPC   C3A 1316   2.065   6.911   6.613
   74POPC   C4A 1317   2.347   6.731   6.303
   74POPC   C1B 1318   1.990   6.206   7.234
   74POPC   C2B 1319   2.056   6.427   6.861
   74POPC   C3B 1320   1.958   6.356   6.461
   74POPC   C4B 1321   1.977   5.941   6.266
   75POPC   NC3 1322   9.947   0.258   7.829
   75POPC   PO4 1323  10.147   0.800   8.273
   75POPC   GL1 1324  10.158   0.716   7.775
   75POPC   GL2 1325  10.435   0.807   7.690
   75POPC   C1A 1326   9.966   0.605   7.300
   75POPC   D2A 1327   9.939   0.320   6.926
   75POPC   C3A 1328   9.816   0.544   6.543
   75POPC   C4A 1329   9.965   0.597   6.124
   75POPC   C1B 1330  10.480   0.584   7.299
   75POPC   C2B 1331   0.028   0.515   6.874
   75POPC   C3B 1332  10.363   0.609   6.475
   75POPC   C4B 1333  10.356   0.263   6.171
   76POPC   NC3 1334   6.468   7.973   8.194
   76POPC   PO4 1335   6.854   7.571   8.016
   76POPC   GL1 1336   6.520   7.799   7.717
   76POPC   GL2 1337   6.171   8.013   7.788
   76POPC   C1A 1338   6.463   8.126   7.404
   76POPC   D2A 1339   6.215   8.176   7.054
   76POPC   C3A 1340   6.403   8.061   6.682
   76POPC   C4A 1341   6.489   8.040   6.262
   76POPC   C1B 1342   6.121   7.756   7.373
   76POPC   C2B 1343   6.310   7.642   6.963
   76POPC   C3B 1344   6.260   7.617   6.492
   76POPC   C4B 1345   6.007   7.881   6.201
   77POPC   NC3 1346   1.871   8.991   7.982
   77POPC   PO4 1347   1.611   8.462   8.280
   77POPC   GL1 1348   1.845   8.518   7.800
   77POPC   GL2 1349   2.208   8.611   7.869
   77POPC   C1A 1350   1.670   8.564   7.298
   77POPC   D2A 1351   1.609   8.816   6.889
   77POPC   C3A 1352   1.718   8.660   6.459
   77POPC   C4A 1353   1.794   8.734   6.003
   77POPC   C1B 1354   2.134   8.736   7.408
   77POPC   C2B 1355   2.080   8.619   6.970
   77POPC   C3B 1356   2.239   8.689   6.579
   77POPC   C4B 1357   2.217   8.539   6.207
   78POPC   NC3 1358   2.138  10.155   8.364
   78POPC   PO4 1359   1.631   0.083   8.030
   78POPC   GL1 1360   1.755  10.214   7.690
   78POPC   GL2 1361   2.049   9.949   7.496
   78POPC   C1A 1362   1.629  10.051   7.272
   78POPC   D2A 1363   1.825  10.107   6.821
   78POPC   C3A 1364   1.594   9.954   6.445
   78POPC   C4A 1365   1.660   9.769   6.069
   78POPC   C1B 1366   2.064  10.309   7.238
   78POPC   C2B 1367   2.202   0.022   6.850
   78POPC   C3B 1368   2.159  10.366   6.432
   78POPC   C4B 1369   2.087   9.944   6.325
   79POPC   NC3 1370   0.490   7.156   8.328
   79POPC   PO4 1371   0.014   7.462   7.916
   79POPC   GL1 1372   0.263   7.137   7.703
   79POPC   GL2 1373   0.629   7.082   7.787
   79POPC   C1A 1374   0.350   7.213   7.273
   79POPC   D2A 1375   0.124   7.161   6.916
   79POPC   C3A 1376   0.345   7.187   6.521
   79POPC   C4A 1377   0.682   7.448   6.315
   79POPC   C1B 1378   0.631   6.811   7.389
   79POPC   C2B 1379   0.402   6.715   6.978
   79POPC   C3B 1380   0.282   6.671   6.520
   79POPC   C4B 1381   0.442   6.869   6.141
   80POPC   NC3 1382   1.887   0.849   8.025
   80POPC   PO4 1383   2.135   1.464   7.988
   80POPC   GL1 1384   2.052   1.148   7.641
   80POPC   GL2 1385   1.677   1.010   7.586
   80POPC   C1A 1386   2.158   1.301   7.248
   80POPC   D2A 1387   2.193   1.643   6.989
   80POPC   C3A 1388   2.357   1.493   6.630
   80POPC   C4A 1389   2.170   1.182   6.370
   80POPC   C1B 1390   1.796   0.950   7.158
   80POPC   C2B 1391   1.883   1.229   6.808
   80POPC   C3B 1392   1.671   1.111   6.421
   80POPC   C4B 1393   1.551   0.725   6.228
   81POPC   NC3 1394   2.881  10.193   7.901
   81POPC   PO4 1395   2.222  10.122   7.910
   81POPC   GL1 1396   2.501  10.214   7.549
   81POPC   GL2 1397   2.824  10.414   7.465
   81POPC   C1A 1398   2.535  10.192   7.103
   81POPC   D2A 1399   2.370  10.001   6.761
   81POPC   C3A 1400   2.611  10.034   6.406
   81POPC   C4A 1401   2.659  10.416   6.257
   81POPC   C1B 1402   3.038  10.228   7.123
   81POPC   C2B 1403   2.986  10.407   6.713
   81POPC   C3B 1404   3.117  10.196   6.362
   81POPC   C4B 1405   3.053   9.754   6.325
   82POPC   NC3 1406   8.176  10.170   8.212
   82POPC   PO4 1407   8.268   9.582   8.088
   82POPC   GL1 1408   8.088   9.900   7.744
   82POPC   GL2 1409   7.857  10.193   7.770
   82POPC   C1A 1410   8.119  10.113   7.312
   82POPC   D2A 1411   8.233   9.956   6.899
   82POPC   C3A 1412   8.214  10.235   6.563
   82POPC   C4A 1413   7.916  10.271   6.224
   82POPC   C1B 1414   7.668  10.370   7.365
   82POPC   C2B 1415   7.769  10.256   6.903
   82POPC   C3B 1416   7.498  10.317   6.512
   82POPC   C4B 1417   7.473  10.425   6.023
   83POPC   NC3 1418   1.381   7.095   8.051
   83POPC   PO4 1419   0.804   7.465   8.160
   83POPC   GL1 1420   1.064   7.450   7.755
   83POPC   GL2 1421   1.135   7.097   7.609
   83POPC   C1A 1422   1.285   7.527   7.348
   83POPC   D2A 1423   1.232   7.317   6.946
   83POPC   C3A 1424   1.113   7.471   6.584
   83POPC   C4A 1425   1.212   7.442   6.166
   83POPC   C1B 1426   0.855   7.263   7.305
   83POPC   C2B 1427   0.730   7.105   6.915
   83POPC   C3B 1428   0.756   6.845   6.572
   83POPC   C4B 1429   0.915   7.030   6.219
   84POPC   NC3 1430   7.071   9.998   8.136
   84POPC   PO4 1431   6.960   0.176   8.074
   84POPC   GL1 1432   7.084  10.435   7.666
   84POPC   GL2 1433   7.334  10.174   7.701
   84POPC   C1A 1434   7.192  10.265   7.212
   84POPC   D2A 1435   6.947   9.988   6.931
   84POPC   C3A 1436   6.809  10.224   6.613
   84POPC   C4A 1437   7.050  10.250   6.243
   84POPC   C1B 1438   7.569   9.881   7.385
   84POPC   C2B 1439   7.439   9.875   6.950
   84POPC   C3B 1440   7.273   9.812   6.539
   84POPC   C4B 1441   7.456   9.930   6.154
   85POPC   NC3 1442   4.364   0.422   8.392
   85POPC   PO4 1443   3.875   0.705   8.100
   85POPC   GL1 1444   3.973   0.412   7.769
   85POPC   GL2 1445   4.285   0.245   7.869
   85POPC   C1A 1446   3.909   0.246   7.343
   85POPC   D2A 1447   3.813   0.464   6.984
   85POPC   C3A 1448   3.922   0.283   6.605
   85POPC   C4A 1449   3.941   0.471   6.213
   85POPC   C1B 1450   4.423   0.214   7.431
   85POPC   C2B 1451   4.284   0.268   6.995
   85POPC   C3B 1452   4.455   0.259   6.579
   85POPC   C4B 1453   4.464   0.490   6.198
   86POPC   NC3 1454   1.624   2.368   8.386
   86POPC   PO4 1455   1.491   2.973   7.971
   86POPC   GL1 1456   1.640   2.817   7.575
   86POPC   GL2 1457   2.000   2.767   7.612
   86POPC   C1A 1458   1.631   2.547   7.215
   86POPC   D2A 1459   1.656   2.355   6.793
   86POPC   C3A 1460   1.503   2.517   6.461
   86POPC   C4A 1461   1.770   2.680   6.188
   86POPC   C1B 1462   2.152   2.496   7.340
   86POPC   C2B 1463   2.072   2.600   6.955
   86POPC   C3B 1464   2.113   2.572   6.550
   86POPC   C4B 1465   2.320   2.618   6.179
   87POPC   NC3 1466   8.422   5.128   7.989
   87POPC   PO4 1467   8.877   4.785   8.381
   87POPC   GL1 1468   8.989   4.853   7.896
   87POPC   GL2 1469   8.710   4.824   7.710
   87POPC   C1A 1470   9.067   4.978   7.402
   87POPC   D2A 1471   8.830   5.138   6.984
   87POPC   C3A 1472   8.846   4.989   6.578
   87POPC   C4A 1473   8.615   5.117   6.224
   87POPC   C1B 1474   8.585   4.839   7.299
   87POPC   C2B 1475   8.733   4.582   6.950
   87POPC   C3B 1476   8.628   4.471   6.528
   87POPC   C4B 1477   8.430   4.649   6.157
   88POPC   NC3 1478  10.138   9.867   8.189
   88POPC   PO4 1479   9.746  10.415   8.142
   88POPC   GL1 1480   9.942  10.258   7.726
   88POPC   GL2 1481  10.295  10.147   7.778
   88POPC   C1A 1482   9.818  10.400   7.278
   88POPC   D2A 1483   9.585  10.398   6.887
   88POPC   C3A 1484   9.853  10.363   6.541
   88POPC   C4A 1485  10.036  10.370   6.138
   88POPC   C1B 1486  10.316  10.347   7.365
   88POPC   C2B 1487  10.197  10.284   6.937
   88POPC   C3B 1488   0.014  10.181   6.634
   88POPC   C4B 1489  10.465  10.122   6.212
   89POPC   NC3 1490   0.732   1.899   8.347
   89POPC   PO4 1491   1.367   1.989   8.342
   89POPC   GL1 1492   1.380   2.059   7.903
   89POPC   GL2 1493   1.115   1.798   7.811
   89POPC   C1A 1494   1.464   1.956   7.473
   89POPC   D2A 1495   1.370   2.083   7.085
   89POPC   C3A 1496   1.292   1.947   6.656
   89POPC   C4A 1497   1.413   2.017   6.244
   89POPC   C1B 1498   0.976   1.937   7.387
   89POPC   C2B 1499   0.890   1.916   6.997
   89POPC   C3B 1500   0.775   1.983   6.632
   89POPC   C4B 1501   0.917   1.781   6.291
   90POPC   NC3 1502   8.562   5.100   8.513
   90POPC   PO4 1503   8.175   5.512   7.997
   90POPC   GL1 1504   8.107   5.242   7.580
   90POPC   GL2 1505   8.175   4.886   7.610
   90POPC   C1A 1506   8.259   5.183   7.131
   90POPC   D2A 1507   8.374   4.913   6.757
   90POPC   C3A 1508   8.131   5.032   6.370
   90POPC   C4A 1509   8.120   5.116   5.914
   90POPC   C1B 1510   8.112   4.691   7.174
   90POPC   C2B 1511   7.864   4.844   6.798
   90POPC   C3B 1512   7.636   4.863   6.379
   90POPC   C4B 1513   7.448   4.863   5.947
   91POPC   NC3 1514   5.648   2.083   7.969
   91POPC   PO4 1515   6.153   1.541   8.029
   91POPC   GL1 1516   5.869   1.742   7.661
   91POPC   GL2 1517   5.974   2.070   7.587
   91POPC   C1A 1518   5.613   2.019   7.270
   91POPC   D2A 1519   5.770   2.181   6.851
   91POPC   C3A 1520   5.512   2.192   6.443
   91POPC   C4A 1521   5.527   1.908   6.062
   91POPC   C1B 1522   6.091   1.851   7.202
   91POPC   C2B 1523   6.027   1.740   6.797
   91POPC   C3B 1524   5.912   1.899   6.428
   91POPC   C4B 1525   6.010   1.994   5.982
   92POPC   NC3 1526   1.701   8.042   8.073
   92POPC   PO4 1527   2.269   7.713   8.198
   92POPC   GL1 1528   2.129   7.751   7.706
   92POPC   GL2 1529   1.767   7.806   7.627
   92POPC   C1A 1530   2.078   7.731   7.202
   92POPC   D2A 1531   2.365   7.953   6.894
   92POPC   C3A 1532   2.334   8.003   6.413
   92POPC   C4A 1533   2.040   7.722   6.172
   92POPC   C1B 1534   1.974   8.172   7.425
   92POPC   C2B 1535   1.858   8.163   6.994
   92POPC   C3B 1536   1.876   7.946   6.617
   92POPC   C4B 1537   1.865   8.197   6.239
   93POPC   NC3 1538   9.561   3.644   8.170
   93POPC   PO4 1539   8.866   3.716   8.200
   93POPC   GL1 1540   9.136   3.673   7.838
   93POPC   GL2 1541   9.333   3.360   7.779
   93POPC   C1A 1542   9.228   3.747   7.395
   93POPC   D2A 1543   9.198   3.954   7.002
   93POPC   C3A 1544   9.151   3.733   6.600
   93POPC   C4A 1545   9.275   3.612   6.179
   93POPC   C1B 1546   9.218   3.224   7.353
   93POPC   C2B 1547   9.376   3.437   6.976
   93POPC   C3B 1548   9.560   3.380   6.557
   93POPC   C4B 1549   9.484   3.122   6.194
   94POPC   NC3 1550   0.546   4.403   8.045
   94POPC   PO4 1551   0.357   5.020   8.263
   94POPC   GL1 1552   0.318   4.826   7.785
   94POPC   GL2 1553   0.638   4.779   7.702
   94POPC   C1A 1554   0.333   4.746   7.289
   94POPC   D2A 1555   0.353   4.545   6.850
   94POPC   C3A 1556   0.231   4.758   6.454
   94POPC   C4A 1557   0.180   4.731   5.984
   94POPC   C1B 1558   0.510   5.187   7.461
   94POPC   C2B 1559   0.373   5.188   7.012
   94POPC   C3B 1560   0.337   5.279   6.571
   94POPC   C4B 1561   0.449   5.135   6.133
   95POPC   NC3 1562   1.216   8.630   8.083
   95POPC   PO4 1563   1.517   9.193   7.779
   95POPC   GL1 1564   1.335   8.802   7.618
   95POPC   GL2 1565   0.973   8.611   7.627
   95POPC   C1A 1566   1.204   8.805   7.210
   95POPC   D2A 1567   1.016   8.842   6.844
   95POPC   C3A 1568   1.267   8.997   6.539
   95POPC   C4A 1569   1.308   8.828   6.155
   95POPC   C1B 1570   1.023   8.331   7.238
   95POPC   C2B 1571   1.303   8.362   6.854
   95POPC   C3B 1572   1.257   8.378   6.383
   95POPC   C4B 1573   1.047   8.434   5.961
   96POPC   NC3 1574   6.709   0.883   7.943
   96POPC   PO4 1575   6.085   0.700   8.081
   96POPC   GL1 1576   6.201   0.965   7.744
   96POPC   GL2 1577   6.436   1.254   7.723
   96POPC   C1A 1578   6.352   0.902   7.344
   96POPC   D2A 1579   6.148   0.822   6.965
   96POPC   C3A 1580   6.348   0.920   6.591
   96POPC   C4A 1581   6.144   1.049   6.226
   96POPC   C1B 1582   6.156   1.366   7.381
   96POPC   C2B 1583   6.275   1.332   6.956
   96POPC   C3B 1584   6.338   1.437   6.524
   96POPC   C4B 1585   6.608   1.267   6.231
   97POPC   NC3 1586   3.259   1.752   8.185
   97POPC   PO4 1587   3.838   1.430   8.230
   97POPC   GL1 1588   3.666   1.559   7.807
   97POPC   GL2 1589   3.385   1.813   7.696
   97POPC   C1A 1590   3.631   1.539   7.345
   97POPC   D2A 1591   3.379   1.584   6.963
   97POPC   C3A 1592   3.478   1.678   6.514
   97POPC   C4A 1593   3.265   1.858   6.148
   97POPC   C1B 1594   3.498   2.033   7.303
   97POPC   C2B 1595   3.619   2.052   6.878
   97POPC   C3B 1596   3.514   2.193   6.474
   97POPC   C4B 1597   3.725   2.174   6.097
   98POPC   NC3 1598   6.357   0.335   8.189
   98POPC   PO4 1599   5.744   0.112   8.202
   98POPC   GL1 1600   5.996   0.101   7.735
   98POPC   GL2 1601   6.133   0.449   7.572
   98POPC   C1A 1602   6.163   0.022   7.296
   98POPC   D2A 1603   6.042   0.329   6.945
   98POPC   C3A 1604   6.269   0.406   6.542
   98POPC   C4A 1605   6.192   0.228   6.126
   98POPC   C1B 1606   6.475   0.430   7.198
   98POPC   C2B 1607   6.756   0.499   6.847
   98POPC   C3B 1608   6.760   0.570   6.431
   98POPC   C4B 1609   6.574   0.767   6.158
   99POPC   NC3 1610   1.283   2.578   7.886
   99POPC   PO4 1611   0.807   2.162   7.971
   99POPC   GL1 1612   0.811   2.405   7.580
   99POPC   GL2 1613   0.837   2.760   7.597
   99POPC   C1A 1614   0.778   2.449   7.123
   99POPC   D2A 1615   1.094   2.395   6.799
   99POPC   C3A 1616   1.021   2.338   6.359
   99POPC   C4A 1617   0.859   2.573   6.013
   99POPC   C1B 1618   1.171   2.788   7.289
   99POPC   C2B 1619   1.325   2.854   6.887
   99POPC   C3B 1620   1.087   2.832   6.514
   99POPC   C4B 1621   1.267   2.854   6.136
  100POPC   NC3 1622   1.955   4.012   8.115
  100POPC   PO4 1623   2.301   4.375   7.888
  100POPC   GL1 1624   1.910   4.401   7.659
  100POPC   GL2 1625   1.656   4.124   7.692
  100POPC   C1A 1626   1.688   4.408   7.255
  100POPC   D2A 1627   1.770   4.651   6.892
  100POPC   C3A 1628   1.758   4.424   6.512
  100POPC   C4A 1629   2.104   4.358   6.206
  100POPC   C1B 1630   1.930   3.980   7.365
  100POPC   C2B 1631   1.890   4.014   6.926
  100POPC   C3B 1632   2.046   3.951   6.519
  100POPC   C4B 1633   1.722   4.011   6.223
  101POPC   NC3 1634   8.045   2.747   8.114
  101POPC   PO4 1635   8.125   3.246   7.789
  101POPC   GL1 1636   7.935   2.873   7.625
  101POPC   GL2 1637   8.067   2.495   7.674
  101POPC   C1A 1638   7.831   3.004   7.217
  101POPC   D2A 1639   8.046   3.144   6.868
  101POPC   C3A 1640   7.878   3.038   6.450
  101POPC   C4A 1641   8.093   3.164   6.063
  101POPC   C1B 1642   7.973   2.525   7.257
  101POPC   C2B 1643   8.136   2.635   6.886
  101POPC   C3B 1644   7.983   2.537   6.524
  101POPC   C4B 1645   8.058   2.659   6.146
  102POPC   NC3 1646   1.217   0.323   8.008
  102POPC   PO4 1647   0.576   0.513   8.042
  102POPC   GL1 1648   0.754   0.248   7.677
  102POPC   GL2 1649   1.058   0.392   7.523
  102POPC   C1A 1650   0.831  10.500   7.290
  102POPC   D2A 1651   1.080   0.157   6.933
  102POPC   C3A 1652   0.916  10.469   6.544
  102POPC   C4A 1653   0.771   0.171   6.184
  102POPC   C1B 1654   1.424   0.568   7.297
  102POPC   C2B 1655   1.501   0.564   6.852
  102POPC   C3B 1656   1.306   0.364   6.483
  102POPC   C4B 1657   1.224   0.348   6.043
  103POPC   NC3 1658  10.443   4.893   8.103
  103POPC   PO4 1659   9.874   4.712   8.350
  103POPC   GL1 1660   9.959   4.743   7.873
  103POPC   GL2 1661  10.038   5.042   7.734
  103POPC   C1A 1662   9.932   4.657   7.416
  103POPC   D2A 1663   9.944   4.938   7.032
  103POPC   C3A 1664   9.840   4.736   6.627
  103POPC   C4A 1665   9.899   4.978   6.244
  103POPC   C1B 1666  10.367   4.940   7.422
  103POPC   C2B 1667  10.452   4.883   6.981
  103POPC   C3B 1668  10.290   4.977   6.600
  103POPC   C4B 1669  10.449   5.110   6.227
  104POPC   NC3 1670  10.152   7.100   7.975
  104POPC   PO4 1671   0.285   6.789   8.119
  104POPC   GL1 1672  10.444   6.720   7.758
  104POPC   GL2 1673  10.092   6.818   7.562
  104POPC   C1A 1674   0.037   6.826   7.332
  104POPC   D2A 1675  10.203   6.838   7.035
  104POPC   C3A 1676  10.328   6.878   6.634
  104POPC   C4A 1677  10.097   6.812   6.353
  104POPC   C1B 1678  10.217   7.253   7.333
  104POPC   C2B 1679  10.198   7.452   6.929
  104POPC   C3B 1680  10.352   7.412   6.530
  104POPC   C4B 1681  10.101   7.373   6.196
  105POPC   NC3 1682   8.394   5.917   7.961
  105POPC   PO4 1683   8.334   6.600   7.953
  105POPC   GL1 1684   8.400   6.303   7.598
  105POPC   GL2 1685   8.079   6.129   7.616
  105POPC   C1A 1686   8.313   6.117   7.164
  105POPC   D2A 1687   8.174   6.432   6.868
  105POPC   C3A 1688   8.128   6.404   6.468
  105POPC   C4A 1689   8.267   6.106   6.210
  105POPC   C1B 1690   7.925   6.461   7.325
  105POPC   C2B 1691   7.683   6.532   6.914
  105POPC   C3B 1692   7.644   6.271   6.532
  105POPC   C4B 1693   7.764   6.072   6.150
  106POPC   NC3 1694   1.798   1.830   8.144
  106POPC   PO4 1695   1.746   2.507   7.958
  106POPC   GL1 1696   1.835   2.234   7.627
  106POPC   GL2 1697   1.942   1.854   7.643
  106POPC   C1A 1698   1.886   2.092   7.176
  106POPC   D2A 1699   2.105   2.098   6.780
  106POPC   C3A 1700   1.897   2.138   6.379
  106POPC   C4A 1701   1.829   2.236   5.954
  106POPC   C1B 1702   1.760   1.605   7.272
  106POPC   C2B 1703   1.701   1.721   6.841
  106POPC   C3B 1704   1.887   1.623   6.462
  106POPC   C4B 1705   2.233   1.760   6.208
  107POPC   NC3 1706   9.504   6.641   8.157
  107POPC   PO4 1707   9.012   6.256   8.140
  107POPC   GL1 1708   9.249   6.309   7.751
  107POPC   GL2 1709   9.274   6.657   7.698
  107POPC   C1A 1710   9.323   6.322   7.290
  107POPC   D2A 1711   9.094   6.501   6.925
  107POPC   C3A 1712   9.080   6.398   6.475
  107POPC   C4A 1713   9.367   6.452   6.122
  107POPC   C1B 1714   9.570   6.745   7.364
  107POPC   C2B 1715   9.594   6.625   6.943
  107POPC   C3B 1716   9.457   6.753   6.550
  107POPC   C4B 1717   9.642   6.877   6.179
  108POPC   NC3 1718   2.227   2.625   8.059
  108POPC   PO4 1719   2.903   2.367   8.053
  108POPC   GL1 1720   2.898   2.572   7.638
  108POPC   GL2 1721   2.541   2.658   7.622
  108POPC   C1A 1722   2.801   2.421   7.231
  108POPC   D2A 1723   2.526   2.409   6.917
  108POPC   C3A 1724   2.606   2.684   6.645
  108POPC   C4A 1725   2.836   2.505   6.343
  108POPC   C1B 1726   2.479   2.841   7.181
  108POPC   C2B 1727   2.300   3.072   6.859
  108POPC   C3B 1728   2.311   3.058   6.414
  108POPC   C4B 1729   2.704   2.981   6.207
  109POPC   NC3 1730   6.595  10.481   7.843
  109POPC   PO4 1731   6.688   9.781   7.925
  109POPC   GL1 1732   6.559   9.970   7.585
  109POPC   GL2 1733   6.882   9.999   7.491
  109POPC   C1A 1734   6.260   9.984   7.244
  109POPC   D2A 1735   6.379  10.033   6.825
  109POPC   C3A 1736   6.244   9.799   6.437
  109POPC   C4A 1737   6.271   9.744   5.935
  109POPC   C1B 1738   6.667  10.326   7.208
  109POPC   C2B 1739   6.468   0.040   6.857
  109POPC   C3B 1740   6.288  10.379   6.484
  109POPC   C4B 1741   6.541  10.122   6.181
  110POPC   NC3 1742   2.060   5.557   7.956
  110POPC   PO4 1743   1.656   5.984   8.202
  110POPC   GL1 1744   1.600   5.782   7.769
  110POPC   GL2 1745   1.911   5.873   7.599
  110POPC   C1A 1746   1.587   5.647   7.306
  110POPC   D2A 1747   1.761   5.838   6.902
  110POPC   C3A 1748   1.571   5.692   6.510
  110POPC   C4A 1749   1.629   5.580   6.077
  110POPC   C1B 1750   2.084   5.612   7.252
  110POPC   C2B 1751   2.166   5.456   6.854
  110POPC   C3B 1752   1.992   5.442   6.460
  110POPC   C4B 1753   2.129   5.468   6.072
  111POPC   NC3 1754   0.797   3.449   7.966
  111POPC   PO4 1755   0.173   3.111   8.022
  111POPC   GL1 1756   0.447   3.174   7.694
  111POPC   GL2 1757   0.394   3.547   7.665
  111POPC   C1A 1758   0.711   3.282   7.338
  111POPC   D2A 1759   0.648   3.561   6.980
  111POPC   C3A 1760   0.712   3.342   6.612
  111POPC   C4A 1761   0.559   3.365   6.172
  111POPC   C1B 1762   0.213   3.438   7.272
  111POPC   C2B 1763   0.055   3.611   6.896
  111POPC   C3B 1764   0.269   3.592   6.518
  111POPC   C4B 1765   0.338   3.837   6.147
  112POPC   NC3 1766   6.335   2.748   7.975
  112POPC   PO4 1767   6.877   2.992   8.021
  112POPC   GL1 1768   6.697   2.899   7.623
  112POPC   GL2 1769   6.719   2.552   7.687
  112POPC   C1A 1770   6.400   3.061   7.288
  112POPC   D2A 1771   6.360   3.156   6.828
  112POPC   C3A 1772   6.690   3.047   6.508
  112POPC   C4A 1773   6.678   3.069   6.040
  112POPC   C1B 1774   6.504   2.553   7.287
  112POPC   C2B 1775   6.580   2.683   6.864
  112POPC   C3B 1776   6.277   2.723   6.530
  112POPC   C4B 1777   6.049   2.378   6.327
  113POPC   NC3 1778  10.061   8.984   8.074
  113POPC   PO4 1779  10.125   8.314   7.943
  113POPC   GL1 1780   9.996   8.482   7.557
  113POPC   GL2 1781   9.965   8.835   7.594
  113POPC   C1A 1782  10.112   8.340   7.145
  113POPC   D2A 1783   9.826   8.448   6.835
  113POPC   C3A 1784   9.893   8.374   6.466
  113POPC   C4A 1785   9.967   8.779   6.354
  113POPC   C1B 1786  10.183   8.846   7.199
  113POPC   C2B 1787  10.276   8.723   6.777
  113POPC   C3B 1788  10.445   8.957   6.433
  113POPC   C4B 1789   0.002   9.262   6.158
  114POPC   NC3 1790  10.175   3.052   8.041
  114POPC   PO4 1791  10.046   3.790   8.004
  114POPC   GL1 1792  10.026   3.455   7.746
  114POPC   GL2 1793  10.386   3.394   7.680
  114POPC   C1A 1794   9.722   3.311   7.405
  114POPC   D2A 1795   9.710   3.050   7.021
  114POPC   C3A 1796   9.920   3.007   6.604
  114POPC   C4A 1797   9.963   3.266   6.219
  114POPC   C1B 1798  10.191   3.452   7.258
  114POPC   C2B 1799   9.986   3.455   6.864
  114POPC   C3B 1800  10.055   3.682   6.482
  114POPC   C4B 1801  10.361   3.655   6.175
  115POPC   NC3 1802   7.317   0.483   8.052
  115POPC   PO4 1803   6.601   0.457   7.818
  115POPC   GL1 1804   7.003   0.460   7.620
  115POPC   GL2 1805   7.397   0.327   7.575
  115POPC   C1A 1806   7.006   0.252   7.237
  115POPC   D2A 1807   7.256   0.293   6.874
  115POPC   C3A 1808   7.046   0.164   6.534
  115POPC   C4A 1809   6.673   0.108   6.283
  115POPC   C1B 1810   7.348   0.646   7.269
  115POPC   C2B 1811   7.298   0.830   6.874
  115POPC   C3B 1812   7.265   0.646   6.488
  115POPC   C4B 1813   7.490   0.317   6.338
  116POPC   NC3 1814   9.174  10.228   8.177
  116POPC   PO4 1815   9.434   0.403   8.095
  116POPC   GL1 1816   9.407   0.033   7.775
  116POPC   GL2 1817   9.448  10.147   7.779
  116POPC   C1A 1818   9.316  10.383   7.356
  116POPC   D2A 1819   9.193  10.077   7.055
  116POPC   C3A 1820   9.154  10.240   6.625
  116POPC   C4A 1821   9.404  10.296   6.294
  116POPC   C1B 1822   9.626   9.953   7.427
  116POPC   C2B 1823   9.744   9.914   6.988
  116POPC   C3B 1824   9.574   9.905   6.564
  116POPC   C4B 1825   9.763   9.948   6.152
  117POPC   NC3 1826   7.579   1.114   8.037
  117POPC   PO4 1827   8.213   1.509   7.998
  117POPC   GL1 1828   8.122   1.343   7.579
  117POPC   GL2 1829   7.848   1.076   7.600
  117POPC   C1A 1830   8.279   1.045   7.274
  117POPC   D2A 1831   8.356   0.947   6.843
  117POPC   C3A 1832   8.035   1.140   6.588
  117POPC   C4A 1833   8.051   1.525   6.380
  117POPC   C1B 1834   7.549   1.112   7.287
  117POPC   C2B 1835   7.601   1.279   6.875
  117POPC   C3B 1836   7.529   1.099   6.473
  117POPC   C4B 1837   7.702   1.148   6.073
  118POPC   NC3 1838   9.371   9.243   8.036
  118POPC   PO4 1839   9.019   9.809   8.022
  118POPC   GL1 1840   9.303   9.635   7.680
  118POPC   GL2 1841   9.652   9.462   7.649
  118POPC   C1A 1842   9.373   9.560   7.227
  118POPC   D2A 1843   9.467   9.478   6.816
  118POPC   C3A 1844   9.119   9.470   6.497
  118POPC   C4A 1845   9.121   9.857   6.246
  118POPC   C1B 1846   9.737   9.176   7.281
  118POPC   C2B 1847   9.805   9.007   6.838
  118POPC   C3B 1848   9.597   9.145   6.462
  118POPC   C4B 1849   9.526   9.495   6.175
  119POPC   NC3 1850   0.421   5.474   8.120
  119POPC   PO4 1851   0.714   6.036   7.870
  119POPC   GL1 1852   0.631   5.677   7.673
  119POPC   GL2 1853   0.275   5.684   7.675
  119POPC   C1A 1854   0.621   5.693   7.250
  119POPC   D2A 1855   0.812   5.907   6.937
  119POPC   C3A 1856   0.613   5.786   6.558
  119POPC   C4A 1857   0.622   5.853   6.135
  119POPC   C1B 1858   0.134   5.549   7.287
  119POPC   C2B 1859   0.255   5.697   6.901
  119POPC   C3B 1860   0.057   5.731   6.543
  119POPC   C4B 1861   0.160   5.572   6.191
  120POPC   NC3 1862   4.251   1.657   8.268
  120POPC   PO4 1863   4.453   2.211   8.119
  120POPC   GL1 1864   4.322   1.943   7.739
  120POPC   GL2 1865   4.207   1.579   7.768
  120POPC   C1A 1866   4.032   2.024   7.368
  120POPC   D2A 1867   4.122   2.241   6.925
  120POPC   C3A 1868   4.061   2.080   6.495
  120POPC   C4A 1869   4.218   2.035   6.048
  120POPC   C1B 1870   4.145   1.520   7.345
  120POPC   C2B 1871   4.005   1.724   6.963
  120POPC   C3B 1872   3.994   1.585   6.554
  120POPC   C4B 1873   3.870   1.682   6.145
  121POPC   NC3 1874   2.142   9.664   8.042
  121POPC   PO4 1875   1.500   9.730   8.112
  121POPC   GL1 1876   1.670   9.673   7.674
  121POPC   GL2 1877   1.951   9.422   7.667
  121POPC   C1A 1878   1.847   9.585   7.206
  121POPC   D2A 1879   2.054   9.623   6.799
  121POPC   C3A 1880   1.903   9.477   6.417
  121POPC   C4A 1881   1.643   9.209   6.162
  121POPC   C1B 1882   2.190   9.246   7.375
  121POPC   C2B 1883   2.092   9.131   6.959
  121POPC   C3B 1884   2.318   9.184   6.580
  121POPC   C4B 1885   2.145   9.102   6.174
  122POPC   NC3 1886   8.755   1.616   8.023
  122POPC   PO4 1887   8.491   2.172   8.292
  122POPC   GL1 1888   8.503   2.052   7.835
  122POPC   GL2 1889   8.867   2.083   7.774
  122POPC   C1A 1890   8.405   1.794   7.430
  122POPC   D2A 1891   8.316   1.541   7.041
  122POPC   C3A 1892   8.420   1.777   6.669
  122POPC   C4A 1893   8.395   1.901   6.248
  122POPC   C1B 1894   8.724   2.189   7.371
  122POPC   C2B 1895   8.738   1.969   6.994
  122POPC   C3B 1896   8.812   2.099   6.534
  122POPC   C4B 1897   8.689   2.275   6.096
  123POPC   NC3 1898   8.599   9.909   7.858
  123POPC   PO4 1899   8.750  10.446   8.231
  123POPC   GL1 1900   8.899  10.372   7.754
  123POPC   GL2 1901   8.986  10.048   7.561
  123POPC   C1A 1902   8.825  10.453   7.286
  123POPC   D2A 1903   8.486   0.044   7.003
  123POPC   C3A 1904   8.674   0.061   6.608
  123POPC   C4A 1905   8.958   0.078   6.241
  123POPC   C1B 1906   8.658   9.982   7.221
  123POPC   C2B 1907   8.709  10.103   6.805
  123POPC   C3B 1908   8.682  10.125   6.339
  123POPC   C4B 1909   8.331  10.048   6.059
  124POPC   NC3 1910   1.892   3.172   7.902
  124POPC   PO4 1911   1.582   3.726   8.135
  124POPC   GL1 1912   1.799   3.620   7.708
  124POPC   GL2 1913   1.651   3.317   7.499
  124POPC   C1A 1914   2.071   3.503   7.323
  124POPC   D2A 1915   2.245   3.605   6.939
  124POPC   C3A 1916   2.035   3.432   6.607
  124POPC   C4A 1917   1.938   3.555   6.204
  124POPC   C1B 1918   1.865   3.048   7.170
  124POPC   C2B 1919   1.798   2.962   6.720
  124POPC   C3B 1920   1.647   3.151   6.351
  124POPC   C4B 1921   1.881   3.119   5.971
  125POPC   NC3 1922   4.892   1.943   8.021
  125POPC   PO4 1923   5.327   2.360   7.793
  125POPC   GL1 1924   5.218   1.972   7.615
  125POPC   GL2 1925   4.831   1.981   7.509
  125POPC   C1A 1926   5.222   1.702   7.297
  125POPC   D2A 1927   4.977   1.962   7.008
  125POPC   C3A 1928   5.081   1.948   6.597
  125POPC   C4A 1929   5.058   1.854   6.185
  125POPC   C1B 1930   4.490   1.932   7.174
  125POPC   C2B 1931   4.458   1.812   6.737
  125POPC   C3B 1932   4.595   1.981   6.367
  125POPC   C4B 1933   4.857   2.334   6.271
  126POPC   NC3 1934   2.771   9.279   8.160
  126POPC   PO4 1935   2.496   9.842   8.311
  126POPC   GL1 1936   2.605   9.764   7.831
  126POPC   GL2 1937   2.738   9.450   7.694
  126POPC   C1A 1938   2.487   9.723   7.362
  126POPC   D2A 1939   2.506   9.446   7.010
  126POPC   C3A 1940   2.666   9.569   6.633
  126POPC   C4A 1941   2.412   9.571   6.264
  126POPC   C1B 1942   2.974   9.457   7.317
  126POPC   C2B 1943   2.958   9.211   6.943
  126POPC   C3B 1944   3.085   9.260   6.548
  126POPC   C4B 1945   2.844   9.306   6.206
  127POPC   NC3 1946   7.492   1.961   8.033
  127POPC   PO4 1947   6.842   2.177   8.049
  127POPC   GL1 1948   7.145   2.183   7.700
  127POPC   GL2 1949   7.208   1.821   7.646
  127POPC   C1A 1950   7.464   2.137   7.329
  127POPC   D2A 1951   7.703   2.240   6.939
  127POPC   C3A 1952   7.543   2.217   6.537
  127POPC   C4A 1953   7.412   2.194   6.099
  127POPC   C1B 1954   7.015   1.917   7.257
  127POPC   C2B 1955   7.243   1.889   6.880
  127POPC   C3B 1956   7.139   1.921   6.442
  127POPC   C4B 1957   6.855   1.701   6.236
  128POPC   NC3 1958   3.543   0.224   7.995
  128POPC   PO4 1959   3.213   0.743   8.079
  128POPC   GL1 1960   3.176   0.494   7.652
  128POPC   GL2 1961   3.477   0.359   7.536
  128POPC   C1A 1962   3.146   0.214   7.218
  128POPC   D2A 1963   3.419   0.185   6.827
  128POPC   C3A 1964   3.225   0.281   6.409
  128POPC   C4A 1965   3.021   0.190   5.998
  128POPC   C1B 1966   3.423   0.666   7.250
  128POPC   C2B 1967   3.498   0.864   6.900
  128POPC   C3B 1968   3.575   0.665   6.552
  128POPC   C4B 1969   3.423   0.740   6.192
  129POPC   NC3 1970   8.148   1.039   8.012
  129POPC   PO4 1971   8.715   0.686   7.991
  129POPC   GL1 1972   8.610   1.040   7.704
  129POPC   GL2 1973   8.882   0.907   7.538
  129POPC   C1A 1974   8.695   1.378   7.367
  129POPC   D2A 1975   8.814   1.457   6.896
  129POPC   C3A 1976   8.523   1.323   6.543
  129POPC   C4A 1977   8.431   0.961   6.311
  129POPC   C1B 1978   8.803   0.957   7.104
  129POPC   C2B 1979   8.853   0.980   6.664
  129POPC   C3B 1980   8.934   1.172   6.259
  129POPC   C4B 1981   9.169   0.996   5.918
  130POPC   NC3 1982   8.290   7.943   8.129
  130POPC   PO4 1983   7.651   7.965   8.236
  130POPC   GL1 1984   7.684   8.076   7.803
  130POPC   GL2 1985   8.003   7.947   7.665
  130POPC   C1A 1986   7.520   8.261   7.392
  130POPC   D2A 1987   7.668   8.121   6.960
  130POPC   C3A 1988   7.458   8.103   6.535
  130POPC   C4A 1989   7.439   8.469   6.251
  130POPC   C1B 1990   8.067   7.872   7.202
  130POPC   C2B 1991   7.825   7.643   6.862
  130POPC   C3B 1992   7.853   7.619   6.423
  130POPC   C4B 1993   8.153   7.882   6.270
  131POPC   NC3 1994   7.270   7.761   8.089
  131POPC   PO4 1995   7.249   8.410   8.132
  131POPC   GL1 1996   7.185   8.158   7.778
  131POPC   GL2 1997   6.814   8.217   7.812
  131POPC   C1A 1998   7.382   7.791   7.433
  131POPC   D2A 1999   7.273   7.784   6.958
  131POPC   C3A 2000   7.344   7.599   6.527
  131POPC   C4A 2001   7.447   7.676   6.079
  131POPC   C1B 2002   6.923   7.970   7.408
  131POPC   C2B 2003   6.767   7.911   7.016
  131POPC   C3B 2004   6.911   7.955   6.605
  131POPC   C4B 2005   6.973   7.808   6.201
  132POPC   NC3 2006   0.236   0.817   8.083
  132POPC   PO4 2007  10.400   0.181   7.938
  132POPC   GL1 2008   0.251   0.351   7.653
  132POPC   GL2 2009   0.420   0.694   7.613
  132POPC   C1A 2010   0.474   0.395   7.219
  132POPC   D2A 2011   0.476   0.766   6.940
  132POPC   C3A 2012   0.380   0.657   6.531
  132POPC   C4A 2013   0.374   0.508   6.166
  132POPC   C1B 2014   0.759   0.817   7.379
  132POPC   C2B 2015   0.982   0.663   7.011
  132POPC   C3B 2016   0.842   0.497   6.623
  132POPC   C4B 2017   0.854   0.681   6.222
  133POPC   NC3 2018   4.181   8.020   8.127
  133POPC   PO4 2019   3.768   7.602   8.079
  133POPC   GL1 2020   3.895   7.851   7.698
  133POPC   GL2 2021   4.263   7.867   7.658
  133POPC   C1A 2022   3.933   7.904   7.222
  133POPC   D2A 2023   3.892   8.123   6.785
  133POPC   C3A 2024   3.983   7.892   6.370
  133POPC   C4A 2025   3.680   7.660   6.062
  133POPC   C1B 2026   4.420   8.103   7.312
  133POPC   C2B 2027   4.362   7.947   6.916
  133POPC   C3B 2028   4.508   7.949   6.527
  133POPC   C4B 2029   4.511   8.036   6.132
  134POPC   NC3 2030   8.534   8.601   7.952
  134POPC   PO4 2031   9.134   8.207   7.929
  134POPC   GL1 2032   8.983   8.377   7.613
  134POPC   GL2 2033   8.759   8.640   7.519
  134POPC   C1A 2034   9.126   8.459   7.249
  134POPC   D2A 2035   8.870   8.715   7.016
  134POPC   C3A 2036   8.740   8.553   6.638
  134POPC   C4A 2037   9.024   8.437   6.329
  134POPC   C1B 2038   8.393   8.676   7.293
  134POPC   C2B 2039   8.372   8.807   6.899
  134POPC   C3B 2040   8.254   8.736   6.504
  134POPC   C4B 2041   8.548   8.703   6.179
  135POPC   NC3 2042   0.393   0.004   8.032
  135POPC   PO4 2043   0.098   9.891   8.171
  135POPC   GL1 2044   0.308  10.059   7.739
  135POPC   GL2 2045   0.678  10.165   7.702
  135POPC   C1A 2046   0.329  10.407   7.392
  135POPC   D2A 2047   0.161   0.036   6.990
  135POPC   C3A 2048   0.394   0.122   6.587
  135POPC   C4A 2049   0.295  10.496   6.155
  135POPC   C1B 2050   0.563   9.987   7.259
  135POPC   C2B 2051   0.557  10.201   6.869
  135POPC   C3B 2052   0.494  10.089   6.441
  135POPC   C4B 2053   0.705  10.175   6.082
  136POPC   NC3 2054   9.760   1.079   8.254
  136POPC   PO4 2055   9.958   1.632   8.313
  136POPC   GL1 2056   9.849   1.440   7.877
  136POPC   GL2 2057  10.151   1.372   7.650
  136POPC   C1A 2058   9.760   1.556   7.392
  136POPC   D2A 2059  10.025   1.408   7.016
  136POPC   C3A 2060   9.906   1.549   6.615
  136POPC   C4A 2061   9.979   1.767   6.258
  136POPC   C1B 2062  10.207   1.057   7.337
  136POPC   C2B 2063  10.191   0.888   6.930
  136POPC   C3B 2064  10.226   1.125   6.580
  136POPC   C4B 2065  10.134   1.057   6.187
  137POPC   NC3 2066   0.619   6.448   8.017
  137POPC   PO4 2067   0.028   5.959   8.166
  137POPC   GL1 2068   0.095   6.159   7.717
  137POPC   GL2 2069   0.331   6.426   7.600
  137POPC   C1A 2070   0.221   6.058   7.273
  137POPC   D2A 2071   0.420   6.194   6.889
  137POPC   C3A 2072   0.285   6.167   6.519
  137POPC   C4A 2073   0.162   6.095   6.124
  137POPC   C1B 2074   0.680   6.317   7.295
  137POPC   C2B 2075   0.855   6.466   6.926
  137POPC   C3B 2076   0.805   6.293   6.539
  137POPC   C4B 2077   0.597   6.385   6.186
  138POPC   NC3 2078   9.235   0.851   7.941
  138POPC   PO4 2079   9.205   1.495   8.118
  138POPC   GL1 2080   9.108   1.343   7.702
  138POPC   GL2 2081   9.442   1.225   7.647
  138POPC   C1A 2082   9.191   1.304   7.234
  138POPC   D2A 2083   9.507   1.366   6.936
  138POPC   C3A 2084   9.292   1.334   6.583
  138POPC   C4A 2085   9.405   1.442   6.170
  138POPC   C1B 2086   9.702   1.065   7.293
  138POPC   C2B 2087   9.688   0.877   6.916
  138POPC   C3B 2088   9.732   1.067   6.523
  138POPC   C4B 2089   9.645   1.000   6.097
  139POPC   NC3 2090   2.094   0.073   7.976
  139POPC   PO4 2091   2.367   0.760   7.995
  139POPC   GL1 2092   2.135   0.525   7.705
  139POPC   GL2 2093   1.764   0.480   7.705
  139POPC   C1A 2094   2.172   0.646   7.316
  139POPC   D2A 2095   2.014   0.496   6.969
  139POPC   C3A 2096   1.952   0.746   6.647
  139POPC   C4A 2097   2.056   0.586   6.285
  139POPC   C1B 2098   1.821   0.229   7.373
  139POPC   C2B 2099   1.691   0.091   6.984
  139POPC   C3B 2100   1.805   0.229   6.568
  139POPC   C4B 2101   1.720   0.245   6.135
  140POPC   NC3 2102   5.335   9.513   8.193
  140POPC   PO4 2103   4.846   9.023   8.030
  140POPC   GL1 2104   4.849   9.217   7.670
  140POPC   GL2 2105   5.052   9.467   7.673
  140POPC   C1A 2106   4.929   9.068   7.268
  140POPC   D2A 2107   4.701   9.162   6.932
  140POPC   C3A 2108   4.853   9.201   6.544
  140POPC   C4A 2109   4.767   8.916   6.269
  140POPC   C1B 2110   4.842   9.570   7.272
  140POPC   C2B 2111   4.731   9.676   6.825
  140POPC   C3B 2112   4.794   9.686   6.418
  140POPC   C4B 2113   4.941   9.534   6.030
  141POPC   NC3 2114   9.575   1.875   8.197
  141POPC   PO4 2115   9.187   2.410   8.089
  141POPC   GL1 2116   9.384   2.109   7.774
  141POPC   GL2 2117   9.423   1.756   7.731
  141POPC   C1A 2118   9.549   2.049   7.323
  141POPC   D2A 2119   9.845   1.920   6.980
  141POPC   C3A 2120   9.736   2.105   6.576
  141POPC   C4A 2121   9.568   2.068   6.158
  141POPC   C1B 2122   9.103   1.800   7.391
  141POPC   C2B 2123   9.224   1.787   6.947
  141POPC   C3B 2124   9.267   1.845   6.504
  141POPC   C4B 2125   9.066   1.900   6.094
  142POPC   NC3 2126  10.236   1.990   8.354
  142POPC   PO4 2127  10.191   2.567   7.989
  142POPC   GL1 2128  10.109   2.680   7.590
  142POPC   GL2 2129  10.082   2.993   7.547
  142POPC   C1A 2130  10.086   2.714   7.128
  142POPC   D2A 2131   9.798   2.546   6.859
  142POPC   C3A 2132  10.089   2.515   6.536
  142POPC   C4A 2133  10.054   2.284   6.186
  142POPC   C1B 2134  10.449   3.002   7.328
  142POPC   C2B 2135  10.417   3.126   6.922
  142POPC   C3B 2136  10.359   3.271   6.536
  142POPC   C4B 2137  10.340   2.909   6.296
  143POPC   NC3 2138   4.516   9.447   8.053
  143POPC   PO4 2139   3.921   9.119   8.019
  143POPC   GL1 2140   4.249   9.145   7.726
  143POPC   GL2 2141   4.136   9.503   7.676
  143POPC   C1A 2142   4.439   9.272   7.354
  143POPC   D2A 2143   4.317   9.500   7.013
  143POPC   C3A 2144   4.370   9.335   6.592
  143POPC   C4A 2145   4.440   9.438   6.170
  143POPC   C1B 2146   3.902   9.385   7.285
  143POPC   C2B 2147   3.888   9.383   6.809
  143POPC   C3B 2148   3.911   9.391   6.397
  143POPC   C4B 2149   4.006   9.686   6.193
  144POPC   NC3 2150   4.920   8.532   8.060
  144POPC   PO4 2151   5.495   8.672   7.956
  144POPC   GL1 2152   5.139   8.717   7.621
  144POPC   GL2 2153   4.751   8.719   7.628
  144POPC   C1A 2154   5.248   8.685   7.198
  144POPC   D2A 2155   5.368   8.970   6.913
  144POPC   C3A 2156   5.208   8.838   6.547
  144POPC   C4A 2157   5.151   8.551   6.243
  144POPC   C1B 2158   4.771   8.510   7.241
  144POPC   C2B 2159   4.782   8.670   6.818
  144POPC   C3B 2160   4.693   8.442   6.448
  144POPC   C4B 2161   4.545   8.526   6.039
  145POPC   NC3 2162   8.697   4.143   8.241
  145POPC   PO4 2163   8.419   4.682   8.088
  145POPC   GL1 2164   8.362   4.423   7.695
  145POPC   GL2 2165   8.642   4.380   7.449
  145POPC   C1A 2166   8.206   4.188   7.304
  145POPC   D2A 2167   8.318   4.272   6.883
  145POPC   C3A 2168   8.246   4.019   6.497
  145POPC   C4A 2169   8.089   4.149   6.083
  145POPC   C1B 2170   8.710   4.049   7.161
  145POPC   C2B 2171   8.705   3.945   6.758
  145POPC   C3B 2172   8.727   3.922   6.344
  145POPC   C4B 2173   8.743   4.260   6.069
  146POPC   NC3 2174   7.059   2.584   8.074
  146POPC   PO4 2175   7.713   2.373   8.052
  146POPC   GL1 2176   7.526   2.540   7.648
  146POPC   GL2 2177   7.196   2.721   7.605
  146POPC   C1A 2178   7.468   2.633   7.194
  146POPC   D2A 2179   7.631   2.762   6.819
  146POPC   C3A 2180   7.367   2.905   6.506
  146POPC   C4A 2181   7.538   2.645   6.251
  146POPC   C1B 2182   7.000   2.437   7.279
  146POPC   C2B 2183   6.899   2.270   6.869
  146POPC   C3B 2184   7.084   2.422   6.507
  146POPC   C4B 2185   6.970   2.696   6.232
  147POPC   NC3 2186   4.873  10.367   7.891
  147POPC   PO4 2187   4.902   9.735   8.162
  147POPC   GL1 2188   5.175   9.922   7.844
  147POPC   GL2 2189   4.912   9.977   7.575
  147POPC   C1A 2190   5.336   9.818   7.396
  147POPC   D2A 2191   5.098   9.930   7.027
  147POPC   C3A 2192   5.241   9.870   6.576
  147POPC   C4A 2193   5.030  10.072   6.209
  147POPC   C1B 2194   4.694  10.258   7.291
  147POPC   C2B 2195   4.630  10.405   6.930
  147POPC   C3B 2196   4.691  10.197   6.578
  147POPC   C4B 2197   4.652  10.431   6.216
  148POPC   NC3 2198   8.977   0.311   8.066
  148POPC   PO4 2199   8.380  10.383   7.864
  148POPC   GL1 2200   8.463   0.179   7.537
  148POPC   GL2 2201   8.726   0.350   7.619
  148POPC   C1A 2202   8.381   0.541   7.271
  148POPC   D2A 2203   8.193   0.482   6.870
  148POPC   C3A 2204   8.376   0.468   6.472
  148POPC   C4A 2205   8.368   0.094   6.210
  148POPC   C1B 2206   8.881   0.462   7.246
  148POPC   C2B 2207   8.717   0.506   6.873
  148POPC   C3B 2208   8.910   0.491   6.525
  148POPC   C4B 2209   8.840   0.679   6.209
  149POPC   NC3 2210   4.222   8.754   8.077
  149POPC   PO4 2211   4.587   8.220   8.074
  149POPC   GL1 2212   4.314   8.436   7.685
  149POPC   GL2 2213   3.995   8.677   7.625
  149POPC   C1A 2214   4.359   8.775   7.311
  149POPC   D2A 2215   4.191   8.981   6.948
  149POPC   C3A 2216   4.327   8.837   6.529
  149POPC   C4A 2217   4.282   8.967   6.095
  149POPC   C1B 2218   4.014   8.415   7.241
  149POPC   C2B 2219   4.295   8.446   6.866
  149POPC   C3B 2220   4.193   8.358   6.412
  149POPC   C4B 2221   4.042   8.542   6.024
  150POPC   NC3 2222   9.847  10.315   4.125
  150POPC   PO4 2223   9.175  10.286   3.720
  150POPC   GL1 2224   9.204  10.030   4.179
  150POPC   GL2 2225   9.512   9.986   4.306
  150POPC   C1A 2226   9.102  10.137   4.651
  150POPC   D2A 2227   9.007  10.385   5.068
  150POPC   C3A 2228   9.195  10.276   5.469
  150POPC   C4A 2229   9.125  10.240   5.891
  150POPC   C1B 2230   9.633  10.136   4.723
  150POPC   C2B 2231   9.821  10.005   5.123
  150POPC   C3B 2232   9.812  10.270   5.489
  150POPC   C4B 2233   9.620  10.340   5.839
  151POPC   NC3 2234   6.369   9.858   3.812
  151POPC   PO4 2235   6.832  10.233   3.740
  151POPC   GL1 2236   6.598  10.183   4.135
  151POPC   GL2 2237   6.550  10.470   4.315
  151POPC   C1A 2238   6.414   9.955   4.498
  151POPC   D2A 2239   6.288  10.012   4.947
  151POPC   C3A 2240   6.575   9.932   5.268
  151POPC   C4A 2241   6.662   9.961   5.698
  151POPC   C1B 2242   6.253  10.436   4.632
  151POPC   C2B 2243   6.226   0.066   5.042
  151POPC   C3B 2244   6.344  10.368   5.384
  151POPC   C4B 2245   6.320  10.341   5.799
  152POPC   NC3 2246   0.790   9.604   4.095
  152POPC   PO4 2247   1.243   9.130   3.931
  152POPC   GL1 2248   1.192   9.343   4.291
  152POPC   GL2 2249   1.401   9.595   4.174
  152POPC   C1A 2250   0.981   9.218   4.683
  152POPC   D2A 2251   1.023   8.999   5.081
  152POPC   C3A 2252   0.802   9.162   5.447
  152POPC   C4A 2253   0.999   9.390   5.777
  152POPC   C1B 2254   1.450   9.681   4.600
  152POPC   C2B 2255   1.393   9.383   4.928
  152POPC   C3B 2256   1.276   9.365   5.340
  152POPC   C4B 2257   1.502   9.485   5.703
  153POPC   NC3 2258   1.265  10.381   3.926
  153POPC   PO4 2259   0.738   9.996   3.817
  153POPC   GL1 2260   0.870  10.222   4.211
  153POPC   GL2 2261   1.107   9.987   4.251
  153POPC   C1A 2262   1.124  10.325   4.610
  153POPC   D2A 2263   0.885  10.266   4.960
  153POPC   C3A 2264   0.918  10.284   5.407
  153POPC   C4A 2265   1.053  10.416   5.805
  153POPC   C1B 2266   0.962   9.828   4.671
  153POPC   C2B 2267   1.146   9.822   5.072
  153POPC   C3B 2268   1.157   9.837   5.512
  153POPC   C4B 2269   1.493  10.070   5.657
  154POPC   NC3 2270   1.133   1.459   4.072
  154POPC   PO4 2271   1.583   0.925   3.864
  154POPC   GL1 2272   1.471   1.121   4.275
  154POPC   GL2 2273   1.150   1.036   4.413
  154POPC   C1A 2274   1.450   1.352   4.722
  154POPC   D2A 2275   1.314   1.371   5.164
  154POPC   C3A 2276   1.567   1.506   5.532
  154POPC   C4A 2277   1.568   1.274   5.935
  154POPC   C1B 2278   0.918   1.319   4.690
  154POPC   C2B 2279   0.799   1.403   5.089
  154POPC   C3B 2280   0.860   1.222   5.425
  154POPC   C4B 2281   1.092   1.252   5.731
  155POPC   NC3 2282   8.792   7.757   3.861
  155POPC   PO4 2283   8.343   8.302   3.884
  155POPC   GL1 2284   8.326   8.154   4.292
  155POPC   GL2 2285   8.606   7.919   4.309
  155POPC   C1A 2286   8.307   8.051   4.715
  155POPC   D2A 2287   8.573   8.144   5.056
  155POPC   C3A 2288   8.527   7.991   5.470
  155POPC   C4A 2289   8.232   8.013   5.794
  155POPC   C1B 2290   8.842   7.873   4.681
  155POPC   C2B 2291   8.828   7.703   5.098
  155POPC   C3B 2292   9.027   7.847   5.483
  155POPC   C4B 2293   8.821   7.828   5.890
  156POPC   NC3 2294   2.729   1.102   3.958
  156POPC   PO4 2295   3.116   1.591   3.627
  156POPC   GL1 2296   3.067   1.379   4.163
  156POPC   GL2 2297   2.706   1.377   4.359
  156POPC   C1A 2298   3.085   1.380   4.669
  156POPC   D2A 2299   3.007   1.058   5.016
  156POPC   C3A 2300   3.082   1.190   5.454
  156POPC   C4A 2301   2.901   1.047   5.865
  156POPC   C1B 2302   2.546   1.206   4.735
  156POPC   C2B 2303   2.601   1.394   5.140
  156POPC   C3B 2304   2.586   1.288   5.546
  156POPC   C4B 2305   2.317   0.979   5.626
  157POPC   NC3 2306   0.615   3.290   3.996
  157POPC   PO4 2307  10.462   3.401   3.837
  157POPC   GL1 2308   0.168   3.469   4.255
  157POPC   GL2 2309   0.377   3.185   4.409
  157POPC   C1A 2310   0.074   3.525   4.699
  157POPC   D2A 2311   0.289   3.487   5.081
  157POPC   C3A 2312   0.143   3.462   5.473
  157POPC   C4A 2313   0.331   3.137   5.729
  157POPC   C1B 2314   0.626   3.396   4.685
  157POPC   C2B 2315   0.813   3.463   5.055
  157POPC   C3B 2316   0.751   3.340   5.458
  157POPC   C4B 2317   0.544   3.626   5.736
  158POPC   NC3 2318   8.807   5.398   3.831
  158POPC   PO4 2319   8.881   6.058   3.960
  158POPC   GL1 2320   8.817   5.739   4.294
  158POPC   GL2 2321   8.488   5.762   4.279
  158POPC   C1A 2322   8.923   5.534   4.717
  158POPC   D2A 2323   8.717   5.512   5.116
  158POPC   C3A 2324   8.841   5.540   5.525
  158POPC   C4A 2325   8.526   5.384   5.806
  158POPC   C1B 2326   8.433   5.661   4.700
  158POPC   C2B 2327   8.231   5.691   5.086
  158POPC   C3B 2328   8.412   5.845   5.437
  158POPC   C4B 2329   8.521   5.880   5.846
  159POPC   NC3 2330   7.918   4.949   3.801
  159POPC   PO4 2331   8.434   4.766   3.898
  159POPC   GL1 2332   8.255   4.730   4.295
  159POPC   GL2 2333   7.890   4.778   4.315
  159POPC   C1A 2334   8.218   4.829   4.754
  159POPC   D2A 2335   8.093   4.671   5.191
  159POPC   C3A 2336   7.823   4.796   5.575
  159POPC   C4A 2337   7.926   4.657   6.012
  159POPC   C1B 2338   7.759   5.032   4.722
  159POPC   C2B 2339   7.820   5.160   5.197
  159POPC   C3B 2340   7.606   5.249   5.629
  159POPC   C4B 2341   7.687   5.306   6.085
  160POPC   NC3 2342   1.960  10.267   3.839
  160POPC   PO4 2343   1.541   0.266   3.890
  160POPC   GL1 2344   1.766   0.061   4.234
  160POPC   GL2 2345   1.564  10.278   4.331
  160POPC   C1A 2346   2.062   0.027   4.649
  160POPC   D2A 2347   2.199  10.424   5.107
  160POPC   C3A 2348   2.012   0.107   5.498
  160POPC   C4A 2349   2.158   0.052   5.948
  160POPC   C1B 2350   1.651  10.160   4.769
  160POPC   C2B 2351   1.843  10.050   5.187
  160POPC   C3B 2352   1.996  10.101   5.629
  160POPC   C4B 2353   1.791  10.245   6.039
  161POPC   NC3 2354   1.914   4.459   4.043
  161POPC   PO4 2355   1.873   3.813   3.898
  161POPC   GL1 2356   2.065   3.984   4.264
  161POPC   GL2 2357   1.804   4.085   4.441
  161POPC   C1A 2358   2.210   3.986   4.727
  161POPC   D2A 2359   1.955   4.101   5.097
  161POPC   C3A 2360   2.179   3.994   5.497
  161POPC   C4A 2361   2.207   3.934   5.958
  161POPC   C1B 2362   1.778   4.462   4.696
  161POPC   C2B 2363   1.790   4.663   5.093
  161POPC   C3B 2364   1.766   4.438   5.446
  161POPC   C4B 2365   1.785   4.173   5.768
  162POPC   NC3 2366   7.155   0.649   4.086
  162POPC   PO4 2367   7.644   0.361   3.837
  162POPC   GL1 2368   7.620   0.506   4.251
  162POPC   GL2 2369   7.424   0.242   4.389
  162POPC   C1A 2370   7.605   0.604   4.696
  162POPC   D2A 2371   7.486   0.438   5.129
  162POPC   C3A 2372   7.417   0.709   5.501
  162POPC   C4A 2373   7.449   0.698   5.986
  162POPC   C1B 2374   7.139   0.396   4.746
  162POPC   C2B 2375   7.006   0.244   5.135
  162POPC   C3B 2376   7.100   0.289   5.591
  162POPC   C4B 2377   7.065   0.357   6.049
  163POPC   NC3 2378   7.920   0.021   3.947
  163POPC   PO4 2379   8.580   0.133   3.769
  163POPC   GL1 2380   8.276   0.248   4.193
  163POPC   GL2 2381   8.097   0.560   4.093
  163POPC   C1A 2382   7.922   0.141   4.557
  163POPC   D2A 2383   7.714  10.458   4.942
  163POPC   C3A 2384   7.848   0.108   5.351
  163POPC   C4A 2385   7.604   0.275   5.680
  163POPC   C1B 2386   8.086   0.640   4.536
  163POPC   C2B 2387   8.018   0.430   4.963
  163POPC   C3B 2388   7.899   0.654   5.324
  163POPC   C4B 2389   7.903   0.683   5.749
  164POPC   NC3 2390   8.797  10.286   4.027
  164POPC   PO4 2391   8.785   9.657   3.896
  164POPC   GL1 2392   8.860   9.728   4.353
  164POPC   GL2 2393   8.662  10.014   4.433
  164POPC   C1A 2394   8.823   9.704   4.809
  164POPC   D2A 2395   8.797   9.952   5.110
  164POPC   C3A 2396   8.970   9.830   5.496
  164POPC   C4A 2397   8.770   9.906   5.856
  164POPC   C1B 2398   8.641  10.377   4.698
  164POPC   C2B 2399   8.494  10.462   5.111
  164POPC   C3B 2400   8.627  10.258   5.480
  164POPC   C4B 2401   8.657  10.401   5.863
  165POPC   NC3 2402   2.143   2.675   3.864
  165POPC   PO4 2403   1.503   2.610   3.831
  165POPC   GL1 2404   1.611   2.736   4.238
  165POPC   GL2 2405   1.956   2.772   4.326
  165POPC   C1A 2406   1.556   2.770   4.700
  165POPC   D2A 2407   1.775   2.753   5.102
  165POPC   C3A 2408   1.520   2.846   5.363
  165POPC   C4A 2409   1.562   2.800   5.731
  165POPC   C1B 2410   2.078   2.644   4.733
  165POPC   C2B 2411   2.340   2.474   5.038
  165POPC   C3B 2412   2.178   2.374   5.432
  165POPC   C4B 2413   2.035   2.641   5.752
  166POPC   NC3 2414   6.621   8.368   3.738
  166POPC   PO4 2415   6.142   8.859   3.873
  166POPC   GL1 2416   6.161   8.769   4.380
  166POPC   GL2 2417   6.525   8.804   4.544
  166POPC   C1A 2418   6.264   8.446   4.744
  166POPC   D2A 2419   6.501   8.578   5.120
  166POPC   C3A 2420   6.322   8.544   5.544
  166POPC   C4A 2421   6.189   8.182   5.802
  166POPC   C1B 2422   6.225   8.955   4.856
  166POPC   C2B 2423   6.207   9.034   5.279
  166POPC   C3B 2424   6.559   8.995   5.522
  166POPC   C4B 2425   6.612   8.983   5.959
  167POPC   NC3 2426  10.227   7.249   3.981
  167POPC   PO4 2427   9.825   6.781   3.830
  167POPC   GL1 2428   9.826   7.034   4.258
  167POPC   GL2 2429  10.143   7.161   4.451
  167POPC   C1A 2430   9.767   7.016   4.730
  167POPC   D2A 2431   9.959   6.883   5.118
  167POPC   C3A 2432  10.013   7.092   5.494
  167POPC   C4A 2433  10.051   6.989   5.886
  167POPC   C1B 2434  10.209   7.362   4.856
  167POPC   C2B 2435  10.429   7.193   5.228
  167POPC   C3B 2436   0.024   6.948   5.662
  167POPC   C4B 2437  10.487   7.068   6.146
  168POPC   NC3 2438   8.136   1.661   4.169
  168POPC   PO4 2439   8.175   1.044   3.847
  168POPC   GL1 2440   8.176   1.122   4.251
  168POPC   GL2 2441   7.813   1.013   4.273
  168POPC   C1A 2442   8.381   1.143   4.666
  168POPC   D2A 2443   8.228   0.881   4.993
  168POPC   C3A 2444   8.281   0.979   5.454
  168POPC   C4A 2445   8.170   1.102   5.886
  168POPC   C1B 2446   7.880   1.174   4.699
  168POPC   C2B 2447   7.918   1.236   5.152
  168POPC   C3B 2448   7.776   1.126   5.547
  168POPC   C4B 2449   7.601   1.488   5.721
  169POPC   NC3 2450   4.897   8.456   4.042
  169POPC   PO4 2451   4.782   9.168   3.904
  169POPC   GL1 2452   4.851   8.939   4.275
  169POPC   GL2 2453   4.565   8.720   4.328
  169POPC   C1A 2454   4.788   9.028   4.707
  169POPC   D2A 2455   4.612   8.913   5.071
  169POPC   C3A 2456   4.779   8.855   5.443
  169POPC   C4A 2457   4.942   8.715   5.819
  169POPC   C1B 2458   4.796   8.503   4.681
  169POPC   C2B 2459   4.926   8.516   5.104
  169POPC   C3B 2460   4.815   8.336   5.515
  169POPC   C4B 2461   4.952   8.196   5.926
  170POPC   NC3 2462   7.800   6.502   3.897
  170POPC   PO4 2463   7.546   7.025   4.075
  170POPC   GL1 2464   7.821   6.727   4.385
  170POPC   GL2 2465   8.029   6.425   4.340
  170POPC   C1A 2466   7.943   6.537   4.829
  170POPC   D2A 2467   7.741   6.379   5.212
  170POPC   C3A 2468   7.784   6.575   5.622
  170POPC   C4A 2469   8.010   6.517   5.990
  170POPC   C1B 2470   8.213   6.134   4.626
  170POPC   C2B 2471   8.341   6.202   5.035
  170POPC   C3B 2472   8.219   6.361   5.409
  170POPC   C4B 2473   8.049   6.082   5.726
  171POPC   NC3 2474   5.577   2.190   3.989
  171POPC   PO4 2475   5.302   1.636   3.803
  171POPC   GL1 2476   5.507   1.701   4.225
  171POPC   GL2 2477   5.846   1.856   4.272
  171POPC   C1A 2478   5.667   1.605   4.665
  171POPC   D2A 2479   5.834   1.743   5.052
  171POPC   C3A 2480   5.606   1.802   5.419
  171POPC   C4A 2481   5.779   1.596   5.752
  171POPC   C1B 2482   5.654   2.107   4.652
  171POPC   C2B 2483   5.765   2.247   5.087
  171POPC   C3B 2484   5.865   2.235   5.544
  171POPC   C4B 2485   5.671   2.388   5.950
  172POPC   NC3 2486   1.479   3.772   4.138
  172POPC   PO4 2487   0.957   3.444   3.740
  172POPC   GL1 2488   0.994   3.578   4.199
  172POPC   GL2 2489   1.006   3.240   4.371
  172POPC   C1A 2490   1.065   3.710   4.658
  172POPC   D2A 2491   1.276   3.717   5.088
  172POPC   C3A 2492   0.984   3.786   5.455
  172POPC   C4A 2493   1.025   3.585   5.865
  172POPC   C1B 2494   1.317   3.245   4.716
  172POPC   C2B 2495   1.217   3.185   5.133
  172POPC   C3B 2496   1.349   3.379   5.487
  172POPC   C4B 2497   1.405   3.254   5.880
  173POPC   NC3 2498   0.601   2.241   3.981
  173POPC   PO4 2499   0.712   2.868   4.153
  173POPC   GL1 2500   0.641   2.546   4.403
  173POPC   GL2 2501   0.313   2.618   4.444
  173POPC   C1A 2502   0.677   2.376   4.786
  173POPC   D2A 2503   0.508   2.481   5.160
  173POPC   C3A 2504   0.641   2.667   5.564
  173POPC   C4A 2505   0.389   2.456   5.838
  173POPC   C1B 2506   0.454   2.875   4.799
  173POPC   C2B 2507   0.450   2.994   5.221
  173POPC   C3B 2508   0.160   2.718   5.454
  173POPC   C4B 2509  10.483   2.763   5.848
  174POPC   NC3 2510   1.828   7.163   4.007
  174POPC   PO4 2511   2.497   7.153   3.909
  174POPC   GL1 2512   2.227   7.054   4.308
  174POPC   GL2 2513   1.952   7.293   4.467
  174POPC   C1A 2514   2.164   6.973   4.777
  174POPC   D2A 2515   2.111   7.257   5.146
  174POPC   C3A 2516   2.143   6.966   5.482
  174POPC   C4A 2517   2.071   6.824   5.885
  174POPC   C1B 2518   1.687   7.154   4.794
  174POPC   C2B 2519   1.687   6.970   5.198
  174POPC   C3B 2520   1.683   7.130   5.606
  174POPC   C4B 2521   1.677   7.410   5.945
  175POPC   NC3 2522   7.245   7.374   4.045
  175POPC   PO4 2523   6.790   7.956   3.897
  175POPC   GL1 2524   7.036   8.061   4.346
  175POPC   GL2 2525   7.418   8.052   4.401
  175POPC   C1A 2526   7.092   7.841   4.762
  175POPC   D2A 2527   7.253   7.767   5.212
  175POPC   C3A 2528   7.087   7.700   5.657
  175POPC   C4A 2529   7.064   7.356   5.970
  175POPC   C1B 2530   7.324   8.318   4.751
  175POPC   C2B 2531   7.383   8.393   5.186
  175POPC   C3B 2532   7.186   8.187   5.512
  175POPC   C4B 2533   7.258   8.125   5.922
  176POPC   NC3 2534   1.393   2.164   3.845
  176POPC   PO4 2535   1.570   1.620   4.140
  176POPC   GL1 2536   1.405   1.930   4.347
  176POPC   GL2 2537   1.129   1.754   4.492
  176POPC   C1A 2538   1.503   1.916   4.792
  176POPC   D2A 2539   1.412   1.964   5.201
  176POPC   C3A 2540   1.103   1.743   5.461
  176POPC   C4A 2541   1.236   1.668   5.917
  176POPC   C1B 2542   1.023   1.827   4.916
  176POPC   C2B 2543   0.930   2.165   5.177
  176POPC   C3B 2544   0.742   2.178   5.563
  176POPC   C4B 2545   0.973   2.095   5.900
  177POPC   NC3 2546   4.992   0.568   3.811
  177POPC   PO4 2547   4.407   0.582   4.064
  177POPC   GL1 2548   4.631   0.569   4.445
  177POPC   GL2 2549   4.881   0.354   4.271
  177POPC   C1A 2550   4.635   0.578   4.926
  177POPC   D2A 2551   4.679   0.352   5.285
  177POPC   C3A 2552   4.771   0.596   5.610
  177POPC   C4A 2553   4.742   0.249   5.839
  177POPC   C1B 2554   4.991   0.296   4.694
  177POPC   C2B 2555   5.116   0.489   5.086
  177POPC   C3B 2556   5.161   0.314   5.459
  177POPC   C4B 2557   5.298   0.374   5.829
  178POPC   NC3 2558   3.492   1.867   3.839
  178POPC   PO4 2559   2.946   1.830   4.078
  178POPC   GL1 2560   3.271   1.815   4.352
  178POPC   GL2 2561   3.442   2.099   4.362
  178POPC   C1A 2562   3.230   1.878   4.811
  178POPC   D2A 2563   3.419   1.942   5.196
  178POPC   C3A 2564   3.203   1.679   5.446
  178POPC   C4A 2565   2.952   1.592   5.806
  178POPC   C1B 2566   3.371   2.354   4.774
  178POPC   C2B 2567   3.615   2.427   5.132
  178POPC   C3B 2568   3.747   2.295   5.519
  178POPC   C4B 2569   3.461   2.036   5.705
  179POPC   NC3 2570   6.487   2.265   3.948
  179POPC   PO4 2571   6.735   1.620   3.903
  179POPC   GL1 2572   6.728   1.902   4.277
  179POPC   GL2 2573   6.364   1.901   4.304
  179POPC   C1A 2574   6.633   1.986   4.740
  179POPC   D2A 2575   6.757   1.874   5.162
  179POPC   C3A 2576   6.608   2.141   5.502
  179POPC   C4A 2577   6.626   1.852   5.818
  179POPC   C1B 2578   6.137   1.961   4.705
  179POPC   C2B 2579   6.239   2.053   5.156
  179POPC   C3B 2580   6.190   1.824   5.543
  179POPC   C4B 2581   6.253   1.523   5.943
  180POPC   NC3 2582   9.017   0.248   3.773
  180POPC   PO4 2583   9.414  10.465   4.160
  180POPC   GL1 2584   9.005   0.084   4.372
  180POPC   GL2 2585   8.758   0.334   4.258
  180POPC   C1A 2586   8.922   0.306   4.762
  180POPC   D2A 2587   9.131   0.369   5.143
  180POPC   C3A 2588   8.889   0.217   5.456
  180POPC   C4A 2589   8.782   0.387   5.820
  180POPC   C1B 2590   8.586   0.640   4.633
  180POPC   C2B 2591   8.561   0.503   5.097
  180POPC   C3B 2592   8.348   0.435   5.515
  180POPC   C4B 2593   8.345   0.576   5.967
  181POPC   NC3 2594  10.362   0.575   4.018
  181POPC   PO4 2595   9.719   0.543   3.747
  181POPC   GL1 2596   9.857   0.355   4.195
  181POPC   GL2 2597  10.182   0.407   4.438
  181POPC   C1A 2598   9.812   0.185   4.652
  181POPC   D2A 2599   9.643   0.413   5.008
  181POPC   C3A 2600   9.910   0.458   5.379
  181POPC   C4A 2601   9.976   0.225   5.765
  181POPC   C1B 2602  10.114   0.544   4.846
  181POPC   C2B 2603  10.195   0.802   5.156
  181POPC   C3B 2604  10.343   0.683   5.544
  181POPC   C4B 2605  10.440   0.717   5.977
  182POPC   NC3 2606   8.549   2.427   3.935
  182POPC   PO4 2607   9.073   2.877   3.949
  182POPC   GL1 2608   8.952   2.734   4.316
  182POPC   GL2 2609   8.605   2.824   4.275
  182POPC   C1A 2610   9.144   2.712   4.720
  182POPC   D2A 2611   8.979   2.882   5.084
  182POPC   C3A 2612   9.028   2.613   5.439
  182POPC   C4A 2613   8.864   2.666   5.841
  182POPC   C1B 2614   8.565   2.586   4.642
  182POPC   C2B 2615   8.617   2.518   5.079
  182POPC   C3B 2616   8.538   2.794   5.387
  182POPC   C4B 2617   8.357   2.732   5.763
  183POPC   NC3 2618   4.734  10.274   3.844
  183POPC   PO4 2619   5.295   0.142   3.887
  183POPC   GL1 2620   5.253  10.478   4.274
  183POPC   GL2 2621   5.067  10.179   4.201
  183POPC   C1A 2622   5.333  10.425   4.695
  183POPC   D2A 2623   5.063  10.447   5.063
  183POPC   C3A 2624   5.256  10.328   5.432
  183POPC   C4A 2625   5.063  10.366   5.800
  183POPC   C1B 2626   4.817  10.273   4.576
  183POPC   C2B 2627   4.778  10.031   4.973
  183POPC   C3B 2628   4.967   9.895   5.358
  183POPC   C4B 2629   4.762   9.932   5.773
  184POPC   NC3 2630   9.498   0.739   4.103
  184POPC   PO4 2631  10.088   1.000   4.026
  184POPC   GL1 2632   9.734   1.163   4.302
  184POPC   GL2 2633   9.327   1.133   4.331
  184POPC   C1A 2634   9.707   0.989   4.740
  184POPC   D2A 2635   9.665   0.865   5.199
  184POPC   C3A 2636   9.899   1.016   5.545
  184POPC   C4A 2637   9.549   1.257   5.671
  184POPC   C1B 2638   9.357   1.374   4.716
  184POPC   C2B 2639   9.410   1.340   5.167
  184POPC   C3B 2640   9.087   1.246   5.484
  184POPC   C4B 2641   9.003   1.475   5.842
  185POPC   NC3 2642   2.494   8.768   3.980
  185POPC   PO4 2643   2.900   8.228   3.746
  185POPC   GL1 2644   2.788   8.425   4.226
  185POPC   GL2 2645   2.435   8.512   4.408
  185POPC   C1A 2646   2.843   8.622   4.678
  185POPC   D2A 2647   2.980   8.733   5.103
  185POPC   C3A 2648   2.772   9.068   5.367
  185POPC   C4A 2649   2.852   8.916   5.791
  185POPC   C1B 2650   2.234   8.383   4.781
  185POPC   C2B 2651   2.446   8.562   5.095
  185POPC   C3B 2652   2.642   8.585   5.475
  185POPC   C4B 2653   2.565   8.406   5.875
  186POPC   NC3 2654   7.306  10.205   3.826
  186POPC   PO4 2655   6.973   0.234   4.151
  186POPC   GL1 2656   7.068  10.330   4.307
  186POPC   GL2 2657   7.065   9.974   4.208
  186POPC   C1A 2658   6.851  10.158   4.651
  186POPC   D2A 2659   6.683  10.357   4.993
  186POPC   C3A 2660   6.874  10.334   5.403
  186POPC   C4A 2661   6.821  10.430   5.830
  186POPC   C1B 2662   7.255   9.852   4.625
  186POPC   C2B 2663   7.205  10.053   5.027
  186POPC   C3B 2664   7.079   9.859   5.408
  186POPC   C4B 2665   7.183  10.081   5.760
  187POPC   NC3 2666   7.138   9.220   3.802
  187POPC   PO4 2667   7.491   9.794   4.010
  187POPC   GL1 2668   7.346   9.421   4.288
  187POPC   GL2 2669   7.038   9.178   4.286
  187POPC   C1A 2670   7.201   9.330   4.737
  187POPC   D2A 2671   7.314   9.559   5.081
  187POPC   C3A 2672   7.348   9.339   5.439
  187POPC   C4A 2673   7.258   9.546   5.785
  187POPC   C1B 2674   6.852   9.595   4.464
  187POPC   C2B 2675   6.843   9.683   4.922
  187POPC   C3B 2676   6.872   9.347   5.280
  187POPC   C4B 2677   7.035   9.052   5.680
  188POPC   NC3 2678   9.170   8.935   3.852
  188POPC   PO4 2679   9.724   8.586   3.826
  188POPC   GL1 2680   9.708   8.808   4.206
  188POPC   GL2 2681   9.408   8.679   4.306
  188POPC   C1A 2682   9.747   8.813   4.669
  188POPC   D2A 2683   9.607   8.912   5.091
  188POPC   C3A 2684   9.846   8.829   5.460
  188POPC   C4A 2685   9.777   8.902   5.897
  188POPC   C1B 2686   9.223   8.843   4.720
  188POPC   C2B 2687   9.159   8.686   5.137
  188POPC   C3B 2688   9.280   8.737   5.575
  188POPC   C4B 2689   8.962   8.677   5.888
  189POPC   NC3 2690   3.589  10.046   3.835
  189POPC   PO4 2691   2.924   9.764   3.852
  189POPC   GL1 2692   3.106   9.868   4.266
  189POPC   GL2 2693   3.456   9.919   4.301
  189POPC   C1A 2694   2.982   9.859   4.705
  189POPC   D2A 2695   3.080  10.075   5.081
  189POPC   C3A 2696   3.036   9.878   5.475
  189POPC   C4A 2697   3.243   9.841   5.863
  189POPC   C1B 2698   3.402  10.148   4.669
  189POPC   C2B 2699   3.604  10.146   5.073
  189POPC   C3B 2700   3.535  10.174   5.501
  189POPC   C4B 2701   3.830  10.497   5.712
  190POPC   NC3 2702   8.390   9.391   3.847
  190POPC   PO4 2703   8.361  10.074   3.989
  190POPC   GL1 2704   8.369   9.628   4.275
  190POPC   GL2 2705   8.667   9.283   4.243
  190POPC   C1A 2706   8.453   9.390   4.662
  190POPC   D2A 2707   8.634   9.240   5.050
  190POPC   C3A 2708   8.597   9.543   5.317
  190POPC   C4A 2709   8.634   9.452   5.723
  190POPC   C1B 2710   8.939   9.254   4.614
  190POPC   C2B 2711   9.150   9.338   5.022
  190POPC   C3B 2712   9.050   9.307   5.459
  190POPC   C4B 2713   9.104   9.489   5.889
  191POPC   NC3 2714   2.388   0.524   3.783
  191POPC   PO4 2715   2.991   0.808   3.706
  191POPC   GL1 2716   2.745   0.569   4.125
  191POPC   GL2 2717   2.884   0.224   4.150
  191POPC   C1A 2718   2.683   0.703   4.648
  191POPC   D2A 2719   2.540   0.829   5.094
  191POPC   C3A 2720   2.758   0.809   5.420
  191POPC   C4A 2721   2.663   0.591   5.754
  191POPC   C1B 2722   2.549   0.248   4.490
  191POPC   C2B 2723   2.452   0.326   4.915
  191POPC   C3B 2724   2.462   0.336   5.358
  191POPC   C4B 2725   2.601   0.089   5.719
  192POPC   NC3 2726   8.800   6.535   3.897
  192POPC   PO4 2727   8.169   6.768   3.980
  192POPC   GL1 2728   8.486   6.627   4.297
  192POPC   GL2 2729   8.536   6.282   4.267
  192POPC   C1A 2730   8.477   6.603   4.744
  192POPC   D2A 2731   8.755   6.539   5.108
  192POPC   C3A 2732   8.728   6.727   5.544
  192POPC   C4A 2733   8.913   6.675   5.986
  192POPC   C1B 2734   8.733   6.105   4.656
  192POPC   C2B 2735   8.803   6.006   5.091
  192POPC   C3B 2736   8.762   6.201   5.495
  192POPC   C4B 2737   8.487   6.376   5.828
  193POPC   NC3 2738   9.729   8.105   3.848
  193POPC   PO4 2739   9.089   8.091   3.945
  193POPC   GL1 2740   9.189   8.223   4.343
  193POPC   GL2 2741   9.535   8.140   4.319
  193POPC   C1A 2742   9.431   8.384   4.743
  193POPC   D2A 2743   9.598   8.142   5.078
  193POPC   C3A 2744   9.429   8.214   5.512
  193POPC   C4A 2745   9.164   8.184   5.895
  193POPC   C1B 2746   9.360   7.884   4.675
  193POPC   C2B 2747   9.344   7.686   5.088
  193POPC   C3B 2748   9.534   7.671   5.509
  193POPC   C4B 2749   9.853   7.638   5.847
  194POPC   NC3 2750   1.169   2.909   3.975
  194POPC   PO4 2751   0.981   2.316   3.730
  194POPC   GL1 2752   1.099   2.385   4.204
  194POPC   GL2 2753   1.132   2.703   4.417
  194POPC   C1A 2754   1.167   2.276   4.668
  194POPC   D2A 2755   1.354   2.450   5.056
  194POPC   C3A 2756   1.191   2.440   5.524
  194POPC   C4A 2757   1.352   2.415   5.958
  194POPC   C1B 2758   0.968   2.860   4.778
  194POPC   C2B 2759   0.958   2.751   5.185
  194POPC   C3B 2760   1.077   2.937   5.585
  194POPC   C4B 2761   0.828   3.061   5.877
  195POPC   NC3 2762   6.742   1.190   3.682
  195POPC   PO4 2763   7.383   1.114   3.911
  195POPC   GL1 2764   7.055   1.133   4.212
  195POPC   GL2 2765   7.068   1.423   4.406
  195POPC   C1A 2766   6.939   0.863   4.627
  195POPC   D2A 2767   7.022   0.957   5.014
  195POPC   C3A 2768   6.923   0.704   5.333
  195POPC   C4A 2769   6.895   0.755   5.749
  195POPC   C1B 2770   7.388   1.097   4.598
  195POPC   C2B 2771   7.521   0.969   5.026
  195POPC   C3B 2772   7.337   1.201   5.336
  195POPC   C4B 2773   7.267   1.116   5.752
  196POPC   NC3 2774   1.890   1.308   3.988
  196POPC   PO4 2775   2.433   1.586   3.995
  196POPC   GL1 2776   2.187   1.497   4.365
  196POPC   GL2 2777   2.170   1.137   4.386
  196POPC   C1A 2778   2.052   1.390   4.797
  196POPC   D2A 2779   2.130   1.129   5.128
  196POPC   C3A 2780   2.107   1.414   5.447
  196POPC   C4A 2781   2.095   1.394   5.876
  196POPC   C1B 2782   1.797   0.988   4.629
  196POPC   C2B 2783   1.665   0.913   5.074
  196POPC   C3B 2784   1.769   1.027   5.523
  196POPC   C4B 2785   1.931   0.936   5.960
  197POPC   NC3 2786   3.418   9.147   4.025
  197POPC   PO4 2787   4.073   9.151   4.169
  197POPC   GL1 2788   3.754   9.139   4.427
  197POPC   GL2 2789   3.653   9.456   4.352
  197POPC   C1A 2790   3.715   9.212   4.860
  197POPC   D2A 2791   3.716   9.203   5.295
  197POPC   C3A 2792   3.888   9.579   5.423
  197POPC   C4A 2793   3.725   9.746   5.776
  197POPC   C1B 2794   3.374   9.548   4.680
  197POPC   C2B 2795   3.415   9.672   5.106
  197POPC   C3B 2796   3.368   9.510   5.493
  197POPC   C4B 2797   3.051   9.377   5.756
  198POPC   NC3 2798   8.445  10.289   3.412
  198POPC   PO4 2799   7.798  10.168   3.701
  198POPC   GL1 2800   7.884  10.136   4.230
  198POPC   GL2 2801   7.570  10.243   4.305
  198POPC   C1A 2802   8.180  10.180   4.604
  198POPC   D2A 2803   8.295   9.955   4.995
  198POPC   C3A 2804   8.120  10.136   5.386
  198POPC   C4A 2805   8.149  10.439   5.747
  198POPC   C1B 2806   7.718  10.014   4.673
  198POPC   C2B 2807   7.725   9.907   5.065
  198POPC   C3B 2808   7.581  10.096   5.421
  198POPC   C4B 2809   7.793  10.045   5.789
  199POPC   NC3 2810   4.859   1.803   3.743
  199POPC   PO4 2811   4.526   2.266   3.909
  199POPC   GL1 2812   4.692   1.936   4.227
  199POPC   GL2 2813   4.985   1.689   4.243
  199POPC   C1A 2814   4.646   1.719   4.647
  199POPC   D2A 2815   4.870   1.714   5.054
  199POPC   C3A 2816   4.647   1.685   5.447
  199POPC   C4A 2817   4.670   1.891   5.852
  199POPC   C1B 2818   5.191   1.793   4.636
  199POPC   C2B 2819   5.296   1.995   5.047
  199POPC   C3B 2820   5.012   2.068   5.429
  199POPC   C4B 2821   5.130   2.229   5.843
  200POPC   NC3 2822   2.568   2.063   4.169
  200POPC   PO4 2823   2.155   2.262   3.645
  200POPC   GL1 2824   1.871   2.279   4.065
  200POPC   GL2 2825   1.974   1.971   4.237
  200POPC   C1A 2826   1.718   2.314   4.534
  200POPC   D2A 2827   1.858   2.253   5.010
  200POPC   C3A 2828   1.681   2.337   5.440
  200POPC   C4A 2829   1.467   2.028   5.683
  200POPC   C1B 2830   1.986   1.880   4.675
  200POPC   C2B 2831   1.859   1.738   5.129
  200POPC   C3B 2832   1.956   1.884   5.576
  200POPC   C4B 2833   1.756   1.742   5.986
  201POPC   NC3 2834   2.909   3.526   3.997
  201POPC   PO4 2835   2.372   3.104   3.861
  201POPC   GL1 2836   2.390   3.342   4.254
  201POPC   GL2 2837   2.728   3.317   4.443
  201POPC   C1A 2838   2.297   3.454   4.688
  201POPC   D2A 2839   2.592   3.360   5.026
  201POPC   C3A 2840   2.520   3.357   5.438
  201POPC   C4A 2841   2.807   3.263   5.792
  201POPC   C1B 2842   2.719   3.735   4.719
  201POPC   C2B 2843   2.567   3.859   5.186
  201POPC   C3B 2844   2.633   3.786   5.694
  201POPC   C4B 2845   2.897   3.674   6.093
  202POPC   NC3 2846   5.211   9.376   3.872
  202POPC   PO4 2847   4.724   9.823   3.952
  202POPC   GL1 2848   4.842   9.711   4.361
  202POPC   GL2 2849   5.043   9.417   4.342
  202POPC   C1A 2850   4.898   9.563   4.802
  202POPC   D2A 2851   4.661   9.411   5.122
  202POPC   C3A 2852   4.800   9.426   5.529
  202POPC   C4A 2853   4.677   9.148   5.833
  202POPC   C1B 2854   5.265   9.214   4.688
  202POPC   C2B 2855   5.102   9.084   5.125
  202POPC   C3B 2856   5.201   9.082   5.594
  202POPC   C4B 2857   5.198   9.084   6.072
  203POPC   NC3 2858   9.375   2.529   4.082
  203POPC   PO4 2859   9.746   1.888   3.968
  203POPC   GL1 2860   9.725   2.249   4.333
  203POPC   GL2 2861   9.633   2.631   4.483
  203POPC   C1A 2862   9.408   2.228   4.686
  203POPC   D2A 2863   9.298   2.262   5.139
  203POPC   C3A 2864   9.681   2.335   5.385
  203POPC   C4A 2865   9.731   2.393   5.818
  203POPC   C1B 2866   9.684   2.573   4.905
  203POPC   C2B 2867   9.449   2.746   5.177
  203POPC   C3B 2868   9.552   2.785   5.567
  203POPC   C4B 2869   9.357   2.731   5.914
  204POPC   NC3 2870   2.226   5.109   4.084
  204POPC   PO4 2871   1.579   4.934   3.985
  204POPC   GL1 2872   1.738   5.149   4.328
  204POPC   GL2 2873   1.933   4.843   4.395
  204POPC   C1A 2874   1.699   5.425   4.741
  204POPC   D2A 2875   1.888   5.422   5.165
  204POPC   C3A 2876   1.646   5.425   5.556
  204POPC   C4A 2877   1.809   5.143   5.895
  204POPC   C1B 2878   2.060   5.040   4.779
  204POPC   C2B 2879   2.197   4.956   5.192
  204POPC   C3B 2880   2.062   4.845   5.552
  204POPC   C4B 2881   2.191   4.469   5.708
  205POPC   NC3 2882   2.205   5.736   3.655
  205POPC   PO4 2883   1.590   5.745   3.886
  205POPC   GL1 2884   1.952   5.572   4.124
  205POPC   GL2 2885   2.142   5.871   4.162
  205POPC   C1A 2886   2.161   5.536   4.567
  205POPC   D2A 2887   2.127   5.788   4.926
  205POPC   C3A 2888   2.277   5.762   5.380
  205POPC   C4A 2889   2.173   5.358   5.590
  205POPC   C1B 2890   1.795   5.897   4.499
  205POPC   C2B 2891   1.688   6.026   4.908
  205POPC   C3B 2892   1.790   5.931   5.339
  205POPC   C4B 2893   1.937   5.826   5.757
  206POPC   NC3 2894   5.718   0.554   3.922
  206POPC   PO4 2895   6.077   0.053   3.968
  206POPC   GL1 2896   5.869   0.138   4.347
  206POPC   GL2 2897   5.704   0.441   4.399
  206POPC   C1A 2898   5.793   0.115   4.785
  206POPC   D2A 2899   5.517   0.177   5.102
  206POPC   C3A 2900   5.669   0.169   5.473
  206POPC   C4A 2901   6.078   0.240   5.619
  206POPC   C1B 2902   5.482   0.536   4.725
  206POPC   C2B 2903   5.534   0.781   5.072
  206POPC   C3B 2904   5.399   0.778   5.482
  206POPC   C4B 2905   5.725   0.610   5.706
  207POPC   NC3 2906   6.361   1.314   4.019
  207POPC   PO4 2907   6.743   0.799   3.951
  207POPC   GL1 2908   6.581   1.042   4.349
  207POPC   GL2 2909   6.238   1.031   4.446
  207POPC   C1A 2910   6.597   1.212   4.770
  207POPC   D2A 2911   6.534   1.011   5.159
  207POPC   C3A 2912   6.831   1.203   5.439
  207POPC   C4A 2913   6.866   1.406   5.819
  207POPC   C1B 2914   6.132   1.410   4.687
  207POPC   C2B 2915   6.314   1.550   5.074
  207POPC   C3B 2916   6.299   1.339   5.467
  207POPC   C4B 2917   6.466   1.075   5.769
  208POPC   NC3 2918   7.095   2.993   3.632
  208POPC   PO4 2919   6.646   2.702   3.988
  208POPC   GL1 2920   6.993   2.695   4.278
  208POPC   GL2 2921   7.066   2.322   4.239
  208POPC   C1A 2922   7.199   2.936   4.652
  208POPC   D2A 2923   7.094   3.044   5.099
  208POPC   C3A 2924   7.297   3.010   5.517
  208POPC   C4A 2925   7.207   3.083   5.990
  208POPC   C1B 2926   7.341   2.454   4.564
  208POPC   C2B 2927   7.285   2.573   4.995
  208POPC   C3B 2928   7.437   2.528   5.415
  208POPC   C4B 2929   7.272   2.597   5.824
  209POPC   NC3 2930   9.891   3.712   3.625
  209POPC   PO4 2931  10.366   4.076   3.839
  209POPC   GL1 2932  10.198   4.167   4.247
  209POPC   GL2 2933  10.284   4.427   4.381
  209POPC   C1A 2934   9.941   4.129   4.617
  209POPC   D2A 2935   9.740   4.306   4.980
  209POPC   C3A 2936   9.949   4.083   5.274
  209POPC   C4A 2937  10.007   4.077   5.663
  209POPC   C1B 2938  10.449   4.100   4.694
  209POPC   C2B 2939  10.421   3.936   5.099
  209POPC   C3B 2940  10.424   4.258   5.409
  209POPC   C4B 2941  10.364   4.407   5.793
  210POPC   NC3 2942   8.010   3.286   3.941
  210POPC   PO4 2943   8.101   3.847   4.108
  210POPC   GL1 2944   8.112   3.507   4.420
  210POPC   GL2 2945   8.040   3.121   4.443
  210POPC   C1A 2946   8.193   3.480   4.854
  210POPC   D2A 2947   8.111   3.166   5.180
  210POPC   C3A 2948   8.054   3.348   5.594
  210POPC   C4A 2949   7.954   3.666   5.928
  210POPC   C1B 2950   7.733   3.277   4.795
  210POPC   C2B 2951   7.624   3.354   5.264
  210POPC   C3B 2952   7.552   3.410   5.725
  210POPC   C4B 2953   7.605   3.376   6.185
  211POPC   NC3 2954   0.341   8.933   3.990
  211POPC   PO4 2955   0.586   8.355   3.992
  211POPC   GL1 2956   0.528   8.526   4.353
  211POPC   GL2 2957   0.195   8.641   4.373
  211POPC   C1A 2958   0.402   8.374   4.742
  211POPC   D2A 2959   0.439   8.097   5.065
  211POPC   C3A 2960   0.431   8.323   5.429
  211POPC   C4A 2961   0.501   8.579   5.779
  211POPC   C1B 2962   0.452   8.950   4.635
  211POPC   C2B 2963   0.476   9.103   5.036
  211POPC   C3B 2964   0.354   8.889   5.398
  211POPC   C4B 2965   0.169   8.985   5.768
  212POPC   NC3 2966   2.304   6.732   3.874
  212POPC   PO4 2967   1.666   6.727   3.964
  212POPC   GL1 2968   1.759   6.800   4.377
  212POPC   GL2 2969   2.041   6.568   4.342
  212POPC   C1A 2970   1.763   6.637   4.798
  212POPC   D2A 2971   1.703   6.437   5.181
  212POPC   C3A 2972   1.757   6.602   5.566
  212POPC   C4A 2973   1.861   6.360   5.966
  212POPC   C1B 2974   2.118   6.257   4.680
  212POPC   C2B 2975   2.177   6.240   5.129
  212POPC   C3B 2976   2.136   6.254   5.557
  212POPC   C4B 2977   2.380   6.402   5.896
  213POPC   NC3 2978  10.100   4.460   3.847
  213POPC   PO4 2979   9.982   5.134   3.709
  213POPC   GL1 2980   9.990   4.879   4.136
  213POPC   GL2 2981  10.300   4.940   4.248
  213POPC   C1A 2982   9.981   4.714   4.625
  213POPC   D2A 2983  10.212   4.480   4.990
  213POPC   C3A 2984  10.011   4.566   5.412
  213POPC   C4A 2985   9.863   4.523   5.859
  213POPC   C1B 2986  10.287   5.128   4.658
  213POPC   C2B 2987  10.164   4.982   5.056
  213POPC   C3B 2988  10.070   5.063   5.478
  213POPC   C4B 2989  10.195   4.895   5.838
  214POPC   NC3 2990   3.362   2.569   3.830
  214POPC   PO4 2991   3.122   3.146   4.093
  214POPC   GL1 2992   3.474   2.878   4.246
  214POPC   GL2 2993   3.337   2.595   4.343
  214POPC   C1A 2994   3.732   2.743   4.648
  214POPC   D2A 2995   3.829   2.894   5.080
  214POPC   C3A 2996   3.706   2.807   5.523
  214POPC   C4A 2997   3.606   2.650   5.948
  214POPC   C1B 2998   3.251   2.861   4.711
  214POPC   C2B 2999   3.268   2.788   5.150
  214POPC   C3B 3000   3.231   2.599   5.572
  214POPC   C4B 3001   3.121   2.845   5.938
  215POPC   NC3 3002   1.535   8.787   3.853
  215POPC   PO4 3003   2.121   9.197   3.842
  215POPC   GL1 3004   2.043   8.911   4.197
  215POPC   GL2 3005   1.792   8.639   4.270
  215POPC   C1A 3006   2.072   8.841   4.644
  215POPC   D2A 3007   1.905   8.699   5.048
  215POPC   C3A 3008   2.107   8.748   5.422
  215POPC   C4A 3009   2.301   8.823   5.784
  215POPC   C1B 3010   1.693   8.430   4.670
  215POPC   C2B 3011   1.681   8.159   5.018
  215POPC   C3B 3012   1.913   8.228   5.368
  215POPC   C4B 3013   2.051   8.360   5.764
  216POPC   NC3 3014   0.474   9.470   3.682
  216POPC   PO4 3015  10.416   9.026   3.786
  216POPC   GL1 3016  10.496   9.138   4.280
  216POPC   GL2 3017   0.330   9.342   4.311
  216POPC   C1A 3018   0.035   9.256   4.742
  216POPC   D2A 3019   0.194   9.581   5.041
  216POPC   C3A 3020   0.310   9.407   5.434
  216POPC   C4A 3021   0.030   9.533   5.738
  216POPC   C1B 3022   0.550   9.491   4.700
  216POPC   C2B 3023   0.723   9.557   5.153
  216POPC   C3B 3024   0.663   9.744   5.641
  216POPC   C4B 3025   0.761   9.684   6.139
  217POPC   NC3 3026   4.178   7.914   3.932
  217POPC   PO4 3027   3.671   8.262   3.947
  217POPC   GL1 3028   3.784   7.964   4.308
  217POPC   GL2 3029   4.158   7.925   4.437
  217POPC   C1A 3030   3.786   7.783   4.744
  217POPC   D2A 3031   3.802   8.021   5.132
  217POPC   C3A 3032   3.894   7.806   5.538
  217POPC   C4A 3033   4.178   7.743   5.889
  217POPC   C1B 3034   4.294   8.077   4.867
  217POPC   C2B 3035   4.315   7.967   5.296
  217POPC   C3B 3036   4.636   7.862   5.617
  217POPC   C4B 3037   4.837   7.668   5.982
  218POPC   NC3 3038   0.614   7.085   4.017
  218POPC   PO4 3039   0.052   7.138   3.668
  218POPC   GL1 3040   0.158   7.151   4.209
  218POPC   GL2 3041   0.418   7.442   4.330
  218POPC   C1A 3042   0.165   7.184   4.691
  218POPC   D2A 3043   0.413   7.323   5.067
  218POPC   C3A 3044   0.312   7.355   5.515
  218POPC   C4A 3045   0.298   7.410   5.973
  218POPC   C1B 3046   0.694   7.187   4.650
  218POPC   C2B 3047   0.871   7.047   5.041
  218POPC   C3B 3048   0.815   7.279   5.398
  218POPC   C4B 3049   0.685   7.137   5.788
  219POPC   NC3 3050   0.848   0.636   4.173
  219POPC   PO4 3051   0.276   0.382   3.842
  219POPC   GL1 3052   0.414   0.376   4.229
  219POPC   GL2 3053   0.161   0.215   4.336
  219POPC   C1A 3054   0.418   0.517   4.666
  219POPC   D2A 3055   0.690   0.482   5.019
  219POPC   C3A 3056   0.760   0.707   5.390
  219POPC   C4A 3057   0.709   0.475   5.772
  219POPC   C1B 3058   0.019   0.143   4.736
  219POPC   C2B 3059   0.079   0.417   5.044
  219POPC   C3B 3060   0.330   0.412   5.382
  219POPC   C4B 3061   0.187   0.339   5.750
  220POPC   NC3 3062   6.275   2.878   4.187
  220POPC   PO4 3063   6.015   2.303   4.023
  220POPC   GL1 3064   6.232   2.391   4.404
  220POPC   GL2 3065   6.579   2.406   4.406
  220POPC   C1A 3066   6.351   2.439   4.844
  220POPC   D2A 3067   6.460   2.691   5.190
  220POPC   C3A 3068   6.279   2.558   5.575
  220POPC   C4A 3069   6.251   2.753   6.008
  220POPC   C1B 3070   6.860   2.438   4.707
  220POPC   C2B 3071   6.839   2.366   5.097
  220POPC   C3B 3072   6.930   2.633   5.409
  220POPC   C4B 3073   6.746   2.628   5.787
  221POPC   NC3 3074   1.742   8.157   4.066
  221POPC   PO4 3075   1.572   7.529   3.969
  221POPC   GL1 3076   1.996   7.730   4.218
  221POPC   GL2 3077   2.005   8.056   4.468
  221POPC   C1A 3078   2.257   7.660   4.647
  221POPC   D2A 3079   2.237   7.923   5.016
  221POPC   C3A 3080   2.137   7.721   5.399
  221POPC   C4A 3081   2.164   7.445   5.743
  221POPC   C1B 3082   1.730   7.770   4.662
  221POPC   C2B 3083   1.742   7.594   5.054
  221POPC   C3B 3084   1.634   7.644   5.466
  221POPC   C4B 3085   1.815   7.905   5.770
  222POPC   NC3 3086   1.091   7.817   3.834
  222POPC   PO4 3087   1.369   8.421   4.059
  222POPC   GL1 3088   1.331   8.211   4.392
  222POPC   GL2 3089   1.371   7.881   4.263
  222POPC   C1A 3090   1.174   8.265   4.801
  222POPC   D2A 3091   0.945   8.200   5.185
  222POPC   C3A 3092   1.266   8.270   5.504
  222POPC   C4A 3093   1.524   8.312   5.891
  222POPC   C1B 3094   1.218   7.776   4.620
  222POPC   C2B 3095   1.285   7.813   5.033
  222POPC   C3B 3096   1.119   7.782   5.410
  222POPC   C4B 3097   1.296   7.855   5.788
  223POPC   NC3 3098   0.214   7.944   3.909
  223POPC   PO4 3099   0.730   7.869   3.551
  223POPC   GL1 3100   0.676   7.876   4.137
  223POPC   GL2 3101   0.357   8.005   4.373
  223POPC   C1A 3102   0.755   7.959   4.645
  223POPC   D2A 3103   0.793   7.658   5.004
  223POPC   C3A 3104   0.614   7.776   5.414
  223POPC   C4A 3105   0.777   8.089   5.712
  223POPC   C1B 3106   0.247   7.735   4.749
  223POPC   C2B 3107   0.086   7.714   5.189
  223POPC   C3B 3108   0.156   7.819   5.636
  223POPC   C4B 3109   0.161   8.199   5.856
  224POPC   NC3 3110  10.190   3.708   4.056
  224POPC   PO4 3111   9.845   3.248   3.631
  224POPC   GL1 3112   9.879   3.193   4.149
  224POPC   GL2 3113  10.208   3.220   4.239
  224POPC   C1A 3114   9.938   3.395   4.637
  224POPC   D2A 3115  10.205   3.442   5.062
  224POPC   C3A 3116  10.109   3.597   5.501
  224POPC   C4A 3117   9.893   3.672   5.933
  224POPC   C1B 3118  10.449   3.028   4.555
  224POPC   C2B 3119  10.492   3.022   5.007
  224POPC   C3B 3120  10.333   3.081   5.435
  224POPC   C4B 3121  10.337   3.256   5.863
  225POPC   NC3 3122   1.833   0.587   4.048
  225POPC   PO4 3123   2.275   0.944   3.926
  225POPC   GL1 3124   2.247   0.638   4.322
  225POPC   GL2 3125   1.872   0.479   4.512
  225POPC   C1A 3126   2.199   0.737   4.753
  225POPC   D2A 3127   1.971   0.466   5.010
  225POPC   C3A 3128   2.049   0.628   5.383
  225POPC   C4A 3129   2.159   0.519   5.788
  225POPC   C1B 3130   1.569   0.174   4.694
  225POPC   C2B 3131   1.623   0.067   5.118
  225POPC   C3B 3132   1.581   0.449   5.333
  225POPC   C4B 3133   1.624   0.585   5.744
  226POPC   NC3 3134   7.198   1.559   3.890
  226POPC   PO4 3135   7.842   1.839   3.817
  226POPC   GL1 3136   7.611   1.627   4.198
  226POPC   GL2 3137   7.331   1.869   4.300
  226POPC   C1A 3138   7.548   1.596   4.678
  226POPC   D2A 3139   7.587   1.651   5.156
  226POPC   C3A 3140   7.204   1.680   5.449
  226POPC   C4A 3141   7.194   1.796   5.876
  226POPC   C1B 3142   7.142   1.986   4.715
  226POPC   C2B 3143   7.268   2.091   5.154
  226POPC   C3B 3144   7.102   2.183   5.583
  226POPC   C4B 3145   6.921   2.208   6.034
  227POPC   NC3 3146   7.976   8.001   3.951
  227POPC   PO4 3147   8.405   7.528   3.986
  227POPC   GL1 3148   8.168   7.657   4.341
  227POPC   GL2 3149   7.896   7.886   4.425
  227POPC   C1A 3150   8.080   7.577   4.776
  227POPC   D2A 3151   8.180   7.802   5.152
  227POPC   C3A 3152   8.139   7.584   5.544
  227POPC   C4A 3153   7.918   7.582   5.914
  227POPC   C1B 3154   7.626   7.808   4.791
  227POPC   C2B 3155   7.702   7.977   5.188
  227POPC   C3B 3156   7.627   7.901   5.625
  227POPC   C4B 3157   7.749   8.073   6.047
  228POPC   NC3 3158   4.355   2.678   3.873
  228POPC   PO4 3159   3.801   2.279   3.865
  228POPC   GL1 3160   3.862   2.390   4.286
  228POPC   GL2 3161   4.202   2.510   4.342
  228POPC   C1A 3162   3.921   2.283   4.730
  228POPC   D2A 3163   4.125   2.421   5.132
  228POPC   C3A 3164   4.185   2.615   5.513
  228POPC   C4A 3165   4.078   2.484   5.887
  228POPC   C1B 3166   4.257   2.715   4.752
  228POPC   C2B 3167   4.334   2.944   5.148
  228POPC   C3B 3168   4.298   3.101   5.584
  228POPC   C4B 3169   4.493   2.878   5.966
  229POPC   NC3 3170   9.678   5.357   3.976
  229POPC   PO4 3171   9.139   5.103   3.657
  229POPC   GL1 3172   9.254   4.925   4.196
  229POPC   GL2 3173   9.541   5.039   4.327
  229POPC   C1A 3174   9.176   5.067   4.671
  229POPC   D2A 3175   9.341   5.295   5.076
  229POPC   C3A 3176   9.197   5.143   5.524
  229POPC   C4A 3177   9.066   5.149   5.985
  229POPC   C1B 3178   9.696   5.126   4.730
  229POPC   C2B 3179   9.670   4.881   5.122
  229POPC   C3B 3180   9.543   4.762   5.540
  229POPC   C4B 3181   9.443   4.782   5.999
  230POPC   NC3 3182   7.950   7.195   3.937
  230POPC   PO4 3183   7.540   7.729   3.979
  230POPC   GL1 3184   7.675   7.435   4.358
  230POPC   GL2 3185   7.977   7.205   4.426
  230POPC   C1A 3186   7.650   7.285   4.808
  230POPC   D2A 3187   7.769   7.460   5.221
  230POPC   C3A 3188   7.532   7.387   5.633
  230POPC   C4A 3189   7.574   7.182   6.064
  230POPC   C1B 3190   8.120   7.006   4.789
  230POPC   C2B 3191   8.022   6.899   5.262
  230POPC   C3B 3192   7.966   7.070   5.727
  230POPC   C4B 3193   8.080   7.182   6.187
  231POPC   NC3 3194  10.414   6.378   3.910
  231POPC   PO4 3195   9.939   6.056   4.095
  231POPC   GL1 3196  10.217   6.289   4.371
  231POPC   GL2 3197  10.204   6.659   4.304
  231POPC   C1A 3198  10.337   6.314   4.801
  231POPC   D2A 3199  10.064   6.332   5.129
  231POPC   C3A 3200  10.244   6.095   5.452
  231POPC   C4A 3201  10.266   6.185   5.835
  231POPC   C1B 3202  10.320   6.807   4.745
  231POPC   C2B 3203  10.420   6.691   5.173
  231POPC   C3B 3204  10.139   6.599   5.565
  231POPC   C4B 3205   9.938   6.501   6.001
  232POPC   NC3 3206   5.665  10.345   3.969
  232POPC   PO4 3207   5.925   9.751   3.915
  232POPC   GL1 3208   5.878   9.983   4.293
  232POPC   GL2 3209   5.526  10.042   4.341
  232POPC   C1A 3210   5.821  10.096   4.737
  232POPC   D2A 3211   5.856  10.233   5.153
  232POPC   C3A 3212   6.062   9.968   5.473
  232POPC   C4A 3213   5.813  10.248   5.702
  232POPC   C1B 3214   5.198   9.950   4.635
  232POPC   C2B 3215   5.367  10.010   5.026
  232POPC   C3B 3216   5.539   9.919   5.409
  232POPC   C4B 3217   5.268   9.894   5.781
  233POPC   NC3 3218   0.521  10.449   3.879
  233POPC   PO4 3219   0.311   9.755   4.002
  233POPC   GL1 3220   0.469   9.922   4.344
  233POPC   GL2 3221   0.329  10.234   4.313
  233POPC   C1A 3222   0.488  10.006   4.768
  233POPC   D2A 3223   0.526  10.008   5.199
  233POPC   C3A 3224   0.207   9.906   5.449
  233POPC   C4A 3225   0.273  10.082   5.814
  233POPC   C1B 3226   0.570  10.497   4.591
  233POPC   C2B 3227   0.440   0.025   5.017
  233POPC   C3B 3228   0.284  10.413   5.407
  233POPC   C4B 3229   0.558  10.497   5.720
  234POPC   NC3 3230  10.484  10.085   3.946
  234POPC   PO4 3231  10.271   0.095   4.047
  234POPC   GL1 3232  10.300  10.341   4.390
  234POPC   GL2 3233  10.154  10.031   4.397
  234POPC   C1A 3234  10.126  10.298   4.808
  234POPC   D2A 3235  10.027   0.061   5.107
  234POPC   C3A 3236  10.335   0.166   5.409
  234POPC   C4A 3237  10.415  10.432   5.786
  234POPC   C1B 3238  10.497   9.920   4.638
  234POPC   C2B 3239   0.062  10.143   5.014
  234POPC   C3B 3240  10.286  10.165   5.352
  234POPC   C4B 3241  10.145  10.018   5.773
  235POPC   NC3 3242   3.344   0.620   3.962
  235POPC   PO4 3243   3.350  10.435   3.923
  235POPC   GL1 3244   3.550   0.141   4.292
  235POPC   GL2 3245   3.433   0.464   4.426
  235POPC   C1A 3246   3.633   0.098   4.748
  235POPC   D2A 3247   3.293   0.059   5.093
  235POPC   C3A 3248   3.412   0.183   5.529
  235POPC   C4A 3249   3.536   0.320   5.956
  235POPC   C1B 3250   3.075   0.304   4.650
  235POPC   C2B 3251   2.931   0.465   5.036
  235POPC   C3B 3252   2.969   0.362   5.436
  235POPC   C4B 3253   3.172   0.609   5.748
  236POPC   NC3 3254   9.676   6.349   3.847
  236POPC   PO4 3255   9.166   6.643   4.153
  236POPC   GL1 3256   9.626   6.534   4.307
  236POPC   GL2 3257   9.602   6.170   4.461
  236POPC   C1A 3258   9.869   6.529   4.682
  236POPC   D2A 3259   9.545   6.634   4.966
  236POPC   C3A 3260   9.649   6.527   5.349
  236POPC   C4A 3261   9.632   6.732   5.690
  236POPC   C1B 3262   9.620   6.146   4.940
  236POPC   C2B 3263   9.221   6.294   5.191
  236POPC   C3B 3264   9.216   6.414   5.617
  236POPC   C4B 3265   9.597   6.203   5.750
  237POPC   NC3 3266   1.205   4.590   3.967
  237POPC   PO4 3267   0.845   5.167   3.890
  237POPC   GL1 3268   1.143   4.973   4.303
  237POPC   GL2 3269   1.437   4.692   4.397
  237POPC   C1A 3270   1.079   4.793   4.764
  237POPC   D2A 3271   0.972   5.057   5.138
  237POPC   C3A 3272   1.055   4.961   5.588
  237POPC   C4A 3273   1.318   5.153   5.936
  237POPC   C1B 3274   1.549   4.944   4.738
  237POPC   C2B 3275   1.485   5.113   5.141
  237POPC   C3B 3276   1.552   4.899   5.525
  237POPC   C4B 3277   1.345   4.538   5.726
  238POPC   NC3 3278   8.748   8.349   4.085
  238POPC   PO4 3279   8.606   8.949   3.862
  238POPC   GL1 3280   8.525   8.781   4.270
  238POPC   GL2 3281   8.901   8.762   4.336
  238POPC   C1A 3282   8.608   8.862   4.721
  238POPC   D2A 3283   8.645   8.638   5.105
  238POPC   C3A 3284   8.760   8.872   5.441
  238POPC   C4A 3285   8.494   8.972   5.752
  238POPC   C1B 3286   8.906   8.421   4.712
  238POPC   C2B 3287   9.075   8.182   5.078
  238POPC   C3B 3288   8.904   8.351   5.477
  238POPC   C4B 3289   8.500   8.462   5.701
  239POPC   NC3 3290   7.300   8.146   3.930
  239POPC   PO4 3291   6.975   8.771   3.848
  239POPC   GL1 3292   7.008   8.647   4.268
  239POPC   GL2 3293   7.326   8.553   4.295
  239POPC   C1A 3294   7.057   8.838   4.679
  239POPC   D2A 3295   7.207   8.937   5.097
  239POPC   C3A 3296   6.961   8.656   5.351
  239POPC   C4A 3297   6.797   8.557   5.748
  239POPC   C1B 3298   7.583   8.757   4.632
  239POPC   C2B 3299   7.734   8.734   5.057
  239POPC   C3B 3300   7.559   8.842   5.470
  239POPC   C4B 3301   7.290   8.615   5.745
  240POPC   NC3 3302   4.265   0.991   3.845
  240POPC   PO4 3303   3.834   1.546   3.854
  240POPC   GL1 3304   3.974   1.199   4.192
  240POPC   GL2 3305   4.292   1.114   4.325
  240POPC   C1A 3306   3.932   1.188   4.666
  240POPC   D2A 3307   4.156   1.271   5.070
  240POPC   C3A 3308   4.059   1.082   5.464
  240POPC   C4A 3309   3.955   1.254   5.850
  240POPC   C1B 3310   4.344   0.913   4.702
  240POPC   C2B 3311   4.162   0.743   5.055
  240POPC   C3B 3312   4.281   0.616   5.413
  240POPC   C4B 3313   4.333   0.780   5.792
  241POPC   NC3 3314  10.013   9.253   3.915
  241POPC   PO4 3315  10.046   9.946   3.917
  241POPC   GL1 3316   9.865   9.654   4.181
  241POPC   GL2 3317  10.203   9.545   4.298
  241POPC   C1A 3318   9.843   9.694   4.629
  241POPC   D2A 3319  10.185   9.612   4.946
  241POPC   C3A 3320  10.157   9.664   5.402
  241POPC   C4A 3321   9.869   9.593   5.781
  241POPC   C1B 3322  10.041   9.226   4.576
  241POPC   C2B 3323  10.091   9.074   4.989
  241POPC   C3B 3324  10.357   9.181   5.314
  241POPC   C4B 3325  10.181   9.178   5.707
  242POPC   NC3 3326   6.364   7.800   3.981
  242POPC   PO4 3327   6.283   8.410   4.058
  242POPC   GL1 3328   6.599   8.340   4.297
  242POPC   GL2 3329   6.527   8.039   4.404
  242POPC   C1A 3330   6.803   8.391   4.691
  242POPC   D2A 3331   6.921   8.204   5.074
  242POPC   C3A 3332   6.667   8.185   5.421
  242POPC   C4A 3333   6.737   8.058   5.822
  242POPC   C1B 3334   6.502   8.004   4.853
  242POPC   C2B 3335   6.535   7.745   5.207
  242POPC   C3B 3336   6.398   7.739   5.630
  242POPC   C4B 3337   6.543   7.586   6.034
  243POPC   NC3 3338   8.571   0.780   3.983
  243POPC   PO4 3339   8.535   1.484   4.004
  243POPC   GL1 3340   8.724   1.189   4.283
  243POPC   GL2 3341   8.927   1.439   4.361
  243POPC   C1A 3342   8.901   1.059   4.701
  243POPC   D2A 3343   8.682   1.045   5.105
  243POPC   C3A 3344   8.771   0.794   5.471
  243POPC   C4A 3345   8.664   0.968   5.846
  243POPC   C1B 3346   8.710   1.570   4.752
  243POPC   C2B 3347   8.797   1.529   5.192
  243POPC   C3B 3348   8.591   1.383   5.567
  243POPC   C4B 3349   8.516   1.434   6.041
  244POPC   NC3 3350   2.552   9.462   3.843
  244POPC   PO4 3351   2.948   8.941   4.071
  244POPC   GL1 3352   2.598   9.181   4.270
  244POPC   GL2 3353   2.768   9.488   4.307
  244POPC   C1A 3354   2.319   9.304   4.618
  244POPC   D2A 3355   2.354   9.066   5.024
  244POPC   C3A 3356   2.289   9.229   5.426
  244POPC   C4A 3357   2.494   9.281   5.835
  244POPC   C1B 3358   2.840   9.357   4.724
  244POPC   C2B 3359   2.842   9.557   5.117
  244POPC   C3B 3360   2.600   9.626   5.478
  244POPC   C4B 3361   2.729   9.733   5.907
  245POPC   NC3 3362   5.789   8.616   4.034
  245POPC   PO4 3363   5.298   8.249   4.104
  245POPC   GL1 3364   5.296   8.669   4.313
  245POPC   GL2 3365   5.594   8.841   4.439
  245POPC   C1A 3366   5.252   8.719   4.766
  245POPC   D2A 3367   5.448   8.486   5.085
  245POPC   C3A 3368   5.299   8.607   5.453
  245POPC   C4A 3369   5.448   8.681   5.846
  245POPC   C1B 3370   5.802   8.660   4.744
  245POPC   C2B 3371   5.960   8.598   5.148
  245POPC   C3B 3372   5.816   8.472   5.528
  245POPC   C4B 3373   5.967   8.681   5.897
  246POPC   NC3 3374   9.496   3.032   3.838
  246POPC   PO4 3375   9.723   3.666   4.055
  246POPC   GL1 3376   9.433   3.457   4.329
  246POPC   GL2 3377   9.381   3.080   4.342
  246POPC   C1A 3378   9.416   3.590   4.749
  246POPC   D2A 3379   9.738   3.700   5.031
  246POPC   C3A 3380   9.600   3.730   5.461
  246POPC   C4A 3381   9.471   3.423   5.759
  246POPC   C1B 3382   9.536   3.087   4.790
  246POPC   C2B 3383   9.530   3.247   5.240
  246POPC   C3B 3384   9.180   3.095   5.508
  246POPC   C4B 3385   9.044   3.146   5.910
  247POPC   NC3 3386   0.289   1.539   3.980
  247POPC   PO4 3387   0.884   1.855   4.047
  247POPC   GL1 3388   0.664   1.604   4.325
  247POPC   GL2 3389   0.441   1.889   4.337
  247POPC   C1A 3390   0.573   1.711   4.752
  247POPC   D2A 3391   0.479   1.950   5.079
  247POPC   C3A 3392   0.578   1.734   5.416
  247POPC   C4A 3393   0.741   1.652   5.810
  247POPC   C1B 3394   0.217   2.139   4.631
  247POPC   C2B 3395   0.015   2.143   5.033
  247POPC   C3B 3396   0.194   2.198   5.435
  247POPC   C4B 3397   0.312   1.952   5.797
  248POPC   NC3 3398   9.537   0.109   3.746
  248POPC   PO4 3399   9.062   0.645   3.991
  248POPC   GL1 3400   9.116   0.644   4.419
  248POPC   GL2 3401   9.390   0.394   4.450
  248POPC   C1A 3402   9.280   0.723   4.801
  248POPC   D2A 3403   9.158   0.887   5.144
  248POPC   C3A 3404   9.275   0.684   5.523
  248POPC   C4A 3405   9.626   0.621   5.753
  248POPC   C1B 3406   9.352   0.070   4.767
  248POPC   C2B 3407   9.518  10.441   5.118
  248POPC   C3B 3408   9.495   0.192   5.477
  248POPC   C4B 3409   9.262   0.220   5.833
  249POPC   NC3 3410   8.684   3.153   3.872
  249POPC   PO4 3411   8.781   3.829   3.860
  249POPC   GL1 3412   8.589   3.554   4.197
  249POPC   GL2 3413   8.915   3.389   4.275
  249POPC   C1A 3414   8.531   3.235   4.565
  249POPC   D2A 3415   8.605   3.218   5.032
  249POPC   C3A 3416   8.435   3.551   5.294
  249POPC   C4A 3417   8.418   3.708   5.706
  249POPC   C1B 3418   9.031   3.236   4.688
  249POPC   C2B 3419   9.085   3.398   5.096
  249POPC   C3B 3420   8.895   3.496   5.499
  249POPC   C4B 3421   8.567   3.220   5.676
  250POPC   NC3 3422  10.229   5.744   3.881
  250POPC   PO4 3423   0.299   5.557   3.996
  250POPC   GL1 3424   0.114   5.580   4.398
  250POPC   GL2 3425  10.324   5.774   4.371
  250POPC   C1A 3426  10.475   5.566   4.827
  250POPC   D2A 3427   0.009   5.332   5.198
  250POPC   C3A 3428  10.257   5.537   5.471
  250POPC   C4A 3429  10.458   5.739   5.773
  250POPC   C1B 3430  10.083   5.898   4.686
  250POPC   C2B 3431  10.097   5.834   5.064
  250POPC   C3B 3432   9.777   5.884   5.359
  250POPC   C4B 3433   9.917   5.811   5.757
  251POPC   NC3 3434   9.201   9.782   3.751
  251POPC   PO4 3435   9.546   9.210   3.883
  251POPC   GL1 3436   9.338   9.492   4.172
  251POPC   GL2 3437   9.330   9.183   4.337
  251POPC   C1A 3438   9.293   9.666   4.612
  251POPC   D2A 3439   9.306   9.865   5.029
  251POPC   C3A 3440   9.450   9.686   5.396
  251POPC   C4A 3441   9.430   9.859   5.786
  251POPC   C1B 3442   9.543   9.256   4.697
  251POPC   C2B 3443   9.702   9.438   5.026
  251POPC   C3B 3444   9.804   9.310   5.372
  251POPC   C4B 3445   9.504   9.246   5.674
  252POPC   NC3 3446   3.081   5.499   4.076
  252POPC   PO4 3447   2.444   5.488   3.949
  252POPC   GL1 3448   2.612   5.579   4.309
  252POPC   GL2 3449   2.577   5.926   4.419
  252POPC   C1A 3450   2.649   5.493   4.739
  252POPC   D2A 3451   2.419   5.385   5.088
  252POPC   C3A 3452   2.660   5.312   5.489
  252POPC   C4A 3453   2.609   5.366   5.948
  252POPC   C1B 3454   2.584   5.984   4.882
  252POPC   C2B 3455   2.768   5.750   5.223
  252POPC   C3B 3456   2.805   5.776   5.668
  252POPC   C4B 3457   2.838   6.156   5.940
  253POPC   NC3 3458   2.018   3.389   3.864
  253POPC   PO4 3459   1.418   3.310   4.077
  253POPC   GL1 3460   1.745   3.237   4.315
  253POPC   GL2 3461   1.894   3.522   4.351
  253POPC   C1A 3462   1.897   3.139   4.711
  253POPC   D2A 3463   1.708   3.261   5.093
  253POPC   C3A 3464   1.907   3.193   5.472
  253POPC   C4A 3465   2.130   3.497   5.713
  253POPC   C1B 3466   1.823   3.654   4.764
  253POPC   C2B 3467   2.090   3.598   5.139
  253POPC   C3B 3468   1.762   3.703   5.401
  253POPC   C4B 3469   1.660   3.682   5.799
  254POPC   NC3 3470   0.288   4.218   3.821
  254POPC   PO4 3471   0.939   4.171   3.896
  254POPC   GL1 3472   0.580   4.281   4.223
  254POPC   GL2 3473   0.223   4.150   4.293
  254POPC   C1A 3474   0.482   4.385   4.658
  254POPC   D2A 3475   0.248   4.348   5.030
  254POPC   C3A 3476   0.406   4.443   5.420
  254POPC   C4A 3477   0.373   4.259   5.805
  254POPC   C1B 3478   0.453   3.876   4.569
  254POPC   C2B 3479   0.551   3.916   5.004
  254POPC   C3B 3480   0.337   3.938   5.401
  254POPC   C4B 3481  10.498   3.888   5.744
  255POPC   NC3 3482   5.029   1.278   3.935
  255POPC   PO4 3483   4.663   0.871   3.626
  255POPC   GL1 3484   4.721   0.954   4.111
  255POPC   GL2 3485   5.016   0.858   4.265
  255POPC   C1A 3486   4.754   1.199   4.531
  255POPC   D2A 3487   4.652   1.273   4.951
  255POPC   C3A 3488   4.567   1.007   5.296
  255POPC   C4A 3489   4.501   1.238   5.698
  255POPC   C1B 3490   5.043   0.816   4.702
  255POPC   C2B 3491   5.095   1.045   5.092
  255POPC   C3B 3492   4.962   1.281   5.439
  255POPC   C4B 3493   4.996   1.021   5.785
  256POPC   NC3 3494   8.172   8.759   3.808
  256POPC   PO4 3495   7.703   8.343   4.028
  256POPC   GL1 3496   7.864   8.404   4.365
  256POPC   GL2 3497   7.981   8.740   4.292
  256POPC   C1A 3498   7.838   8.277   4.782
  256POPC   D2A 3499   8.096   8.344   5.146
  256POPC   C3A 3500   7.820   8.362   5.492
  256POPC   C4A 3501   7.757   8.539   5.861
  256POPC   C1B 3502   8.151   8.663   4.714
  256POPC   C2B 3503   8.210   8.907   5.112
  256POPC   C3B 3504   8.072   8.804   5.545
  256POPC   C4B 3505   8.063   8.891   6.028
  257POPC   NC3 3506   2.823   4.451   3.625
  257POPC   PO4 3507   2.353   4.666   4.044
  257POPC   GL1 3508   2.263   4.435   4.432
  257POPC   GL2 3509   2.523   4.188   4.362
  257POPC   C1A 3510   2.242   4.495   4.892
  257POPC   D2A 3511   2.565   4.528   5.201
  257POPC   C3A 3512   2.636   4.281   5.556
  257POPC   C4A 3513   2.587   4.422   5.988
  257POPC   C1B 3514   2.669   4.236   4.782
  257POPC   C2B 3515   2.978   4.170   5.096
  257POPC   C3B 3516   3.150   4.240   5.507
  257POPC   C4B 3517   3.002   4.145   5.919
  258POPC   NC3 3518   5.711   1.281   3.765
  258POPC   PO4 3519   5.361   0.838   3.913
  258POPC   GL1 3520   5.445   1.169   4.226
  258POPC   GL2 3521   5.795   1.279   4.283
  258POPC   C1A 3522   5.317   1.249   4.664
  258POPC   D2A 3523   5.589   1.287   5.066
  258POPC   C3A 3524   5.452   1.287   5.519
  258POPC   C4A 3525   5.364   1.368   5.984
  258POPC   C1B 3526   5.771   0.979   4.629
  258POPC   C2B 3527   6.032   0.980   5.000
  258POPC   C3B 3528   5.884   1.024   5.421
  258POPC   C4B 3529   5.816   1.096   5.855
  259POPC   NC3 3530   9.264   5.864   4.115
  259POPC   PO4 3531   9.797   5.736   3.722
  259POPC   GL1 3532   9.706   5.686   4.333
  259POPC   GL2 3533   9.387   5.540   4.496
  259POPC   C1A 3534   9.684   5.643   4.849
  259POPC   D2A 3535   9.876   5.391   5.129
  259POPC   C3A 3536   9.678   5.391   5.475
  259POPC   C4A 3537   9.697   5.172   5.828
  259POPC   C1B 3538   9.234   5.901   4.762
  259POPC   C2B 3539   9.258   5.792   5.187
  259POPC   C3B 3540   9.203   5.893   5.600
  259POPC   C4B 3541   9.342   5.538   5.813
  260POPC   NC3 3542   6.110   9.316   3.917
  260POPC   PO4 3543   5.507   9.038   3.992
  260POPC   GL1 3544   5.733   9.298   4.281
  260POPC   GL2 3545   5.543   9.557   4.232
  260POPC   C1A 3546   5.797   9.195   4.746
  260POPC   D2A 3547   5.596   8.983   5.093
  260POPC   C3A 3548   5.733   8.980   5.512
  260POPC   C4A 3549   5.679   9.128   5.928
  260POPC   C1B 3550   5.557   9.628   4.695
  260POPC   C2B 3551   5.416   9.487   5.137
  260POPC   C3B 3552   5.479   9.477   5.616
  260POPC   C4B 3553   5.771   9.760   5.855
  261POPC   NC3 3554   9.405   6.976   3.922
  261POPC   PO4 3555   9.709   7.587   3.807
  261POPC   GL1 3556   9.569   7.614   4.239
  261POPC   GL2 3557   9.389   7.324   4.316
  261POPC   C1A 3558   9.675   7.494   4.680
  261POPC   D2A 3559   9.768   7.393   5.100
  261POPC   C3A 3560   9.541   7.156   5.371
  261POPC   C4A 3561   9.586   7.217   5.801
  261POPC   C1B 3562   9.154   7.402   4.688
  261POPC   C2B 3563   9.279   7.084   4.941
  261POPC   C3B 3564   9.180   6.807   5.275
  261POPC   C4B 3565   9.176   6.940   5.669
  262POPC   NC3 3566   2.681   1.848   3.701
  262POPC   PO4 3567   2.976   2.415   4.045
  262POPC   GL1 3568   2.939   2.202   4.481
  262POPC   GL2 3569   2.808   1.831   4.549
  262POPC   C1A 3570   2.779   2.141   4.929
  262POPC   D2A 3571   3.053   2.292   5.212
  262POPC   C3A 3572   2.975   2.111   5.626
  262POPC   C4A 3573   2.797   2.068   6.022
  262POPC   C1B 3574   2.462   1.719   4.750
  262POPC   C2B 3575   2.308   1.954   5.080
  262POPC   C3B 3576   2.508   1.990   5.442
  262POPC   C4B 3577   2.465   1.734   5.762
  263POPC   NC3 3578   4.149   1.956   3.906
  263POPC   PO4 3579   4.608   1.492   3.958
  263POPC   GL1 3580   4.268   1.631   4.303
  263POPC   GL2 3581   4.212   2.000   4.391
  263POPC   C1A 3582   4.099   1.693   4.767
  263POPC   D2A 3583   3.912   1.958   5.114
  263POPC   C3A 3584   3.872   1.792   5.512
  263POPC   C4A 3585   4.212   1.656   5.711
  263POPC   C1B 3586   4.434   2.194   4.716
  263POPC   C2B 3587   4.427   2.002   5.108
  263POPC   C3B 3588   4.326   2.126   5.530
  263POPC   C4B 3589   4.584   2.394   5.810
  264POPC   NC3 3590   2.944  10.218   3.923
  264POPC   PO4 3591   2.336   0.072   3.877
  264POPC   GL1 3592   2.549  10.310   4.243
  264POPC   GL2 3593   2.560   9.944   4.177
  264POPC   C1A 3594   2.794  10.334   4.679
  264POPC   D2A 3595   2.762  10.479   5.135
  264POPC   C3A 3596   3.018  10.370   5.505
  264POPC   C4A 3597   2.905  10.201   5.885
  264POPC   C1B 3598   2.485   9.821   4.623
  264POPC   C2B 3599   2.564   9.995   5.054
  264POPC   C3B 3600   2.537  10.134   5.496
  264POPC   C4B 3601   2.389  10.099   5.943
  265POPC   NC3 3602   4.163   0.352   3.762
  265POPC   PO4 3603   3.752   0.845   3.829
  265POPC   GL1 3604   3.905   0.657   4.234
  265POPC   GL2 3605   4.042   0.287   4.268
  265POPC   C1A 3606   3.816   0.651   4.692
  265POPC   D2A 3607   3.592   0.483   5.078
  265POPC   C3A 3608   3.816   0.472   5.474
  265POPC   C4A 3609   3.818   0.756   5.818
  265POPC   C1B 3610   4.228   0.364   4.677
  265POPC   C2B 3611   4.065   0.230   5.045
  265POPC   C3B 3612   4.223   0.099   5.403
  265POPC   C4B 3613   4.226   0.293   5.796
  266POPC   NC3 3614   1.289   6.967   3.866
  266POPC   PO4 3615   0.933   7.418   4.049
  266POPC   GL1 3616   1.079   7.084   4.311
  266POPC   GL2 3617   1.419   7.227   4.345
  266POPC   C1A 3618   1.305   6.843   4.632
  266POPC   D2A 3619   1.275   6.699   5.052
  266POPC   C3A 3620   1.214   6.893   5.479
  266POPC   C4A 3621   1.324   6.976   5.939
  266POPC   C1B 3622   1.205   7.313   4.772
  266POPC   C2B 3623   1.311   7.320   5.211
  266POPC   C3B 3624   1.225   7.372   5.661
  266POPC   C4B 3625   0.851   7.598   5.841
  267POPC   NC3 3626   7.866   2.301   3.842
  267POPC   PO4 3627   8.268   2.905   3.880
  267POPC   GL1 3628   8.119   2.597   4.217
  267POPC   GL2 3629   7.753   2.595   4.269
  267POPC   C1A 3630   8.079   2.431   4.640
  267POPC   D2A 3631   8.146   2.684   5.007
  267POPC   C3A 3632   8.095   2.489   5.404
  267POPC   C4A 3633   7.793   2.457   5.768
  267POPC   C1B 3634   7.713   2.776   4.689
  267POPC   C2B 3635   7.669   2.875   5.111
  267POPC   C3B 3636   7.813   2.904   5.506
  267POPC   C4B 3637   7.682   2.945   5.892
  268POPC   NC3 3638   1.663   9.312   3.856
  268POPC   PO4 3639   1.553  10.009   3.713
  268POPC   GL1 3640   1.826   9.867   4.148
  268POPC   GL2 3641   1.983   9.532   4.190
  268POPC   C1A 3642   1.963   9.747   4.639
  268POPC   D2A 3643   2.195   9.611   5.040
  268POPC   C3A 3644   1.945   9.602   5.438
  268POPC   C4A 3645   2.092   9.606   5.872
  268POPC   C1B 3646   1.766   9.264   4.504
  268POPC   C2B 3647   1.870   9.218   4.927
  268POPC   C3B 3648   1.738   9.125   5.320
  268POPC   C4B 3649   1.892   9.142   5.725
  269POPC   NC3 3650   9.093   1.589   3.899
  269POPC   PO4 3651   9.063   2.300   3.832
  269POPC   GL1 3652   8.863   2.218   4.285
  269POPC   GL2 3653   8.663   1.895   4.313
  269POPC   C1A 3654   8.916   2.242   4.765
  269POPC   D2A 3655   8.724   2.028   5.120
  269POPC   C3A 3656   8.699   2.225   5.532
  269POPC   C4A 3657   8.641   1.860   5.790
  269POPC   C1B 3658   8.460   2.059   4.681
  269POPC   C2B 3659   8.204   2.118   5.038
  269POPC   C3B 3660   8.245   1.990   5.457
  269POPC   C4B 3661   8.259   2.217   5.826
  270POPC   NC3 3662   2.831   2.829   3.908
  270POPC   PO4 3663   2.364   2.468   4.216
  270POPC   GL1 3664   2.504   2.838   4.325
  270POPC   GL2 3665   2.853   2.794   4.400
  270POPC   C1A 3666   2.468   2.970   4.733
  270POPC   D2A 3667   2.212   3.025   5.088
  270POPC   C3A 3668   2.349   2.882   5.453
  270POPC   C4A 3669   2.356   3.032   5.857
  270POPC   C1B 3670   2.826   2.609   4.775
  270POPC   C2B 3671   2.752   2.748   5.160
  270POPC   C3B 3672   2.667   2.489   5.480
  270POPC   C4B 3673   2.711   2.556   5.866
  271POPC   NC3 3674  10.117   8.697   3.634
  271POPC   PO4 3675  10.176   8.051   3.709
  271POPC   GL1 3676  10.109   8.377   4.092
  271POPC   GL2 3677  10.212   8.719   4.155
  271POPC   C1A 3678   9.932   8.377   4.534
  271POPC   D2A 3679  10.013   8.528   4.994
  271POPC   C3A 3680   9.941   8.342   5.385
  271POPC   C4A 3681   9.914   8.436   5.787
  271POPC   C1B 3682  10.282   8.767   4.618
  271POPC   C2B 3683   0.000   8.741   5.040
  271POPC   C3B 3684  10.348   8.687   5.494
  271POPC   C4B 3685  10.273   8.750   5.959
  272POPC   NC3 3686   8.892   4.757   3.915
  272POPC   PO4 3687   9.186   5.398   4.087
  272POPC   GL1 3688   8.810   5.224   4.321
  272POPC   GL2 3689   8.761   4.888   4.364
  272POPC   C1A 3690   8.631   5.137   4.763
  272POPC   D2A 3691   8.907   5.047   5.103
  272POPC   C3A 3692   8.684   5.039   5.459
  272POPC   C4A 3693   8.769   4.796   5.808
  272POPC   C1B 3694   8.847   4.663   4.726
  272POPC   C2B 3695   8.602   4.667   5.046
  272POPC   C3B 3696   8.563   4.544   5.393
  272POPC   C4B 3697   8.301   4.701   5.672
  273POPC   NC3 3698  10.215   3.018   3.748
  273POPC   PO4 3699   9.779   2.673   3.954
  273POPC   GL1 3700  10.086   2.728   4.314
  273POPC   GL2 3701  10.341   2.487   4.278
  273POPC   C1A 3702  10.026   2.909   4.770
  273POPC   D2A 3703   9.913   2.934   5.212
  273POPC   C3A 3704   9.885   3.142   5.643
  273POPC   C4A 3705   9.934   2.829   5.978
  273POPC   C1B 3706  10.397   2.546   4.734
  273POPC   C2B 3707  10.263   2.584   5.145
  273POPC   C3B 3708  10.134   2.558   5.547
  273POPC   C4B 3709  10.368   2.263   5.804
  274POPC   NC3 3710   0.264   0.839   3.736
  274POPC   PO4 3711   0.802   1.081   4.042
  274POPC   GL1 3712   0.606   0.978   4.434
  274POPC   GL2 3713   0.267   0.927   4.280
  274POPC   C1A 3714   0.541   0.977   4.907
  274POPC   D2A 3715   0.212   0.876   5.207
  274POPC   C3A 3716   0.317   0.843   5.656
  274POPC   C4A 3717   0.669   0.974   5.832
  274POPC   C1B 3718   0.293   1.308   4.600
  274POPC   C2B 3719   0.297   1.440   5.052
  274POPC   C3B 3720   0.364   1.292   5.437
  274POPC   C4B 3721   0.318   1.389   5.821
  275POPC   NC3 3722   4.299   9.725   3.788
  275POPC   PO4 3723   4.328  10.433   3.716
  275POPC   GL1 3724   4.251  10.250   4.139
  275POPC   GL2 3725   3.887  10.222   4.245
  275POPC   C1A 3726   4.294  10.365   4.590
  275POPC   D2A 3727   4.551   0.014   4.947
  275POPC   C3A 3728   4.658  10.326   5.386
  275POPC   C4A 3729   4.420  10.308   5.779
  275POPC   C1B 3730   3.920  10.025   4.672
  275POPC   C2B 3731   4.137  10.184   5.069
  275POPC   C3B 3732   4.040  10.086   5.505
  275POPC   C4B 3733   3.978  10.119   5.979
  276POPC   NC3 3734   6.555   8.789   4.052
  276POPC   PO4 3735   6.564   9.434   3.874
  276POPC   GL1 3736   6.530   9.244   4.286
  276POPC   GL2 3737   6.228   9.271   4.429
  276POPC   C1A 3738   6.643   9.241   4.761
  276POPC   D2A 3739   6.369   9.479   5.050
  276POPC   C3A 3740   6.435   9.508   5.488
  276POPC   C4A 3741   6.728   9.455   5.775
  276POPC   C1B 3742   6.061   9.625   4.649
  276POPC   C2B 3743   5.892   9.690   5.076
  276POPC   C3B 3744   5.944   9.453   5.462
  276POPC   C4B 3745   6.167   9.196   5.793
  277POPC   NC3 3746   1.331   5.335   3.927
  277POPC   PO4 3747   1.043   5.946   4.017
  277POPC   GL1 3748   1.052   5.562   4.283
  277POPC   GL2 3749   1.417   5.571   4.349
  277POPC   C1A 3750   1.104   5.321   4.689
  277POPC   D2A 3751   0.913   5.556   5.022
  277POPC   C3A 3752   1.052   5.456   5.445
  277POPC   C4A 3753   0.873   5.776   5.697
  277POPC   C1B 3754   1.290   5.794   4.695
  277POPC   C2B 3755   1.404   5.649   5.104
  277POPC   C3B 3756   1.298   5.882   5.439
  277POPC   C4B 3757   1.460   5.989   5.793
  278POPC   NC3 3758   1.172   3.834   3.695
  278POPC   PO4 3759   1.497   4.247   4.070
  278POPC   GL1 3760   1.262   4.163   4.386
  278POPC   GL2 3761   1.021   4.411   4.417
  278POPC   C1A 3762   1.430   4.100   4.784
  278POPC   D2A 3763   1.368   4.351   5.132
  278POPC   C3A 3764   1.388   4.077   5.477
  278POPC   C4A 3765   1.298   4.017   5.915
  278POPC   C1B 3766   0.935   4.207   4.802
  278POPC   C2B 3767   0.858   4.269   5.230
  278POPC   C3B 3768   0.889   4.280   5.660
  278POPC   C4B 3769   0.782   4.021   5.995
  279POPC   NC3 3770  10.088   1.536   3.975
  279POPC   PO4 3771   0.183   1.986   3.937
  279POPC   GL1 3772  10.436   1.815   4.243
  279POPC   GL2 3773  10.180   2.015   4.171
  279POPC   C1A 3774  10.475   1.689   4.668
  279POPC   D2A 3775  10.273   1.682   5.045
  279POPC   C3A 3776   0.041   1.724   5.384
  279POPC   C4A 3777  10.380   1.683   5.759
  279POPC   C1B 3778  10.154   2.095   4.606
  279POPC   C2B 3779   9.997   2.171   4.999
  279POPC   C3B 3780  10.125   2.047   5.399
  279POPC   C4B 3781   9.942   1.943   5.786
  280POPC   NC3 3782   9.229   3.980   4.014
  280POPC   PO4 3783   9.774   4.158   3.657
  280POPC   GL1 3784   9.689   4.189   4.149
  280POPC   GL2 3785   9.625   4.521   4.244
  280POPC   C1A 3786   9.443   4.113   4.609
  280POPC   D2A 3787   9.311   4.016   5.064
  280POPC   C3A 3788   9.472   4.241   5.439
  280POPC   C4A 3789   9.545   4.077   5.866
  280POPC   C1B 3790   9.473   4.641   4.658
  280POPC   C2B 3791   9.257   4.559   5.033
  280POPC   C3B 3792   9.062   4.641   5.405
  280POPC   C4B 3793   9.144   4.439   5.790
  281POPC   NC3 3794   2.612   7.872   3.797
  281POPC   PO4 3795   2.158   8.336   4.039
  281POPC   GL1 3796   2.470   8.015   4.267
  281POPC   GL2 3797   2.536   7.627   4.233
  281POPC   C1A 3798   2.652   8.099   4.684
  281POPC   D2A 3799   2.757   8.157   5.138
  281POPC   C3A 3800   2.413   8.149   5.448
  281POPC   C4A 3801   2.356   7.938   5.848
  281POPC   C1B 3802   2.823   7.630   4.608
  281POPC   C2B 3803   2.678   7.637   4.997
  281POPC   C3B 3804   2.656   7.716   5.408
  281POPC   C4B 3805   2.730   7.591   5.803
  282POPC   NC3 3806   0.659   6.198   3.967
  282POPC   PO4 3807   0.257   6.664   4.054
  282POPC   GL1 3808   0.455   6.479   4.370
  282POPC   GL2 3809   0.686   6.734   4.371
  282POPC   C1A 3810   0.358   6.523   4.801
  282POPC   D2A 3811   0.262   6.248   5.126
  282POPC   C3A 3812   0.129   6.409   5.518
  282POPC   C4A 3813   0.384   6.546   5.772
  282POPC   C1B 3814   0.869   6.617   4.733
  282POPC   C2B 3815   0.788   6.511   5.128
  282POPC   C3B 3816   0.716   6.753   5.456
  282POPC   C4B 3817   0.893   6.681   5.865
  283POPC   NC3 3818  10.108   7.603   3.585
  283POPC   PO4 3819  10.456   7.614   4.131
  283POPC   GL1 3820  10.089   7.654   4.373
  283POPC   GL2 3821   9.998   7.912   4.231
  283POPC   C1A 3822   9.940   7.906   4.741
  283POPC   D2A 3823  10.066   7.918   5.151
  283POPC   C3A 3824  10.130   7.581   5.402
  283POPC   C4A 3825  10.336   7.417   5.745
  283POPC   C1B 3826  10.359   8.119   4.504
  283POPC   C2B 3827  10.443   8.222   4.930
  283POPC   C3B 3828  10.437   8.198   5.371
  283POPC   C4B 3829  10.179   7.998   5.698
  284POPC   NC3 3830   8.448   7.101   4.148
  284POPC   PO4 3831   8.963   6.973   3.754
  284POPC   GL1 3832   8.946   7.104   4.206
  284POPC   GL2 3833   8.820   7.441   4.303
  284POPC   C1A 3834   8.844   6.981   4.660
  284POPC   D2A 3835   8.769   7.075   5.109
  284POPC   C3A 3836   9.066   7.323   5.344
  284POPC   C4A 3837   9.137   7.441   5.766
  284POPC   C1B 3838   8.570   7.427   4.728
  284POPC   C2B 3839   8.321   7.309   5.130
  284POPC   C3B 3840   8.423   7.151   5.512
  284POPC   C4B 3841   8.650   7.501   5.558
  285POPC   NC3 3842   6.539   0.332   3.961
  285POPC   PO4 3843   6.039   0.974   3.944
  285POPC   GL1 3844   6.175   0.585   4.223
  285POPC   GL2 3845   6.530   0.552   4.393
  285POPC   C1A 3846   6.124   0.502   4.701
  285POPC   D2A 3847   5.964   0.490   5.147
  285POPC   C3A 3848   6.254   0.687   5.450
  285POPC   C4A 3849   6.182   0.682   5.870
  285POPC   C1B 3850   6.618   0.302   4.719
  285POPC   C2B 3851   6.535   0.469   5.081
  285POPC   C3B 3852   6.598   0.294   5.457
  285POPC   C4B 3853   6.582   0.368   5.851
  286POPC   NC3 3854   4.473   9.369   4.179
  286POPC   PO4 3855   3.864   9.656   3.891
  286POPC   GL1 3856   4.131   9.748   4.278
  286POPC   GL2 3857   4.119   9.490   4.551
  286POPC   C1A 3858   4.421   9.870   4.637
  286POPC   D2A 3859   4.246   9.688   5.015
  286POPC   C3A 3860   4.448   9.815   5.374
  286POPC   C4A 3861   4.289   9.713   5.764
  286POPC   C1B 3862   4.228   9.112   4.787
  286POPC   C2B 3863   4.136   8.959   5.181
  286POPC   C3B 3864   4.264   9.225   5.522
  286POPC   C4B 3865   3.986   9.309   5.870
  287POPC   NC3 3866   8.442   4.117   3.982
  287POPC   PO4 3867   9.043   4.391   4.165
  287POPC   GL1 3868   8.680   4.395   4.306
  287POPC   GL2 3869   8.724   4.021   4.388
  287POPC   C1A 3870   8.408   4.372   4.625
  287POPC   D2A 3871   8.574   4.185   4.941
  287POPC   C3A 3872   8.372   4.070   5.308
  287POPC   C4A 3873   8.428   4.200   5.715
  287POPC   C1B 3874   8.721   3.699   4.715
  287POPC   C2B 3875   8.834   3.820   5.123
  287POPC   C3B 3876   8.897   4.135   5.415
  287POPC   C4B 3877   9.062   3.944   5.767
  288POPC   NC3 3878   8.177   1.499   3.698
  288POPC   PO4 3879   8.225   2.111   4.059
  288POPC   GL1 3880   7.832   2.082   4.314
  288POPC   GL2 3881   8.004   1.936   4.544
  288POPC   C1A 3882   7.627   2.111   4.760
  288POPC   D2A 3883   7.742   2.366   5.039
  288POPC   C3A 3884   7.757   2.110   5.353
  288POPC   C4A 3885   7.664   1.976   5.721
  288POPC   C1B 3886   8.047   1.654   4.844
  288POPC   C2B 3887   8.300   1.564   5.161
  288POPC   C3B 3888   8.108   1.506   5.552
  288POPC   C4B 3889   8.072   1.715   5.908
  289POPC   NC3 3890   9.469   2.114   3.700
  289POPC   PO4 3891   9.505   1.407   3.795
  289POPC   GL1 3892   9.448   1.615   4.247
  289POPC   GL2 3893   9.300   1.971   4.194
  289POPC   C1A 3894   9.654   1.795   4.604
  289POPC   D2A 3895   9.754   1.727   5.007
  289POPC   C3A 3896   9.574   1.848   5.369
  289POPC   C4A 3897   9.465   1.749   5.777
  289POPC   C1B 3898   9.125   1.830   4.576
  289POPC   C2B 3899   9.192   1.783   5.009
  289POPC   C3B 3900   9.077   1.872   5.465
  289POPC   C4B 3901   9.241   2.232   5.719
  290POPC   NC3 3902   3.335   8.383   3.648
  290POPC   PO4 3903   3.002   7.799   4.024
  290POPC   GL1 3904   3.286   7.797   4.378
  290POPC   GL2 3905   3.456   7.511   4.371
  290POPC   C1A 3906   3.400   8.113   4.745
  290POPC   D2A 3907   3.273   8.207   5.188
  290POPC   C3A 3908   3.513   8.131   5.573
  290POPC   C4A 3909   3.803   8.126   5.938
  290POPC   C1B 3910   3.299   7.617   4.834
  290POPC   C2B 3911   3.432   7.694   5.248
  290POPC   C3B 3912   3.172   7.763   5.593
  290POPC   C4B 3913   2.892   8.086   5.670
  291POPC   NC3 3914   0.357   5.109   3.932
  291POPC   PO4 3915   0.050   4.569   3.989
  291POPC   GL1 3916   0.253   4.700   4.310
  291POPC   GL2 3917   0.260   5.083   4.429
  291POPC   C1A 3918   0.068   4.692   4.693
  291POPC   D2A 3919   0.162   4.867   5.041
  291POPC   C3A 3920   0.018   4.800   5.441
  291POPC   C4A 3921   0.093   5.172   5.710
  291POPC   C1B 3922   0.606   4.892   4.618
  291POPC   C2B 3923   0.637   4.705   5.023
  291POPC   C3B 3924   0.541   4.925   5.408
  291POPC   C4B 3925   0.637   4.740   5.779
  292POPC   NC3 3926   0.966   8.603   3.888
  292POPC   PO4 3927   0.716   9.178   3.931
  292POPC   GL1 3928   0.870   8.920   4.281
  292POPC   GL2 3929   1.240   8.825   4.332
  292POPC   C1A 3930   0.893   8.684   4.685
  292POPC   D2A 3931   0.676   8.623   5.087
  292POPC   C3A 3932   0.919   8.652   5.474
  292POPC   C4A 3933   0.889   8.894   5.859
  292POPC   C1B 3934   1.424   8.874   4.742
  292POPC   C2B 3935   1.408   8.608   5.117
  292POPC   C3B 3936   1.605   8.659   5.511
  292POPC   C4B 3937   1.382   8.992   5.696
  293POPC   NC3 3938   7.948   9.787   3.907
  293POPC   PO4 3939   7.975   9.184   3.743
  293POPC   GL1 3940   7.952   9.273   4.203
  293POPC   GL2 3941   7.852   9.606   4.356
  293POPC   C1A 3942   8.014   9.150   4.665
  293POPC   D2A 3943   8.145   9.441   5.046
  293POPC   C3A 3944   8.197   9.297   5.475
  293POPC   C4A 3945   8.201   9.709   5.701
  293POPC   C1B 3946   7.670   9.505   4.719
  293POPC   C2B 3947   7.697   9.247   5.085
  293POPC   C3B 3948   7.780   9.563   5.437
  293POPC   C4B 3949   7.808   9.339   5.822
  294POPC   NC3 3950   3.464   1.235   3.803
  294POPC   PO4 3951   3.095   0.877   4.237
  294POPC   GL1 3952   3.490   1.011   4.324
  294POPC   GL2 3953   3.535   1.378   4.293
  294POPC   C1A 3954   3.471   1.033   4.768
  294POPC   D2A 3955   3.715   0.979   5.105
  294POPC   C3A 3956   3.480   0.857   5.435
  294POPC   C4A 3957   3.404   1.060   5.823
  294POPC   C1B 3958   3.581   1.550   4.670
  294POPC   C2B 3959   3.684   1.495   5.075
  294POPC   C3B 3960   3.613   1.353   5.465
  294POPC   C4B 3961   3.503   1.543   5.842
  295POPC   NC3 3962   3.233   8.195   4.099
  295POPC   PO4 3963   3.548   8.765   3.799
  295POPC   GL1 3964   3.591   8.677   4.235
  295POPC   GL2 3965   3.264   8.657   4.357
  295POPC   C1A 3966   3.644   8.720   4.686
  295POPC   D2A 3967   3.496   8.799   5.064
  295POPC   C3A 3968   3.530   8.603   5.418
  295POPC   C4A 3969   3.140   8.518   5.591
  295POPC   C1B 3970   3.243   9.030   4.662
  295POPC   C2B 3971   3.206   9.205   5.076
  295POPC   C3B 3972   3.258   9.014   5.471
  295POPC   C4B 3973   3.519   9.115   5.779
  296POPC   NC3 3974   2.917   7.339   4.024
  296POPC   PO4 3975   3.472   7.045   4.103
  296POPC   GL1 3976   3.122   7.091   4.416
  296POPC   GL2 3977   2.788   6.917   4.289
  296POPC   C1A 3978   3.056   7.177   4.861
  296POPC   D2A 3979   3.024   7.374   5.289
  296POPC   C3A 3980   3.027   7.185   5.745
  296POPC   C4A 3981   2.906   7.191   6.218
  296POPC   C1B 3982   2.600   7.187   4.616
  296POPC   C2B 3983   2.590   7.133   5.064
  296POPC   C3B 3984   2.570   7.224   5.490
  296POPC   C4B 3985   2.506   7.099   5.917
  297POPC   NC3 3986   1.449   6.223   3.976
  297POPC   PO4 3987   0.899   6.708   3.873
  297POPC   GL1 3988   1.144   6.542   4.240
  297POPC   GL2 3989   0.934   6.264   4.390
  297POPC   C1A 3990   1.357   6.340   4.643
  297POPC   D2A 3991   1.200   6.182   5.041
  297POPC   C3A 3992   1.281   6.386   5.453
  297POPC   C4A 3993   1.381   6.488   5.868
  297POPC   C1B 3994   0.741   6.107   4.779
  297POPC   C2B 3995   0.744   6.010   5.245
  297POPC   C3B 3996   0.823   6.263   5.605
  297POPC   C4B 3997   1.017   6.176   6.017
  298POPC   NC3 3998   0.727   5.628   3.861
  298POPC   PO4 3999   0.274   6.164   3.697
  298POPC   GL1 4000   0.227   6.045   4.175
  298POPC   GL2 4001   0.571   5.856   4.325
  298POPC   C1A 4002   0.222   6.027   4.637
  298POPC   D2A 4003   0.414   5.756   4.955
  298POPC   C3A 4004   0.209   5.799   5.341
  298POPC   C4A 4005   0.395   6.022   5.685
  298POPC   C1B 4006   0.610   5.453   4.574
  298POPC   C2B 4007   0.501   5.248   4.973
  298POPC   C3B 4008   0.549   5.427   5.379
  298POPC   C4B 4009   0.426   5.535   5.773
  299POPC   NC3 4010   1.317   0.593   3.657
  299POPC   PO4 4011   0.899   0.209   4.001
  299POPC   GL1 4012   1.214   0.257   4.303
  299POPC   GL2 4013   1.364   0.589   4.239
  299POPC   C1A 4014   1.058   0.311   4.717
  299POPC   D2A 4015   1.109   0.186   5.129
  299POPC   C3A 4016   1.144   0.331   5.528
  299POPC   C4A 4017   1.522   0.083   5.701
  299POPC   C1B 4018   1.410   0.668   4.669
  299POPC   C2B 4019   1.177   0.710   5.044
  299POPC   C3B 4020   1.272   0.874   5.426
  299POPC   C4B 4021   1.144   0.768   5.808
  300POPC   NC3 4022   4.001   8.780   3.918
  300POPC   PO4 4023   4.477   8.248   4.021
  300POPC   GL1 4024   4.089   8.393   4.250
  300POPC   GL2 4025   4.072   8.713   4.431
  300POPC   C1A 4026   3.890   8.296   4.673
  300POPC   D2A 4027   3.911   8.513   5.084
  300POPC   C3A 4028   3.974   8.348   5.492
  300POPC   C4A 4029   4.295   8.220   5.725
  300POPC   C1B 4030   4.315   8.595   4.789
  300POPC   C2B 4031   4.416   8.474   5.229
  300POPC   C3B 4032   4.328   8.714   5.606
  300POPC   C4B 4033   3.916   8.851   5.648
  301POPC   NC3 4034   9.791   1.060   3.683
  301POPC   PO4 4035  10.490   1.237   3.814
  301POPC   GL1 4036  10.365   1.276   4.329
  301POPC   GL2 4037  10.187   0.931   4.496
  301POPC   C1A 4038  10.030   1.416   4.654
  301POPC   D2A 4039   9.934   1.274   5.089
  301POPC   C3A 4040   9.966   1.534   5.460
  301POPC   C4A 4041   9.953   1.429   5.900
  301POPC   C1B 4042   0.022   0.850   4.718
  301POPC   C2B 4043  10.407   1.187   4.918
  301POPC   C3B 4044  10.370   1.248   5.345
  301POPC   C4B 4045  10.376   1.162   5.749
  302W        W 4046  10.388   3.600   8.985
  303W        W 4047   3.410   7.465   2.218
  304W        W 4048   7.995   2.754   1.857
  305W        W 4049   6.079   0.515   0.268
  306W        W 4050   9.074   2.165   8.679
  307W        W 4051   9.849   3.081   8.679
  308W        W 4052   8.191   5.496   9.740
  309W        W 4053   2.272   3.558   0.849
  310W        W 4054  10.045   3.167   0.971
  311W        W 4055   0.256   7.405  10.512
  312W        W 4056   5.257   1.909   2.178
  313W        W 4057   9.677   7.139   9.571
  314W        W 4058   9.898   7.944   8.984
  315W        W 4059   8.435   5.668   0.076
  316W        W 4060   8.959   0.895   3.219
  317W        W 4061   5.261   6.452   1.669
  318W        W 4062   8.004   6.160   1.474
  319W        W 4063   5.654  10.454  11.903
  320W        W 4064   6.511  10.331   1.439
  321W        W 4065   1.854   5.691  11.739
  322W        W 4066   3.515   6.671  11.477
  323W        W 4067   6.453   8.056   0.349
  324W        W 4068   8.967   7.654   9.865
  325W        W 4069   0.970   1.873   9.789
  326W        W 4070  10.286   1.811   9.105
  327W        W 4071   4.656   0.726  10.106
  328W        W 4072   9.998   8.580  10.915
  329W        W 4073   9.752   2.275   0.765
  330W        W 4074   1.977   6.930   2.849
  331W        W 4075   1.369   7.011   1.789
  332W        W 4076   9.558   2.107  11.770
  333W        W 4077   6.356   3.134   9.993
  334W        W 4078   2.189   2.827   2.534
  335W        W 4079   0.392   1.033   9.402
  336W        W 4080   8.729   2.236   2.150
  337W        W 4081   8.881   8.821  10.591
  338W        W 4082   4.986   0.440   1.503
  339W        W 4083   2.731   9.480  11.137
  340W        W 4084   3.533   7.378   2.981
  341W        W 4085   9.094   0.939   2.729
  342W        W 4086   1.367   2.552   0.093
  343W        W 4087   2.371   4.702   2.657
  344W        W 4088   6.645   0.139   3.489
  345W        W 4089  10.473   4.212   9.667
  346W        W 4090   7.012  10.299   1.706
  347W        W 4091   7.394   3.681   9.887
  348W        W 4092   1.640   6.781  10.314
  349W        W 4093  10.296   5.056   2.016
  350W        W 4094   8.443   5.605   0.611
  351W        W 4095   3.577   6.903  11.022
  352W        W 4096   6.973   4.091   1.880
  353W        W 4097   4.693   4.175  10.379
  354W        W 4098   8.513   7.622   9.111
  355W        W 4099   5.142  10.106  10.715
  356W        W 4100   8.541   7.713   9.610
  357W        W 4101   6.435   9.149   2.080
  358W        W 4102   2.261   1.292   1.703
  359W        W 4103   7.566   4.626   9.465
  360W        W 4104   0.889   0.829   0.298
  361W        W 4105   4.819   8.448   9.710
  362W        W 4106   5.293   4.779   0.334
  363W        W 4107   8.381   3.196   1.900
  364W        W 4108   0.432   0.795   1.379
  365W        W 4109   8.913   8.135   0.205
  366W        W 4110   5.195   3.043  11.393
  367W        W 4111   9.407   2.612   3.565
  368W        W 4112   2.130   1.784   3.083
  369W        W 4113   4.842   0.934   1.757
  370W        W 4114   8.453   0.225   1.767
  371W        W 4115   8.981   9.124  10.178
  372W        W 4116   9.269   1.384   1.099
  373W        W 4117   8.050   6.060   2.911
  374W        W 4118   6.154   3.722   0.694
  375W        W 4119   4.919   7.935   0.233
  376W        W 4120   8.729   9.757  10.957
  377W        W 4121   0.937   8.635   9.479
  378W        W 4122   5.690   9.432  10.207
  379W        W 4123   1.019   7.172   2.582
  380W        W 4124   1.922   0.940   1.784
  381W        W 4125   4.589   9.908   9.804
  382W        W 4126   6.704   9.702  11.721
  383W        W 4127   0.977   4.639   2.985
  384W        W 4128   7.133   3.554  10.472
  385W        W 4129   8.122   7.330   1.652
  386W        W 4130   4.767   2.159   2.899
  387W        W 4131   9.666   9.824   0.719
  388W        W 4132   8.479   9.555   3.135
  389W        W 4133   6.643   4.577   9.202
  390W        W 4134   7.012   9.455  10.251
  391W        W 4135   0.764   7.738   0.023
  392W        W 4136   5.436   7.580  10.487
  393W        W 4137   7.488   6.260  11.815
  394W        W 4138   1.620   0.543   1.709
  395W        W 4139   7.823   1.216   2.936
  396W        W 4140   0.921   3.727   8.801
  397W        W 4141   3.522   2.397  11.368
  398W        W 4142   4.064   9.638   9.784
  399W        W 4143   3.114   5.293   2.812
  400W        W 4144   7.191   4.337   3.332
  401W        W 4145   9.397   8.079   2.588
  402W        W 4146   7.690   1.423   9.497
  403W        W 4147   2.304   5.546   8.560
  404W        W 4148   8.172   3.757   2.896
  405W        W 4149   9.785   8.587   1.540
  406W        W 4150   7.577   4.585   3.136
  407W        W 4151   0.717  10.310   0.716
  408W        W 4152   2.616   2.761   2.232
  409W        W 4153   8.146   9.283   9.310
  410W        W 4154   1.752   4.500   8.692
  411W        W 4155   0.397   4.349   9.936
  412W        W 4156   7.905  10.270  10.576
  413W        W 4157   1.208   9.169  11.200
  414W        W 4158   7.057   8.198  11.936
  415W        W 4159   1.273   3.599   9.614
  416W        W 4160   6.354   9.775  11.323
  417W        W 4161   3.648   0.460   0.492
  418W        W 4162   9.245   7.200   2.900
  419W        W 4163   6.678   9.382  11.235
  420W        W 4164   8.065   1.239  10.120
  421W        W 4165   7.861   0.439   0.006
  422W        W 4166   7.753   2.675   8.851
  423W        W 4167  10.229   3.406   3.341
  424W        W 4168   0.962  10.487   1.714
  425W        W 4169   4.172   2.506  11.772
  426W        W 4170   4.754   4.117   2.204
  427W        W 4171   5.309   6.100   3.389
  428W        W 4172   7.429   8.587   3.689
  429W        W 4173   2.108   0.903   3.425
  430W        W 4174   4.279   0.834   1.856
  431W        W 4175  10.088   6.843  11.790
  432W        W 4176   1.984   9.123   1.248
  433W        W 4177   7.515   7.674   2.724
  434W        W 4178   1.772   2.102   0.370
  435W        W 4179   9.930   2.802  10.062
  436W        W 4180   0.241   4.652   9.556
  437W        W 4181   4.462   3.170   3.653
  438W        W 4182   6.524   5.017  11.564
  439W        W 4183   7.943   1.607   3.263
  440W        W 4184   1.811   0.644   8.803
  441W        W 4185   5.010   6.684   0.304
  442W        W 4186   3.727   3.741   1.959
  443W        W 4187   4.103   8.521  10.937
  444W        W 4188   1.341   0.464   2.828
  445W        W 4189   4.547   1.728   1.909
  446W        W 4190   8.159   5.643   9.243
  447W        W 4191   6.911   9.901   0.361
  448W        W 4192   3.446   0.763   0.867
  449W        W 4193   9.554   5.565   2.170
  450W        W 4194   6.608   9.929   2.964
  451W        W 4195   8.951   4.290   3.686
  452W        W 4196   5.095   5.240  11.404
  453W        W 4197   6.792   9.448   2.923
  454W        W 4198  10.320  10.354   2.441
  455W        W 4199   8.404   0.230  11.348
  456W        W 4200   2.832   1.335   8.806
  457W        W 4201   6.076   3.787  11.213
  458W        W 4202   0.763   8.616   1.769
  459W        W 4203   2.171   7.196   1.273
  460W        W 4204   9.489   9.596   2.341
  461W        W 4205   6.677   4.099  11.838
  462W        W 4206   6.935   4.143   9.273
  463W        W 4207   3.226   2.339   2.904
  464W        W 4208   8.170   3.740   0.322
  465W        W 4209   1.771   2.262  11.861
  466W        W 4210   8.044   1.087   3.373
  467W        W 4211   1.498  10.324  11.872
  468W        W 4212   5.487   6.627   9.414
  469W        W 4213   2.090   0.808   0.890
  470W        W 4214   5.963   8.166   0.497
  471W        W 4215  10.365   2.008   1.575
  472W        W 4216   6.621   4.111   9.674
  473W        W 4217   9.028   0.282   9.111
  474W        W 4218   8.015   4.687   2.909
  475W        W 4219   5.128   2.520   1.735
  476W        W 4220   3.129   8.233   2.637
  477W        W 4221   7.421   8.923  11.733
  478W        W 4222   2.881   0.351  11.809
  479W        W 4223  10.389   0.218   1.660
  480W        W 4224   1.947   0.870   0.398
  481W        W 4225   9.295   8.390   3.573
  482W        W 4226   9.835   6.412   9.044
  483W        W 4227   6.025   9.187  11.937
  484W        W 4228   9.397   6.633  10.841
  485W        W 4229   7.584   8.904   9.209
  486W        W 4230   2.391   4.239   9.892
  487W        W 4231   5.496   3.274   1.273
  488W        W 4232   4.497   9.966  11.321
  489W        W 4233   5.233   3.729   1.175
  490W        W 4234   5.063   0.754   9.761
  491W        W 4235   5.135   0.806   9.261
  492W        W 4236   1.290   4.994   3.534
  493W        W 4237   8.128   4.179  10.018
  494W        W 4238   2.877   2.397   3.285
  495W        W 4239   8.534   8.427  11.464
  496W        W 4240   9.761   2.362  10.295
  497W        W 4241   2.321   6.279   8.802
  498W        W 4242   5.979   6.296   9.474
  499W        W 4243   6.140   3.728   1.212
  500W        W 4244   2.802   7.418   0.992
  501W        W 4245   9.321   5.147  10.496
  502W        W 4246   6.827   2.163   1.686
  503W        W 4247   7.212   5.350   2.107
  504W        W 4248   6.112   6.027   2.529
  505W        W 4249   3.246   1.378   2.489
  506W        W 4250   0.077   3.891   0.801
  507W        W 4251   0.178   1.257   2.290
  508W        W 4252  10.084   3.973   8.722
  509W        W 4253   7.191   5.821   8.177
  510W        W 4254   2.772   5.881   9.474
  511W        W 4255  10.156   4.262  10.076
  512W        W 4256   2.152   5.199   2.917
  513W        W 4257   3.826   2.796  11.528
  514W        W 4258   8.310   6.490   0.046
  515W        W 4259   6.864   0.112  10.828
  516W        W 4260   6.642   4.557   1.907
  517W        W 4261   5.638   6.530   3.254
  518W        W 4262   6.194   3.730   2.785
  519W        W 4263   7.712   3.563   2.893
  520W        W 4264   6.564   5.950   1.820
  521W        W 4265   4.604   5.449   2.407
  522W        W 4266   2.917   3.231   0.372
  523W        W 4267   5.150   0.843   0.674
  524W        W 4268   1.421   7.580   1.144
  525W        W 4269   2.799   2.743  11.705
  526W        W 4270   6.429   1.448   2.842
  527W        W 4271   1.833   5.888   9.412
  528W        W 4272   3.574   2.375   2.203
  529W        W 4273  10.016   0.027  10.455
  530W        W 4274   6.514   1.660  10.072
  531W        W 4275   5.808   6.234   4.209
  532W        W 4276   6.697   7.028   0.102
  533W        W 4277   7.714   4.328  11.843
  534W        W 4278   9.306   8.586   9.524
  535W        W 4279   9.079  10.226  10.891
  536W        W 4280   9.124   4.662  10.570
  537W        W 4281   4.212   1.240  10.585
  538W        W 4282   9.891   4.745   1.225
  539W        W 4283   1.668   6.108   0.755
  540W        W 4284   9.650   4.185  10.036
  541W        W 4285   3.479   2.280   3.377
  542W        W 4286   0.444   5.242   9.782
  543W        W 4287   0.394   4.518   2.438
  544W        W 4288   2.400   6.038  10.314
  545W        W 4289   5.597  10.471  10.521
  546W        W 4290   1.938   0.682   2.243
  547W        W 4291   7.644   3.531   8.906
  548W        W 4292   7.938   1.854   9.309
  549W        W 4293   6.638   5.462   0.457
  550W        W 4294   9.797   7.172  10.521
  551W        W 4295  10.163   4.655  10.404
  552W        W 4296   3.756   6.628  10.637
  553W        W 4297   9.537   2.619   3.043
  554W        W 4298   7.561   1.148  11.474
  555W        W 4299   6.622   8.620   2.711
  556W        W 4300   4.579   1.787   3.288
  557W        W 4301   5.046   2.783   8.047
  558W        W 4302   4.203   0.600   9.891
  559W        W 4303   6.472   5.673   2.259
  560W        W 4304   8.912   5.063   9.535
  561W        W 4305   8.926   2.168   0.487
  562W        W 4306   8.444   2.791   2.210
  563W        W 4307   2.175   4.711   9.880
  564W        W 4308   1.393   0.716   0.344
  565W        W 4309   7.865   7.446   1.224
  566W        W 4310   6.906   3.130   1.225
  567W        W 4311  10.124   5.073  10.097
  568W        W 4312   0.781   2.779   9.715
  569W        W 4313   5.223   4.318   2.314
  570W        W 4314   1.197   4.764   9.617
  571W        W 4315   6.580   5.891   0.200
  572W        W 4316   2.019   8.012  11.920
  573W        W 4317   4.723   4.959  11.635
  574W        W 4318   0.642   1.686   1.732
  575W        W 4319   7.106   5.582  11.925
  576W        W 4320   3.340   1.879   2.172
  577W        W 4321   8.857   4.242   1.544
  578W        W 4322   0.338   9.887   1.808
  579W        W 4323   0.468   5.644   1.886
  580W        W 4324   8.533   8.920   8.764
  581W        W 4325   6.063   6.949   2.759
  582W        W 4326   6.247   6.548   9.850
  583W        W 4327   2.733   5.180   3.186
  584W        W 4328   7.124   6.538   9.378
  585W        W 4329   3.763   2.572   0.067
  586W        W 4330   3.264   8.230   0.551
  587W        W 4331   9.327   7.308   9.239
  588W        W 4332   6.671   9.246   0.667
  589W        W 4333   3.093   3.311   2.591
  590W        W 4334   9.415   7.549   2.485
  591W        W 4335   9.055   4.114   0.408
  592W        W 4336   4.506   4.111   0.674
  593W        W 4337   5.201   7.081   9.321
  594W        W 4338   5.132   9.929   9.039
  595W        W 4339   1.964   6.747   9.906
  596W        W 4340   3.764   6.051  10.459
  597W        W 4341   6.010   9.686   3.429
  598W        W 4342   9.443   3.783   0.437
  599W        W 4343   0.884   0.327  10.497
  600W        W 4344   2.300   4.565   1.004
  601W        W 4345   6.662   1.748   8.628
  602W        W 4346   2.726   3.593   3.350
  603W        W 4347   7.677   3.740   3.817
  604W        W 4348   6.044   3.228  10.792
  605W        W 4349   1.304   3.813   9.137
  606W        W 4350   9.538   4.735   1.952
  607W        W 4351   0.881   8.338  11.194
  608W        W 4352   3.558   1.560   3.400
  609W        W 4353   1.238   7.480   8.843
  610W        W 4354   4.798   1.022   1.219
  611W        W 4355   7.669   2.817   1.334
  612W        W 4356   1.330   2.394  11.047
  613W        W 4357   4.619   2.141  10.574
  614W        W 4358   3.267   9.752   9.156
  615W        W 4359   9.264   6.237   9.859
  616W        W 4360   4.082   8.372   9.061
  617W        W 4361   6.984   1.845  11.012
  618W        W 4362   4.113   5.994  11.778
  619W        W 4363   3.412   1.022   2.133
  620W        W 4364   9.025   1.683   0.647
  621W        W 4365   5.146   3.825   0.666
  622W        W 4366   3.365   5.019   9.828
  623W        W 4367   2.131   5.696  10.009
  624W        W 4368   4.566   2.835   8.823
  625W        W 4369   1.612   0.287   9.101
  626W        W 4370   6.913   6.984   3.515
  627W        W 4371   7.677   1.026   9.819
  628W        W 4372   2.402   7.361   0.235
  629W        W 4373   7.620   4.117  10.014
  630W        W 4374   6.132   8.352   1.880
  631W        W 4375   4.796   4.590   2.427
  632W        W 4376   7.262   3.626  11.969
  633W        W 4377   3.615   6.136   2.682
  634W        W 4378   4.740   7.349   0.962
  635W        W 4379   2.429   6.519  10.067
  636W        W 4380   7.505   0.842  11.866
  637W        W 4381   5.044   6.500  10.341
  638W        W 4382   3.214  10.302  11.411
  639W        W 4383   9.882   8.453   9.038
  640W        W 4384   9.204   5.753   0.714
  641W        W 4385   0.373   5.962   0.385
  642W        W 4386  10.106   2.789   1.762
  643W        W 4387   5.524   5.129  10.918
  644W        W 4388   2.151   2.075   9.948
  645W        W 4389   3.273   8.387  10.502
  646W        W 4390   4.739   0.013   2.003
  647W        W 4391  10.080   8.294   9.948
  648W        W 4392   5.672   4.137   9.542
  649W        W 4393   4.072   2.361   2.310
  650W        W 4394   4.504   4.221   1.182
  651W        W 4395   8.008  10.427   0.426
  652W        W 4396   9.451   6.710   9.902
  653W        W 4397   0.061   6.565  11.072
  654W        W 4398   1.784   6.926   3.334
  655W        W 4399   9.003   4.280   1.018
  656W        W 4400   1.932   8.786  10.517
  657W        W 4401   8.628   7.210   2.303
  658W        W 4402   9.826   1.382   0.249
  659W        W 4403   3.305   5.084   8.363
  660W        W 4404   2.324   2.099   0.990
  661W        W 4405   9.319   7.694   2.972
  662W        W 4406   6.726   5.987   8.692
  663W        W 4407   5.242   5.775   9.079
  664W        W 4408   7.612   5.692   2.131
  665W        W 4409   4.854   2.684  11.263
  666W        W 4410   9.083   2.306   1.374
  667W        W 4411   5.660   5.596   1.084
  668W        W 4412   5.909   8.625   1.506
  669W        W 4413   4.069   3.283   2.314
  670W        W 4414   6.107   0.330   2.488
  671W        W 4415   9.458   9.442   8.930
  672W        W 4416   3.817   0.040   1.699
  673W        W 4417   4.975   3.242   3.652
  674W        W 4418  10.066   3.618   1.714
  675W        W 4419   1.211   4.215   1.955
  676W        W 4420   0.465   3.429   3.513
  677W        W 4421   8.063   8.612  11.002
  678W        W 4422   6.504   3.602  11.724
  679W        W 4423   5.378  10.363   3.015
  680W        W 4424   5.065   6.060   1.411
  681W        W 4425   8.001   1.758   0.805
  682W        W 4426   0.822   0.938  11.806
  683W        W 4427   9.828   6.984   0.940
  684W        W 4428   1.952   3.682  11.920
  685W        W 4429   6.557   0.589   2.230
  686W        W 4430   0.303   2.072   1.846
  687W        W 4431   0.356   3.958  10.537
  688W        W 4432   6.227   4.692   0.508
  689W        W 4433   9.625   0.593   0.087
  690W        W 4434   0.513   4.736   1.956
  691W        W 4435   9.931   2.299   1.719
  692W        W 4436  10.226   7.795   9.805
  693W        W 4437   6.738   7.265   2.209
  694W        W 4438   0.856   8.583   2.261
  695W        W 4439   2.334   1.561   9.990
  696W        W 4440   8.637   6.529   1.902
  697W        W 4441   4.645   0.366   3.490
  698W        W 4442   1.923  10.461   3.359
  699W        W 4443   0.277   4.826  11.127
  700W        W 4444   7.221   1.847   8.506
  701W        W 4445   2.026   3.970   9.340
  702W        W 4446   3.779   7.619   2.605
  703W        W 4447   8.931   3.111   0.557
  704W        W 4448   7.803   3.112   3.118
  705W        W 4449   3.779   0.086   3.511
  706W        W 4450   7.977   8.364   3.087
  707W        W 4451   4.766   0.345   0.039
  708W        W 4452   5.198   6.029   1.934
  709W        W 4453   8.559   9.485   2.634
  710W        W 4454   1.201   5.756   8.625
  711W        W 4455   5.596   3.434   8.980
  712W        W 4456   7.858   5.204   9.040
  713W        W 4457   0.995   8.075   9.509
  714W        W 4458   2.300   6.996   8.897
  715W        W 4459   7.018  10.450   8.548
  716W        W 4460   7.139   7.407   1.876
  717W        W 4461   1.628  10.330   2.407
  718W        W 4462   3.208   0.335   0.794
  719W        W 4463   5.169   7.880  10.833
  720W        W 4464   7.091   4.234  10.921
  721W        W 4465   8.425   8.858   9.273
  722W        W 4466   5.664   8.930   2.189
  723W        W 4467   9.722   6.933   9.103
  724W        W 4468   5.121   7.162   0.484
  725W        W 4469   5.511   5.137   2.628
  726W        W 4470   6.425   7.434   0.383
  727W        W 4471   8.100   4.897   8.651
  728W        W 4472   6.418   7.475  11.242
  729W        W 4473   7.723   0.537   9.959
  730W        W 4474   1.403   1.413   1.731
  731W        W 4475   0.311   7.909   2.309
  732W        W 4476   1.577   8.396   1.643
  733W        W 4477   6.035   4.233  11.481
  734W        W 4478   0.095   4.702   0.425
  735W        W 4479   3.643   9.931   9.990
  736W        W 4480   9.529   5.270  10.973
  737W        W 4481   9.716   0.150   9.986
  738W        W 4482   3.783   1.909   0.421
  739W        W 4483   1.252   3.797   0.034
  740W        W 4484   0.415   5.736  11.042
  741W        W 4485   9.905   2.685   3.450
  742W        W 4486   1.164   7.811   3.304
  743W        W 4487   5.664   1.857   0.039
  744W        W 4488   2.081   9.299   8.745
  745W        W 4489   7.565   6.662   1.102
  746W        W 4490   5.616   9.562   8.851
  747W        W 4491   5.692   2.126   2.970
  748W        W 4492  10.059   3.518  10.717
  749W        W 4493   7.462   9.754   8.902
  750W        W 4494   1.744   7.590  11.827
  751W        W 4495   1.443   0.057  11.310
  752W        W 4496   4.336   6.655   1.606
  753W        W 4497   9.978   8.802  10.007
  754W        W 4498   0.573  10.492  10.793
  755W        W 4499   4.189  10.087   2.421
  756W        W 4500   5.330  10.058   9.528
  757W        W 4501   4.524   1.304   8.757
  758W        W 4502   0.451   0.832  10.998
  759W        W 4503   9.395   9.887   9.452
  760W        W 4504   2.069   3.179   0.026
  761W        W 4505   9.040   2.713  11.248
  762W        W 4506   7.296   7.913   9.122
  763W        W 4507   3.302   7.971   2.237
  764W        W 4508   1.352   1.981  10.730
  765W        W 4509   6.989   2.646   1.884
  766W        W 4510   8.971   3.117   0.055
  767W        W 4511   2.626  10.485   9.009
  768W        W 4512   2.167   8.927  11.834
  769W        W 4513   6.559   4.035   1.007
  770W        W 4514   9.904   9.982   9.291
  771W        W 4515   3.096   6.247   3.730
  772W        W 4516   1.698  10.402   1.266
  773W        W 4517   2.226   9.479   2.735
  774W        W 4518   9.614   8.457   0.306
  775W        W 4519   3.350   1.932  10.365
  776W        W 4520   1.297   0.663   1.186
  777W        W 4521   7.409   8.164  10.103
  778W        W 4522   2.746   6.440  10.963
  779W        W 4523   3.795   4.782   0.562
  780W        W 4524   7.696   5.770   1.320
  781W        W 4525   6.177   7.065  11.459
  782W        W 4526   0.363   2.297   1.395
  783W        W 4527   6.159   5.490   0.987
  784W        W 4528   5.544   6.030  10.231
  785W        W 4529   5.084   3.321   2.215
  786W        W 4530   0.847   6.199  11.482
  787W        W 4531   5.728   1.235  10.277
  788W        W 4532   6.339   9.476   3.130
  789W        W 4533   5.593   6.733   2.790
  790W        W 4534   0.150   2.159   8.610
  791W        W 4535   4.297   3.096   1.874
  792W        W 4536   6.641   0.329   1.354
  793W        W 4537   2.695   5.613   9.016
  794W        W 4538   0.140   9.414   3.306
  795W        W 4539   3.244   0.781   1.709
  796W        W 4540   0.283   6.560  10.592
  797W        W 4541   3.101   4.254   2.798
  798W        W 4542   4.279   9.319   8.877
  799W        W 4543   1.253   1.905   2.980
  800W        W 4544   2.995   4.311   8.561
  801W        W 4545   8.269   1.071  10.990
  802W        W 4546   7.250   2.822   0.018
  803W        W 4547   5.211   6.512   1.174
  804W        W 4548   7.248   4.237   8.556
  805W        W 4549  10.017   3.983  10.910
  806W        W 4550   4.782   0.359  11.530
  807W        W 4551   4.158   2.771   9.597
  808W        W 4552   8.951   0.250   8.591
  809W        W 4553   6.782   5.341   1.296
  810W        W 4554   9.332   4.092   1.372
  811W        W 4555   8.975   7.923   1.793
  812W        W 4556   6.977   7.553  10.365
  813W        W 4557   0.938   0.806  10.223
  814W        W 4558   3.748   3.997   3.749
  815W        W 4559   4.671   9.331  10.951
  816W        W 4560   7.552   7.320   3.639
  817W        W 4561  10.255   9.498  10.493
  818W        W 4562   6.948   3.686   9.528
  819W        W 4563  10.219   7.455  10.538
  820W        W 4564   5.627   2.243  11.181
  821W        W 4565   1.067   1.429   8.974
  822W        W 4566   0.118   5.556   9.537
  823W        W 4567   5.142   0.951   3.481
  824W        W 4568   3.590   4.244   1.822
  825W        W 4569   3.779   7.853   2.103
  826W        W 4570   7.118   1.192   0.788
  827W        W 4571   5.971   8.383  11.489
  828W        W 4572   2.493   6.905   2.913
  829W        W 4573   6.738   1.482   2.236
  830W        W 4574   8.060   2.892  11.228
  831W        W 4575   4.494   1.627   0.891
  832W        W 4576   8.538   9.497  10.560
  833W        W 4577   2.682   2.636   9.450
  834W        W 4578   7.916  10.188  10.080
  835W        W 4579   2.586   0.713   3.353
  836W        W 4580   7.393   5.579   8.601
  837W        W 4581   7.939   6.538  11.194
  838W        W 4582   6.043   3.285   0.936
  839W        W 4583   5.630   6.739   1.916
  840W        W 4584   9.210   1.081   2.062
  841W        W 4585   7.123   4.717   0.235
  842W        W 4586   4.845   6.178   0.349
  843W        W 4587   1.101   9.673  11.296
  844W        W 4588   0.735   9.839   2.499
  845W        W 4589   4.770   4.720   0.423
  846W        W 4590   4.744   3.706   9.507
  847W        W 4591   2.216   7.370  11.765
  848W        W 4592   6.194   4.260  11.966
  849W        W 4593   9.949   9.968   3.381
  850W        W 4594   6.570   8.352  10.373
  851W        W 4595   2.890   2.684  10.307
  852W        W 4596   7.924   4.664   8.220
  853W        W 4597   3.336   5.766   2.852
  854W        W 4598   1.857   1.777   2.344
  855W        W 4599   3.097   6.494   2.156
  856W        W 4600   4.063   8.611  11.438
  857W        W 4601   3.357   8.549   1.423
  858W        W 4602   2.093   2.382   2.318
  859W        W 4603   7.755   2.481   9.998
  860W        W 4604   2.303   3.869   3.161
  861W        W 4605   6.676   7.084  11.421
  862W        W 4606   0.503   8.419   3.212
  863W        W 4607   2.766   6.017   0.064
  864W        W 4608   6.667   4.790   2.419
  865W        W 4609   1.305   7.269  11.640
  866W        W 4610   8.912   7.471  10.879
  867W        W 4611   1.176   9.383   3.126
  868W        W 4612   3.660   2.756  10.034
  869W        W 4613   8.074   6.448  10.710
  870W        W 4614   6.457   3.235   0.552
  871W        W 4615   8.662   3.578   2.055
  872W        W 4616   9.530   6.641   1.179
  873W        W 4617   4.175   9.817  10.952
  874W        W 4618   1.444   0.537   2.314
  875W        W 4619   7.894   3.290  10.483
  876W        W 4620   0.304   3.242   9.123
  877W        W 4621   1.770   5.058   3.250
  878W        W 4622   4.142   0.373  10.741
  879W        W 4623   2.592   6.548   2.158
  880W        W 4624   0.516   0.897   9.919
  881W        W 4625   7.514   9.974   1.027
  882W        W 4626   2.062   1.008  11.814
  883W        W 4627   7.483   4.972   9.834
  884W        W 4628   8.449   4.654  10.798
  885W        W 4629  10.051   0.922  10.618
  886W        W 4630   9.643   6.638   2.201
  887W        W 4631   9.379   6.123  10.769
  888W        W 4632   4.990   2.605   8.986
  889W        W 4633   8.498   4.590   8.812
  890W        W 4634   4.682   2.206  11.446
  891W        W 4635  10.251   7.969   1.450
  892W        W 4636   9.102   2.844   0.964
  893W        W 4637   6.568   5.124   0.873
  894W        W 4638   8.175   3.631   8.905
  895W        W 4639  10.394   3.271   9.437
  896W        W 4640   0.719   9.766  10.443
  897W        W 4641   0.882   0.952   1.224
  898W        W 4642   8.114   4.788  11.222
  899W        W 4643   9.385   9.418  10.472
  900W        W 4644   0.496   7.569   0.830
  901W        W 4645   4.001   7.696   1.289
  902W        W 4646   3.581  10.031   0.479
  903W        W 4647   4.728   1.722   8.990
  904W        W 4648   5.598   9.390  11.752
  905W        W 4649   4.271   3.629   0.682
  906W        W 4650   7.481   7.666  10.327
  907W        W 4651   0.798   8.071   2.447
  908W        W 4652   2.562   1.167  11.458
  909W        W 4653   0.935   9.121   1.914
  910W        W 4654   0.794   3.076   2.332
  911W        W 4655   8.016   9.305   3.160
  912W        W 4656   7.556   0.992   3.329
  913W        W 4657   8.563   0.520   0.616
  914W        W 4658   8.407   1.978  11.963
  915W        W 4659   6.993   1.479   0.397
  916W        W 4660   6.340   2.720   3.229
  917W        W 4661   2.240   9.356  11.269
  918W        W 4662   8.097   1.377   9.157
  919W        W 4663   1.721   7.222   8.848
  920W        W 4664   2.159   4.101  10.745
  921W        W 4665   6.523   0.729   0.406
  922W        W 4666   9.886   2.745  11.118
  923W        W 4667   6.393   6.818  10.552
  924W        W 4668   0.920   8.762  10.353
  925W        W 4669   3.528   0.954   1.327
  926W        W 4670   3.326   6.802   0.215
  927W        W 4671  10.018   7.348  11.860
  928W        W 4672   8.868   4.194  10.488
  929W        W 4673   7.038   6.962   9.982
  930W        W 4674   1.519   8.152  11.908
  931W        W 4675   9.068   9.487  11.828
  932W        W 4676   0.575   9.136  11.148
  933W        W 4677   5.499   6.655   4.073
  934W        W 4678   8.629   9.968   8.359
  935W        W 4679   0.574   4.828   0.547
  936W        W 4680   9.192   6.059   8.997
  937W        W 4681   6.624   3.755   1.437
  938W        W 4682   9.447   6.399  10.321
  939W        W 4683   4.364  10.347   2.885
  940W        W 4684   3.877   7.305   2.205
  941W        W 4685   8.399   0.738  11.363
  942W        W 4686   4.552   5.769  11.902
  943W        W 4687   8.720   9.307   2.166
  944W        W 4688   3.653   6.056   1.287
  945W        W 4689   8.318   9.453   0.873
  946W        W 4690   5.196   5.244   9.552
  947W        W 4691   7.911   4.050   1.134
  948W        W 4692   1.825   1.613   0.541
  949W        W 4693   5.093   5.219   0.822
  950W        W 4694   1.733   4.087   3.171
  951W        W 4695   3.219   8.432   9.557
  952W        W 4696   9.915   3.138   9.206
  953W        W 4697   6.098   2.469  10.365
  954W        W 4698   1.893   9.402  10.816
  955W        W 4699   5.620   6.482   2.355
  956W        W 4700   2.594   9.964   9.117
  957W        W 4701   1.000   9.082   2.435
  958W        W 4702   3.822   9.391  11.770
  959W        W 4703   2.679   8.019   3.307
  960W        W 4704   4.591   4.058   8.903
  961W        W 4705   3.668   7.566   3.430
  962W        W 4706   2.391   0.290  11.815
  963W        W 4707   5.660   8.030  11.306
  964W        W 4708   1.415   5.644   2.483
  965W        W 4709   5.264   0.944  11.328
  966W        W 4710   7.548   6.945   8.670
  967W        W 4711   2.910   3.206   8.889
  968W        W 4712   2.648   8.965   9.980
  969W        W 4713   5.642   7.574   8.851
  970W        W 4714   4.076   2.216   8.878
  971W        W 4715   5.965   6.798   9.491
  972W        W 4716   9.850  10.279  11.463
  973W        W 4717   4.251   0.344   2.751
  974W        W 4718   7.333   1.039   2.876
  975W        W 4719   4.130   8.499   2.741
  976W        W 4720   1.859   5.075   9.997
  977W        W 4721   8.878   4.536   2.022
  978W        W 4722   3.217   6.092   9.658
  979W        W 4723   9.031   0.850  11.405
  980W        W 4724   5.553   1.681  10.519
  981W        W 4725   2.811   8.089   1.803
  982W        W 4726   6.642   8.128   2.783
  983W        W 4727   6.657  10.027   1.014
  984W        W 4728   6.696   4.448   0.643
  985W        W 4729   4.824   9.823   0.894
  986W        W 4730  10.417   1.413   0.835
  987W        W 4731  10.313   4.701  11.389
  988W        W 4732   3.561   5.263   9.402
  989W        W 4733   5.458   4.336   1.662
  990W        W 4734   0.152   0.198   2.106
  991W        W 4735   0.868   7.145   3.574
  992W        W 4736   4.558   2.661   2.773
  993W        W 4737   1.164   6.101  10.851
  994W        W 4738   9.030   9.732   2.202
  995W        W 4739   8.808   9.869  11.519
  996W        W 4740   6.875   8.349   2.341
  997W        W 4741   0.226   9.196   2.427
  998W        W 4742   8.955   0.055  10.492
  999W        W 4743  10.300   3.257  11.360
 1000W        W 4744   2.356   2.077   2.025
 1001W        W 4745   7.819   3.288   1.123
 1002W        W 4746   0.820   0.529  11.513
 1003W        W 4747   4.998   4.502   3.081
 1004W        W 4748   2.281   7.837   0.364
 1005W        W 4749   9.849   9.311   2.621
 1006W        W 4750   4.041   3.953   9.139
 1007W        W 4751   5.346   7.886   2.655
 1008W        W 4752   6.599   5.711  11.726
 1009W        W 4753   5.945   2.238  10.778
 1010W        W 4754   5.700   8.562   0.716
 1011W        W 4755  10.314  10.048  11.778
 1012W        W 4756   1.718   9.098   9.091
 1013W        W 4757   2.589   2.797   3.482
 1014W        W 4758   7.471   1.334   1.704
 1015W        W 4759   1.155   1.866   1.612
 1016W        W 4760   3.147   6.118  11.758
 1017W        W 4761   7.931   9.137   0.784
 1018W        W 4762   3.539   7.701   1.660
 1019W        W 4763   3.667   4.708   8.201
 1020W        W 4764   7.084   4.741  10.378
 1021W        W 4765   9.402   3.756  10.157
 1022W        W 4766   8.575   5.660   3.098
 1023W        W 4767   3.997   4.438   1.563
 1024W        W 4768   9.147   3.598  11.358
 1025W        W 4769   9.537   6.350   0.163
 1026W        W 4770   2.545   2.689   2.988
 1027W        W 4771   9.326   7.822  11.505
 1028W        W 4772   8.377  10.175   0.188
 1029W        W 4773   5.551  10.488   8.928
 1030W        W 4774   5.803   9.843   9.601
 1031W        W 4775   1.322   0.789   9.526
 1032W        W 4776   1.230   5.077   3.007
 1033W        W 4777   5.660  10.403   1.981
 1034W        W 4778   5.761   0.684   1.311
 1035W        W 4779   1.869   8.604   3.162
 1036W        W 4780   1.128   1.057   3.634
 1037W        W 4781  10.435   1.776  10.115
 1038W        W 4782   2.325   3.652  11.064
 1039W        W 4783   8.863   5.729   2.666
 1040W        W 4784   8.111   9.263   9.816
 1041W        W 4785   5.222   3.536   1.727
 1042W        W 4786   1.845   8.418  10.183
 1043W        W 4787   5.577   3.697  11.965
 1044W        W 4788   8.333   3.313  10.807
 1045W        W 4789   6.605   8.545   9.842
 1046W        W 4790   2.855   0.427   9.808
 1047W        W 4791   7.544   0.276   2.295
 1048W        W 4792  10.243   5.056   3.235
 1049W        W 4793   1.307   5.907   3.388
 1050W        W 4794   4.588   1.883  11.049
 1051W        W 4795   4.274   3.309  11.262
 1052W        W 4796   8.302  10.233   8.779
 1053W        W 4797   9.740   4.011   1.682
 1054W        W 4798  10.191   5.988   9.019
 1055W        W 4799   2.557   4.535   8.744
 1056W        W 4800   6.655   7.525   1.753
 1057W        W 4801   5.785   6.201  11.519
 1058W        W 4802   6.853   5.170   9.515
 1059W        W 4803   0.922   3.566  10.817
 1060W        W 4804   4.073   0.213  11.220
 1061W        W 4805   9.954   3.246   9.726
 1062W        W 4806   0.834   7.975   2.969
 1063W        W 4807   1.356   9.974  10.608
 1064W        W 4808   0.596   0.568   9.131
 1065W        W 4809   7.056   1.074   8.930
 1066W        W 4810   0.767   2.625   3.003
 1067W        W 4811   8.703   7.309  11.852
 1068W        W 4812   7.132   3.377   8.938
 1069W        W 4813   4.432   0.019   2.405
 1070W        W 4814   7.847   5.180  11.437
 1071W        W 4815   9.566   7.112  10.992
 1072W        W 4816   4.141  10.084  10.030
 1073W        W 4817   6.976   6.106   9.605
 1074W        W 4818   0.121   7.482   9.582
 1075W        W 4819   7.076   4.705   4.256
 1076W        W 4820   7.458   0.860  10.915
 1077W        W 4821   5.258   8.310   0.488
 1078W        W 4822   4.757   9.323   0.922
 1079W        W 4823   9.269   1.594   1.967
 1080W        W 4824   5.159   8.956   1.980
 1081W        W 4825   3.624   8.559   8.939
 1082W        W 4826   6.938   0.172  11.826
 1083W        W 4827   9.899   1.846   1.459
 1084W        W 4828   7.574   5.400  11.002
 1085W        W 4829   8.655   6.817   1.467
 1086W        W 4830   5.782   4.637   1.367
 1087W        W 4831   5.109  10.431   1.566
 1088W        W 4832   8.341   6.216   2.175
 1089W        W 4833   6.131   3.688   1.721
 1090W        W 4834  10.425   1.271   2.759
 1091W        W 4835   3.560   2.752   1.850
 1092W        W 4836   5.251   8.996  11.454
 1093W        W 4837   1.714   7.165   9.775
 1094W        W 4838   9.878   7.061   3.001
 1095W        W 4839   3.683   9.607   0.214
 1096W        W 4840   6.864   2.228  10.695
 1097W        W 4841   9.423   1.213   9.977
 1098W        W 4842   5.344   0.409  10.606
 1099W        W 4843   3.271  10.177  10.895
 1100W        W 4844   8.147   8.395   0.309
 1101W        W 4845   6.461   3.281   2.828
 1102W        W 4846   4.634   7.879   2.315
 1103W        W 4847   2.308   8.357   1.394
 1104W        W 4848   6.079   9.690  10.458
 1105W        W 4849   6.093   1.037   0.181
 1106W        W 4850   3.288   0.504   2.780
 1107W        W 4851   3.903   4.635   2.718
 1108W        W 4852   2.853   3.565  11.735
 1109W        W 4853   5.278   1.359  11.020
 1110W        W 4854   2.943   4.607   9.617
 1111W        W 4855   6.191   1.278  10.553
 1112W        W 4856   3.207   4.572  11.553
 1113W        W 4857   6.575  10.229   0.546
 1114W        W 4858   9.872   1.394  10.691
 1115W        W 4859   0.134   8.333   0.387
 1116W        W 4860   3.409   3.661  10.375
 1117W        W 4861   0.190   6.188   9.871
 1118W        W 4862   4.961   5.640  10.279
 1119W        W 4863   6.164   6.499   1.219
 1120W        W 4864   5.649   3.135  11.152
 1121W        W 4865   4.680   9.104   9.152
 1122W        W 4866   9.526   9.590   0.036
 1123W        W 4867   4.997   4.514   1.862
 1124W        W 4868   1.731   6.005   9.912
 1125W        W 4869   2.205   9.464   9.840
 1126W        W 4870   0.382   2.755   1.171
 1127W        W 4871   2.978   5.943   0.553
 1128W        W 4872   2.244   0.929  10.565
 1129W        W 4873   0.158   1.657  11.085
 1130W        W 4874   3.562   1.708  11.994
 1131W        W 4875   9.971   6.158   1.372
 1132W        W 4876   8.114   7.192   8.613
 1133W        W 4877   5.975   7.480   1.510
 1134W        W 4878   3.667   3.506   1.465
 1135W        W 4879   8.478   5.899   9.564
 1136W        W 4880   1.045   5.946   9.489
 1137W        W 4881   2.824   8.874   2.149
 1138W        W 4882   4.807   3.143   2.715
 1139W        W 4883   9.895   6.014   0.009
 1140W        W 4884   5.007   4.190   8.647
 1141W        W 4885  10.384   7.233   0.212
 1142W        W 4886   9.572   7.052  11.934
 1143W        W 4887   7.588   5.782  11.915
 1144W        W 4888   3.701   1.418   9.342
 1145W        W 4889   0.783   7.044  10.591
 1146W        W 4890   9.166   1.728  10.796
 1147W        W 4891   8.942   3.321   1.070
 1148W        W 4892  10.319   0.456   0.696
 1149W        W 4893   0.296   6.970  10.254
 1150W        W 4894   8.407   5.052   9.613
 1151W        W 4895   0.252   2.691   3.099
 1152W        W 4896   4.414   9.528  10.127
 1153W        W 4897   7.893  10.245   9.559
 1154W        W 4898   2.690   5.649   1.727
 1155W        W 4899   7.178   7.011   0.205
 1156W        W 4900   5.430   7.299   3.711
 1157W        W 4901   8.298   0.006  11.798
 1158W        W 4902   6.460   1.398   9.605
 1159W        W 4903   1.801   4.269   0.618
 1160W        W 4904   9.883   8.887  11.563
 1161W        W 4905   3.524   7.552   1.165
 1162W        W 4906   1.614   3.181   3.037
 1163W        W 4907   6.980   6.049   0.953
 1164W        W 4908   0.481   2.098   0.926
 1165W        W 4909   7.160   9.335   3.281
 1166W        W 4910   2.672   1.938   9.917
 1167W        W 4911   3.703   8.862   0.904
 1168W        W 4912   1.349   0.881  10.533
 1169W        W 4913   9.973   5.693  10.314
 1170W        W 4914   8.753  10.058  10.533
 1171W        W 4915   3.121   9.812  11.342
 1172W        W 4916   1.827   5.743  11.225
 1173W        W 4917   0.909   1.369   3.305
 1174W        W 4918   9.559   7.051   3.446
 1175W        W 4919  10.335   9.852   1.683
 1176W        W 4920   5.750   7.011   2.351
 1177W        W 4921   7.422   5.586   9.120
 1178W        W 4922   2.848   4.860   2.799
 1179W        W 4923   9.501   3.566   3.327
 1180W        W 4924   9.547   4.502   0.423
 1181W        W 4925   5.592   1.307   8.696
 1182W        W 4926   7.045   3.970   2.403
 1183W        W 4927   5.649   3.722   1.994
 1184W        W 4928   7.689   3.834  11.838
 1185W        W 4929   7.170   2.661  10.633
 1186W        W 4930  10.426   4.370   0.773
 1187W        W 4931   7.198   1.253  11.865
 1188W        W 4932   2.954   2.963   8.406
 1189W        W 4933   5.545   2.223   8.784
 1190W        W 4934   8.169   1.882   2.885
 1191W        W 4935   3.326   0.522   2.256
 1192W        W 4936   7.933   7.382   2.713
 1193W        W 4937   0.277   1.349   9.831
 1194W        W 4938   2.344   1.875   8.596
 1195W        W 4939   0.628   8.883   0.950
 1196W        W 4940   6.181   6.008   1.036
 1197W        W 4941   9.078   3.733  10.548
 1198W        W 4942   4.262   1.169   0.842
 1199W        W 4943   2.665   3.789   0.630
 1200W        W 4944   7.893   5.101   0.218
 1201W        W 4945   7.874   8.271  11.343
 1202W        W 4946   7.927   6.601  11.692
 1203W        W 4947   1.216   7.350   3.052
 1204W        W 4948   1.437   6.495  11.011
 1205W        W 4949   7.563   7.909  11.077
 1206W        W 4950   1.622   2.696   3.268
 1207W        W 4951   6.055   1.964   0.727
 1208W        W 4952   2.206   8.578   2.307
 1209W        W 4953   6.885   7.885   9.974
 1210W        W 4954   1.404   5.571   9.438
 1211W        W 4955   1.869   5.915  10.401
 1212W        W 4956   1.760   7.728   8.699
 1213W        W 4957   7.197   1.483  11.322
 1214W        W 4958   2.277   3.790   8.892
 1215W        W 4959  10.027   3.811  10.283
 1216W        W 4960   0.018   9.373   1.410
 1217W        W 4961   9.845   5.530   9.830
 1218W        W 4962   7.734   9.280   8.537
 1219W        W 4963   3.167   2.764   9.348
 1220W        W 4964   7.295   4.413   0.603
 1221W        W 4965   2.971   7.552   8.629
 1222W        W 4966   4.079   7.896   3.420
 1223W        W 4967   3.506   3.149   3.305
 1224W        W 4968   8.201   4.682   0.165
 1225W        W 4969   5.611   1.700   2.463
 1226W        W 4970   3.135   4.099  10.809
 1227W        W 4971   9.541   0.710  11.582
 1228W        W 4972   5.655   8.465   0.210
 1229W        W 4973   2.163   7.337  11.254
 1230W        W 4974   4.589   5.026  10.805
 1231W        W 4975   3.735   1.329  10.373
 1232W        W 4976   2.273   8.425   8.906
 1233W        W 4977   8.939   0.053   1.872
 1234W        W 4978   6.028   5.811   9.571
 1235W        W 4979   0.804  10.122   3.339
 1236W        W 4980   5.727   9.562   3.012
 1237W        W 4981   9.414   1.727   1.488
 1238W        W 4982   3.517   1.710   0.796
 1239W        W 4983   6.979   0.290   9.552
 1240W        W 4984   9.494   0.961   0.910
 1241W        W 4985   9.389   9.586   2.839
 1242W        W 4986   9.324   5.081   9.233
 1243W        W 4987   1.485   7.769   2.918
 1244W        W 4988   2.196   5.789   2.343
 1245W        W 4989   6.176   6.448   3.901
 1246W        W 4990   5.265   3.794   2.332
 1247W        W 4991   0.523   8.294   9.501
 1248W        W 4992   6.225   2.726  10.774
 1249W        W 4993   4.979   3.708   7.784
 1250W        W 4994   4.275   3.900  10.350
 1251W        W 4995   7.379   6.768   3.679
 1252W        W 4996   5.388   7.086  10.560
 1253W        W 4997   5.954   8.396   9.533
 1254W        W 4998   7.159   7.351   0.660
 1255W        W 4999   5.086   0.708   2.143
 1256W        W 5000   4.757   2.710  10.753
 1257W        W 5001   3.338   2.812   0.259
 1258W        W 5002   7.959   0.936   8.868
 1259W        W 5003   5.983   3.907  10.211
 1260W        W 5004   2.204   5.767   8.996
 1261W        W 5005   2.759   4.685   1.954
 1262W        W 5006   9.730   7.156   1.441
 1263W        W 5007   8.578   3.360   3.371
 1264W        W 5008   5.019   7.986   9.780
 1265W        W 5009   1.687   4.698   9.697
 1266W        W 5010   9.111   8.212   9.229
 1267W        W 5011   7.466   5.210   3.610
 1268W        W 5012   6.486   7.338   2.739
 1269W        W 5013   4.570   8.124  10.030
 1270W        W 5014   4.511   9.654   8.535
 1271W        W 5015   7.796  10.411  11.961
 1272W        W 5016   4.130   1.403   0.390
 1273W        W 5017   1.258   6.466   0.294
 1274W        W 5018   8.093   8.917   0.329
 1275W        W 5019   0.123   6.857   8.604
 1276W        W 5020   4.610   5.023   2.679
 1277W        W 5021   9.321   2.367   9.982
 1278W        W 5022  10.127   0.456   9.911
 1279W        W 5023   1.819   1.659  10.048
 1280W        W 5024   1.289   2.201   1.174
 1281W        W 5025   7.939   8.819   3.343
 1282W        W 5026  10.294   6.489   9.661
 1283W        W 5027   0.473   3.463  10.593
 1284W        W 5028   7.049   5.373   0.770
 1285W        W 5029   5.605   9.407   1.459
 1286W        W 5030   3.494   8.458   3.174
 1287W        W 5031   7.469   5.029   0.478
 1288W        W 5032   7.248   9.287   1.859
 1289W        W 5033   9.150   1.357   0.211
 1290W        W 5034   2.885   4.068   3.273
 1291W        W 5035   9.762   0.507   1.869
 1292W        W 5036   1.829   5.574   0.247
 1293W        W 5037   3.108  10.496   9.616
 1294W        W 5038   1.851  10.327  11.522
 1295W        W 5039  10.269   1.908   2.069
 1296W        W 5040   6.873   7.589   1.221
 1297W        W 5041   6.493   3.539  10.737
 1298W        W 5042   8.744  10.438   9.437
 1299W        W 5043   3.204   6.040   2.377
 1300W        W 5044   4.460   4.621   0.826
 1301W        W 5045  10.464   5.419   2.360
 1302W        W 5046   3.081   0.666   3.229
 1303W        W 5047   6.715   5.562  10.852
 1304W        W 5048   8.899   7.638   0.374
 1305W        W 5049   8.403   8.595   3.326
 1306W        W 5050   2.441   0.284   9.515
 1307W        W 5051   8.412   1.803   0.442
 1308W        W 5052   0.765   2.358   8.575
 1309W        W 5053   0.700   4.141   2.241
 1310W        W 5054   6.946   2.113   8.865
 1311W        W 5055   4.656   7.074   1.660
 1312W        W 5056   0.380   6.421  11.917
 1313W        W 5057   3.131   7.606   3.182
 1314W        W 5058   4.180   7.865   9.795
 1315W        W 5059   2.533   9.567   8.772
 1316W        W 5060   7.671   6.526   1.561
 1317W        W 5061   6.843   2.314  11.741
 1318W        W 5062   1.165   7.588  11.259
 1319W        W 5063   4.595   9.925   2.705
 1320W        W 5064   7.781   6.030   4.137
 1321W        W 5065   4.840   1.323  11.260
 1322W        W 5066   6.556   5.851   2.738
 1323W        W 5067   9.927   7.492   1.826
 1324W        W 5068   6.500   0.953   9.327
 1325W        W 5069   2.361   1.430   9.065
 1326W        W 5070   4.769   6.503   1.831
 1327W        W 5071   4.626   6.160  10.370
 1328W        W 5072   6.975   9.446   1.444
 1329W        W 5073   4.149   4.697   9.965
 1330W        W 5074   2.706   3.222  10.867
 1331W        W 5075   4.198   0.351   1.190
 1332W        W 5076   7.699   8.311   0.529
 1333W        W 5077   9.373   0.226   9.544
 1334W        W 5078   2.810   1.455   9.826
 1335W        W 5079   3.198   4.100  11.310
 1336W        W 5080   7.421   9.764   0.503
 1337W        W 5081   1.230   6.524   1.715
 1338W        W 5082  10.447   0.149   1.144
 1339W        W 5083   8.880   3.189   9.515
 1340W        W 5084   6.074   7.367   3.068
 1341W        W 5085   5.074   7.423  10.064
 1342W        W 5086   7.702   7.333   9.967
 1343W        W 5087   3.819   2.257   1.786
 1344W        W 5088   2.582   3.177  11.946
 1345W        W 5089   3.962   2.629   8.574
 1346W        W 5090   7.875   7.052   9.551
 1347W        W 5091   3.865   3.641  11.039
 1348W        W 5092   6.081   0.374   0.807
 1349W        W 5093   2.178   4.385   8.420
 1350W        W 5094   6.206   0.032  10.824
 1351W        W 5095   7.517   2.942   2.304
 1352W        W 5096   5.550   4.364  11.424
 1353W        W 5097   8.181   5.801   3.873
 1354W        W 5098   9.001   7.735   9.363
 1355W        W 5099   4.721   7.235   9.466
 1356W        W 5100   7.932   1.154   1.924
 1357W        W 5101   7.848   8.362   9.861
 1358W        W 5102   3.702   1.407   1.491
 1359W        W 5103   7.430   7.442  11.276
 1360W        W 5104   6.569   6.856   2.730
 1361W        W 5105   8.456   4.585   3.108
 1362W        W 5106   7.857   5.105   8.004
 1363W        W 5107   4.578  10.350  10.070
 1364W        W 5108   5.744   4.644   2.915
 1365W        W 5109   9.718  10.443   1.252
 1366W        W 5110  10.064   0.521  11.812
 1367W        W 5111   5.107   6.143  11.046
 1368W        W 5112   2.326   6.215   3.779
 1369W        W 5113   1.968   1.123   8.837
 1370W        W 5114   1.806   3.203  10.995
 1371W        W 5115   4.086   2.373   0.462
 1372W        W 5116   9.432   0.449   8.606
 1373W        W 5117   2.888   4.020   2.368
 1374W        W 5118   8.948   2.714  10.745
 1375W        W 5119   4.479   6.772  11.816
 1376W        W 5120   0.142   9.327  11.320
 1377W        W 5121  10.271   6.333   2.521
 1378W        W 5122   5.827   7.686   1.958
 1379W        W 5123   2.623   9.944   3.257
 1380W        W 5124   8.393   4.171   9.572
 1381W        W 5125   5.725   8.319   1.158
 1382W        W 5126   4.716   3.253   9.724
 1383W        W 5127   2.626   1.220  10.286
 1384W        W 5128   7.803  10.342   1.246
 1385W        W 5129   8.283   0.287   0.245
 1386W        W 5130   7.082   8.824   3.360
 1387W        W 5131   7.838   9.367   2.651
 1388W        W 5132   2.262   9.844   1.412
 1389W        W 5133   6.005   2.970  10.340
 1390W        W 5134   7.242   7.897   1.708
 1391W        W 5135   1.710   2.641   9.539
 1392W        W 5136   5.425   0.870  10.839
 1393W        W 5137  10.012   0.602   3.189
 1394W        W 5138   1.305   0.538  11.400
 1395W        W 5139   8.539   1.801   1.410
 1396W        W 5140   2.429   2.199   9.544
 1397W        W 5141   1.935   3.305   1.531
 1398W        W 5142   5.711   8.216   2.746
 1399W        W 5143   0.996   2.341   9.569
 1400W        W 5144   0.703   2.879  11.422
 1401W        W 5145   7.687   1.982  10.261
 1402W        W 5146   5.452   0.822   3.090
 1403W        W 5147   3.950   5.632  10.202
 1404W        W 5148   2.913   4.549  10.976
 1405W        W 5149   8.960   6.200   2.801
 1406W        W 5150   5.580   2.035   0.975
 1407W        W 5151   1.589   8.012  10.065
 1408W        W 5152   2.720   6.989   3.371
 1409W        W 5153   7.681   1.392   3.637
 1410W        W 5154   2.779   3.726   1.957
 1411W        W 5155  10.345   3.081   8.929
 1412W        W 5156   9.118   6.680   2.666
 1413W        W 5157   1.208   3.326   0.239
 1414W        W 5158   5.683   0.847   8.424
 1415W        W 5159   3.579   3.224  10.676
 1416W        W 5160   1.428   2.256   9.321
 1417W        W 5161   0.486   6.858  10.967
 1418W        W 5162   2.151   7.686   1.201
 1419W        W 5163   1.344   4.317   9.001
 1420W        W 5164   2.588   2.680   0.824
 1421W        W 5165   9.117   5.557   9.260
 1422W        W 5166   0.293   4.128  11.934
 1423W        W 5167   2.430   0.849   1.921
 1424W        W 5168   2.376   6.086   9.794
 1425W        W 5169   5.028   3.770   9.024
 1426W        W 5170   8.904   5.287   0.433
 1427W        W 5171   6.217   5.493   0.071
 1428W        W 5172   1.470   5.080   1.949
 1429W        W 5173   0.244   0.560   0.971
 1430W        W 5174   6.166   8.397  10.068
 1431W        W 5175   0.322   0.385  11.357
 1432W        W 5176   9.484   4.152   0.061
 1433W        W 5177   7.972   8.741   1.693
 1434W        W 5178  10.261   8.461   3.150
 1435W        W 5179   4.823   4.563   1.373
 1436W        W 5180   0.939   0.308   0.299
 1437W        W 5181   8.905   9.854   3.265
 1438W        W 5182   1.098  10.332   0.184
 1439W        W 5183   7.991   4.624   2.403
 1440W        W 5184  10.436  10.090   9.095
 1441W        W 5185   8.853   5.546   9.725
 1442W        W 5186   8.854   9.045  11.970
 1443W        W 5187   4.784   1.227   0.748
 1444W        W 5188   7.955   6.497   2.643
 1445W        W 5189   5.437   2.147  10.723
 1446W        W 5190   4.199   5.854  10.633
 1447W        W 5191   2.205   2.189  11.137
 1448W        W 5192   5.242   4.233   3.629
 1449W        W 5193   3.690   5.892   2.231
 1450W        W 5194   1.763   9.606   8.985
 1451W        W 5195   5.310   0.045  11.002
 1452W        W 5196   6.097   9.905   2.965
 1453W        W 5197   2.158   6.538   1.898
 1454W        W 5198   8.135   5.761   8.441
 1455W        W 5199   1.645   4.608   0.270
 1456W        W 5200   7.644   3.274  11.916
 1457W        W 5201   2.842   5.756  10.386
 1458W        W 5202   6.616   6.621   3.172
 1459W        W 5203   6.813   2.072  10.203
 1460W        W 5204   5.740   3.725   2.503
 1461W        W 5205   5.186   1.759   0.840
 1462W        W 5206   3.793   3.550   9.378
 1463W        W 5207  10.214   6.041   0.920
 1464W        W 5208   4.201   1.422   9.598
 1465W        W 5209   2.977   0.883   2.395
 1466W        W 5210   3.568   0.139  11.277
 1467W        W 5211   4.603   0.293   9.824
 1468W        W 5212   1.708   3.154   2.525
 1469W        W 5213   1.016   8.348   0.412
 1470W        W 5214   3.535   6.696   8.675
 1471W        W 5215   2.264   5.470  11.997
 1472W        W 5216   6.434   5.248   2.580
 1473W        W 5217   2.324   0.277   3.358
 1474W        W 5218   7.522   1.503   0.736
 1475W        W 5219   9.737  10.111  10.367
 1476W        W 5220   9.592   2.219   1.274
 1477W        W 5221   1.783   7.285  10.340
 1478W        W 5222   0.805   4.200   3.268
 1479W        W 5223   1.676   7.633  11.321
 1480W        W 5224   8.546   5.307   1.265
 1481W        W 5225   5.729   7.129   4.083
 1482W        W 5226   4.576   8.165   8.963
 1483W        W 5227   9.803   7.668   9.408
 1484W        W 5228   5.010   7.913   8.801
 1485W        W 5229   8.747   5.825   0.971
 1486W        W 5230   3.232   6.329   1.479
 1487W        W 5231   6.879   8.104   8.880
 1488W        W 5232   8.994   3.358   1.570
 1489W        W 5233   9.492   4.720  10.957
 1490W        W 5234   2.713   4.648   0.706
 1491W        W 5235   9.840   2.209   0.184
 1492W        W 5236  10.378   6.100   0.283
 1493W        W 5237   3.141   5.651   1.971
 1494W        W 5238   7.874   7.164  10.435
 1495W        W 5239   6.162   0.526  10.762
 1496W        W 5240   7.851   9.737  11.443
 1497W        W 5241   3.956   8.321   3.178
 1498W        W 5242   0.264   8.560   9.135
 1499W        W 5243   5.313   4.492   1.197
 1500W        W 5244   8.473   6.362   1.263
 1501W        W 5245   7.602   9.532   3.588
 1502W        W 5246   3.723  10.065   9.116
 1503W        W 5247   8.583   1.009   2.849
 1504W        W 5248   4.268   1.491  11.096
 1505W        W 5249   3.568   4.313   0.435
 1506W        W 5250   4.534   6.958   0.636
 1507W        W 5251   8.444   9.007   2.504
 1508W        W 5252   2.058   7.704   2.179
 1509W        W 5253   8.482   8.276  11.952
 1510W        W 5254   1.778   2.119   2.724
 1511W        W 5255   5.664   1.287   0.267
 1512W        W 5256   7.003   7.479   3.438
 1513W        W 5257   0.198   5.939  11.897
 1514W        W 5258   9.431   5.036   1.255
 1515W        W 5259   4.291   1.113  10.010
 1516W        W 5260   0.005   8.414  10.978
 1517W        W 5261   9.359   0.539  10.474
 1518W        W 5262   3.170   6.997   2.145
 1519W        W 5263   7.677   4.222   8.289
 1520W        W 5264   1.463   5.489  11.464
 1521W        W 5265   5.078   0.068   3.414
 1522W        W 5266   9.537   5.446   0.956
 1523W        W 5267   9.045   5.857   3.178
 1524W        W 5268   8.774   7.048   2.769
 1525W        W 5269   3.612   8.612   2.684
 1526W        W 5270   2.742  10.420  11.590
 1527W        W 5271   3.503   2.771  10.963
 1528W        W 5272   7.296   2.320   9.770
 1529W        W 5273   3.076   9.206   3.663
 1530W        W 5274  10.310   6.184   3.011
 1531W        W 5275   1.838   3.718  10.899
 1532W        W 5276   7.465   6.121   9.403
 1533W        W 5277   6.027   7.430   2.562
 1534W        W 5278   5.624   8.303   3.642
 1535W        W 5279   2.232   5.798   1.451
 1536W        W 5280   5.535   6.856   0.406
 1537W        W 5281   3.258   1.143   3.354
 1538W        W 5282  10.351   6.465   9.120
 1539W        W 5283   6.775   8.472   0.300
 1540W        W 5284   9.814   5.236  10.466
 1541W        W 5285   4.470   7.506   1.429
 1542W        W 5286   3.679   6.687   9.171
 1543W        W 5287   1.457   5.541   2.990
 1544W        W 5288   5.590   3.096   9.384
 1545W        W 5289   7.547   8.879   1.960
 1546W        W 5290  10.178   5.993   9.883
 1547W        W 5291   9.990   6.256   8.556
 1548W        W 5292   6.157   9.909   9.981
 1549W        W 5293   9.865   3.281  11.137
 1550W        W 5294   6.104   6.477  11.814
 1551W        W 5295   4.528   7.496   1.948
 1552W        W 5296   2.379   7.564  10.136
 1553W        W 5297   4.469   7.245  11.080
 1554W        W 5298   5.587   1.281   9.233
 1555W        W 5299   7.277   4.483   9.018
 1556W        W 5300   7.666   6.949   0.325
 1557W        W 5301  10.287   4.956   2.521
 1558W        W 5302   8.938   6.250   3.504
 1559W        W 5303   8.101   1.268  11.453
 1560W        W 5304   6.768   5.689   9.828
 1561W        W 5305   1.518   1.855   1.971
 1562W        W 5306   4.877   5.635   9.408
 1563W        W 5307   5.089   1.186   2.999
 1564W        W 5308   3.586   3.733   8.931
 1565W        W 5309   7.477   6.757  11.875
 1566W        W 5310   5.664   2.790   1.588
 1567W        W 5311   3.718   5.878   3.169
 1568W        W 5312   6.127   5.937  11.817
 1569W        W 5313   2.841   0.734  11.486
 1570W        W 5314   7.361   2.360  11.763
 1571W        W 5315   5.294   9.315   2.958
 1572W        W 5316   9.689   5.427   9.328
 1573W        W 5317   2.169   8.038  10.161
 1574W        W 5318   8.012   4.418   3.922
 1575W        W 5319   9.566   0.478   0.589
 1576W        W 5320   4.588   0.743   0.834
 1577W        W 5321   2.206   4.067   0.863
 1578W        W 5322   1.355   9.416  11.642
 1579W        W 5323   1.058   8.407  10.704
 1580W        W 5324   1.604   0.758   0.797
 1581W        W 5325   7.769   1.139   2.434
 1582W        W 5326   9.237   5.602   3.618
 1583W        W 5327   1.852   9.242   0.346
 1584W        W 5328   9.961   0.300   2.760
 1585W        W 5329   1.361   8.427   9.279
 1586W        W 5330   8.844   0.808   9.040
 1587W        W 5331   6.555   5.038  11.049
 1588W        W 5332   8.920   7.896   3.367
 1589W        W 5333   5.451   7.104   8.735
 1590W        W 5334   1.840   8.072   9.138
 1591W        W 5335   6.359   2.421  11.931
 1592W        W 5336   1.226   1.136   0.030
 1593W        W 5337   3.359   8.741   0.441
 1594W        W 5338   5.721   0.191  11.441
 1595W        W 5339   7.091   6.587   1.515
 1596W        W 5340   8.030   7.668  10.651
 1597W        W 5341   9.262   2.405  10.482
 1598W        W 5342   9.830   6.151   2.306
 1599W        W 5343   7.256   2.921   0.917
 1600W        W 5344   0.956   5.159   0.580
 1601W        W 5345  10.350   4.512   1.263
 1602W        W 5346   3.570   3.655   9.823
 1603W        W 5347   8.957   3.584   0.289
 1604W        W 5348   6.023   5.203  10.129
 1605W        W 5349   9.762   8.155  10.746
 1606W        W 5350   8.874   4.370   2.550
 1607W        W 5351   7.393   6.578   1.963
 1608W        W 5352   1.284   5.729   9.927
 1609W        W 5353   0.007   8.764   2.241
 1610W        W 5354   7.623   8.115   1.449
 1611W        W 5355   6.940   4.541  11.811
 1612W        W 5356   5.490   6.226   2.787
 1613W        W 5357   8.190   0.675   9.698
 1614W        W 5358   6.018   9.178   1.753
 1615W        W 5359   5.313   9.901   0.890
 1616W        W 5360   7.656   9.536  11.022
 1617W        W 5361   7.072   3.587   2.077
 1618W        W 5362   4.726   3.619   0.932
 1619W        W 5363   8.512   1.504   9.965
 1620W        W 5364   8.433   3.811   2.445
 1621W        W 5365   2.520   1.650   0.889
 1622W        W 5366   4.127   6.573   9.385
 1623W        W 5367   3.360   2.293   9.623
 1624W        W 5368   9.629   3.472  11.561
 1625W        W 5369   6.126   0.318   1.339
 1626W        W 5370   5.207   3.926   9.502
 1627W        W 5371   4.880   9.049   2.881
 1628W        W 5372   3.320   7.410   3.753
 1629W        W 5373   9.432   9.749   1.793
 1630W        W 5374   1.638  10.455   2.917
 1631W        W 5375   8.530   2.804   9.483
 1632W        W 5376   4.102   4.116   1.943
 1633W        W 5377   1.342   9.460   9.257
 1634W        W 5378   2.828   7.353   0.495
 1635W        W 5379   8.961   3.159  11.016
 1636W        W 5380   5.054  10.490   0.295
 1637W        W 5381   1.240   2.758   1.454
 1638W        W 5382   8.540   5.547  10.555
 1639W        W 5383   2.671   6.044   2.897
 1640W        W 5384   0.226   2.733   9.109
 1641W        W 5385   6.990   6.063   3.569
 1642W        W 5386   4.459   5.674  10.237
 1643W        W 5387   4.325   1.402   3.538
 1644W        W 5388   4.080   6.141   2.899
 1645W        W 5389   7.171   3.209  11.698
 1646W        W 5390   5.945   5.635  10.415
 1647W        W 5391   1.443   6.903   2.844
 1648W        W 5392   0.926   2.693  10.186
 1649W        W 5393   7.236   3.700   2.885
 1650W        W 5394   4.983   5.179   0.323
 1651W        W 5395   7.050   0.336   1.689
 1652W        W 5396   6.037   2.407   2.233
 1653W        W 5397   5.578   2.433   1.981
 1654W        W 5398   7.847   5.678   8.846
 1655W        W 5399   2.159   7.788  11.469
 1656W        W 5400   8.520   0.676   1.520
 1657W        W 5401   5.498  10.241  11.442
 1658W        W 5402   4.777   8.080  11.699
 1659W        W 5403   4.607   5.958   1.179
 1660W        W 5404  10.362   3.066   2.959
 1661W        W 5405   1.897   1.324   9.291
 1662W        W 5406   4.749   3.657  10.500
 1663W        W 5407   0.519   5.229   0.897
 1664W        W 5408   0.541   9.313   0.695
 1665W        W 5409   9.791   2.338   9.783
 1666W        W 5410   2.802   7.868   2.827
 1667W        W 5411   1.223   6.552   2.226
 1668W        W 5412   0.962   9.474   8.453
 1669W        W 5413   6.144   1.034  11.427
 1670W        W 5414   2.242   6.816   2.419
 1671W        W 5415   2.120   4.314   0.140
 1672W        W 5416   0.356   6.533   8.937
 1673W        W 5417   3.948   3.182   3.598
 1674W        W 5418   5.469   3.346   3.697
 1675W        W 5419   4.704   1.278   2.622
 1676W        W 5420   5.176   1.218   1.508
 1677W        W 5421   3.920   8.927   2.951
 1678W        W 5422   1.597   9.178  10.460
 1679W        W 5423   1.108   8.477   1.405
 1680W        W 5424   6.227   1.410   2.347
 1681W        W 5425   3.802   2.838   0.547
 1682W        W 5426   7.573   3.088   9.189
 1683W        W 5427   1.354   2.462  11.580
 1684W        W 5428   5.106   2.239   0.628
 1685W        W 5429   6.364   7.308  10.428
 1686W        W 5430   9.816   1.791  11.442
 1687W        W 5431   0.997   1.423   1.413
 1688W        W 5432   6.365   1.995   1.579
 1689W        W 5433   5.680   8.509   3.174
 1690W        W 5434   4.212   6.716   2.381
 1691W        W 5435   2.261   0.818   2.914
 1692W        W 5436   5.648   3.262   1.788
 1693W        W 5437   7.357   6.901   0.710
 1694W        W 5438   4.472   2.194   0.064
 1695W        W 5439   2.723   5.661  11.257
 1696W        W 5440   7.625   4.082   3.021
 1697W        W 5441  10.244   5.730  11.802
 1698W        W 5442   8.062   1.664  11.778
 1699W        W 5443   5.684   3.186   3.272
 1700W        W 5444   7.910   1.943  10.729
 1701W        W 5445   2.086   4.202   1.849
 1702W        W 5446   5.531  10.265   0.376
 1703W        W 5447   2.226  10.372   9.779
 1704W        W 5448   5.215   2.031   2.684
 1705W        W 5449   2.319   5.148   0.387
 1706W        W 5450   4.754   7.143   8.977
 1707W        W 5451   2.779   9.044   8.986
 1708W        W 5452  10.070   9.417   1.667
 1709W        W 5453   6.960   6.561   0.024
 1710W        W 5454   5.656   2.199   0.488
 1711W        W 5455   9.656   1.787  10.948
 1712W        W 5456   5.570   7.318   1.218
 1713W        W 5457   0.279   4.722   0.949
 1714W        W 5458   9.873   8.058  11.231
 1715W        W 5459   7.345   9.662  11.506
 1716W        W 5460   4.163   9.124   0.715
 1717W        W 5461   9.269   5.470   0.090
 1718W        W 5462   4.593   8.238   2.687
 1719W        W 5463   0.251   2.864  10.887
 1720W        W 5464   6.414   2.468   0.839
 1721W        W 5465   3.334   0.746  10.016
 1722W        W 5466   2.797   1.417  11.867
 1723W        W 5467   0.680   5.050   2.780
 1724W        W 5468  10.255   3.200   0.309
 1725W        W 5469   2.705   7.225   9.792
 1726W        W 5470   2.906   9.030  10.476
 1727W        W 5471   2.848   6.966   0.146
 1728W        W 5472   7.677   7.963   0.964
 1729W        W 5473   0.771  10.063   2.036
 1730W        W 5474   3.930   5.190  11.454
 1731W        W 5475   6.207   2.403   1.307
 1732W        W 5476  10.272   6.483  10.644
 1733W        W 5477   6.264   8.552   0.336
 1734W        W 5478   4.152   6.866   0.250
 1735W        W 5479   2.156   6.091  10.772
 1736W        W 5480   2.633   5.525   2.214
 1737W        W 5481   0.023   6.987  10.751
 1738W        W 5482   5.092   3.111  10.897
 1739W        W 5483   3.055   1.876   1.727
 1740W        W 5484   7.434   7.147   2.728
 1741W        W 5485   6.078   3.338   2.469
 1742W        W 5486   0.277   6.199  11.457
 1743W        W 5487   7.522   8.616   1.465
 1744W        W 5488   9.127   7.098   2.381
 1745W        W 5489   8.683   4.807   0.371
 1746W        W 5490   1.153   7.551   9.369
 1747W        W 5491   4.341   9.989   0.940
 1748W        W 5492   2.484   9.892  11.928
 1749W        W 5493   4.142   2.244   1.400
 1750W        W 5494   7.712   4.824  11.780
 1751W        W 5495   9.167   3.491   2.939
 1752W        W 5496   2.769   6.126   9.009
 1753W        W 5497   0.493   7.359   0.339
 1754W        W 5498   1.499   1.950   9.740
 1755W        W 5499   9.127   7.534   0.811
 1756W        W 5500  10.368   0.764   2.816
 1757W        W 5501   4.963   3.328   1.340
 1758W        W 5502   2.306   3.499  11.595
 1759W        W 5503   9.854   1.321   2.666
 1760W        W 5504   4.984   1.251   9.033
 1761W        W 5505   4.325   3.732   2.195
 1762W        W 5506   9.849   8.364  11.837
 1763W        W 5507   7.439   4.069   1.639
 1764W        W 5508   2.665   3.557   2.426
 1765W        W 5509   4.600   7.227   3.431
 1766W        W 5510   3.258   1.395   9.590
 1767W        W 5511   0.389   8.071   9.043
 1768W        W 5512   8.377   7.046   3.123
 1769W        W 5513   5.852   8.922   8.834
 1770W        W 5514   3.536   6.419  11.920
 1771W        W 5515   2.451   5.218  11.157
 1772W        W 5516   2.918   9.911   1.289
 1773W        W 5517   3.531   4.519   1.383
 1774W        W 5518   6.999  10.474  11.346
 1775W        W 5519   2.873   7.661  10.049
 1776W        W 5520   9.520   2.638   2.001
 1777W        W 5521   5.137   8.314  10.566
 1778W        W 5522   2.685   8.609   8.650
 1779W        W 5523   0.583   3.523   1.616
 1780W        W 5524   5.489   4.700  10.130
 1781W        W 5525   2.299   7.300   2.704
 1782W        W 5526   4.097   6.669   8.862
 1783W        W 5527   5.344   7.995   1.258
 1784W        W 5528   0.067   5.723  11.418
 1785W        W 5529   7.558   0.475   9.061
 1786W        W 5530   5.480   2.646   9.142
 1787W        W 5531   5.692   9.554   0.935
 1788W        W 5532   3.038   2.223   1.354
 1789W        W 5533   8.895   8.553  11.843
 1790W        W 5534   3.302   1.461  11.098
 1791W        W 5535   2.843   6.245  10.498
 1792W        W 5536   8.686   1.936   3.802
 1793W        W 5537   1.148   6.977   0.408
 1794W        W 5538   5.957   6.965   1.353
 1795W        W 5539   2.102   4.277   2.863
 1796W        W 5540   7.147   8.182   1.271
 1797W        W 5541   5.722   5.591  10.915
 1798W        W 5542   4.193   2.827   0.192
 1799W        W 5543   6.016   1.185   1.889
 1800W        W 5544   6.146   6.163   0.268
 1801W        W 5545   5.213   2.869   0.244
 1802W        W 5546  10.494   2.118  11.077
 1803W        W 5547   3.118   2.739  11.306
 1804W        W 5548   6.607   1.828   2.571
 1805W        W 5549   9.849   9.874   1.443
 1806W        W 5550   4.853   9.867  11.690
 1807W        W 5551   7.422   7.285  11.789
 1808W        W 5552   6.085   1.667   9.284
 1809W        W 5553   9.436   8.511   2.291
 1810W        W 5554   3.885   3.639  10.529
 1811W        W 5555   4.907   7.505  11.099
 1812W        W 5556   3.690   9.529   1.502
 1813W        W 5557   3.586   2.663   3.039
 1814W        W 5558   5.153   3.407   9.409
 1815W        W 5559   4.583   6.908   1.193
 1816W        W 5560   0.015   9.119  11.903
 1817W        W 5561   1.929   0.315   9.543
 1818W        W 5562   3.577   9.021   1.390
 1819W        W 5563   6.121   0.636   9.508
 1820W        W 5564   2.046   3.774   1.268
 1821W        W 5565   3.551   2.235   1.344
 1822W        W 5566   5.568   6.058   9.722
 1823W        W 5567   4.200   9.143   9.831
 1824W        W 5568   5.770  10.060   0.808
 1825W        W 5569   8.576   8.572   2.301
 1826W        W 5570   7.061   0.992  11.418
 1827W        W 5571   9.528   2.629   2.522
 1828W        W 5572   0.142   4.068   2.341
 1829W        W 5573   1.692   2.372   9.985
 1830W        W 5574   6.208   7.479   9.979
 1831W        W 5575   6.575   4.533   0.143
 1832W        W 5576   7.667   7.510   2.248
 1833W        W 5577  10.196   2.292   2.419
 1834W        W 5578   6.520   2.800   9.490
 1835W        W 5579   7.540   3.940   0.737
 1836W        W 5580   4.725   0.241   2.952
 1837W        W 5581   8.639   1.762   2.813
 1838W        W 5582   4.074   6.473  11.941
 1839W        W 5583   8.901   7.030   3.255
 1840W        W 5584   6.876   6.797   0.552
 1841W        W 5585   2.767   9.424   1.401
 1842W        W 5586   4.422   4.567   2.787
 1843W        W 5587   7.922   2.785   0.354
 1844W        W 5588   6.121   8.943   2.437
 1845W        W 5589   5.037  10.432  11.444
 1846W        W 5590   1.709   3.780   0.766
 1847W        W 5591   2.182   2.614   9.762
 1848W        W 5592   5.632   7.055   3.281
 1849W        W 5593   0.686   4.887   9.522
 1850W        W 5594   1.275   9.560   2.120
 1851W        W 5595   3.852   7.083   3.260
 1852W        W 5596   6.956   3.281   0.696
 1853W        W 5597   4.342   4.714   1.319
 1854W        W 5598  10.205   8.313  10.506
 1855W        W 5599   8.812   4.965   9.018
 1856W        W 5600   0.999   7.918   8.629
 1857W        W 5601   3.687   4.927   2.329
 1858W        W 5602   1.393   4.099  11.493
 1859W        W 5603   7.935   9.037  11.844
 1860W        W 5604   7.170   9.785   1.759
 1861W        W 5605  10.424   9.885   3.208
 1862W        W 5606   8.467   4.709   2.623
 1863W        W 5607   0.267   2.729   1.706
 1864W        W 5608  10.406   1.112   1.898
 1865W        W 5609   9.719   8.763   1.033
 1866W        W 5610   7.042   1.703   3.438
 1867W        W 5611   2.084   2.719  10.958
 1868W        W 5612   0.430   0.372   3.367
 1869W        W 5613   4.544   6.767  11.273
 1870W        W 5614   5.178   3.493   2.730
 1871W        W 5615   3.664   6.251   9.443
 1872W        W 5616   1.748   2.744   2.225
 1873W        W 5617   9.526   5.664   3.172
 1874W        W 5618   5.862   3.768   8.521
 1875W        W 5619   3.050   0.937   1.145
 1876W        W 5620   5.163   9.267  10.768
 1877W        W 5621   8.543   8.141   2.565
 1878W        W 5622   5.918   2.979   9.774
 1879W        W 5623   0.202   5.578   2.829
 1880W        W 5624   2.316   4.205   1.370
 1881W        W 5625   6.612   2.002   0.817
 1882W        W 5626   1.813   9.883  10.965
 1883W        W 5627   0.702   8.039   1.026
 1884W        W 5628  10.379   2.687   9.855
 1885W        W 5629   1.716   1.784  11.591
 1886W        W 5630   0.953   7.803   1.926
 1887W        W 5631   1.246   3.760   0.529
 1888W        W 5632   6.300   2.622   9.917
 1889W        W 5633   0.801   1.880  10.271
 1890W        W 5634   8.313   6.093   0.858
 1891W        W 5635   1.842   8.114   1.252
 1892W        W 5636   4.858   4.027   9.879
 1893W        W 5637   9.285   0.658   1.806
 1894W        W 5638  10.456   7.025   3.167
 1895W        W 5639   3.187   5.654   0.008
 1896W        W 5640   5.747   7.721   2.885
 1897W        W 5641   1.748   3.988   8.916
 1898W        W 5642   9.431   9.834   3.278
 1899W        W 5643   7.476   8.691  10.025
 1900W        W 5644   3.803   7.349   0.795
 1901W        W 5645   8.561   0.446   9.277
 1902W        W 5646   3.594   6.037   0.687
 1903W        W 5647   2.831   7.189   8.950
 1904W        W 5648   6.135   4.423   9.471
 1905W        W 5649   3.454   2.763   8.495
 1906W        W 5650   3.202   1.825  11.450
 1907W        W 5651   9.483   5.240   1.749
 1908W        W 5652  10.264   7.629   9.204
 1909W        W 5653   3.838   6.120   0.226
 1910W        W 5654   6.459   2.301   2.494
 1911W        W 5655   5.022   6.271   9.061
 1912W        W 5656   5.706   4.064   0.714
 1913W        W 5657   1.202   7.895   0.285
 1914W        W 5658   4.381  10.363   9.597
 1915W        W 5659   0.519   8.332  10.819
 1916W        W 5660   4.188   4.867   1.786
 1917W        W 5661   1.763   6.620   2.480
 1918W        W 5662  10.216   5.651   1.367
 1919W        W 5663   6.298   3.622   0.203
 1920W        W 5664   7.639   9.444   2.171
 1921W        W 5665   8.089   6.629   9.276
 1922W        W 5666   7.034   5.788   0.477
 1923W        W 5667   6.473   4.880   2.944
 1924W        W 5668   6.449   6.366  10.295
 1925W        W 5669  10.375   2.658   0.413
 1926W        W 5670   6.035   1.144   9.475
 1927W        W 5671   1.403   8.935   9.570
 1928W        W 5672  10.459   4.599   3.039
 1929W        W 5673   9.529   5.862   0.335
 1930W        W 5674   3.716   9.984  11.053
 1931W        W 5675   5.250   0.358   3.022
 1932W        W 5676   6.408   1.907   9.615
 1933W        W 5677   3.100   2.129   3.668
 1934W        W 5678   4.547   3.645   9.996
 1935W        W 5679   8.317   8.069  10.484
 1936W        W 5680   2.885   3.659  11.046
 1937W        W 5681   9.900   6.189   0.526
 1938W        W 5682   0.808   2.691   1.955
 1939W        W 5683   0.196   1.926   0.504
 1940W        W 5684   8.002   4.221   0.288
 1941W        W 5685   8.052   4.388   8.631
 1942W        W 5686   9.870   3.558   8.928
 1943W        W 5687   9.434   4.602   0.975
 1944W        W 5688   0.019  10.465   3.537
 1945W        W 5689   3.123   7.824   9.044
 1946W        W 5690   3.382   0.894   0.357
 1947W        W 5691  10.362   0.026   8.834
 1948W        W 5692   9.996   1.232   8.686
 1949W        W 5693   6.095   7.476   9.091
 1950W        W 5694   7.474   3.105   0.404
 1951W        W 5695   6.202   1.268   0.986
 1952W        W 5696   5.092   1.612   1.807
 1953W        W 5697  10.498   2.202   2.825
 1954W        W 5698   5.675   3.695   1.488
 1955W        W 5699   6.610   2.543  10.366
 1956W        W 5700   1.458   9.117   3.438
 1957W        W 5701   8.040   0.236   1.460
 1958W        W 5702   0.781   0.238   2.851
 1959W        W 5703   1.358   3.693  11.076
 1960W        W 5704   6.872   2.890   9.063
 1961W        W 5705   4.793   9.425  10.464
 1962W        W 5706   0.226   6.961   0.490
 1963W        W 5707   0.958   5.649   1.695
 1964W        W 5708   2.331   5.554   1.005
 1965W        W 5709   4.717   6.658   8.599
 1966W        W 5710   8.568   3.690   1.574
 1967W        W 5711   2.632   0.806  11.047
 1968W        W 5712   5.563   7.432   0.171
 1969W        W 5713   0.788   5.093   9.016
 1970W        W 5714   1.296   1.473   9.836
 1971W        W 5715   1.767  10.314   9.052
 1972W        W 5716   5.769   5.422   0.620
 1973W        W 5717   4.946   6.993  10.320
 1974W        W 5718   9.840   6.026   2.830
 1975W        W 5719   7.159   4.120   9.731
 1976W        W 5720  10.500   5.525   3.304
 1977W        W 5721   5.433   8.046   3.229
 1978W        W 5722   7.945   7.367   0.408
 1979W        W 5723   4.797   4.956   9.396
 1980W        W 5724   5.402   6.194   8.722
 1981W        W 5725   6.649   4.958   0.386
 1982W        W 5726  10.219   4.539   2.091
 1983W        W 5727   8.336   1.353   0.710
 1984W        W 5728   0.058   6.674  11.580
 1985W        W 5729   8.234   4.136   0.745
 1986W        W 5730   2.627   4.492   9.242
 1987W        W 5731   4.593   2.620   9.322
 1988W        W 5732   1.794   5.653   1.675
 1989W        W 5733   4.283   7.948   1.926
 1990W        W 5734  10.466   4.566  11.933
 1991W        W 5735   3.642   5.413  11.809
 1992W        W 5736   1.713   3.797   9.826
 1993W        W 5737   2.945   0.736   0.659
 1994W        W 5738   6.021   1.616   9.779
 1995W        W 5739   0.459   4.283   8.732
 1996W        W 5740  10.422   2.337   9.046
 1997W        W 5741   4.562   3.618   8.097
 1998W        W 5742   9.459  10.368   0.773
 1999W        W 5743   9.282   8.798   1.885
 2000W        W 5744   8.779   5.256   3.323
 2001W        W 5745   8.969  10.311   2.806
 2002W        W 5746  10.184   7.878  10.839
 2003W        W 5747   9.691   9.147   8.443
 2004W        W 5748   0.517   6.982   2.428
 2005W        W 5749   3.076   7.665   1.892
 2006W        W 5750  10.277   5.823   2.648
 2007W        W 5751   2.305   9.922   2.429
 2008W        W 5752   4.643   7.627   9.770
 2009W        W 5753   7.839   4.592   9.911
 2010W        W 5754   5.075   5.174   1.908
 2011W        W 5755   0.538   6.356  11.052
 2012W        W 5756   6.737   3.051   3.212
 2013W        W 5757   2.122   2.554  11.482
 2014W        W 5758   5.466   6.899   0.951
 2015W        W 5759   2.391  10.377   3.075
 2016W        W 5760   8.495   3.581   0.996
 2017W        W 5761   6.007   6.990   9.964
 2018W        W 5762   3.746   3.078  11.990
 2019W        W 5763   0.355   0.046   9.084
 2020W        W 5764   6.553  10.123   1.898
 2021W        W 5765   0.928   9.872   8.975
 2022W        W 5766   5.978   4.144   8.857
 2023W        W 5767   2.127   9.851  11.519
 2024W        W 5768   6.582   9.508   1.097
 2025W        W 5769   8.750   6.465   0.320
 2026W        W 5770   1.266   3.413  10.413
 2027W        W 5771   8.083   0.029  10.991
 2028W        W 5772   0.822   8.665   0.062
 2029W        W 5773   1.431   5.374   8.911
 2030W        W 5774   6.631   8.599   0.779
 2031W        W 5775   3.120   8.043   8.563
 2032W        W 5776   3.408   3.117   2.239
 2033W        W 5777   0.739   5.195   1.767
 2034W        W 5778   0.992   9.466   1.335
 2035W        W 5779   8.817   5.552  11.292
 2036W        W 5780   2.252   0.773   1.419
 2037W        W 5781   3.273   1.711   8.750
 2038W        W 5782   2.278   4.704   2.165
 2039W        W 5783   1.695   6.675   9.340
 2040W        W 5784  10.347  10.350  11.380
 2041W        W 5785   0.283   1.796   1.376
 2042W        W 5786   0.587   2.001   3.551
 2043W        W 5787   5.298   8.584   8.417
 2044W        W 5788   8.590   0.818   1.031
 2045W        W 5789   1.926   0.412   3.058
 2046W        W 5790   9.848   5.184  11.378
 2047W        W 5791   6.688   4.432   2.783
 2048W        W 5792   5.203   0.996   0.184
 2049W        W 5793   1.890   2.230   3.204
 2050W        W 5794   0.266   6.123   1.778
 2051W        W 5795   2.331   6.123   9.300
 2052W        W 5796   3.405   9.593   3.660
 2053W        W 5797   3.189   4.580  10.062
 2054W        W 5798   1.784   2.283  10.838
 2055W        W 5799   9.251   5.428  11.564
 2056W        W 5800  10.442   1.322   3.310
 2057W        W 5801   8.649   3.584   2.892
 2058W        W 5802   4.531   6.687  10.351
 2059W        W 5803   6.988   3.243   0.180
 2060W        W 5804   4.240  10.282   9.113
 2061W        W 5805   3.095   1.184  11.498
 2062W        W 5806   2.150   6.989   0.504
 2063W        W 5807   7.472   2.582  11.323
 2064W        W 5808   6.120   3.986   9.738
 2065W        W 5809   7.002   8.698  11.882
 2066W        W 5810   4.648   3.638   3.456
 2067W        W 5811   2.693   5.267  10.289
 2068W        W 5812   8.486   7.175  10.963
 2069W        W 5813   3.823   3.591   0.074
 2070W        W 5814   5.158   3.518   3.246
 2071W        W 5815   0.154  10.032   9.997
 2072W        W 5816   1.653   5.160   2.734
 2073W        W 5817   1.806   1.941   8.661
 2074W        W 5818   4.290   7.038   9.181
 2075W        W 5819   9.875  10.035   1.924
 2076W        W 5820   7.002   2.234   2.206
 2077W        W 5821   5.708   6.824  10.882
 2078W        W 5822   2.046   4.849   0.039
 2079W        W 5823   7.864   1.661   2.451
 2080W        W 5824   5.961   5.533   1.480
 2081W        W 5825   1.127   4.536  11.468
 2082W        W 5826   2.735   5.610  11.755
 2083W        W 5827   2.741   8.486  11.218
 2084W        W 5828   7.058   1.774   1.952
 2085W        W 5829   1.361   1.174   1.186
 2086W        W 5830   4.205   2.336   3.522
 2087W        W 5831   0.527   7.795   9.523
 2088W        W 5832   2.971  10.000  11.834
 2089W        W 5833   1.330   0.918  11.056
 2090W        W 5834   5.620   4.642   9.629
 2091W        W 5835   7.943   3.642   2.422
 2092W        W 5836   8.967   5.365   0.972
 2093W        W 5837   7.919   2.163  11.893
 2094W        W 5838   0.775   5.950   3.362
 2095W        W 5839   3.873   7.108   2.708
 2096W        W 5840   3.619   4.167   8.588
 2097W        W 5841   8.975   2.728   9.243
 2098W        W 5842   7.746   2.807   0.835
 2099W        W 5843   4.708   4.022  11.900
 2100W        W 5844   0.817  10.147   9.445
 2101W        W 5845   8.765   7.914  10.637
 2102W        W 5846   5.218   2.303   3.146
 2103W        W 5847   1.871   3.071   3.499
 2104W        W 5848   3.315   9.667  10.891
 2105W        W 5849   8.639   0.924  11.832
 2106W        W 5850  10.427   4.644  10.832
 2107W        W 5851   7.114   7.981   2.644
 2108W        W 5852   4.247   9.179   3.267
 2109W        W 5853   2.327   3.272   3.387
 2110W        W 5854   7.681   1.293  10.993
 2111W        W 5855   9.389   3.078   1.786
 2112W        W 5856   7.442   7.027   3.238
 2113W        W 5857   5.461   9.392   2.016
 2114W        W 5858   4.764   0.785   0.310
 2115W        W 5859   6.065   6.062   1.547
 2116W        W 5860   5.580   4.114   8.233
 2117W        W 5861   7.640   1.514  10.024
 2118W        W 5862   3.294   7.225   1.692
 2119W        W 5863   0.330   2.837   0.278
 2120W        W 5864   4.694   1.447  10.791
 2121W        W 5865   2.252   6.480   2.824
 2122W        W 5866   1.194   7.989  10.956
 2123W        W 5867   7.453  10.085  10.293
 2124W        W 5868   8.168   0.488   1.001
 2125W        W 5869   8.436   4.061   8.688
 2126W        W 5870   6.974   3.863   3.288
 2127W        W 5871   1.654   9.717   0.384
 2128W        W 5872   8.373   8.436   8.993
 2129W        W 5873   1.378   9.296   1.671
 2130W        W 5874   1.629   4.135   1.628
 2131W        W 5875   7.484   8.113  10.611
 2132W        W 5876   9.022   6.649   1.150
 2133W        W 5877   1.476   1.436   3.687
 2134W        W 5878   2.799   2.177   0.884
 2135W        W 5879   8.934   6.171   1.321
 2136W        W 5880   1.272   3.808  10.088
 2137W        W 5881   0.346   0.507   2.895
 2138W        W 5882   0.434   8.782   9.567
 2139W        W 5883   7.848   0.566   3.346
 2140W        W 5884   9.124   0.778   9.890
 2141W        W 5885   8.079   2.854  10.229
 2142W        W 5886   1.062   6.283   3.643
 2143W        W 5887   8.493   1.909   9.634
 2144W        W 5888   9.492   0.043   2.887
 2145W        W 5889   7.048   2.392   0.203
 2146W        W 5890   8.769   0.235   2.344
 2147W        W 5891   1.830   8.738   0.410
 2148W        W 5892  10.315   8.987   2.706
 2149W        W 5893   1.009   5.307  11.245
 2150W        W 5894   3.174   2.810   9.865
 2151W        W 5895   0.685   1.752   3.063
 2152W        W 5896   7.457   7.405   0.288
 2153W        W 5897   9.987   4.684   2.888
 2154W        W 5898   4.699   3.729   0.416
 2155W        W 5899   9.926   1.229   0.786
 2156W        W 5900   9.281   0.293  11.416
 2157W        W 5901   1.299   9.926   9.550
 2158W        W 5902   2.907   4.834   8.557
 2159W        W 5903   9.084   6.696   0.644
 2160W        W 5904   8.978   8.436   3.109
 2161W        W 5905   8.093   3.550  11.834
 2162W        W 5906   6.814   8.996   0.240
 2163W        W 5907   6.116   9.526   1.384
 2164W        W 5908   7.934   6.017   2.401
 2165W        W 5909   7.763   7.627  11.986
 2166W        W 5910   4.401   2.774   3.299
 2167W        W 5911   4.125   5.018   0.922
 2168W        W 5912   3.392   9.942   1.464
 2169W        W 5913   7.732   9.365   9.051
 2170W        W 5914  10.272   8.471   2.587
 2171W        W 5915   5.264   1.464   0.016
 2172W        W 5916   7.050   0.413  10.470
 2173W        W 5917   2.591   2.062   1.585
 2174W        W 5918   4.467   2.758   0.608
 2175W        W 5919   1.342   6.857  11.944
 2176W        W 5920   2.617   1.152   2.698
 2177W        W 5921   4.215   4.804   2.339
 2178W        W 5922   0.018   4.713   1.713
 2179W        W 5923   7.211  10.265   2.866
 2180W        W 5924   4.616   8.951  10.620
 2181W        W 5925   9.297   5.730   1.733
 2182W        W 5926   8.461   2.351   0.346
 2183W        W 5927   3.451   9.101   2.889
 2184W        W 5928   3.114   2.727   2.109
 2185W        W 5929  10.262   2.568   3.105
 2186W        W 5930   5.086   9.803   2.027
 2187W        W 5931  10.259   9.703  10.022
 2188W        W 5932   5.585   9.297   0.264
 2189W        W 5933   1.781   8.639   2.623
 2190W        W 5934   7.014   2.831   0.465
 2191W        W 5935   9.870   8.586   9.537
 2192W        W 5936   5.621   9.998   2.749
 2193W        W 5937   7.010   4.921   9.088
 2194W        W 5938   1.800   6.686  11.735
 2195W        W 5939   8.072   5.034  10.025
 2196W        W 5940   2.562   8.073   9.856
 2197W        W 5941   0.327   6.881   1.363
 2198W        W 5942   5.049   4.933  11.013
 2199W        W 5943   8.579   1.476  11.843
 2200W        W 5944   5.864   9.893  11.460
 2201W        W 5945   8.224   7.790   1.825
 2202W        W 5946   9.674   1.375   2.190
 2203W        W 5947   8.350   0.792   0.232
 2204W        W 5948   7.083  10.163   0.752
 2205W        W 5949   9.220   5.060   3.154
 2206W        W 5950   7.036   9.871  10.542
 2207W        W 5951   2.757   0.697   2.847
 2208W        W 5952   9.984   9.375  11.326
 2209W        W 5953   4.151   0.503   0.693
 2210W        W 5954   5.113   7.080  11.519
 2211W        W 5955   8.053   2.269   9.018
 2212W        W 5956   9.785   1.826   0.508
 2213W        W 5957   4.362   7.068   8.642
 2214W        W 5958   8.519   0.049   2.767
 2215W        W 5959   8.139   7.317   2.191
 2216W        W 5960   4.639   2.574  10.263
 2217W        W 5961   2.831   1.742   1.287
 2218W        W 5962   0.330   1.757  11.555
 2219W        W 5963   1.578   2.782  10.794
 2220W        W 5964   4.128   5.265   2.572
 2221W        W 5965   4.129   4.381  10.371
 2222W        W 5966   4.162   8.331   9.560
 2223W        W 5967   1.995   1.496   8.493
 2224W        W 5968   6.020   2.442  11.508
 2225W        W 5969   9.060   3.825   1.732
 2226W        W 5970  10.327  10.434   0.699
 2227W        W 5971   8.386   5.200   0.268
 2228W        W 5972   8.438   7.430   2.735
 2229W        W 5973   7.617   2.720   2.773
 2230W        W 5974   5.613   8.482   1.917
 2231W        W 5975   3.742   9.362   1.020
 2232W        W 5976   0.706   2.563  11.001
 2233W        W 5977   6.181   9.863   1.017
 2234W        W 5978   6.048  10.338   1.181
 2235W        W 5979   8.345   8.557  10.600
 2236W        W 5980   2.412   1.243  10.945
 2237W        W 5981   8.291  10.285   1.323
 2238W        W 5982  10.117   7.473   0.920
 2239W        W 5983   7.111   5.122   1.629
 2240W        W 5984   8.545   3.731  10.518
 2241W        W 5985   6.933   7.468  11.204
 2242W        W 5986   1.025   5.690  11.652
 2243W        W 5987   7.470   4.298   1.150
 2244W        W 5988   3.095   3.244  10.523
 2245W        W 5989   8.420   8.797  11.847
 2246W        W 5990   2.500   2.786  10.613
 2247W        W 5991   9.905   6.052  11.492
 2248W        W 5992   0.996   7.114   9.107
 2249W        W 5993   5.675   1.785  11.500
 2250W        W 5994   6.502   7.110   3.206
 2251W        W 5995   8.410   7.914   3.570
 2252W        W 5996   1.863   5.600   0.757
 2253W        W 5997   2.705   6.547   3.630
 2254W        W 5998   9.589   0.354   3.285
 2255W        W 5999   3.683   4.763   1.834
 2256W        W 6000   8.437   0.960   1.953
 2257W        W 6001   3.219   6.052   3.266
 2258W        W 6002   1.174   2.257  10.058
 2259W        W 6003   4.325   9.902   1.482
 2260W        W 6004   3.275   5.656   0.924
 2261W        W 6005   5.442   0.851  10.077
 2262W        W 6006   6.332   4.969   9.384
 2263W        W 6007   3.617   5.375  11.105
 2264W        W 6008   0.256   5.074   3.385
 2265W        W 6009   2.348   6.058   1.900
 2266W        W 6010   3.065   8.131   9.932
 2267W        W 6011   7.966   3.315   9.426
 2268W        W 6012   7.380   4.035  11.333
 2269W        W 6013   2.326   6.496   0.836
 2270W        W 6014   4.440   4.614   9.553
 2271W        W 6015   8.449   7.687  10.980
 2272W        W 6016   5.740   1.233   2.304
 2273W        W 6017   9.205   0.286  10.058
 2274W        W 6018   9.955   6.949   0.292
 2275W        W 6019   6.285   6.199  11.391
 2276W        W 6020   5.482   5.863  11.287
 2277W        W 6021   5.040   6.968   9.808
 2278W        W 6022   2.844   7.483  11.984
 2279W        W 6023   8.085   4.514   1.912
 2280W        W 6024   8.984   6.005   9.485
 2281W        W 6025   7.168   1.664   1.480
 2282W        W 6026  10.317   9.890   2.194
 2283W        W 6027   5.555   7.061   9.676
 2284W        W 6028   1.398   7.547   9.816
 2285W        W 6029   6.597   6.213  11.808
 2286W        W 6030   7.160   9.234  11.312
 2287W        W 6031   5.255   7.897  11.851
 2288W        W 6032   2.901   1.063   0.280
 2289W        W 6033   3.392   0.378  11.746
 2290W        W 6034   4.927   4.405   9.521
 2291W        W 6035  10.185   1.410   2.259
 2292W        W 6036   9.376   8.104  11.099
 2293W        W 6037   8.026   0.275   2.501
 2294W        W 6038   1.574   3.350  10.015
 2295W        W 6039   1.518   8.252   0.539
 2296W        W 6040   7.043   3.085   2.213
 2297W        W 6041   0.076   4.003  10.123
 2298W        W 6042   9.209   1.385   2.456
 2299W        W 6043   6.470   2.448   1.934
 2300W        W 6044   0.284   6.463   0.412
 2301W        W 6045   1.270   6.915   3.344
 2302W        W 6046   1.942  10.427   0.743
 2303W        W 6047   2.783   6.418   8.571
 2304W        W 6048   0.464   2.288   8.997
 2305W        W 6049   8.007   4.178   2.659
 2306W        W 6050   7.071   8.863   9.100
 2307W        W 6051   1.174   5.104   1.536
 2308W        W 6052   9.609  10.324  10.878
 2309W        W 6053   8.350  10.454   2.270
 2310W        W 6054   1.581   5.184   0.871
 2311W        W 6055   9.561   0.894   3.159
 2312W        W 6056   0.712   3.379   2.779
 2313W        W 6057   2.803   8.529   1.341
 2314W        W 6058   0.087   2.146   3.428
 2315W        W 6059   1.275   3.195  10.865
 2316W        W 6060   0.299   2.355  10.763
 2317W        W 6061   3.582   4.183   0.916
 2318W        W 6062   5.067   8.403  11.052
 2319W        W 6063   0.446   1.832   9.820
 2320W        W 6064   0.863   0.958  11.282
 2321W        W 6065   1.985   7.089   9.306
 2322W        W 6066   5.216   6.650  10.789
 2323W        W 6067   0.896   6.336   1.393
 2324W        W 6068   2.269  10.211  10.770
 2325W        W 6069   7.381   5.718   3.544
 2326W        W 6070   6.252   2.882  11.707
 2327W        W 6071   3.367   7.073   9.550
 2328W        W 6072   8.102   8.134   0.778
 2329W        W 6073   3.742   6.879  11.913
 2330W        W 6074   1.372   9.340   0.148
 2331W        W 6075   5.480   6.070   1.130
 2332W        W 6076   3.669   7.174  10.565
 2333W        W 6077  10.104   6.575  11.348
 2334W        W 6078   7.475   3.286  10.197
 2335W        W 6079   6.674   3.704   0.629
 2336W        W 6080   7.094   4.532   1.587
 2337W        W 6081   0.521   1.880  10.725
 2338W        W 6082   3.853   8.767   3.415
 2339W        W 6083   9.554   2.761   9.052
 2340W        W 6084   5.577   7.962   0.233
 2341W        W 6085   9.282   9.876   9.955
 2342W        W 6086   7.147   2.675   8.623
 2343W        W 6087   5.256   7.592   3.089
 2344W        W 6088   3.735   3.776  11.536
 2345W        W 6089   5.604   1.713   9.517
 2346W        W 6090   8.705   1.361   2.508
 2347W        W 6091   7.982   3.660   0.799
 2348W        W 6092   9.085   2.658   2.822
 2349W        W 6093  10.064   7.106   3.490
 2350W        W 6094   8.895   5.716  11.818
 2351W        W 6095   4.199   3.804   9.610
 2352W        W 6096   7.423   5.086   8.806
 2353W        W 6097   0.473   4.588   0.092
 2354W        W 6098   3.206   5.414  10.218
 2355W        W 6099   3.274   1.232   0.763
 2356W        W 6100   1.718   9.802   9.832
 2357W        W 6101   6.041   1.281   8.959
 2358W        W 6102   1.674   9.681  10.347
 2359W        W 6103   0.476   2.116  11.208
 2360W        W 6104   1.512  10.408   1.762
 2361W        W 6105   7.173   5.048   1.142
 2362W        W 6106   7.375   3.162   2.812
 2363W        W 6107   6.470   4.511  11.605
 2364W        W 6108   0.741   1.254  10.913
 2365W        W 6109   4.328   2.734   1.422
 2366W        W 6110   5.564   8.950   1.681
 2367W        W 6111   6.555   0.017   9.637
 2368W        W 6112   3.219   3.664   3.561
 2369W        W 6113   2.307   9.426  11.780
 2370W        W 6114  10.278   9.132   8.949
 2371W        W 6115   4.634   3.724   1.422
 2372W        W 6116   1.871   9.690   8.480
 2373W        W 6117   9.076   4.593   0.608
 2374W        W 6118   8.065   6.629   9.766
 2375W        W 6119   2.833   3.942   1.496
 2376W        W 6120  10.131   5.655   9.423
 2377W        W 6121   2.964   8.593  10.142
 2378W        W 6122   3.645   7.963  11.827
 2379W        W 6123   6.822   5.517   1.776
 2380W        W 6124   3.794   8.371   2.160
 2381W        W 6125   0.279   1.323  10.730
 2382W        W 6126   3.268   1.309  10.090
 2383W        W 6127   9.283   8.217   8.750
 2384W        W 6128   5.280   2.998   2.574
 2385W        W 6129  10.333   9.171  10.108
 2386W        W 6130   2.080   2.857   8.838
 2387W        W 6131   2.659   5.016   2.352
 2388W        W 6132   8.950   9.823   1.253
 2389W        W 6133   3.162   6.141   1.013
 2390W        W 6134   8.744   0.452   0.116
 2391W        W 6135   1.250   8.177   2.727
 2392W        W 6136   4.574   1.637   9.920
 2393W        W 6137   6.596   2.235   0.355
 2394W        W 6138   3.031   4.103   9.413
 2395W        W 6139   8.964   9.307  10.776
 2396W        W 6140   8.583   4.612   9.383
 2397W        W 6141   4.496  10.443   0.300
 2398W        W 6142   0.191   9.774  10.465
 2399W        W 6143   7.889   4.739  10.765
 2400W        W 6144   1.425   9.080   2.167
 2401W        W 6145   5.937   7.618  10.405
 2402W        W 6146   5.089   8.144   3.659
 2403W        W 6147   0.831   3.575   2.303
 2404W        W 6148   9.865   6.169  10.457
 2405W        W 6149   5.994   8.691  11.882
 2406W        W 6150   3.364   6.829  10.380
 2407W        W 6151   4.658   2.635  11.766
 2408W        W 6152   4.258   1.751   8.760
 2409W        W 6153   3.751   7.621   3.935
 2410W        W 6154   8.919   7.530   2.579
 2411W        W 6155   7.619   0.397   8.486
 2412W        W 6156  10.045   9.486   1.172
 2413W        W 6157   1.611   4.566   3.657
 2414W        W 6158   8.541   9.375  10.067
 2415W        W 6159   5.318   4.800   2.153
 2416W        W 6160   8.862  10.446  11.367
 2417W        W 6161   2.875   0.324   3.622
 2418W        W 6162   7.607   2.695   9.541
 2419W        W 6163   5.537   8.305  11.758
 2420W        W 6164  10.398   7.909   3.283
 2421W        W 6165   6.523   0.466  11.958
 2422W        W 6166   2.391   6.827   9.620
 2423W        W 6167   2.834   8.100   9.397
 2424W        W 6168   8.419   4.199   1.254
 2425W        W 6169   5.571   5.144  10.363
 2426W        W 6170   9.944   1.873   9.928
 2427W        W 6171   4.777   3.675   2.461
 2428W        W 6172  10.112   8.389   0.297
 2429W        W 6173   5.077   9.244   0.219
 2430W        W 6174   4.698   1.174  10.353
 2431W        W 6175   0.670   2.283   9.962
 2432W        W 6176   2.233   4.780   9.075
 2433W        W 6177   8.879   9.565   1.725
 2434W        W 6178   7.243   6.471   9.894
 2435W        W 6179   0.400   4.311   0.535
 2436W        W 6180   9.218   5.754   1.222
 2437W        W 6181   2.725   9.427   2.925
 2438W        W 6182   2.707   7.827   0.678
 2439W        W 6183   2.560   0.314  11.313
 2440W        W 6184   6.153   4.735  11.266
 2441W        W 6185   2.911   0.333   9.288
 2442W        W 6186   0.904   0.454   8.433
 2443W        W 6187   9.881   3.726   1.258
 2444W        W 6188   4.957   3.989   4.111
 2445W        W 6189   7.155   7.732  10.808
 2446W        W 6190   8.709   5.854   9.054
 2447W        W 6191   1.657   4.210  10.761
 2448W        W 6192   7.060   4.591   9.509
 2449W        W 6193   0.762   1.453   9.996
 2450W        W 6194   8.902   0.288   0.927
 2451W        W 6195  10.419   7.182   8.973
 2452W        W 6196   2.132   1.842  10.778
 2453W        W 6197   3.703   0.982   9.086
 2454W        W 6198   2.278   8.573   9.407
 2455W        W 6199   4.160   1.326   1.820
 2456W        W 6200   7.625   8.025   3.559
 2457W        W 6201   6.913   0.811   9.619
 2458W        W 6202   1.832   1.384   2.016
 2459W        W 6203   7.454   8.406  11.644
 2460W        W 6204   2.760   2.123   2.854
 2461W        W 6205  10.463  10.032  10.946
 2462W        W 6206   3.279   7.889   3.590
 2463W        W 6207   7.929   0.723   2.762
 2464W        W 6208   2.364   7.699   3.021
 2465W        W 6209   2.590   2.302   2.419
 2466W        W 6210  10.398   3.713   0.024
 2467W        W 6211   6.493   6.986   1.839
 2468W        W 6212   6.101  10.478   1.719
 2469W        W 6213   3.855   0.041   8.890
 2470W        W 6214   3.801   0.545   9.336
 2471W        W 6215   7.190   7.844   0.880
 2472W        W 6216   5.073   3.573   9.876
 2473W        W 6217   8.099   9.304  10.342
 2474W        W 6218   1.763   0.888   1.299
 2475W        W 6219   1.883   2.101  10.374
 2476W        W 6220   6.690   2.880   0.858
 2477W        W 6221   4.606   8.562  11.898
 2478W        W 6222  10.009   9.540   8.584
 2479W        W 6223   6.252   8.859  11.446
 2480W        W 6224   0.402   4.184   1.030
 2481W        W 6225   6.070   6.328   3.403
 2482W        W 6226   8.266   7.963   8.794
 2483W        W 6227   4.183   7.689   0.815
 2484W        W 6228   5.223  10.170  11.905
 2485W        W 6229  10.155   8.531   1.200
 2486W        W 6230   5.119   2.510  10.005
 2487W        W 6231   3.196  10.417   1.301
 2488W        W 6232   5.008   5.998  11.884
 2489W        W 6233   7.564   8.784   8.693
 2490W        W 6234   8.929   3.171   9.013
 2491W        W 6235   0.843   7.485  10.295
 2492W        W 6236   0.370   1.601  10.302
 2493W        W 6237   0.912   8.963   1.425
 2494W        W 6238  10.089   8.131   9.445
 2495W        W 6239   7.158   2.898  11.082
 2496W        W 6240   2.912   0.232   1.578
 2497W        W 6241   2.479   7.240   9.307
 2498W        W 6242   3.889   8.086   1.625
 2499W        W 6243   5.453   4.255   3.150
 2500W        W 6244   9.938   2.458  11.679
 2501W        W 6245   3.376   0.292   1.785
 2502W        W 6246   7.559   3.806  10.423
 2503W        W 6247   4.241   3.868  11.287
 2504W        W 6248   0.042   5.919   2.209
 2505W        W 6249   0.661   6.563  10.259
 2506W        W 6250   7.905   2.311   2.808
 2507W        W 6251   9.397   3.143   1.280
 2508W        W 6252   3.736   1.285   0.993
 2509W        W 6253   4.595   7.979   3.614
 2510W        W 6254   1.204   5.317  10.294
 2511W        W 6255   5.708   9.901   1.299
 2512W        W 6256   0.725   7.446   2.254
 2513W        W 6257   7.941  10.037  11.054
 2514W        W 6258   9.436   7.653  10.194
 2515W        W 6259   5.694   4.468   9.154
 2516W        W 6260   8.008   1.767   1.956
 2517W        W 6261   7.836   7.057   0.871
 2518W        W 6262   8.084   0.243   3.001
 2519W        W 6263   9.361   2.827   0.482
 2520W        W 6264   2.142   7.450   1.738
 2521W        W 6265   4.152   8.632   0.864
 2522W        W 6266   8.908   5.958  10.956
 2523W        W 6267   9.602  10.070   3.770
 2524W        W 6268   9.978   4.457   1.655
 2525W        W 6269   2.391   5.333   1.459
 2526W        W 6270  10.053   4.876  11.818
 2527W        W 6271   8.126   2.444   1.450
 2528W        W 6272   9.144   3.630   9.185
 2529W        W 6273   6.286   2.893   1.162
 2530W        W 6274  10.284   1.274   9.984
 2531W        W 6275  10.399   2.417   1.954
 2532W        W 6276   6.496   2.745   2.768
 2533W        W 6277   8.378   7.117   9.072
 2534W        W 6278   9.930  10.289   2.785
 2535W        W 6279   0.836   6.801   1.162
 2536W        W 6280   3.276   0.228  10.044
 2537W        W 6281   2.137   2.660   3.315
 2538W        W 6282   4.069   5.285   0.480
 2539W        W 6283   6.218   6.944   9.078
 2540W        W 6284   2.873   4.175   9.890
 2541W        W 6285   3.190   9.704   9.926
 2542W        W 6286   5.955   6.636  11.317
 2543W        W 6287   8.152   4.050  11.833
 2544W        W 6288   7.231   5.575   1.190
 2545W        W 6289   0.963   9.152   9.461
 2546W        W 6290   5.239   0.272   1.938
 2547W        W 6291   6.204   1.226  10.038
 2548W        W 6292   7.864   5.441   1.762
 2549W        W 6293   7.437   8.096   3.080
 2550W        W 6294   5.467   7.826   3.760
 2551W        W 6295   7.044   6.069   0.045
 2552W        W 6296   1.897   4.262   9.851
 2553W        W 6297   5.008   2.930   8.564
 2554W        W 6298   3.155   3.461   3.081
 2555W        W 6299   9.313   9.312   3.405
 2556W        W 6300   6.271   4.966   2.121
 2557W        W 6301   4.507   7.705  11.454
 2558W        W 6302   8.993   4.511  11.048
 2559W        W 6303   8.551   9.275  11.131
 2560W        W 6304   5.968   3.507   9.873
 2561W        W 6305  10.448   0.335   3.150
 2562W        W 6306   3.575   2.258   8.733
 2563W        W 6307   8.145   9.328  11.491
 2564W        W 6308   4.729   8.374   0.414
 2565W        W 6309   8.893   1.437   1.487
 2566W        W 6310   6.930   0.819  10.953
 2567W        W 6311   4.597   6.649   9.090
 2568W        W 6312   9.149   3.438   2.060
 2569W        W 6313   8.442   7.449   0.355
 2570W        W 6314   4.681   9.063  10.111
 2571W        W 6315   1.896   6.483   3.580
 2572W        W 6316   5.187   1.405   2.495
 2573W        W 6317   3.621   8.397  10.876
 2574W        W 6318   5.620   1.703   0.553
 2575W        W 6319   3.826   7.504   9.761
 2576W        W 6320   5.649   5.139   1.307
 2577W        W 6321   9.408   7.916   2.084
 2578W        W 6322   7.229   1.363   9.760
 2579W        W 6323   8.518   6.719   9.999
 2580W        W 6324   9.840   9.807   2.912
 2581W        W 6325   4.059   1.531  11.560
 2582W        W 6326   0.748   6.120   9.904
 2583W        W 6327   1.378   8.492  11.088
 2584W        W 6328   3.304   1.467  10.593
 2585W        W 6329  10.430   0.034   9.736
 2586W        W 6330   2.582   4.904   3.618
 2587W        W 6331   5.769   0.729  10.482
 2588W        W 6332   0.767   4.326   1.746
 2589W        W 6333   5.982   7.323   9.560
 2590W        W 6334   0.835   4.683   8.677
 2591W        W 6335   4.584   8.469  11.364
 2592W        W 6336   2.222   3.198  10.703
 2593W        W 6337   6.652   8.367   1.840
 2594W        W 6338   0.364   5.709   9.992
 2595W        W 6339   9.638   5.370   0.451
 2596W        W 6340   9.795   3.056   0.067
 2597W        W 6341   4.314   9.522  11.841
 2598W        W 6342   1.716   3.662  10.406
 2599W        W 6343   0.461   0.485   0.372
 2600W        W 6344   1.748   5.793   8.792
 2601W        W 6345  10.214   2.822  11.943
 2602W        W 6346   5.811   2.488   9.953
 2603W        W 6347   6.569   2.955   1.931
 2604W        W 6348   6.480   3.919  10.335
 2605W        W 6349   7.431   2.265   8.801
 2606W        W 6350   6.476  10.377  10.123
 2607W        W 6351   2.252   9.521   9.218
 2608W        W 6352   4.719   6.433   1.325
 2609W        W 6353   3.633  10.388  10.266
 2610W        W 6354   2.925   5.658   3.120
 2611W        W 6355   6.372  10.211   3.309
 2612W        W 6356   9.401   3.066   2.800
 2613W        W 6357   8.070   1.783   8.793
 2614W        W 6358   8.943   9.529   9.809
 2615W        W 6359   9.424   2.177   1.773
 2616W        W 6360   8.492   0.221   8.826
 2617W        W 6361   5.380   9.569   9.830
 2618W        W 6362   6.998   2.188   3.285
 2619W        W 6363   7.871   3.885  11.307
 2620W        W 6364   1.128   1.427  11.207
 2621W        W 6365   7.099   5.023  11.806
 2622W        W 6366   8.303   7.115   1.222
 2623W        W 6367   4.241   6.546   1.095
 2624W        W 6368   2.722   9.929   9.982
 2625W        W 6369   5.456   7.612   1.595
 2626W        W 6370   7.101   5.717  10.223
 2627W        W 6371   8.435   0.738   8.749
 2628W        W 6372   7.257   9.293   9.298
 2629W        W 6373   6.054   1.975  11.215
 2630W        W 6374   7.319   5.207  10.252
 2631W        W 6375   2.069   9.920   0.676
 2632W        W 6376   9.944   9.309  11.851
 2633W        W 6377   4.604   0.687  10.646
 2634W        W 6378   9.849   9.464  10.806
 2635W        W 6379   9.462   1.823   2.402
 2636W        W 6380   9.545   0.427   9.107
 2637W        W 6381   5.221   1.958  10.257
 2638W        W 6382   2.761   9.284   2.446
 2639W        W 6383   1.152   0.988   0.747
 2640W        W 6384   5.950   3.043   9.020
 2641W        W 6385   6.523  10.173  11.589
 2642W        W 6386   6.974   8.506  10.711
 2643W        W 6387   0.354   2.672  10.050
 2644W        W 6388   2.455   9.547   0.613
 2645W        W 6389   0.516   7.390  10.953
 2646W        W 6390   3.791   0.432   2.517
 2647W        W 6391   5.229   5.049  11.867
 2648W        W 6392   3.716   6.708   9.692
 2649W        W 6393   9.796   6.634   9.524
 2650W        W 6394   0.020   3.388   0.804
 2651W        W 6395   9.470   9.840  10.743
 2652W        W 6396   2.237  10.410  10.294
 2653W        W 6397   0.203   3.345  11.016
 2654W        W 6398   6.088   1.104   2.745
 2655W        W 6399   2.801   6.051   1.433
 2656W        W 6400   5.661   0.057   0.878
 2657W        W 6401   8.915   4.730   2.915
 2658W        W 6402   8.503   4.156   2.827
 2659W        W 6403   3.645   7.107  10.034
 2660W        W 6404   5.247   6.491   9.851
 2661W        W 6405   6.162   7.727   0.074
 2662W        W 6406   7.545   3.932   2.545
 2663W        W 6407   6.086   1.476   0.526
 2664W        W 6408   4.606   8.379   2.160
 2665W        W 6409   7.057   4.828   2.033
 2666W        W 6410   7.998   7.605   3.635
 2667W        W 6411   8.505   3.390   0.515
 2668W        W 6412   5.561   6.472  10.482
 2669W        W 6413   6.380   8.183   8.658
 2670W        W 6414   9.285   4.281   1.866
 2671W        W 6415   4.474   3.235   1.411
 2672W        W 6416   4.219   8.054  10.786
 2673W        W 6417   9.455   6.748   3.056
 2674W        W 6418   1.470   1.944   0.741
 2675W        W 6419   9.727   9.060   1.824
 2676W        W 6420   6.857   8.220   8.380
 2677W        W 6421  10.304   2.753  11.444
 2678W        W 6422   1.835   0.379   0.499
 2679W        W 6423   8.869   5.496   1.913
 2680W        W 6424   0.267   1.305  11.773
 2681W        W 6425   1.638   4.112   2.650
 2682W        W 6426   8.494   4.582   1.638
 2683W        W 6427   6.671   4.454  10.557
 2684W        W 6428   6.679   3.141  11.539
 2685W        W 6429   7.674   0.492   1.214
 2686W        W 6430   9.885   9.111  10.425
 2687W        W 6431  10.349   2.587  10.972
 2688W        W 6432   4.487   5.597   0.383
 2689W        W 6433   1.420   6.027   1.656
 2690W        W 6434   2.217   1.306   0.690
 2691W        W 6435   3.736   1.880   9.542
 2692W        W 6436   9.659   1.795   2.900
 2693W        W 6437   8.397   5.699  11.570
 2694W        W 6438   9.827   1.704   8.826
 2695W        W 6439   0.324   5.080   8.792
 2696W        W 6440   0.302   4.914  10.580
 2697W        W 6441   5.900   7.573   3.874
 2698W        W 6442   8.498   7.576   1.358
 2699W        W 6443   9.226   8.094   9.723
 2700W        W 6444   1.074   7.677   2.621
 2701W        W 6445   4.214   8.912   1.701
 2702W        W 6446   8.809   0.549   1.944
 2703W        W 6447   0.825   9.483   9.984
 2704W        W 6448   4.996   3.995   3.236
 2705W        W 6449   7.449   5.538  11.486
 2706W        W 6450   1.163   4.321  10.357
 2707W        W 6451   2.320   2.702  11.948
 2708W        W 6452   4.525   6.556   0.295
 2709W        W 6453   0.392   9.793   1.274
 2710W        W 6454   2.238   7.237   3.234
 2711W        W 6455   9.746   6.467  11.721
 2712W        W 6456   7.908   8.469   9.201
 2713W        W 6457   7.513   4.755   2.269
 2714W        W 6458   4.366   4.194   9.920
 2715W        W 6459   5.803   9.299   9.641
 2716W        W 6460   8.620   9.362  11.628
 2717W        W 6461   3.103   1.514   0.351
 2718W        W 6462   9.462   6.221  11.268
 2719W        W 6463   9.198   0.694   9.392
 2720W        W 6464   8.378   3.303  10.259
 2721W        W 6465   1.852   0.669  10.328
 2722W        W 6466   3.505   6.923   0.722
 2723W        W 6467   1.392   5.613  11.982
 2724W        W 6468   8.846   7.146   0.637
 2725W        W 6469   0.376   0.221  10.397
 2726W        W 6470   8.613   4.786  11.857
 2727W        W 6471   2.657   9.805   1.746
 2728W        W 6472   7.843   5.303   8.499
 2729W        W 6473  10.331   5.251  11.610
 2730W        W 6474   7.366   6.947   9.162
 2731W        W 6475   2.073  10.284   2.115
 2732W        W 6476   8.580   7.817  10.143
 2733W        W 6477   1.924   6.201   1.594
 2734W        W 6478   6.375   0.682   2.722
 2735W        W 6479   3.187   9.502   2.660
 2736W        W 6480   5.831   4.535   0.863
 2737W        W 6481   0.534  10.475   0.266
 2738W        W 6482   6.157   1.671   1.906
 2739W        W 6483   1.831   8.597   9.134
 2740W        W 6484   6.578  10.309  11.112
 2741W        W 6485   9.261   2.365   0.884
 2742W        W 6486   3.215   0.970  10.470
 2743W        W 6487   1.513   0.982   2.081
 2744W        W 6488   8.710   8.186   9.812
 2745W        W 6489   6.117   4.283  10.997
 2746W        W 6490   3.797   7.672  11.444
 2747W        W 6491   0.483   1.852   0.043
 2748W        W 6492   8.006   3.149   8.894
 2749W        W 6493   7.019   9.175   1.022
 2750W        W 6494   7.499   0.531   2.973
 2751W        W 6495  10.473   4.665  10.000
 2752W        W 6496   9.402   9.382   9.961
 2753W        W 6497   7.478   0.151  11.339
 2754W        W 6498   7.840   6.976   1.399
 2755W        W 6499  10.326   1.232  10.954
 2756W        W 6500   5.198   1.302  10.532
 2757W        W 6501   3.059  10.244   9.162
 2758W        W 6502   0.947   7.054   8.578
 2759W        W 6503   7.087   8.842   0.635
 2760W        W 6504   2.282   8.844   1.538
 2761W        W 6505  10.336   6.017   3.480
 2762W        W 6506   0.366   0.906   0.088
 2763W        W 6507  10.355   4.129  10.577
 2764W        W 6508   8.571   2.600   1.188
 2765W        W 6509   8.404   0.225   9.704
 2766W        W 6510   0.644   7.345   9.355
 2767W        W 6511   8.369   5.542   1.745
 2768W        W 6512   8.699   4.192   9.101
 2769W        W 6513   0.832   3.682   9.338
 2770W        W 6514   6.173   4.431   2.130
 2771W        W 6515   8.386   6.534  11.476
 2772W        W 6516   2.576   4.758  11.281
 2773W        W 6517   9.934   6.940   1.885
 2774W        W 6518   8.289   9.641   0.395
 2775W        W 6519   3.421   3.226  10.105
 2776W        W 6520   0.070   6.001   1.300
 2777W        W 6521   2.003   8.257   0.373
 2778W        W 6522  10.419   6.445   1.535
 2779W        W 6523   6.829   5.306  10.144
 2780W        W 6524   2.654   5.981   0.951
 2781W        W 6525   7.489   5.897  10.807
 2782W        W 6526   6.143  10.001   1.550
 2783W        W 6527   9.143   1.765   2.812
 2784W        W 6528   8.601   5.078   1.730
 2785W        W 6529   0.188   8.605   2.838
 2786W        W 6530   8.344   9.735  11.287
 2787W        W 6531   5.714   7.092   9.162
 2788W        W 6532   7.242   1.851  10.007
 2789W        W 6533   6.160   8.657  10.528
 2790W        W 6534   1.800   5.998   3.505
 2791W        W 6535   5.949   4.117   3.084
 2792W        W 6536   7.016   0.701   0.721
 2793W        W 6537   2.496   8.273   0.540
 2794W        W 6538   9.769   5.926   1.829
 2795W        W 6539   8.371   9.092   3.442
 2796W        W 6540   8.529   2.851  10.501
 2797W        W 6541   3.321   3.288   8.581
 2798W        W 6542   3.113   2.248  11.120
 2799W        W 6543   9.064   1.250   8.744
 2800W        W 6544   8.897   7.018   1.892
 2801W        W 6545   0.212   3.084  10.402
 2802W        W 6546  10.415   8.224   2.148
 2803W        W 6547   2.201   6.405  11.597
 2804W        W 6548  10.458   6.043   9.445
 2805W        W 6549   3.095   2.373   0.126
 2806W        W 6550   3.876   3.349   0.531
 2807W        W 6551   5.574   3.323  11.621
 2808W        W 6552   8.562   8.585   2.832
 2809W        W 6553   8.809  10.320   8.914
 2810W        W 6554   1.942   8.041   1.787
 2811W        W 6555   5.294   9.576   3.406
 2812W        W 6556   3.872   2.334   9.794
 2813W        W 6557   4.539   7.939   0.575
 2814W        W 6558   8.158   1.711  10.324
 2815W        W 6559   9.864   0.520  10.340
 2816W        W 6560   9.866   0.958  10.068
 2817W        W 6561   5.932   2.717   8.359
 2818W        W 6562   7.957   8.883   1.213
 2819W        W 6563   1.294   4.244   3.464
 2820W        W 6564   6.044   0.017   0.221
 2821W        W 6565   9.941   7.443  10.082
 2822W        W 6566   1.126   9.002   0.976
 2823W        W 6567   8.347   0.015   0.841
 2824W        W 6568   3.141   5.234   1.468
 2825W        W 6569   1.895   3.723   1.811
 2826W        W 6570   8.457   6.080   1.693
 2827W        W 6571   0.045   0.173   0.265
 2828W        W 6572   0.123   1.163   8.486
 2829W        W 6573   7.624   1.077  10.342
 2830W        W 6574   7.822   6.196   1.012
 2831W        W 6575   4.079   9.016   1.220
 2832W        W 6576  10.099   2.643   0.853
 2833W        W 6577   9.486   8.921   0.490
 2834W        W 6578   1.046   5.219   9.435
 2835W        W 6579   5.958   8.819   9.845
 2836W        W 6580   9.399   2.331   0.394
 2837W        W 6581   7.983   6.171   8.759
 2838W        W 6582   7.196   5.491  10.657
 2839W        W 6583   8.364   5.435   3.558
 2840W        W 6584   0.324   9.965  11.921
 2841W        W 6585   9.339   5.344   9.690
 2842W        W 6586   3.267   1.282   9.085
 2843W        W 6587   1.022   4.801   1.975
 2844W        W 6588   8.568   6.177   3.167
 2845W        W 6589   9.436   6.309   9.378
 2846W        W 6590   6.958  10.444   0.302
 2847W        W 6591   0.017   0.735   2.297
 2848W        W 6592   6.696   7.828  11.926
 2849W        W 6593   5.294   1.416  11.523
 2850W        W 6594   6.219   8.916   2.969
 2851W        W 6595   1.384   0.962  10.028
 2852W        W 6596   7.925   2.150   2.328
 2853W        W 6597   1.016   5.859   0.306
 2854W        W 6598   8.661   0.033   0.450
 2855W        W 6599   4.643   8.931   9.619
 2856W        W 6600   5.552   3.225   0.168
 2857W        W 6601   1.851   6.755  11.218
 2858W        W 6602   4.149   6.378   0.601
 2859W        W 6603   3.454  10.048  11.998
 2860W        W 6604   2.596   4.102  10.411
 2861W        W 6605   5.273   8.657   3.782
 2862W        W 6606   0.484   8.927   2.076
 2863W        W 6607   1.320   2.031  11.855
 2864W        W 6608   0.393   7.215   2.867
 2865W        W 6609   3.204   1.845   9.866
 2866W        W 6610   7.249   0.380  10.009
 2867W        W 6611   4.739   3.123  10.258
 2868W        W 6612   4.549   9.432   9.584
 2869W        W 6613   8.455   4.374   3.554
 2870W        W 6614   8.581   3.857   0.053
 2871W        W 6615   9.365   1.776   3.319
 2872W        W 6616   3.054   2.665   1.084
 2873W        W 6617   1.278  10.396   9.287
 2874W        W 6618   6.640   5.664   0.925
 2875W        W 6619   4.427   5.832  11.404
 2876W        W 6620   7.954   8.145  10.830
 2877W        W 6621   1.405   4.748  11.844
 2878W        W 6622   1.837   9.924   1.123
 2879W        W 6623   3.013   9.164  11.864
 2880W        W 6624   8.802   9.514   0.281
 2881W        W 6625   4.171   7.417  10.127
 2882W        W 6626   8.508   1.312  10.444
 2883W        W 6627   3.025   0.058   2.100
 2884W        W 6628   0.426   7.117   1.938
 2885W        W 6629   9.235   9.301   1.969
 2886W        W 6630   7.434   0.108   1.461
 2887W        W 6631   1.129   8.286   1.918
 2888W        W 6632   5.061   8.723   9.308
 2889W        W 6633   4.590   9.099  11.983
 2890W        W 6634   1.497   9.317   1.159
 2891W        W 6635   2.796   9.479   9.236
 2892W        W 6636   5.950   7.988   8.884
 2893W        W 6637   7.858   9.760  10.431
 2894W        W 6638   6.194   4.229   0.705
 2895W        W 6639   3.334   0.466  10.487
 2896W        W 6640   8.277   2.340   1.986
 2897W        W 6641   4.617   2.653   1.896
 2898W        W 6642  10.161   5.219   0.508
 2899W        W 6643   6.757   1.671  10.561
 2900W        W 6644   2.115   2.163   1.430
 2901W        W 6645   8.354   6.940  11.805
 2902W        W 6646   6.923   6.586  10.308
 2903W        W 6647   8.061   5.217  10.948
 2904W        W 6648   8.777   5.720   1.478
 2905W        W 6649   4.037   4.661  11.645
 2906W        W 6650   6.011   5.303   9.624
 2907W        W 6651   9.866   4.186  11.401
 2908W        W 6652   4.306   3.085   9.981
 2909W        W 6653   1.597   4.568  11.141
 2910W        W 6654   2.427   4.330   3.332
 2911W        W 6655   7.143   6.944  11.225
 2912W        W 6656   5.643   4.199   2.660
 2913W        W 6657   2.826   9.322   0.881
 2914W        W 6658   3.034   4.730   1.162
 2915W        W 6659  10.321   3.463   1.284
 2916W        W 6660   4.889   8.656   2.532
 2917W        W 6661   5.199   0.494   0.272
 2918W        W 6662   8.178   3.751   7.991
 2919W        W 6663   7.880   6.890   3.521
 2920W        W 6664   2.726   9.450   9.741
 2921W        W 6665  10.186   5.959  10.770
 2922W        W 6666   9.815   5.562   2.642
 2923W        W 6667   5.114   7.545   9.551
 2924W        W 6668   3.573   4.010   9.391
 2925W        W 6669   1.109   0.111  11.721
 2926W        W 6670   1.629  10.235   0.363
 2927W        W 6671  10.449   7.402  10.073
 2928W        W 6672   7.668   6.519   9.037
 2929W        W 6673   8.316   5.809   1.275
 2930W        W 6674   4.593   6.282  11.863
 2931W        W 6675   3.398   4.544  11.087
 2932W        W 6676   9.999   1.366   9.186
 2933W        W 6677   0.181   5.249  10.222
 2934W        W 6678   0.980   1.637  10.694
 2935W        W 6679   1.691   7.419   1.984
 2936W        W 6680   0.223   0.399  10.862
 2937W        W 6681   7.019   4.864   0.706
 2938W        W 6682   6.831   8.870   1.882
 2939W        W 6683   4.551   8.545   9.291
 2940W        W 6684   7.521   4.763   1.390
 2941W        W 6685   4.188   8.298   0.492
 2942W        W 6686   5.128   3.217  11.873
 2943W        W 6687   4.686   5.966   1.733
 2944W        W 6688   8.627   8.104   9.293
 2945W        W 6689   0.186   4.457  10.412
 2946W        W 6690   6.379   2.043  10.523
 2947W        W 6691   0.235   7.987   0.744
 2948W        W 6692   9.818   0.361  11.302
 2949W        W 6693   8.483   7.458  10.517
 2950W        W 6694   1.188   5.197  11.757
 2951W        W 6695   6.552   3.753   2.344
 2952W        W 6696   5.183   7.410   2.627
 2953W        W 6697   3.862   1.271  11.957
 2954W        W 6698   2.524   6.663   0.398
 2955W        W 6699   5.538   8.077   2.223
 2956W        W 6700   5.093   8.365   0.024
 2957W        W 6701   0.400   1.242   3.117
 2958W        W 6702   6.232   2.112  10.035
 2959W        W 6703   8.108   5.513   2.225
 2960W        W 6704   4.263   4.816   0.362
 2961W        W 6705   1.303   2.812   1.947
 2962W        W 6706   0.232   4.274   3.333
 2963W        W 6707   5.275   3.509  11.214
 2964W        W 6708   1.984   8.253  10.641
 2965W        W 6709   5.738   2.097  10.280
 2966W        W 6710   9.040   1.220   9.275
 2967W        W 6711   9.269   7.885  10.650
 2968W        W 6712   7.782   6.020   3.626
 2969W        W 6713   4.219   2.090  10.226
 2970W        W 6714   0.600   8.515   1.299
 2971W        W 6715   8.547   5.096   0.778
 2972W        W 6716   9.048   1.958   8.237
 2973W        W 6717   4.072   3.232  10.788
 2974W        W 6718   4.172   6.103  10.153
 2975W        W 6719   2.242   7.921   8.798
 2976W        W 6720   0.453   4.666   3.622
 2977W        W 6721   1.688   9.442   2.458
 2978W        W 6722   3.734   1.414   9.854
 2979W        W 6723   9.759   8.476   3.338
 2980W        W 6724   0.934   3.199   9.479
 2981W        W 6725   7.036   4.064   1.321
 2982W        W 6726   0.728   2.774   9.203
 2983W        W 6727   5.145   4.059   2.755
 2984W        W 6728   3.002   6.899   0.663
 2985W        W 6729   4.017   6.867   0.739
 2986W        W 6730   9.070   4.614   9.319
 2987W        W 6731   3.785   5.747   9.467
 2988W        W 6732   5.513   4.317   8.699
 2989W        W 6733   7.862   2.620   3.245
 2990W        W 6734   1.709   1.668  10.547
 2991W        W 6735   3.683   7.147  11.458
 2992W        W 6736   8.681   2.324   3.447
 2993W        W 6737   6.986   0.472  11.378
 2994W        W 6738   2.379   8.440  10.378
 2995W        W 6739   1.653   3.556   0.304
 2996W        W 6740   3.150   6.469   8.950
 2997W        W 6741  10.359   4.198  11.229
 2998W        W 6742   5.145   2.322   3.691
 2999W        W 6743   4.269   3.364   3.209
 3000W        W 6744   3.605   5.911  11.827
 3001W        W 6745   9.483   4.105   0.830
 3002W        W 6746   6.202   5.723   0.544
 3003W        W 6747   0.943   3.309  11.806
 3004W        W 6748   2.710   4.949   1.498
 3005W        W 6749   0.915   7.116  11.109
 3006W        W 6750   3.257   5.925  10.122
 3007W        W 6751   8.520   1.829   1.923
 3008W        W 6752   6.615   9.815   1.497
 3009W        W 6753   7.075  10.402   9.900
 3010W        W 6754   5.009   9.359  11.728
 3011W        W 6755   4.246   7.049   1.970
 3012W        W 6756   7.828   9.632   0.824
 3013W        W 6757   7.069   8.582   8.670
 3014W        W 6758  10.041   5.716   0.403
 3015W        W 6759  10.069   3.491   8.437
 3016W        W 6760   1.112   3.255   3.141
 3017W        W 6761   4.248   6.165   1.477
 3018W        W 6762   4.726   7.487   0.467
 3019W        W 6763   0.999   5.578   9.076
 3020W        W 6764   5.698   0.412  10.976
 3021W        W 6765   5.523   0.998  11.800
 3022W        W 6766   8.025   8.902   8.942
 3023W        W 6767   6.025  10.295   8.925
 3024W        W 6768   1.443   0.224   0.198
 3025W        W 6769   9.762   1.371   1.276
 3026W        W 6770   8.564   5.247   2.293
 3027W        W 6771   2.717   6.052   3.429
 3028W        W 6772   4.653   3.129   9.243
 3029W        W 6773   9.910   5.244   1.266
 3030W        W 6774   5.192   0.284   0.752
 3031W        W 6775   2.835   1.800   9.030
 3032W        W 6776   5.196   5.563  10.973
 3033W        W 6777   2.629   3.081   2.624
 3034W        W 6778   9.677   2.195   3.253
 3035W        W 6779   8.961   6.457   9.251
 3036W        W 6780   0.926   9.512   0.321
 3037W        W 6781   6.471   9.968   0.110
 3038W        W 6782   4.512   4.487  11.684
 3039W        W 6783   1.775   5.895   1.217
 3040W        W 6784   5.987   8.870   9.339
 3041W        W 6785   7.565   9.613   9.528
 3042W        W 6786   3.735   6.995   1.184
 3043W        W 6787   7.025   4.045   0.799
 3044W        W 6788   8.016   5.028   2.085
 3045W        W 6789   8.463   0.291  10.465
 3046W        W 6790   6.541   4.043  10.841
 3047W        W 6791   4.591   0.839   8.567
 3048W        W 6792   8.937   1.787  11.659
 3049W        W 6793  10.190   7.471   3.097
 3050W        W 6794   3.214   4.953   3.165
 3051W        W 6795   5.953   3.625   3.233
 3052W        W 6796   1.498   7.581  10.824
 3053W        W 6797   0.436   2.245  11.703
 3054W        W 6798   4.702   9.592   1.349
 3055W        W 6799   8.028   3.412  11.361
 3056W        W 6800   5.162   7.466   9.002
 3057W        W 6801   2.187  10.320   1.191
 3058W        W 6802   1.937   5.150   1.742
 3059W        W 6803   9.076   5.021  10.947
 3060W        W 6804   4.634   2.526   1.031
 3061W        W 6805   1.912   3.176  11.518
 3062W        W 6806   3.791   6.250  11.480
 3063W        W 6807  10.343   1.777   9.621
 3064W        W 6808   1.278   3.890  10.609
 3065W        W 6809   9.454   5.523  10.153
 3066W        W 6810  10.032   5.672   3.165
 3067W        W 6811   6.612   6.158   2.293
 3068W        W 6812   3.820   7.104   8.844
 3069W        W 6813   3.115   6.377  11.317
 3070W        W 6814   1.841   5.032   8.870
 3071W        W 6815   2.596   3.713  10.089
 3072W        W 6816   7.975   9.799   8.796
 3073W        W 6817   4.283   8.420  10.425
 3074W        W 6818   0.705   7.869  10.972
 3075W        W 6819  10.473   6.963   9.815
 3076W        W 6820   4.205   9.411   1.565
 3077W        W 6821   2.044   0.282  11.394
 3078W        W 6822   8.151   2.893   1.188
 3079W        W 6823   2.036   8.524   1.837
 3080W        W 6824   1.172   1.323  10.321
 3081W        W 6825   7.463   6.619   2.460
 3082W        W 6826   7.467   0.846   8.701
 3083W        W 6827   6.734   1.797   1.279
 3084W        W 6828   0.206   7.004   9.356
 3085W        W 6829   2.799   1.272   9.333
 3086W        W 6830   7.495   4.084   0.252
 3087W        W 6831   2.590   2.797   8.979
 3088W        W 6832   4.390   0.729   3.220
 3089W        W 6833   7.481   5.530   0.370
 3090W        W 6834   3.320   7.510   9.851
 3091W        W 6835   4.803   0.353   8.669
 3092W        W 6836   0.469   9.498   9.153
 3093W        W 6837   3.537   8.657  11.301
 3094W        W 6838   6.500   0.022   0.968
 3095W        W 6839  10.238   5.162   9.264
 3096W        W 6840   2.569   1.436   0.350
 3097W        W 6841   7.221   7.479   9.926
 3098W        W 6842   3.832   6.588   2.695
 3099W        W 6843   3.335   1.776   1.259
 3100W        W 6844   7.488   0.153   0.315
 3101W        W 6845   6.455   5.520   9.467
 3102W        W 6846   9.148   5.860   2.237
 3103W        W 6847   4.525   9.892   3.217
 3104W        W 6848   5.923   7.584  11.305
 3105W        W 6849   6.700   3.426  10.274
 3106W        W 6850   9.699   1.382   3.302
 3107W        W 6851   6.744   2.773  11.944
 3108W        W 6852   3.140   6.098  10.892
 3109W        W 6853   7.412   0.073   9.382
 3110W        W 6854   1.911   4.465   2.413
 3111W        W 6855   5.720   5.607   9.960
 3112W        W 6856   6.482   6.362   2.737
 3113W        W 6857   3.442   0.088   9.228
 3114W        W 6858   8.548   9.071   2.988
 3115W        W 6859   0.771   0.619   3.673
 3116W        W 6860   9.467   4.618   9.030
 3117W        W 6861   3.965   2.978   3.127
 3118W        W 6862   2.219   9.068   0.764
 3119W        W 6863   2.219   1.956   9.118
 3120W        W 6864   2.890   9.516  10.629
 3121W        W 6865   1.418   9.959   9.064
 3122W        W 6866   9.047   7.501   2.087
 3123W        W 6867   7.453   1.478   3.184
 3124W        W 6868   9.075   2.242   9.167
 3125W        W 6869   0.762   6.351   9.395
 3126W        W 6870   0.054  10.451  10.709
 3127W        W 6871   9.735   7.243   2.235
 3128W        W 6872   2.571   7.654   1.969
 3129W        W 6873   5.914   2.569   8.855
 3130W        W 6874   2.733   9.517   0.164
 3131W        W 6875   4.189   8.160   2.372
 3132W        W 6876   9.867   3.312   2.960
 3133W        W 6877   3.792   9.458  10.791
 3134W        W 6878   0.248   4.447  11.496
 3135W        W 6879   6.572   4.648   9.709
 3136W        W 6880   7.473  10.447   1.923
 3137W        W 6881   0.130   0.441  11.831
 3138W        W 6882   6.473   3.104  11.056
 3139W        W 6883   0.081   9.473   0.887
 3140W        W 6884   8.293   8.402   9.548
 3141W        W 6885   3.771   6.484  10.156
 3142W        W 6886   7.332   5.611   1.691
 3143W        W 6887   1.441   8.883   8.519
 3144W        W 6888   8.441   1.655  11.398
 3145W        W 6889   1.752   3.660  11.435
 3146W        W 6890   6.248   1.506   0.024
 3147W        W 6891   2.741   6.994   2.461
 3148W        W 6892   0.025   1.838  10.623
 3149W        W 6893   7.179   6.184   8.537
 3150W        W 6894   8.852   7.029  10.256
 3151W        W 6895   0.785   6.823   1.659
 3152W        W 6896   7.588  10.238   0.610
 3153W        W 6897   5.369   3.831   8.625
 3154W        W 6898   9.488   0.056  10.437
 3155W        W 6899   2.306   8.152   2.598
 3156W        W 6900   1.616   8.593   2.129
 3157W        W 6901   8.203   2.591  11.967
 3158W        W 6902   4.683   5.218  10.327
 3159W        W 6903   0.045   0.852  10.688
 3160W        W 6904   9.901   4.479   0.789
 3161W        W 6905   0.947   6.614   0.711
 3162W        W 6906   7.398   9.485  10.583
 3163W        W 6907   5.170  10.282   2.059
 3164W        W 6908  10.429   6.408   2.051
 3165W        W 6909   3.028   1.879  11.956
 3166W        W 6910   4.811   3.342   8.823
 3167W        W 6911   7.672   0.921   1.508
 3168W        W 6912   5.745   2.687  10.907
 3169W        W 6913   3.134   6.273   2.838
 3170W        W 6914   6.329   9.071   0.342
 3171W        W 6915   6.172   4.299  10.504
 3172W        W 6916   2.360   8.116   2.087
 3173W        W 6917   7.629   9.923  11.845
 3174W        W 6918   5.162   5.621   1.159
 3175W        W 6919   4.132   1.579  10.170
 3176W        W 6920   3.620   5.191   2.765
 3177W        W 6921   6.126   0.139   9.408
 3178W        W 6922   4.098   1.347   9.047
 3179W        W 6923   4.989   2.753   0.691
 3180W        W 6924   0.985   8.437   9.945
 3181W        W 6925  10.369   8.224   9.026
 3182W        W 6926   2.283   5.642   9.506
 3183W        W 6927   0.909   1.002   9.244
 3184W        W 6928   2.507   4.245   0.468
 3185W        W 6929   5.577   8.052  10.389
 3186W        W 6930   6.902   3.022   2.708
 3187W        W 6931   3.310   4.529  10.594
 3188W        W 6932   6.924   5.390  11.491
 3189W        W 6933   0.479   3.773  11.002
 3190W        W 6934   9.870   1.392   9.688
 3191W        W 6935   6.271   5.628   9.981
 3192W        W 6936   5.974   5.071   1.704
 3193W        W 6937   8.915   8.075  11.678
 3194W        W 6938   8.533   8.552   1.766
 3195W        W 6939   6.577   1.305   8.942
 3196W        W 6940   2.147   9.668   0.231
 3197W        W 6941   5.201   7.568   0.993
 3198W        W 6942   4.127   6.162   8.808
 3199W        W 6943   8.087   0.472   9.075
 3200W        W 6944   2.768   4.443   1.481
 3201W        W 6945   2.632   4.548   8.236
 3202W        W 6946   2.232   1.483  11.716
 3203W        W 6947   6.012   6.126  10.529
 3204W        W 6948   3.141   4.130  10.312
 3205W        W 6949   3.193   0.387   0.244
 3206W        W 6950   9.883  10.259   0.506
 3207W        W 6951   8.867   8.835   1.272
 3208W        W 6952   7.160   3.543   3.708
 3209W        W 6953   9.317   6.876  10.408
 3210W        W 6954   0.631   8.427  11.646
 3211W        W 6955   4.584   7.147   9.987
 3212W        W 6956   8.132   9.527  10.853
 3213W        W 6957   9.424   7.579   0.372
 3214W        W 6958   3.171   8.337   9.052
 3215W        W 6959   1.895   8.508  11.936
 3216W        W 6960   6.062   9.516   0.339
 3217W        W 6961   4.040   4.895  10.462
 3218W        W 6962   4.680   9.105   1.838
 3219W        W 6963   8.432   5.081   2.966
 3220W        W 6964   0.232   5.524   1.433
 3221W        W 6965   4.054   9.717  11.441
 3222W        W 6966   1.560   3.511   3.642
 3223W        W 6967   0.695   7.478   8.710
 3224W        W 6968   1.358   5.614  10.979
 3225W        W 6969   9.451   6.173   1.452
 3226W        W 6970   4.750  10.379  11.854
 3227W        W 6971   0.934   6.118   1.875
 3228W        W 6972   0.455   9.988  10.869
 3229W        W 6973   7.845   0.129   0.854
 3230W        W 6974   5.645   7.991   9.577
 3231W        W 6975   6.314   5.439   1.841
 3232W        W 6976   9.918   3.735   2.667
 3233W        W 6977   2.841   5.166  11.488
 3234W        W 6978   8.442   9.721   9.688
 3235W        W 6979   9.974   0.380   1.400
 3236W        W 6980   6.362   9.477  10.831
 3237W        W 6981   9.297   4.941   0.263
 3238W        W 6982   0.785   3.630   0.273
 3239W        W 6983   4.999   4.828  10.283
 3240W        W 6984  10.401   8.005  11.329
 3241W        W 6985   6.776   1.213   9.979
 3242W        W 6986   0.626   1.642   0.489
 3243W        W 6987   1.979   6.344   9.601
 3244W        W 6988   6.049   9.362  11.436
 3245W        W 6989  10.144   7.327   9.624
 3246W        W 6990   6.121   3.538   8.910
 3247W        W 6991   3.761   6.298   8.424
 3248W        W 6992   2.856   6.098   1.941
 3249W        W 6993   5.221   6.983   2.344
 3250W        W 6994   7.793   4.383   0.737
 3251W        W 6995   8.102   9.775   2.877
 3252W        W 6996   6.759   6.502   8.605
 3253W        W 6997  10.220   9.082   0.904
 3254W        W 6998   9.066   8.028  10.202
 3255W        W 6999   5.222   0.382   8.987
 3256W        W 7000   0.423   1.956   2.667
 3257W        W 7001   5.987   5.123   2.806
 3258W        W 7002   3.624   7.909   3.057
 3259W        W 7003   2.762   0.272   3.108
 3260W        W 7004   9.351   1.212   1.582
 3261W        W 7005   7.953   3.287   9.972
 3262W        W 7006   8.129   0.917   1.285
 3263W        W 7007   3.166   5.036   2.366
 3264W        W 7008   6.629   1.005   3.023
 3265W        W 7009   6.098   8.116  10.531
 3266W        W 7010   1.929   5.586   3.203
 3267W        W 7011   7.231   5.438   9.774
 3268W        W 7012  10.492   5.294   1.031
 3269W        W 7013   0.701   5.281  11.667
 3270W        W 7014   9.097  10.320   0.399
 3271W        W 7015   8.665   4.642  10.307
 3272W        W 7016  10.183   0.356   3.601
 3273W        W 7017   5.328   8.382   9.581
 3274W        W 7018   9.609   6.708  11.299
 3275W        W 7019   7.857   4.233  10.457
 3276W        W 7020   8.405   6.960   9.557
 3277W        W 7021   7.366   6.257   3.835
 3278W        W 7022   5.536   3.779   2.959
 3279W        W 7023   5.790   5.795   0.258
 3280W        W 7024   3.095   2.719   1.585
 3281W        W 7025   5.105   6.763   8.945
 3282W        W 7026   7.880   4.215   9.573
 3283W        W 7027   2.684   6.678   9.003
 3284W        W 7028   3.608   9.487  11.289
 3285W        W 7029   7.927   0.398  11.492
 3286W        W 7030   7.655   5.570   8.101
 3287W        W 7031   8.610   5.392   9.272
 3288W        W 7032   8.284   0.573   3.623
 3289W        W 7033   2.741   6.512   2.633
 3290W        W 7034   5.321   5.580   3.152
 3291W        W 7035   7.348   0.575   3.498
 3292W        W 7036   3.778   9.169   1.846
 3293W        W 7037   6.568   6.008   9.272
 3294W        W 7038   6.455   8.638   2.215
 3295W        W 7039   0.118   8.434  11.560
 3296W        W 7040   5.932   7.123   8.172
 3297W        W 7041   1.422   2.409  10.472
 3298W        W 7042   7.441   3.419   0.817
 3299W        W 7043   0.990   1.811   2.092
 3300W        W 7044   7.347  10.333  11.707
 3301W        W 7045   6.159   3.251   1.962
 3302W        W 7046   7.848   4.657   9.041
 3303W        W 7047   4.226   9.621   0.319
 3304W        W 7048  10.045   5.474  10.833
 3305W        W 7049   6.441   8.085   2.223
 3306W        W 7050   0.006   7.458  10.973
 3307W        W 7051   1.168   0.428   9.972
 3308W        W 7052   1.702   1.821   9.228
 3309W        W 7053   5.745   1.941   2.018
 3310W        W 7054   3.009   2.802  10.800
 3311W        W 7055   9.913   5.221   2.276
 3312W        W 7056   8.546   9.783   2.058
 3313W        W 7057  10.390   9.865   1.181
 3314W        W 7058   4.327   7.128   2.982
 3315W        W 7059   4.031   6.318   3.381
 3316W        W 7060   4.310   1.403   2.312
 3317W        W 7061   9.951   9.803   0.252
 3318W        W 7062   5.249   4.752   9.272
 3319W        W 7063   2.169  10.463   8.762
 3320W        W 7064   4.745   7.507   8.606
 3321W        W 7065   3.688   7.853   0.735
 3322W        W 7066   7.404   7.654   1.296
 3323W        W 7067   8.464   9.812   3.558
 3324W        W 7068   2.704   4.984   9.029
 3325W        W 7069   6.479   9.257  11.701
 3326W        W 7070   1.901   2.623  10.426
 3327W        W 7071   8.546   1.009   3.497
 3328W        W 7072   8.200   1.247   0.064
 3329W        W 7073   5.564   3.628   0.471
 3330W        W 7074   7.015   4.498   1.054
 3331W        W 7075   2.349   0.416  10.478
 3332W        W 7076   2.799   9.519   3.411
 3333W        W 7077   0.657   0.419  10.020
 3334W        W 7078   9.340   7.467   1.256
 3335W        W 7079  10.270   7.044   0.687
 3336W        W 7080   4.732   7.684   9.194
 3337W        W 7081   0.137   8.068   9.945
 3338W        W 7082   8.129   7.560  10.150
 3339W        W 7083   9.100   0.334   0.453
 3340W        W 7084   8.972   9.440   8.752
 3341W        W 7085   1.771   1.228   0.898
 3342W        W 7086   5.685   3.630   0.966
 3343W        W 7087   7.317   1.761   9.404
 3344W        W 7088   4.080  10.196   3.311
 3345W        W 7089   1.834   2.298   9.013
 3346W        W 7090   3.644   0.496  10.923
 3347W        W 7091   3.390   4.516   0.017
 3348W        W 7092   2.412   1.926  10.359
 3349W        W 7093   1.260   5.072   2.429
 3350W        W 7094   1.057   5.221   8.585
 3351W        W 7095   4.343   3.669  10.826
 3352W        W 7096   0.284   3.374   2.421
 3353W        W 7097   8.954   7.961   2.318
 3354W        W 7098   4.590   8.333   0.913
 3355W        W 7099   3.927   4.605   8.651
 3356W        W 7100   2.979  10.312   0.853
 3357W        W 7101   8.297   4.950   9.127
 3358W        W 7102   2.441   8.630   3.309
 3359W        W 7103   5.344   0.750   1.675
 3360W        W 7104   8.430   6.079   0.361
 3361W        W 7105   5.140   3.321   0.865
 3362W        W 7106   6.987  10.017   2.152
 3363W        W 7107   2.144   8.965  10.006
 3364W        W 7108   0.790   5.186   2.273
 3365W        W 7109   5.683   9.912  11.946
 3366W        W 7110   8.125   3.636   1.346
 3367W        W 7111   5.700   7.580   3.372
 3368W        W 7112   6.773   2.840   9.952
 3369W        W 7113   5.819   4.462   0.288
 3370W        W 7114   0.011   9.428   8.551
 3371W        W 7115   5.440   2.145   9.818
 3372W        W 7116   8.968   2.748   3.330
 3373W        W 7117   4.208   8.430   1.818
 3374W        W 7118  10.012   0.064   3.201
 3375W        W 7119   4.955   7.691   1.432
 3376W        W 7120   1.823   2.819   0.732
 3377W        W 7121   5.727   7.835  10.838
 3378W        W 7122   3.817   0.535  11.506
 3379W        W 7123   6.617   8.550   8.931
 3380W        W 7124   9.612   2.794   0.924
 3381W        W 7125   9.454   8.918  10.179
 3382W        W 7126   6.216   2.643   3.707
 3383W        W 7127   3.579   8.915  10.798
 3384W        W 7128   3.133   7.762   0.386
 3385W        W 7129   4.071   4.024   0.964
 3386W        W 7130   1.359   5.505   0.483
 3387W        W 7131   7.731   8.132   2.670
 3388W        W 7132   5.108   9.918   1.358
 3389W        W 7133   3.263   6.938   9.068
 3390W        W 7134   8.104   5.439   3.095
 3391W        W 7135   9.385   0.446   1.055
 3392W        W 7136   8.848   3.254  10.021
 3393W        W 7137   9.024   9.344  11.330
 3394W        W 7138   5.693   2.666   3.819
 3395W        W 7139   1.785   5.524  10.716
 3396W        W 7140   6.930   4.266  11.397
 3397W        W 7141   4.276   3.877   0.167
 3398W        W 7142   2.203   8.099  11.076
 3399W        W 7143   6.220   7.661   8.586
 3400W        W 7144   1.753   1.219   9.765
 3401W        W 7145   5.419   6.492   0.025
 3402W        W 7146   1.312   7.142  10.125
 3403W        W 7147   8.907   3.563  11.787
 3404W        W 7148   6.062   5.199  11.626
 3405W        W 7149   0.513   7.856  10.475
 3406W        W 7150   7.435   6.525  11.373
 3407W        W 7151   8.168   7.860   2.745
 3408W        W 7152   2.541   0.173   1.912
 3409W        W 7153  10.193   0.532  10.940
 3410W        W 7154   6.369  10.479   2.239
 3411W        W 7155   2.756   5.094   4.055
 3412W        W 7156   8.365  10.317  10.319
 3413W        W 7157   9.003   3.519   8.654
 3414W        W 7158   7.175   3.690   0.466
 3415W        W 7159   8.191   7.985   9.852
 3416W        W 7160   0.686   1.197  10.424
 3417W        W 7161   6.740   9.336   9.391
 3418W        W 7162   1.146   0.467   1.874
 3419W        W 7163   4.201   9.354  11.126
 3420W        W 7164   4.971   7.422  10.596
 3421W        W 7165   8.159   6.915   0.284
 3422W        W 7166   4.725   5.452   9.855
 3423W        W 7167   4.018   6.590  11.085
 3424W        W 7168   7.066   8.311   3.464
 3425W        W 7169   3.868   1.946   3.479
 3426W        W 7170   7.391   6.307   0.770
 3427W        W 7171   4.246   3.214   8.925
 3428W        W 7172   0.969   0.400   2.376
 3429W        W 7173   4.290   0.915   0.388
 3430W        W 7174   5.249   1.262   1.002
 3431W        W 7175   7.497   4.760   0.893
 3432W        W 7176   6.944   3.745  10.921
 3433W        W 7177   7.115   1.702   0.952
 3434W        W 7178   5.474   4.893   0.891
 3435W        W 7179   7.128   0.444   8.670
 3436W        W 7180   1.863   6.242   9.063
 3437W        W 7181   6.089   6.803   3.233
 3438W        W 7182   6.496   4.828  10.239
 3439W        W 7183   2.136   9.947   8.867
 3440W        W 7184   3.596   0.839  11.865
 3441W        W 7185   6.543   6.285   3.541
 3442W        W 7186   3.641   9.951  10.547
 3443W        W 7187   7.571   9.066   2.992
 3444W        W 7188   6.452   8.311   9.377
 3445W        W 7189   0.302   1.568   9.381
 3446W        W 7190   9.372   4.832   9.665
 3447W        W 7191   6.098   2.860   0.684
 3448W        W 7192   1.157   4.263   2.470
 3449W        W 7193   8.922   4.878   2.426
 3450W        W 7194   9.513   3.549   1.625
 3451W        W 7195   4.340   2.800   2.320
 3452W        W 7196   0.699   9.219  10.413
 3453W        W 7197   3.855   8.527   1.281
 3454W        W 7198   1.050   2.833   8.797
 3455W        W 7199   4.743   3.038   4.073
 3456W        W 7200   7.050   1.896   0.012
 3457W        W 7201   0.607   6.668   8.503
 3458W        W 7202   1.728   6.085   2.530
 3459W        W 7203   6.963   7.933   3.142
 3460W        W 7204   5.188   8.321   2.850
 3461W        W 7205   5.367   8.836   0.414
 3462W        W 7206   8.889   5.419   8.788
 3463W        W 7207   7.004   9.248  11.822
 3464W        W 7208  10.308  10.223   0.239
 3465W        W 7209   1.477   3.264   0.689
 3466W        W 7210   7.071   6.616   1.012
 3467W        W 7211  10.361   0.655   0.213
 3468W        W 7212   9.948   4.195   9.608
 3469W        W 7213   3.339   5.014  11.325
 3470W        W 7214   7.880   6.905   2.954
 3471W        W 7215   4.711   3.039   1.004
 3472W        W 7216   4.116   4.131  11.733
 3473W        W 7217   9.436   8.333   1.800
 3474W        W 7218   0.880   2.858   0.976
 3475W        W 7219   2.910   5.187   1.925
 3476W        W 7220   0.970   2.317   9.063
 3477W        W 7221   9.897   7.106  11.408
 3478W        W 7222   5.683   7.118  11.345
 3479W        W 7223  10.122   4.563   0.349
 3480W        W 7224   5.590   9.986   3.296
 3481W        W 7225   5.172   1.243   9.531
 3482W        W 7226   1.249   4.203   2.968
 3483W        W 7227   9.715   3.998   9.193
 3484W        W 7228   3.733   8.201  11.376
 3485W        W 7229   0.421   8.646  11.211
 3486W        W 7230  10.227   2.178   0.580
 3487W        W 7231   5.099   0.695  11.783
 3488W        W 7232   7.224   1.889  10.532
 3489W        W 7233   3.838   8.797   9.942
 3490W        W 7234   8.061   3.242   0.224
 3491W        W 7235   1.857   7.880   0.767
 3492W        W 7236   5.528   8.817   1.180
 3493W        W 7237   1.291   8.111  11.440
 3494W        W 7238   9.898   4.705   3.418
 3495W        W 7239   2.674   2.969   1.257
 3496W        W 7240   6.535   8.982   1.130
 3497W        W 7241   1.976   3.502   2.779
 3498W        W 7242   8.684   0.541  10.082
 3499W        W 7243   6.609   6.735   1.390
 3500W        W 7244   5.636   9.961  10.081
 3501W        W 7245   8.790   3.628  10.974
 3502W        W 7246  10.019   0.254   0.299
 3503W        W 7247   9.850   8.327   2.862
 3504W        W 7248   3.175   1.336   1.468
 3505W        W 7249   5.658   6.305   3.716
 3506W        W 7250   4.556   7.668   8.089
 3507W        W 7251   2.764   8.100  10.347
 3508W        W 7252   6.710   5.935  11.272
 3509W        W 7253   2.647  10.377   3.522
 3510W        W 7254   1.378  10.083  11.131
 3511W        W 7255   1.884   6.950   1.987
 3512W        W 7256   3.180   4.756   1.679
 3513W        W 7257   7.128   0.230   3.152
 3514W        W 7258   7.934   0.810  10.697
 3515W        W 7259   2.315   2.886   0.436
 3516W        W 7260   3.056   1.876  10.780
 3517W        W 7261   1.356   3.071   3.541
 3518W        W 7262   7.994   3.553   3.347
 3519W        W 7263  10.230   9.440   2.972
 3520W        W 7264   2.928   1.186  10.829
 3521W        W 7265   0.260   4.292   1.911
 3522W        W 7266   9.673  10.310   9.604
 3523W        W 7267   1.327   1.809  10.234
 3524W        W 7268   7.257   7.895   9.633
 3525W        W 7269   4.497   0.812   2.735
 3526W        W 7270   5.763   8.069   1.615
 3527W        W 7271   1.196   4.296  11.928
 3528W        W 7272   3.132   9.918  10.435
 3529W        W 7273   6.586   0.173   1.834
 3530W        W 7274   5.381   0.491   3.509
 3531W        W 7275   5.085   9.984   2.504
 3532W        W 7276   0.617   0.298  11.897
 3533W        W 7277   6.580   4.494  11.092
 3534W        W 7278   0.726   0.406  11.030
 3535W        W 7279   2.914   1.655  10.290
 3536W        W 7280   3.175   7.861   0.927
 3537W        W 7281   2.641   4.255  11.955
 3538W        W 7282   2.264   1.658  11.239
 3539W        W 7283   4.654   9.617   9.087
 3540W        W 7284   3.719   0.323   0.990
 3541W        W 7285   5.026   6.067   0.871
 3542W        W 7286   3.351   2.690  11.767
 3543W        W 7287   0.437   4.010   1.528
 3544W        W 7288   7.589   7.450  10.777
 3545W        W 7289   7.117   6.226  11.065
 3546W        W 7290   8.422   8.939   0.980
 3547W        W 7291   0.565   2.528   3.492
 3548W        W 7292   0.385   7.451  11.846
 3549W        W 7293   3.559   4.973  10.726
 3550W        W 7294   7.097   8.854   9.634
 3551W        W 7295   9.739   4.301   3.147
 3552W        W 7296   3.635   8.504  11.796
 3553W        W 7297   3.992   0.055   2.174
 3554W        W 7298   6.929   7.894   2.093
 3555W        W 7299   1.383   4.973  11.362
 3556W        W 7300   0.324   5.294  11.327
 3557W        W 7301   7.534   3.198   9.695
 3558W        W 7302  10.002   9.097   9.417
 3559W        W 7303   7.126   0.401   1.177
 3560W        W 7304   0.564   1.341   9.013
 3561W        W 7305   5.712   6.450   1.442
 3562W        W 7306   8.878   0.548  10.617
 3563W        W 7307   0.817   7.018  10.084
 3564W        W 7308   4.544   7.648  10.763
 3565W        W 7309   2.345   6.884   8.104
 3566W        W 7310   4.736   6.826   3.145
 3567W        W 7311   2.852   3.180  11.406
 3568W        W 7312  10.346   2.952   1.308
 3569W        W 7313   0.511   7.038   8.924
 3570W        W 7314   9.940   9.501   9.083
 3571W        W 7315   4.271   3.653   2.702
 3572W        W 7316   8.579   6.660   3.440
 3573W        W 7317   0.807   7.789   9.098
 3574W        W 7318   1.916   2.190   9.514
 3575W        W 7319   7.265   9.412   2.769
 3576W        W 7320   1.500   7.958   9.535
 3577W        W 7321   6.703   6.994  10.925
 3578W        W 7322   4.589   0.763  11.808
 3579W        W 7323   1.288   1.033  11.550
 3580W        W 7324   5.188   4.270   9.113
 3581W        W 7325   6.713   7.378   9.949
 3582W        W 7326   3.988   3.117   1.420
 3583W        W 7327   4.714   6.941   2.146
 3584W        W 7328   5.570   2.548  10.455
 3585W        W 7329   6.230   8.694   8.573
 3586W        W 7330   4.018   7.995   8.690
 3587W        W 7331   2.208   6.605   9.208
 3588W        W 7332  10.260   8.021   2.817
 3589W        W 7333   3.104   1.935   3.210
 3590W        W 7334  10.436   0.906  11.768
 3591W        W 7335   7.489  10.095   1.535
 3592W        W 7336   1.187   3.273   2.639
 3593W        W 7337   3.360   6.106   1.897
 3594W        W 7338   0.884   4.692   2.462
 3595W        W 7339   6.060   2.001  11.743
 3596W        W 7340   8.607   9.389   1.281
 3597W        W 7341   6.556   2.314   3.042
 3598W        W 7342   6.932   6.463  11.484
 3599W        W 7343   4.522   1.137   9.254
 3600W        W 7344   0.814   8.463   2.783
 3601W        W 7345  10.250   0.863   3.560
 3602W        W 7346   4.293   9.425  10.612
 3603W        W 7347   0.530   2.806   8.708
 3604W        W 7348   4.203   4.196   3.590
 3605W        W 7349   4.566   9.964   0.474
 3606W        W 7350   2.215   3.773   9.763
 3607W        W 7351   5.599   5.108   9.843
 3608W        W 7352   5.471   9.861  11.061
 3609W        W 7353   9.252   8.991   8.718
 3610W        W 7354   1.422   9.255   0.640
 3611W        W 7355   9.374   8.099  11.953
 3612W        W 7356   1.344  10.023   2.823
 3613W        W 7357   2.477   1.811   0.022
 3614W        W 7358   5.950   7.926  10.000
 3615W        W 7359   0.773  10.233   2.826
 3616W        W 7360   1.248   2.814   2.933
 3617W        W 7361   5.716   3.566   4.258
 3618W        W 7362   0.421   8.958  11.615
 3619W        W 7363   2.637   7.531  11.503
 3620W        W 7364   7.474  10.100  11.270
 3621W        W 7365   1.767   2.813   1.725
 3622W        W 7366   1.730   9.318   9.981
 3623W        W 7367   0.003   6.237   8.658
 3624W        W 7368   2.061   7.128   8.471
 3625W        W 7369  10.015   7.896  10.283
 3626W        W 7370   1.234   3.637  11.564
 3627W        W 7371   7.138   0.162   3.677
 3628W        W 7372   4.004   0.858  10.930
 3629W        W 7373   7.778   6.141  10.457
 3630W        W 7374   7.668   1.966   9.738
 3631W        W 7375   7.897   7.847   3.166
 3632W        W 7376   1.706   5.207  11.873
 3633W        W 7377   5.064   4.060   8.155
 3634W        W 7378   8.078   2.007  11.386
 3635W        W 7379   5.346   4.425   0.689
 3636W        W 7380   8.743   2.611   0.695
 3637W        W 7381   6.874   1.738   9.666
 3638W        W 7382   6.948   4.028  10.486
 3639W        W 7383   1.356   4.334   9.882
 3640W        W 7384   5.291   6.651   8.478
 3641W        W 7385  10.037   2.234  11.217
 3642W        W 7386   2.451   1.301   3.559
 3643W        W 7387   5.770   5.091   2.179
 3644W        W 7388   6.951   0.177   0.748
 3645W        W 7389  10.341   8.995   3.253
 3646W        W 7390   9.944   2.811   2.784
 3647W        W 7391   4.714   3.111  11.575
 3648W        W 7392   2.220   9.929   2.946
 3649W        W 7393  10.270   3.078  10.867
 3650W        W 7394   9.511   1.104  11.936
 3651W        W 7395   4.412   8.891  11.127
 3652W        W 7396   0.886   6.673   2.592
 3653W        W 7397   7.936   4.100   2.167
 3654W        W 7398   6.360   8.992   9.003
 3655W        W 7399   5.215   8.382   8.874
 3656W        W 7400   4.960  10.438   9.728
 3657W        W 7401   4.492   9.581   2.354
 3658W        W 7402   1.134   0.483   0.732
 3659W        W 7403   4.858   0.252  10.577
 3660W        W 7404   3.888   9.871   1.184
 3661W        W 7405   4.187   7.904  10.305
 3662W        W 7406   3.736   1.933  11.496
 3663W        W 7407  10.257   8.437   1.701
 3664W        W 7408   7.612   1.830   1.645
 3665W        W 7409   7.522   9.958  10.771
 3666W        W 7410   8.828   9.017   1.758
 3667W        W 7411   1.799   8.146  11.477
 3668W        W 7412   1.036   5.483   3.281
 3669W        W 7413   9.405   7.874   3.520
 3670W        W 7414   9.403   8.608  11.865
 3671W        W 7415   8.596   4.292  11.780
 3672W        W 7416   3.593  10.307   3.071
 3673W        W 7417   4.193   4.373  11.254
 3674W        W 7418   9.736   1.006   1.843
 3675W        W 7419   7.539   8.962   4.036
 3676W        W 7420   2.602   2.362   0.420
 3677W        W 7421   9.861   9.801  11.718
 3678W        W 7422   4.438   3.628   9.133
 3679W        W 7423   9.356   2.214   2.767
 3680W        W 7424   4.220   6.559   9.921
 3681W        W 7425   0.997   2.386   0.781
 3682W        W 7426   6.257   0.781   1.150
 3683W        W 7427   5.994   5.692  11.374
 3684W        W 7428   4.230   8.921  10.292
 3685W        W 7429   8.509   8.008   1.035
 3686W        W 7430   0.495   5.103   0.128
 3687W        W 7431   7.815   9.388   0.353
 3688W        W 7432   2.850   9.024   3.231
 3689W        W 7433   2.192   1.220   1.184
 3690W        W 7434   9.860   2.288   2.784
 3691W        W 7435   1.806   1.432   1.431
 3692W        W 7436   0.294   4.920  11.685
 3693W        W 7437   8.934   7.985   2.850
 3694W        W 7438   8.933   1.764   9.340
 3695W        W 7439   4.596   9.062   2.380
 3696W        W 7440   8.349   2.366   2.508
 3697W        W 7441   3.614   1.382   0.407
 3698W        W 7442   8.354   6.281   3.736
 3699W        W 7443   1.832   4.802  11.574
 3700W        W 7444   6.759   6.765   9.050
 3701W        W 7445   7.633   0.919   0.723
 3702W        W 7446   8.586   1.451  10.955
 3703W        W 7447   2.081   9.313  10.353
 3704W        W 7448   9.856   4.642   9.926
 3705W        W 7449   3.787   9.136  10.364
 3706W        W 7450   0.665   9.406   2.227
 3707W        W 7451   2.646   2.279  11.909
 3708W        W 7452   2.761   3.124   3.130
 3709W        W 7453   9.962   6.406   1.855
 3710W        W 7454   1.465   3.602   8.687
 3711W        W 7455   9.430   3.963  11.560
 3712W        W 7456   8.307   9.983  10.722
 3713W        W 7457   2.026   4.872   3.680
 3714W        W 7458   0.732   6.529   2.096
 3715W        W 7459   0.647   0.359   1.948
 3716W        W 7460   9.648   4.243   8.745
 3717W        W 7461   0.883   2.759  11.882
 3718W        W 7462   8.097   7.954  11.790
 3719W        W 7463   6.484   8.490  10.880
 3720W        W 7464   3.522   7.534   9.362
 3721W        W 7465   3.284   3.786   2.663
 3722W        W 7466   6.013   6.095  10.017
 3723W        W 7467  10.411   8.173  11.948
 3724W        W 7468   9.785   5.002   0.796
 3725W        W 7469   7.454   4.594  11.023
 3726W        W 7470   5.187   8.374  10.076
 3727W        W 7471  10.320   5.109  10.577
 3728W        W 7472  10.296   7.033   1.199
 3729W        W 7473   7.142   7.225  10.801
 3730W        W 7474   7.589   9.106   9.706
 3731W        W 7475   8.601   9.247   9.568
 3732W        W 7476   9.597   3.508   9.386
 3733W        W 7477   0.028   0.867   9.741
 3734W        W 7478   9.901   9.309   9.908
 3735W        W 7479   9.925   6.139   9.479
 3736W        W 7480   6.914  10.154  11.891
 3737W        W 7481   5.447   9.992   1.726
 3738W        W 7482   5.503   3.314   9.838
 3739W        W 7483   9.556   6.645   1.682
 3740W        W 7484   5.053   8.508  11.546
 3741W        W 7485   3.726  10.474  10.797
 3742W        W 7486   9.349   9.475   0.505
 3743W        W 7487   4.791   8.688   8.864
 3744W        W 7488   9.330  10.317  11.871
 3745W        W 7489   3.728   8.665   1.761
 3746W        W 7490  10.346   5.532   9.975
 3747W        W 7491   1.500   3.637   2.773
 3748W        W 7492   6.622   8.485   1.327
 3749W        W 7493   2.908   7.459   2.337
 3750W        W 7494   3.086   5.098  10.892
 3751W        W 7495   5.253   9.677   0.048
 3752W        W 7496   0.032   3.193   9.936
 3753W        W 7497   9.387   3.287   0.281
 3754W        W 7498   8.916   8.352   1.064
 3755W        W 7499   4.271   6.803   3.383
 3756W        W 7500   9.965   8.829   0.560
 3757W        W 7501   2.432   3.406   0.375
 3758W        W 7502   7.394   2.426   0.942
 3759W        W 7503   6.606   0.261   8.688
 3760W        W 7504   2.655   6.938   8.527
 3761W        W 7505   0.263   3.338   0.327
 3762W        W 7506   9.416   6.237   3.044
 3763W        W 7507   7.596   0.038   9.865
 3764W        W 7508   2.984   6.865   2.933
 3765W        W 7509   1.503   8.187   3.200
 3766W        W 7510   2.791   2.776   0.212
 3767W        W 7511   1.343   9.818   8.592
 3768W        W 7512   5.782   4.227   3.584
 3769W        W 7513   0.206   4.189   2.833
 3770W        W 7514   9.767   5.875  11.029
 3771W        W 7515   5.974  10.391   9.917
 3772W        W 7516   4.222   7.329   0.458
 3773W        W 7517   7.332   9.017   0.215
 3774W        W 7518  10.306   9.464   2.470
 3775W        W 7519   3.272   7.074  11.750
 3776W        W 7520   2.478   7.840  11.865
 3777W        W 7521   5.710   0.714  11.424
 3778W        W 7522   9.169   2.279   3.251
 3779W        W 7523   3.756   3.168  11.175
 3780W        W 7524   4.740   3.176   3.213
 3781W        W 7525   7.388   6.972   1.643
 3782W        W 7526   2.383   9.885   9.584
 3783W        W 7527   8.318   3.757  11.068
 3784W        W 7528   5.662   9.086   0.764
 3785W        W 7529   3.842   9.449   2.885
 3786W        W 7530   1.698   9.475  11.271
 3787W        W 7531   1.782   6.496   3.030
 3788W        W 7532   3.364   7.394   8.912
 3789W        W 7533   0.289   1.638   8.361
 3790W        W 7534   6.543   0.185  11.497
 3791W        W 7535   4.710   4.581  11.194
 3792W        W 7536   8.234   2.649   0.740
 3793W        W 7537   6.201   8.204   1.382
 3794W        W 7538   0.834   9.309  11.545
 3795W        W 7539   5.125   6.051   2.441
 3796W        W 7540   2.688   8.108  10.862
 3797W        W 7541   6.133   4.251   1.225
 3798W        W 7542   4.753   8.562  10.275
 3799W        W 7543   5.603   9.031  10.536
 3800W        W 7544   7.527   0.087  10.366
 3801W        W 7545   4.504   4.733  10.354
 3802W        W 7546   7.163   4.911   3.336
 3803W        W 7547   4.927   7.309   8.090
 3804W        W 7548   7.986   3.180   1.586
 3805W        W 7549   5.444  10.418   9.920
 3806W        W 7550   9.175   6.702   0.136
 3807W        W 7551   9.585   8.969   9.706
 3808W        W 7552   2.209   0.744   9.655
 3809W        W 7553   8.034   6.647  10.262
 3810W        W 7554   5.238   7.096   4.216
 3811W        W 7555   7.361   7.149  10.341
 3812W        W 7556   3.062   6.626  11.767
 3813W        W 7557   0.286   2.916   9.581
 3814W        W 7558   6.227   7.062   4.002
 3815W        W 7559   1.851   6.727   1.522
 3816W        W 7560   1.125   5.270   1.052
 3817W        W 7561   8.717   7.403   3.539
 3818W        W 7562   1.324   7.083  10.657
 3819W        W 7563   8.830  10.284   0.901
 3820W        W 7564   7.061   7.093   8.769
 3821W        W 7565   1.815   4.952   2.307
 3822W        W 7566   4.239   5.205  10.085
 3823W        W 7567   6.189   8.389   2.891
 3824W        W 7568   5.070   3.344   0.368
 3825W        W 7569   3.158   1.013   2.853
 3826W        W 7570  10.438   0.627   1.363
 3827W        W 7571   1.533   7.834   2.412
 3828W        W 7572   6.857   6.265   8.147
 3829W        W 7573   5.937   9.650  11.030
 3830W        W 7574   4.440   1.692   2.793
 3831W        W 7575   8.122   2.772   2.831
 3832W        W 7576   8.589   6.773   0.938
 3833W        W 7577   4.809   1.336   2.118
 3834W        W 7578   9.388  10.130   2.156
 3835W        W 7579   9.987  10.112   0.983
 3836W        W 7580   7.651   8.143   0.039
 3837W        W 7581   3.243   6.020   9.169
 3838W        W 7582   2.278   5.982  11.880
 3839W        W 7583   8.392   6.957  10.469
 3840W        W 7584   0.222   7.162   0.957
 3841W        W 7585   8.540   2.849  10.001
 3842W        W 7586   5.152   6.501   2.165
 3843W        W 7587   1.353   6.886   8.847
 3844W        W 7588   5.651   3.300   2.787
 3845W        W 7589   8.144   6.513   3.186
 3846W        W 7590   4.680   9.844  10.821
 3847W        W 7591   8.991   4.742   1.543
 3848W        W 7592   1.771   2.882   9.985
 3849W        W 7593   7.030   8.965   2.877
 3850W        W 7594   6.127   6.510  10.848
 3851W        W 7595   1.342   3.299   2.165
 3852W        W 7596   7.045   2.740  11.544
 3853W        W 7597   9.850  10.246  11.988
 3854W        W 7598   3.786   7.991   9.483
 3855W        W 7599   3.158   1.446   1.976
 3856W        W 7600   6.478   0.220   0.458
 3857W        W 7601   5.092   1.776  10.756
 3858W        W 7602   2.288   5.564  11.500
 3859W        W 7603   5.374   5.690   8.581
 3860W        W 7604   2.200   7.301   9.724
 3861W        W 7605   6.137   8.102  11.068
 3862W        W 7606   2.065   7.682   9.423
 3863W        W 7607   6.940   3.489   2.555
 3864W        W 7608   1.887   4.520   1.411
 3865W        W 7609   0.348   0.961   2.679
 3866W        W 7610   0.914   5.090   9.940
 3867W        W 7611   0.466   4.830  10.099
 3868W        W 7612   4.636   5.357  11.206
 3869W        W 7613   5.109   3.787   0.139
 3870W        W 7614   4.308   4.605  10.821
 3871W        W 7615   5.598   3.275   2.284
 3872W        W 7616   2.128   9.771  10.560
 3873W        W 7617   7.637   9.604   1.642
 3874W        W 7618   4.097   6.057   1.002
 3875W        W 7619  10.317   1.794  11.474
 3876W        W 7620   8.944   2.864   1.445
 3877W        W 7621   0.580   5.918   1.448
 3878W        W 7622   7.415   0.563   9.558
 3879W        W 7623   8.496   3.898   3.293
 3880W        W 7624   9.075   2.244  11.466
 3881W        W 7625   9.345   4.615  10.113
 3882W        W 7626   1.909   9.084   2.828
 3883W        W 7627   1.802   0.796   9.312
 3884W        W 7628   9.444   1.274  10.929
 3885W        W 7629   8.567   4.592  11.324
 3886W        W 7630   8.543   2.735   8.955
 3887W        W 7631   8.870   1.871   3.252
 3888W        W 7632   7.236   7.823   8.601
 3889W        W 7633   1.961   7.690   2.683
 3890W        W 7634   9.895   0.663   0.987
 3891W        W 7635   1.167   4.035   1.451
 3892W        W 7636   5.726   1.299  10.783
 3893W        W 7637   8.043   7.820  11.248
 3894W        W 7638   2.266   5.265   3.436
 3895W        W 7639   8.009   9.792   9.321
 3896W        W 7640   2.674   8.962  10.982
 3897W        W 7641  10.490   1.863  11.966
 3898W        W 7642   9.419   8.582   2.800
 3899W        W 7643   3.254   4.706   3.607
 3900W        W 7644   9.744   0.839  11.026
 3901W        W 7645   7.141   6.697  10.765
 3902W        W 7646   9.050   0.745   0.761
 3903W        W 7647   9.972   9.961  10.830
 3904W        W 7648   5.248   9.708  10.372
 3905W        W 7649   7.499   8.591   3.184
 3906W        W 7650   5.721   6.462   0.937
 3907W        W 7651   1.391   9.528  10.863
 3908W        W 7652   9.783   3.736   9.817
 3909W        W 7653   6.963   0.121   9.055
 3910W        W 7654   6.473   6.645  11.219
 3911W        W 7655   1.751   6.182  11.849
 3912W        W 7656   5.265   4.470  11.020
 3913W        W 7657   5.677   4.203   2.135
 3914W        W 7658   5.575   5.095   3.139
 3915W        W 7659   1.948   3.240   9.662
 3916W        W 7660   6.152   3.329  11.428
 3917W        W 7661   6.370   7.734   1.284
 3918W        W 7662   5.635   0.267   0.403
 3919W        W 7663   3.277   4.989   4.043
 3920W        W 7664   8.195   6.691   2.221
 3921W        W 7665   1.072   3.529   1.481
 3922W        W 7666   4.829   9.469   3.189
 3923W        W 7667  10.477  10.461  10.218
 3924W        W 7668   9.287   4.052   2.475
 3925W        W 7669   8.363   1.867   2.401
 3926W        W 7670   3.673   4.010   1.377
 3927W        W 7671   1.084   7.099   9.649
 3928W        W 7672   9.665   4.739  10.479
 3929W        W 7673   2.767   1.222   0.776
 3930W        W 7674   2.270   8.306  11.566
 3931W        W 7675   8.038   8.475  11.771
 3932W        W 7676   1.815  10.032   1.627
 3933W        W 7677   6.536   9.341  10.362
 3934W        W 7678   9.630   3.786  10.612
 3935W        W 7679  10.497   0.825  11.241
 3936W        W 7680   1.272   1.401   2.258
 3937W        W 7681   9.425   2.662   1.486
 3938W        W 7682   4.899  10.239   2.948
 3939W        W 7683   4.129   2.693   9.067
 3940W        W 7684   9.422  10.072   2.671
 3941W        W 7685   5.611   6.634   8.918
 3942W        W 7686   8.069   2.879  10.726
 3943W        W 7687   1.794   2.774  11.801
 3944W        W 7688   3.584   0.901   2.595
 3945W        W 7689   8.485   8.916  10.275
 3946W        W 7690   0.280   4.219   9.246
 3947W        W 7691   1.580   1.470   8.881
 3948W        W 7692   4.948   2.234  11.877
 3949W        W 7693   8.593  10.464  10.876
 3950W        W 7694   2.143   1.073  10.067
 3951W        W 7695   0.951   6.990   2.115
 3952W        W 7696   8.060   0.669   1.744
 3953W        W 7697   7.295   6.200  10.347
 3954W        W 7698   9.321   0.836   3.601
 3955W        W 7699  10.461   5.093   9.722
 3956W        W 7700   8.817   5.092  10.494
 3957W        W 7701   9.016   4.526   8.806
 3958W        W 7702   4.914   3.680   8.464
 3959W        W 7703   4.975   5.682   0.284
 3960W        W 7704   2.363   0.323   2.791
 3961W        W 7705   9.777   9.023   3.489
 3962W        W 7706  10.458   8.605  10.098
 3963W        W 7707   6.323  10.328   2.756
 3964W        W 7708   4.257   5.348  10.576
 3965W        W 7709   7.073   3.368  11.234
 3966W        W 7710   1.451   1.672   0.212
 3967W        W 7711   7.401   5.128   9.353
 3968W        W 7712   3.276   0.471   1.287
 3969W        W 7713   1.223   3.675   1.015
 3970W        W 7714   7.039   6.122   9.081
 3971W        W 7715   5.973   2.132   9.093
 3972W        W 7716   9.845   1.829   9.400
 3973W        W 7717   0.863   1.700   2.574
 3974W        W 7718   3.320   9.575  11.804
 3975W        W 7719   6.575   0.506   0.872
 3976W        W 7720   3.357   3.929   3.138
 3977W        W 7721   3.392   5.435   3.242
 3978W        W 7722   7.226   4.116  11.816
 3979W        W 7723   1.220   6.118  11.871
 3980W        W 7724   0.862   9.645   9.471
 3981W        W 7725   7.165   7.496   2.386
 3982W        W 7726   9.397   3.648   1.132
 3983W        W 7727   3.924   9.718   0.701
 3984W        W 7728   5.454   1.665   2.960
 3985W        W 7729   3.292   4.910   0.513
 3986W        W 7730   5.081   4.074  10.749
 3987W        W 7731   8.044   5.388   1.266
 3988W        W 7732   4.510   4.138   9.398
 3989W        W 7733   5.341   9.772  11.551
 3990W        W 7734   7.485   9.613  10.069
 3991W        W 7735   6.874   9.392  10.741
 3992W        W 7736   0.200   6.183   0.828
 3993W        W 7737   2.633   5.655   9.929
 3994W        W 7738   3.168   4.217   1.237
 3995W        W 7739  10.193   6.902   9.356
 3996W        W 7740   9.620   7.436   0.832
 3997W        W 7741   7.066   5.235   0.284
 3998W        W 7742   5.931   0.786   9.964
 3999W        W 7743   8.133   8.442   2.604
 4000W        W 7744   6.595   6.689   2.261
 4001W        W 7745   6.969   4.887   9.916
 4002W        W 7746   3.861   3.074   9.251
 4003W        W 7747   1.739   2.234  11.346
 4004W        W 7748   6.837  10.318   2.530
 4005W        W 7749   1.383  10.389  10.291
 4006W        W 7750   5.957   4.738  10.338
 4007W        W 7751   4.981   7.908   8.277
 4008W        W 7752   8.423   3.624   8.438
 4009W        W 7753  10.299   0.825   8.750
 4010W        W 7754   9.024   2.524   1.834
 4011W        W 7755   2.921   4.602   4.099
 4012W        W 7756   4.654   6.469   2.336
 4013W        W 7757   5.054   7.181   1.339
 4014W        W 7758   0.705   6.189   0.928
 4015W        W 7759   9.537   0.068   0.277
 4016W        W 7760   2.903   3.711  10.525
 4017W        W 7761   3.221   8.321  11.499
 4018W        W 7762   7.862   2.415  10.513
 4019W        W 7763   0.850   1.371   0.920
 4020W        W 7764   9.462   1.854   0.919
 4021W        W 7765   7.180   2.623   2.541
 4022W        W 7766   1.462   8.435   1.042
 4023W        W 7767   3.059   2.528   0.602
 4024W        W 7768   7.562   6.128   2.735
 4025W        W 7769   5.645   1.175   1.321
 4026W        W 7770   7.012   9.654   0.828
 4027W        W 7771   9.525   7.177  10.068
 4028W        W 7772   5.966   6.720   4.290
 4029W        W 7773   4.604   3.231  10.814
 4030W        W 7774  10.058   0.974   1.421
 4031W        W 7775   0.413   8.920   1.554
 4032W        W 7776   2.707   7.898   1.202
 4033W        W 7777  10.342   8.550   0.744
 4034W        W 7778   9.952   5.447   1.772
 4035W        W 7779   6.671   5.273  11.972
 4036W        W 7780   5.066   7.889  10.296
 4037W        W 7781   9.934   4.963  10.883
 4038W        W 7782   9.847   1.442  10.191
 4039W        W 7783   4.244   4.440   9.076
 4040W        W 7784   5.604   9.491  10.709
 4041W        W 7785   4.507   6.012   0.695
 4042W        W 7786   7.643   5.543   3.988
 4043W        W 7787   2.159   0.343  10.001
 4044W        W 7788   6.471  10.008   2.387
 4045W        W 7789   5.200   9.464   0.647
 4046W        W 7790   9.674   9.806  11.227
 4047W        W 7791   7.962   0.299  10.556
 4048W        W 7792   0.806   7.913  11.497
 4049W        W 7793  10.343  10.309   1.928
 4050W        W 7794   5.693   3.584  10.932
 4051W        W 7795   2.308   5.057  11.632
 4052W        W 7796  10.068   5.712   2.193
 4053W        W 7797   4.698   2.762   9.793
 4054W        W 7798   6.057   7.210   3.546
 4055W        W 7799   7.551   6.652  10.448
 4056W        W 7800   1.622   8.618  11.524
 4057W        W 7801   5.996   7.121   1.878
 4058W        W 7802   8.725   1.486   3.538
 4059W        W 7803   4.499   7.932   8.523
 4060W        W 7804   8.300   6.155   9.153
 4061W        W 7805   3.396   4.632   8.629
 4062W        W 7806   8.377   9.257   0.058
 4063W        W 7807   1.346   6.403   2.704
 4064W        W 7808  10.183   4.159   2.873
 4065W        W 7809   7.461   5.811   0.805
 4066W        W 7810  10.472   1.746   2.537
 4067W        W 7811   2.919   2.076   9.473
 4068W        W 7812   0.085   1.587   1.808
 4069W        W 7813   4.060   6.919  10.298
 4070W        W 7814   6.754   4.598   3.273
 4071W        W 7815   7.167   2.638   1.377
 4072W        W 7816   4.861   2.827   2.312
 4073W        W 7817   4.896   9.511   2.672
 4074W        W 7818   5.141   4.688  11.481
 4075W        W 7819   8.975   0.408   1.455
 4076W        W 7820   4.023   7.527   3.063
 4077W        W 7821   1.824   3.241   2.019
 4078W        W 7822   1.646   9.536   2.964
 4079W        W 7823   7.124   7.876  11.487
 4080W        W 7824   1.280   4.266   0.432
 4081W        W 7825   9.394   8.606   9.031
 4082W        W 7826   0.811   3.840  11.781
 4083W        W 7827   0.729   7.102   0.745
 4084W        W 7828   3.338   8.904   3.350
 4085W        W 7829   9.564  10.322   3.331
 4086W        W 7830   1.197   2.873   0.510
 4087W        W 7831   6.956   9.975  11.384
 4088W        W 7832   2.315   3.859   2.651
 4089W        W 7833   4.946   4.216   0.928
 4090W        W 7834   4.653   4.958   9.894
 4091W        W 7835   2.776   1.148   3.188
 4092W        W 7836   8.991   8.419   2.574
 4093W        W 7837   3.295   2.383  10.123
 4094W        W 7838   1.798   6.257  11.315
 4095W        W 7839   4.624   7.627  10.266
 4096W        W 7840   6.498   3.038  10.501
 4097W        W 7841   7.331   1.027   9.385
 4098W        W 7842   7.019   7.468   9.450
 4099W        W 7843   4.078  10.100   0.355
 4100W        W 7844   8.389   1.980  10.965
 4101W        W 7845   5.669   1.125   0.759
 4102W        W 7846   8.181   6.610   1.630
 4103W        W 7847   9.408   3.112  11.257
 4104W        W 7848   0.282   7.820   0.256
 4105W        W 7849   0.281   1.772   8.907
 4106W        W 7850   4.463   1.033  10.994
 4107W        W 7851   7.479   2.759   1.796
 4108W        W 7852   8.336   0.911   9.233
 4109W        W 7853   4.690   3.019   0.111
 4110W        W 7854   5.863   2.394   0.039
 4111W        W 7855   7.383   5.024  11.371
 4112W        W 7856   7.438   3.268   1.898
 4113W        W 7857   1.225   7.442   2.173
 4114W        W 7858   4.182   0.764  10.383
 4115W        W 7859   6.747   1.464  11.943
 4116W        W 7860   2.605   3.872  11.426
 4117W        W 7861   6.956   0.974   0.280
 4118W        W 7862   1.429   8.670  10.450
 4119W        W 7863   8.322   9.820  10.206
 4120W        W 7864   8.047   6.023   0.009
 4121W        W 7865   1.899   8.532  11.096
 4122W        W 7866   9.772   9.841   9.828
 4123W        W 7867   3.780   1.810   9.011
 4124W        W 7868   4.449   8.094   0.088
 4125W        W 7869   5.197   9.443   1.154
 4126W        W 7870   1.296  10.367   9.801
 4127W        W 7871   6.502   3.638   3.208
 4128W        W 7872   2.802   8.556  10.632
 4129W        W 7873   5.539   6.402  11.113
 4130W        W 7874   7.043   8.654   1.103
 4131W        W 7875   5.136   8.969   0.870
 4132W        W 7876  10.169  10.290   1.430
 4133W        W 7877   1.410   9.100   2.749
 4134W        W 7878   4.637   5.461   1.849
 4135W        W 7879   1.282   8.438   8.758
 4136W        W 7880   4.487  10.463  11.413
 4137W        W 7881  10.403   3.637   2.149
 4138W        W 7882   8.080   7.508   9.631
 4139W        W 7883   4.066   6.824  11.531
 4140W        W 7884   7.443   7.596   3.219
 4141W        W 7885  10.061   6.845   2.418
 4142W        W 7886   2.818   4.540  10.479
 4143W        W 7887   6.108   0.209  11.764
 4144W        W 7888   0.467   0.422   2.426
 4145W        W 7889   2.772   5.520   0.753
 4146W        W 7890   4.603  10.314  10.563
 4147W        W 7891   6.145   0.290   8.931
 4148W        W 7892   5.623  10.388   1.453
 4149W        W 7893   6.912   3.813  10.033
 4150W        W 7894   2.734   8.868   2.745
 4151W        W 7895   7.573   5.258   1.394
 4152W        W 7896   2.306   5.655   0.500
 4153W        W 7897   9.395   7.591  11.054
 4154W        W 7898   7.436   9.048   2.455
 4155W        W 7899   8.670   2.405  11.882
 4156W        W 7900   8.766   6.171   9.927
 4157W        W 7901   8.984  10.048   1.801
 4158W        W 7902   3.725   8.092  10.457
 4159W        W 7903   3.297   2.170   0.901
 4160W        W 7904   0.032   2.894   0.827
 4161W        W 7905   0.739   2.926   1.498
 4162W        W 7906   4.152   8.840   9.419
 4163W        W 7907   3.597   8.040   9.010
 4164W        W 7908   1.607   2.260   2.272
 4165W        W 7909   0.274   5.973   3.186
 4166W        W 7910   4.802  10.415  11.002
 4167W        W 7911   0.231   6.076   2.671
 4168W        W 7912   0.829   5.571   9.744
 4169W        W 7913   5.053   6.510   2.663
 4170W        W 7914   1.910   9.913   9.360
 4171W        W 7915   7.990   8.823   9.558
 4172W        W 7916   5.189   1.308  10.037
 4173W        W 7917   4.792   2.035   1.000
 4174W        W 7918   6.625   4.256   2.313
 4175W        W 7919   2.751   0.695   1.489
 4176W        W 7920   3.153   8.675   2.896
 4177W        W 7921   6.134   0.468  11.293
 4178W        W 7922   7.759   0.427  11.000
 4179W        W 7923   2.521   6.982   0.860
 4180W        W 7924  10.009   5.501   8.931
 4181W        W 7925   8.106   3.044  11.726
 4182W        W 7926   5.494   0.808   2.446
 4183W        W 7927   5.564   7.311   0.679
 4184W        W 7928   2.261   8.624   2.817
 4185W        W 7929   3.272   3.713   1.204
 4186W        W 7930   7.236   3.883   8.948
 4187W        W 7931   2.732   8.528   9.690
 4188W        W 7932   6.075   3.835  10.704
 4189W        W 7933   7.660   4.207   3.526
 4190W        W 7934   2.379   4.804   3.154
 4191W        W 7935   0.351   1.244  11.267
 4192W        W 7936   8.005   7.364  11.053
 4193W        W 7937   6.483   5.861  10.389
 4194W        W 7938   0.267   9.516  10.025
 4195W        W 7939   5.048   6.648  11.253
 4196W        W 7940   2.166   5.990   2.812
 4197W        W 7941   9.244   9.040   0.932
 4198W        W 7942   0.070   3.762   9.433
 4199W        W 7943   2.213   3.313   2.364
 4200W        W 7944   7.090   1.181   3.333
 4201W        W 7945   3.270   7.717   2.684
 4202W        W 7946   9.438   5.051   2.334
 4203W        W 7947   8.690   1.768  10.590
 4204W        W 7948   3.166   5.598  11.020
 4205W        W 7949   1.810   0.290   2.579
 4206W        W 7950   9.976   2.726   2.260
 4207W        W 7951   6.733   4.825   1.301
 4208W        W 7952   3.048   8.808  11.459
 4209W        W 7953   8.792   8.897  11.471
 4210W        W 7954   2.138   8.984  10.935
 4211W        W 7955   5.892   7.662   0.518
 4212W        W 7956   8.493   8.124   3.096
 4213W        W 7957   3.630   5.650   0.310
 4214W        W 7958   4.978   6.883   0.883
 4215W        W 7959   2.299   9.362   1.645
 4216W        W 7960   2.597   2.371  11.413
 4217W        W 7961   2.873   5.096   9.853
 4218W        W 7962   8.007   2.339   9.533
 4219W        W 7963   6.711   2.334   9.766
 4220W        W 7964   1.010   8.343   3.264
 4221W        W 7965   8.902   4.623   9.824
 4222W        W 7966   1.899   6.530   0.559
 4223W        W 7967   3.436   8.207   1.815
 4224W        W 7968   4.289  10.294   1.843
 4225W        W 7969   3.348   5.755  10.578
 4226W        W 7970   6.033   1.680  10.270
 4227W        W 7971   1.388   3.718   1.856
 4228W        W 7972   3.424   9.585   0.675
 4229W        W 7973   7.106   6.551   3.303
 4230W        W 7974   5.386   2.061   1.682
 4231W        W 7975   2.120   4.675   0.533
 4232W        W 7976   4.891   1.396   3.451
 4233W        W 7977   9.248   8.500  10.412
 4234W        W 7978   8.562   8.065   1.533
 4235W        W 7979   3.783   3.214   1.889
 4236W        W 7980   0.262   6.454   9.422
 4237W        W 7981   6.012   1.740  10.760
 4238W        W 7982   3.708   4.846   3.148
 4239W        W 7983   2.091   1.323   0.203
 4240W        W 7984   2.746   2.366  10.792
 4241W        W 7985   7.898   1.343   0.461
 4242W        W 7986   6.979   4.187   0.267
 4243W        W 7987   5.630   0.483  11.904
 4244W        W 7988   2.311   6.725   1.285
 4245W        W 7989   9.813   9.285   0.339
 4246W        W 7990   4.078   8.996  10.765
 4247W        W 7991   7.181   1.847   2.959
 4248W        W 7992   6.971   8.401   9.288
 4249W        W 7993   8.857   4.074  11.395
 4250W        W 7994   2.248   4.458  10.334
 4251W        W 7995  10.040   5.551   0.885
 4252W        W 7996   6.923   7.131   1.490
 4253W        W 7997   3.101   5.017   9.361
 4254W        W 7998   8.077   8.894   2.852
 4255W        W 7999   9.181   0.560   2.325
 4256W        W 8000   5.709   0.400   9.216
 4257W        W 8001   2.710   3.614   9.121
 4258W        W 8002   8.948   1.479  10.243
 4259W        W 8003   0.687   9.365   2.732
 4260W        W 8004   7.818   5.037   3.266
 4261W        W 8005   0.786   1.870   1.261
 4262W        W 8006   6.651   8.567   3.222
 4263W        W 8007   7.446   3.442   2.410
 4264W        W 8008  10.498   5.567   0.227
 4265W        W 8009   4.701   5.496   1.342
 4266W        W 8010   3.172   5.124  11.985
 4267W        W 8011   3.320   0.456   9.574
 4268W        W 8012   7.613   4.758  10.327
 4269W        W 8013   4.338   4.909  11.300
 4270W        W 8014   1.651   8.835  10.014
 4271W        W 8015   6.005   6.600  10.304
 4272W        W 8016   4.306   1.748  10.632
 4273W        W 8017   8.487   6.660  10.962
 4274W        W 8018   0.295   8.639   0.000
 4275W        W 8019   7.383  10.488   0.986
 4276W        W 8020   6.616   9.903   9.255
 4277W        W 8021   7.229   0.896  10.012
 4278W        W 8022   6.233   2.856   2.358
 4279W        W 8023   3.725   8.228   0.263
 4280W        W 8024   8.433   3.223   9.207
 4281W        W 8025  10.450   0.318   2.601
 4282W        W 8026   4.013   4.287   9.536
 4283W        W 8027   4.161   3.552   1.723
 4284W        W 8028   6.748   3.726   9.008
 4285W        W 8029   9.594   7.609  11.891
 4286W        W 8030   3.826   2.830   2.291
 4287W        W 8031   0.506   9.298   1.218
 4288W        W 8032   6.224   3.202   3.288
 4289W        W 8033   9.863   4.258  10.505
 4290W        W 8034   7.716   2.745  11.885
 4291W        W 8035   3.655   6.879   2.282
 4292W        W 8036   1.262   8.765   1.807
 4293W        W 8037   4.173   3.975   1.463
 4294W        W 8038   4.105   9.895   2.889
 4295W        W 8039   2.631   5.957  10.856
 4296W        W 8040   8.461   0.540   2.678
 4297W        W 8041   5.706   0.343   1.698
 4298W        W 8042   1.001   7.497  10.773
 4299W        W 8043   6.649   0.436   3.072
 4300W        W 8044   6.131   8.158   3.662
 4301W        W 8045   2.841   8.791   0.802
 4302W        W 8046   2.228   7.686   3.540
 4303W        W 8047   5.965   7.192   0.338
 4304W        W 8048   6.701   9.669   3.417
 4305W        W 8049   4.278   9.926  10.481
 4306W        W 8050   9.392   7.793   9.040
 4307W        W 8051   4.225   3.081  11.752
 4308W        W 8052   6.460   4.057   1.858
 4309W        W 8053   6.245   7.919  11.579
 4310W        W 8054   3.255   0.170   3.202
 4311W        W 8055   4.225   8.117  11.297
 4312W        W 8056   1.348   5.791  10.471
 4313W        W 8057   5.840   1.892   1.459
 4314W        W 8058   2.131   5.144  10.769
 4315W        W 8059   7.955   2.285   0.446
 4316W        W 8060   5.687   9.340   3.618
 4317W        W 8061   8.489   2.752   1.681
 4318W        W 8062   4.122  10.417  11.940
 4319W        W 8063   8.762   6.606  11.811
 4320W        W 8064   6.932   0.443   0.283
 4321W        W 8065   0.395   1.474   2.683
 4322W        W 8066   0.278   6.014   9.042
 4323W        W 8067   2.781   0.337   1.065
 4324W        W 8068   3.883   3.902   0.489
 4325W        W 8069   2.970   7.908  11.709
 4326W        W 8070   3.970   8.293  10.032
 4327W        W 8071   2.727   6.904  10.733
 4328W        W 8072   4.082   0.091   9.944
 4329W        W 8073   3.750   9.535   8.980
 4330W        W 8074   2.783   8.055   0.189
 4331W        W 8075   4.664   2.042   9.517
 4332W        W 8076   5.992   5.013   0.935
 4333W        W 8077   2.659   6.620  11.420
 4334W        W 8078   6.614   0.251   2.607
 4335W        W 8079   2.644   2.284   9.068
 4336W        W 8080   0.424   1.712   2.209
 4337W        W 8081   9.811   7.967   0.204
 4338W        W 8082   2.626   8.016  11.363
 4339W        W 8083   9.885   7.983   3.279
 4340W        W 8084   4.459   2.394  11.032
 4341W        W 8085  10.421   8.956   1.752
 4342W        W 8086   2.756   5.904   3.923
 4343W        W 8087   8.863   8.760   0.756
 4344W        W 8088   4.106   7.977   2.838
 4345W        W 8089   5.679   6.226   1.894
 4346W        W 8090  10.466   6.565  10.151
 4347W        W 8091   9.889   3.646   2.183
 4348W        W 8092   3.868   5.089   9.768
 4349W        W 8093   0.816   4.153   9.078
 4350W        W 8094   3.313   8.947   1.937
 4351W        W 8095   8.530   6.607   9.050
 4352W        W 8096   9.413   9.374  11.020
 4353W        W 8097   6.013  10.022   0.335
 4354W        W 8098   3.166  10.457  11.899
 4355W        W 8099   9.764   7.425   8.952
 4356W        W 8100   6.006   9.346   9.165
 4357W        W 8101   1.954   1.780   0.039
 4358W        W 8102   2.542   8.531   1.858
 4359W        W 8103   7.589   5.677  10.352
 4360W        W 8104   5.161   5.237  10.064
 4361W        W 8105  10.329   0.923   0.951
 4362W        W 8106   8.096   3.155   0.717
 4363W        W 8107   9.120   8.599   0.306
 4364W        W 8108   3.605   4.215   2.746
 4365W        W 8109   0.515   1.339   1.361
 4366W        W 8110   0.991   6.174  10.361
 4367W        W 8111   9.343   4.939  11.399
 4368W        W 8112   0.875   9.614   1.810
 4369W        W 8113   0.432   9.821   3.187
 4370W        W 8114   2.767   4.728  11.750
 4371W        W 8115   5.248   7.673   0.503
 4372W        W 8116   9.346   9.543   1.018
 4373W        W 8117   2.787   3.657   9.613
 4374W        W 8118   1.753   2.933   1.234
 4375W        W 8119   1.371   2.717   0.977
 4376W        W 8120   4.672   0.052   9.064
 4377W        W 8121   9.836   3.546   0.225
 4378W        W 8122   2.800   7.208   1.855
 4379W        W 8123   1.157   2.832  11.219
 4380W        W 8124   1.846   9.542   1.478
 4381W        W 8125   7.619   2.307   1.384
 4382W        W 8126   4.944   2.231  10.963
 4383W        W 8127  10.261   8.073   0.938
 4384W        W 8128   8.342   7.097   3.629
 4385W        W 8129   5.931   3.950   0.276
 4386W        W 8130   7.508   8.446   0.979
 4387W        W 8131   3.733   4.509   3.574
 4388W        W 8132   9.032   5.502  10.758
 4389W        W 8133   0.546   5.755  11.534
 4390W        W 8134   6.082   2.867   0.174
 4391W        W 8135   1.629   4.133  10.264
 4392W        W 8136   4.339   2.210   1.898
 4393W        W 8137   3.394  10.066   9.539
 4394W        W 8138   3.830   2.639   1.420
 4395W        W 8139   9.687   0.182  11.769
 4396W        W 8140   9.895   8.862   3.020
 4397W        W 8141   5.499   7.240   1.946
 4398W        W 8142   2.113   3.961  10.232
 4399W        W 8143   7.988   5.616   0.334
 4400W        W 8144   2.343   7.867  10.587
 4401W        W 8145   2.286   5.537  10.459
 4402W        W 8146   8.585   5.775   2.221
 4403W        W 8147   4.884   0.715   3.115
 4404W        W 8148   0.449   2.209   3.099
 4405W        W 8149   8.158   4.738   0.668
 4406W        W 8150   3.678   1.448   1.994
 4407W        W 8151   0.840   0.092   3.512
 4408W        W 8152   8.116   8.504   2.111
 4409W        W 8153   2.850   4.525   2.425
 4410W        W 8154   0.759   3.112   0.290
 4411W        W 8155   2.812   3.798   2.853
 4412W        W 8156   9.506   9.045   2.313
 4413W        W 8157   8.684   6.721   2.376
 4414W        W 8158   6.424   4.124   9.142
 4415W        W 8159   7.288   9.226   8.790
 4416W        W 8160   9.899   5.071   9.630
 4417W        W 8161   3.204  10.488   2.706
 4418W        W 8162   6.891   5.510   2.550
 4419W        W 8163   3.609   1.317   2.950
 4420W        W 8164   3.823   9.024   9.043
 4421W        W 8165   6.974   3.165   1.716
 4422W        W 8166   0.794   8.936   9.894
 4423W        W 8167   3.430   3.151  11.553
 4424W        W 8168   4.037   7.523   1.772
 4425W        W 8169   0.322   6.631   1.812
 4426W        W 8170   9.391   4.407  11.350
 4427W        W 8171   3.202   5.423   0.463
 4428W        W 8172   6.229   3.947   3.542
 4429W        W 8173   4.717   7.083   0.144
 4430W        W 8174   4.701   3.505  11.961
 4431W        W 8175   5.644   1.746   8.991
 4432W        W 8176   8.828   4.753   3.419
 4433W        W 8177   1.398   5.219   9.817
 4434W        W 8178   8.407   3.266   9.722
 4435W        W 8179   7.948   9.108  11.066
 4436W        W 8180   0.811   1.222   2.821
 4437W        W 8181   3.329   8.833   9.269
 4438W        W 8182   7.562   2.014   0.670
 4439W        W 8183   7.459   8.268   8.593
 4440W        W 8184   7.463   7.878   0.450
 4441W        W 8185   8.497   6.451  10.423
 4442W        W 8186   0.679   6.843   9.422
 4443W        W 8187   5.651   5.067   9.331
 4444W        W 8188   5.872   1.248   3.198
 4445W        W 8189   5.093   0.815   8.727
 4446W        W 8190   5.592   0.001   3.476
 4447W        W 8191   5.975   7.360   0.954
 4448W        W 8192   1.240   9.988   1.826
 4449W        W 8193   6.905   5.163   2.941
 4450W        W 8194   7.943   9.747   9.848
 4451W        W 8195   6.390   6.941   0.513
 4452W        W 8196   9.491   9.967   8.952
 4453W        W 8197   9.797   4.690  11.421
 4454W        W 8198   5.857   2.718   3.335
 4455W        W 8199   4.652  10.068   8.858
 4456W        W 8200   4.417   3.641   8.619
 4457W        W 8201   8.991   6.563   3.136
 4458W        W 8202   4.696   6.907   2.647
 4459W        W 8203   2.687   7.501   3.409
 4460W        W 8204   5.645   0.784   0.342
 4461W        W 8205   3.322   5.958   4.080
 4462W        W 8206   9.698   5.694   1.385
 4463W        W 8207   1.780   4.615  10.215
 4464W        W 8208   9.178   9.807  11.169
 4465W        W 8209   7.936   8.950   2.329
 4466W        W 8210   7.012   2.189   9.362
 4467W        W 8211   4.794   1.769   0.509
 4468W        W 8212   4.801   7.327   2.957
 4469W        W 8213   1.374   1.283   9.365
 4470W        W 8214   9.878   0.025   1.776
 4471W        W 8215  10.298   5.088   8.759
 4472W        W 8216   7.609   6.604   9.534
 4473W        W 8217   2.201   2.233   0.130
 4474W        W 8218   8.472   2.898   0.332
 4475W        W 8219   8.304   6.530   0.587
 4476W        W 8220   5.629   5.672   2.748
 4477W        W 8221   5.170   4.361  10.340
 4478W        W 8222   6.428   2.189   8.855
 4479W        W 8223   3.275   9.110   0.786
 4480W        W 8224   4.333   3.394  10.391
 4481W        W 8225   4.879   1.536   1.192
 4482W        W 8226   7.534   1.828  11.803
 4483W        W 8227   8.105   3.984   3.616
 4484W        W 8228   3.638   2.721   9.530
 4485W        W 8229   2.770   4.331  11.445
 4486W        W 8230   9.404   1.860   9.098
 4487W        W 8231   3.437   4.444   4.013
 4488W        W 8232   9.277   3.285  10.358
 4489W        W 8233   7.780   3.239  10.975
 4490W        W 8234   1.373   5.596   1.960
 4491W        W 8235   1.880   8.184   2.281
 4492W        W 8236   7.917   3.717  10.783
 4493W        W 8237   5.267   4.678   2.675
 4494W        W 8238   1.855   7.098   0.046
 4495W        W 8239   6.920   1.290   1.253
 4496W        W 8240   5.444   7.428  11.684
 4497W        W 8241   1.751   4.613   9.191
 4498W        W 8242   8.636   4.197  10.024
 4499W        W 8243   5.155   8.010  11.355
 4500W        W 8244  10.218   6.679   2.898
 4501W        W 8245   4.708  10.221   1.212
 4502W        W 8246  10.241   7.274   2.171
 4503W        W 8247   4.607   3.250   0.565
 4504W        W 8248   1.901   4.745   2.849
 4505W        W 8249   0.173   7.461   3.298
 4506W        W 8250   3.939   9.916  11.896
 4507W        W 8251   8.103   8.250   1.674
 4508W        W 8252   9.360   7.113   8.744
 4509W        W 8253   3.148   0.912   9.455
 4510W        W 8254   1.978   3.265   0.546
 4511W        W 8255   5.931   2.114   9.608
 4512W        W 8256   5.250   7.534   8.502
 4513W        W 8257   6.774   8.894  11.461
 4514W        W 8258   9.095   3.234   3.439
 4515W        W 8259  10.094   2.204   1.145
 4516W        W 8260   1.303   7.109   0.886
 4517W        W 8261   8.567   2.179   8.803
 4518W        W 8262   7.306   2.239   1.772
 4519W        W 8263   8.528   0.239   1.261
 4520W        W 8264  10.390   0.886   9.232
 4521W        W 8265   0.787   2.972   3.636
 4522W        W 8266   9.885   6.642   3.321
 4523W        W 8267   3.820   5.668   2.693
 4524W        W 8268   8.481  10.231   1.837
 4525W        W 8269   8.619   4.158  10.938
 4526W        W 8270   4.168   9.829   8.879
 4527W        W 8271   1.127   2.327   2.185
 4528W        W 8272   6.948   7.582   8.949
 4529W        W 8273   1.449   3.119   9.578
 4530W        W 8274   2.806  10.411  11.080
 4531W        W 8275   8.242   5.967  10.429
 4532W        W 8276   6.640   1.554   1.723
 4533W        W 8277   3.805   8.613  10.436
 4534W        W 8278   4.359   0.017   0.817
 4535W        W 8279   2.472   7.651  11.022
 4536W        W 8280   3.188   2.949   2.944
 4537W        W 8281   1.762   0.209   2.080
 4538W        W 8282   8.493   6.158   8.662
 4539W        W 8283   7.506   2.158   0.196
 4540W        W 8284   6.946   7.436  11.707
 4541W        W 8285   3.291   6.507   9.969
 4542W        W 8286   6.044   3.796  11.757
 4543W        W 8287   2.096   4.802  11.154
 4544W        W 8288   2.418   5.096   1.903
 4545W        W 8289   3.249   7.891  10.347
 4546W        W 8290   0.739   7.907   0.528
 4547W        W 8291  10.255   6.995  10.325
 4548W        W 8292   2.022   5.027   9.480
 4549W        W 8293   4.643   5.059   1.102
 4550W        W 8294   2.319   0.708  11.513
 4551W        W 8295   4.094   9.145   2.527
 4552W        W 8296   7.139   9.347   9.784
 4553W        W 8297   9.861   6.131   3.337
 4554W        W 8298   9.705  10.435   9.095
 4555W        W 8299   7.469   7.420   8.942
 4556W        W 8300   5.711   4.172  11.862
 4557W        W 8301   6.583   7.603   3.163
 4558W        W 8302  10.099   5.615  11.311
 4559W        W 8303   8.988   8.880   2.822
 4560W        W 8304   2.376   3.658  10.556
 4561W        W 8305   5.663   0.336   2.246
 4562W        W 8306   0.246  10.442  11.714
 4563W        W 8307  10.382   1.728   3.611
 4564W        W 8308   0.293   0.125   0.708
 4565W        W 8309   3.286   3.808   1.704
 4566W        W 8310   7.126   9.021  10.475
 4567W        W 8311   7.369   7.159   1.157
 4568W        W 8312   4.596   6.187   2.753
 4569W        W 8313   8.671   6.967  11.400
 4570W        W 8314   5.958   8.615  11.022
 4571W        W 8315   1.278   3.188   1.157
 4572W        W 8316   8.205   9.412   2.256
 4573W        W 8317   6.485   4.070   0.335
 4574W        W 8318   3.155   9.824   1.898
 4575W        W 8319   2.630   7.667   9.058
 4576W        W 8320   0.717   4.338  11.720
 4577W        W 8321   4.226   9.083  11.594
 4578W        W 8322   7.992   7.523   9.101
 4579W        W 8323   3.310   1.257  11.970
 4580W        W 8324   8.100   6.676   8.752
 4581W        W 8325   3.554   1.433  11.545
 4582W        W 8326   3.923   9.613  10.284
 4583W        W 8327   1.671   2.761  11.297
 4584W        W 8328   5.381   9.571   2.505
 4585W        W 8329   9.216  10.318   9.258
 4586W        W 8330   7.281   8.487   0.288
 4587W        W 8331   8.030  10.105   0.844
 4588W        W 8332   9.525   2.817  10.384
 4589W        W 8333   5.051   0.356  10.089
 4590W        W 8334   7.349   8.534   2.299
 4591W        W 8335   7.140   5.038   2.501
 4592W        W 8336   3.161  10.442  10.456
 4593W        W 8337   2.444   3.311   9.786
 4594W        W 8338   2.453   5.557   2.717
 4595W        W 8339   7.869   5.503   3.540
 4596W        W 8340  10.405   6.547   3.399
 4597W        W 8341   7.776   8.762  11.408
 4598W        W 8342   7.864   3.159   2.610
 4599W        W 8343   2.312   0.228   0.355
 4600W        W 8344   0.812   3.960   0.697
 4601W        W 8345   3.872   4.075  10.011
 4602W        W 8346   1.349   6.507  11.539
 4603W        W 8347   6.702   2.311   1.217
 4604W        W 8348   1.235   1.544  11.701
 4605W        W 8349   2.166   9.998   3.465
 4606W        W 8350   9.494   7.069   0.480
 4607W        W 8351   1.350   2.324   1.732
 4608W        W 8352  10.411   9.285   0.411
 4609W        W 8353   0.133   1.750   3.056
 4610W        W 8354   4.652   3.607  11.471
 4611W        W 8355   5.086   1.751   9.777
 4612W        W 8356   7.697   3.594   1.606
 4613W        W 8357   1.161   0.577  11.908
 4614W        W 8358   5.469   8.000   9.097
 4615W        W 8359   9.539   2.301   8.797
 4616W        W 8360   2.269   6.721   3.336
 4617W        W 8361   2.746   7.060  11.657
 4618W        W 8362   6.119   6.568   2.399
 4619W        W 8363   4.453   4.365   0.196
 4620W        W 8364   6.903   0.697   2.644
 4621W        W 8365   5.231   3.022   1.632
 4622W        W 8366   1.324   2.363   2.696
 4623W        W 8367   0.160   5.182   0.552
 4624W        W 8368   7.033   2.696   9.535
 4625W        W 8369   3.592   6.381   3.123
 4626W        W 8370   0.070   7.965   9.430
 4627W        W 8371   1.445   8.860   1.352
 4628W        W 8372   1.670   4.052   0.175
 4629W        W 8373   6.683   7.491  10.772
 4630W        W 8374  10.036   2.660   8.923
 4631W        W 8375   9.996  10.049   8.787
 4632W        W 8376   8.962   9.636  10.314
 4633W        W 8377   3.693   3.154   0.973
 4634W        W 8378   0.866   4.085   9.955
 4635W        W 8379   2.296   4.312  11.241
 4636W        W 8380   1.882   6.397   1.116
 4637W        W 8381   9.071   5.021   1.962
 4638W        W 8382   0.750   1.378  11.569
 4639W        W 8383   3.276   9.261   9.016
 4640W        W 8384   5.410   7.584  11.197
 4641W        W 8385   6.964   2.357  11.196
 4642W        W 8386   5.403   8.549   2.427
 4643W        W 8387   9.356  10.282  11.328
 4644W        W 8388   3.785   1.362   2.471
 4645W        W 8389   5.372   3.639   8.148
 4646W        W 8390   6.545   9.529   2.404
 4647W        W 8391   2.878   3.212   2.113
 4648W        W 8392   5.721   8.820   3.574
 4649W        W 8393   8.546   6.089  11.308
 4650W        W 8394   1.025   1.352   0.419
 4651W        W 8395  10.444   9.726   0.166
 4652W        W 8396   0.212   1.111  10.267
 4653W        W 8397   3.965   6.615   1.957
 4654W        W 8398   3.414   5.197   1.931
 4655W        W 8399   2.761   7.217  10.320
 4656W        W 8400   6.256   1.769   1.133
 4657W        W 8401   6.647   9.086   3.261
 4658W        W 8402   4.102   9.162   0.171
 4659W        W 8403   2.339   1.239   9.580
 4660W        W 8404   4.290   0.336  11.706
 4661W        W 8405   7.475   4.974   4.066
 4662W        W 8406   7.843  10.241   9.047
 4663W        W 8407   0.678   6.810   0.305
 4664W        W 8408   8.063   6.119  11.511
 4665W        W 8409   6.231   6.999  11.959
 4666W        W 8410   7.164   1.405  10.278
 4667W        W 8411   0.805   2.604   0.350
 4668W        W 8412   0.938   4.797  10.448
 4669W        W 8413   9.416   8.973  10.668
 4670W        W 8414   6.072   2.862  11.240
 4671W        W 8415   3.196   1.878   2.669
 4672W        W 8416   6.447   5.470  11.301
 4673W        W 8417   3.897   3.161  10.279
 4674W        W 8418   2.861   8.280   0.892
 4675W        W 8419   4.567   3.176   8.402
 4676W        W 8420   4.578   4.077   8.377
 4677W        W 8421   7.985   6.058  11.002
 4678W        W 8422   8.218   7.441  11.910
 4679W        W 8423   8.135   1.167   9.625
 4680W        W 8424   9.362   6.284   2.476
 4681W        W 8425   7.431   3.597   9.374
 4682W        W 8426   1.227   8.905   9.071
 4683W        W 8427   0.710   4.355  11.216
 4684W        W 8428   8.357   8.956   2.011
 4685W        W 8429   7.849   0.902   0.236
 4686W        W 8430  10.440   7.105   2.660
 4687W        W 8431   4.012   1.664   0.812
 4688W        W 8432   4.402   3.990   4.033
 4689W        W 8433   8.693   9.958   0.522
 4690W        W 8434   9.435   3.269   8.940
 4691W        W 8435   0.204   1.432   0.288
 4692W        W 8436   8.410   4.798   1.188
 4693W        W 8437   3.216   9.358   1.648
 4694W        W 8438   2.501   9.082   8.552
 4695W        W 8439   5.161   6.968   2.867
 4696W        W 8440   9.545   1.052   9.469
 4697W        W 8441   4.094   8.709  11.947
 4698W        W 8442   7.618   3.050  11.447
 4699W        W 8443   6.342   6.927   1.010
 4700W        W 8444   5.278   8.040   1.778
 4701W        W 8445   0.053   6.881   2.207
 4702W        W 8446   9.696   5.951   0.937
 4703W        W 8447   3.665   4.319  11.500
 4704W        W 8448   9.869   3.877  11.832
 4705W        W 8449   4.643   2.649   8.347
 4706W        W 8450   7.718   5.395   9.961
 4707W        W 8451   7.619   7.890  11.583
 4708W        W 8452   8.383  10.229  11.320
 4709W        W 8453   0.926   2.085  10.990
 4710W        W 8454   7.564   6.058   1.748
 4711W        W 8455   4.874   8.191   1.366
 4712W        W 8456   4.037   1.593   3.146
 4713W        W 8457   1.633   0.315  11.722
 4714W        W 8458   4.200   5.756   1.840
 4715W        W 8459   7.487   1.773  10.978
 4716W        W 8460   7.720   6.331   9.989
 4717W        W 8461   7.097   3.313   8.415
 4718W        W 8462   3.710   6.026   9.916
 4719W        W 8463   1.375   2.899  10.311
 4720W        W 8464   2.388   8.365   0.053
 4721W        W 8465   8.119   7.628   0.817
 4722W        W 8466   3.601   6.386   2.251
 4723W        W 8467   2.682   6.484   3.136
 4724W        W 8468   5.281   0.418  11.389
 4725W        W 8469   0.371   8.432   2.374
 4726W        W 8470   3.738   2.338  10.858
 4727W        W 8471   5.097   8.459   1.988
 4728W        W 8472   5.231   0.368   2.512
 4729W        W 8473   4.217   5.614   9.763
 4730W        W 8474   3.767   5.452  10.633
 4731W        W 8475   0.425   2.958   2.689
 4732W        W 8476   9.282   4.364   2.903
 4733W        W 8477   2.231   6.201   3.272
 4734W        W 8478   8.994   4.567  11.591
 4735W        W 8479   7.044   5.203  11.047
 4736W        W 8480   7.999   5.508  11.820
 4737W        W 8481   2.631   9.964  11.409
 4738W        W 8482  10.003  10.387   3.660
 4739W        W 8483   8.983   9.862   9.071
 4740W        W 8484   4.655  10.051   2.204
 4741W        W 8485   5.553   9.375  11.240
 4742W        W 8486   3.160   8.659  10.965
 4743W        W 8487   9.583   6.586   0.632
 4744W        W 8488   2.671  10.429  10.565
 4745W        W 8489   2.126   2.575   1.113
 4746W        W 8490   6.947   1.398   2.852
 4747W        W 8491   8.409   9.392   1.757
 4748W        W 8492   4.771   4.493   9.992
 4749W        W 8493   9.401   7.938   1.493
 4750W        W 8494   3.582   7.955   9.946
 4751W        W 8495   5.961   4.184   1.702
 4752W        W 8496   9.865   2.992  11.567
 4753W        W 8497   6.884   3.226  10.787
 4754W        W 8498   9.090   9.943   8.589
 4755W        W 8499  10.403   6.088  10.323
 4756W        W 8500   2.266   0.321   0.905
 4757W        W 8501   0.704   6.012  11.940
 4758W        W 8502   6.017   5.207  11.133
 4759W        W 8503  10.301   3.648   9.868
 4760W        W 8504   5.759   8.941  11.459
 4761W        W 8505   9.903   6.421   9.993
 4762W        W 8506   4.890   1.182  11.755
 4763W        W 8507   9.917   4.391  11.910
 4764W        W 8508   8.795   7.270   9.408
 4765W        W 8509   4.711   0.330   0.552
 4766W        W 8510   7.413   5.330   3.079
 4767W        W 8511   3.916  10.091   9.582
 4768W        W 8512   8.743   0.908  10.980
 4769W        W 8513   1.390   5.542   1.412
 4770W        W 8514   6.655   1.502   0.837
 4771W        W 8515   0.966   7.683   1.372
 4772W        W 8516  10.281   7.514  11.431
 4773W        W 8517   3.653   9.955   2.661
 4774W        W 8518   5.915   2.421   0.899
 4775W        W 8519   2.176   4.047  11.661
 4776W        W 8520   3.143   8.079   1.409
 4777W        W 8521   1.304   2.820   2.440
 4778W        W 8522   7.066   8.432   2.922
 4779W        W 8523   2.224   3.046   0.963
 4780W        W 8524   7.880   9.941   0.293
 4781W        W 8525   7.002   8.587  10.210
 4782W        W 8526   6.154   8.850   0.779
 4783W        W 8527   9.438   3.780   8.760
 4784W        W 8528   3.216   3.611   2.177
 4785W        W 8529   8.516   9.754  11.932
 4786W        W 8530   5.671   8.536  10.462
 4787W        W 8531   9.089   9.317   2.518
 4788W        W 8532   2.561   0.946  11.916
 4789W        W 8533   1.156  10.428   3.137
 4790W        W 8534   5.631   5.974   2.334
 4791W        W 8535   1.481   8.151  10.542
 4792W        W 8536   9.481   4.570   1.484
 4793W        W 8537   5.940   8.445   2.337
 4794W        W 8538   5.872   8.891   0.342
 4795W        W 8539   4.292   1.889   0.454
 4796W        W 8540   6.102   9.836   9.122
 4797W        W 8541   8.843   1.235   0.841
 4798W        W 8542   4.655   4.992   2.136
 4799W        W 8543   6.695   1.158  10.548
 4800W        W 8544   3.384   3.178   9.079
 4801W        W 8545   8.210   9.343   8.746
 4802W        W 8546   3.747   2.319  10.332
 4803W        W 8547   7.403   7.069   2.160
 4804W        W 8548   8.968   3.732   3.353
 4805W        W 8549   5.064   9.475  11.230
 4806W        W 8550   7.427  10.110   8.522
 4807W        W 8551   0.766   3.828   1.189
 4808W        W 8552   5.464   6.853  10.134
 4809W        W 8553   2.949   7.702  11.105
 4810W        W 8554   9.868   0.317   9.493
 4811W        W 8555   6.792   3.707   0.129
 4812W        W 8556   5.018   7.399   1.841
 4813W        W 8557   9.402   6.062   3.534
 4814W        W 8558   7.417   9.786   2.468
 4815W        W 8559  10.130   8.453  11.397
 4816W        W 8560   5.504   2.168   9.307
 4817W        W 8561   3.355   5.517   2.413
 4818W        W 8562   1.462   4.641   3.184
 4819W        W 8563   7.722   5.669   9.531
 4820W        W 8564   0.707   8.312  10.358
 4821W        W 8565  10.285   1.149   0.413
 4822W        W 8566   4.742   9.617   0.125
 4823W        W 8567   8.968   6.524  10.231
 4824W        W 8568   0.241  10.177   0.943
 4825W        W 8569   6.375   2.721   9.008
 4826W        W 8570   4.976   6.621  11.771
 4827W        W 8571   2.562   7.665   9.574
 4828W        W 8572   5.587   0.790   9.535
 4829W        W 8573   9.999   7.391  10.991
 4830W        W 8574   6.801   4.250   8.798
 4831W        W 8575  10.356   9.555  11.672
 4832W        W 8576   3.145   8.109   3.129
 4833W        W 8577   8.530   9.772   8.811
 4834W        W 8578   3.226   5.499  11.522
 4835W        W 8579   0.568   7.651   2.687
 4836W        W 8580   9.374   5.334   2.759
 4837W        W 8581   3.373   9.433  10.431
 4838W        W 8582   7.719   2.002   8.488
 4839W        W 8583   5.476   6.697  11.541
 4840W        W 8584   6.896   6.976   9.493
 4841W        W 8585   0.387   1.593   0.922
 4842W        W 8586  10.218   0.668   1.821
 4843W        W 8587   1.887   8.625   1.306
 4844W        W 8588   3.064   5.187   3.612
 4845W        W 8589   3.817   1.870  10.576
 4846W        W 8590   0.869   9.436  10.860
 4847W        W 8591   0.138   0.439  10.003
 4848W        W 8592   4.290   1.700  11.983
 4849W        W 8593   5.444   7.779   9.979
 4850W        W 8594   0.405   8.753  10.470
 4851W        W 8595   7.130   5.963  11.561
 4852W        W 8596   0.343   9.481  10.850
 4853W        W 8597   3.561   0.819   3.110
 4854W        W 8598   0.110   8.336   1.322
 4855W        W 8599   4.164   5.549  11.048
 4856W        W 8600   9.883   1.793   3.496
 4857W        W 8601   7.614   2.753  10.880
 4858W        W 8602   5.580   3.134   0.709
 4859W        W 8603   3.260   2.991   0.727
 4860W        W 8604   3.596   4.897  11.748
 4861W        W 8605   2.291   9.523   3.282
 4862W        W 8606   5.709   3.418  10.303
 4863W        W 8607   0.816   9.723  11.844
 4864W        W 8608   8.535   2.865  11.011
 4865W        W 8609   4.829   2.547   0.248
 4866W        W 8610   9.943   3.819   3.154
 4867W        W 8611   5.402   1.360   3.364
 4868W        W 8612   4.179   4.992   2.988
 4869W        W 8613   3.661   8.115   2.584
 4870W        W 8614   0.855  10.417   8.997
 4871W        W 8615   7.467   0.946   2.033
 4872W        W 8616   9.360   8.803   3.264
 4873W        W 8617  10.162   9.877  11.318
 4874W        W 8618   0.486   3.926   9.657
 4875W        W 8619   1.257   1.437   2.768
 4876W        W 8620   0.985   7.524   0.906
 4877W        W 8621   5.616   3.837  11.457
 4878W        W 8622   7.077   8.316   0.724
 4879W        W 8623   3.841   0.367   0.001
 4880W        W 8624   6.024   0.233  10.356
 4881W        W 8625   6.304   5.140   1.328
 4882W        W 8626   7.891   2.358  11.035
 4883W        W 8627   8.906   0.964  10.300
 4884W        W 8628   3.612   5.253   0.730
 4885W        W 8629   3.745   7.908  10.955
 4886W        W 8630   4.949   9.366   2.188
 4887W        W 8631   1.100   4.095   9.506
 4888W        W 8632   4.227   9.278   2.058
 4889W        W 8633   6.519   6.505   0.265
 4890W        W 8634   7.028   3.040  10.340
 4891W        W 8635   3.115  10.278   0.369
 4892W        W 8636   4.931   4.224   0.376
 4893W        W 8637   5.158  10.445   9.249
 4894W        W 8638   0.842   2.439   1.285
 4895W        W 8639   0.506   3.472  11.433
 4896W        W 8640   2.370   9.072   3.049
 4897W        W 8641   0.654   2.184   2.259
 4898W        W 8642   5.412   0.306   1.254
 4899W        W 8643   0.139   2.235   9.834
 4900W        W 8644   0.121   3.079   3.411
 4901W        W 8645   6.284   4.745  10.739
 4902W        W 8646   4.361   5.371  11.639
 4903W        W 8647   2.402   0.266   1.418
 4904W        W 8648   3.802   2.168   0.876
 4905W        W 8649   2.884   8.539   0.335
 4906W        W 8650   6.567   3.238   2.335
 4907W        W 8651   2.378   7.914   1.594
 4908W        W 8652   9.706   7.503   3.259
 4909W        W 8653   8.128   5.489  10.258
 4910W        W 8654   2.423   2.183   3.229
 4911W        W 8655   1.908   1.179   3.008
 4912W        W 8656   4.417   0.303  10.303
 4913W        W 8657   9.400   6.236   1.965
 4914W        W 8658   4.806   1.749  11.985
 4915W        W 8659   9.159   9.919   0.728
 4916W        W 8660   6.419   7.236   1.401
 4917W        W 8661   3.792   5.658   0.944
 4918W        W 8662   8.384   5.676  11.028
 4919W        W 8663   6.645   8.797   9.390
 4920W        W 8664   0.497   3.096  11.855
 4921W        W 8665   3.745   6.468   0.930
 4922W        W 8666   0.902   5.800  11.164
 4923W        W 8667   9.548   3.048   3.290
 4924W        W 8668   7.601   4.525   1.809
 4925W        W 8669   9.597   0.626   9.794
 4926W        W 8670   0.305   8.999  10.018
 4927W        W 8671   7.561   8.459  10.989
 4928W        W 8672   1.848   5.441   9.183
 4929W        W 8673   1.782   3.647   2.325
 4930W        W 8674   5.208   0.190  11.844
 4931W        W 8675   1.887   5.597   2.689
 4932W        W 8676   7.638   6.984  11.425
 4933W        W 8677   8.379   1.872   3.386
 4934W        W 8678  10.341   5.141  11.119
 4935W        W 8679   2.328   7.342  10.617
 4936W        W 8680   8.975   1.922   1.715
 4937W        W 8681   5.995   3.305  11.915
 4938W        W 8682   7.160   2.117   1.270
 4939W        W 8683   4.573   2.213   9.015
 4940W        W 8684   6.125  10.388  11.342
 4941W        W 8685   2.620  10.218   2.143
 4942W        W 8686   3.354   7.861  11.347
 4943W        W 8687   4.335   6.260   1.973
 4944W        W 8688   1.567   7.874   3.611
 4945W        W 8689   9.860   0.878   9.083
 4946W        W 8690   4.593   8.858   0.835
 4947W        W 8691   2.784   8.384  11.741
 4948W        W 8692   7.969   0.219   1.978
 4949W        W 8693   3.180   5.721   3.630
 4950W        W 8694   0.259   6.708   2.866
 4951W        W 8695   7.315   2.645   9.119
 4952W        W 8696   5.483   3.905   3.959
 4953W        W 8697   1.906   0.389   1.295
 4954W        W 8698   4.282   6.370  11.474
 4955W        W 8699   9.074   2.682  11.755
 4956W        W 8700   0.492   4.666   9.090
 4957W        W 8701   0.039   7.503   0.607
 4958W        W 8702   7.726   1.614  11.396
 4959W        W 8703   3.523   4.873   9.056
 4960W        W 8704   8.892   1.373   3.019
 4961W        W 8705   1.891   3.381   8.906
 4962W        W 8706   2.671   0.760   9.467
 4963W        W 8707   7.117   9.811   3.094
 4964W        W 8708   4.189  10.353   1.304
 4965W        W 8709   8.355   0.507   2.180
 4966W        W 8710   2.369   7.249   2.180
 4967W        W 8711   9.242   6.515  11.634
 4968W        W 8712  10.414   8.879  11.377
 4969W        W 8713   4.096   0.804  11.858
 4970W        W 8714   2.281   3.795   2.145
 4971W        W 8715   3.146   5.705   8.766
 4972W        W 8716   0.481   5.933   9.511
 4973W        W 8717   0.832   6.639   3.369
 4974W        W 8718   5.646   2.364   1.344
 4975W        W 8719   2.136   0.356   9.091
 4976W        W 8720   8.993   9.951   0.053
 4977W        W 8721   0.930   6.602   9.812
 4978W        W 8722  10.473   6.586   1.051
 4979W        W 8723   9.460   4.631  11.839
 4980W        W 8724   5.939   6.065  11.041
 4981W        W 8725   6.604   5.035   1.728
 4982W        W 8726   8.492   7.913  11.463
 4983W        W 8727   5.681   0.203   2.760
 4984W        W 8728   6.194   1.672   3.273
 4985W        W 8729   0.610   3.076   3.174
 4986W        W 8730   6.595  10.240  10.603
 4987W        W 8731   5.545   3.829   9.949
 4988W        W 8732   9.873   8.220   2.365
 4989W        W 8733   5.986   6.411   2.882
 4990W        W 8734   5.207  10.366   1.071
 4991W        W 8735   5.573   1.758  11.020
 4992W        W 8736   5.270   8.892   8.838
 4993W        W 8737   8.303   0.504  10.919
 4994W        W 8738   5.074   8.844   9.872
 4995W        W 8739   8.849   1.866  11.153
 4996W        W 8740   3.210  10.088   2.356
 4997W        W 8741   9.565   0.993  10.499
 4998W        W 8742   1.657   7.188   1.390
 4999W        W 8743   5.745   7.578   8.355
 5000W        W 8744   4.689   4.108  11.389
 5001W        W 8745   1.233  10.233   1.367
 5002W        W 8746   3.484  10.447   0.729
 5003W        W 8747   6.569   9.100   2.642
 5004W        W 8748   5.895  10.356   3.076
 5005W        W 8749   4.833   8.324   8.525
 5006W        W 8750   2.661   1.578   1.774
 5007W        W 8751   1.882   2.606   0.260
 5008W        W 8752   1.711   8.907   0.889
 5009W        W 8753   2.261   8.487   9.896
 5010W        W 8754   7.574   6.028  11.312
 5011W        W 8755   8.885   3.749  10.085
 5012W        W 8756   0.891   6.538  10.709
 5013W        W 8757   5.186   8.513   3.318
 5014W        W 8758   4.570   3.260   2.275
 5015W        W 8759   7.619   6.462   8.534
 5016W        W 8760   0.272   4.257  10.946
 5017W        W 8761   0.422   3.414   9.589
 5018W        W 8762   5.503   8.528  11.319
 5019W        W 8763   5.302   1.158   2.021
 5020W        W 8764   6.431   6.797   3.619
 5021W        W 8765   4.240   3.855   3.204
 5022W        W 8766   5.240   1.874  11.732
 5023W        W 8767   1.801   8.165   2.792
 5024W        W 8768   6.473   7.816   9.031
 5025W        W 8769   8.871   5.241   2.805
 5026W        W 8770  10.322   8.824  10.529
 5027W        W 8771   0.569   9.811   0.754
 5028W        W 8772   1.190  10.495   2.640
 5029W        W 8773   7.940   2.492  11.517
 5030W        W 8774   5.131   7.728   2.201
 5031W        W 8775   2.730   6.400   9.437
 5032W        W 8776   2.869   0.354   2.491
 5033W        W 8777   7.430   2.158   2.596
 5034W        W 8778   5.113   9.384   9.012
 5035W        W 8779   1.345   4.849   8.880
 5036W        W 8780   9.448   3.839   2.057
 5037W        W 8781   1.364   7.610  10.331
 5038W        W 8782   9.461   8.538  10.886
 5039W        W 8783   5.113   3.014   9.913
 5040W        W 8784   9.796   5.020   9.010
 5041W        W 8785   0.688   4.384   9.521
 5042W        W 8786   7.820   0.839   9.357
 5043W        W 8787   8.920   7.998   0.722
 5044W        W 8788   9.884   1.346  11.692
 5045W        W 8789   0.006   7.833  10.378
 5046W        W 8790   3.108   1.491   2.991
 5047W        W 8791   8.620   8.696  11.022
 5048W        W 8792  10.428   7.659  11.920
 5049W        W 8793   4.260   7.239  11.949
 5050W        W 8794   5.349   2.389   0.142
 5051W        W 8795   0.272   2.556  11.293
 5052W        W 8796   6.191   8.359   0.904
 5053W        W 8797   6.973   6.867   1.949
 5054W        W 8798   4.793   1.310   0.248
 5055W        W 8799   3.246   8.203   0.033
 5056W        W 8800   0.474   4.641   3.064
 5057W        W 8801   4.760   0.256   1.065
 5058W        W 8802   2.152   0.675  11.033
 5059W        W 8803   9.794   3.131   0.553
 5060W        W 8804   0.568   8.864   2.587
 5061W        W 8805   6.128   2.416   0.442
 5062W        W 8806   2.634   9.106  11.507
 5063W        W 8807   5.703   6.355   0.436
 5064W        W 8808   0.192   7.921  10.865
 5065W        W 8809   0.948   9.930  10.898
 5066W        W 8810   6.141   9.387   2.695
 5067W        W 8811   6.985   6.992   3.006
 5068W        W 8812  10.310   6.258  11.750
 5069W        W 8813   3.264   7.359  11.290
 5070W        W 8814   1.722   1.244   2.498
 5071W        W 8815   0.379   2.665   2.218
 5072W        W 8816   7.439   0.433   0.763
 5073W        W 8817  10.021   7.392   2.625
 5074W        W 8818   8.911   3.816   1.234
 5075W        W 8819   6.973   9.599   8.996
 5076W        W 8820   1.213   0.427  10.907
 5077W        W 8821   6.731   4.188   3.601
 5078W        W 8822   9.844   6.687  10.431
 5079W        W 8823   9.766   3.160   2.460
 5080W        W 8824   1.886   9.455   0.831
 5081W        W 8825   9.987   2.726  10.602
 5082W        W 8826   0.896  10.472  10.090
 5083W        W 8827   6.116   0.129   3.463
 5084W        W 8828   9.361   8.066   0.480
 5085W        W 8829   1.802  10.249  10.043
 5086W        W 8830   3.109   4.957  10.390
 5087W        W 8831   2.572   9.427  10.235
 5088W        W 8832   3.639   4.118  10.485
 5089W        W 8833   2.394   8.590   0.942
 5090W        W 8834   6.098   3.914   2.199
 5091W        W 8835   3.189   8.137  10.952
 5092W        W 8836  10.168   9.465   3.477
 5093W        W 8837   3.666   1.371   8.739
 5094W        W 8838   5.996   5.500   2.414
 5095W        W 8839   5.990   3.245   1.432
 5096W        W 8840   4.113   6.087  11.086
 5097W        W 8841   4.735   8.955  11.513
 5098W        W 8842   2.164   4.450   9.457
 5099W        W 8843   7.458   3.764   8.491
 5100W        W 8844   4.760   7.391   2.389
 5101W        W 8845   8.375   5.552   2.657
 5102W        W 8846   5.036   8.854  11.916
 5103W        W 8847   7.109   3.189   9.410
 5104W        W 8848   0.387   7.894   3.208
 5105W        W 8849   4.363   2.774  11.373
 5106W        W 8850   9.888   3.190   1.460
 5107W        W 8851   3.745   3.622   3.380
 5108W        W 8852   2.973   9.800   0.779
 5109W        W 8853   2.515   4.890   9.523
 5110W        W 8854   2.732   1.315   2.233
 5111W        W 8855   6.188   1.370  11.052
 5112W        W 8856   2.616   3.246  10.332
 5113W        W 8857   4.343   7.491   8.932
 5114W        W 8858   6.541   7.355   3.668
 5115W        W 8859   1.349   6.063   2.181
 5116W        W 8860   9.236   5.950  10.303
 5117W        W 8861   5.089   9.461   1.664
 5118W        W 8862   3.867   1.152   3.418
 5119W        W 8863   3.661   9.633   9.481
 5120W        W 8864   9.685   0.454   2.365
 5121W        W 8865   5.172   2.314  11.400
 5122W        W 8866   1.965   1.708   1.016
 5123W        W 8867   7.054   9.409   2.313
 5124W        W 8868   9.308  10.419   8.746
 5125W        W 8869   5.095   5.609   1.658
 5126W        W 8870   1.467   7.130   9.310
 5127W        W 8871   8.860   0.900   0.324
 5128W        W 8872   9.411   7.552   9.688
 5129W        W 8873   9.091   0.892   1.244
 5130W        W 8874   6.564   6.211   1.346
 5131W        W 8875   0.851   4.822  11.823
 5132W        W 8876   6.583   3.564  11.230
 5133W        W 8877   8.835   7.196   1.150
 5134W        W 8878   6.454   8.392  11.372
 5135W        W 8879   4.282   0.354   8.896
 5136W        W 8880   9.376   3.656  11.953
 5137W        W 8881   2.453   0.907   0.493
 5138W        W 8882   1.227   0.032   2.146
 5139W        W 8883   8.256  10.500   9.257
 5140W        W 8884   8.232   1.404   2.697
 5141W        W 8885   4.054   7.503   8.504
 5142W        W 8886   2.403   6.508  10.586
 5143W        W 8887   5.744   6.524   9.871
 5144W        W 8888   3.318   6.455   0.614
 5145W        W 8889   4.751   1.170   9.815
 5146W        W 8890   6.694   6.467  10.770
 5147W        W 8891   2.286   6.950  10.972
 5148W        W 8892   3.609   7.675   0.262
 5149W        W 8893   5.199   4.175  11.779
 5150W        W 8894   0.445   7.027   3.329
 5151W        W 8895   6.553   0.713  11.494
 5152W        W 8896   2.741   5.558   0.260
 5153W        W 8897   3.787   0.554   8.806
 5154W        W 8898   4.607   7.835   1.069
 5155W        W 8899   8.595   2.898  11.814
 5156W        W 8900   8.926   7.272   8.443
 5157W        W 8901   4.589   6.287   9.449
 5158W        W 8902  10.064  10.247   9.979
 5159W        W 8903   1.914   5.256  11.355
 5160W        W 8904  10.077   4.006   0.867
 5161W        W 8905   8.031   5.902   1.908
 5162W        W 8906   1.994   0.020   1.653
 5163W        W 8907   6.156   0.761   1.649
 5164W        W 8908   4.310   7.191   2.461
 5165W        W 8909   2.198   1.117   2.296
 5166W        W 8910   7.657   5.972   8.407
 5167W        W 8911   7.666   4.610   0.273
 5168W        W 8912   2.716   8.140   8.884
 5169W        W 8913   6.934   5.882   1.443
 5170W        W 8914   9.083   9.438   9.324
 5171W        W 8915   7.461   2.583   0.462
 5172W        W 8916   5.571   1.203   2.780
 5173W        W 8917   0.168   6.101  10.784
 5174W        W 8918   4.181   2.402  10.619
 5175W        W 8919   3.145   9.988   3.434
 5176W        W 8920   6.107   7.908   9.389
 5177W        W 8921   1.444   7.562   0.628
 5178W        W 8922   8.143   6.976  11.351
 5179W        W 8923   5.169   2.691  11.758
 5180W        W 8924   0.382   3.606  11.902
 5181W        W 8925   4.581   7.531   3.861
 5182W        W 8926   8.937   2.664   2.329
 5183W        W 8927   2.716   5.461  10.779
 5184W        W 8928   6.965   2.625   3.018
 5185W        W 8929   0.349   7.974  11.758
 5186W        W 8930  10.254   1.673   0.408
 5187W        W 8931   1.379   6.241   1.179
 5188W        W 8932   2.454   3.776   0.016
 5189W        W 8933   2.683   3.220   0.812
 5190W        W 8934   8.530   8.131   2.045
 5191W        W 8935   6.553   0.421   9.271
 5192W        W 8936   3.092   3.125  11.915
 5193W        W 8937   2.380   2.992  11.517
 5194W        W 8938   0.296   2.334   0.197
 5195W        W 8939   4.873   8.843   0.413
 5196W        W 8940   6.690   7.713   2.494
 5197W        W 8941   4.779   0.818  11.333
 5198W        W 8942   1.925   1.374  10.899
 5199W        W 8943   9.572   4.210  10.928
 5200W        W 8944   3.743   1.894  10.048
 5201W        W 8945   0.955  10.283  10.546
 5202W        W 8946   7.448   1.335   1.203
 5203W        W 8947   5.129   8.813  10.534
 5204W        W 8948   5.753   8.440   8.648
 5205W        W 8949   8.152   0.891   0.695
 5206W        W 8950   4.547   4.259   3.193
 5207W        W 8951   8.452   9.981   2.509
 5208W        W 8952  10.407   8.797   0.301
 5209W        W 8953   1.903   9.004   2.274
 5210W        W 8954   5.740   6.913  11.913
 5211W        W 8955   4.642   2.327   1.498
 5212W        W 8956   5.137   4.795   9.779
 5213W        W 8957   3.363   8.872  10.316
 5214W        W 8958   2.893   0.966   9.896
 5215W        W 8959   6.967   3.760  11.544
 5216W        W 8960   1.398   2.463   8.836
 5217W        W 8961   3.760   7.053   1.773
 5218W        W 8962  10.356   9.931   0.667
 5219W        W 8963   2.681  10.364   1.258
 5220W        W 8964   3.635   9.631   2.009
 5221W        W 8965   5.470   4.608  11.887
 5222W        W 8966   1.670   4.109   2.136
 5223W        W 8967  10.441   5.549   1.857
 5224W        W 8968   0.453   7.169   9.787
 5225W        W 8969   2.469   7.416   8.632
 5226W        W 8970   2.629   4.971  10.708
 5227W        W 8971   5.322   0.318   9.602
 5228W        W 8972   0.763   8.788  10.849
 5229W        W 8973   9.515   0.951   2.433
 5230W        W 8974   4.328   0.369   9.397
 5231W        W 8975   9.758   1.821   1.954
 5232W        W 8976   8.092   6.644   1.085
 5233W        W 8977   6.555   6.704  11.728
 5234W        W 8978   0.536   5.575   8.811
 5235W        W 8979   3.274   1.981   0.412
 5236W        W 8980   5.447   8.889  10.985
 5237W        W 8981   0.943   8.972   8.638
 5238W        W 8982   9.321   8.941  11.503
 5239W        W 8983   6.102   0.870   0.664
 5240W        W 8984   6.123   6.611   1.737
 5241W        W 8985   1.190   1.787   9.339
 5242W        W 8986   5.478   8.004   8.572
 5243W        W 8987   4.794   3.155   1.824
 5244W        W 8988   0.025   1.321   9.010
 5245W        W 8989   2.911   5.700   2.595
 5246W        W 8990   9.396   7.037   1.945
 5247W        W 8991   0.081   7.624   2.811
 5248W        W 8992   0.338   0.016   2.680
 5249W        W 8993   2.417   8.935  10.479
 5250W        W 8994   9.617   9.443   9.487
 5251W        W 8995   7.672   8.086   9.433
 5252W        W 8996   6.402   3.912   8.658
 5253W        W 8997   8.834   2.399  10.116
 5254W        W 8998   2.936   3.713   0.209
 5255W        W 8999   3.485   3.000   1.405
 5256W        W 9000   7.578   0.064   3.352
 5257W        W 9001   1.366   3.746   3.235
 5258W        W 9002   8.723   0.854   9.559
 5259W        W 9003   4.631   5.957   2.272
 5260W        W 9004   2.705   5.360   9.460
 5261W        W 9005   6.475   1.800  10.987
 5262W        W 9006   5.663   9.973  10.595
 5263W        W 9007   1.681   9.899   2.121
 5264W        W 9008   4.244   5.273   2.078
 5265W        W 9009   5.518   8.830  10.090
 5266W        W 9010   5.414   7.136   8.220
 5267W        W 9011   5.535   8.901  11.923
 5268W        W 9012   3.077   4.250   1.865
 5269W        W 9013   1.674   6.002   3.019
 5270W        W 9014   3.007   7.448   9.394
 5271W        W 9015   3.585   6.104   3.620
 5272W        W 9016   9.407   8.905   1.409
 5273W        W 9017   0.296  10.271   9.502
 5274W        W 9018   1.485   7.372   2.615
 5275W        W 9019   8.833   2.226   2.668
 5276W        W 9020   6.589   1.080   2.507
 5277W        W 9021   6.200  10.152   9.506
 5278W        W 9022   8.347   9.045  10.743
 5279W        W 9023   0.576   8.224   0.147
 5280W        W 9024   2.325   1.682   1.372
 5281W        W 9025  10.489   6.736   0.090
 5282W        W 9026   4.335   6.078   0.231
 5283W        W 9027   2.922   9.882   9.520
 5284W        W 9028   7.001   5.820   2.155
 5285W        W 9029   9.070   5.068  10.039
 5286W        W 9030  10.278   4.853   0.853
 5287W        W 9031   2.510   9.931   0.970
 5288W        W 9032   4.290   2.098   0.943
 5289W        W 9033   0.792   1.862   8.864
 5290W        W 9034   6.485   3.229   1.504
 5291W        W 9035   5.302   3.334   8.565
 5292W        W 9036   5.427   9.894   3.813
 5293W        W 9037   5.110   9.008   1.453
 5294W        W 9038   5.222   2.880   3.919
 5295W        W 9039   7.929   1.807   0.262
 5296W        W 9040   7.860   6.378   2.022
 5297W        W 9041   1.659   6.035  10.857
 5298W        W 9042   0.313   0.915   8.885
 5299W        W 9043   5.771   2.864   1.103
 5300W        W 9044   8.640   5.703   8.407
 5301W        W 9045   0.542   5.499   0.456
 5302W        W 9046   7.523   4.694   3.620
 5303W        W 9047   7.966   5.711   0.865
 5304W        W 9048   7.892   2.313   0.967
 5305W        W 9049   0.296  10.376  11.184
 5306W        W 9050   8.191   5.888   3.364
 5307W        W 9051   7.003   8.070  10.438
 5308W        W 9052   7.951  10.258   1.741
 5309W        W 9053   6.118  10.383   0.685
 5310W        W 9054   7.325   4.523   9.972
 5311W        W 9055   3.560   2.630   0.972
 5312W        W 9056   4.717   2.273   3.410
 5313W        W 9057   3.906   3.953   2.408
 5314W        W 9058   2.348   7.025  10.113
 5315W        W 9059   7.473  10.048   9.794
 5316W        W 9060   1.350   1.872   2.477
 5317W        W 9061   5.779   4.652   1.896
 5318W        W 9062   9.498   2.651  11.468
 5319W        W 9063   3.161   3.493   0.735
 5320W        W 9064   9.495   3.889   2.917
 5321W        W 9065   5.715   4.635   2.407
 5322W        W 9066   0.486   3.809   2.609
 5323W        W 9067   4.153   7.321  11.470
 5324W        W 9068   8.404   4.305   2.317
 5325W        W 9069   0.018   5.696   0.705
 5326W        W 9070   0.891   0.129   9.589
 5327W        W 9071   8.511   5.752  10.056
 5328W        W 9072  10.486   2.623  10.435
 5329W        W 9073   5.614   1.499   1.757
 5330W        W 9074   8.910   6.476   8.715
 5331W        W 9075   7.920   4.933   1.092
 5332W        W 9076   7.491   4.430   4.046
 5333W        W 9077   3.789   5.407   2.209
 5334W        W 9078  10.302   1.386  11.964
 5335W        W 9079   8.987   8.397   2.056
 5336W        W 9080   5.550   3.936   9.077
 5337W        W 9081   8.069   9.368   1.347
 5338W        W 9082   8.909   4.184   9.557
 5339W        W 9083   9.006   8.603   9.960
 5340W        W 9084   3.783   3.097   8.733
 5341W        W 9085   7.023   6.938   2.480
 5342W        W 9086   5.499  10.064   8.625
 5343W        W 9087   7.650   9.259  11.445
 5344W        W 9088   9.222   7.003   1.467
 5345W        W 9089   0.167   5.050   2.875
 5346W        W 9090   6.754   6.553   9.787
 5347W        W 9091   9.754   9.377   3.145
 5348W        W 9092   9.568   6.953   2.599
 5349W        W 9093   4.207   6.372  10.626
 5350W        W 9094   3.793   0.512   2.009
 5351W        W 9095   5.844   3.248   8.552
 5352W        W 9096   8.545   4.313   0.301
 5353W        W 9097   8.592   5.193  10.935
 5354W        W 9098   0.249   5.092   9.297
 5355W        W 9099   5.540   6.159   9.221
 5356W        W 9100   9.243   0.051   2.456
 5357W        W 9101   7.130   8.956   1.486
 5358W        W 9102   9.348   4.612   3.374
 5359W        W 9103   5.071   6.030  10.568
 5360W        W 9104   1.390   4.616   1.665
 5361W        W 9105   9.205  10.478   1.210
 5362W        W 9106   0.275   3.183   1.428
 5363W        W 9107   7.000   0.703  11.842
 5364W        W 9108   0.288   3.645   1.196
 5365W        W 9109   0.892   6.527  11.901
 5366W        W 9110   0.504   3.574   0.743
 5367W        W 9111   0.571   9.627  11.269
 5368W        W 9112   3.312   1.802   9.270
 5369W        W 9113   1.428  10.480  10.777
 5370W        W 9114   4.954   1.945   1.468
 5371W        W 9115   4.919   8.050   3.197
 5372W        W 9116   3.204   2.294   9.106
 5373W        W 9117   5.425   5.609  10.488
 5374W        W 9118  10.382   3.991   1.303
 5375W        W 9119   7.581   5.311   0.889
 5376W        W 9120   1.985   6.385  10.272
 5377W        W 9121   6.977   4.721  10.874
 5378W        W 9122   0.794  10.011   1.518
 5379W        W 9123   5.626   3.617   9.471
 5380W        W 9124  10.321   0.359  11.408
 5381W        W 9125   6.479   1.128   1.468
 5382W        W 9126   3.713   8.554   9.474
 5383W        W 9127   6.430   0.930  10.976
 5384W        W 9128   0.980   1.856   0.786
 5385W        W 9129   1.292   2.696   9.821
 5386W        W 9130   6.162   6.439   0.697
 5387W        W 9131   2.803   6.524   1.209
 5388W        W 9132   2.989   3.197   3.578
 5389W        W 9133  10.356   1.295  11.451
 5390W        W 9134   9.166   6.213   0.474
 5391W        W 9135  10.056   1.096   3.101
 5392W        W 9136   8.558   5.230  10.069
 5393W        W 9137   3.731   7.393  11.017
 5394W        W 9138   8.004   0.874  11.744
 5395W        W 9139   8.868   4.043   2.152
 5396W        W 9140   7.973  10.242   3.191
 5397W        W 9141   3.600  10.459   9.769
 5398W        W 9142   0.889   7.207  11.996
 5399W        W 9143   7.487   8.541   9.545
 5400W        W 9144   3.673   4.598   9.765
 5401W        W 9145   9.024   1.358  11.198
 5402W        W 9146   7.658   8.641   2.697
 5403W        W 9147   1.889   6.875   0.969
 5404W        W 9148   3.833   0.363  10.336
 5405W        W 9149   9.132   4.002  10.976
 5406W        W 9150   9.807   9.622  10.297
 5407W        W 9151   5.050   6.019   2.950
 5408W        W 9152   3.715   9.201   0.519
 5409W        W 9153   8.480   7.966   0.462
 5410W        W 9154   9.766   4.642   9.411
 5411W        W 9155   7.509   2.448   2.195
 5412W        W 9156   7.810   4.385  11.330
 5413W        W 9157   8.457   4.784   2.126
 5414W        W 9158   8.920   1.800   2.324
 5415W        W 9159   1.591   4.184   9.441
 5416W        W 9160   5.546   5.354   1.773
 5417W        W 9161   5.433   4.131   0.282
 5418W        W 9162   8.989   1.254  10.699
 5419W        W 9163   3.091   6.882  11.276
 5420W        W 9164   9.788   7.812   2.794
 5421W        W 9165   4.128   3.553   1.179
 5422W        W 9166   1.331   4.815  10.123
 5423W        W 9167   2.348   9.197   0.238
 5424W        W 9168   5.670   2.712   0.420
 5425W        W 9169   3.116   5.175   0.932
 5426W        W 9170   8.779   6.310   0.817
 5427W        W 9171   7.664  10.041   2.823
 5428W        W 9172   1.829   5.463   9.687
 5429W        W 9173   8.767   8.336   3.574
 5430W        W 9174   9.211   0.296  11.944
 5431W        W 9175   4.170   1.242   2.790
 5432W        W 9176   0.733   9.988   0.278
 5433W        W 9177   7.891   0.485   0.514
 5434W        W 9178   1.856  10.394  11.022
 5435W        W 9179   0.411   2.454   2.668
 5436W        W 9180   4.306   5.527   0.938
 5437W        W 9181   5.514   8.849   9.589
 5438W        W 9182   5.626   5.433   8.965
 5439W        W 9183   3.410   4.086   2.270
 5440W        W 9184   6.665   7.927  11.274
 5441W        W 9185   7.788   5.206  10.495
 5442W        W 9186   3.249   9.512   1.157
 5443W        W 9187   1.659   0.230  10.013
 5444W        W 9188   4.943   5.765  11.388
 5445W        W 9189   6.467   8.098   3.274
 5446W        W 9190   2.326   4.630   1.666
 5447W        W 9191   9.994   0.968   0.014
 5448W        W 9192   4.974   7.584  11.585
 5449W        W 9193   5.375   1.669   1.324
 5450W        W 9194   2.819   3.393   1.574
 5451W        W 9195   1.404   0.387  10.433
 5452W        W 9196   4.670   8.086  10.537
 5453W        W 9197   1.613   3.026   0.230
 5454W        W 9198   5.544   8.296  10.879
 5455W        W 9199   7.626   7.403   1.704
 5456W        W 9200   2.696   8.458   2.407
 5457W        W 9201   1.819   2.203   0.967
 5458W        W 9202   3.402   3.818   0.383
 5459W        W 9203   8.525   2.314   9.290
 5460W        W 9204   1.618   1.345  11.323
 5461W        W 9205   3.582   1.894   3.024
 5462W        W 9206   1.167   9.510  10.402
 5463W        W 9207   1.745   0.180   8.546
 5464W        W 9208   0.183   9.221  10.460
 5465W        W 9209   3.895  10.438   2.671
 5466W        W 9210   4.420   7.592   2.742
 5467W        W 9211   0.711   3.314   1.157
 5468W        W 9212   3.629   5.690   1.752
 5469W        W 9213   4.100   9.368   9.345
 5470W        W 9214   4.062   7.516  10.624
 5471W        W 9215   1.948   1.407   3.471
 5472W        W 9216   5.028  10.039   3.434
 5473W        W 9217   0.216   7.402   2.334
 5474W        W 9218   1.800   5.460   2.184
 5475W        W 9219   4.676   0.680   9.053
 5476W        W 9220   0.458   3.854   3.118
 5477W        W 9221   4.327   5.138   9.549
 5478W        W 9222   1.878   2.862   8.337
 5479W        W 9223   8.182   5.040  11.800
 5480W        W 9224   8.048   8.638   0.766
 5481W        W 9225   3.242   7.377  10.352
 5482W        W 9226   7.044   0.728   3.135
 5483W        W 9227   0.706   3.083  10.918
 5484W        W 9228  10.468   9.424   1.986
 5485W        W 9229   6.137   9.129   3.437
 5486W        W 9230   1.099   0.418   9.176
 5487W        W 9231   6.166   6.187   2.043
 5488W        W 9232   4.073   9.653   3.341
 5489W        W 9233   7.041   4.587   3.751
 5490W        W 9234   9.323   3.367   9.829
 5491W        W 9235   4.572   4.154  10.888
 5492W        W 9236   5.056   2.377   9.483
 5493W        W 9237   1.221   4.223  11.030
 5494W        W 9238   8.592   6.910   8.653
 5495W        W 9239   9.351   0.867   8.930
 5496W        W 9240   8.864   1.724   8.837
 5497W        W 9241   5.080   6.104   9.541
 5498W        W 9242   6.126   1.959   0.235
 5499W        W 9243   0.839   6.318   2.970
 5500W        W 9244   4.209   3.599  11.729
 5501W        W 9245   3.247   6.167   8.554
 5502W        W 9246   0.683   8.894   9.107
 5503W        W 9247   5.774   1.731   8.367
 5504W        W 9248   4.578   9.266   0.458
 5505W        W 9249   0.966   1.753   0.105
 5506W        W 9250  10.394   4.475   2.551
 5507W        W 9251   8.621   7.559   0.836
 5508W        W 9252   9.366   1.529   9.541
 5509W        W 9253   9.889   1.339  11.191
 5510W        W 9254   4.294   3.117   2.747
 5511W        W 9255   2.876   2.164  10.341
 5512W        W 9256   4.269   5.231   1.405
 5513W        W 9257   7.601   8.803   0.583
 5514W        W 9258   4.792   1.690  10.361
 5515W        W 9259   6.175   7.574   8.064
 5516W        W 9260   9.286   6.246   0.958
 5517W        W 9261   8.479   6.078   2.653
 5518W        W 9262   3.215   7.136   1.156
 5519W        W 9263   2.793   9.754   2.263
 5520W        W 9264   9.447   3.549   2.500
 5521W        W 9265   6.427   2.309  10.975
 5522W        W 9266   6.163   9.675  11.834
 5523W        W 9267   6.463   2.157  11.454
 5524W        W 9268   5.958   4.663  11.741
 5525W        W 9269   7.179   6.702   8.368
 5526W        W 9270   7.130   1.965  11.502
 5527W        W 9271   1.477   7.913   1.918
 5528W        W 9272   9.077   6.996  11.725
 5529W        W 9273   9.175   2.228  10.940
 5530W        W 9274   0.441   6.940  11.875
 5531W        W 9275   7.439   8.004   2.252
 5532W        W 9276   1.189   9.934   0.495
 5533W        W 9277   0.452   7.644   1.879
 5534W        W 9278   3.376   3.655  10.880
 5535W        W 9279   5.767  10.289  10.993
 5536W        W 9280   2.647   8.824  11.962
 5537W        W 9281   1.292   0.956   2.604
 5538W        W 9282   4.617  10.379   3.326
 5539W        W 9283   9.102   8.886  11.053
 5540W        W 9284   2.205   2.540   9.239
 5541W        W 9285   9.415   8.170   3.103
 5542W        W 9286   6.407   5.355  10.427
 5543W        W 9287   6.560   1.736   0.383
 5544W        W 9288   3.267   2.364  10.645
 5545W        W 9289   5.674   8.355   9.963
 5546W        W 9290   7.445   1.483   2.680
 5547W        W 9291   7.873   7.981  10.280
 5548W        W 9292  10.289   2.769   9.358
 5549W        W 9293   1.666   5.054  10.960
 5550W        W 9294   7.147   9.764   3.624
 5551W        W 9295   1.257   4.176   0.931
 5552W        W 9296   9.815   2.778   9.539
 5553W        W 9297   0.857   0.433   1.425
 5554W        W 9298   6.614   0.751   8.868
 5555W        W 9299   4.762  10.083   1.706
 5556W        W 9300   7.524   9.046   3.506
 5557W        W 9301   9.195   1.304   3.416
 5558W        W 9302   8.042   8.015   2.263
 5559W        W 9303   5.700   2.728   2.484
 5560W        W 9304   1.957   9.108   3.352
 5561W        W 9305   7.161   9.725  11.968
 5562W        W 9306   0.693   0.063  11.432
 5563W        W 9307   8.517   3.203   1.394
 5564W        W 9308   9.024   6.043  11.463
 5565W        W 9309   8.318   2.451  10.787
 5566W        W 9310   3.264   7.297   0.214
 5567W        W 9311   8.316   7.131   0.716
 5568W        W 9312   4.211   0.339   1.742
 5569W        W 9313   0.813   4.764   1.503
 5570W        W 9314   0.969  10.174   8.515
 5571W        W 9315   3.413  10.003   0.968
 5572W        W 9316   5.640   4.115   1.217
 5573W        W 9317   7.380   3.169  10.692
 5574W        W 9318   3.645   3.522   2.430
 5575W        W 9319   7.998   9.772   3.385
 5576W        W 9320   9.837   4.718   2.391
 5577W        W 9321   6.529   6.083   0.662
 5578W        W 9322   9.985   4.480  10.988
 5579W        W 9323  10.326   6.129  11.219
 5580W        W 9324   4.192   0.842   8.990
 5581W        W 9325   1.830   7.374   0.919
 5582W        W 9326   4.266   9.494   1.061
 5583W        W 9327   0.869   2.255  11.975
 5584W        W 9328   5.619   7.239   2.811
 5585W        W 9329   4.730   6.463  10.809
 5586W        W 9330   5.561   2.692  11.394
 5587W        W 9331   7.472   8.947   1.056
 5588W        W 9332   2.828   9.064   0.385
 5589W        W 9333   8.103   4.201   3.155
 5590W        W 9334   8.086   5.113   2.594
 5591W        W 9335   6.558   2.657  11.361
 5592W        W 9336   8.085   4.976   1.587
 5593W        W 9337   1.359   1.690   1.184
 5594W        W 9338   9.736   2.241   2.237
 5595W        W 9339   8.345   2.419  10.286
 5596W        W 9340   3.729   0.453   9.847
 5597W        W 9341   8.820   3.156   2.446
 5598W        W 9342   4.000   9.432   8.466
 5599W        W 9343   7.509   1.935   2.140
 5600W        W 9344   8.949   2.637   0.243
 5601W        W 9345   7.044   6.937  11.714
 5602W        W 9346   5.057   2.370  10.488
 5603W        W 9347   5.988   7.918   2.406
 5604W        W 9348   0.044   2.401   0.965
 5605W        W 9349   6.252   4.655   1.578
 5606W        W 9350   2.450   3.447   2.915
 5607W        W 9351   1.962   4.532   3.301
 5608W        W 9352   7.660   6.448   3.393
 5609W        W 9353   7.093  10.187  10.930
 5610W        W 9354   2.212  10.334   9.272
 5611W        W 9355   7.884   0.289   9.516
 5612W        W 9356   2.951   8.533   3.342
 5613W        W 9357   3.125   0.689  10.927
 5614W        W 9358   2.402  10.244   1.678
 5615W        W 9359   8.600   9.355   9.084
 5616W        W 9360   0.727  10.083  11.338
 5617W        W 9361   7.595   2.825  10.377
 5618W        W 9362   8.500   6.426   9.550
 5619W        W 9363   6.949  10.422   1.214
 5620W        W 9364   4.549   0.358  11.056
 5621W        W 9365   0.378   4.508   1.424
 5622W        W 9366   0.725  10.265  11.838
 5623W        W 9367   2.734   8.574   9.177
 5624W        W 9368   3.043   4.201   0.323
 5625W        W 9369   4.597   0.101   1.526
 5626W        W 9370   0.426   9.376   1.760
 5627W        W 9371   0.990   4.636   9.180
 5628W        W 9372  10.201   2.242  10.655
 5629W        W 9373   7.039   9.900  10.021
 5630W        W 9374   4.632   7.205  11.592
 5631W        W 9375   5.546   3.085  10.646
 5632W        W 9376  10.305   1.558   1.328
 5633W        W 9377   4.098   2.598   0.960
 5634W        W 9378   0.928   2.199   3.241
 5635W        W 9379   1.773   0.743  11.405
 5636W        W 9380   3.185   8.700  11.943
 5637W        W 9381   5.834   8.077   4.068
 5638W        W 9382   8.457   8.493   1.255
 5639W        W 9383   8.633   5.290  11.800
 5640W        W 9384   2.286   4.548  11.696
 5641W        W 9385   9.363   4.206  10.467
 5642W        W 9386   2.450   2.865   8.489
 5643W        W 9387   5.573   7.539   9.351
 5644W        W 9388   6.525   3.417   1.028
 5645W        W 9389   8.069   1.643   9.767
 5646W        W 9390   3.276   3.281   1.770
 5647W        W 9391   4.828  10.335   0.724
 5648W        W 9392   1.777   4.694   0.931
 5649W        W 9393   2.606   4.277   2.850
 5650W        W 9394   1.324   1.950   8.873
 5651W        W 9395   4.729   0.440   2.451
 5652W        W 9396   5.754   5.998   3.156
 5653W        W 9397   1.752   4.346  11.769
 5654W        W 9398   4.701   8.023  11.082
 5655W        W 9399   0.851   5.708  10.226
 5656W        W 9400   0.450  10.213  10.382
 5657W        W 9401   2.357   6.980   1.725
 5658W        W 9402   9.767   8.593  10.441
 5659W        W 9403   3.849  10.032   1.667
 5660W        W 9404   5.076   2.550   2.713
 5661W        W 9405   5.191   1.652   8.735
 5662W        W 9406   8.297   0.711   3.135
 5663W        W 9407   7.009   1.213   1.901
 5664W        W 9408   9.115   2.203  11.985
 5665W        W 9409   2.300   9.443   2.224
 5666W        W 9410   3.356   0.934   8.705
 5667W        W 9411   5.297   8.486   1.500
 5668W        W 9412   2.485   6.147   0.466
 5669W        W 9413   3.098   0.793  11.909
 5670W        W 9414   7.460   0.652  11.390
 5671W        W 9415   0.533   6.048   2.210
 5672W        W 9416   7.328   6.112   3.183
 5673W        W 9417   5.634   4.096  10.981
 5674W        W 9418   4.365   8.571   1.320
 5675W        W 9419  10.374   7.028  11.243
 5676W        W 9420   5.905   7.076  10.466
 5677W        W 9421   5.004   8.012   0.812
 5678W        W 9422   6.453   3.647   9.902
 5679W        W 9423   1.708   3.567   9.346
 5680W        W 9424   2.771   1.896   0.433
 5681W        W 9425   2.879   6.939   9.398
 5682W        W 9426   0.873   6.632   8.953
 5683W        W 9427   7.953   2.672   2.360
 5684W        W 9428   4.020   2.658   2.733
 5685W        W 9429   0.939   6.174   2.473
 5686W        W 9430  10.288   7.913   0.415
 5687W        W 9431   8.558   0.279   3.250
 5688W        W 9432   0.135   0.822   3.239
 5689W        W 9433   3.472   0.506   3.503
 5690W        W 9434   4.631   4.094   7.858
 5691W        W 9435   7.353   6.551   0.335
 5692W        W 9436   3.214   9.946   2.908
 5693W        W 9437   6.938   9.821   2.610
 5694W        W 9438   7.677   1.866   2.924
 5695W        W 9439  10.406   8.905   9.686
 5696W        W 9440   3.827   2.763  10.557
 5697W        W 9441   9.385   9.103   0.012
 5698W        W 9442  10.498   2.661   8.637
 5699W        W 9443   8.872   5.806   0.327
 5700W        W 9444   5.010   0.851   2.625
 5701W        W 9445   6.629   6.457   1.818
 5702W        W 9446   8.965   7.442   1.575
 5703W        W 9447   5.340   2.747   3.438
 5704W        W 9448  10.026   0.878   9.588
 5705W        W 9449   2.412   5.712   3.188
 5706W        W 9450   6.501   1.088   1.998
 5707W        W 9451   2.703   8.368   2.918
 5708W        W 9452   7.874   7.434  11.532
 5709W        W 9453   6.219   1.991   2.868
 5710W        W 9454   4.157   7.106   1.469
 5711W        W 9455   8.856   8.863   3.381
 5712W        W 9456   3.403   2.692   2.553
 5713W        W 9457   2.935   0.671   8.532
 5714W        W 9458   9.361   3.053   9.414
 5715W        W 9459   8.825   7.501   3.059
 5716W        W 9460   5.144   5.243   9.053
 5717W        W 9461   9.738   5.598  11.688
 5718W        W 9462  10.156   2.075   3.171
 5719W        W 9463  10.456   2.693   2.613
 5720W        W 9464   6.424   6.059  10.867
 5721W        W 9465   7.317   9.607   8.437
 5722W        W 9466   8.597   4.506   0.796
 5723W        W 9467   4.208   3.118   0.904
 5724W        W 9468   4.392   9.450   2.848
 5725W        W 9469   6.156   8.593   3.391
 5726W        W 9470   7.427   0.004   8.866
 5727W        W 9471   9.401   7.950   0.980
 5728W        W 9472   4.750   4.541   9.061
 5729W        W 9473   2.879   6.700  10.308
 5730W        W 9474   3.550   2.393   0.491
 5731W        W 9475   1.407   8.590   0.142
 5732W        W 9476  10.045   6.477   0.136
 5733W        W 9477   6.215  10.021  10.868
 5734W        W 9478   1.792   8.322   3.595
 5735W        W 9479   4.578   9.073   1.336
 5736W        W 9480   9.028   9.096   0.434
 5737W        W 9481   7.377   3.246   1.363
 5738W        W 9482   5.937   2.615   9.393
 5739W        W 9483   3.627   6.242   8.919
 5740W        W 9484   8.075   2.838   9.731
 5741W        W 9485   0.235   3.038  11.416
 5742W        W 9486   2.098   3.441  10.146
 5743W        W 9487   0.874   2.376  11.446
 5744W        W 9488   1.827   3.377   1.035
 5745W        W 9489   1.731   4.147   1.119
 5746W        W 9490   9.737   4.281   2.119
 5747W        W 9491   1.027   0.464   3.237
 5748W        W 9492   2.705   5.885   8.564
 5749W        W 9493   6.146   1.753   8.771
 5750W        W 9494   9.457   5.486   8.873
 5751W        W 9495   4.065   0.930   2.367
 5752W        W 9496   2.398   4.260   2.369
 5753W        W 9497   8.898   9.962   9.550
 5754W        W 9498   8.713   2.372  11.087
 5755W        W 9499   6.006   3.866   9.270
 5756W        W 9500   1.612   0.788   3.257
 5757W        W 9501   1.440   4.605   2.193
 5758W        W 9502   2.262   2.328  10.649
 5759W        W 9503   6.160   9.391  10.020
 5760W        W 9504   8.990   8.872   2.293
 5761W        W 9505   9.405   7.289  11.488
 5762W        W 9506   1.116   7.930   9.989
 5763W        W 9507   9.285   5.052   0.744
 5764W        W 9508   3.685   3.668   0.906
 5765W        W 9509   9.933   9.539   2.123
 5766W        W 9510   9.571   4.823   3.811
 5767W        W 9511   6.912   6.546   3.777
 5768W        W 9512   9.490   4.810   2.792
 5769W        W 9513   3.349   3.215   9.587
 5770W        W 9514   7.449   2.326   3.078
 5771W        W 9515   4.077   8.233  11.780
 5772W        W 9516   8.966   7.461   8.918
 5773W        W 9517   2.505   0.711  10.090
 5774W        W 9518   9.451   9.085   2.841
 5775W        W 9519   0.201   9.547   2.806
 5776W        W 9520   8.270   6.236   9.996
 5777W        W 9521  10.002   4.530   8.973
 5778W        W 9522   8.397   6.987   1.885
 5779W        W 9523  10.277   4.073   1.848
 5780W        W 9524   1.758   0.777   2.726
 5781W        W 9525   0.998   9.969   1.008
 5782W        W 9526   5.794   0.334   9.732
 5783W        W 9527   3.682   2.252   2.669
 5784W        W 9528   2.352   6.239   1.283
 5785W        W 9529   2.318   3.009   9.376
 5786W        W 9530   9.733   7.662  10.638
 5787W        W 9531   4.623   1.354   1.584
 5788W        W 9532   2.415   9.376  10.747
 5789W        W 9533   9.366   5.838   2.710
 5790W        W 9534   9.470   0.278   1.524
 5791W        W 9535   5.921   6.893   0.745
 5792W        W 9536   7.592   4.627   8.620
 5793W        W 9537   3.132   7.044   9.990
 5794W        W 9538   1.828   9.417   1.968
 5795W        W 9539   5.572   9.948   2.220
 5796W        W 9540   9.106   7.211   0.186
 5797W        W 9541   5.116   5.576   2.671
 5798W        W 9542   6.529   0.295  10.476
 5799W        W 9543   2.262   4.971  10.316
 5800W        W 9544   8.512   8.414   0.726
 5801W        W 9545   9.852   2.655   0.402
 5802W        W 9546   9.585   0.774   1.400
 5803W        W 9547   8.341   0.504  11.798
 5804W        W 9548   7.536   0.585  10.459
 5805W        W 9549   8.146   7.956   9.324
 5806W        W 9550   2.255   0.194  10.915
 5807W        W 9551   2.314   1.597   2.176
 5808W        W 9552   1.792   9.604   3.460
 5809W        W 9553   1.165   9.060  10.687
 5810W        W 9554   6.478   7.804  10.307
 5811W        W 9555   3.634   5.139   0.227
 5812W        W 9556   8.055   6.918  10.845
 5813W        W 9557   6.498   3.244   9.111
 5814W        W 9558   9.120   4.378   8.312
 5815W        W 9559   4.174   5.731   2.334
 5816W        W 9560   0.725   7.487   3.176
 5817W        W 9561   0.686   2.129   0.449
 5818W        W 9562   7.586   1.833   1.140
 5819W        W 9563   3.287   4.184   3.589
 5820W        W 9564   5.971   8.060   8.345
 5821W        W 9565   9.600   5.059  10.051
 5822W        W 9566   8.667   5.831   3.569
 5823W        W 9567   4.894   9.510   9.960
 5824W        W 9568   9.756   3.362  10.198
 5825W        W 9569   4.462   1.836   1.378
 5826W        W 9570   4.278   0.689  11.344
 5827W        W 9571   4.138   7.736  11.818
 5828W        W 9572   2.556   1.709   9.459
 5829W        W 9573   8.091   4.653   9.476
 5830W        W 9574   0.464   5.565   2.398
 5831W        W 9575   6.442   7.417  11.761
 5832W        W 9576   3.238   9.460   3.181
 5833W        W 9577   0.861   8.323   9.069
 5834W        W 9578   8.488   9.911   1.011
 5835W        W 9579   9.070   5.024  11.835
 5836W        W 9580   8.167   4.242   9.114
 5837W        W 9581   3.471   8.443  10.032
 5838W        W 9582   9.471   5.829   9.568
 5839W        W 9583   9.606   9.389   1.437
 5840W        W 9584   6.025   2.967   2.866
 5841W        W 9585   5.759   7.838  11.764
 5842W        W 9586   1.448   3.241  11.344
 5843W        W 9587   9.133   6.633   2.145
 5844W        W 9588   5.221   1.901   0.273
 5845W        W 9589   0.718   4.254   2.759
 5846W        W 9590  10.157   9.070  10.944
 5847W        W 9591   0.378   0.322   9.546
 5848W        W 9592   3.240   7.184   2.621
 5849W        W 9593   7.848   6.925   1.909
 5850W        W 9594   9.089   0.412   3.297
 5851W        W 9595   8.943   3.651   2.476
 5852W        W 9596   4.105   0.932   9.500
 5853W        W 9597   4.473   7.192  10.509
 5854W        W 9598   3.346   3.601  11.894
 5855W        W 9599   2.719   9.911   2.751
 5856W        W 9600   3.617   9.812   3.206
 5857W        W 9601   6.461   9.504   8.961
 5858W        W 9602   3.150   9.772   0.286
 5859W        W 9603   0.197   8.043   1.718
 5860W        W 9604   4.368   5.706   2.800
 5861W        W 9605   6.257   1.157   3.517
 5862W        W 9606   1.840   7.782  10.445
 5863W        W 9607   9.372   2.531   9.492
 5864W        W 9608   7.827   7.643   8.623
 5865W        W 9609   2.671   6.390   4.124
 5866W        W 9610   5.475   5.497   2.266
 5867W        W 9611   5.967  10.162   3.608
 5868W        W 9612   3.184   9.391   2.163
 5869W        W 9613   0.250   5.436  11.820
 5870W        W 9614  10.488   2.612   3.583
 5871W        W 9615   5.415  10.385   2.479
 5872W        W 9616   1.024   0.877   2.188
 5873W        W 9617   0.830   3.578   9.864
 5874W        W 9618   8.292   1.407   2.194
 5875W        W 9619   3.803   4.126   3.243
 5876W        W 9620   8.782  10.319   1.424
 5877W        W 9621   4.069   6.225   2.400
 5878W        W 9622   7.481   3.083   8.685
 5879W        W 9623   4.136   4.123   8.665
 5880W        W 9624   6.917   8.942  10.966
 5881W        W 9625   5.462   2.677   9.655
 5882W        W 9626   3.230   9.358   9.538
 5883W        W 9627   8.901   7.931  11.150
 5884W        W 9628   6.456   5.155   9.847
 5885W        W 9629   1.192  10.041   2.340
 5886W        W 9630   1.178   6.685   9.364
 5887W        W 9631   6.462   7.558   9.527
 5888W        W 9632   8.557   3.038   0.901
 5889W        W 9633   7.385   5.001  10.725
 5890W        W 9634  10.099   2.230   3.685
 5891W        W 9635   3.235   7.117   3.328
 5892W        W 9636   7.133   4.695   2.887
 5893W        W 9637  10.305   6.541   0.569
 5894W        W 9638   0.319   8.466   0.885
 5895W        W 9639   2.069   8.720   3.682
 5896W        W 9640   7.017   7.491   2.879
 5897W        W 9641   6.065  10.087   2.048
 5898W        W 9642   1.651   8.986  11.904
 5899W        W 9643   4.818   6.972  10.830
 5900W        W 9644   0.565   3.135  10.005
 5901W        W 9645   0.248   8.531   1.843
 5902W        W 9646   5.127   3.683  11.655
 5903W        W 9647   5.661   2.834  11.870
 5904W        W 9648   2.267   6.009  11.278
 5905W        W 9649   4.714   5.545  10.725
 5906W        W 9650   4.268   3.352   0.197
 5907W        W 9651   5.453   9.593   9.333
 5908W        W 9652   3.878   5.264   1.724
 5909W        W 9653   4.144   7.416   3.581
 5910W        W 9654   4.197   7.900   9.199
 5911W        W 9655   0.832   1.887  11.616
 5912W        W 9656   5.551   2.916  10.129
 5913W        W 9657   3.483   2.189  11.864
 5914W        W 9658   9.093   7.136   9.806
 5915W        W 9659   3.834   7.138   9.362
 5916W        W 9660   6.744   7.987   1.530
 5917W        W 9661   6.164   9.360   0.830
 5918W        W 9662   0.980   7.460   0.418
 5919W        W 9663   8.612   8.671   0.295
 5920W        W 9664   2.675  10.419   0.102
 5921W        W 9665   8.805   3.279  10.549
 5922W        W 9666   1.231   7.731  11.790
 5923W        W 9667   7.372   5.646   2.590
 5924W        W 9668   8.363  10.221   9.787
 5925W        W 9669   6.740  10.432   3.019
 5926W        W 9670   5.545   9.128   9.183
 5927W        W 9671   3.943   0.632   3.399
 5928W        W 9672   2.081   1.138  11.319
 5929W        W 9673   3.924  10.239   0.822
 5930W        W 9674   6.801   7.934   9.411
 5931W        W 9675   8.823   5.032  11.390
 5932W        W 9676   6.122   0.854   2.300
 5933W        W 9677  10.448   3.728   2.681
 5934W        W 9678  10.022   0.897   2.258
 5935W        W 9679   9.337   1.689   8.613
 5936W        W 9680   2.751   4.095   8.960
 5937W        W 9681   2.812   5.092   0.488
 5938W        W 9682   0.845   3.150  10.433
 5939W        W 9683   8.926   6.424  10.737
 5940W        W 9684   4.750   8.975   3.384
 5941W        W 9685   0.865   2.305  10.531
 5942W        W 9686   0.901   9.772   2.985
 5943W        W 9687   7.544  10.464  10.874
 5944W        W 9688   2.571   0.811   1.014
 5945W        W 9689   0.939   8.944   2.955
 5946W        W 9690   1.764   7.352   3.032
 5947W        W 9691  10.368   0.446   9.466
 5948W        W 9692   2.851   0.350  10.317
 5949W        W 9693   8.938   9.814   2.710
 5950W        W 9694   6.105   8.468   9.029
 5951W        W 9695   5.586   5.371  11.376
 5952W        W 9696   2.257   2.386   8.722
 5953W        W 9697   0.414  10.479   9.939
 5954W        W 9698   2.827   3.167   9.410
 5955W        W 9699   5.058   1.808  11.263
 5956W        W 9700   5.766   5.556  11.818
 5957W        W 9701   2.239   0.243   2.302
 5958W        W 9702   7.473   6.597   2.952
 5959W        W 9703   5.210   9.215  10.224
 5960W        W 9704   5.572   5.589   9.455
 5961W        W 9705   6.942   8.381  11.480
 5962W        W 9706   7.065   1.601   8.961
 5963W        W 9707   5.639   1.239   9.772
 5964W        W 9708   2.343   6.920  11.993
 5965W        W 9709   7.534   9.393  11.924
 5966W        W 9710   0.878   3.663   3.278
 5967W        W 9711   4.033   3.571  10.019
 5968W        W 9712   3.659   5.144  10.235
 5969W        W 9713   8.867   9.451   0.816
 5970W        W 9714   4.999   8.153   9.272
 5971W        W 9715   0.921   5.566  10.708
 5972W        W 9716   1.870   6.514  10.758
 5973W        W 9717   9.796   7.666   1.293
 5974W        W 9718   6.613   7.259   9.146
 5975W        W 9719   2.661   5.147  11.991
 5976W        W 9720   7.425   7.380   8.419
 5977W        W 9721   3.558   0.003   0.224
 5978W        W 9722  10.268   8.666  11.841
 5979W        W 9723   4.250   7.231   0.998
 5980W        W 9724   0.960   3.327  11.276
 5981W        W 9725   2.144   4.937   1.306
 5982W        W 9726   4.291   8.807   8.908
 5983W        W 9727   9.546   2.194  11.271
 5984W        W 9728   1.839   5.982   2.046
 5985W        W 9729   5.634  10.020   9.122
 5986W        W 9730   0.203   8.290  10.423
 5987W        W 9731   0.777   7.405  11.528
 5988W        W 9732   9.225   2.252   2.259
 5989W        W 9733   8.575   1.974  10.139
 5990W        W 9734   7.915   1.434   1.466
 5991W        W 9735   3.369   4.709   2.714
 5992W        W 9736   7.873   7.076  11.887
 5993W        W 9737   8.625   3.880   0.573
 5994W        W 9738   5.549   5.840   1.575
 5995W        W 9739   0.445   6.668   0.860
 5996W        W 9740   6.075   4.789   9.833
 5997W        W 9741   6.405   7.031   9.589
 5998W        W 9742   8.795   3.684   9.577
 5999W        W 9743   7.136   3.641   1.584
 6000W        W 9744   2.474   0.696   2.416
 6001W        W 9745   9.848   8.747   2.533
 6002W        W 9746   8.741   8.372  10.355
 6003W        W 9747   4.081   5.576   0.057
 6004W        W 9748   1.368   0.882   9.014
 6005W        W 9749   8.329   3.291   2.416
 6006W        W 9750   2.904   2.651   2.641
 6007W        W 9751   4.705   8.476   3.555
 6008W        W 9752   4.777   2.108  10.051
 6009W        W 9753   9.945   7.467   0.391
 6010W        W 9754   7.526  10.006   3.327
 6011W        W 9755   0.648  10.409   1.251
 6012W        W 9756   3.947   4.774   9.360
 6013W        W 9757   0.724   5.429   1.310
 6014W        W 9758   0.318   3.843   0.354
 6015W        W 9759   6.616   1.007   0.831
 6016W        W 9760   9.519   9.405  11.544
 6017W        W 9761   7.447   9.048  10.901
 6018W        W 9762   3.334   6.086   0.240
 6019W        W 9763   8.946   1.257   9.786
 6020W        W 9764   3.233   0.179  10.890
 6021W        W 9765   4.686   4.991   1.619
 6022W        W 9766   0.442   5.738   0.985
 6023W        W 9767   4.928   8.889  11.040
 6024W        W 9768   9.967   6.920   9.922
 6025W        W 9769   8.586   7.788  11.975
 6026W        W 9770   5.818   4.336   9.999
 6027W        W 9771   8.099   4.260  10.915
 6028W        W 9772   0.390   8.982   3.478
 6029W        W 9773  10.231   2.262  10.134
 6030W        W 9774   0.918   9.015   0.480
 6031W        W 9775   8.389   8.962   1.487
 6032W        W 9776   3.951   4.527   1.035
 6033W        W 9777   1.129   1.814   3.538
 6034W        W 9778  10.234   3.688   0.498
 6035W        W 9779   6.811   0.794   1.241
 6036W        W 9780   3.024   1.696   0.826
 6037W        W 9781   4.324   8.676   3.271
 6038W        W 9782   3.080   9.231  10.048
 6039W        W 9783   0.094   5.440   8.502
 6040W        W 9784   1.558   3.373  11.844
 6041W        W 9785   7.587   1.265   9.019
 6042W        W 9786   5.219   3.578  10.722
 6043W        W 9787   4.821   3.712  11.014
 6044W        W 9788   1.025   5.865   1.227
 6045W        W 9789   1.842   1.840   3.762
 6046W        W 9790   7.864   5.595   2.676
 6047W        W 9791   1.348   6.003  11.349
 6048W        W 9792   0.620   3.883   3.646
 6049W        W 9793   0.968   3.334   0.710
 6050W        W 9794   5.253   8.431   0.977
 6051W        W 9795   4.406   1.159  11.485
 6052W        W 9796   3.116   3.983   0.785
 6053W        W 9797   2.777   8.949   1.643
 6054W        W 9798   0.319   1.088   0.976
 6055W        W 9799   7.634   6.839   9.990
 6056W        W 9800   6.932   3.806   8.532
 6057W        W 9801   8.336   7.569   3.212
 6058W        W 9802   5.685   9.193   2.634
 6059W        W 9803   1.099   0.036   0.991
 6060W        W 9804   0.050   1.131   1.414
 6061W        W 9805   0.681   5.229  10.379
 6062W        W 9806   6.215   5.600  10.853
 6063W        W 9807   3.155   9.174  10.898
 6064W        W 9808   9.148   6.927  11.219
 6065W        W 9809   9.799  10.437   2.299
 6066W        W 9810   3.164   7.059   8.567
 6067W        W 9811   4.980   6.621   9.435
 6068W        W 9812  10.139   4.071   2.354
 6069W        W 9813   0.084   3.678   1.670
 6070W        W 9814   7.887   7.323   3.230
 6071W        W 9815   1.308   6.404   3.213
 6072W        W 9816   0.878   4.451   0.705
 6073W        W 9817   7.948   2.126   3.305
 6074W        W 9818   7.769   8.031   8.941
 6075W        W 9819   3.608   8.073   1.196
 6076W        W 9820   7.641   5.244   2.360
 6077W        W 9821   6.101   2.255   3.297
 6078W        W 9822   2.439   2.445  10.184
 6079W        W 9823   8.578   7.319   9.940
 6080W        W 9824   4.570   8.053   9.507
 6081W        W 9825   3.634   4.059  11.972
 6082W        W 9826   2.610   2.777  11.120
 6083W        W 9827   3.387   4.159   9.841
 6084W        W 9828   0.401   8.139  11.275
 6085W        W 9829   6.619   4.326   1.434
 6086W        W 9830   3.025   6.773   1.658
 6087W        W 9831   1.215   9.919  10.081
 6088W        W 9832   0.736   1.416   8.542
 6089W        W 9833   1.469  10.220   0.852
 6090W        W 9834   8.928   4.840   1.047
 6091W        W 9835   5.301   4.295   9.859
 6092W        W 9836   4.598   2.263   0.581
 6093W        W 9837   3.154   6.574   3.318
 6094W        W 9838   8.916   2.243   9.640
 6095W        W 9839  10.157   1.739  10.974
 6096W        W 9840   1.299   7.399   3.565
 6097W        W 9841   8.365   4.204  10.477
 6098W        W 9842   0.449  10.014   9.091
 6099W        W 9843   6.201   7.645  10.825
 6100W        W 9844   0.279   7.562   9.087
 6101W        W 9845   6.244   7.822   2.849
 6102W        W 9846   8.849   1.790   0.158
 6103W        W 9847   2.595   5.080   1.003
 6104W        W 9848   8.838   6.245   2.312
 6105W        W 9849   2.719   7.205  11.135
 6106W        W 9850   4.526   0.644   1.435
 6107W        W 9851   1.927   4.659  10.700
 6108W        W 9852   0.773   5.033   3.298
 6109W        W 9853   9.329   4.088   3.374
 6110W        W 9854   0.911   5.654   0.772
 6111W        W 9855   8.603   2.751   2.711
 6112W        W 9856   1.663   6.464   1.981
 6113W        W 9857   3.748   6.595   0.379
 6114W        W 9858   8.854   4.290   3.202
 6115W        W 9859   2.381   3.378   1.319
 6116W        W 9860   7.613   9.588   3.072
 6117W        W 9861   9.708   9.599   3.633
 6118W        W 9862   6.622  10.016   9.763
 6119W        W 9863   3.115   4.074  11.818
 6120W        W 9864   8.883   0.980   1.694
 6121W        W 9865   7.841  10.329   2.273
 6122W        W 9866   6.190   0.268   2.977
 6123W        W 9867   5.956   3.099   3.713
 6124W        W 9868   9.941   0.789   0.491
 6125W        W 9869   3.326   8.874   9.791
 6126W        W 9870   7.587   9.955   2.022
 6127W        W 9871   8.790   2.196   0.979
 6128W        W 9872   0.443   8.506   9.982
 6129W        W 9873   3.252   3.599  11.391
 6130W        W 9874   1.420   4.665  10.635
 6131W        W 9875   3.858   1.833   1.258
 6132W        W 9876   5.897   3.619   3.765
 6133W        W 9877   1.329   5.068   0.231
 6134W        W 9878   1.314   3.283   9.096
 6135W        W 9879   7.608   7.500   0.788
 6136W        W 9880   3.818   4.439   2.244
 6137W        W 9881   6.195   7.695   3.469
 6138W        W 9882   6.588   9.472   0.164
 6139W        W 9883   8.110   0.707  10.216
 6140W        W 9884   4.164   7.655  11.095
 6141W        W 9885   6.673   0.690   1.730
 6142W        W 9886   7.707   8.660   0.098
 6143W        W 9887   7.418   8.428   9.058
 6144W        W 9888   8.455   2.831   3.230
 6145W        W 9889   9.309   5.717  11.148
 6146W        W 9890   3.740   4.370   9.058
 6147W        W 9891   3.310   8.515   2.251
 6148W        W 9892   1.782   8.955   1.740
 6149W        W 9893   9.792   8.972   8.934
 6150W        W 9894   5.607   0.595   0.823
 6151W        W 9895   3.717   8.364   0.770
 6152W        W 9896   8.447   2.403   9.786
 6153W        W 9897   2.322   9.795  11.038
 6154W        W 9898   8.608   1.186  11.404
 6155W        W 9899   4.001   0.766   2.877
 6156W        W 9900   6.923   7.464   0.219
 6157W        W 9901   6.538   8.303  11.869
 6158W        W 9902   4.114   4.160   2.831
 6159W        W 9903   3.314   4.589   2.171
 6160W        W 9904   7.350  10.295   2.391
 6161W        W 9905   6.024   6.683   0.274
 6162W        W 9906   3.372   4.496   9.381
 6163W        W 9907   6.606   1.778   9.161
 6164W        W 9908   5.771   5.954   0.733
 6165W        W 9909   0.242   3.408   2.986
 6166W        W 9910   9.984   1.729   0.957
 6167W        W 9911   8.399   1.397   3.168
 6168W        W 9912   6.769   0.759  10.229
 6169W        W 9913   8.802   9.362   3.496
 6170W        W 9914   4.894   2.693   3.155
 6171W        W 9915   0.418   9.571   0.266
 6172W        W 9916   4.820   2.807   1.441
 6173W        W 9917   7.482   3.735   3.349
 6174W        W 9918   6.089   0.709  11.793
 6175W        W 9919   5.948   9.378   2.219
 6176W        W 9920   8.756   2.265  10.594
 6177W        W 9921   7.603   4.116  10.884
 6178W        W 9922   9.058   8.452  11.343
 6179W        W 9923   7.426   6.141   2.244
 6180W        W 9924   2.569   7.471   1.465
 6181W        W 9925   5.268   6.475   0.675
 6182W        W 9926   1.612   9.883  11.540
 6183W        W 9927   0.861   7.530   9.795
 6184W        W 9928  10.016   5.345   0.038
 6185W        W 9929  10.305   2.327   0.044
 6186W        W 9930   6.850   6.131  10.097
 6187W        W 9931   2.459  10.371   0.735
 6188W        W 9932   3.355   2.821  10.425
 6189W        W 9933   0.356   0.288   1.453
 6190W        W 9934   5.252   6.247  11.526
 6191W        W 9935   1.714   1.631   2.828
 6192W        W 9936   3.281   7.926   9.525
 6193W        W 9937   5.328   6.045   0.357
 6194W        W 9938   1.093   3.155   9.969
 6195W        W 9939   7.350  10.159   0.183
 6196W        W 9940   7.424   0.721   2.497
 6197W        W 9941   3.659  10.429  11.724
 6198W        W 9942   0.422   6.121  10.315
 6199W        W 9943   2.743   0.790  10.547
 6200W        W 9944   4.052   5.067  11.951
 6201W        W 9945   1.151   9.592   3.705
 6202W        W 9946  10.043   9.002   1.381
 6203W        W 9947   5.786   1.569   1.018
 6204W        W 9948   1.502   6.001   0.292
 6205W        W 9949   9.566   8.124  10.292
 6206W        W 9950   4.724   4.120   3.657
 6207W        W 9951   7.305   2.813   9.961
 6208W        W 9952   5.731   7.337  10.869
 6209W        W 9953   1.163   6.133   0.710
 6210W        W 9954   2.712   5.539   3.552
 6211W        W 9955  10.203   4.255   3.376
 6212W        W 9956   2.340   5.234   9.862
 6213W        W 9957   6.756   0.303  10.015
 6214W        W 9958   5.143   3.867  10.274
 6215W        W 9959   3.786   3.739   2.881
 6216W        W 9960   0.320   6.490   2.390
 6217W        W 9961   8.791   1.385   2.006
 6218W        W 9962  10.126   1.607   2.998
 6219W        W 9963   6.988   6.527   2.786
 6220W        W 9964   9.499   1.353   9.037
 6221W        W 9965   3.790   2.676   3.516
 6222W        W 9966   6.486   8.800  11.915
 6223W        W 9967   2.063   1.707   9.583
 6224W        W 9968   3.280   8.582   0.933
 6225W        W 9969  10.425   7.653   1.884
 6226W        W 9970   1.195   2.129   0.356
 6227W        W 9971   6.212   4.211   2.630
 6228W        W 9972   9.594   8.491  11.385
 6229W        W 9973   8.432   2.610  11.445
 6230W        W 9974   9.327   7.341  10.606
 6231W        W 9975   3.706   9.272   3.353
 6232W        W 9976   5.942   8.065   3.207
 6233W        W 9977   3.512   4.827   0.985
 6234W        W 9978   4.311   9.850   9.378
 6235W        W 9979   2.250   3.511   9.329
 6236W        W 9980   7.499   1.924   3.428
 6237W        W 9981   2.272   8.928   9.039
 6238W        W 9982   9.451   1.745  10.012
 6239W        W 9983   5.931   7.368  11.792
 6240W        W 9984   7.890  10.373  11.452
 6241W        W 9985   0.605   8.184   1.997
 6242W        W 9986  10.328   7.756   2.383
 6243W        W 9987   9.018   4.525   0.097
 6244W        W 9988   3.851   6.150   1.797
 6245W        W 9989   0.850   2.614   2.496
 6246W        W 9990  10.341   9.545  10.981
 6247W        W 9991   2.847   1.093   1.786
 6248W        W 9992   9.669   5.977  10.017
 6249W        W 9993   9.457   1.204  11.434
 6250W        W 9994   1.530   5.449   3.479
 6251W        W 9995   1.442   3.218   1.652
 6252W        W 9996   6.006   9.817   2.469
 6253W        W 9997   5.793   8.716   2.736
 6254W        W 9998   7.176   0.828   1.612
 6255W        W 9999   6.968   5.656   9.352
 6256W        W10000   7.606   1.553  10.533
 6257W        W10001   2.113   3.044   2.982
 6258W        W10002   8.858  10.219   2.285
 6259W        W10003   1.012   7.935  10.491
 6260W        W10004   0.404   6.666   9.846
 6261W        W10005   4.080   7.026  10.827
 6262W        W10006  10.018   0.890  11.457
 6263W        W10007   5.182   1.680   9.256
 6264W        W10008   5.055   6.082  10.061
 6265W        W10009   2.829   7.641  10.602
 6266W        W10010   3.528   7.703   8.546
 6267W        W10011   6.465   4.165   3.147
 6268W        W10012   5.913  10.341   2.460
 6269W        W10013  10.259   4.125   9.195
 6270W        W10014   9.796   5.174   3.004
 6271W        W10015   9.880   3.188   1.970
 6272W        W10016   1.807   9.418   9.486
 6273W        W10017   0.401   0.837  11.561
 6274W        W10018  10.260   3.266   2.488
 6275W        W10019   9.314   6.605   3.562
 6276W        W10020  10.478   4.701   9.091
 6277W        W10021   0.804   1.465   9.471
 6278W        W10022   8.085   7.893   1.305
 6279W        W10023   6.268   7.874   1.763
 6280W        W10024   9.242   0.766  10.933
 6281W        W10025   6.514   6.917  10.074
 6282W        W10026   7.107  10.266   3.344
 6283W        W10027   4.300   4.285   2.379
 6284W        W10028   0.900   0.804  10.748
 6285W        W10029   0.954   4.613   3.521
 6286W        W10030   8.476   7.703   2.310
 6287W        W10031   0.449   2.554   0.698
 6288W        W10032   8.579   7.458   1.872
 6289W        W10033   2.193   1.454   2.679
 6290W        W10034   9.537   1.953  10.485
 6291W        W10035   9.086   7.644  11.908
 6292W        W10036   9.384   8.412   1.265
 6293W        W10037   1.340   8.014   1.415
 6294W        W10038   4.415   8.905   2.832
 6295W        W10039   6.739   1.357  11.031
 6296W        W10040   0.412   3.744   2.055
 6297W        W10041   9.357   6.603   8.942
 6298W        W10042  10.440   2.273  11.563
 6299W        W10043   1.605   0.820  11.894
 6300W        W10044   5.213   3.335  10.293
 6301W        W10045   3.779   7.387  11.886
 6302W        W10046  10.484   3.587  10.438
 6303W        W10047   1.920   0.043   0.057
 6304W        W10048   7.442   1.665   0.269
 6305W        W10049   7.423   9.285   0.687
 6306W        W10050  10.462   9.590   9.064
 6307W        W10051   7.821   6.975   2.427
 6308W        W10052   2.645   1.680   3.186
 6309W        W10053   7.055   0.655   2.118
 6310W        W10054  10.236   4.659   9.546
 6311W        W10055   7.945   5.648  11.297
 6312W        W10056   5.730   0.778   1.987
 6313W        W10057  10.227   5.787   8.557
 6314W        W10058   1.724   1.196  10.350
 6315W        W10059   9.442   1.601  11.813
 6316W        W10060   8.160   4.548  11.675
 6317W        W10061   1.618   8.962  10.944
 6318W        W10062   7.359   4.321  10.465
 6319W        W10063  10.474   1.903   0.975
 6320W        W10064   2.394   9.097   9.520
 6321W        W10065   6.816   5.111  10.602
 6322W        W10066   7.437   3.629  10.947
 6323W        W10067   8.920   7.473  11.409
 6324W        W10068   7.888   5.120   9.543
 6325W        W10069   7.414   4.237   2.161
 6326W        W10070   1.925   8.429   0.834
 6327W        W10071   4.587   0.757   9.581
 6328W        W10072   9.967   1.787  11.944
 6329W        W10073   3.707   9.098   9.533
 6330W        W10074   2.203   9.925  10.080
 6331W        W10075   4.815   1.786   2.421
 6332W        W10076   9.063   3.717   0.763
 6333W        W10077   0.411   3.162   1.957
 6334W        W10078  10.462   5.067   0.082
 6335W        W10079   8.876   6.490  11.260
 6336W        W10080   8.874   8.517   8.890
 6337W        W10081   1.454   6.991   2.296
 6338W        W10082   2.621   7.333   8.160
 6339W        W10083   0.304   7.641  11.362
 6340W        W10084   2.224  10.213   0.293
 6341W        W10085   4.068   1.808   1.718
 6342W        W10086   5.628   2.215   2.457
 6343W        W10087   7.580   7.527   9.440
 6344W        W10088   5.086   2.107   9.009
 6345W        W10089   9.033   6.194  11.985
 6346W        W10090   5.326   6.775   3.601
 6347W        W10091   9.292   3.840   9.644
 6348W        W10092   5.358   4.754  10.621
 6349W        W10093   2.173   9.819   1.919
 6350W        W10094   3.476   6.629   1.825
 6351W        W10095   6.643   3.271   9.603
 6352W        W10096   6.068   0.785   9.044
 6353W        W10097   1.630   1.785   3.307
 6354W        W10098   4.370  10.432   8.632
 6355W        W10099   4.605   7.614  11.966
 6356W        W10100   2.260   6.473  11.098
 6357W        W10101   1.006  10.440  11.054
 6358W        W10102   2.195   2.042  11.635
 6359W        W10103   2.370   3.331   1.861
 6360W        W10104   6.537   2.040   3.498
 6361W        W10105   5.115   6.904   1.836
 6362W        W10106   5.440   2.540   0.848
 6363W        W10107   1.854   6.721   8.847
 6364W        W10108   5.576   9.761   0.448
 6365W        W10109   1.869   2.303   1.847
 6366W        W10110   6.487   4.041  11.364
 6367W        W10111   5.062  10.376  10.283
 6368W        W10112   7.996   4.588   3.442
 6369W        W10113   8.519   3.210   8.708
 6370W        W10114   1.337  10.429   8.773
 6371W        W10115  10.340  10.039   9.596
 6372W        W10116   0.815   0.733   2.712
 6373W        W10117   5.979   9.062   1.229
 6374W        W10118   4.307   0.441   0.209
 6375W        W10119   1.069   4.716  10.998
 6376W        W10120   7.570   6.394  10.882
 6377W        W10121   0.433   5.647  10.513
 6378W        W10122   7.700   5.769   3.136
 6379W        W10123   3.981   9.631   2.422
 6380W        W10124   1.800   5.093   0.419
 6381W        W10125   1.632   7.594   9.186
 6382W        W10126   6.173   2.796   1.653
 6383W        W10127   3.193  10.203  10.009
 6384W        W10128   6.646   8.860  10.532
 6385W        W10129   8.929  10.415   3.300
 6386W        W10130   6.273   7.066   2.312
 6387W        W10131   1.409   2.246   3.352
 6388W        W10132   8.773  10.014  10.030
 6389W        W10133   1.574   1.196   0.386
 6390W        W10134   3.638   8.967   0.066
 6391W        W10135   5.957   7.199   8.683
 6392W        W10136   8.309   4.166  11.365
 6393W        W10137   7.563   6.938  10.914
 6394W        W10138   0.023   8.429   9.606
 6395W        W10139   8.261   0.955   2.438
 6396W        W10140   9.781   7.599  11.402
 6397W        W10141  10.227   2.270   9.525
 6398W        W10142   3.952   0.987   8.546
 6399W        W10143   6.577   0.442  11.048
 6400W        W10144   7.559   1.778   8.938
 6401W        W10145   8.442   1.791   9.144
 6402W        W10146   2.686   6.113  11.540
 6403W        W10147   0.849   6.989   3.015
 6404W        W10148  10.246   5.351   2.828
 6405W        W10149   3.611   0.966   9.599
 6406W        W10150   9.913   4.952   1.695
 6407W        W10151   8.139   7.073   9.999
 6408W        W10152   7.259   8.734  11.286
 6409W        W10153   1.884  10.009  11.962
 6410W        W10154   8.007   7.504   8.165
 6411W        W10155   4.610   8.490  10.837
 6412W        W10156   3.043   8.537   1.815
 6413W        W10157   9.773   6.507   2.713
 6414W        W10158   0.820   3.767  10.354
 6415W        W10159   1.393   6.751   1.273
 6416W        W10160   5.223   1.379   0.515
 6417W        W10161  10.416   4.157   0.295
 6418W        W10162   0.679   1.670  11.168
 6419W        W10163   3.675   4.609  10.261
 6420W        W10164   4.406   2.366   9.826
 6421W        W10165   3.926   2.295   3.109
 6422W        W10166   1.153   6.672  10.281
 6423W        W10167   8.833   7.965   8.843
 6424W        W10168   0.641   8.039   9.944
 6425W        W10169   8.476  10.029   9.255
 6426W        W10170   1.327   8.723   0.614
 6427W        W10171   5.523   2.870   8.685
 6428W        W10172   4.379   8.066   1.452
 6429W        W10173   8.272   3.248   2.946
 6430W        W10174  10.359   5.158   1.508
 6431W        W10175   3.555   1.845   1.707
 6432W        W10176   0.953   6.918  11.585
 6433W        W10177   8.331   2.153   0.804
 6434W        W10178   4.610   5.987  10.942
 6435W        W10179   8.286   8.868  11.372
 6436W        W10180   1.819   9.909   2.631
 6437W        W10181   7.191   1.374  10.797
 6438W        W10182   4.620   9.613   1.855
 6439W        W10183   7.636   0.060   2.779
 6440W        W10184   6.949   6.297   0.497
 6441W        W10185   2.970   6.444   0.243
 6442W        W10186   5.116   7.158   3.327
 6443W        W10187   4.262  10.326  10.945
 6444W        W10188   0.732  10.456   2.351
 6445W        W10189   5.325   8.804   2.917
 6446W        W10190   6.076   4.224   8.362
 6447W        W10191   3.339   0.588   9.084
 6448W        W10192   0.843   4.348   1.211
 6449W        W10193   1.683   1.344  11.867
 6450W        W10194   0.549   6.639  11.471
 6451W        W10195   0.475   2.435   9.499
 6452W        W10196   8.131  10.035  11.748
 6453W        W10197   5.137   2.854  10.431
 6454W        W10198  10.472   3.781  10.947
 6455W        W10199   8.043   1.942   1.346
 6456W        W10200   6.728   2.711  10.863
 6457W        W10201   2.300   8.082   0.949
 6458W        W10202   3.184   6.638  10.820
 6459W        W10203   1.875   9.035  11.419
 6460W        W10204   6.699   9.843  10.939
 6461W        W10205   4.240   2.016  11.580
 6462W        W10206   1.643   7.024   0.519
 6463W        W10207   8.962   3.134  11.527
 6464W        W10208   1.333   0.230   1.421
 6465W        W10209   4.677   3.553   3.958
 6466W        W10210   2.308   8.758  11.352
 6467W        W10211   2.800   2.363   1.933
 6468W        W10212   1.400   5.709   0.934
 6469W        W10213   9.137   4.177  10.009
 6470W        W10214   9.788   2.324   9.252
 6471W        W10215   0.560   2.725  10.521
 6472W        W10216   0.863   2.174   2.745
 6473W        W10217   0.941   5.704   2.234
 6474W        W10218   4.866   8.660   1.203
 6475W        W10219   7.555   0.486   1.798
 6476W        W10220   2.152   6.015   0.863
 6477W        W10221   9.303   6.823   9.411
 6478W        W10222   7.051   9.766   9.505
 6479W        W10223   3.234   5.776   1.442
 6480W        W10224   8.436   4.102   1.851
 6481W        W10225   2.298   0.889   9.153
 6482W        W10226   2.414   4.541  10.812
 6483W        W10227   1.801   9.504  11.875
 6484W        W10228   4.304   8.413   8.498
 6485W        W10229   6.046   2.465   2.781
 6486W        W10230   7.256   0.399  10.942
 6487W        W10231   0.166  10.246   1.443
 6488W        W10232   0.279  10.206   2.238
 6489W        W10233   1.315   4.766   0.670
 6490W        W10234   8.063   9.765   1.875
 6491W        W10235   8.870   3.013   1.943
 6492W        W10236   7.424   9.486   1.171
 6493W        W10237   6.275   9.617   9.549
 6494W        W10238   3.594   9.375   9.946
 6495W        W10239   1.684   2.460   1.375
 6496W        W10240   7.375   7.094   9.634
 6497W        W10241   4.251   7.463   9.465
 6498W        W10242   1.908   7.225   2.410
 6499W        W10243   6.443   7.404   0.915
 6500W        W10244   1.385   9.332   8.753
 6501W        W10245   4.608   4.135   1.709
 6502W        W10246   6.654   9.513   9.878
 6503W        W10247   0.525   5.497   3.221
 6504W        W10248   2.277  10.307  11.777
 6505W        W10249   6.065   1.432   1.456
 6506W        W10250   6.207   5.203   0.502
 6507W        W10251   5.296   6.091   8.226
 6508W        W10252   0.903   3.876  11.263
 6509W        W10253   3.067   7.572   1.395
 6510W        W10254   7.527   5.273  11.916
 6511W        W10255   5.722   1.284  11.296
 6512W        W10256   7.815   2.256   1.838
 6513W        W10257   4.519   7.679   3.222
 6514W        W10258   3.805   4.524  10.758
 6515W        W10259   9.540   5.653  10.631
 6516W        W10260   5.994   2.302   1.744
 6517W        W10261   2.130   7.470   8.988
 6518W        W10262   0.194   7.339   1.538
 6519W        W10263   2.002   6.044   0.352
 6520W        W10264   5.659   4.352  10.506
 6521W        W10265   2.226   8.198   3.092
 6522W        W10266   7.429   1.444   2.182
 6523W        W10267   2.396   3.265   8.896
 6524W        W10268   6.433   5.699   1.395
 6525W        W10269   5.081   9.973   0.425
 6526W        W10270   4.635   2.341   2.367
 6527W        W10271  10.079   9.534   0.681
 6528W        W10272   4.194   7.657   2.312
 6529W        W10273   8.946   6.638   9.731
 6530W        W10274   7.885   8.453  10.396
 6531W        W10275   8.139   3.657   1.926
 6532W        W10276   8.349   5.245  11.369
 6533W        W10277   3.297   2.304   1.800
 6534W        W10278   0.371   9.475  11.751
 6535W        W10279   5.972   3.308   0.431
 6536W        W10280   3.835   6.543   1.445
 6537W        W10281   5.585   7.537   2.365
 6538W        W10282   7.470   6.054   0.327
 6539W        W10283   6.575   9.846  10.280
 6540W        W10284   7.393   0.658   0.316
 6541W        W10285   0.840   7.335   1.744
 6542W        W10286   5.083   3.740   3.692
 6543W        W10287   0.997   9.482   0.827
 6544W        W10288   5.046   5.140   2.419
 6545W        W10289   5.150   6.531   3.156
 6546W        W10290   4.755   6.251  11.384
 6547W        W10291   9.193   7.456   3.879
 6548W        W10292  10.314   4.124  11.725
 6549W        W10293   3.584   2.706   9.001
 6550W        W10294   2.095   5.118   0.840
 6551W        W10295   6.625   0.743   3.465
 6552W        W10296   1.756  10.015   3.149
 6553W        W10297   6.704   1.708  11.449
 6554W        W10298   1.199   5.145  10.772
 6555W        W10299   9.869   0.800   2.740
 6556W        W10300   0.675   9.347   3.235
 6557W        W10301   6.087   9.167  10.497
 6558W        W10302   7.417   1.168   0.338
 6559W        W10303   9.905   2.661   1.320
 6560W        W10304   9.733   4.272   2.636
 6561W        W10305   9.072   6.539   1.646
 6562W        W10306   8.837   3.109   2.978
 6563W        W10307   3.708   2.284   9.242
 6564W        W10308   1.278   6.250   9.961
 6565W        W10309   0.299  10.028   2.731
 6566W        W10310   8.988   0.760   8.523
 6567W        W10311   8.488   3.211  11.384
 6568W        W10312  10.377   0.392  10.477
 6569W        W10313   5.083   5.098   2.932
 6570W        W10314   6.449   0.827   9.838
 6571W        W10315   9.405   9.049   9.252
 6572W        W10316   8.949   5.531  10.242
 6573W        W10317  10.486   7.157  11.728
 6574W        W10318   3.845   1.910   2.176
 6575W        W10319   4.438   8.191   3.176
 6576W        W10320   7.964   8.383   1.203
 6577W        W10321   5.535   2.664   2.952
 6578W        W10322   5.177   4.024  11.261
 6579W        W10323   7.989   7.884   0.351
 6580W        W10324   7.174   9.678  11.027
 6581W        W10325   7.592   4.948   2.770
 6582W        W10326   5.673  10.420   9.446
 6583W        W10327   0.050   7.660   1.104
 6584W        W10328   6.205   1.570  11.512
 6585W        W10329   0.499   9.285   9.624
 6586W        W10330   0.468  10.406   1.803
 6587W        W10331   5.614   2.281   3.472
 6588W        W10332   8.332   4.955   3.439
 6589W        W10333   0.830   4.850   1.006
 6590W        W10334   4.569   1.212   3.111
 6591W        W10335   5.560   0.837   8.964
 6592W        W10336   5.101   7.577   4.028
 6593W        W10337   6.107   1.913   2.379
 6594W        W10338   2.194   2.389   2.818
 6595W        W10339   5.171   1.847   3.348
 6596W        W10340   8.662   6.948   0.212
 6597W        W10341   9.428   0.541   2.805
 6598W        W10342   9.394   3.083  11.779
 6599W        W10343   0.892   4.206   8.410
 6600W        W10344   4.792   5.611   0.798
 6601W        W10345   2.347   8.078   9.293
 6602W        W10346   5.004   5.622   2.163
 6603W        W10347  10.026   7.900  11.721
 6604W        W10348  10.248   8.663   8.727
 6605W        W10349   6.696   8.074   1.002
 6606W        W10350   1.292   9.462   9.764
 6607W        W10351   0.666   4.334  10.358
 6608W        W10352   5.643   3.083   4.123
 6609W        W10353   1.488   6.300  10.453
 6610W        W10354   8.199   4.223   8.169
 6611W        W10355   6.924   4.792  11.366
 6612W        W10356   0.062   8.849   1.205
 6613W        W10357   7.674   4.137   8.853
 6614W        W10358   9.033   5.270   1.479
 6615W        W10359   0.925   9.352   8.984
 6616W        W10360   6.947   8.877   2.374
 6617W        W10361   3.071   3.716   8.770
 6618W        W10362   4.129   2.629  10.147
 6619W        W10363   4.331   1.916   2.330
 6620W        W10364   0.304   9.077   2.966
 6621W        W10365   1.833   4.121  11.237
 6622W        W10366   9.296   7.049   0.953
 6623W        W10367   6.131   0.403   1.995
 6624W        W10368   7.472   3.769   1.202
 6625W        W10369   0.780   8.111   1.541
 6626W        W10370   5.582   3.861  10.516
 6627W        W10371  10.282   8.700   9.240
 6628W        W10372   8.094  10.287   2.705
 6629W        W10373   2.315   5.280   9.121
 6630W        W10374   8.553   6.116  11.821
 6631W        W10375   4.782   7.984   1.838
 6632W        W10376   2.363   5.018   8.631
 6633W        W10377   0.312   2.133  10.302
 6634W        W10378   6.440   6.531   9.376
 6635W        W10379   6.078  10.214  10.407
 6636W        W10380   8.901   0.367   9.652
 6637W        W10381   1.888   7.834   3.204
 6638W        W10382   2.621   6.067   2.388
 6639W        W10383   5.216   2.883   1.137
 6640W        W10384   2.811   1.509  11.199
 6641W        W10385   3.511   1.020  10.963
 6642W        W10386   5.524   3.812   3.455
 6643W        W10387  10.066   3.406  11.791
 6644W        W10388   3.083   8.991   1.242
 6645W        W10389   1.686   8.052  11.001
 6646W        W10390   8.760   6.008  10.438
 6647W        W10391   7.922   5.867   9.992
 6648W        W10392   3.522   1.913  11.020
 6649W        W10393   5.274   9.045   3.417
 6650W        W10394   9.346   9.874  11.645
 6651W        W10395   4.976   9.695   9.492
 6652W        W10396   3.395   5.947  11.339
 6653W        W10397   8.493   1.001   9.993
 6654W        W10398   5.255   2.625  10.923
 6655W        W10399   7.969   9.870   1.333
 6656W        W10400   4.870   7.804   2.762
 6657W        W10401   1.414   1.343  10.789
 6658W        W10402   4.210   8.710   2.260
 6659W        W10403   6.521   2.741   0.395
 6660W        W10404   2.242   5.620  10.957
 6661W        W10405   5.986   5.159  10.644
 6662W        W10406   1.448   9.720   0.867
 6663W        W10407   7.378   2.841   3.226
 6664W        W10408   1.902   5.399   1.245
 6665W        W10409   4.595   9.465  11.436
 6666W        W10410  10.094  10.495  10.969
 6667W        W10411   7.408   0.341  11.817
 6668W        W10412   3.693   5.858  10.938
 6669W        W10413   0.767   0.821   1.749
 6670W        W10414   3.952   1.802   2.675
 6671W        W10415  10.072   3.677   9.396
 6672W        W10416   9.445   6.009  11.757
 6673W        W10417   4.004   0.090   0.441
 6674W        W10418   7.950   9.224   1.851
 6675W        W10419   7.498   3.548  11.467
 6676W        W10420   6.183   4.716   2.566
 6677W        W10421  10.223   7.456   1.438
 6678W        W10422   8.031   1.303  10.615
 6679W        W10423   6.719   3.891   2.804
 6680W        W10424   2.596   9.923  10.467
 6681W        W10425   9.393   2.035   9.584
 6682W        W10426   0.228   0.652   1.823
 6683W        W10427   8.931   6.075   1.834
 6684W        W10428   4.608   5.964   9.846
 6685W        W10429   7.038   6.044   2.620
 6686W        W10430   1.467   6.249   9.490
 6687W        W10431   2.809   1.867   2.189
 6688W        W10432   7.325   2.340  10.283
 6689W        W10433   3.343   6.320  10.453
 6690W        W10434   0.808   4.088  10.774
 6691W        W10435   9.685   5.900   9.095
 6692W        W10436   8.554   6.580   2.855
 6693W        W10437   2.126   0.467   1.816
 6694W        W10438   9.436  10.261   1.649
 6695W        W10439   9.818   8.160   1.232
 6696W        W10440   6.341   9.113   9.638
 6697W        W10441   3.168   8.779   8.777
 6698W        W10442   1.744   2.670   2.755
 6699W        W10443   9.336   8.505   0.767
 6700W        W10444   4.217   0.211   3.247
 6701W        W10445   2.214   5.252   2.385
 6702W        W10446   1.743   0.693   9.825
 6703W        W10447   3.056   2.292  11.614
 6704W        W10448   2.550   4.028   8.493
 6705W        W10449   8.013   9.577  11.921
 6706W        W10450   5.064   0.793  10.416
 6707W        W10451   9.299   3.021   2.294
 6708W        W10452   1.479   8.420   9.776
 6709W        W10453   2.698   4.195   1.003
 6710W        W10454  10.384   1.297   9.500
 6711W        W10455   7.154   0.244   2.638
 6712W        W10456   1.388   6.972  11.225
 6713W        W10457   5.895   5.731   1.958
 6714W        W10458   2.733   7.021   1.330
 6715W        W10459   2.183   1.439  10.461
 6716W        W10460   4.943   4.590  11.962
 6717W        W10461   4.250   3.305   9.506
 6718W        W10462   8.071   0.178  10.075
 6719W        W10463   8.972   8.399   1.557
 6720W        W10464   6.664   2.733   1.484
 6721W        W10465   4.381   8.770   0.369
 6722W        W10466   2.329   9.029   2.522
 6723W        W10467   1.255   0.926   1.632
 6724W        W10468   7.140   5.706  11.119
 6725W        W10469   8.387   2.337   3.023
 6726W        W10470  10.166  10.454   9.314
 6727W        W10471   1.189   9.555   2.622
 6728W        W10472   2.630   2.858   9.903
 6729W        W10473   3.346   7.645  10.786
 6730W        W10474   0.974   1.074   9.757
 6731W        W10475   3.880   8.716   0.431
 6732W        W10476   6.087  10.192  11.828
 6733W        W10477   5.219   9.059   2.484
 6734W        W10478   5.155   2.400   2.250
 6735W        W10479   7.072   6.190   1.824
 6736W        W10480   1.497   0.261   3.314
 6737W        W10481   4.981   7.625   3.524
 6738W        W10482   5.219   5.678   9.818
 6739W        W10483   7.586   3.268   3.566
 6740W        W10484  10.150   0.294   2.167
 6741W        W10485   6.516   9.265   1.574
 6742W        W10486   5.098   9.987   9.953
 6743W        W10487   3.773   0.517   1.478
 6744W        W10488   5.731   5.060  11.987
 6745W        W10489   4.190   1.914   9.752
 6746W        W10490   8.057   5.241   0.692
 6747W        W10491   2.176   4.287   8.962
 6748W        W10492   7.047   3.306   9.906
 6749W        W10493   7.057   0.618   9.159
 6750W        W10494   5.656   7.337  10.087
 6751W        W10495   5.917   0.892  10.993
 6752W        W10496   4.994   7.076   8.535
 6753W        W10497   1.895   0.460   3.569
 6754W        W10498   5.521   6.001  11.889
 6755W        W10499   7.407   5.933   9.883
 6756W        W10500   9.228   4.150   9.116
 6757W        W10501   4.807   2.745   3.643
 6758W        W10502   5.151   5.159   3.442
 6759W        W10503   3.417   3.311   0.316
 6760W        W10504   0.887   4.582   9.966
 6761W        W10505   2.834   6.186   9.988
 6762W        W10506   8.301   5.075  10.511
 6763W        W10507   2.337   9.459   1.102
 6764W        W10508   6.171   0.771   3.183
 6765W        W10509   7.955   4.058   1.650
 6766W        W10510   1.812   7.400   3.535
 6767W        W10511   8.920   8.965   9.143
 6768W        W10512   5.155   4.011   1.900
 6769W        W10513  10.244   0.055  11.846
 6770W        W10514   7.935   6.106   0.517
 6771W        W10515   1.847   4.653   1.896
 6772W        W10516   9.890   8.608   2.036
 6773W        W10517   0.575   5.466   9.317
 6774W        W10518   4.045   2.767  10.996
 6775W        W10519   4.729   1.539   9.456
 6776W        W10520   8.739   0.028  10.029
 6777W        W10521   1.374   5.927   9.092
 6778W        W10522   0.425   3.981  11.460
 6779W        W10523   1.313   7.507   1.670
 6780W        W10524   8.077   2.772   9.233
 6781W        W10525   4.943   1.010  10.865
 6782W        W10526   4.111  10.416  10.444
 6783W        W10527   2.667   2.912   1.759
 6784W        W10528   3.214   3.627   9.294
 6785W        W10529   3.659   3.104   2.730
 6786W        W10530   6.602   8.004  10.771
 6787W        W10531   0.304   5.026   2.365
 6788W        W10532   7.023   6.443   2.276
 6789W        W10533   8.312   8.425  10.088
 6790W        W10534   0.421   3.759   9.045
 6791W        W10535   9.712   2.317  10.807
 6792W        W10536   2.226   2.947  10.204
 6793W        W10537   0.727   4.877  11.339
 6794W        W10538   2.278   1.943   2.583
 6795W        W10539   0.998   5.454   2.719
 6796W        W10540   3.595   5.359   1.292
 6797W        W10541   5.688   0.408   8.678
 6798W        W10542   5.563   0.359  10.164
 6799W        W10543   5.549   7.997   0.774
 6800W        W10544   5.254   0.783   1.175
 6801W        W10545   1.278   4.643   1.170
 6802W        W10546   1.451   6.597   0.785
 6803W        W10547   5.596   8.572   9.155
 6804W        W10548   4.282   2.204   2.755
 6805W        W10549   9.586   5.127  11.836
 6806W        W10550   0.689   0.318   0.951
 6807W        W10551   9.467   1.414   0.620
 6808W        W10552   6.448   3.692   9.405
 6809W        W10553   5.029   8.181   2.395
 6810W        W10554   9.395   1.323   2.916
 6811W        W10555   3.295   7.401   0.718
 6812W        W10556   7.976   3.874   8.503
 6813W        W10557   5.700   1.767   3.441
 6814W        W10558   8.458   0.826  10.551
 6815W        W10559   0.181   2.049   9.359
 6816W        W10560   3.844   7.594   8.979
 6817W        W10561   0.977   6.604  11.193
 6818W        W10562   6.363   8.783   1.685
 6819W        W10563   7.110   8.168  11.052
 6820W        W10564   0.332   9.772   9.571
 6821W        W10565   8.382   4.617   9.881
 6822W        W10566   2.103  10.361   2.647
 6823W        W10567   5.566   1.675  10.018
 6824W        W10568   0.404  10.393   3.174
 6825W        W10569   5.070   7.466   0.068
 6826W        W10570   2.660  10.318   9.506
 6827W        W10571   3.740   7.153   0.338
 6828W        W10572   4.028   5.687   1.380
 6829W        W10573   4.057   5.803   0.551
 6830W        W10574   1.332   0.456   8.703
 6831W        W10575   4.770   8.569   3.036
 6832W        W10576   9.063   5.378   2.354
 6833W        W10577   4.738   6.468   9.922
 6834W        W10578   8.479   9.839   1.520
 6835W        W10579   1.420   4.651   2.690
 6836W        W10580   1.674   5.508  10.181
 6837W        W10581   6.358   4.649   1.008
 6838W        W10582   2.994   7.694   8.143
 6839W        W10583   7.361   6.187   1.284
 6840W        W10584   6.897   1.308   9.363
 6841W        W10585   0.881   8.815  11.386
 6842W        W10586   3.072   0.301  11.342
 6843W        W10587   5.110   5.220  10.596
 6844W        W10588   3.504   0.042   2.295
 6845W        W10589   3.684  10.352   1.251
 6846W        W10590   8.975   2.742   9.751
 6847W        W10591   7.060   9.418   0.362
 6848W        W10592   7.660   8.367   1.917
 6849W        W10593   2.826   6.417   0.729
 6850W        W10594   5.758   0.850   3.505
 6851W        W10595   3.147   5.527   9.250
 6852W        W10596   6.201   3.465  10.342
 6853W        W10597   2.159   6.301   2.349
 6854W        W10598   6.478   9.727   0.607
 6855W        W10599   1.897   3.561   3.273
 6856W        W10600   2.669   9.991   0.416
 6857W        W10601   1.773   0.901  10.801
 6858W        W10602   4.179   1.417   1.287
 6859W        W10603   3.483   9.049  11.608
 6860W        W10604   1.069   2.750  10.698
 6861W        W10605   0.829   6.053   8.987
 6862W        W10606   0.571   8.625   0.492
 6863W        W10607   7.736   7.864   1.868
 6864W        W10608   8.960   9.374   3.011
 6865W        W10609   6.309   7.556   2.155
 6866W        W10610   0.396   6.387   1.310
 6867W        W10611   9.801   4.927   0.263
 6868W        W10612  10.263  10.044  10.423
 6869W        W10613   6.491   3.190   0.042
 6870W        W10614   0.713   1.290   2.326
 6871W        W10615   6.926   2.208   2.716
 6872W        W10616   6.727   5.223   2.171
 6873W        W10617   7.961   8.433   8.669
 6874W        W10618   3.192   4.477   0.749
 6875W        W10619   0.766   6.300   0.361
 6876W        W10620   1.502   2.450   0.591
 6877W        W10621   7.077   4.726   8.602
 6878W        W10622   6.831   7.075  10.437
 6879W        W10623   1.381   6.411   8.987
 6880W        W10624   2.341   8.985   2.009
 6881W        W10625   9.802   4.240   1.227
 6882W        W10626   9.564   8.474   9.941
 6883W        W10627   8.819   0.414  11.107
 6884W        W10628   2.083   6.898  10.514
 6885W        W10629   3.865   5.717  11.423
 6886W        W10630   1.990   7.652  10.905
 6887W        W10631   9.850   8.364   0.755
 6888W        W10632   4.496   4.532   1.986
 6889W        W10633   4.916  10.462   2.494
 6890W        W10634   9.721   7.943   9.835
 6891W        W10635   7.708   1.333  11.940
 6892W        W10636   7.586   9.143  10.240
 6893W        W10637  10.388   2.486   1.448
 6894W        W10638   0.481   0.709  10.455
 6895W        W10639   2.118   6.472   0.102
 6896W        W10640   4.168   9.800   1.982
 6897W        W10641   7.994   8.842  10.080
 6898W        W10642   2.250   6.907  11.499
 6899W        W10643   7.076   4.493   2.427
 6900W        W10644   4.633   4.093   2.720
 6901W        W10645   8.946   0.355   2.808
 6902W        W10646   9.023   1.819   1.186
 6903W        W10647   9.429   2.734  10.897
 6904W        W10648   0.368   7.122  11.388
 6905W        W10649   7.001   3.614   1.074
 6906W        W10650   3.068   0.220   8.817
 6907W        W10651   9.861   9.940   2.424
 6908W        W10652   9.592   8.164   9.366
 6909W        W10653   5.032   4.110   1.424
 6910W        W10654   9.713   9.234   0.849
 6911W        W10655   6.523   1.239   0.389
 6912W        W10656   1.411   7.364   0.149
 6913W        W10657  10.100   9.065   2.198
 6914W        W10658  10.412   6.945   1.707
 6915W        W10659   2.592   0.489   8.908
 6916W        W10660   0.422   1.198   1.837
 6917W        W10661   3.327   7.571  11.778
 6918W        W10662   8.768   0.876   2.339
 6919W        W10663   4.110   4.531   3.204
 6920W        W10664   8.943   1.114   3.830
 6921W        W10665   2.809   5.552   1.244
 6922W        W10666   8.466   6.158  10.831
 6923W        W10667   9.437   7.507   1.758
 6924W        W10668   1.668   5.076  10.459
 6925W        W10669   5.566   2.256  11.687
 6926W        W10670   2.715  10.452  10.014
 6927W        W10671   9.060   9.028   9.661
 6928W        W10672   7.226   4.058   3.758
 6929W        W10673   3.881   1.044  11.421
 6930W        W10674   2.621   1.626  10.712
 6931W        W10675   0.667   5.838   2.825
 6932W        W10676   7.609   9.123   1.503
 6933W        W10677   5.986   9.843   8.607
 6934W        W10678   6.813   6.149   3.090
 6935W        W10679   6.375   2.331   9.355
 6936W        W10680   6.328   4.351  10.036
 6937W        W10681   7.157   0.936  10.512
 6938W        W10682   7.897   0.851  11.230
 6939W        W10683   3.103   3.221   1.168
 6940W        W10684   8.373   1.391   1.691
 6941W        W10685   9.127   0.784  11.908
 6942W        W10686   7.914   1.270   0.983
 6943W        W10687   5.320   5.661   0.679
 6944W        W10688   4.561   5.153   0.621
 6945W        W10689   9.676   3.176  10.691
 6946W        W10690   3.860   4.913   1.361
 6947W        W10691   8.817   0.424  11.617
 6948W        W10692   2.594   2.470   1.291
 6949W        W10693   9.438  10.019   1.170
 6950W        W10694   5.254   7.006  11.996
 6951W        W10695   5.843   6.783   3.698
 6952W        W10696   9.447   2.875   9.892
 6953W        W10697   9.028   4.050  11.883
 6954W        W10698   6.921   2.420   0.748
 6955W        W10699   4.854   2.130   1.939
 6956W        W10700   2.480   8.314   8.242
 6957W        W10701  10.014   6.867  10.905
 6958W        W10702   1.751   7.678   1.510
 6959W        W10703   2.822   9.933  10.920
 6960W        W10704   1.118   7.180   1.347
 6961W        W10705   1.929   7.443   0.421
 6962W        W10706  10.198   3.144  10.351
 6963W        W10707   4.588   1.658  11.530
 6964W        W10708   3.563   6.356  11.031
 6965W        W10709   7.201   6.571   8.863
 6966W        W10710   2.369   8.732   0.412
 6967W        W10711   0.268   9.701   2.314
 6968W        W10712   2.329   7.468   0.760
 6969W        W10713   0.186   2.682  11.803
 6970W        W10714   6.042   8.205  11.986
 6971W        W10715   9.320   1.741  11.328
 6972W        W10716   5.023   0.526  10.977
 6973W        W10717   9.754   6.733   8.614
 6974W        W10718   1.699   7.851   0.274
 6975W        W10719   7.942   9.839   2.394
 6976W        W10720   4.728   1.712   8.472
 6977W        W10721  10.027   1.428   1.751
 6978W        W10722   6.422   8.011   9.806
 6979W        W10723  10.434   5.607  10.496
 6980W        W10724   7.077   9.924   1.274
 6981W        W10725   3.053   4.619   9.002
 6982W        W10726   5.336   2.866   2.092
 6983W        W10727   1.208   7.996   0.870
 6984W        W10728   8.982   3.958   2.868
 6985W        W10729   1.274   1.950  11.342
 6986W        W10730   7.102   1.131   2.415
 6987W        W10731   5.940   1.583   2.812
 6988W        W10732   5.728   9.059   3.129
 6989W        W10733   0.492   3.072   0.730
 6990W        W10734   8.615   2.267   1.600
 6991W        W10735   4.385   1.208  11.978
 6992W        W10736   8.950   6.940   9.030
 6993W        W10737   5.227   3.067   3.060
 6994W        W10738   5.806   1.408  11.798
 6995W        W10739   3.290   6.645   1.093
 6996W        W10740   0.400   7.610  10.035
 6997W        W10741   8.952   7.836   1.235
 6998W        W10742   0.654   0.817   3.202
 6999W        W10743   7.103   1.776   2.456
 7000W        W10744   0.177   9.916  11.417
 7001W        W10745   0.783   4.160   0.216
 7002W        W10746  10.449   2.916   2.147
 7003W        W10747   8.054   3.746  10.288
 7004W        W10748   7.045  10.384  10.406
 7005W        W10749   7.952   5.651  10.715
 7006W        W10750   7.672   3.593   0.341
 7007W        W10751   9.839   7.868   0.711
 7008W        W10752   3.277   9.275   0.277
 7009W        W10753   0.022   3.227  11.850
 7010W        W10754   9.478  10.024   0.285
 7011W        W10755   3.154   4.611   8.161
 7012W        W10756   3.393   4.449   3.169
 7013W        W10757   0.994   3.803   2.782
 7014W        W10758   9.156  10.340   9.790
 7015W        W10759   2.603   6.480   1.664
 7016W        W10760   1.402   9.767   1.388
 7017W        W10761   4.263   0.482   2.246
 7018W        W10762   9.992   6.699   1.421
 7019W        W10763   4.940   7.132   3.801
 7020W        W10764   3.848   9.032  11.231
 7021W        W10765   4.600   0.899   2.248
 7022W        W10766   0.680   9.996   9.939
 7023W        W10767   3.169   7.161  10.815
 7024W        W10768   5.788   4.674  10.896
 7025W        W10769   7.319   0.858   1.119
 7026W        W10770   4.689   6.474   0.797
 7027W        W10771   5.427   5.421   0.212
 7028W        W10772  10.326   0.811  10.209
 7029W        W10773   6.949  10.271   9.434
 7030W        W10774   3.795   1.452  10.887
 7031W        W10775   9.888   4.077   0.380
 7032W        W10776   2.837   6.684   9.819
 7033W        W10777   2.362   8.538  10.875
 7034W        W10778   9.785   3.598   0.765
 7035W        W10779   5.194   9.821   2.975
 7036W        W10780   9.210   7.416   3.384
 7037W        W10781   4.720   3.634   2.962
 7038W        W10782   9.848   6.373  10.938
 7039W        W10783   2.714   1.651   2.650
 7040W        W10784   0.368   3.597  10.090
 7041W        W10785   7.556   4.436   2.650
 7042W        W10786   2.184   2.891   2.024
 7043W        W10787   1.568   3.665   1.384
 7044W        W10788   8.971   8.350  10.833
 7045W        W10789   1.781   3.149  10.461
 7046W        W10790   7.169   3.335   3.240
 7047W        W10791   1.913   8.910   9.550
 7048W        W10792   7.358   4.534  11.526
 7049W        W10793   2.222   5.554   1.906
 7050W        W10794   8.090   1.579  11.039
 7051W        W10795   2.651   4.675  10.031
 7052W        W10796   2.917  10.240   1.705
 7053W        W10797   8.964   1.777   9.837
 7054W        W10798   6.077   3.338   9.412
 7055W        W10799  10.067   0.407   9.025
 7056W        W10800   6.185   0.579   3.673
 7057W        W10801  10.328   1.384  10.470
 7058W        W10802   3.582   9.942  11.530
 7059W        W10803   5.003   9.986  11.208
 7060W        W10804   7.557   5.043   1.857
 7061W        W10805   8.664   3.663   9.016
 7062W        W10806   6.276   0.804  10.351
 7063W        W10807   2.516   4.035   9.422
 7064W        W10808   8.513   3.349   0.012
 7065W        W10809   3.739   0.321   3.027
 7066W        W10810   9.735   0.344  10.796
 7067W        W10811   6.929   5.987  10.647
 7068W        W10812   0.888   3.835   1.860
 7069W        W10813   8.139   4.632  10.331
 7070W        W10814   1.284   3.797   2.341
 7071W        W10815   7.063   8.340   9.774
 7072W        W10816  10.031   1.826  10.451
 7073W        W10817  10.268   6.003   1.761
 7074W        W10818   5.851   0.673   2.780
 7075W        W10819   0.957   8.976   3.500
 7076W        W10820   4.073   4.092  10.800
 7077W        W10821   4.707   8.607   1.694
 7078W        W10822  10.460   3.841   3.196
 7079W        W10823   1.656   1.958   1.477
 7080W        W10824   6.624   6.212   4.046
 7081W        W10825   8.594   1.724   0.916
 7082W        W10826   0.162   0.847   0.563
 7083W        W10827   1.001   4.670   0.267
 7084W        W10828   0.159   2.182   2.314
 7085W        W10829   1.805   7.158  10.893
 7086W        W10830   8.952   7.528  10.348
 7087W        W10831   8.562   2.121  11.493
 7088W        W10832   6.549   0.979  11.944
 7089W        W10833   9.679   8.953  11.108
 7090W        W10834   2.788   9.563  11.658
 7091W        W10835   7.801   6.591   0.656
 7092W        W10836   8.486   3.718  11.551
 7093W        W10837   0.375   5.027   1.371
 7094W        W10838   3.621   4.093  11.021
 7095W        W10839   6.179   7.081  10.943
 7096W        W10840   0.801   2.204   1.754
 7097W        W10841   2.379   3.784   1.644
 7098W        W10842   0.364   1.569   3.484
 7099W        W10843   8.393   7.413  11.427
 7100W        W10844   7.566   3.766   2.050
 7101W        W10845   6.606   1.221  11.501
 7102W        W10846   2.788   7.350   2.872
 7103W        W10847   0.618   4.600  10.792
 7104W        W10848   0.825   0.922   8.738
 7105W        W10849   6.259   4.948   0.042
 7106W        W10850   3.963   2.095  11.998
 7107W        W10851   2.913  10.303   3.079
 7108W        W10852   5.773   0.416   3.217
 7109W        W10853   2.168   8.699   8.432
 7110W        W10854   1.459   1.306   3.210
 7111W        W10855   0.160   8.960  10.905
 7112W        W10856   1.142   0.933   3.094
 7113W        W10857   3.277   4.157   8.973
 7114W        W10858   8.654   1.354   0.333
 7115W        W10859   6.606   6.509   0.910
 7116W        W10860   7.392   2.267  10.876
 7117W        W10861   3.402  10.281   1.849
 7118W        W10862   9.351   1.835   0.263
 7119W        W10863   6.268   7.860   0.796
 7120W        W10864   2.696   0.563   0.218
 7121W        W10865   5.766   4.930   0.476
 7122W        W10866   6.402   8.989  10.970
 7123W        W10867   6.263   0.346   9.919
 7124W        W10868   3.131   9.308  11.381
 7125W        W10869   6.500  10.403   9.127
 7126W        W10870   6.846   4.366  10.077
 7127W        W10871  10.032   2.159   8.791
 7128W        W10872   7.556   2.221   9.299
 7129W        W10873   1.295   7.969   9.055
 7130W        W10874   8.590   1.277   8.964
 7131W        W10875   7.861   3.835   9.245
 7132W        W10876   4.275   1.797   9.258
 7133W        W10877  10.432   4.692   3.528
 7134W        W10878   9.964   1.824   2.487
 7135W        W10879   2.563   9.008   1.171
 7136W        W10880   3.700   7.594  10.271
 7137W        W10881   8.402   3.739   9.921
 7138W        W10882   2.857   2.400   9.865
 7139W        W10883  10.354   1.597   8.634
 7140W        W10884   6.559   1.954   2.078
 7141W        W10885   4.086   7.819   0.328
 7142W        W10886   0.800   3.253   8.985
 7143W        W10887   3.583   5.513   9.874
 7144W        W10888   1.735  10.352   9.552
 7145W        W10889   9.896   0.170   0.833
 7146W        W10890   6.167   0.645   8.572
 7147W        W10891   7.268   7.754  11.971
 7148W        W10892   6.731   2.690   2.325
 7149W        W10893   3.697   0.828  10.527
 7150W        W10894   2.297   8.214   3.582
 7151W        W10895   8.316   3.692   9.408
 7152W        W10896   7.905   3.222   2.103
 7153W        W10897   0.938   3.224   1.865
 7154W        W10898   7.434   8.630  10.529
 7155W        W10899   0.824   0.626   9.587
 7156W        W10900   9.071   1.970  10.300
 7157W        W10901   9.094   9.292   1.372
 7158W        W10902   4.332   2.895  10.522
 7159W        W10903   8.457   1.307   1.202
 7160W        W10904   6.743   2.576   3.500
 7161W        W10905   4.136   6.119   9.638
 7162W        W10906   2.312  10.330  11.270
 7163W        W10907   2.939   3.264   9.927
 7164W        W10908   9.033   1.270  11.718
 7165W        W10909   1.870   0.186  10.540
 7166W        W10910   1.108   2.663   3.396
 7167W        W10911   9.532   2.610  11.986
 7168W        W10912   7.143   4.191   2.852
 7169W        W10913   0.690   6.021  10.727
 7170W        W10914   6.540   1.931  11.909
 7171W        W10915   2.642   4.092  10.939
 7172W        W10916   8.283   6.962   2.629
 7173W        W10917   0.952   8.487   0.902
 7174W        W10918   1.421   0.298   9.563
 7175W        W10919   1.528   5.061   9.332
 7176W        W10920   4.082   4.363   0.569
 7177W        W10921   4.149   8.360   3.649
 7178W        W10922   6.455   6.093   9.762
 7179W        W10923   8.100   2.095   9.983
 7180W        W10924   3.201   8.970   2.471
 7181W        W10925   8.082   0.134   3.496
 7182W        W10926   3.103   3.734   9.993
 7183W        W10927   4.023  10.228  11.417
 7184W        W10928   1.177   5.941   2.872
 7185W        W10929   0.937   1.287   1.885
 7186W        W10930   8.801   8.564   9.454
 7187W        W10931   4.317   6.616   2.882
 7188W        W10932   7.505   6.052   8.895
 7189W        W10933   0.686   1.964   9.360
 7190W        W10934   3.779   0.969   1.775
 7191W        W10935   7.009   0.117   2.150
 7192W        W10936   5.850   2.865   2.038
 7193W        W10937   9.842   8.843   0.069
 7194W        W10938   1.812  10.179  10.540
 7195W        W10939   3.100   2.280   2.366
 7196W        W10940   0.671   1.342   0.069
 7197W        W10941   2.147   2.408   0.629
 7198W        W10942   7.454   4.130   9.331
 7199W        W10943   3.364   0.750  11.389
 7200W        W10944   2.650  10.409   2.626
 7201W        W10945   0.036   5.530   9.023
 7202W        W10946   4.934   1.658   2.924
 7203W        W10947   3.924   4.487   0.101
 7204W        W10948   9.327   4.542   2.372
 7205W        W10949   9.224  10.123  10.385
 7206W        W10950   9.388   0.931   0.402
 7207W        W10951   1.244   2.746   9.282
 7208W        W10952   2.580   4.199   1.897
 7209W        W10953   3.097   5.571   9.748
 7210W        W10954   2.892   8.981   9.504
 7211W        W10955   5.533   6.034  10.755
 7212W        W10956   7.706   7.813   9.850
 7213W        W10957   3.085   2.726   8.847
 7214W        W10958   5.058  10.388   8.727
 7215W        W10959   6.510  10.463   0.014
 7216W        W10960   3.827   3.166   9.764
 7217W        W10961   7.819   6.468   0.167
 7218W        W10962   6.013   2.191   8.507
 7219W        W10963   3.221   3.200  11.054
 7220W        W10964   4.761  10.128   9.355
 7221W        W10965   4.113   7.045   9.774
 7222W        W10966  10.301   9.909   2.712
 7223W        W10967   4.082   2.659   1.878
 7224W        W10968   0.515   0.852   2.198
 7225W        W10969   1.357   1.463   0.752
 7226W        W10970   2.025   1.784   1.781
 7227W        W10971   3.748  10.097   2.176
 7228W        W10972   5.638   4.866  11.373
 7229W        W10973   9.844   7.733   2.264
 7230ION    NA+10974   7.862   7.032   9.049
 7231ION    NA+10975   8.811  10.450  11.941
 7232ION    NA+10976   0.387   6.621   3.610
 7233ION    NA+10977   6.682   1.818   3.074
 7234ION    NA+10978   0.006   3.693  11.510
 7235ION    NA+10979   1.370   8.626   2.973
 7236ION    NA+10980   9.966   6.481   0.958
 7237ION    NA+10981   4.876   0.370   9.400
 7238ION    NA+10982   2.952   4.684   0.217
 7239ION    NA+10983   0.086   0.475   9.011
 7240ION    NA+10984   7.391   4.667   8.159
 7241ION    NA+10985   0.200   9.068   9.240
 7242ION    NA+10986   5.266   7.109  11.042
 7243ION    NA+10987   5.204   3.073   9.042
 7244ION    NA+10988   6.368   8.910  10.118
 7245ION    NA+10989   1.441   6.724   9.814
 7246ION    NA+10990   4.068   1.983  11.055
 7247ION    NA+10991   1.563   0.258   0.926
 7248ION    NA+10992   2.746   0.357  10.831
 7249ION    NA+10993   2.334   2.513   1.732
 7250ION    NA+10994   9.422   0.157   2.008
 7251ION    NA+10995   0.473   7.719   1.362
 7252ION    NA+10996   7.745   0.824   3.786
 7253ION    NA+10997   7.902   3.742   9.759
 7254ION    NA+10998   0.209   5.329  10.833
 7255ION    NA+10999   3.826   4.768  11.201
 7256ION    NA+11000   7.059   1.977   0.519
 7257ION    NA+11001   3.610   9.283   2.420
 7258ION    NA+11002   6.605   3.521   1.895
 7259ION    NA+11003   3.241   6.567   9.451
 7260ION    NA+11004   1.630   4.979   1.357
 7261ION    NA+11005  10.426  10.355   2.958
 7262ION    NA+11006   2.672   1.974  11.112
 7263ION    NA+11007   7.095  10.097   8.990
 7264ION    NA+11008   9.366   3.273   0.785
 7265ION    NA+11009   1.689   1.797  11.066
 7266ION    NA+11010   1.728   2.972   9.176
 7267ION    NA+11011   4.531   6.797   9.595
 7268ION    NA+11012   1.784   7.159  11.531
 7269ION    NA+11013   3.844   0.946   0.621
 7270ION    NA+11014   0.356   9.053   0.310
 7271ION    NA+11015   9.408   1.465  10.445
 7272ION    NA+11016   7.588   2.103  11.361
 7273ION    NA+11017   9.585   5.226   3.464
 7274ION    NA+11018   4.532   5.182   0.084
 7275ION    NA+11019   0.922   5.402   0.124
 7276ION    NA+11020  10.111   9.596   9.549
 7277ION    NA+11021   3.314   6.669   2.590
 7278ION    NA+11022   2.730   9.348   1.938
 7279ION    NA+11023   5.911   9.131  10.979
 7280ION    NA+11024   4.980   3.303   8.095
 7281ION    NA+11025   5.375   4.861   1.642
 7282ION    NA+11026   9.655   3.738  11.144
 7283ION    NA+11027   0.256   5.165   1.860
 7284ION    NA+11028   1.147  10.059  11.638
 7285ION    NA+11029   1.713   0.399  10.999
 7286ION    NA+11030   4.112   8.143   1.018
 7287ION    NA+11031   5.117   2.376   1.228
 7288ION    NA+11032   1.110   9.021  11.839
 7289ION    NA+11033   0.385   8.127   2.787
 7290ION    NA+11034   6.294   9.632   1.898
 7291ION    NA+11035   4.970   4.737   0.895
 7292ION    NA+11036   0.677   0.783   0.766
 7293ION    NA+11037   1.278   9.944   3.324
 7294ION    NA+11038   3.821   0.927  10.049
 7295ION    NA+11039   1.913   7.684   9.899
 7296ION    NA+11040   5.266   5.580  11.739
 7297ION    NA+11041   3.925   0.061   9.405
 7298ION    NA+11042   2.804   0.184   0.535
 7299ION    NA+11043   7.869   0.682   2.219
 7300ION    NA+11044   2.010   0.539   0.018
 7301ION    NA+11045   4.760   3.661   1.932
 7302ION    NA+11046   1.014   8.178  11.887
 7303ION    NA+11047   6.782   7.648   0.684
 7304ION    NA+11048   2.799   7.965   2.318
 7305ION    NA+11049   4.370   8.619   9.918
 7306ION    CL-11050   5.128   4.951   1.270
 7307ION    CL-11051   4.870   5.396  11.863
 7308ION    CL-11052   9.025   2.833  10.249
 7309ION    CL-11053   8.564   1.390   9.463
 7310ION    CL-11054  10.380   3.222   1.756
 7311ION    CL-11055   5.459   6.894   1.466
 7312ION    CL-11056   1.735  10.169   8.581
 7313ION    CL-11057   8.489   8.811   9.788
 7314ION    CL-11058   9.247   0.219  10.895
 7315ION    CL-11059   3.203   2.744   3.437
 7316ION    CL-11060   1.965   8.090   9.707
 7317ION    CL-11061   2.781   3.633   1.103
 7318ION    CL-11062   7.425  10.075   9.300
 7319ION    CL-11063   0.625   7.310   1.257
 7320ION    CL-11064   2.681   1.867  11.547
 7321ION    CL-11065   1.166   8.567  11.711
 7322ION    CL-11066   1.321   2.946  11.734
 7323ION    CL-11067   3.712   8.878   2.263
 7324ION    CL-11068   4.672   0.492   1.920
 7325ION    CL-11069   9.134   2.702   8.747
 7326ION    CL-11070   2.868   0.560   2.002
 7327ION    CL-11071   3.938   0.808   1.038
 7328ION    CL-11072   6.789   9.025  10.023
 7329ION    CL-11073   8.527   9.135   0.526
 7330ION    CL-11074   9.418   4.325   9.586
 7331ION    CL-11075   6.743   9.571   1.934
 7332ION    CL-11076   9.339   3.510  10.915
 7333ION    CL-11077   7.870   8.913  10.603
 7334ION    CL-11078   2.886   4.567   3.204
 7335ION    CL-11079   2.674   1.257   1.313
 7336ION    CL-11080   0.692   9.150   0.014
 7337ION    CL-11081   0.175   8.946   0.712
 7338ION    CL-11082   2.089   3.817   0.405
 7339ION    CL-11083   1.571   2.937   8.750
 7340ION    CL-11084   4.433  10.004  11.972
 7341ION    CL-11085   1.278   8.654   2.528
 7342ION    CL-11086   2.476   7.698   2.471
 7343ION    CL-11087   5.114   9.206   9.509
 7344ION    CL-11088   4.756   9.905  10.305
 7345ION    CL-11089   8.326   5.349   8.828
 7346ION    CL-11090   6.654   1.433   3.306
 7347ION    CL-11091  10.078   3.729  11.356
 7348ION    CL-11092   9.862   8.035   1.797
 7349ION    CL-11093   6.843   7.142   0.962
 7350ION    CL-11094   2.255   1.884   0.507
 7351ION    CL-11095   5.062   2.890   9.422
 7352ION    CL-11096  10.494   9.364   9.513
 7353ION    CL-11097   4.185   3.655   3.681
 7354ION    CL-11098   5.855   7.823   1.153
 7355ION    CL-11099   2.508   4.701   0.199
 7356ION    CL-11100   3.129   5.191   8.851
 7357ION    CL-11101   4.852   4.562  10.700
 7358ION    CL-11102   7.160   8.417   1.792
 7359ION    CL-11103   4.020   2.358  11.294
 7360ION    CL-11104   1.225   9.093  10.112
 7361ION    CL-11105   6.931   9.950   8.585
 7362ION    CL-11106   7.989   4.504   1.386
 7363ION    CL-11107   0.264  10.085   0.430
 7364ION    CL-11108   2.593   6.478  11.910
 7365ION    CL-11109   7.976   6.156   9.554
 7366ION    CL-11110   1.392   8.613   3.459
 7367ION    CL-11111   9.272   5.030   8.742
 7368ION    CL-11112   0.625   5.179  10.904
 7369ION    CL-11113   5.183   3.440   4.106
 7370ION    CL-11114   6.951   7.951   0.389
 7371ION    CL-11115   5.847   9.682   1.821
 7372ION    CL-11116   4.022   5.068  10.937
 7373ION    CL-11117   3.488   6.857   2.956
 7374ION    CL-11118   0.567   1.147   0.534
 7375ION    CL-11119   8.457   8.201  10.990
 7376ION    CL-11120   8.915   6.948  10.761
 7377ION    CL-11121   8.508  10.093   3.000
 7378ION    CL-11122   4.196   2.285   9.379
 7379ION    CL-11123   2.906   0.868   9.022
 7380ION    CL-11124   2.228   2.882   1.501
 7381ION    CL-11125   1.343   9.824  11.967
  10.50000  10.50000  12.00000
