Protein in INSANE! Membrane UpperLeaflet>POPC=1.0 LowerLeaflet>POPC=1.0
12914
    1AU     AUC    1   6.540   2.688   6.691 -0.0725  0.1690 -0.0426
    1AU     AUC    2   6.509   2.727   6.375 -0.0719  0.0585  0.0222
    1AU     AUC    3   6.399   2.463   6.551  0.0582  0.0673  0.1021
    1AU     AUC    4   6.657   2.967   6.866  0.0532 -0.0352  0.0430
    1AU     AUC    5   6.591   2.678   7.012  0.0171 -0.0788 -0.0126
    1AU     AUC    6   6.837   2.669   6.815 -0.1002  0.0275 -0.0169
    1AU     AUC    7   6.747   2.535   6.515  0.0546 -0.0033 -0.0142
    1AU     AUC    8   6.323   2.889   6.874  0.0788  0.0140 -0.0435
    1AU     AUC    9   6.210   2.758   6.564  0.0647  0.0439  0.0735
    1AU     AUC   10   6.297   2.565   6.850 -0.0347 -0.0663  0.0588
    1AU     AUC   11   6.666   2.429   6.820  0.0484 -0.0189 -0.0119
    1AU     AUC   12   6.469   3.001   6.571 -0.1537 -0.0790  0.0325
    1AU     AUC   13   6.743   2.875   6.544  0.1054  0.0604  0.0831
    1AU     AUC   14   6.482   2.699   6.024  0.0720 -0.0541 -0.0454
    1AU     AUC   15   6.334   2.437   6.211  0.0945 -0.0275 -0.0583
    1AU     AUC   16   6.233   2.166   6.430 -0.0722  0.0081 -0.0466
    1AU     AUC   17   6.775   3.226   7.017  0.0313  0.0661  0.0929
    1AU     AUC   18   6.711   2.942   7.247 -0.0073 -0.0211 -0.0248
    1AU     AUC   19   6.645   2.609   7.356 -0.0801  0.0119  0.0369
    1AU     AUC   20   7.165   2.687   6.922  0.0026  0.0700  0.0122
    1AU     AUC   21   7.120   2.495   6.571 -0.0250  0.0034  0.0631
    1AU     AUC   22   6.941   2.364   6.327 -0.0709 -0.0656  0.0714
    1AU     AUC   23   6.130   3.064   7.088 -0.0059  0.0475 -0.0012
    1AU     AUC   24   5.968   2.936   6.784  0.0538 -0.0218  0.0173
    1AU     AUC   25   5.888   2.788   6.475 -0.0991  0.0176  0.0785
    1AU     AUC   26   6.057   2.374   7.067  0.0803 -0.0390 -0.0304
    1AU     AUC   27   6.399   2.222   7.003  0.0028  0.0521  0.0372
    1AU     AUC   28   6.726   2.101   6.919  0.0481 -0.0191  0.0230
    1AU     AUC   29   6.363   3.275   6.422 -0.0809  0.0012  0.0038
    1AU     AUC   30   6.670   3.204   6.357  0.0336 -0.0595 -0.0551
    1AU     AUC   31   6.986   3.044   6.359  0.0123  0.0225  0.0531
    1AU     AUC   32   6.125   2.267   6.759  0.1348  0.0039 -0.1089
    1AU     AUC   33   6.455   2.127   6.661  0.0410 -0.0080  0.0004
    1AU     AUC   34   6.426   3.005   6.155  0.0764  0.0714 -0.0472
    1AU     AUC   35   6.757   2.875   6.155  0.0026  0.0548  0.0410
    1AU     AUC   36   6.345   2.485   7.235  0.1136  0.0309  0.0660
    1AU     AUC   37   6.700   2.341   7.177  0.0130  0.0672  0.0832
    1AU     AUC   38   6.574   3.287   6.738 -0.0164  0.0490  0.0561
    1AU     AUC   39   6.881   3.205   6.699  0.0082  0.0535 -0.0094
    1AU     AUC   40   6.676   2.504   6.108  0.0335  0.0343  0.0341
    1AU     AUC   41   6.573   2.246   6.359  0.0188 -0.0576 -0.0767
    1AU     AUC   42   7.000   2.957   6.989  0.0994 -0.0083  0.0146
    1AU     AUC   43   6.923   2.660   7.183 -0.0230  0.0781  0.0940
    1AU     AUC   44   6.170   2.745   6.235  0.0307  0.0035 -0.0098
    1AU     AUC   45   6.029   2.477   6.451  0.0004  0.0110  0.0348
    1AU     AUC   46   6.421   3.166   7.077  0.0345 -0.0102 -0.1138
    1AU     AUC   47   6.349   2.831   7.238  0.1154  0.1097  0.0040
    1AU     AUC   48   6.982   2.369   6.894  0.0354  0.0208  0.0185
    1AU     AUC   49   6.860   2.241   6.611 -0.0300 -0.0772  0.0687
    1AU     AUC   50   6.042   2.725   7.081  0.0786  0.0550  0.0246
    1AU     AUC   51   5.944   2.590   6.778 -0.0500  0.0873  0.1056
    1AU     AUC   52   7.052   2.872   6.639 -0.1081 -0.0031  0.0433
    1AU     AUC   53   6.990   2.700   6.291 -0.0553 -0.0458 -0.0401
    1AU     AUC   54   6.237   3.186   6.756  0.1237  0.0046  0.0097
    1AU     AUC   55   6.125   3.028   6.416 -0.1124 -0.0273  0.0317
    1AU    AUSL   56   6.110   1.894   6.650  0.0071 -0.0215  0.1006
    1AU    AUSL   57   5.803   2.202   6.849 -0.0078  0.0091 -0.0427
    1AU     AUL   58   5.748   1.880   6.670 -0.0289  0.0302  0.0833
    1AU       S   59   5.392   2.177   6.616 -0.3519  0.2149  0.3167
    1AU     LIG   60   5.116   2.008   6.806  0.1028 -0.1133  0.1401
    1AU     LIG   61   4.930   1.728   6.968 -0.0881 -0.1787 -0.0622
    1AU     LIG   62   4.531   1.653   6.956 -0.1764  0.1155  0.0226
    1AU     LIG   63   4.275   1.280   7.159  0.1859  0.0092 -0.1574
    1AU     LIG   64   4.424   0.911   7.310  0.0293  0.3371 -0.1584
    1AU       S   65   5.948   1.528   6.915 -0.1339  0.1761 -0.0374
    1AU     LIG   66   6.195   1.207   6.964 -0.1588  0.0648  0.0010
    1AU     LIG   67   6.403   0.779   7.003  0.0559 -0.0198 -0.0534
    1AU     LIG   68   6.121   0.426   6.864 -0.0408 -0.0920 -0.2105
    1AU     LIG   69   5.736   0.260   6.821 -0.2732  0.2308 -0.0048
    1AU     LIG   70   5.330   0.347   7.039  0.3729  0.0325 -0.3306
    1AU    AUSL   71   6.088   1.973   7.071  0.0020  0.0415 -0.0213
    1AU    AUSL   72   6.516   1.943   7.287  0.0397 -0.0132 -0.0357
    1AU     AUL   73   6.335   1.644   7.196 -0.0996  0.0355  0.1122
    1AU       S   74   5.901   1.845   7.154 -0.2171 -0.7232  0.5414
    1AU     LIG   75   5.498   1.888   7.112 -0.0274  0.1972  0.3222
    1AU     LIG   76   5.365   1.583   7.188  0.1602  0.1155 -0.1420
    1AU     LIG   77   5.022   1.362   7.360  0.3143  0.0560 -0.0154
    1AU     LIG   78   4.619   1.328   7.552  0.1539 -0.2587 -0.4498
    1AU     LIG   79   4.145   1.590   7.485 -0.0252 -0.0430 -0.3915
    1AU       S   80   6.330   1.925   7.587  0.1840 -0.0703  0.3684
    1AU     LIG   81   6.646   1.531   7.590 -0.1763 -0.2388  0.0688
    1AU     LIG   82   7.055   1.179   7.792 -0.1015 -0.0911  0.2900
    1AU     LIG   83   7.482   1.263   7.717  0.2326  0.1905 -0.2873
    1AU     LIG   84   7.734   1.398   7.299 -0.0641 -0.0455 -0.1330
    1AU     LIG   85   8.079   1.637   7.108  0.0529  0.3411 -0.3664
    1AU    AUSL   86   6.476   2.019   6.860  0.0489 -0.0284 -0.0773
    1AU    AUSL   87   6.472   1.836   6.427  0.0460  0.0178 -0.0454
    1AU     AUL   88   6.338   1.664   6.717  0.0558  0.0290  0.0427
    1AU       S   89   6.797   1.610   7.152 -0.0510  0.1162  0.0227
    1AU     LIG   90   7.140   1.575   7.408 -0.1722 -0.2009  0.3049
    1AU     LIG   91   7.268   1.132   7.298 -0.2289  0.3411 -0.1472
    1AU     LIG   92   7.551   0.993   7.019 -0.1539  0.3994 -0.3573
    1AU     LIG   93   7.705   0.670   6.881 -0.1150 -0.1490 -0.1236
    1AU     LIG   94   7.537   0.317   6.677  0.0031  0.2140 -0.0695
    1AU       S   95   6.489   1.510   6.317 -0.5260 -0.3320  0.1421
    1AU     LIG   96   6.329   1.154   6.497  0.0364 -0.3126  0.3036
    1AU     LIG   97   6.410   0.709   6.544 -0.0626 -0.3466  0.2535
    1AU     LIG   98   6.732   0.456   6.871  0.1561 -0.0707  0.0267
    1AU     LIG   99   7.028   0.198   6.726 -0.2134  0.0794 -0.0066
    1AU     LIG  100   7.191  -0.281   6.874  0.5108 -0.3705 -0.0628
    1AU    AUSL  101   6.696   2.996   5.843  0.1066  0.0070  0.0590
    1AU    AUSL  102   7.088   2.854   5.994 -0.0022  0.0103 -0.0809
    1AU     AUL  103   6.960   2.963   5.585 -0.0750  0.0393  0.0228
    1AU       S  104   7.054   3.351   5.781  0.3299  0.3257 -0.3590
    1AU     LIG  105   7.313   3.761   5.763  0.2030 -0.1697  0.3446
    1AU     LIG  106   7.659   3.838   5.958 -0.0860  0.0821 -0.0298
    1AU     LIG  107   7.983   4.165   6.007  0.2528  0.2996  0.2607
    1AU     LIG  108   8.416   4.213   6.051 -0.2984 -0.4308 -0.4063
    1AU     LIG  109   8.632   4.049   6.337  0.2116 -0.0801  0.0516
    1AU       S  110   7.231   2.593   5.666 -0.2860 -0.0435  0.3640
    1AU     LIG  111   7.650   2.538   5.711 -0.0410 -0.1588 -0.1532
    1AU     LIG  112   7.836   2.553   6.017  0.0761 -0.0646 -0.0990
    1AU     LIG  113   8.143   2.470   6.306 -0.0538  0.1018  0.1750
    1AU     LIG  114   8.450   2.179   6.399 -0.1873 -0.0849  0.0607
    1AU     LIG  115   8.785   2.017   6.668  0.0207  0.2163 -0.2360
    1AU    AUSL  116   6.539   3.353   5.975  0.0454 -0.0565  0.0342
    1AU    AUSL  117   6.274   2.941   5.832 -0.0408  0.0279 -0.0172
    1AU     AUL  118   6.471   3.157   5.636  0.0532 -0.0396 -0.0363
    1AU       S  119   6.015   3.186   5.637  0.0264 -0.0375 -0.1821
    1AU     LIG  120   5.904   2.903   5.360  0.1557  0.0976  0.0341
    1AU     LIG  121   5.915   2.572   5.293 -0.0446 -0.1704  0.0623
    1AU     LIG  122   5.671   2.144   5.307 -0.1609  0.1030 -0.0340
    1AU     LIG  123   5.336   1.903   5.329  0.2459 -0.0718 -0.2182
    1AU     LIG  124   4.868   1.788   5.263 -0.1137  0.1859 -0.3772
    1AU       S  125   6.875   3.431   5.662 -0.2337 -0.2919 -0.2990
    1AU     LIG  126   6.607   3.736   5.619 -0.0064 -0.0712  0.0988
    1AU     LIG  127   6.237   3.923   5.586 -0.1712  0.3934 -0.1243
    1AU     LIG  128   6.009   4.216   5.790  0.2255 -0.1271 -0.3506
    1AU     LIG  129   6.066   4.629   6.059  0.0842  0.2567 -0.2283
    1AU     LIG  130   6.006   4.814   6.534 -0.0184 -0.4057 -0.3148
    1AU    AUSL  131   6.872   3.163   6.195  0.1108 -0.0120  0.0101
    1AU    AUSL  132   6.582   3.468   6.376  0.0867 -0.0208 -0.0873
    1AU     AUL  133   6.698   3.587   6.089 -0.0339 -0.0464  0.0215
    1AU       S  134   6.835   3.921   6.371 -0.5713 -0.5696  0.0532
    1AU     LIG  135   6.946   4.324   6.431  0.0840  0.0609  0.0796
    1AU     LIG  136   6.946   4.779   6.382 -0.0539  0.2251  0.4369
    1AU     LIG  137   6.879   5.245   6.585 -0.1832  0.0666  0.0832
    1AU     LIG  138   6.653   5.670   6.777  0.1456  0.1070 -0.0040
    1AU     LIG  139   6.792   6.084   6.692  0.0780 -0.2569 -0.4392
    1AU       S  140   7.045   3.322   5.945 -0.1790 -0.0027 -0.2737
    1AU     LIG  141   7.495   3.425   6.107  0.1110  0.0768  0.2229
    1AU     LIG  142   7.980   3.369   6.095 -0.0840 -0.1593  0.0098
    1AU     LIG  143   8.214   3.101   6.154 -0.2244  0.0386 -0.0796
    1AU     LIG  144   8.624   3.223   6.059 -0.2050 -0.0699 -0.1894
    1AU     LIG  145   8.895   3.024   6.470 -0.3325  0.1337  0.2181
    1AU    AUSL  146   6.595   2.318   7.509 -0.0556 -0.0290  0.0116
    1AU    AUSL  147   6.889   2.103   7.192 -0.0117  0.0705  0.0410
    1AU     AUL  148   6.796   1.959   7.528 -0.0390  0.0749  0.0059
    1AU       S  149   6.378   1.996   7.775  0.2111 -0.1989 -0.0863
    1AU     LIG  150   6.090   1.502   7.734 -0.0841  0.0489  0.1596
    1AU     LIG  151   5.863   1.420   7.430 -0.3439  0.1847  0.3124
    1AU     LIG  152   5.642   1.162   7.228 -0.3586 -0.1971  0.1129
    1AU     LIG  153   5.275   0.839   7.100  0.1552  0.2330  0.1465
    1AU     LIG  154   4.934   0.606   6.946 -0.0028 -0.0581  0.1168
    1AU       S  155   7.257   2.063   7.528  0.0630  0.0546  0.3248
    1AU     LIG  156   7.622   1.962   7.711 -0.0721  0.5637  0.1110
    1AU     LIG  157   7.942   1.720   7.713  0.5977  0.1296 -0.1534
    1AU     LIG  158   8.194   1.288   7.518  0.2701 -0.0873  0.1061
    1AU     LIG  159   8.498   1.018   7.325 -0.1575 -0.2025  0.1437
    1AU     LIG  160   8.366   0.679   6.954 -0.2124  0.0342 -0.0188
    1AU    AUSL  161   6.271   2.311   7.247 -0.0727  0.0635 -0.0087
    1AU    AUSL  162   6.273   2.579   7.603 -0.0616 -0.1138  0.0501
    1AU     AUL  163   6.476   2.426   7.738  0.0630 -0.0192 -0.0612
    1AU       S  164   6.017   2.505   7.823  0.0386  0.2198 -0.1567
    1AU     LIG  165   6.065   2.215   8.102  0.4280  0.1428  0.5820
    1AU     LIG  166   6.051   1.799   8.160 -0.3005 -0.4420  0.1208
    1AU     LIG  167   6.050   1.480   8.341 -0.0846 -0.0859  0.1060
    1AU     LIG  168   6.117   0.994   8.255 -0.2782 -0.2093 -0.0743
    1AU     LIG  169   5.909   0.609   8.246 -0.2041 -0.4472  0.0883
    1AU       S  170   6.171   1.979   7.570  0.0004 -0.0482 -0.7091
    1AU     LIG  171   5.825   1.866   7.630  0.0081 -0.1293 -0.0539
    1AU     LIG  172   5.458   1.630   7.659  0.0656  0.3778 -0.0100
    1AU     LIG  173   5.333   1.090   7.600 -0.1401 -0.1376 -0.0070
    1AU     LIG  174   5.470   0.714   7.502 -0.2366  0.2339  0.1093
    1AU     LIG  175   5.732   0.296   7.423 -0.0050  0.0211 -0.1136
    1AU    AUSL  176   6.791   3.535   6.734  0.1085  0.0126 -0.0705
    1AU    AUSL  177   6.340   3.452   6.735 -0.0754 -0.0900  0.0584
    1AU     AUL  178   6.416   3.737   6.533 -0.0087  0.0448 -0.0468
    1AU       S  179   6.852   3.900   6.671  0.1834 -0.4199  0.3596
    1AU     LIG  180   7.316   4.070   6.742 -0.0148 -0.1070 -0.0790
    1AU     LIG  181   7.700   4.043   6.853 -0.3614  0.0010  0.0523
    1AU     LIG  182   8.064   3.921   6.820  0.0835  0.3638 -0.2814
    1AU     LIG  183   8.548   3.990   6.795  0.0349  0.0620  0.4152
    1AU     LIG  184   8.980   3.967   6.691 -0.1201 -0.2129 -0.0126
    1AU       S  185   6.343   3.846   6.984  0.2453  0.0478  0.0875
    1AU     LIG  186   6.052   4.169   6.847  0.2842  0.3456 -0.1863
    1AU     LIG  187   5.705   4.379   6.571 -0.0718  0.2314  0.0912
    1AU     LIG  188   5.339   4.603   6.474 -0.2135  0.3004  0.0432
    1AU     LIG  189   4.976   4.494   6.391  0.2408 -0.1151 -0.0508
    1AU     LIG  190   4.584   4.470   6.562 -0.2503 -0.3348 -0.0899
    1AU    AUSL  191   7.055   3.492   6.372 -0.0157  0.0197  0.0469
    1AU    AUSL  192   7.112   3.406   6.970 -0.0750 -0.0357  0.0179
    1AU     AUL  193   7.180   3.602   6.689  0.0570 -0.0633 -0.0230
    1AU       S  194   7.438   3.649   7.061 -0.0382 -0.1370  0.0969
    1AU     LIG  195   7.386   4.021   7.306 -0.2954 -0.0932 -0.0973
    1AU     LIG  196   7.537   4.476   7.116  0.2275 -0.3037 -0.1831
    1AU     LIG  197   7.807   4.636   6.835  0.0195  0.0127  0.1310
    1AU     LIG  198   8.027   4.960   6.884  0.3426 -0.3406 -0.0020
    1AU     LIG  199   7.916   5.314   6.722 -0.0290 -0.0215 -0.1407
    1AU       S  200   7.119   3.789   6.271 -0.1382  0.2018 -0.0187
    1AU     LIG  201   7.377   4.086   6.273  0.2499  0.1610  0.0252
    1AU     LIG  202   7.690   4.289   6.451 -0.0088 -0.1587  0.1644
    1AU     LIG  203   8.130   4.294   6.454  0.2674  0.1615  0.2711
    1AU     LIG  204   8.391   4.620   6.638 -0.2264 -0.1652 -0.6377
    1AU     LIG  205   8.387   5.004   6.519  0.1098 -0.0249 -0.4260
    1AU    AUSL  206   6.721   2.158   5.940  0.0130  0.0284  0.0331
    1AU    AUSL  207   6.744   2.594   5.811 -0.0125  0.0798 -0.1036
    1AU     AUL  208   6.766   2.234   5.593 -0.0930  0.0222 -0.0132
    1AU       S  209   7.097   2.530   5.592 -0.0565  0.1054 -0.2163
    1AU     LIG  210   7.325   2.599   5.169 -0.1468  0.3112  0.1112
    1AU     LIG  211   7.732   2.635   5.226  0.1373  0.2195  0.0009
    1AU     LIG  212   7.920   2.907   5.405 -0.0233  0.1688 -0.0119
    1AU     LIG  213   8.081   3.048   5.683 -0.1959  0.0819  0.1433
    1AU     LIG  214   8.338   3.257   5.678  0.0775  0.2113 -0.1818
    1AU       S  215   6.424   1.817   5.758 -0.3375 -0.3298 -0.4452
    1AU     LIG  216   6.194   1.385   5.760 -0.0463 -0.1023 -0.1094
    1AU     LIG  217   6.393   1.082   5.982 -0.0176 -0.1142  0.0421
    1AU     LIG  218   6.746   0.990   6.233  0.4221  0.0213 -0.0064
    1AU     LIG  219   7.080   1.124   6.540  0.1563  0.3452 -0.3273
    1AU     LIG  220   7.223   1.383   6.892  0.0336  0.4840 -0.2789
    1AU    AUSL  221   6.362   2.382   5.823 -0.0240 -0.0236 -0.0158
    1AU    AUSL  222   6.007   2.259   6.033  0.0424 -0.0168 -0.0476
    1AU     AUL  223   6.059   2.276   5.677  0.0189 -0.0327 -0.0150
    1AU       S  224   6.365   1.963   5.703 -0.3884  0.1482  0.2612
    1AU     LIG  225   6.101   1.878   5.393 -0.2492  0.1542 -0.4439
    1AU     LIG  226   5.905   1.769   5.104 -0.0652 -0.0157  0.0758
    1AU     LIG  227   5.673   1.669   4.834 -0.3290  0.4389 -0.4771
    1AU     LIG  228   5.359   1.404   4.567 -0.1939 -0.1925  0.1662
    1AU     LIG  229   5.201   0.984   4.730 -0.1236  0.0461 -0.0125
    1AU       S  230   5.614   2.361   5.795  0.1268  0.2491  0.0189
    1AU     LIG  231   5.448   2.001   5.811 -0.1251 -0.0194  0.0992
    1AU     LIG  232   5.522   1.722   6.187  0.2180 -0.2985 -0.0662
    1AU     LIG  233   5.399   1.537   6.722  0.0092  0.3597 -0.1727
    1AU     LIG  234   5.175   1.242   6.855 -0.0042  0.1580  0.1101
    1AU     LIG  235   4.751   1.132   7.043  0.1207 -0.3056 -0.1121
    1AU    AUSL  236   6.378   2.171   6.210  0.0283 -0.0422 -0.0774
    1AU    AUSL  237   6.803   2.102   6.378  0.1147 -0.0296  0.0295
    1AU     AUL  238   6.709   1.887   6.116 -0.0110  0.0300 -0.0223
    1AU       S  239   6.811   1.461   6.311  0.1051 -0.2766 -0.1600
    1AU     LIG  240   6.876   1.455   5.888 -0.0081 -0.0251 -0.1726
    1AU     LIG  241   6.652   1.415   5.560 -0.1124  0.0352 -0.2163
    1AU     LIG  242   6.551   0.992   5.348 -0.0179 -0.1793  0.0050
    1AU     LIG  243   6.367   0.646   5.402 -0.0120 -0.0828  0.1814
    1AU     LIG  244   6.127   0.432   5.481  0.1993  0.0855  0.1436
    1AU       S  245   6.296   1.884   5.945  0.0714  0.0628 -0.1089
    1AU     LIG  246   6.042   1.582   6.243  0.0749  0.1057  0.1939
    1AU     LIG  247   5.820   1.234   6.502  0.0304 -0.0284 -0.0146
    1AU     LIG  248   5.564   1.027   6.678 -0.3296  0.3254  0.2890
    1AU     LIG  249   5.319   0.691   6.609 -0.2026  0.0926 -0.0645
    1AU     LIG  250   5.313   0.269   6.565 -0.1220 -0.0703  0.0171
    1AU    AUSL  251   7.238   2.786   7.233 -0.0377 -0.0983 -0.1128
    1AU    AUSL  252   6.985   2.448   7.451  0.0006  0.0455  0.0117
    1AU     AUL  253   7.324   2.663   7.581 -0.0147  0.0626  0.0909
    1AU       S  254   7.090   2.272   7.671  0.0068 -0.0334  0.0520
    1AU     LIG  255   6.821   2.167   7.993 -0.0818  0.3461  0.2780
    1AU     LIG  256   6.487   2.113   8.308 -0.1520  0.0198 -0.1127
    1AU     LIG  257   6.327   1.955   8.616 -0.3326  0.3639  0.2685
    1AU     LIG  258   6.314   1.806   9.012  0.2433 -0.2934 -0.1212
    1AU     LIG  259   6.173   1.928   9.296  0.0840  0.2272  0.1258
    1AU       S  260   7.614   2.774   7.198 -0.0210  0.1617  0.5612
    1AU     LIG  261   7.800   2.519   7.436 -0.2266  0.2139  0.2656
    1AU     LIG  262   8.138   2.511   7.734 -0.0583  0.2060  0.0592
    1AU     LIG  263   8.469   2.257   7.792  0.2111  0.2703  0.3796
    1AU     LIG  264   8.750   2.056   7.605 -0.4372  0.1593  0.2328
    1AU     LIG  265   8.992   1.892   7.891  0.3671 -0.0096  0.1545
    1AU    AUSL  266   6.936   3.106   7.207 -0.0079  0.0177 -0.0491
    1AU    AUSL  267   7.368   3.047   6.926  0.0164 -0.0203  0.0098
    1AU     AUL  268   7.296   3.196   7.251  0.1325  0.1073 -0.0676
    1AU       S  269   6.970   3.616   7.338 -0.2460  0.3052  0.2263
    1AU     LIG  270   6.949   3.972   7.137  0.2956  0.0831 -0.0245
    1AU     LIG  271   7.064   4.416   6.938  0.2007 -0.2221  0.2046
    1AU     LIG  272   6.974   4.861   6.917  0.0281 -0.2962 -0.1028
    1AU     LIG  273   6.706   5.220   7.065  0.3920  0.3702 -0.1980
    1AU     LIG  274   6.747   5.585   7.422 -0.1572  0.3426 -0.0766
    1AU       S  275   7.621   3.211   6.940  0.4469 -0.0599  0.1116
    1AU     LIG  276   7.976   3.121   7.116 -0.3393 -0.0237 -0.2828
    1AU     LIG  277   8.200   2.846   7.238  0.2708  0.2664 -0.3064
    1AU     LIG  278   8.443   2.497   7.306  0.4829 -0.1431 -0.0626
    1AU     LIG  279   8.938   2.536   7.272  0.0339 -0.0550  0.0776
    1AU     LIG  280   9.381   2.601   7.237 -0.1406 -0.1781 -0.2864
    1AU    AUSL  281   6.901   2.849   7.558 -0.0484  0.0839 -0.0779
    1AU    AUSL  282   6.662   3.275   7.474  0.0862 -0.0538  0.0397
    1AU     AUL  283   6.975   3.192   7.597  0.0241  0.1152 -0.0442
    1AU       S  284   6.566   3.165   7.785  0.1841  0.1378 -0.1485
    1AU     LIG  285   6.769   3.605   7.849 -0.0903  0.3321  0.0686
    1AU     LIG  286   6.800   3.930   8.058 -0.2698  0.0052  0.1336
    1AU     LIG  287   7.205   3.996   8.202 -0.0746 -0.1101  0.0248
    1AU     LIG  288   7.667   3.854   8.178 -0.1208  0.0105  0.0342
    1AU     LIG  289   7.781   3.438   8.047  0.3486 -0.2557  0.4086
    1AU       S  290   6.914   2.740   7.830  0.0610  0.3399 -0.3973
    1AU     LIG  291   7.339   2.522   8.036 -0.0473 -0.4562  0.1324
    1AU     LIG  292   7.715   2.669   7.903  0.1468  0.0433  0.1082
    1AU     LIG  293   7.833   3.011   7.603 -0.2058  0.1373 -0.1834
    1AU     LIG  294   8.179   3.348   7.614  0.1634 -0.2776  0.3848
    1AU     LIG  295   8.490   3.335   7.271  0.1251 -0.0335 -0.3372
    1AU    AUSL  296   5.779   2.586   6.193  0.0502  0.0010  0.0516
    1AU    AUSL  297   5.959   2.238   6.456  0.0047  0.0536  0.0702
    1AU     AUL  298   5.809   2.136   6.208 -0.0002 -0.0329  0.0945
    1AU       S  299   5.599   2.549   6.104  0.5085  0.2941  0.0206
    1AU     LIG  300   5.141   2.352   6.140  0.0251  0.1086  0.1592
    1AU     LIG  301   4.791   2.288   6.244  0.2152  0.0672 -0.2386
    1AU     LIG  302   4.515   2.442   6.420  0.0298  0.3250 -0.1321
    1AU     LIG  303   4.187   2.587   6.523 -0.0832  0.1025 -0.0533
    1AU     LIG  304   3.846   2.596   6.767  0.2776 -0.0831  0.3877
    1AU       S  305   5.418   2.195   6.465  0.3603 -0.1760 -0.0604
    1AU     LIG  306   5.047   1.865   6.360 -0.0350  0.1450 -0.0258
    1AU     LIG  307   4.922   1.513   6.492 -0.0009 -0.1594 -0.3653
    1AU     LIG  308   5.284   1.245   6.295  0.2017 -0.2560 -0.0063
    1AU     LIG  309   5.591   1.050   5.975 -0.1450 -0.2071  0.2082
    1AU     LIG  310   5.957   0.945   5.723 -0.1331  0.1919 -0.2310
    1AU    AUSL  311   6.187   2.632   6.091 -0.0717 -0.0462 -0.0539
    1AU    AUSL  312   5.915   2.960   6.041  0.0160 -0.0675 -0.0629
    1AU     AUL  313   5.997   2.741   5.814 -0.0176 -0.0298  0.0435
    1AU       S  314   5.569   2.600   5.792 -0.4267  0.0677  0.2535
    1AU     LIG  315   5.443   2.949   5.434 -0.2674  0.4638 -0.1682
    1AU     LIG  316   5.180   2.999   5.118 -0.1142 -0.1290  0.4659
    1AU     LIG  317   5.122   3.450   5.068  0.1256  0.1274 -0.2330
    1AU     LIG  318   5.384   3.534   4.778 -0.3984  0.1349  0.1402
    1AU     LIG  319   5.460   3.503   4.315  0.0671  0.3239  0.0267
    1AU       S  320   5.771   3.191   5.740 -0.2529  0.2835 -0.4994
    1AU     LIG  321   5.447   3.031   5.996  0.0307  0.2813  0.0077
    1AU     LIG  322   5.158   2.906   6.261  0.2841  0.0761 -0.1339
    1AU     LIG  323   4.785   2.823   6.308  0.3539 -0.0402 -0.1582
    1AU     LIG  324   4.557   2.931   6.644  0.1485  0.0139  0.1079
    1AU     LIG  325   4.551   2.642   6.860 -0.0549 -0.2138  0.1697
    1AU    AUSL  326   6.228   3.175   7.396  0.0272  0.0231  0.0317
    1AU    AUSL  327   6.585   3.407   7.086  0.0796 -0.0779 -0.0511
    1AU     AUL  328   6.411   3.465   7.473  0.0420 -0.0354  0.0882
    1AU       S  329   6.518   3.720   7.073 -0.3652  0.0064 -0.0509
    1AU     LIG  330   6.618   3.973   7.503 -0.1115  0.2550 -0.1148
    1AU     LIG  331   6.640   4.370   7.714  0.1078  0.2309  0.0137
    1AU     LIG  332   6.373   4.611   8.008 -0.3016 -0.3363  0.0576
    1AU     LIG  333   6.591   4.820   8.240  0.4026  0.0350 -0.0323
    1AU     LIG  334   6.795   5.018   8.617 -0.0430  0.2313  0.0976
    1AU       S  335   6.385   3.223   7.908  0.1311  0.1765  0.0559
    1AU     LIG  336   6.071   3.635   7.841 -0.0895  0.2355 -0.1128
    1AU     LIG  337   5.958   3.927   7.591  0.0388 -0.2243 -0.1144
    1AU     LIG  338   6.166   4.258   7.464 -0.1627 -0.0189 -0.0105
    1AU     LIG  339   6.109   4.596   7.108 -0.0896  0.1502 -0.2420
    1AU     LIG  340   6.405   4.692   6.858  0.0564 -0.4911  0.2353
    1AU    AUSL  341   6.508   2.867   7.420 -0.0830 -0.0392  0.0458
    1AU    AUSL  342   6.038   2.788   7.330 -0.1827 -0.0819  0.0761
    1AU     AUL  343   6.134   2.971   7.611 -0.0007  0.0248 -0.0682
    1AU       S  344   5.820   2.646   7.768 -0.2249  0.1437  0.2078
    1AU     LIG  345   5.300   2.642   7.642 -0.1491  0.1449  0.2776
    1AU     LIG  346   4.836   2.722   7.625  0.0476  0.1330  0.0959
    1AU     LIG  347   4.509   2.467   7.885  0.2109  0.2611 -0.0690
    1AU     LIG  348   4.079   2.349   7.774  0.2281  0.0553  0.0715
    1AU     LIG  349   4.006   2.522   7.317  0.0268 -0.1855 -0.2476
    1AU       S  350   6.522   2.964   7.836 -0.0527  0.2691  0.1761
    1AU     LIG  351   6.326   2.643   8.128  0.0389  0.0969 -0.2247
    1AU     LIG  352   5.962   2.712   8.340  0.2130 -0.0909  0.1176
    1AU     LIG  353   5.517   2.515   8.118  0.1888  0.1386  0.0019
    1AU     LIG  354   5.061   2.385   8.017  0.1758  0.0002  0.1904
    1AU     LIG  355   4.861   2.087   7.863  0.1890 -0.3770  0.5814
    1AU    AUSL  356   7.028   2.124   6.796 -0.0691  0.0808 -0.0030
    1AU    AUSL  357   7.190   2.396   7.085 -0.0436  0.1401  0.0339
    1AU     AUL  358   7.183   1.960   7.057  0.0789 -0.0492  0.0340
    1AU       S  359   7.411   2.309   7.231 -0.2336  0.0574  0.3372
    1AU     LIG  360   7.758   2.012   7.219 -0.0867 -0.1509 -0.3736
    1AU     LIG  361   8.184   2.068   7.420  0.1326 -0.2161 -0.1352
    1AU     LIG  362   8.397   1.699   7.528  0.3552 -0.3194 -0.0295
    1AU     LIG  363   8.550   1.487   7.136  0.0570  0.0662  0.0700
    1AU     LIG  364   8.712   1.230   6.921 -0.1172  0.3540  0.3019
    1AU       S  365   7.447   1.797   6.694 -0.3152  0.0010 -0.2546
    1AU     LIG  366   7.833   1.547   6.729 -0.2361  0.1020 -0.5025
    1AU     LIG  367   8.117   1.123   6.754  0.3372  0.5916  0.2658
    1AU     LIG  368   8.119   0.803   6.510 -0.2574  0.2769 -0.1256
    1AU     LIG  369   8.422   0.504   6.322 -0.0013  0.2724  0.0786
    1AU     LIG  370   8.782   0.242   6.495 -0.0568  0.1912  0.3144
    1AU    AUSL  371   7.419   2.309   6.748 -0.0177 -0.0569 -0.0180
    1AU    AUSL  372   7.321   2.529   6.343 -0.0318  0.0551 -0.0631
    1AU     AUL  373   7.644   2.323   6.397 -0.0629  0.0872  0.0026
    1AU       S  374   7.562   2.077   6.764 -0.1084 -0.0790 -0.1760
    1AU     LIG  375   7.987   2.010   6.687 -0.2474 -0.0890 -0.0282
    1AU     LIG  376   8.365   1.708   6.727  0.3467 -0.2196  0.4079
    1AU     LIG  377   8.475   1.369   6.531  0.2634  0.0102  0.0098
    1AU     LIG  378   8.390   1.112   6.235 -0.0620  0.0634  0.2338
    1AU     LIG  379   8.656   0.845   6.006  0.0800  0.4318  0.1278
    1AU       S  380   7.703   2.745   6.525 -0.2557 -0.0835 -0.2947
    1AU     LIG  381   8.172   2.757   6.688 -0.3772 -0.4636  0.0254
    1AU     LIG  382   8.459   3.052   6.688  0.1890 -0.0086 -0.1350
    1AU     LIG  383   8.796   3.036   6.975 -0.0853 -0.0593  0.0142
    1AU     LIG  384   9.128   3.130   7.050  0.0883 -0.0876  0.1113
    1AU     LIG  385   9.266   3.340   7.438 -0.1740 -0.0433 -0.1032
    1AU    AUSL  386   7.215   2.120   6.391 -0.0254 -0.0350  0.0401
    1AU    AUSL  387   6.804   1.783   6.703 -0.0447 -0.0203  0.0319
    1AU     AUL  388   7.041   1.829   6.464  0.1404 -0.0857  0.0291
    1AU       S  389   6.755   1.488   6.618  0.0083 -0.0447 -0.1955
    1AU     LIG  390   6.717   1.185   6.881  0.0721 -0.0475  0.3646
    1AU     LIG  391   6.603   1.176   7.295  0.4344  0.2232  0.0501
    1AU     LIG  392   6.278   1.031   7.427 -0.1268 -0.1879  0.2203
    1AU     LIG  393   6.040   0.774   7.316 -0.0980  0.0091 -0.3062
    1AU     LIG  394   5.765   0.729   7.026  0.1418 -0.0711  0.0394
    1AU       S  395   7.499   1.835   6.472 -0.1421  0.0395 -0.2525
    1AU     LIG  396   7.494   1.370   6.419 -0.0501 -0.3809 -0.2478
    1AU     LIG  397   7.573   0.903   6.477  0.1772  0.3023 -0.2296
    1AU     LIG  398   7.383   0.568   6.210  0.0926  0.2768 -0.0691
    1AU     LIG  399   7.015   0.563   6.045 -0.0087  0.4301 -0.2380
    1AU     LIG  400   6.832   0.944   5.735 -0.1895  0.3523 -0.1738
    1AU    AUSL  401   5.773   2.600   7.035 -0.0871 -0.0248 -0.0152
    1AU    AUSL  402   5.720   2.571   6.602 -0.0364  0.0539  0.0386
    1AU     AUL  403   5.523   2.390   6.974  0.0037 -0.0654  0.0245
    1AU       S  404   5.273   2.778   7.132 -0.1169 -0.0696 -0.1490
    1AU     LIG  405   5.041   2.408   7.172  0.1019  0.3793 -0.1576
    1AU     LIG  406   4.580   2.305   7.393  0.0803 -0.0167  0.2157
    1AU     LIG  407   4.282   2.077   7.281 -0.0713 -0.4561 -0.4843
    1AU     LIG  408   3.891   2.103   7.176  0.3386  0.1320 -0.0418
    1AU     LIG  409   3.421   2.143   7.292  0.0483 -0.0514 -0.1631
    1AU       S  410   5.368   2.515   6.549  0.1448 -0.0856 -0.0849
    1AU     LIG  411   4.956   2.502   6.633 -0.1250 -0.0179 -0.2967
    1AU     LIG  412   4.637   2.177   6.882  0.0949 -0.0986 -0.4672
    1AU     LIG  413   4.204   2.198   6.807  0.0569  0.0152 -0.4656
    1AU     LIG  414   3.889   2.057   6.501  0.4954  0.0401  0.5695
    1AU     LIG  415   3.731   1.913   6.053 -0.0042 -0.1157  0.3863
    1AU    AUSL  416   5.775   3.063   7.175  0.1157 -0.0071  0.0429
    1AU    AUSL  417   5.883   2.363   7.385  0.0605 -0.0498 -0.1214
    1AU     AUL  418   5.679   2.729   7.360 -0.0484  0.1490  0.0071
    1AU       S  419   5.366   3.039   7.244 -0.1284  0.0984 -0.1152
    1AU     LIG  420   5.302   3.360   7.307 -0.0215 -0.0584 -0.4948
    1AU     LIG  421   4.920   3.650   7.153 -0.2780  0.0019 -0.1230
    1AU     LIG  422   4.608   4.042   7.332 -0.1662  0.2966  0.3360
    1AU     LIG  423   4.403   4.251   7.614  0.0054 -0.0833 -0.1607
    1AU     LIG  424   4.401   4.412   8.052 -0.1254  0.0435  0.0282
    1AU       S  425   5.866   2.363   7.642 -0.1721  0.2965 -0.3316
    1AU     LIG  426   5.442   2.185   7.527 -0.0892  0.3599  0.0967
    1AU     LIG  427   5.140   1.959   7.427 -0.4022  0.0004 -0.2818
    1AU     LIG  428   4.639   1.780   7.457 -0.4257 -0.0569  0.4584
    1AU     LIG  429   4.378   1.909   7.791 -0.1276 -0.1948 -0.0572
    1AU     LIG  430   4.284   2.043   8.246 -0.2642 -0.4227  0.0098
    1AU    AUSL  431   5.605   2.916   6.795 -0.0464 -0.0501  0.0139
    1AU    AUSL  432   5.974   3.180   6.815  0.0464  0.0738  0.1118
    1AU     AUL  433   5.688   3.291   6.999  0.0372  0.0213  0.0946
    1AU       S  434   5.532   3.329   6.600  0.1617  0.1442 -0.1063
    1AU     LIG  435   5.274   3.497   6.859  0.3309 -0.1960  0.3687
    1AU     LIG  436   5.018   3.790   6.661  0.0535  0.4270 -0.0958
    1AU     LIG  437   4.703   3.865   6.462 -0.1676  0.0112  0.1391
    1AU     LIG  438   4.342   4.064   6.592 -0.0538 -0.0709 -0.0403
    1AU     LIG  439   4.071   4.395   6.806  0.3483 -0.1474 -0.0244
    1AU       S  440   5.403   2.909   6.917  0.4123  0.6071 -0.0686
    1AU     LIG  441   5.096   3.103   6.746  0.2640 -0.0001 -0.0749
    1AU     LIG  442   4.767   3.369   6.780 -0.0750  0.1087 -0.1023
    1AU     LIG  443   4.321   3.492   6.628  0.2683  0.1150 -0.3588
    1AU     LIG  444   3.902   3.541   6.715  0.3786 -0.3729 -0.2727
    1AU     LIG  445   3.813   3.594   7.259 -0.2786 -0.0926 -0.0532
    1AU    AUSL  446   7.327   2.959   6.322 -0.0166 -0.0533 -0.1422
    1AU    AUSL  447   7.019   2.433   6.087 -0.0430 -0.0293 -0.0506
    1AU     AUL  448   7.383   2.699   6.071  0.0253  0.1560 -0.0443
    1AU       S  449   7.703   2.896   6.341  0.1848 -0.5861 -0.1121
    1AU     LIG  450   7.983   3.244   6.583 -0.4236 -0.2031  0.1779
    1AU     LIG  451   8.183   3.423   6.839 -0.2429 -0.3735  0.1132
    1AU     LIG  452   8.040   3.628   7.225 -0.0021 -0.2639  0.3621
    1AU     LIG  453   7.630   3.424   7.515  0.0326 -0.0116  0.0026
    1AU     LIG  454   7.282   3.647   7.799 -0.0757 -0.2803  0.1336
    1AU       S  455   7.189   2.338   5.856  0.4048 -0.1023 -0.1554
    1AU     LIG  456   7.446   2.117   5.922  0.2299  0.1933 -0.0190
    1AU     LIG  457   7.790   1.887   6.098 -0.6332 -0.1473 -0.2144
    1AU     LIG  458   8.138   1.815   6.205  0.2831 -0.1018  0.1414
    1AU     LIG  459   8.534   1.687   6.154  0.1677  0.1574 -0.1131
    1AU     LIG  460   8.861   1.863   6.048  0.1786 -0.3994  0.2819
    1AU    AUSL  461   7.271   2.719   6.699 -0.0854  0.0802  0.0317
    1AU    AUSL  462   7.076   3.147   6.616 -0.0655  0.0147  0.0288
    1AU     AUL  463   7.397   3.159   6.571  0.0804  0.0300  0.0515
    1AU       S  464   7.648   2.758   6.719  0.0705  0.0184  0.0902
    1AU     LIG  465   7.891   2.441   6.935 -0.3502 -0.0456 -0.0497
    1AU     LIG  466   8.340   2.257   6.899  0.1913  0.0052  0.4915
    1AU     LIG  467   8.653   2.073   7.087 -0.5630 -0.1843  0.0870
    1AU     LIG  468   8.964   1.776   7.047 -0.0349 -0.1711 -0.0322
    1AU     LIG  469   9.250   1.548   7.357 -0.2186 -0.1907  0.0503
    1AU       S  470   7.596   3.455   6.887  0.2789 -0.0637  0.1778
    1AU     LIG  471   7.668   3.668   6.486  0.0888 -0.0711 -0.1583
    1AU     LIG  472   8.162   3.771   6.345 -0.1653 -0.1207  0.1596
    1AU     LIG  473   8.512   3.471   6.458  0.0454  0.3174 -0.3355
    1AU     LIG  474   8.782   3.474   6.821  0.0866  0.1911  0.1518
    1AU     LIG  475   8.938   3.703   7.262  0.3129 -0.3831  0.1999
    1AU    AUSL  476   6.011   3.426   6.476  0.0812 -0.0184 -0.0503
    1AU    AUSL  477   6.113   3.461   7.096  0.0406 -0.0019 -0.0174
    1AU     AUL  478   6.006   3.588   6.784 -0.0014 -0.0339 -0.0722
    1AU       S  479   6.268   3.802   7.152  0.3949  0.1043  0.2178
    1AU     LIG  480   5.805   3.831   7.145  0.2263  0.1164 -0.3122
    1AU     LIG  481   5.560   3.952   6.792 -0.1043  0.0010 -0.1530
    1AU     LIG  482   5.334   4.067   6.342  0.0344  0.2606 -0.0179
    1AU     LIG  483   5.163   3.844   6.046 -0.1790 -0.1514  0.3021
    1AU     LIG  484   5.174   3.485   5.701  0.0513 -0.1394  0.4398
    1AU       S  485   5.617   3.519   6.502  0.0315 -0.1205 -0.0743
    1AU     LIG  486   5.888   3.937   6.416  0.3373 -0.3316  0.2158
    1AU     LIG  487   6.163   4.177   6.366  0.1190 -0.0101 -0.0236
    1AU     LIG  488   6.504   4.197   6.668  0.0177  0.1265 -0.1827
    1AU     LIG  489   6.566   4.257   7.106  0.2345 -0.1419 -0.0004
    1AU     LIG  490   6.739   4.645   7.222  0.1374  0.2028 -0.2559
    1AU    AUSL  491   5.825   3.024   6.450 -0.0173  0.0158  0.0276
    1AU    AUSL  492   6.217   3.206   6.202 -0.0198  0.0489  0.0232
    1AU     AUL  493   5.863   3.303   6.167 -0.0650 -0.0321 -0.0189
    1AU       S  494   5.478   3.223   6.459 -0.4404  0.0719  0.2296
    1AU     LIG  495   5.105   3.437   6.344 -0.3368  0.0810  0.2432
    1AU     LIG  496   4.646   3.343   6.216 -0.0360  0.1131 -0.2532
    1AU     LIG  497   4.366   3.071   6.193  0.0065  0.2141 -0.2552
    1AU     LIG  498   4.188   2.670   6.006  0.0776  0.0056 -0.0718
    1AU     LIG  499   4.134   2.293   6.082  0.0965 -0.0625 -0.2396
    1AU       S  500   6.096   3.387   5.783  0.3567  0.1748  0.0944
    1AU     LIG  501   6.188   3.726   6.047  0.0202  0.0176 -0.1937
    1AU     LIG  502   6.483   4.039   6.047  0.0045 -0.2476  0.0904
    1AU     LIG  503   6.936   4.086   5.914  0.2342 -0.2554 -0.3996
    1AU     LIG  504   7.007   4.534   5.738 -0.6190 -0.3228  0.0447
    1AU     LIG  505   7.166   4.670   5.339 -0.1073  0.0855 -0.2822
    2POPC   NC3  506   3.736   6.151   8.566 -0.0278  0.0729  0.1373
    2POPC   PO4  507   3.910   5.756   8.456 -0.0906  0.2072 -0.1767
    2POPC   GL1  508   4.161   5.617   8.254 -0.0340  0.0997 -0.1814
    2POPC   GL2  509   4.410   5.672   8.228  0.1870  0.1462 -0.1037
    2POPC   C1A  510   4.175   5.463   7.834 -0.0112  0.3129 -0.0285
    2POPC   D2A  511   4.336   5.613   7.387 -0.0722  0.1401 -0.3029
    2POPC   C3A  512   4.353   6.018   7.366 -0.0875  0.0802  0.0719
    2POPC   C4A  513   4.676   6.355   7.460  0.1166 -0.1093  0.2056
    2POPC   C1B  514   4.569   5.800   7.788  0.2466 -0.2791 -0.2083
    2POPC   C2B  515   4.853   5.660   7.527  0.0647 -0.0310 -0.0561
    2POPC   C3B  516   4.787   5.472   7.126  0.3199 -0.0281 -0.1960
    2POPC   C4B  517   4.941   5.449   6.737  0.2721  0.0193 -0.2062
    3POPC   NC3  518  10.457   2.802   8.852  0.1492  0.1584  0.0202
    3POPC   PO4  519  10.862   3.030   8.939  0.0955 -0.1108 -0.1273
    3POPC   GL1  520  10.972   2.657   8.628  0.1668  0.0119  0.0521
    3POPC   GL2  521  10.930   2.455   8.796  0.1262  0.1104  0.0608
    3POPC   C1A  522  11.047   2.606   8.257 -0.1747 -0.3097 -0.0517
    3POPC   D2A  523  11.345   2.736   7.909 -0.0213  0.0550 -0.2238
    3POPC   C3A  524  11.229   2.715   7.430  0.0947 -0.0961 -0.2343
    3POPC   C4A  525  11.284   2.523   7.067  0.0979 -0.2341  0.0674
    3POPC   C1B  526  10.645   2.324   8.426  0.0663 -0.1904  0.1575
    3POPC   C2B  527  10.699   2.353   8.007 -0.2580 -0.1150 -0.2673
    3POPC   C3B  528  10.990   2.424   7.733  0.4329  0.0181 -0.2043
    3POPC   C4B  529  10.803   2.455   7.276 -0.2211  0.2300  0.0049
    4POPC   NC3  530   1.116   0.108   8.596  0.1622 -0.1102 -0.0068
    4POPC   PO4  531   0.804  -0.142   8.784 -0.2984  0.0409 -0.0114
    4POPC   GL1  532   0.787  -0.328   8.376 -0.2327 -0.2367  0.0004
    4POPC   GL2  533   0.424  -0.503   8.261 -0.3293  0.2139  0.0274
    4POPC   C1A  534   0.749  -0.413   7.865  0.2141  0.2037 -0.1351
    4POPC   D2A  535   0.638  -0.592   7.475  0.1503 -0.0939  0.2401
    4POPC   C3A  536   0.780  -1.020   7.216  0.0759  0.2417  0.1344
    4POPC   C4A  537   0.785  -1.331   6.864 -0.0073  0.1928  0.3098
    4POPC   C1B  538   0.200  -0.599   8.015  0.2652  0.2431 -0.1631
    4POPC   C2B  539  -0.169  -0.519   7.809 -0.3985 -0.0088 -0.1103
    4POPC   C3B  540  -0.374  -0.178   7.471 -0.2417 -0.2880 -0.4114
    4POPC   C4B  541  -0.611  -0.037   7.163  0.1523 -0.0746  0.3013
    5POPC   NC3  542   5.337  10.052   8.964  0.2166 -0.2096 -0.0032
    5POPC   PO4  543   5.336   9.673   8.705  0.0374 -0.2877 -0.0694
    5POPC   GL1  544   5.252   9.607   8.233 -0.0579 -0.1277 -0.1182
    5POPC   GL2  545   5.569   9.583   8.098 -0.0292 -0.4923 -0.1192
    5POPC   C1A  546   5.167   9.286   7.898  0.0066 -0.1186  0.0899
    5POPC   D2A  547   4.873   9.148   7.717 -0.0153 -0.2130  0.1147
    5POPC   C3A  548   5.030   8.755   7.556 -0.1594 -0.2752 -0.3475
    5POPC   C4A  549   4.896   8.552   7.237  0.2325  0.0272 -0.0781
    5POPC   C1B  550   5.541   9.586   7.752  0.2186  0.2354 -0.1219
    5POPC   C2B  551   5.456   9.778   7.345 -0.2462  0.1924  0.1640
    5POPC   C3B  552   5.824   9.893   7.003 -0.2237 -0.2493  0.0283
    5POPC   C4B  553   5.805   9.993   6.490 -0.2549  0.2633  0.3048
    6POPC   NC3  554   1.219   0.981   8.779 -0.4439 -0.1774  0.2854
    6POPC   PO4  555   1.033   0.656   8.553  0.0087 -0.1600 -0.1588
    6POPC   GL1  556   0.984   0.883   8.285  0.0369 -0.0414  0.0410
    6POPC   GL2  557   0.762   1.133   8.307  0.0305 -0.1437 -0.0950
    6POPC   C1A  558   1.077   0.858   7.911  0.1758 -0.0167  0.2273
    6POPC   D2A  559   1.024   0.547   7.581  0.1414  0.1167 -0.2216
    6POPC   C3A  560   0.905   0.479   7.223  0.0490 -0.0606  0.2032
    6POPC   C4A  561   0.994   0.682   6.757  0.0409  0.4019  0.1134
    6POPC   C1B  562   0.485   1.333   8.105  0.1905 -0.0534 -0.4074
    6POPC   C2B  563   0.356   1.324   7.635 -0.1306 -0.1802 -0.0711
    6POPC   C3B  564   0.005   1.521   7.410 -0.3338  0.1762 -0.1564
    6POPC   C4B  565  -0.259   1.823   7.357  0.0231 -0.1497  0.1306
    7POPC   NC3  566   5.903   2.516   9.950 -0.2251  0.1458  0.3728
    7POPC   PO4  567   5.658   2.241   9.761  0.3776 -0.0748 -0.0401
    7POPC   GL1  568   5.369   2.227   9.490  0.2675  0.3444  0.2036
    7POPC   GL2  569   5.430   1.959   9.394  0.0099  0.3839  0.2319
    7POPC   C1A  570   5.084   2.048   9.114  0.2907  0.0666  0.1507
    7POPC   D2A  571   4.917   1.766   8.696 -0.1235  0.2294 -0.1649
    7POPC   C3A  572   4.788   2.059   8.410 -0.0668 -0.0047 -0.0421
    7POPC   C4A  573   4.691   2.401   8.416  0.0062  0.1514 -0.0813
    7POPC   C1B  574   5.504   1.861   8.895  0.0064  0.1981  0.0169
    7POPC   C2B  575   5.666   1.673   8.506  0.1232 -0.1545 -0.1729
    7POPC   C3B  576   5.648   1.436   8.060 -0.0978  0.0285 -0.2144
    7POPC   C4B  577   5.883   1.059   7.781  0.1312 -0.4331  0.0439
    8POPC   NC3  578   8.588   3.619   9.234 -0.1091 -0.2180  0.0808
    8POPC   PO4  579   8.718   3.193   9.473 -0.1210 -0.0419 -0.0641
    8POPC   GL1  580   8.841   3.146   9.002 -0.0528 -0.2567 -0.0449
    8POPC   GL2  581   9.038   2.935   9.041  0.0221 -0.1458  0.2309
    8POPC   C1A  582   8.971   3.187   8.532 -0.1253  0.2503  0.0341
    8POPC   D2A  583   9.080   3.507   8.287  0.1934  0.2983 -0.2594
    8POPC   C3A  584   9.303   3.671   7.997  0.0763  0.0959 -0.1197
    8POPC   C4A  585   9.332   3.836   7.527  0.0696 -0.2749 -0.1364
    8POPC   C1B  586   9.049   2.450   9.040 -0.1039 -0.3207  0.1052
    8POPC   C2B  587   8.945   2.243   8.674 -0.0983 -0.0359  0.1672
    8POPC   C3B  588   8.905   2.251   8.201  0.2583  0.0194  0.1163
    8POPC   C4B  589   8.891   2.485   7.785  0.0341 -0.2060 -0.1784
    9POPC   NC3  590   8.090   5.234   9.035  0.2208  0.2749  0.2350
    9POPC   PO4  591   7.837   4.923   9.285 -0.0018  0.2929 -0.1901
    9POPC   GL1  592   7.559   4.912   8.982 -0.3394  0.0119 -0.1449
    9POPC   GL2  593   7.613   5.123   8.748  0.0784  0.1432 -0.1377
    9POPC   C1A  594   7.211   4.679   8.689 -0.0183 -0.2707  0.1003
    9POPC   D2A  595   7.041   4.222   8.643  0.0455 -0.1385  0.1455
    9POPC   C3A  596   7.121   3.833   8.852 -0.1021 -0.1239  0.1335
    9POPC   C4A  597   7.348   3.546   9.208 -0.0038 -0.3587 -0.3609
    9POPC   C1B  598   7.276   5.144   8.362 -0.0041  0.0691 -0.0883
    9POPC   C2B  599   7.096   5.053   7.955 -0.3716  0.0261 -0.0069
    9POPC   C3B  600   6.693   5.024   7.668  0.1198 -0.2044  0.2944
    9POPC   C4B  601   6.382   4.741   7.494 -0.3695  0.0382 -0.1570
   10POPC   NC3  602   0.679   8.124   8.535  0.1055  0.1284  0.2957
   10POPC   PO4  603   0.442   7.736   8.733  0.1832 -0.4536  0.0139
   10POPC   GL1  604   0.449   7.562   8.343 -0.0629 -0.0408  0.1318
   10POPC   GL2  605   0.230   7.624   8.118 -0.3009 -0.1795 -0.0793
   10POPC   C1A  606   0.694   7.601   8.016 -0.1029 -0.0177  0.2751
   10POPC   D2A  607   0.771   7.497   7.556 -0.1600 -0.0293 -0.0787
   10POPC   C3A  608   0.630   7.189   7.393 -0.0169 -0.1812 -0.0665
   10POPC   C4A  609   0.724   6.884   7.015 -0.0782 -0.2996 -0.3845
   10POPC   C1B  610   0.316   7.598   7.701  0.2688 -0.1148  0.1879
   10POPC   C2B  611   0.253   7.515   7.286 -0.0555 -0.1385  0.0692
   10POPC   C3B  612  -0.109   7.328   7.165  0.0570  0.1328  0.0939
   10POPC   C4B  613  -0.225   7.113   6.757  0.1737  0.3043 -0.1018
   11POPC   NC3  614   4.212   1.983   9.457 -0.0376 -0.2423 -0.0305
   11POPC   PO4  615   4.221   1.742   9.136  0.3030 -0.1758 -0.0062
   11POPC   GL1  616   4.332   1.289   9.079 -0.0427 -0.0627  0.4403
   11POPC   GL2  617   4.508   1.172   9.381 -0.0885 -0.1486  0.0212
   11POPC   C1A  618   4.776   1.280   8.841 -0.1751  0.1450 -0.2596
   11POPC   D2A  619   5.194   1.389   8.563 -0.1479  0.4449  0.0077
   11POPC   C3A  620   5.264   1.696   8.237  0.1457 -0.2460 -0.0605
   11POPC   C4A  621   5.623   2.035   8.053  0.1057 -0.1302 -0.0087
   11POPC   C1B  622   4.900   1.034   9.256 -0.4149 -0.0988  0.0189
   11POPC   C2B  623   5.006   0.806   8.892  0.0647 -0.1671  0.4163
   11POPC   C3B  624   5.190   0.455   8.724 -0.4703  0.2776  0.0553
   11POPC   C4B  625   5.469   0.511   8.435  0.1315 -0.0603  0.1532
   12POPC   NC3  626   5.791   1.083  10.470  0.2307  0.1299  0.1106
   12POPC   PO4  627   6.143   1.037  10.138  0.2195 -0.0198  0.3337
   12POPC   GL1  628   5.937   1.343   9.759  0.3435 -0.1082 -0.2486
   12POPC   GL2  629   6.188   1.477   9.724 -0.0811  0.0707  0.1005
   12POPC   C1A  630   5.767   1.598   9.387 -0.0444 -0.1403  0.1507
   12POPC   D2A  631   5.905   1.523   8.975 -0.1823 -0.0402 -0.1976
   12POPC   C3A  632   5.930   1.183   8.792  0.0240 -0.0235 -0.1801
   12POPC   C4A  633   5.931   0.750   8.702  0.1269 -0.3396  0.0387
   12POPC   C1B  634   6.283   1.391   9.399  0.2761  0.0273 -0.2202
   12POPC   C2B  635   6.562   1.204   9.153 -0.4280  0.1782  0.4271
   12POPC   C3B  636   6.832   1.160   8.843  0.1572 -0.1499  0.0554
   12POPC   C4B  637   6.902   1.227   8.363  0.4405  0.0925 -0.2130
   13POPC   NC3  638   0.789   2.103   9.067 -0.2299 -0.2044  0.2107
   13POPC   PO4  639   1.010   1.790   9.177  0.1376  0.1143  0.3897
   13POPC   GL1  640   1.040   1.698   8.783  0.0932  0.1698 -0.1130
   13POPC   GL2  641   0.956   1.423   8.727  0.0324 -0.0969  0.0512
   13POPC   C1A  642   1.125   1.936   8.425 -0.0071  0.2309 -0.2835
   13POPC   D2A  643   1.008   2.277   8.120 -0.4777 -0.1614  0.0360
   13POPC   C3A  644   1.118   2.316   7.678 -0.1244  0.0947  0.2362
   13POPC   C4A  645   0.836   2.123   7.327  0.0781  0.4751  0.3926
   13POPC   C1B  646   0.879   1.634   8.169 -0.0068 -0.5707  0.3637
   13POPC   C2B  647   0.849   1.441   7.767 -0.3112 -0.4939 -0.2089
   13POPC   C3B  648   0.775   1.061   7.459  0.0489  0.0585 -0.3337
   13POPC   C4B  649   0.497   0.843   7.231 -0.0008  0.0004 -0.2063
   14POPC   NC3  650   1.930   7.833   8.942  0.3359  0.1755  0.1576
   14POPC   PO4  651   2.282   7.608   8.848  0.0301 -0.0520 -0.0015
   14POPC   GL1  652   2.239   7.419   8.388 -0.1227 -0.0687  0.0290
   14POPC   GL2  653   2.509   7.241   8.291 -0.0469 -0.1013  0.1888
   14POPC   C1A  654   2.150   7.317   7.917  0.4404 -0.0836  0.2608
   14POPC   D2A  655   2.175   7.570   7.526 -0.0056 -0.2220 -0.0177
   14POPC   C3A  656   2.379   7.708   7.170 -0.0030 -0.0951 -0.0639
   14POPC   C4A  657   2.494   8.061   6.930  0.3572 -0.1541  0.3647
   14POPC   C1B  658   2.609   7.326   7.913 -0.1757  0.0388 -0.1120
   14POPC   C2B  659   2.692   7.481   7.499 -0.2260 -0.0603 -0.0241
   14POPC   C3B  660   2.708   7.324   7.138  0.2350 -0.1199 -0.0233
   14POPC   C4B  661   2.535   7.569   6.753 -0.0112 -0.2884 -0.0057
   15POPC   NC3  662   5.314   7.640   8.596 -0.0240  0.2713 -0.0028
   15POPC   PO4  663   5.281   8.003   8.550 -0.0576 -0.1186 -0.1704
   15POPC   GL1  664   5.313   7.980   8.149 -0.0366  0.2107  0.0702
   15POPC   GL2  665   4.990   8.101   7.940  0.0662  0.1050 -0.1245
   15POPC   C1A  666   5.399   7.673   7.809 -0.0357  0.1704  0.1615
   15POPC   D2A  667   5.544   7.401   7.497  0.0035 -0.0810  0.3570
   15POPC   C3A  668   5.466   6.916   7.499  0.1352 -0.1576  0.0936
   15POPC   C4A  669   5.547   6.493   7.370  0.0415 -0.1587  0.1371
   15POPC   C1B  670   5.059   8.210   7.567 -0.1569 -0.4769 -0.0140
   15POPC   C2B  671   5.392   8.429   7.420 -0.0038  0.1188  0.1457
   15POPC   C3B  672   5.713   8.657   7.372 -0.2069 -0.1376 -0.1199
   15POPC   C4B  673   5.968   9.029   7.589  0.3408  0.0776  0.2334
   16POPC   NC3  674   6.083  10.462  10.004  0.3302  0.0637 -0.1115
   16POPC   PO4  675   6.334  10.648   9.750  0.1830  0.0582  0.2558
   16POPC   GL1  676   6.419  10.783   9.366 -0.0858 -0.0344  0.2039
   16POPC   GL2  677   6.653  11.161   9.336 -0.1392 -0.0765 -0.1114
   16POPC   C1A  678   6.316  10.848   8.951 -0.1493  0.1799 -0.0009
   16POPC   D2A  679   6.371  10.992   8.592 -0.0340  0.0970  0.2034
   16POPC   C3A  680   6.403  11.421   8.728 -0.0452  0.1037  0.0615
   16POPC   C4A  681   6.326  11.900   8.722  0.0744  0.1323  0.1651
   16POPC   C1B  682   6.728  11.112   8.947 -0.1564  0.1445 -0.2273
   16POPC   C2B  683   6.811  11.231   8.504 -0.1811  0.0401 -0.0888
   16POPC   C3B  684   6.584  11.331   8.218  0.1358  0.0116 -0.0959
   16POPC   C4B  685   6.490  11.374   7.837  0.2419  0.0031  0.0536
   17POPC   NC3  686   0.206   2.200   9.562 -0.0033  0.0028 -0.1722
   17POPC   PO4  687   0.329   2.035   9.135  0.1199  0.0244  0.1107
   17POPC   GL1  688   0.330   1.917   8.768 -0.3486 -0.0393  0.3015
   17POPC   GL2  689   0.664   2.010   8.593  0.1010 -0.0839  0.0499
   17POPC   C1A  690   0.149   1.840   8.304  0.0928 -0.3720  0.2241
   17POPC   D2A  691   0.127   1.707   7.943 -0.1484  0.2514 -0.1284
   17POPC   C3A  692   0.130   2.007   7.632 -0.1435  0.2474  0.1165
   17POPC   C4A  693   0.144   1.985   7.122  0.1622  0.0720  0.0657
   17POPC   C1B  694   0.587   2.078   8.192  0.1188  0.0895  0.0765
   17POPC   C2B  695   0.629   1.931   7.772  0.0546 -0.1082  0.3660
   17POPC   C3B  696   0.540   1.712   7.385 -0.1518 -0.1647  0.1837
   17POPC   C4B  697   0.574   1.392   6.993 -0.2123  0.2323 -0.0337
   18POPC   NC3  698   4.219   3.933   9.341  0.1168  0.1087  0.0718
   18POPC   PO4  699   3.833   3.586   9.263  0.0636 -0.0736  0.0744
   18POPC   GL1  700   3.786   3.489   8.871  0.0661 -0.0939  0.0162
   18POPC   GL2  701   3.716   3.647   8.630  0.1229 -0.2482  0.0931
   18POPC   C1A  702   4.066   3.243   8.557 -0.0098  0.0365  0.0896
   18POPC   D2A  703   4.453   3.357   8.551  0.1508  0.5282 -0.3424
   18POPC   C3A  704   4.744   3.058   8.472  0.0994 -0.0147  0.0137
   18POPC   C4A  705   4.978   2.802   8.193  0.2284 -0.1532  0.2543
   18POPC   C1B  706   3.910   3.677   8.247  0.1183  0.3260  0.3731
   18POPC   C2B  707   3.867   3.365   7.894  0.2226 -0.1235 -0.0934
   18POPC   C3B  708   4.010   3.246   7.460  0.0811  0.1252 -0.1315
   18POPC   C4B  709   4.342   3.105   7.065  0.2791 -0.2860 -0.1184
   19POPC   NC3  710   1.444   6.776   8.649  0.2615  0.3657  0.0885
   19POPC   PO4  711   1.317   7.209   8.717 -0.0887  0.0067  0.2988
   19POPC   GL1  712   1.375   7.322   8.242 -0.1321  0.1026 -0.1463
   19POPC   GL2  713   1.336   6.952   8.142  0.0876  0.2178 -0.0241
   19POPC   C1A  714   1.415   7.626   7.950  0.0101  0.0166 -0.2510
   19POPC   D2A  715   1.553   7.901   7.515 -0.1263 -0.0231  0.2010
   19POPC   C3A  716   1.547   8.171   7.152 -0.4704 -0.0575  0.0400
   19POPC   C4A  717   1.466   8.565   7.073 -0.4523  0.0156  0.0782
   19POPC   C1B  718   0.962   6.785   7.885 -0.0715  0.0475 -0.1151
   19POPC   C2B  719   0.627   6.698   7.569 -0.1636  0.0467 -0.1649
   19POPC   C3B  720   0.123   6.685   7.461 -0.3677 -0.1539  0.0685
   19POPC   C4B  721  -0.330   6.570   7.515  0.1214  0.3522 -0.0662
   20POPC   NC3  722   5.986   9.187   8.464 -0.2727 -0.1091  0.1086
   20POPC   PO4  723   6.387   9.119   8.223  0.1184 -0.0773  0.3655
   20POPC   GL1  724   6.468   9.333   7.917  0.2242 -0.2748  0.1495
   20POPC   GL2  725   6.740   9.127   7.730  0.1379 -0.0642 -0.0893
   20POPC   C1A  726   6.352   9.506   7.473 -0.0955 -0.0162 -0.1105
   20POPC   D2A  727   6.232   9.571   7.030  0.1159 -0.0463 -0.4474
   20POPC   C3A  728   5.799   9.402   6.804 -0.0319  0.0358  0.0395
   20POPC   C4A  729   5.364   9.675   6.673 -0.0054 -0.2127  0.3678
   20POPC   C1B  730   6.652   9.041   7.314  0.2103 -0.1583 -0.1578
   20POPC   C2B  731   6.526   9.189   6.908 -0.4268  0.0442 -0.3659
   20POPC   C3B  732   6.116   9.122   7.129  0.2531 -0.1018 -0.3348
   20POPC   C4B  733   5.807   9.427   7.329  0.0493  0.1496 -0.1569
   21POPC   NC3  734   5.164   6.456   9.011 -0.2746  0.0319  0.0029
   21POPC   PO4  735   5.042   6.366   8.699 -0.1139  0.4020 -0.1668
   21POPC   GL1  736   5.039   6.341   8.220  0.3768 -0.0921  0.2155
   21POPC   GL2  737   4.993   6.651   8.246 -0.1314  0.2492 -0.0001
   21POPC   C1A  738   4.973   6.145   7.827  0.0907 -0.3484  0.3754
   21POPC   D2A  739   5.138   6.141   7.430 -0.0019 -0.0001  0.1202
   21POPC   C3A  740   5.040   6.426   7.171  0.0173 -0.0655  0.0342
   21POPC   C4A  741   4.779   6.544   6.870 -0.1188 -0.0864 -0.0810
   21POPC   C1B  742   4.649   6.543   8.023 -0.1320  0.1012  0.1255
   21POPC   C2B  743   4.335   6.303   7.853  0.2142 -0.1446 -0.1527
   21POPC   C3B  744   4.048   5.960   7.780 -0.1738  0.3007  0.2638
   21POPC   C4B  745   3.775   5.921   7.518 -0.2349  0.0203  0.0001
   22POPC   NC3  746   4.804   8.156   8.464 -0.2419 -0.2291 -0.1649
   22POPC   PO4  747   5.033   8.572   8.586  0.0109  0.2311 -0.1346
   22POPC   GL1  748   5.128   8.510   8.210 -0.1255  0.0802 -0.2790
   22POPC   GL2  749   4.896   8.815   8.076 -0.2499  0.2980 -0.1416
   22POPC   C1A  750   5.382   8.428   7.951 -0.2853  0.0983 -0.1405
   22POPC   D2A  751   5.623   8.145   7.752 -0.0634  0.1043  0.4837
   22POPC   C3A  752   5.464   7.892   7.347  0.0580 -0.2306 -0.1758
   22POPC   C4A  753   5.150   8.144   7.053  0.2206  0.0354  0.2108
   22POPC   C1B  754   4.601   8.747   7.719  0.0202  0.0442  0.2170
   22POPC   C2B  755   4.563   8.947   7.359 -0.3106 -0.1312  0.2776
   22POPC   C3B  756   4.933   9.030   7.041  0.1200 -0.1720 -0.1906
   22POPC   C4B  757   5.162   9.142   6.749  0.1394  0.3329  0.1564
   23POPC   NC3  758   2.982   9.460   8.844 -0.0615  0.0937  0.1526
   23POPC   PO4  759   2.713   9.719   8.672 -0.4612  0.1305  0.1169
   23POPC   GL1  760   2.514   9.876   8.284  0.1355  0.1622 -0.0671
   23POPC   GL2  761   2.651  10.065   8.323  0.1869 -0.1945  0.2187
   23POPC   C1A  762   2.346   9.940   7.766  0.0305 -0.1498 -0.0247
   23POPC   D2A  763   2.459   9.716   7.488 -0.0250 -0.1785 -0.1478
   23POPC   C3A  764   2.325   9.720   7.119  0.0183 -0.1465 -0.1318
   23POPC   C4A  765   2.463  10.092   6.771 -0.0972  0.0716  0.0548
   23POPC   C1B  766   2.847  10.245   8.011 -0.1573  0.3067  0.1760
   23POPC   C2B  767   3.144  10.377   7.705 -0.2121 -0.0729 -0.0851
   23POPC   C3B  768   3.382  10.169   7.369 -0.1005 -0.0559 -0.1888
   23POPC   C4B  769   3.478  10.048   7.009  0.2597  0.1104 -0.3352
   24POPC   NC3  770   3.592   0.295   8.743  0.0895 -0.0603 -0.2051
   24POPC   PO4  771   3.155   0.069   8.758  0.0038 -0.0104  0.1289
   24POPC   GL1  772   3.224   0.253   8.385  0.1617 -0.2174  0.0080
   24POPC   GL2  773   3.000   0.590   8.483  0.0528 -0.1081  0.1428
   24POPC   C1A  774   3.058   0.226   8.046  0.0322 -0.1569  0.0887
   24POPC   D2A  775   2.940   0.417   7.665  0.1133  0.0155  0.1446
   24POPC   C3A  776   2.543   0.279   7.457 -0.0317  0.0787 -0.3905
   24POPC   C4A  777   2.217   0.204   7.314 -0.0518 -0.1554  0.1760
   24POPC   C1B  778   3.060   0.720   8.094 -0.2385 -0.0926  0.1569
   24POPC   C2B  779   3.366   0.722   7.649 -0.2317 -0.0934  0.0359
   24POPC   C3B  780   3.327   1.115   7.432 -0.0544 -0.1931  0.0766
   24POPC   C4B  781   3.194   1.324   6.959  0.1246  0.2424  0.1992
   25POPC   NC3  782   9.894   2.376   9.433 -0.1550 -0.4120 -0.1463
   25POPC   PO4  783  10.105   2.600   9.133  0.0049 -0.0436 -0.1886
   25POPC   GL1  784   9.969   2.709   8.780 -0.0739 -0.0825 -0.3504
   25POPC   GL2  785  10.155   2.718   8.459 -0.1552  0.1214  0.0303
   25POPC   C1A  786   9.557   2.758   8.438 -0.1575 -0.0642 -0.1563
   25POPC   D2A  787   9.355   2.622   8.021  0.0041 -0.2344 -0.1783
   25POPC   C3A  788   9.451   2.523   7.706 -0.0329 -0.1221 -0.3841
   25POPC   C4A  789   9.215   2.136   7.443 -0.2356  0.2022  0.0660
   25POPC   C1B  790  10.329   2.638   7.971  0.4698 -0.0263 -0.1053
   25POPC   C2B  791  10.353   2.663   7.528 -0.0558  0.0023 -0.0039
   25POPC   C3B  792  10.287   2.366   7.163  0.0067 -0.0275 -0.1253
   25POPC   C4B  793  10.237   1.981   6.902  0.2703  0.0877  0.2125
   26POPC   NC3  794  10.371   4.014   8.733 -0.1092  0.0169 -0.0929
   26POPC   PO4  795  10.709   4.398   8.837 -0.1296  0.3642 -0.0836
   26POPC   GL1  796  10.535   4.517   8.389 -0.2294 -0.1214  0.3353
   26POPC   GL2  797  10.285   4.455   8.428 -0.1086  0.1242  0.4207
   26POPC   C1A  798  10.727   4.370   7.970  0.2681  0.0384 -0.4046
   26POPC   D2A  799  10.878   4.230   7.571  0.3402 -0.3890 -0.1257
   26POPC   C3A  800  10.907   4.428   7.287  0.3269  0.0121 -0.3095
   26POPC   C4A  801  11.029   4.326   6.865 -0.0155  0.5319  0.0560
   26POPC   C1B  802  10.210   4.170   8.064 -0.1173 -0.0018 -0.1136
   26POPC   C2B  803  10.385   4.164   7.653 -0.3323 -0.3260 -0.5585
   26POPC   C3B  804  10.513   4.124   7.305 -0.1557  0.1798 -0.1246
   26POPC   C4B  805  10.692   3.899   7.121 -0.0418  0.0894  0.1006
   27POPC   NC3  806   8.101   2.053   9.973 -0.2385 -0.5558  0.1881
   27POPC   PO4  807   7.653   1.957   9.914 -0.0404  0.3690  0.0134
   27POPC   GL1  808   7.781   1.776   9.548 -0.1364  0.1586  0.0055
   27POPC   GL2  809   8.108   1.617   9.544  0.1398  0.1768 -0.2979
   27POPC   C1A  810   7.809   1.830   9.219 -0.3170 -0.1220  0.2270
   27POPC   D2A  811   7.647   1.766   8.866 -0.0613 -0.0269  0.3230
   27POPC   C3A  812   7.762   1.765   8.517  0.2567 -0.0834 -0.4646
   27POPC   C4A  813   7.705   1.666   8.107  0.0670 -0.2833  0.0939
   27POPC   C1B  814   8.095   1.472   9.061 -0.0865 -0.1294  0.1567
   27POPC   C2B  815   8.054   1.194   8.777 -0.2904 -0.1684  0.0373
   27POPC   C3B  816   8.045   1.212   8.389 -0.2331 -0.1743  0.0393
   27POPC   C4B  817   8.118   1.226   7.981  0.0660 -0.0301  0.1491
   28POPC   NC3  818   9.619   3.689   9.032 -0.2496  0.3091 -0.4338
   28POPC   PO4  819   9.968   3.706   8.856  0.1304 -0.1036 -0.3415
   28POPC   GL1  820  10.110   3.654   8.405  0.1204  0.1409 -0.1755
   28POPC   GL2  821  10.387   3.682   8.354 -0.1192  0.3700  0.0845
   28POPC   C1A  822  10.129   3.202   8.117  0.2541  0.2273 -0.1683
   28POPC   D2A  823   9.765   2.886   7.949  0.2849  0.2144 -0.2505
   28POPC   C3A  824   9.456   3.048   7.793 -0.2047 -0.0308 -0.1529
   28POPC   C4A  825   9.191   3.113   8.064 -0.0349 -0.0398  0.2705
   28POPC   C1B  826  10.285   3.624   7.905  0.0270  0.1191  0.2064
   28POPC   C2B  827  10.171   3.791   7.507 -0.2724  0.0909  0.0361
   28POPC   C3B  828  10.202   3.843   7.084  0.0052 -0.1498  0.0647
   28POPC   C4B  829  10.016   3.571   6.757  0.1259  0.2039  0.1186
   29POPC   NC3  830   2.324   8.868   8.783 -0.1291  0.1961  0.6449
   29POPC   PO4  831   2.355   8.764   8.316 -0.1481  0.1547  0.0005
   29POPC   GL1  832   2.267   8.966   8.001 -0.0792 -0.1258  0.0566
   29POPC   GL2  833   2.585   8.981   7.821 -0.0583  0.0335  0.2890
   29POPC   C1A  834   2.259   9.369   7.778 -0.1872  0.3018  0.1343
   29POPC   D2A  835   2.059   9.408   7.395  0.0572  0.1732 -0.0377
   29POPC   C3A  836   1.949   8.950   7.092  0.0002 -0.1811 -0.1585
   29POPC   C4A  837   2.246   8.624   7.042  0.0344  0.2877  0.0177
   29POPC   C1B  838   2.682   8.736   7.378 -0.1047  0.1205  0.2052
   29POPC   C2B  839   2.872   8.368   7.104  0.2312 -0.3157 -0.0433
   29POPC   C3B  840   2.907   8.235   6.676 -0.2128  0.2713  0.0064
   29POPC   C4B  841   2.962   7.905   6.398 -0.1404  0.1890  0.1519
   30POPC   NC3  842   4.820   0.184   9.743  0.0326 -0.3221  0.1599
   30POPC   PO4  843   4.683   0.068   9.352 -0.1071 -0.1634 -0.2784
   30POPC   GL1  844   4.814   0.168   8.907 -0.0378 -0.0331  0.3033
   30POPC   GL2  845   5.138  -0.011   8.885 -0.1713 -0.3575 -0.3809
   30POPC   C1A  846   4.808   0.234   8.543 -0.1151 -0.3434 -0.1003
   30POPC   D2A  847   5.009   0.310   8.137  0.1143 -0.1240 -0.0836
   30POPC   C3A  848   5.034   0.713   7.890 -0.1306 -0.0415 -0.0706
   30POPC   C4A  849   4.888   0.877   7.464 -0.2934  0.0685 -0.0061
   30POPC   C1B  850   5.540   0.074   8.600  0.0683 -0.1674 -0.0430
   30POPC   C2B  851   5.996   0.178   8.519  0.0466  0.0730  0.0405
   30POPC   C3B  852   6.382  -0.015   8.651  0.2539  0.0664 -0.0112
   30POPC   C4B  853   6.682  -0.120   8.429 -0.0637 -0.1226  0.4365
   31POPC   NC3  854   4.797   6.828   8.657 -0.1188  0.1799  0.1186
   31POPC   PO4  855   5.020   7.208   8.569  0.3608 -0.1106  0.4188
   31POPC   GL1  856   5.383   7.031   8.231  0.0646  0.0578 -0.0221
   31POPC   GL2  857   5.674   6.913   8.349  0.2799  0.0148  0.4084
   31POPC   C1A  858   5.648   7.226   7.979  0.0457 -0.2022  0.0496
   31POPC   D2A  859   6.015   7.274   7.697  0.0103 -0.1820 -0.0013
   31POPC   C3A  860   5.985   7.203   7.216 -0.1625  0.2203  0.2670
   31POPC   C4A  861   5.621   7.237   7.045  0.2308 -0.0406  0.3348
   31POPC   C1B  862   5.802   6.802   7.858  0.1388  0.0864 -0.0900
   31POPC   C2B  863   5.994   6.746   7.447 -0.1750 -0.0740  0.1596
   31POPC   C3B  864   5.960   6.574   7.057  0.1793 -0.0727  0.3975
   31POPC   C4B  865   5.807   6.253   6.750 -0.0637 -0.2502 -0.2165
   32POPC   NC3  866   1.079   5.439   8.915 -0.3957 -0.0555 -0.0762
   32POPC   PO4  867   1.005   4.969   8.875  0.0086 -0.1418 -0.2741
   32POPC   GL1  868   1.157   5.153   8.487 -0.0524  0.2178 -0.0587
   32POPC   GL2  869   1.425   5.226   8.610 -0.0224  0.2135  0.2542
   32POPC   C1A  870   1.192   4.976   7.965 -0.2342 -0.0031  0.2182
   32POPC   D2A  871   1.103   4.951   7.550 -0.1955  0.2596 -0.0239
   32POPC   C3A  872   1.417   5.164   7.220 -0.0018  0.1317 -0.1108
   32POPC   C4A  873   1.510   5.211   6.817 -0.0119 -0.0526  0.0436
   32POPC   C1B  874   1.545   5.259   8.226 -0.2818 -0.1482 -0.0367
   32POPC   C2B  875   1.750   4.968   7.881  0.0534  0.0332 -0.1772
   32POPC   C3B  876   1.732   4.744   7.525 -0.4016  0.1118 -0.1124
   32POPC   C4B  877   1.404   4.580   7.196 -0.2237 -0.1331  0.0566
   33POPC   NC3  878   4.369   4.692   8.652  0.0041 -0.1183  0.1090
   33POPC   PO4  879   4.090   5.051   8.505  0.3665  0.2883 -0.1607
   33POPC   GL1  880   4.329   4.949   8.229  0.0619 -0.0708 -0.0829
   33POPC   GL2  881   4.567   5.195   8.060 -0.3699  0.0691 -0.1787
   33POPC   C1A  882   4.236   4.886   7.806  0.0354  0.2782 -0.1810
   33POPC   D2A  883   4.229   4.654   7.448 -0.0801  0.0338  0.1038
   33POPC   C3A  884   4.438   4.509   7.081 -0.2008  0.1345 -0.1175
   33POPC   C4A  885   4.849   4.210   6.918 -0.0419  0.0090  0.0293
   33POPC   C1B  886   4.596   5.169   7.540  0.3846  0.1336 -0.3263
   33POPC   C2B  887   4.387   5.064   7.230 -0.2172 -0.3434 -0.0085
   33POPC   C3B  888   4.650   5.023   6.870  0.0417  0.0389 -0.0692
   33POPC   C4B  889   4.910   4.953   6.549 -0.0308 -0.1074 -0.0885
   34POPC   NC3  890   8.599   5.713   9.412  0.0956 -0.2613  0.2393
   34POPC   PO4  891   8.498   5.508   9.072 -0.2783 -0.1492  0.0314
   34POPC   GL1  892   8.426   5.367   8.620  0.4215  0.0745 -0.1340
   34POPC   GL2  893   8.131   5.320   8.468  0.2907 -0.4543 -0.0497
   34POPC   C1A  894   8.553   5.289   8.177 -0.2768 -0.0257  0.0241
   34POPC   D2A  895   8.547   5.382   7.670 -0.1063 -0.1401  0.1368
   34POPC   C3A  896   8.708   5.109   7.374 -0.1453 -0.1814  0.0768
   34POPC   C4A  897   8.503   4.804   7.088 -0.0718 -0.1720 -0.0993
   34POPC   C1B  898   8.049   5.426   8.030 -0.0364 -0.1040 -0.0648
   34POPC   C2B  899   8.074   5.430   7.659 -0.1308  0.0636 -0.1580
   34POPC   C3B  900   8.246   5.329   7.248  0.1038 -0.2463  0.0147
   34POPC   C4B  901   8.478   5.315   6.877 -0.0962 -0.0104  0.0153
   35POPC   NC3  902   2.752   7.432   8.807 -0.0636  0.3414 -0.2671
   35POPC   PO4  903   3.108   7.685   8.629 -0.3262 -0.1682  0.2413
   35POPC   GL1  904   3.207   7.755   8.161  0.2482  0.2590  0.0316
   35POPC   GL2  905   2.917   7.839   7.930  0.2752  0.2902 -0.1256
   35POPC   C1A  906   3.503   7.808   7.827 -0.0862  0.5622 -0.2211
   35POPC   D2A  907   3.567   8.141   7.683  0.0646 -0.1446  0.0910
   35POPC   C3A  908   3.814   8.207   7.389  0.1332 -0.1256 -0.3756
   35POPC   C4A  909   4.289   8.359   7.427  0.0571  0.0035 -0.2778
   35POPC   C1B  910   3.135   7.433   7.768  0.0813 -0.3899 -0.0943
   35POPC   C2B  911   3.169   7.290   7.391 -0.2255 -0.0199  0.3664
   35POPC   C3B  912   3.147   7.119   6.985 -0.0226 -0.3771 -0.0390
   35POPC   C4B  913   3.149   6.755   6.672  0.2391 -0.1302 -0.1863
   36POPC   NC3  914   6.656   6.776   9.245 -0.4826 -0.0000  0.1394
   36POPC   PO4  915   6.559   6.356   8.975 -0.0010 -0.3048  0.0142
   36POPC   GL1  916   6.815   6.309   8.619 -0.0144  0.2435  0.1763
   36POPC   GL2  917   7.139   6.152   8.602 -0.0082  0.3069  0.0562
   36POPC   C1A  918   6.794   6.411   8.205 -0.2134  0.3143 -0.0721
   36POPC   D2A  919   6.496   6.458   7.743 -0.3394 -0.1135 -0.3757
   36POPC   C3A  920   6.657   6.238   7.411 -0.1650  0.1449 -0.1702
   36POPC   C4A  921   6.598   5.999   7.141 -0.1163 -0.0537  0.2124
   36POPC   C1B  922   7.113   5.856   8.225 -0.0340  0.2296 -0.2126
   36POPC   C2B  923   7.034   5.534   7.816  0.3319 -0.4042 -0.0782
   36POPC   C3B  924   7.198   5.346   7.434 -0.0870 -0.0516 -0.0658
   36POPC   C4B  925   7.394   4.972   7.240  0.0467 -0.2056 -0.0102
   37POPC   NC3  926   1.578   3.162   9.047  0.1175 -0.2465  0.2460
   37POPC   PO4  927   1.722   3.285   8.736  0.2111  0.0692  0.1711
   37POPC   GL1  928   1.622   3.401   8.306  0.3933 -0.2288  0.0687
   37POPC   GL2  929   1.541   3.797   8.253 -0.1758 -0.0312  0.1982
   37POPC   C1A  930   1.766   3.405   7.812 -0.2530  0.2425 -0.1343
   37POPC   D2A  931   1.953   3.297   7.392  0.0011  0.0571 -0.0592
   37POPC   C3A  932   1.887   2.895   7.102  0.0082  0.0636  0.1246
   37POPC   C4A  933   1.963   2.861   6.724  0.0785 -0.2146 -0.0981
   37POPC   C1B  934   1.524   3.844   7.776  0.0946 -0.2327  0.0580
   37POPC   C2B  935   1.258   3.872   7.601  0.1064  0.0629  0.1429
   37POPC   C3B  936   1.211   3.980   7.286 -0.3282  0.1002  0.2304
   37POPC   C4B  937   1.111   4.269   6.898 -0.2701 -0.1390 -0.0932
   38POPC   NC3  938  10.280   0.822   8.758 -0.4445  0.2977  0.0463
   38POPC   PO4  939  10.126   0.371   8.641  0.0338 -0.1416  0.2874
   38POPC   GL1  940  10.114   0.282   8.286  0.1954  0.3084 -0.0420
   38POPC   GL2  941   9.801   0.200   8.347  0.1114 -0.0571 -0.0804
   38POPC   C1A  942  10.018   0.246   7.817 -0.2019  0.0557  0.3369
   38POPC   D2A  943  10.134   0.334   7.448  0.0077  0.2522 -0.1250
   38POPC   C3A  944  10.364   0.115   7.123 -0.0878 -0.1500 -0.0421
   38POPC   C4A  945  10.658   0.028   6.793  0.2431 -0.0045  0.1070
   38POPC   C1B  946   9.678   0.521   8.027  0.4040 -0.1334 -0.2097
   38POPC   C2B  947   9.684   0.619   7.625 -0.0511  0.0398  0.0065
   38POPC   C3B  948   9.850   0.758   7.298  0.4940  0.1969 -0.2509
   38POPC   C4B  949   9.901   1.000   6.945 -0.1481 -0.0255  0.2743
   39POPC   NC3  950   3.524   3.970   9.431 -0.1345 -0.2149 -0.0740
   39POPC   PO4  951   3.716   4.032   9.020  0.0180 -0.0023 -0.0361
   39POPC   GL1  952   3.568   4.245   8.607  0.2509 -0.1279  0.0632
   39POPC   GL2  953   3.348   4.406   8.462 -0.2774 -0.0636  0.1895
   39POPC   C1A  954   3.768   4.143   8.221 -0.0352  0.0741 -0.0359
   39POPC   D2A  955   4.118   4.036   8.007 -0.2215 -0.2244  0.4352
   39POPC   C3A  956   4.126   3.740   7.690  0.0136  0.1655 -0.1145
   39POPC   C4A  957   4.473   3.503   7.419 -0.2815 -0.1708  0.0278
   39POPC   C1B  958   3.368   4.338   8.026 -0.0314  0.1625 -0.0807
   39POPC   C2B  959   3.168   4.158   7.698  0.0576  0.1299  0.3398
   39POPC   C3B  960   2.955   4.118   7.218 -0.1418 -0.1312 -0.2625
   39POPC   C4B  961   3.206   3.969   6.823 -0.0217  0.0440 -0.0533
   40POPC   NC3  962   0.089   1.433   8.951  0.1678  0.1303 -0.0517
   40POPC   PO4  963   0.250   1.113   8.700  0.1778 -0.0487 -0.1632
   40POPC   GL1  964   0.115   0.983   8.222  0.2300 -0.0419  0.0654
   40POPC   GL2  965  -0.021   0.665   8.256 -0.0829 -0.0338  0.3239
   40POPC   C1A  966  -0.212   1.194   7.951  0.1271  0.1659 -0.0027
   40POPC   D2A  967  -0.294   1.501   7.787  0.3614  0.0585 -0.2953
   40POPC   C3A  968  -0.625   1.677   7.704 -0.0462  0.0607  0.0887
   40POPC   C4A  969  -0.835   1.915   7.337  0.0090  0.3081 -0.2643
   40POPC   C1B  970  -0.010   0.375   7.864  0.1143 -0.0198  0.2027
   40POPC   C2B  971   0.033   0.070   7.627 -0.1858 -0.0521  0.1228
   40POPC   C3B  972   0.206  -0.202   7.362  0.0948 -0.1620 -0.0801
   40POPC   C4B  973   0.588  -0.242   7.100  0.1295 -0.1372  0.0369
   41POPC   NC3  974   9.275  10.002   8.769  0.3999  0.0326 -0.0413
   41POPC   PO4  975   8.842  10.113   8.685 -0.3293  0.1891  0.0252
   41POPC   GL1  976   8.527  10.254   8.481 -0.0996  0.1249  0.1207
   41POPC   GL2  977   8.275  10.431   8.636  0.0138 -0.4244 -0.0359
   41POPC   C1A  978   8.626  10.372   8.105  0.1286  0.0028  0.1816
   41POPC   D2A  979   8.374  10.346   7.676 -0.2163 -0.1580 -0.1195
   41POPC   C3A  980   8.611  10.310   7.157  0.0064 -0.1861 -0.2011
   41POPC   C4A  981   8.557  10.702   6.883  0.1820 -0.2949 -0.0494
   41POPC   C1B  982   8.075  10.378   8.277 -0.1013 -0.1181  0.0647
   41POPC   C2B  983   8.156   9.955   8.012 -0.1184  0.1479 -0.1212
   41POPC   C3B  984   8.250   9.819   7.651 -0.0529  0.1139  0.1945
   41POPC   C4B  985   8.302   9.441   7.359  0.1368 -0.0099 -0.1271
   42POPC   NC3  986   4.634   3.677   9.759 -0.0528 -0.0490 -0.0734
   42POPC   PO4  987   4.727   3.969   9.311  0.0397  0.1209 -0.0422
   42POPC   GL1  988   5.036   3.671   9.019 -0.0958 -0.0668  0.0532
   42POPC   GL2  989   4.993   3.772   8.692  0.0483  0.2312 -0.4057
   42POPC   C1A  990   4.859   3.303   8.901 -0.0171 -0.4468  0.1908
   42POPC   D2A  991   5.151   2.946   8.696 -0.1334 -0.1683 -0.0624
   42POPC   C3A  992   5.460   3.076   8.384 -0.3928 -0.0094 -0.0947
   42POPC   C4A  993   5.618   3.473   8.205 -0.0538  0.0122 -0.0230
   42POPC   C1B  994   4.899   3.686   8.241  0.1684  0.4029  0.4548
   42POPC   C2B  995   5.048   3.355   8.154 -0.1251 -0.0590  0.0142
   42POPC   C3B  996   5.264   3.097   7.883 -0.3847 -0.1081  0.0588
   42POPC   C4B  997   5.643   3.103   7.662 -0.1140 -0.1576 -0.2190
   43POPC   NC3  998   1.872   4.855   9.158  0.0605  0.0017 -0.1952
   43POPC   PO4  999   1.919   5.031   8.726  0.0750  0.1096  0.2415
   43POPC   GL1 1000   1.942   4.776   8.327  0.0455 -0.4490 -0.0784
   43POPC   GL2 1001   1.656   4.590   8.364 -0.3958  0.0299  0.2765
   43POPC   C1A 1002   2.106   4.635   7.936  0.3318 -0.1566 -0.3959
   43POPC   D2A 1003   2.173   4.326   7.608 -0.1039  0.2531  0.1844
   43POPC   C3A 1004   2.026   3.846   7.590 -0.4095 -0.3237 -0.2018
   43POPC   C4A 1005   1.693   3.724   7.313 -0.1376 -0.0514 -0.1337
   43POPC   C1B 1006   1.389   4.500   8.127  0.0768  0.0583  0.1046
   43POPC   C2B 1007   1.219   4.482   7.707  0.2309  0.0422  0.1746
   43POPC   C3B 1008   0.888   4.260   7.496 -0.0181 -0.0007  0.0212
   43POPC   C4B 1009   0.714   3.984   7.202 -0.1247  0.0609 -0.2505
   44POPC   NC3 1010   8.945   1.421   9.683 -0.2452 -0.4371  0.1456
   44POPC   PO4 1011   8.727   1.112   9.388 -0.0362 -0.0186  0.2227
   44POPC   GL1 1012   8.896   1.044   8.962  0.4401 -0.3448  0.0187
   44POPC   GL2 1013   8.605   0.979   8.892  0.0442  0.0822  0.3138
   44POPC   C1A 1014   9.064   1.247   8.608  0.0125  0.2670  0.0193
   44POPC   D2A 1015   9.144   1.265   8.180 -0.1322 -0.3812 -0.2900
   44POPC   C3A 1016   9.405   1.523   7.825 -0.0629  0.0911 -0.2086
   44POPC   C4A 1017   9.488   2.023   7.833 -0.2753  0.0890 -0.0780
   44POPC   C1B 1018   8.379   0.817   8.542  0.0344 -0.0762  0.0121
   44POPC   C2B 1019   8.315   0.755   8.121  0.2158  0.1772  0.0769
   44POPC   C3B 1020   8.230   0.778   7.708  0.1172  0.3398 -0.1041
   44POPC   C4B 1021   8.002   0.903   7.258 -0.1420 -0.0079 -0.0915
   45POPC   NC3 1022   3.729   3.005   9.015  0.1885 -0.1809  0.3178
   45POPC   PO4 1023   3.261   2.849   8.922  0.0797  0.2490  0.0364
   45POPC   GL1 1024   3.428   2.869   8.576  0.0665 -0.1005  0.1921
   45POPC   GL2 1025   3.481   3.216   8.461  0.1573 -0.2981 -0.3912
   45POPC   C1A 1026   3.693   2.872   8.135 -0.1446 -0.0570  0.2966
   45POPC   D2A 1027   3.736   2.856   7.655 -0.1255 -0.2382 -0.2149
   45POPC   C3A 1028   3.403   2.655   7.468  0.1007  0.1507  0.0007
   45POPC   C4A 1029   3.425   2.648   7.031 -0.1832 -0.0956  0.1861
   45POPC   C1B 1030   3.292   3.280   8.052  0.0441  0.0146 -0.0993
   45POPC   C2B 1031   3.271   3.432   7.649  0.0529 -0.0977 -0.0153
   45POPC   C3B 1032   3.398   3.220   7.268 -0.0178  0.1365  0.4124
   45POPC   C4B 1033   3.807   2.952   7.114 -0.3836 -0.1424 -0.2749
   46POPC   NC3 1034   7.529   6.186   8.851  0.1293 -0.0234  0.2698
   46POPC   PO4 1035   7.995   6.137   8.737  0.1651  0.0301  0.0393
   46POPC   GL1 1036   7.960   5.827   8.476  0.1189 -0.0173 -0.1502
   46POPC   GL2 1037   8.303   5.797   8.284 -0.0626 -0.0657  0.1912
   46POPC   C1A 1038   7.908   5.894   8.029  0.3347 -0.2871 -0.2735
   46POPC   D2A 1039   7.812   5.970   7.633 -0.1694  0.2222 -0.0952
   46POPC   C3A 1040   7.766   5.685   7.406  0.1470 -0.2632 -0.1594
   46POPC   C4A 1041   7.632   5.394   7.109  0.2585  0.2577 -0.1736
   46POPC   C1B 1042   8.403   5.795   7.869  0.0938  0.0801 -0.3619
   46POPC   C2B 1043   8.352   5.784   7.397  0.1726 -0.2618 -0.1638
   46POPC   C3B 1044   8.550   5.885   6.987  0.0391 -0.4814 -0.1940
   46POPC   C4B 1045   8.985   5.945   7.062  0.0713 -0.2317  0.2894
   47POPC   NC3 1046   7.358   9.783   8.864  0.1328 -0.1194 -0.1184
   47POPC   PO4 1047   7.767   9.561   8.684 -0.0140 -0.1348  0.0105
   47POPC   GL1 1048   7.561   9.755   8.385 -0.1417 -0.0313  0.1618
   47POPC   GL2 1049   7.709  10.034   8.249 -0.0880 -0.1775  0.2661
   47POPC   C1A 1050   7.318   9.939   7.992  0.1822 -0.1175  0.0169
   47POPC   D2A 1051   7.192  10.044   7.617  0.2725  0.1414 -0.2045
   47POPC   C3A 1052   7.044  10.320   7.387  0.0369  0.0531  0.2054
   47POPC   C4A 1053   6.970  10.721   7.391  0.0560 -0.0660 -0.0212
   47POPC   C1B 1054   7.752  10.334   7.850 -0.0520 -0.0223  0.0744
   47POPC   C2B 1055   7.941  10.420   7.481  0.0093 -0.0194  0.1260
   47POPC   C3B 1056   8.119  10.497   7.091 -0.0117 -0.0018  0.0500
   47POPC   C4B 1057   8.028  10.711   6.837 -0.2131 -0.1410  0.0327
   48POPC   NC3 1058   3.210   1.236   8.910  0.0694 -0.2682  0.3348
   48POPC   PO4 1059   3.006   1.668   8.915 -0.0720 -0.1309  0.2749
   48POPC   GL1 1060   3.049   1.685   8.484  0.1419  0.1279 -0.0512
   48POPC   GL2 1061   2.801   1.845   8.298 -0.0056 -0.0575  0.0833
   48POPC   C1A 1062   3.214   1.886   8.048  0.1288  0.1800  0.2795
   48POPC   D2A 1063   3.207   1.929   7.696 -0.0681  0.2164 -0.1850
   48POPC   C3A 1064   3.250   1.641   7.536 -0.1503  0.0320 -0.0963
   48POPC   C4A 1065   3.678   1.648   7.255  0.2010  0.0303 -0.3289
   48POPC   C1B 1066   2.711   1.573   8.173 -0.4231 -0.2995  0.0905
   48POPC   C2B 1067   2.871   1.229   8.089 -0.0876 -0.1917  0.2104
   48POPC   C3B 1068   2.941   0.920   7.700  0.1560  0.0987 -0.1055
   48POPC   C4B 1069   2.992   0.747   7.302 -0.0879  0.0922 -0.3479
   49POPC   NC3 1070   8.346   2.920  10.134  0.0743  0.1982 -0.2303
   49POPC   PO4 1071   8.153   2.567   9.904 -0.2526  0.1329  0.2108
   49POPC   GL1 1072   7.948   2.640   9.442  0.2104 -0.0075 -0.1592
   49POPC   GL2 1073   7.986   2.975   9.406  0.2031 -0.1426  0.0234
   49POPC   C1A 1074   8.067   2.521   9.126 -0.0348 -0.0308 -0.1971
   49POPC   D2A 1075   7.916   2.261   8.815  0.0220  0.1024  0.1206
   49POPC   C3A 1076   7.484   2.291   8.558  0.0794  0.2174  0.2886
   49POPC   C4A 1077   7.298   2.072   8.121 -0.3264  0.1438  0.2362
   49POPC   C1B 1078   7.596   3.051   9.137  0.2179  0.2831  0.1393
   49POPC   C2B 1079   7.558   3.148   8.703  0.1391  0.0249  0.0275
   49POPC   C3B 1080   7.551   3.007   8.267  0.0583  0.1124  0.0011
   49POPC   C4B 1081   7.415   3.104   7.857 -0.0506 -0.2765 -0.0872
   50POPC   NC3 1082   2.109   4.416   9.283  0.1421 -0.1062 -0.3381
   50POPC   PO4 1083   2.480   4.070   9.327 -0.0151  0.0988  0.2429
   50POPC   GL1 1084   2.633   4.021   8.904  0.3479 -0.0256 -0.0035
   50POPC   GL2 1085   2.403   4.204   8.788 -0.1452 -0.1172  0.0777
   50POPC   C1A 1086   2.578   3.816   8.431 -0.1347 -0.1025  0.1241
   50POPC   D2A 1087   2.404   3.977   8.032 -0.2414  0.1892 -0.0198
   50POPC   C3A 1088   2.502   3.698   7.658  0.3025  0.2720 -0.3207
   50POPC   C4A 1089   2.402   3.556   7.342 -0.0463 -0.2021  0.0419
   50POPC   C1B 1090   2.317   4.358   8.406 -0.3202  0.5390 -0.0779
   50POPC   C2B 1091   2.550   4.429   8.092  0.3101 -0.1767  0.1312
   50POPC   C3B 1092   2.659   4.247   7.684  0.1765 -0.0625 -0.2301
   50POPC   C4B 1093   2.484   4.033   7.304 -0.1701  0.0970 -0.0030
   51POPC   NC3 1094   6.571   7.327   8.659 -0.0502 -0.4414 -0.2002
   51POPC   PO4 1095   6.867   7.063   8.841  0.0331  0.1766 -0.1147
   51POPC   GL1 1096   7.001   7.097   8.281  0.0590  0.0345 -0.0375
   51POPC   GL2 1097   7.210   6.866   8.182 -0.0725  0.0084 -0.2934
   51POPC   C1A 1098   6.883   6.859   7.822  0.1097  0.3964 -0.0748
   51POPC   D2A 1099   6.676   6.849   7.432  0.0152  0.3931  0.2107
   51POPC   C3A 1100   6.442   6.677   7.275 -0.0900 -0.5025 -0.0310
   51POPC   C4A 1101   6.476   6.433   6.991  0.2429  0.0536  0.0167
   51POPC   C1B 1102   7.185   7.233   7.748 -0.1430  0.4120  0.0421
   51POPC   C2B 1103   7.208   7.657   7.675 -0.1438  0.1329  0.0501
   51POPC   C3B 1104   7.207   7.891   7.311  0.2559 -0.0830 -0.0504
   51POPC   C4B 1105   7.464   8.343   7.396  0.3818 -0.6013  0.2908
   52POPC   NC3 1106   0.615   6.190   9.139 -0.3508 -0.0905  0.3901
   52POPC   PO4 1107   1.069   5.817   9.207 -0.0411  0.0273 -0.3707
   52POPC   GL1 1108   1.077   5.926   8.782  0.0213 -0.1159 -0.0457
   52POPC   GL2 1109   1.241   5.707   8.528 -0.2131  0.0271 -0.0703
   52POPC   C1A 1110   0.889   5.993   8.283 -0.1774 -0.1207  0.0259
   52POPC   D2A 1111   0.623   6.276   8.007  0.0563 -0.2397  0.2098
   52POPC   C3A 1112   0.434   6.276   7.643  0.0542  0.0327  0.1003
   52POPC   C4A 1113   0.306   6.195   7.155  0.0899  0.3237 -0.1432
   52POPC   C1B 1114   1.096   5.517   8.099  0.2960  0.1841 -0.1922
   52POPC   C2B 1115   1.101   5.436   7.626  0.0725 -0.0552  0.0142
   52POPC   C3B 1116   1.196   5.728   7.307 -0.1719 -0.1567  0.0429
   52POPC   C4B 1117   1.136   6.074   6.894 -0.5593  0.1010  0.1994
   53POPC   NC3 1118   9.561   3.163   9.516  0.1037  0.2040 -0.0370
   53POPC   PO4 1119   9.520   2.673   9.627 -0.1729  0.4681  0.0216
   53POPC   GL1 1120   9.560   2.765   9.210 -0.0234 -0.0835 -0.2257
   53POPC   GL2 1121   9.524   3.019   9.029  0.2898  0.1853 -0.1938
   53POPC   C1A 1122   9.454   2.488   8.824 -0.2587 -0.0442  0.1104
   53POPC   D2A 1123   9.534   2.219   8.430 -0.1456 -0.3513  0.2843
   53POPC   C3A 1124   9.316   1.902   8.344  0.1805 -0.1384 -0.0636
   53POPC   C4A 1125   8.828   1.681   8.333 -0.0477 -0.2294 -0.2789
   53POPC   C1B 1126   9.622   3.217   8.621 -0.0787  0.1081  0.0404
   53POPC   C2B 1127   9.615   3.333   8.206 -0.0339  0.1056 -0.0199
   53POPC   C3B 1128   9.739   3.496   7.759  0.1485  0.3714  0.2414
   53POPC   C4B 1129   9.895   3.485   7.252 -0.1175  0.1106  0.0356
   54POPC   NC3 1130   2.410   1.682   9.026 -0.1073 -0.1898  0.2418
   54POPC   PO4 1131   2.084   1.372   8.959  0.1659 -0.1178 -0.4242
   54POPC   GL1 1132   1.876   1.404   8.616 -0.2030  0.0547 -0.2679
   54POPC   GL2 1133   1.489   1.335   8.570 -0.0983 -0.1460  0.0615
   54POPC   C1A 1134   1.767   1.375   8.179 -0.1743 -0.1959  0.3490
   54POPC   D2A 1135   1.860   1.471   7.711  0.2139  0.0897 -0.1943
   54POPC   C3A 1136   1.584   1.701   7.481  0.3070  0.1352  0.0035
   54POPC   C4A 1137   1.300   2.048   7.218 -0.1295 -0.2153  0.0029
   54POPC   C1B 1138   1.296   1.324   8.226  0.0978  0.2325 -0.1776
   54POPC   C2B 1139   1.404   1.239   7.821  0.1201  0.1163 -0.1386
   54POPC   C3B 1140   1.262   1.105   7.423 -0.0475  0.0362  0.3200
   54POPC   C4B 1141   1.097   1.093   6.999  0.3328 -0.3372 -0.1437
   55POPC   NC3 1142   6.596   0.552   9.816 -0.0937 -0.2094 -0.1298
   55POPC   PO4 1143   7.032   0.535   9.631 -0.3552 -0.1864  0.1822
   55POPC   GL1 1144   7.316   0.609   9.150 -0.1019  0.4147  0.3444
   55POPC   GL2 1145   7.432   0.339   8.930  0.1326  0.1516 -0.3485
   55POPC   C1A 1146   7.271   1.080   9.009 -0.2049 -0.3298  0.1748
   55POPC   D2A 1147   7.286   1.357   8.680 -0.0062  0.2877 -0.0093
   55POPC   C3A 1148   7.258   1.837   8.581 -0.2246 -0.0303  0.0539
   55POPC   C4A 1149   6.959   2.219   8.445  0.0330  0.1147 -0.1292
   55POPC   C1B 1150   7.409   0.486   8.540  0.0342 -0.0490 -0.1509
   55POPC   C2B 1151   7.254   0.596   8.140  0.2688 -0.2912 -0.1566
   55POPC   C3B 1152   6.984   0.650   7.671 -0.0438 -0.0009  0.0214
   55POPC   C4B 1153   6.876   0.749   7.302  0.1201  0.1104  0.0597
   56POPC   NC3 1154   9.348   5.904   8.949  0.2044 -0.0587 -0.2234
   56POPC   PO4 1155   9.594   6.332   8.748  0.1796  0.3003 -0.1517
   56POPC   GL1 1156   9.476   6.032   8.405  0.2354 -0.1795 -0.2036
   56POPC   GL2 1157   9.179   6.112   8.361 -0.0761  0.2109  0.0678
   56POPC   C1A 1158   9.672   5.892   7.952 -0.0914  0.5156 -0.1535
   56POPC   D2A 1159   9.851   6.101   7.572 -0.2730 -0.1137 -0.1713
   56POPC   C3A 1160   9.829   5.934   7.199 -0.2032  0.1142  0.0994
   56POPC   C4A 1161   9.674   5.877   6.793  0.3127 -0.0070 -0.0179
   56POPC   C1B 1162   9.212   5.894   7.881  0.2608 -0.0816  0.0442
   56POPC   C2B 1163   9.408   5.916   7.423  0.1234 -0.0277 -0.0514
   56POPC   C3B 1164   9.411   6.222   7.065  0.3240  0.1218 -0.0302
   56POPC   C4B 1165   9.556   6.485   6.750 -0.2154 -0.1202  0.1001
   57POPC   NC3 1166   7.758   9.064   8.799  0.0347  0.1648 -0.2420
   57POPC   PO4 1167   7.484   8.770   8.629  0.1175 -0.3633  0.2540
   57POPC   GL1 1168   7.565   9.008   8.189  0.1353  0.1775  0.0520
   57POPC   GL2 1169   7.750   9.230   8.150 -0.1223 -0.0368 -0.0415
   57POPC   C1A 1170   7.298   9.214   7.839 -0.0115 -0.2205 -0.0666
   57POPC   D2A 1171   7.358   9.587   7.628  0.0641  0.2810  0.2694
   57POPC   C3A 1172   7.308   9.676   7.178 -0.0430  0.0795 -0.1796
   57POPC   C4A 1173   7.241   9.733   6.713  0.1546  0.1707 -0.2718
   57POPC   C1B 1174   7.844   9.586   7.831  0.3033 -0.0413 -0.1508
   57POPC   C2B 1175   7.747   9.888   7.511 -0.0827 -0.0886  0.0637
   57POPC   C3B 1176   7.571  10.154   7.260  0.0437 -0.3763  0.0762
   57POPC   C4B 1177   7.392  10.577   7.086 -0.0939  0.1333 -0.3596
   58POPC   NC3 1178   4.274   0.198   9.159  0.2876 -0.1347  0.0645
   58POPC   PO4 1179   4.067   0.013   8.789  0.2309  0.1307  0.1787
   58POPC   GL1 1180   4.179   0.305   8.463  0.0617 -0.1388 -0.1720
   58POPC   GL2 1181   3.917   0.581   8.481 -0.1716 -0.0361  0.1144
   58POPC   C1A 1182   4.479   0.416   8.150 -0.2667 -0.4562 -0.1669
   58POPC   D2A 1183   4.523   0.754   7.810 -0.2343 -0.3320  0.1301
   58POPC   C3A 1184   4.157   1.168   7.845 -0.1323  0.1950  0.0488
   58POPC   C4A 1185   4.083   1.571   7.966  0.0396 -0.1595  0.0623
   58POPC   C1B 1186   4.160   0.802   8.222 -0.2010  0.3271 -0.1405
   58POPC   C2B 1187   4.225   1.253   8.473 -0.1191  0.2724  0.0662
   58POPC   C3B 1188   3.977   1.665   8.464 -0.0041 -0.0537  0.2742
   58POPC   C4B 1189   3.677   1.879   8.313  0.1134 -0.1075  0.3969
   59POPC   NC3 1190   9.805   5.771   8.755  0.2221 -0.0383 -0.0782
   59POPC   PO4 1191   9.539   5.437   8.873 -0.1125 -0.0601  0.2424
   59POPC   GL1 1192   9.270   5.317   8.420  0.0144  0.0840  0.1512
   59POPC   GL2 1193   9.435   5.549   8.257  0.0175 -0.2735  0.0278
   59POPC   C1A 1194   9.243   4.993   8.090 -0.0474  0.0535 -0.2134
   59POPC   D2A 1195   9.305   4.787   7.773 -0.1813 -0.1295  0.0627
   59POPC   C3A 1196   9.457   4.391   7.448  0.3056 -0.1241  0.0945
   59POPC   C4A 1197   9.234   4.157   7.143  0.2825  0.3984  0.0563
   59POPC   C1B 1198   9.524   5.390   7.873  0.0106 -0.1292  0.3738
   59POPC   C2B 1199   9.754   5.482   7.516  0.1327 -0.0397  0.2867
   59POPC   C3B 1200   9.753   5.464   7.117  0.0406  0.2537 -0.3990
   59POPC   C4B 1201   9.960   5.221   6.822 -0.1489  0.3576  0.0993
   60POPC   NC3 1202   7.313   1.526  10.206 -0.0914  0.0449  0.0486
   60POPC   PO4 1203   6.913   1.681  10.153  0.0640  0.2224 -0.1129
   60POPC   GL1 1204   6.752   1.783   9.713 -0.0606  0.1453 -0.3113
   60POPC   GL2 1205   6.755   1.469   9.646 -0.2784 -0.0424 -0.3476
   60POPC   C1A 1206   6.732   1.934   9.305 -0.0644 -0.0587 -0.0876
   60POPC   D2A 1207   6.695   2.227   8.978  0.0672 -0.0533 -0.1732
   60POPC   C3A 1208   6.955   2.581   8.801  0.1555  0.0752 -0.0953
   60POPC   C4A 1209   7.232   2.751   8.559 -0.0232 -0.0034 -0.1849
   60POPC   C1B 1210   7.038   1.376   9.299  0.2523 -0.0161  0.1402
   60POPC   C2B 1211   6.768   1.646   8.857  0.2065 -0.1178  0.0651
   60POPC   C3B 1212   6.822   1.705   8.430 -0.0126  0.1348  0.0486
   60POPC   C4B 1213   6.555   1.632   8.089  0.0416 -0.0066  0.1771
   61POPC   NC3 1214   5.660   4.586   9.624  0.1825 -0.2244 -0.1352
   61POPC   PO4 1215   5.830   4.825   9.225 -0.1020 -0.2215 -0.1898
   61POPC   GL1 1216   5.766   4.716   8.750  0.1589  0.0516  0.0473
   61POPC   GL2 1217   5.481   4.476   8.812  0.2383  0.1216 -0.1148
   61POPC   C1A 1218   5.797   4.672   8.371 -0.2949  0.3283  0.0014
   61POPC   D2A 1219   5.921   4.447   7.981 -0.1399  0.0010  0.3888
   61POPC   C3A 1220   5.819   4.698   7.567 -0.3339 -0.0879 -0.1590
   61POPC   C4A 1221   5.637   5.083   7.466 -0.0121 -0.0750 -0.0486
   61POPC   C1B 1222   5.319   4.548   8.399  0.0881 -0.1005  0.2007
   61POPC   C2B 1223   5.390   4.394   7.995 -0.2554 -0.1296  0.1072
   61POPC   C3B 1224   5.562   4.239   7.635  0.0219 -0.1219  0.0552
   61POPC   C4B 1225   5.726   4.275   7.237  0.1614 -0.0517 -0.1165
   62POPC   NC3 1226   1.964   3.119   9.334  0.0495  0.3221  0.0979
   62POPC   PO4 1227   2.305   3.210   9.087  0.1100 -0.0445 -0.1983
   62POPC   GL1 1228   2.385   3.390   8.656 -0.1303 -0.0007 -0.1155
   62POPC   GL2 1229   2.179   3.284   8.502  0.2897 -0.1566 -0.3211
   62POPC   C1A 1230   2.547   3.240   8.177 -0.3370  0.2262 -0.2294
   62POPC   D2A 1231   2.843   3.044   7.895  0.0085 -0.2386 -0.2661
   62POPC   C3A 1232   2.820   3.315   7.463 -0.2705 -0.3205 -0.0058
   62POPC   C4A 1233   3.089   3.660   7.210 -0.2791 -0.1539  0.1310
   62POPC   C1B 1234   1.934   3.051   8.153 -0.1757  0.1556  0.2175
   62POPC   C2B 1235   1.887   2.612   7.965 -0.2368 -0.0788 -0.0622
   62POPC   C3B 1236   2.136   2.343   7.824  0.1481  0.2653 -0.3055
   62POPC   C4B 1237   2.439   2.163   7.605  0.0675  0.0745  0.1175
   63POPC   NC3 1238   1.348   7.686   8.598 -0.2418  0.1335 -0.0866
   63POPC   PO4 1239   1.231   8.160   8.545 -0.0925 -0.1338 -0.0691
   63POPC   GL1 1240   1.123   8.326   8.165  0.0737 -0.1890 -0.2339
   63POPC   GL2 1241   1.175   8.152   7.958  0.2437 -0.0169 -0.2312
   63POPC   C1A 1242   0.924   8.558   7.835  0.0061  0.1172  0.1984
   63POPC   D2A 1243   0.540   8.624   7.594  0.0066  0.2756  0.1958
   63POPC   C3A 1244   0.479   8.920   7.273  0.3919  0.1045  0.1078
   63POPC   C4A 1245   0.279   9.278   7.032 -0.3285  0.0078 -0.0488
   63POPC   C1B 1246   1.206   8.254   7.530  0.1288 -0.0456 -0.1160
   63POPC   C2B 1247   1.013   7.860   7.269  0.1160  0.3923  0.1714
   63POPC   C3B 1248   0.679   7.694   7.093  0.0975 -0.3331 -0.0471
   63POPC   C4B 1249   0.311   7.929   6.967  0.2382 -0.1366 -0.0716
   64POPC   NC3 1250   8.593   7.951   8.568 -0.0981  0.1305 -0.1414
   64POPC   PO4 1251   8.850   8.322   8.519  0.2410 -0.0372  0.3502
   64POPC   GL1 1252   8.886   8.008   8.178  0.3358  0.1060  0.0171
   64POPC   GL2 1253   9.267   7.952   8.070 -0.0840 -0.3705 -0.3511
   64POPC   C1A 1254   8.823   7.578   7.953 -0.3172 -0.2110  0.0722
   64POPC   D2A 1255   8.666   7.205   7.780 -0.1124  0.1681 -0.2165
   64POPC   C3A 1256   8.844   7.256   7.465  0.3289 -0.0618 -0.2875
   64POPC   C4A 1257   9.127   7.357   7.285  0.0437 -0.1220  0.0886
   64POPC   C1B 1258   9.316   7.588   7.903  0.2209  0.1253  0.1145
   64POPC   C2B 1259   9.424   7.305   7.676  0.4809  0.3284 -0.2677
   64POPC   C3B 1260   9.695   7.139   7.449  0.2449 -0.2155 -0.0778
   64POPC   C4B 1261   9.938   6.925   7.106  0.2250  0.1294 -0.2098
   65POPC   NC3 1262   9.287   9.268   8.792  0.1389  0.2725 -0.0050
   65POPC   PO4 1263   9.014   9.582   8.726 -0.3651 -0.1786 -0.0285
   65POPC   GL1 1264   9.019   9.716   8.259  0.0027 -0.0368  0.2983
   65POPC   GL2 1265   8.774   9.853   8.225 -0.0103 -0.1291  0.2439
   65POPC   C1A 1266   9.052   9.487   7.864 -0.2522 -0.1962  0.1292
   65POPC   D2A 1267   8.820   9.344   7.455 -0.1418  0.3779 -0.0853
   65POPC   C3A 1268   8.664   9.164   7.043  0.1062  0.0447 -0.1011
   65POPC   C4A 1269   8.498   8.923   6.752  0.0128 -0.1254  0.1339
   65POPC   C1B 1270   8.783   9.897   7.788  0.2233 -0.0158  0.0152
   65POPC   C2B 1271   8.639   9.869   7.339  0.0593 -0.2638 -0.0483
   65POPC   C3B 1272   8.231  10.030   7.167 -0.0511  0.1237  0.1222
   65POPC   C4B 1273   7.884  10.166   6.811 -0.0508  0.1576  0.0805
   66POPC   NC3 1274   3.012   7.220   8.408 -0.2745  0.0623 -0.0088
   66POPC   PO4 1275   2.957   6.848   8.295 -0.1548 -0.3322  0.3504
   66POPC   GL1 1276   2.968   6.922   7.948 -0.2089  0.2012 -0.0252
   66POPC   GL2 1277   3.311   6.987   7.818 -0.1902  0.0947  0.1000
   66POPC   C1A 1278   2.797   6.944   7.464  0.2598  0.0786 -0.1730
   66POPC   D2A 1279   2.572   6.872   7.059 -0.2959 -0.2507  0.0828
   66POPC   C3A 1280   2.240   6.939   6.785  0.2099 -0.1265  0.1859
   66POPC   C4A 1281   2.014   6.895   6.372  0.2100  0.1245 -0.1301
   66POPC   C1B 1282   3.300   6.805   7.361  0.2025  0.1084 -0.0256
   66POPC   C2B 1283   2.964   6.581   7.115 -0.0502 -0.0628 -0.0093
   66POPC   C3B 1284   2.698   6.542   6.729  0.0363  0.2934  0.1032
   66POPC   C4B 1285   2.467   6.642   6.442  0.1476  0.3914  0.3956
   67POPC   NC3 1286   0.588   5.175   8.891  0.2231  0.0366 -0.2525
   67POPC   PO4 1287   0.130   5.440   8.683 -0.1210  0.1590  0.0395
   67POPC   GL1 1288   0.287   5.479   8.218 -0.1199 -0.0152 -0.3532
   67POPC   GL2 1289   0.466   5.592   8.154  0.0111 -0.1214  0.2028
   67POPC   C1A 1290   0.139   5.489   7.693  0.0188 -0.2248  0.2400
   67POPC   D2A 1291   0.188   5.677   7.312  0.0931 -0.2416 -0.1681
   67POPC   C3A 1292   0.413   5.370   7.040  0.3854  0.2523  0.0108
   67POPC   C4A 1293   0.071   5.077   6.753 -0.2119 -0.3133 -0.0615
   67POPC   C1B 1294   0.633   5.766   7.785  0.1601 -0.3372 -0.2286
   67POPC   C2B 1295   0.701   5.832   7.327 -0.0084 -0.1193 -0.2491
   67POPC   C3B 1296   0.610   5.932   6.810  0.0023  0.0634  0.2341
   67POPC   C4B 1297   0.551   5.914   6.405  0.0407 -0.0914 -0.0651
   68POPC   NC3 1298   0.422   7.203   8.685 -0.0339  0.1053  0.2381
   68POPC   PO4 1299   0.813   7.389   8.722  0.2163  0.3742  0.1501
   68POPC   GL1 1300   0.881   7.275   8.362 -0.1034 -0.1179  0.3372
   68POPC   GL2 1301   0.724   7.155   8.228 -0.3337  0.1638  0.1205
   68POPC   C1A 1302   1.044   7.255   7.892  0.1115 -0.4764  0.1432
   68POPC   D2A 1303   1.257   7.205   7.518 -0.0040 -0.2947 -0.1440
   68POPC   C3A 1304   1.113   6.849   7.383 -0.0548  0.1549  0.1104
   68POPC   C4A 1305   1.377   6.392   7.246  0.1265  0.0560 -0.0881
   68POPC   C1B 1306   0.524   7.141   7.923  0.1714 -0.1178  0.0522
   68POPC   C2B 1307   0.157   7.168   7.612 -0.0244  0.2901 -0.1690
   68POPC   C3B 1308  -0.171   7.546   7.631  0.0652  0.1010  0.3334
   68POPC   C4B 1309  -0.330   7.881   7.899 -0.0389  0.0589  0.1216
   69POPC   NC3 1310   7.785   4.400   9.389  0.0358 -0.1551  0.1848
   69POPC   PO4 1311   8.202   4.496   9.100  0.3141 -0.3786 -0.0120
   69POPC   GL1 1312   8.344   4.362   8.706 -0.3642 -0.2069 -0.0964
   69POPC   GL2 1313   8.613   4.331   8.674  0.1095 -0.0161  0.2526
   69POPC   C1A 1314   8.113   4.357   8.246 -0.1679 -0.0832 -0.3931
   69POPC   D2A 1315   7.932   4.287   7.861  0.0394 -0.2339  0.0863
   69POPC   C3A 1316   7.531   4.095   7.787  0.1977 -0.2056  0.1907
   69POPC   C4A 1317   7.087   4.125   7.607 -0.0332  0.1966 -0.2846
   69POPC   C1B 1318   8.755   4.454   8.249  0.0436 -0.0288 -0.1379
   69POPC   C2B 1319   8.495   4.405   7.930  0.3175 -0.0134 -0.3075
   69POPC   C3B 1320   8.385   4.333   7.538 -0.1189  0.0031 -0.2912
   69POPC   C4B 1321   8.446   3.822   7.483  0.5743  0.0099 -0.3829
   70POPC   NC3 1322   5.122   5.447   8.775 -0.2647  0.0893 -0.0001
   70POPC   PO4 1323   5.417   5.129   8.852 -0.4085 -0.0450  0.0621
   70POPC   GL1 1324   5.585   5.145   8.540 -0.1560  0.0368 -0.2395
   70POPC   GL2 1325   5.883   5.304   8.545  0.1781 -0.0616  0.0777
   70POPC   C1A 1326   5.570   5.032   8.099  0.1343  0.1320 -0.3196
   70POPC   D2A 1327   5.315   4.847   7.781 -0.0370 -0.5480  0.1421
   70POPC   C3A 1328   5.372   4.676   7.366 -0.0831  0.1683  0.1172
   70POPC   C4A 1329   5.645   4.719   6.983  0.1887  0.2006  0.1901
   70POPC   C1B 1330   6.097   5.366   8.124  0.1307 -0.2730  0.0356
   70POPC   C2B 1331   6.090   5.089   7.784 -0.0544  0.0469 -0.1526
   70POPC   C3B 1332   6.153   5.070   7.251 -0.0599 -0.0218  0.0918
   70POPC   C4B 1333   5.941   5.108   6.960 -0.2804  0.0765  0.3391
   71POPC   NC3 1334   9.925   4.777   8.509  0.0926  0.0012 -0.4113
   71POPC   PO4 1335   9.922   4.266   8.666  0.2130 -0.0259 -0.4900
   71POPC   GL1 1336   9.647   4.350   8.272 -0.2331  0.1102 -0.1939
   71POPC   GL2 1337   9.702   4.592   8.109  0.1025  0.1301 -0.1420
   71POPC   C1A 1338   9.391   4.234   7.928  0.2125 -0.0831  0.0851
   71POPC   D2A 1339   9.035   4.336   7.862 -0.1396  0.2771  0.0222
   71POPC   C3A 1340   8.873   4.169   7.507 -0.1436 -0.1296 -0.0268
   71POPC   C4A 1341   8.708   4.309   7.149  0.4174 -0.0356  0.1909
   71POPC   C1B 1342   9.886   4.447   7.745 -0.3212  0.2063 -0.2089
   71POPC   C2B 1343   9.957   4.472   7.362 -0.1530 -0.0228 -0.0404
   71POPC   C3B 1344  10.107   4.342   6.948  0.2164  0.4628 -0.2295
   71POPC   C4B 1345  10.052   4.188   6.509 -0.1490  0.1045 -0.0116
   72POPC   NC3 1346  10.346   3.677   9.153  0.2812 -0.2005 -0.1925
   72POPC   PO4 1347  10.568   3.526   8.758  0.0174  0.1809 -0.2931
   72POPC   GL1 1348  10.757   3.398   8.472  0.2505 -0.0174 -0.3792
   72POPC   GL2 1349  10.639   3.028   8.393  0.1424  0.0110 -0.0232
   72POPC   C1A 1350  10.744   3.444   7.997 -0.3915  0.2235 -0.0025
   72POPC   D2A 1351  10.514   3.253   7.595  0.0745  0.3153 -0.1436
   72POPC   C3A 1352  10.048   3.144   7.596 -0.2091  0.2580 -0.0294
   72POPC   C4A 1353   9.634   3.055   7.283 -0.1998  0.0340  0.2183
   72POPC   C1B 1354  10.748   2.894   7.908  0.2327  0.0908  0.0818
   72POPC   C2B 1355  10.824   2.952   7.395  0.0589 -0.2343  0.1341
   72POPC   C3B 1356  10.505   2.799   7.046 -0.1162 -0.1313  0.0011
   72POPC   C4B 1357  10.141   2.992   7.175  0.0570  0.0316 -0.0211
   73POPC   NC3 1358   3.329  10.325   9.406 -0.0098 -0.2109 -0.1668
   73POPC   PO4 1359   3.423  10.212   9.039  0.0536  0.0539 -0.0044
   73POPC   GL1 1360   3.551  10.270   8.582 -0.3637  0.1450  0.0434
   73POPC   GL2 1361   3.735  10.436   8.358  0.1466 -0.0479 -0.1919
   73POPC   C1A 1362   3.369  10.240   8.153  0.1195 -0.0383 -0.1017
   73POPC   D2A 1363   3.254   9.879   7.857  0.4733 -0.0387 -0.3770
   73POPC   C3A 1364   2.978   9.871   7.577  0.0012  0.3703 -0.1363
   73POPC   C4A 1365   2.888   9.490   7.807 -0.2914 -0.0292 -0.0461
   73POPC   C1B 1366   4.035  10.635   8.026 -0.1537 -0.0681  0.0243
   73POPC   C2B 1367   4.334  10.718   7.697  0.0659  0.3488 -0.0207
   73POPC   C3B 1368   4.749  10.803   7.675 -0.1110 -0.0118  0.2521
   73POPC   C4B 1369   5.022  10.860   7.455  0.1415 -0.1959 -0.0255
   74POPC   NC3 1370   1.890   5.483   8.725  0.1161 -0.3236 -0.2049
   74POPC   PO4 1371   2.320   5.675   8.671  0.0473  0.0116  0.1692
   74POPC   GL1 1372   2.425   5.475   8.408  0.2888 -0.0288  0.4678
   74POPC   GL2 1373   2.147   5.301   8.271  0.1494  0.1435 -0.1158
   74POPC   C1A 1374   2.575   5.561   7.989 -0.0352 -0.1878 -0.1948
   74POPC   D2A 1375   2.832   5.498   7.621  0.1832 -0.2330  0.1919
   74POPC   C3A 1376   2.701   5.834   7.225 -0.2723  0.3100 -0.0859
   74POPC   C4A 1377   2.677   6.125   6.950  0.0117  0.0279 -0.0451
   74POPC   C1B 1378   2.356   5.076   7.883  0.0135 -0.1109 -0.0269
   74POPC   C2B 1379   2.231   4.786   7.457  0.3902 -0.0567 -0.0513
   74POPC   C3B 1380   2.627   4.636   7.384  0.0006 -0.3204 -0.0846
   74POPC   C4B 1381   2.830   4.548   6.949 -0.2141  0.1239  0.0823
   75POPC   NC3 1382   4.225   6.927   8.975 -0.1472  0.1386 -0.1491
   75POPC   PO4 1383   3.956   6.957   8.559  0.2049 -0.4350  0.0404
   75POPC   GL1 1384   4.040   7.123   8.128  0.2518  0.1306  0.3587
   75POPC   GL2 1385   4.289   6.852   7.914 -0.3480  0.2293 -0.2905
   75POPC   C1A 1386   4.088   7.155   7.659 -0.3311 -0.3795  0.0547
   75POPC   D2A 1387   4.158   7.086   7.287  0.3098 -0.1866  0.3246
   75POPC   C3A 1388   4.275   7.536   6.989 -0.3912  0.0867  0.0268
   75POPC   C4A 1389   4.269   7.601   6.559 -0.1581 -0.3978  0.0192
   75POPC   C1B 1390   4.186   6.620   7.440 -0.1305 -0.2597 -0.2676
   75POPC   C2B 1391   4.278   6.530   7.062 -0.0671  0.2590 -0.0253
   75POPC   C3B 1392   4.328   6.388   6.677 -0.1092 -0.1781 -0.0508
   75POPC   C4B 1393   4.224   6.077   6.342  0.0279 -0.1272  0.0901
   76POPC   NC3 1394   5.076   3.241  10.175 -0.1643  0.1970  0.1288
   76POPC   PO4 1395   4.878   3.282   9.714  0.0173 -0.1375  0.0579
   76POPC   GL1 1396   4.775   2.947   9.397 -0.0599  0.2278  0.0139
   76POPC   GL2 1397   4.581   2.902   9.157  0.0651 -0.2800  0.1096
   76POPC   C1A 1398   5.252   2.665   9.266  0.0830 -0.0193 -0.1984
   76POPC   D2A 1399   5.382   2.420   9.003  0.2087  0.0658  0.1162
   76POPC   C3A 1400   5.657   2.694   8.737  0.0469 -0.0460  0.1917
   76POPC   C4A 1401   6.018   2.839   8.823 -0.0167  0.4664  0.1653
   76POPC   C1B 1402   4.281   2.845   8.781  0.0587 -0.0927 -0.0408
   76POPC   C2B 1403   4.325   2.848   8.332  0.1865 -0.0875  0.2364
   76POPC   C3B 1404   4.157   2.885   7.919 -0.0988 -0.1012 -0.4492
   76POPC   C4B 1405   4.355   2.789   7.445  0.0897 -0.2246  0.0102
   77POPC   NC3 1406   0.685   3.475   8.972  0.1563 -0.2591  0.0980
   77POPC   PO4 1407   0.376   3.856   9.065  0.2912  0.1860 -0.0299
   77POPC   GL1 1408   0.406   3.876   8.557  0.3366  0.3986 -0.1102
   77POPC   GL2 1409   0.312   4.070   8.383 -0.0940  0.2263  0.2235
   77POPC   C1A 1410   0.682   3.777   8.213 -0.0078 -0.2198  0.2334
   77POPC   D2A 1411   0.728   3.811   7.731 -0.1041  0.0651 -0.1776
   77POPC   C3A 1412   0.881   3.586   7.541 -0.0845 -0.0001  0.0711
   77POPC   C4A 1413   1.285   3.378   7.270 -0.0933 -0.0018 -0.0260
   77POPC   C1B 1414   0.154   3.923   8.056 -0.1347 -0.4682 -0.3805
   77POPC   C2B 1415   0.253   3.748   7.609  0.0279 -0.1492  0.2407
   77POPC   C3B 1416   0.451   3.453   7.317  0.4797 -0.1091 -0.0450
   77POPC   C4B 1417   0.484   3.286   6.911 -0.0051  0.1153  0.0013
   78POPC   NC3 1418   3.354   4.779   8.788  0.1404 -0.0429  0.0817
   78POPC   PO4 1419   3.249   5.206   8.663  0.0822 -0.2349  0.1391
   78POPC   GL1 1420   3.473   4.910   8.349  0.1027  0.0711 -0.1844
   78POPC   GL2 1421   3.746   4.732   8.496  0.0861 -0.2023  0.2722
   78POPC   C1A 1422   3.470   4.886   7.865  0.0126  0.0763 -0.0495
   78POPC   D2A 1423   3.796   4.911   7.550  0.0564 -0.0085  0.0893
   78POPC   C3A 1424   3.544   5.014   7.193  0.0558  0.0257 -0.0245
   78POPC   C4A 1425   3.506   5.392   6.885 -0.0033  0.1715 -0.1908
   78POPC   C1B 1426   3.835   4.605   8.046  0.0427  0.1624 -0.5842
   78POPC   C2B 1427   3.906   4.243   7.642  0.1301 -0.0674  0.0673
   78POPC   C3B 1428   4.058   4.102   7.290  0.1658  0.1243 -0.1130
   78POPC   C4B 1429   4.265   3.830   7.059  0.6175 -0.4137  0.0862
   79POPC   NC3 1430   5.675   3.671   9.937  0.2459  0.0107  0.0619
   79POPC   PO4 1431   5.499   3.344   9.839 -0.1403  0.0618 -0.3253
   79POPC   GL1 1432   5.435   3.350   9.510  0.1741 -0.1290  0.1736
   79POPC   GL2 1433   5.152   3.267   9.310 -0.3239 -0.0794  0.2693
   79POPC   C1A 1434   5.636   3.612   9.109  0.3275  0.0547  0.3000
   79POPC   D2A 1435   5.485   3.952   8.801  0.4852  0.3717  0.1672
   79POPC   C3A 1436   5.267   4.049   8.445 -0.4132  0.0651  0.2447
   79POPC   C4A 1437   5.200   3.953   7.971  0.2117 -0.0527 -0.2283
   79POPC   C1B 1438   5.425   3.073   9.069 -0.1696 -0.2579  0.1171
   79POPC   C2B 1439   5.767   3.240   8.886 -0.1286  0.3248 -0.0606
   79POPC   C3B 1440   6.023   3.176   8.469  0.0761  0.0793  0.1245
   79POPC   C4B 1441   5.951   3.073   8.055 -0.1664 -0.0152  0.0365
   80POPC   NC3 1442   9.388   8.365   9.066  0.1463 -0.2815  0.2447
   80POPC   PO4 1443   9.816   8.410   8.926 -0.0381  0.0660  0.2821
   80POPC   GL1 1444   9.778   8.503   8.525 -0.1903 -0.3545  0.0458
   80POPC   GL2 1445   9.857   8.287   8.289  0.1309  0.1268 -0.0115
   80POPC   C1A 1446   9.625   8.772   8.181  0.2491 -0.2043  0.1559
   80POPC   D2A 1447   9.734   8.718   7.734  0.0092  0.0890 -0.0607
   80POPC   C3A 1448  10.132   8.737   7.433  0.1573  0.0383 -0.2239
   80POPC   C4A 1449  10.406   8.757   7.100  0.0650 -0.0190  0.0794
   80POPC   C1B 1450   9.582   8.300   7.961 -0.1699  0.1239  0.1318
   80POPC   C2B 1451   9.713   7.949   7.735  0.2143 -0.2547 -0.1178
   80POPC   C3B 1452   9.364   7.867   7.416  0.1970  0.1260 -0.2337
   80POPC   C4B 1453   9.166   7.784   6.969 -0.1491 -0.0350  0.1390
   81POPC   NC3 1454   3.828   3.140   9.508 -0.0020  0.0545 -0.3449
   81POPC   PO4 1455   3.933   2.696   9.499 -0.0065  0.1739  0.3411
   81POPC   GL1 1456   4.168   2.497   9.187  0.4294  0.0719  0.1008
   81POPC   GL2 1457   4.533   2.429   9.258  0.0886  0.1205 -0.0880
   81POPC   C1A 1458   4.248   2.352   8.712  0.1151 -0.0124 -0.0809
   81POPC   D2A 1459   3.991   2.482   8.375 -0.3341  0.0569 -0.1382
   81POPC   C3A 1460   3.621   2.361   8.466  0.1107  0.0410  0.0533
   81POPC   C4A 1461   3.246   2.324   8.247 -0.2563  0.2448 -0.0979
   81POPC   C1B 1462   4.872   2.550   8.931  0.2801  0.0727  0.0395
   81POPC   C2B 1463   5.188   2.432   8.579 -0.2604  0.3471  0.0219
   81POPC   C3B 1464   5.617   2.169   8.553 -0.2390 -0.0569  0.3538
   81POPC   C4B 1465   5.944   2.296   8.670 -0.0587 -0.0091  0.2577
   82POPC   NC3 1466   2.468   2.177   9.287 -0.1347 -0.2318  0.0927
   82POPC   PO4 1467   2.111   2.083   8.908  0.0587  0.2700 -0.1059
   82POPC   GL1 1468   1.878   2.042   8.485  0.3387  0.0983  0.1021
   82POPC   GL2 1469   1.615   1.806   8.396  0.0323 -0.1294 -0.4583
   82POPC   C1A 1470   1.917   1.921   8.008  0.1629  0.1330 -0.0463
   82POPC   D2A 1471   2.043   1.892   7.561  0.2639  0.4166  0.0909
   82POPC   C3A 1472   2.235   1.572   7.386 -0.3232  0.1863  0.1176
   82POPC   C4A 1473   2.284   1.213   7.251 -0.2735 -0.1504  0.1124
   82POPC   C1B 1474   1.365   1.744   8.019 -0.2867 -0.2937  0.2163
   82POPC   C2B 1475   1.107   1.823   7.619 -0.5745 -0.0130 -0.4636
   82POPC   C3B 1476   1.064   1.556   7.291  0.1863 -0.3034 -0.2458
   82POPC   C4B 1477   1.453   1.581   6.976 -0.1630 -0.0569 -0.0676
   83POPC   NC3 1478   2.180   9.738   8.597 -0.0162  0.0123 -0.0799
   83POPC   PO4 1479   1.820   9.557   8.504 -0.0805 -0.3803 -0.2848
   83POPC   GL1 1480   1.757   9.988   8.288 -0.0807 -0.0313 -0.0535
   83POPC   GL2 1481   1.628  10.003   8.028 -0.4045 -0.0161 -0.0097
   83POPC   C1A 1482   2.097  10.253   8.148  0.7453  0.0051 -0.2944
   83POPC   D2A 1483   1.973  10.446   7.737  0.1276 -0.0821  0.1315
   83POPC   C3A 1484   2.071  10.212   7.264  0.1003  0.1113 -0.0529
   83POPC   C4A 1485   1.977   9.955   6.876 -0.3265  0.0982  0.1343
   83POPC   C1B 1486   1.853   9.853   7.646  0.1181 -0.0314 -0.1883
   83POPC   C2B 1487   1.644   9.767   7.168  0.1321  0.2372 -0.1592
   83POPC   C3B 1488   1.508   9.678   6.797 -0.0389 -0.2364 -0.2259
   83POPC   C4B 1489   1.264   9.918   6.439  0.0932 -0.0209  0.3947
   84POPC   NC3 1490   7.844   9.867   9.679  0.0196 -0.0394  0.1552
   84POPC   PO4 1491   7.940  10.212   9.423  0.1760 -0.5174 -0.1565
   84POPC   GL1 1492   7.930  10.375   8.990 -0.1639  0.0584  0.2544
   84POPC   GL2 1493   7.732  10.300   8.638 -0.0131  0.0128 -0.3127
   84POPC   C1A 1494   7.879  10.761   8.748 -0.3388 -0.0239 -0.1972
   84POPC   D2A 1495   7.906  11.041   8.473 -0.2415 -0.0516  0.0693
   84POPC   C3A 1496   7.808  11.345   8.051 -0.1024 -0.1083 -0.2909
   84POPC   C4A 1497   7.504  11.245   7.683 -0.2472  0.0199 -0.3483
   84POPC   C1B 1498   7.603  10.533   8.308  0.0531  0.0623  0.0680
   84POPC   C2B 1499   7.745  10.797   8.019 -0.0513  0.1200 -0.0038
   84POPC   C3B 1500   7.871  10.907   7.618  0.0040 -0.3316 -0.0819
   84POPC   C4B 1501   7.842  10.869   7.230 -0.0912 -0.1636 -0.0277
   85POPC   NC3 1502   6.773   2.849  10.378 -0.0716  0.1133 -0.4194
   85POPC   PO4 1503   6.831   3.311  10.249 -0.1866  0.1499  0.0868
   85POPC   GL1 1504   6.815   3.128   9.870  0.3717  0.0933  0.0940
   85POPC   GL2 1505   7.073   3.253   9.702  0.1627 -0.0528  0.1485
   85POPC   C1A 1506   6.768   2.909   9.432 -0.0282 -0.0289  0.1714
   85POPC   D2A 1507   6.594   2.948   9.093  0.0114 -0.2234  0.0922
   85POPC   C3A 1508   6.240   3.229   9.044  0.0679  0.1976  0.3240
   85POPC   C4A 1509   6.215   3.619   9.177  0.0605  0.2715  0.1400
   85POPC   C1B 1510   6.638   3.373   9.399 -0.1393  0.0145 -0.0930
   85POPC   C2B 1511   6.669   3.455   8.892 -0.3470  0.0496  0.1976
   85POPC   C3B 1512   6.381   3.601   8.651 -0.0953  0.0694 -0.3836
   85POPC   C4B 1513   6.322   3.518   8.284 -0.0631 -0.0837 -0.1497
   86POPC   NC3 1514   8.389  10.118   8.979 -0.1943  0.0515  0.0710
   86POPC   PO4 1515   8.491  10.561   9.068 -0.2328 -0.1257 -0.2019
   86POPC   GL1 1516   8.699  10.680   8.707 -0.0647 -0.1038  0.3616
   86POPC   GL2 1517   8.611  10.902   8.708 -0.0038 -0.3916 -0.1849
   86POPC   C1A 1518   8.881  10.744   8.333  0.1906  0.0232  0.0979
   86POPC   D2A 1519   9.226  10.813   8.127 -0.1929  0.2012 -0.0919
   86POPC   C3A 1520   9.224  10.950   7.676 -0.2384 -0.3618 -0.2672
   86POPC   C4A 1521   9.394  11.033   7.171 -0.1822 -0.0968 -0.0417
   86POPC   C1B 1522   8.397  10.789   8.275  0.0047 -0.0946  0.0228
   86POPC   C2B 1523   8.231  10.732   7.917 -0.0421 -0.1637  0.1058
   86POPC   C3B 1524   8.336  10.875   7.425 -0.1308  0.0069  0.2048
   86POPC   C4B 1525   8.838  10.771   7.356 -0.5194 -0.0136 -0.3757
   87POPC   NC3 1526  10.436   0.320   9.008 -0.0525  0.0544  0.0321
   87POPC   PO4 1527  10.657   0.371   8.629  0.4929 -0.0559 -0.0752
   87POPC   GL1 1528  10.672   0.183   8.244  0.1138 -0.1024  0.2785
   87POPC   GL2 1529  10.833  -0.007   8.018  0.1793  0.1095 -0.1345
   87POPC   C1A 1530  10.440  -0.182   8.152  0.0775  0.0487  0.4128
   87POPC   D2A 1531   9.996  -0.206   8.124  0.1371 -0.2144 -0.1790
   87POPC   C3A 1532   9.765  -0.521   7.798 -0.1541 -0.0464 -0.0574
   87POPC   C4A 1533   9.590  -0.357   7.446  0.1834  0.0668 -0.3536
   87POPC   C1B 1534  11.105  -0.004   7.661 -0.2446 -0.3601  0.4069
   87POPC   C2B 1535  11.483  -0.060   7.409  0.0538 -0.1736  0.0709
   87POPC   C3B 1536  11.649  -0.113   7.124 -0.0832  0.0567 -0.1002
   87POPC   C4B 1537  11.958  -0.300   6.851 -0.0639 -0.1517 -0.0550
   88POPC   NC3 1538   3.024   5.344   9.087  0.0497 -0.2425  0.1388
   88POPC   PO4 1539   2.938   5.691   8.761  0.3543 -0.2410 -0.0619
   88POPC   GL1 1540   2.927   5.583   8.286 -0.1297  0.3186 -0.2353
   88POPC   GL2 1541   3.026   5.772   8.100  0.1864 -0.0715 -0.0236
   88POPC   C1A 1542   3.082   5.318   7.991 -0.0076  0.1548 -0.2821
   88POPC   D2A 1543   3.241   5.249   7.496 -0.0028  0.1746  0.2434
   88POPC   C3A 1544   3.079   4.982   7.200  0.3036  0.1076  0.3092
   88POPC   C4A 1545   3.153   4.986   6.784  0.0786  0.1045 -0.1517
   88POPC   C1B 1546   3.224   5.810   7.624  0.1216 -0.1782  0.0310
   88POPC   C2B 1547   3.363   5.709   7.238 -0.2964  0.2086  0.2874
   88POPC   C3B 1548   3.510   5.914   6.827 -0.0418  0.0248 -0.0578
   88POPC   C4B 1549   3.726   5.861   6.389  0.4625 -0.4730  0.1097
   89POPC   NC3 1550   4.331  10.153   9.065  0.0098 -0.0560  0.2745
   89POPC   PO4 1551   4.369   9.788   8.768 -0.0149  0.2354  0.2789
   89POPC   GL1 1552   4.548  10.001   8.424  0.1907 -0.0898 -0.0558
   89POPC   GL2 1553   4.516  10.321   8.594 -0.0334 -0.2229  0.1428
   89POPC   C1A 1554   4.665   9.810   8.051  0.2150  0.1267  0.0770
   89POPC   D2A 1555   5.005   9.878   7.745  0.0108  0.0198 -0.1523
   89POPC   C3A 1556   5.047   9.553   7.470 -0.0545 -0.1849 -0.0009
   89POPC   C4A 1557   5.017   9.560   7.020 -0.1316 -0.0137  0.1887
   89POPC   C1B 1558   4.465  10.417   8.116  0.1381 -0.0157 -0.2957
   89POPC   C2B 1559   4.656  10.310   7.746 -0.1701  0.0525 -0.0271
   89POPC   C3B 1560   4.706   9.963   7.362  0.0366 -0.1388 -0.1739
   89POPC   C4B 1561   4.625   9.916   6.975  0.2660 -0.0682  0.0290
   90POPC   NC3 1562   0.130   8.938   8.678  0.1382  0.1322  0.1393
   90POPC   PO4 1563  -0.069   9.331   8.599  0.0895 -0.1202 -0.0732
   90POPC   GL1 1564   0.020   9.193   8.165  0.2006  0.0403  0.0726
   90POPC   GL2 1565   0.271   8.815   8.231  0.0311  0.0695  0.2382
   90POPC   C1A 1566  -0.092   9.391   7.879 -0.2404 -0.2248  0.1621
   90POPC   D2A 1567  -0.324   9.504   7.537  0.1225 -0.2964  0.1354
   90POPC   C3A 1568  -0.468   9.783   7.344  0.0421  0.1080 -0.0230
   90POPC   C4A 1569  -0.870   9.770   7.099  0.1043  0.1137  0.0184
   90POPC   C1B 1570   0.112   8.834   7.768  0.4607  0.1922  0.2133
   90POPC   C2B 1571   0.014   9.122   7.475  0.3169 -0.2966  0.0318
   90POPC   C3B 1572  -0.096   9.508   7.128 -0.0156  0.0491 -0.6146
   90POPC   C4B 1573   0.051   9.606   6.686 -0.1301  0.2153  0.0437
   91POPC   NC3 1574   8.392   4.037   9.990 -0.0732  0.2236  0.0043
   91POPC   PO4 1575   8.273   3.888   9.538  0.1821  0.2859  0.0553
   91POPC   GL1 1576   8.070   3.588   9.250  0.0826  0.2464  0.1970
   91POPC   GL2 1577   8.265   3.260   9.190  0.1536  0.0398  0.2110
   91POPC   C1A 1578   7.991   3.471   8.821  0.0134 -0.3239  0.1012
   91POPC   D2A 1579   8.074   3.635   8.396 -0.1751 -0.0736  0.2223
   91POPC   C3A 1580   8.502   3.398   8.200  0.0849 -0.0884  0.0384
   91POPC   C4A 1581   8.715   3.010   8.174 -0.0780 -0.1583  0.2043
   91POPC   C1B 1582   8.114   2.946   8.930 -0.2943  0.0009 -0.0314
   91POPC   C2B 1583   8.175   2.654   8.653  0.1163  0.2491 -0.0398
   91POPC   C3B 1584   7.881   2.553   8.348 -0.1325  0.3118 -0.1988
   91POPC   C4B 1585   7.805   2.145   8.100 -0.0488 -0.2094 -0.0538
   92POPC   NC3 1586   0.722   4.138   8.802  0.1335 -0.0644 -0.0493
   92POPC   PO4 1587   1.112   3.942   8.789  0.0632  0.2641 -0.1469
   92POPC   GL1 1588   1.100   3.706   8.428  0.1772  0.0339  0.1186
   92POPC   GL2 1589   0.871   3.374   8.430 -0.1846 -0.0089 -0.4607
   92POPC   C1A 1590   1.051   3.493   7.964 -0.1232  0.3427 -0.0286
   92POPC   D2A 1591   1.256   3.246   7.793 -0.0743 -0.1538 -0.0641
   92POPC   C3A 1592   1.173   2.931   7.581  0.3568  0.0656 -0.0441
   92POPC   C4A 1593   1.274   2.633   7.309 -0.0774 -0.0099 -0.2068
   92POPC   C1B 1594   0.670   3.150   8.146 -0.0422 -0.0199 -0.3351
   92POPC   C2B 1595   0.622   3.188   7.696  0.0042  0.1961  0.0635
   92POPC   C3B 1596   0.833   3.175   7.304 -0.0971 -0.0566  0.3859
   92POPC   C4B 1597   0.912   3.074   6.932 -0.1806  0.0608 -0.0718
   93POPC   NC3 1598   7.957   7.452   8.824  0.1134 -0.0676 -0.3119
   93POPC   PO4 1599   8.421   7.519   8.763  0.3397 -0.0714 -0.1725
   93POPC   GL1 1600   8.473   7.525   8.297 -0.0536 -0.1866 -0.0454
   93POPC   GL2 1601   8.501   7.182   8.230  0.0787  0.1263  0.0689
   93POPC   C1A 1602   8.328   7.686   7.912 -0.0383  0.0025 -0.3892
   93POPC   D2A 1603   7.967   7.974   7.733 -0.1116  0.1674  0.1001
   93POPC   C3A 1604   7.804   7.959   7.295 -0.2622  0.3386  0.3407
   93POPC   C4A 1605   7.603   7.542   7.135 -0.0648  0.0630 -0.0948
   93POPC   C1B 1606   8.170   7.197   7.881 -0.2387  0.1272 -0.2137
   93POPC   C2B 1607   8.188   7.016   7.404  0.1936 -0.2527 -0.0246
   93POPC   C3B 1608   8.138   7.270   6.983 -0.2158 -0.2845 -0.0560
   93POPC   C4B 1609   8.251   7.652   6.814 -0.1658 -0.2491  0.0165
   94POPC   NC3 1610   2.018   8.404   8.352 -0.0490 -0.0151 -0.1449
   94POPC   PO4 1611   1.790   8.196   8.557 -0.3419  0.1466  0.1913
   94POPC   GL1 1612   1.675   8.127   8.130  0.3392 -0.1762  0.0204
   94POPC   GL2 1613   1.703   8.357   7.893 -0.0810 -0.0088  0.4637
   94POPC   C1A 1614   1.930   7.825   7.949  0.1327 -0.2344  0.1527
   94POPC   D2A 1615   2.348   7.882   7.978  0.1436 -0.0641  0.2686
   94POPC   C3A 1616   2.491   8.034   7.670 -0.1316 -0.0952  0.0714
   94POPC   C4A 1617   2.429   8.305   7.432 -0.1002  0.0548 -0.0016
   94POPC   C1B 1618   1.961   8.172   7.571 -0.2488  0.2495  0.4567
   94POPC   C2B 1619   2.034   8.199   7.120 -0.1005  0.0598 -0.1144
   94POPC   C3B 1620   1.862   8.314   6.819 -0.2362  0.2339  0.1939
   94POPC   C4B 1621   1.973   8.613   6.625  0.2414 -0.1042 -0.2147
   95POPC   NC3 1622   0.493   9.860   8.761  0.1776  0.3349  0.1573
   95POPC   PO4 1623   0.788   9.563   8.621 -0.2505  0.1737 -0.0008
   95POPC   GL1 1624   0.867   9.673   8.121 -0.2233  0.2050 -0.2552
   95POPC   GL2 1625   1.157   9.875   8.177 -0.1924  0.2181  0.2201
   95POPC   C1A 1626   0.869   9.541   7.712 -0.0384 -0.0457  0.0562
   95POPC   D2A 1627   1.142   9.208   7.607 -0.0795 -0.2644  0.1066
   95POPC   C3A 1628   0.996   8.892   7.473  0.0184 -0.0956  0.5210
   95POPC   C4A 1629   0.919   8.606   7.155  0.1176  0.0096  0.0624
   95POPC   C1B 1630   1.227  10.134   7.741 -0.2765  0.1738  0.1719
   95POPC   C2B 1631   1.492  10.143   7.515 -0.0908 -0.1201 -0.0193
   95POPC   C3B 1632   1.633  10.510   7.187  0.1421  0.1572 -0.0722
   95POPC   C4B 1633   1.884  10.465   6.852 -0.1941  0.0989 -0.0567
   96POPC   NC3 1634   3.826   9.948   8.857  0.1815 -0.1589 -0.1200
   96POPC   PO4 1635   3.908   9.518   8.838  0.3274 -0.1979  0.2058
   96POPC   GL1 1636   4.043   9.583   8.433  0.2317  0.0963 -0.1751
   96POPC   GL2 1637   4.002   9.955   8.370 -0.0580  0.3858  0.2998
   96POPC   C1A 1638   4.162   9.571   8.082 -0.1735  0.1394 -0.2279
   96POPC   D2A 1639   3.930   9.471   7.660  0.1927 -0.1932 -0.1378
   96POPC   C3A 1640   3.799   9.802   7.419  0.3031 -0.1133 -0.0428
   96POPC   C4A 1641   3.381   9.668   7.326 -0.2536  0.1223  0.0217
   96POPC   C1B 1642   4.221  10.013   7.897 -0.1688  0.1138  0.0633
   96POPC   C2B 1643   4.271  10.093   7.516 -0.0624  0.1370  0.1172
   96POPC   C3B 1644   4.389  10.446   7.242  0.1245 -0.0132  0.1919
   96POPC   C4B 1645   4.516  10.865   7.230 -0.1597 -0.1020 -0.2376
   97POPC   NC3 1646   9.022   0.215   9.093  0.2911 -0.2318  0.1074
   97POPC   PO4 1647   9.221   0.594   9.144  0.0007 -0.1594  0.0603
   97POPC   GL1 1648   9.085   0.559   8.738 -0.1266 -0.1674  0.2657
   97POPC   GL2 1649   9.246   0.711   8.567 -0.1932 -0.1151  0.0011
   97POPC   C1A 1650   8.831   0.733   8.360  0.1596 -0.1070 -0.0975
   97POPC   D2A 1651   8.727   0.630   7.899 -0.3302  0.0359  0.2798
   97POPC   C3A 1652   8.764   0.289   7.867  0.3462  0.3024 -0.0843
   97POPC   C4A 1653   9.024  -0.109   7.681  0.2183  0.0337  0.0677
   97POPC   C1B 1654   9.243   0.831   8.054  0.0864  0.1565 -0.2256
   97POPC   C2B 1655   9.032   0.984   7.745  0.1760 -0.0837  0.2434
   97POPC   C3B 1656   9.069   0.857   7.352  0.1093  0.0467  0.2601
   97POPC   C4B 1657   8.866   0.730   7.075  0.2929 -0.1782  0.0310
   98POPC   NC3 1658   2.685   5.239   8.711  0.0363 -0.1096 -0.2264
   98POPC   PO4 1659   2.818   4.849   8.766 -0.0268  0.1013  0.0322
   98POPC   GL1 1660   2.962   4.779   8.372 -0.1201  0.2649  0.0950
   98POPC   GL2 1661   2.734   5.060   8.249 -0.1231 -0.0848 -0.4663
   98POPC   C1A 1662   3.029   4.691   7.982  0.2435 -0.0030  0.3159
   98POPC   D2A 1663   3.133   4.635   7.531  0.2450  0.3416 -0.3097
   98POPC   C3A 1664   3.478   4.532   7.526 -0.1163 -0.1470 -0.0366
   98POPC   C4A 1665   3.768   4.616   7.204  0.1414 -0.3317 -0.0007
   98POPC   C1B 1666   2.759   5.026   7.684 -0.1296 -0.0475  0.0449
   98POPC   C2B 1667   2.604   5.163   7.338 -0.0936 -0.1230  0.3985
   98POPC   C3B 1668   2.383   4.893   6.956 -0.0350  0.2798  0.1541
   98POPC   C4B 1669   2.314   4.402   7.050 -0.3713 -0.2602 -0.2220
   99POPC   NC3 1670   2.913   0.482   8.973  0.0262 -0.1706 -0.2851
   99POPC   PO4 1671   3.321   0.748   8.845 -0.0308 -0.3177  0.1588
   99POPC   GL1 1672   3.425   0.843   8.470  0.0473  0.0547 -0.0904
   99POPC   GL2 1673   3.261   1.121   8.397 -0.0647  0.2576 -0.3193
   99POPC   C1A 1674   3.540   0.572   8.119 -0.0407  0.0289 -0.0326
   99POPC   D2A 1675   3.559   0.205   7.825 -0.4113 -0.1008 -0.1785
   99POPC   C3A 1676   3.369   0.201   7.368 -0.1356  0.0998 -0.1644
   99POPC   C4A 1677   3.513   0.178   7.012 -0.3218 -0.0948 -0.2277
   99POPC   C1B 1678   3.295   1.436   8.010  0.0939 -0.3465 -0.1213
   99POPC   C2B 1679   3.689   1.397   7.670 -0.3018 -0.0169  0.0482
   99POPC   C3B 1680   3.848   1.161   7.384  0.2526 -0.2764 -0.3243
   99POPC   C4B 1681   3.958   0.864   7.157  0.0506 -0.0827 -0.0038
  100POPC   NC3 1682   7.992   0.614  10.009  0.3260 -0.0164 -0.1803
  100POPC   PO4 1683   8.011   0.974   9.840 -0.1119  0.1548 -0.1734
  100POPC   GL1 1684   7.763   1.149   9.509 -0.1418  0.3433  0.0967
  100POPC   GL2 1685   7.696   0.981   9.239 -0.3779  0.1464  0.0710
  100POPC   C1A 1686   7.502   1.437   9.226 -0.0786  0.0822  0.1613
  100POPC   D2A 1687   7.218   1.825   9.200  0.1253 -0.3704 -0.2053
  100POPC   C3A 1688   7.377   2.161   9.091 -0.1288 -0.1990  0.0046
  100POPC   C4A 1689   7.540   2.508   9.034  0.2329  0.1386 -0.2145
  100POPC   C1B 1690   7.696   0.834   8.823 -0.0761 -0.1803 -0.1808
  100POPC   C2B 1691   7.499   0.986   8.436  0.0776 -0.0407 -0.0794
  100POPC   C3B 1692   7.327   1.342   8.221  0.2743 -0.2452  0.1002
  100POPC   C4B 1693   7.178   1.656   7.870 -0.0018 -0.1730 -0.0701
  101POPC   NC3 1694   8.552   9.718   8.645  0.0178  0.1081 -0.1815
  101POPC   PO4 1695   8.270   9.550   8.985  0.0062  0.3399 -0.0809
  101POPC   GL1 1696   8.242   9.350   8.588  0.2568 -0.0897 -0.0442
  101POPC   GL2 1697   8.407   9.045   8.514 -0.0318 -0.0108  0.0606
  101POPC   C1A 1698   8.198   9.469   8.197  0.0165 -0.1698 -0.0833
  101POPC   D2A 1699   8.500   9.432   7.930  0.3024  0.1325  0.1148
  101POPC   C3A 1700   8.789   9.095   7.907  0.3146  0.3534 -0.4738
  101POPC   C4A 1701   8.963   8.862   8.155  0.0599 -0.1000 -0.3351
  101POPC   C1B 1702   8.206   8.955   8.103  0.1270  0.1945 -0.2204
  101POPC   C2B 1703   8.098   9.099   7.682 -0.1970  0.0602  0.0754
  101POPC   C3B 1704   7.790   9.378   7.347 -0.1897 -0.4291  0.4914
  101POPC   C4B 1705   7.903   9.671   7.047 -0.1487  0.0767  0.1023
  102POPC   NC3 1706   8.441   1.321   9.802 -0.0436 -0.0977 -0.2870
  102POPC   PO4 1707   8.628   1.855   9.866  0.1157  0.0750  0.0425
  102POPC   GL1 1708   8.456   2.242   9.671  0.1125  0.0620 -0.0734
  102POPC   GL2 1709   8.058   2.171   9.506 -0.0429 -0.0228 -0.0821
  102POPC   C1A 1710   8.637   2.370   9.290 -0.1953 -0.0700  0.1630
  102POPC   D2A 1711   8.509   2.732   9.117 -0.0168 -0.1308  0.0235
  102POPC   C3A 1712   8.663   2.815   8.688 -0.1673  0.1426 -0.0136
  102POPC   C4A 1713   9.029   2.687   8.568  0.4321 -0.0147 -0.2024
  102POPC   C1B 1714   8.274   1.996   9.223  0.1617  0.1455 -0.3411
  102POPC   C2B 1715   8.198   1.844   8.786 -0.0594 -0.1393 -0.1141
  102POPC   C3B 1716   8.252   1.737   8.338  0.0591 -0.1164 -0.3363
  102POPC   C4B 1717   8.363   1.790   8.034 -0.0122  0.1606 -0.1468
  103POPC   NC3 1718   1.567   6.048   9.354  0.1032 -0.2013 -0.0771
  103POPC   PO4 1719   1.449   6.279   8.912  0.2415 -0.3345 -0.1066
  103POPC   GL1 1720   1.542   6.151   8.513  0.0161  0.0831 -0.1421
  103POPC   GL2 1721   1.289   6.271   8.429 -0.0969 -0.2459 -0.3874
  103POPC   C1A 1722   1.445   5.909   8.147 -0.1085  0.0571  0.4618
  103POPC   D2A 1723   1.115   5.926   7.781 -0.2687  0.0378  0.5482
  103POPC   C3A 1724   0.959   6.290   7.598  0.0170 -0.2352  0.5642
  103POPC   C4A 1725   0.833   6.409   7.187  0.2159  0.2972  0.2201
  103POPC   C1B 1726   1.257   6.341   8.028 -0.2715 -0.2580 -0.1051
  103POPC   C2B 1727   1.477   6.690   7.736 -0.0867 -0.0627 -0.1030
  103POPC   C3B 1728   1.626   6.863   7.328  0.0547  0.1454 -0.0960
  103POPC   C4B 1729   1.770   6.867   6.877  0.0048  0.1535 -0.3288
  104POPC   NC3 1730   4.869   7.873   8.941  0.1437 -0.0213  0.0227
  104POPC   PO4 1731   4.743   7.664   8.627 -0.0503  0.0374  0.2476
  104POPC   GL1 1732   4.875   7.642   8.229  0.0577 -0.2254 -0.0415
  104POPC   GL2 1733   5.127   7.480   8.128 -0.1298  0.0644  0.0097
  104POPC   C1A 1734   4.749   7.699   7.784 -0.2356 -0.0389  0.1968
  104POPC   D2A 1735   4.503   7.565   7.406 -0.0453 -0.0062  0.0131
  104POPC   C3A 1736   4.232   7.996   7.113 -0.2011 -0.0852  0.1490
  104POPC   C4A 1737   4.332   8.200   6.639  0.0637  0.0286 -0.1236
  104POPC   C1B 1738   5.116   7.181   7.851 -0.1234  0.3208 -0.1299
  104POPC   C2B 1739   5.071   7.345   7.556 -0.2210 -0.0878  0.1336
  104POPC   C3B 1740   4.989   7.665   7.320  0.0109  0.1136  0.0968
  104POPC   C4B 1741   4.763   7.986   7.264  0.0627 -0.1389  0.1242
  105POPC   NC3 1742   1.078   2.987   9.197 -0.2701  0.2560 -0.1031
  105POPC   PO4 1743   1.362   2.810   8.814  0.0114  0.0088  0.0493
  105POPC   GL1 1744   1.581   2.649   8.431  0.0723  0.0864 -0.0254
  105POPC   GL2 1745   1.466   2.307   8.474  0.0039  0.0749 -0.1826
  105POPC   C1A 1746   1.401   2.690   7.995 -0.1882 -0.1384 -0.2193
  105POPC   D2A 1747   1.656   2.917   7.625  0.0454 -0.1335 -0.1260
  105POPC   C3A 1748   2.024   2.775   7.524  0.2915 -0.1357 -0.1825
  105POPC   C4A 1749   2.154   2.454   7.137  0.1247  0.1322 -0.0313
  105POPC   C1B 1750   1.556   2.232   8.040  0.5489  0.1784  0.0738
  105POPC   C2B 1751   1.626   2.178   7.659  0.1807  0.0142 -0.2283
  105POPC   C3B 1752   1.696   2.460   7.360 -0.0599  0.0913  0.2607
  105POPC   C4B 1753   1.651   2.489   6.924  0.1326 -0.1517  0.2509
  106POPC   NC3 1754   3.112   4.535   9.523 -0.0439  0.0162 -0.0999
  106POPC   PO4 1755   3.323   4.461   9.198  0.3911  0.0655  0.0879
  106POPC   GL1 1756   3.151   4.215   8.909 -0.0562  0.1314  0.2400
  106POPC   GL2 1757   3.136   3.870   8.935 -0.3010 -0.2691 -0.1438
  106POPC   C1A 1758   2.903   4.248   8.540  0.3354  0.0208 -0.1454
  106POPC   D2A 1759   2.903   4.105   8.138 -0.1854  0.0045 -0.3630
  106POPC   C3A 1760   2.845   3.599   8.087 -0.0284 -0.0626 -0.2800
  106POPC   C4A 1761   2.974   3.345   8.504 -0.1885  0.2296  0.2377
  106POPC   C1B 1762   3.237   3.854   8.485  0.0323  0.3119  0.1282
  106POPC   C2B 1763   3.343   3.806   8.016 -0.1877 -0.1517 -0.0174
  106POPC   C3B 1764   3.573   3.875   7.675 -0.3009 -0.1895  0.0914
  106POPC   C4B 1765   3.472   4.017   7.318  0.3142  0.2703  0.2117
  107POPC   NC3 1766   4.840   9.554   8.667 -0.1221 -0.1209 -0.0202
  107POPC   PO4 1767   4.832  10.008   8.865 -0.0921 -0.1728 -0.0246
  107POPC   GL1 1768   4.998   9.998   8.552 -0.1545  0.2980  0.1786
  107POPC   GL2 1769   5.396  10.097   8.472  0.0419 -0.1041  0.0264
  107POPC   C1A 1770   5.006  10.297   8.238 -0.0915  0.0642  0.1181
  107POPC   D2A 1771   5.177  10.441   7.836  0.0459  0.0226 -0.0664
  107POPC   C3A 1772   5.051  10.294   7.381  0.2675 -0.1810 -0.1210
  107POPC   C4A 1773   5.099  10.026   7.053 -0.0268 -0.0907  0.2710
  107POPC   C1B 1774   5.409  10.030   8.011 -0.0892 -0.0479  0.1568
  107POPC   C2B 1775   5.614  10.200   7.597 -0.1925 -0.0173 -0.1018
  107POPC   C3B 1776   5.515  10.283   7.172 -0.0249 -0.2823 -0.8358
  107POPC   C4B 1777   5.487  10.241   6.777 -0.2749  0.0754  0.0280
  108POPC   NC3 1778   1.519   8.591   8.323 -0.3109 -0.0450  0.0350
  108POPC   PO4 1779   1.815   8.794   8.164  0.1859  0.0686  0.0348
  108POPC   GL1 1780   1.827   9.236   7.955  0.0804  0.2474  0.0576
  108POPC   GL2 1781   1.654   9.443   8.009 -0.1116  0.2469 -0.0712
  108POPC   C1A 1782   1.649   9.154   7.566  0.0905 -0.2900  0.0799
  108POPC   D2A 1783   1.427   9.023   7.277  0.0864  0.0064 -0.0788
  108POPC   C3A 1784   1.228   9.313   6.938 -0.3968  0.1479  0.1987
  108POPC   C4A 1785   1.115   9.455   6.509 -0.1210 -0.5019  0.0458
  108POPC   C1B 1786   1.405   9.630   7.681  0.2450 -0.0787  0.0817
  108POPC   C2B 1787   1.185   9.717   7.350  0.1091  0.0185  0.3924
  108POPC   C3B 1788   0.975   9.873   6.978 -0.1987  0.1048 -0.1884
  108POPC   C4B 1789   0.965  10.278   6.670 -0.4728  0.1519 -0.0982
  109POPC   NC3 1790  10.014   6.603   8.757 -0.1830  0.2160  0.0828
  109POPC   PO4 1791  10.096   6.184   8.897  0.2660 -0.0760 -0.0104
  109POPC   GL1 1792  10.052   6.137   8.498 -0.2990 -0.1442  0.1987
  109POPC   GL2 1793  10.049   5.920   8.278 -0.1602  0.1586 -0.1450
  109POPC   C1A 1794  10.074   6.278   8.002  0.3631  0.0621 -0.1219
  109POPC   D2A 1795  10.342   6.056   7.620  0.0477  0.0695 -0.1231
  109POPC   C3A 1796  10.305   6.157   7.288  0.1716 -0.2492 -0.2200
  109POPC   C4A 1797   9.935   6.346   7.011 -0.0794 -0.0890 -0.4938
  109POPC   C1B 1798  10.096   5.588   7.868  0.1022 -0.1311 -0.0655
  109POPC   C2B 1799  10.224   5.176   7.674 -0.0346  0.0455 -0.2207
  109POPC   C3B 1800  10.574   5.000   7.378  0.0877  0.1582  0.1077
  109POPC   C4B 1801  10.542   4.615   7.031  0.1288 -0.1499 -0.3686
  110POPC   NC3 1802   9.816   1.036   9.159  0.2669 -0.0207 -0.1642
  110POPC   PO4 1803  10.064   1.207   8.830  0.3347 -0.0556 -0.0009
  110POPC   GL1 1804   9.939   1.104   8.338  0.0180 -0.1265  0.3328
  110POPC   GL2 1805  10.009   0.797   8.186  0.0344 -0.0485 -0.0281
  110POPC   C1A 1806   9.754   1.198   7.923  0.1319  0.0004  0.2277
  110POPC   D2A 1807   9.487   1.123   7.531  0.1134  0.0810  0.0869
  110POPC   C3A 1808   9.490   1.195   7.096  0.0957  0.2875 -0.2961
  110POPC   C4A 1809   9.209   1.025   6.706 -0.1814  0.0319  0.1343
  110POPC   C1B 1810  10.155   0.767   7.739 -0.0184 -0.3061 -0.1102
  110POPC   C2B 1811  10.060   1.189   7.390  0.0690  0.0380 -0.3075
  110POPC   C3B 1812   9.898   1.502   7.092  0.4114 -0.0706  0.1863
  110POPC   C4B 1813   9.502   1.704   6.888  0.0188  0.1259 -0.0025
  111POPC   NC3 1814   4.053   0.762   9.414 -0.0671 -0.3182  0.2442
  111POPC   PO4 1815   3.872   0.501   9.093  0.0261  0.3566  0.0441
  111POPC   GL1 1816   4.055   0.859   8.911  0.2827  0.0493 -0.0890
  111POPC   GL2 1817   4.346   0.600   8.822 -0.2452 -0.1836  0.1549
  111POPC   C1A 1818   3.811   1.073   8.597  0.2065 -0.0493  0.2153
  111POPC   D2A 1819   3.695   1.083   8.106  0.2015  0.1655 -0.0131
  111POPC   C3A 1820   3.853   0.790   7.795 -0.1397  0.1078 -0.1671
  111POPC   C4A 1821   3.864   0.489   7.458 -0.1652 -0.1866  0.0822
  111POPC   C1B 1822   4.590   0.768   8.469 -0.1226  0.2194 -0.0194
  111POPC   C2B 1823   4.918   0.952   8.421  0.2392 -0.0205  0.1044
  111POPC   C3B 1824   5.133   1.202   8.095  0.2218 -0.0034 -0.1196
  111POPC   C4B 1825   5.000   1.510   7.825 -0.0066  0.0289  0.3848
  112POPC   NC3 1826   9.764   9.914   8.509  0.1361 -0.0760 -0.2345
  112POPC   PO4 1827   9.445   9.639   8.496  0.0191 -0.0299 -0.0060
  112POPC   GL1 1828   9.543   9.541   8.022  0.0591  0.0834 -0.0796
  112POPC   GL2 1829   9.673   9.210   7.980  0.0439 -0.0584  0.0871
  112POPC   C1A 1830   9.574   9.580   7.619 -0.0260  0.2156  0.1602
  112POPC   D2A 1831   9.331   9.327   7.212  0.1402 -0.1092 -0.0481
  112POPC   C3A 1832   9.112   9.528   6.938  0.0670  0.0059 -0.1153
  112POPC   C4A 1833   8.758   9.833   6.802 -0.3821  0.0749  0.0913
  112POPC   C1B 1834   9.355   9.068   7.783  0.1549 -0.3230  0.3298
  112POPC   C2B 1835   9.229   8.570   7.764  0.0855 -0.1186 -0.0073
  112POPC   C3B 1836   8.990   8.114   7.719 -0.2534 -0.2296  0.0972
  112POPC   C4B 1837   8.882   7.814   7.388 -0.2267 -0.1068  0.2455
  113POPC   NC3 1838   3.461   6.927   8.320 -0.0145 -0.0772  0.2454
  113POPC   PO4 1839   3.490   7.262   8.610 -0.1242 -0.2203 -0.0372
  113POPC   GL1 1840   3.526   7.402   8.254 -0.1857  0.1252  0.3433
  113POPC   GL2 1841   3.834   7.625   8.117 -0.0939  0.1432  0.4138
  113POPC   C1A 1842   3.587   7.334   7.748 -0.1514  0.0715  0.1141
  113POPC   D2A 1843   3.676   7.161   7.338 -0.1801  0.4036 -0.3013
  113POPC   C3A 1844   3.600   7.422   7.016 -0.1296  0.0048 -0.0116
  113POPC   C4A 1845   3.825   7.782   6.887 -0.1326 -0.0831  0.2189
  113POPC   C1B 1846   4.348   7.445   7.992  0.2945  0.1355  0.1510
  113POPC   C2B 1847   4.630   7.180   7.702 -0.3085 -0.3723 -0.2193
  113POPC   C3B 1848   4.626   6.915   7.364 -0.1809  0.2574  0.0433
  113POPC   C4B 1849   4.660   7.132   7.063 -0.0106  0.3425 -0.0854
  114POPC   NC3 1850   2.210   6.289   8.485  0.0627 -0.0095 -0.2445
  114POPC   PO4 1851   2.255   6.799   8.454  0.0346 -0.0151  0.0264
  114POPC   GL1 1852   2.450   6.632   8.073 -0.2766 -0.2610 -0.0260
  114POPC   GL2 1853   2.472   6.901   7.824 -0.1436  0.1276  0.0164
  114POPC   C1A 1854   2.246   6.438   7.763  0.1325 -0.1194  0.0484
  114POPC   D2A 1855   1.889   6.487   7.585  0.0877 -0.2092  0.1964
  114POPC   C3A 1856   1.556   6.017   7.594  0.0869 -0.0940  0.1839
  114POPC   C4A 1857   1.575   5.535   7.593 -0.0316 -0.1007 -0.2112
  114POPC   C1B 1858   2.166   6.952   7.413 -0.0040  0.1467  0.0694
  114POPC   C2B 1859   2.053   7.278   7.081  0.1636  0.1309 -0.0225
  114POPC   C3B 1860   1.713   7.403   6.692  0.0143 -0.0794  0.0545
  114POPC   C4B 1861   1.521   7.490   6.408 -0.1663 -0.3243  0.0424
  115POPC   NC3 1862   3.639   5.373   8.424  0.3147 -0.0622  0.1565
  115POPC   PO4 1863   3.361   5.805   8.451 -0.1749 -0.0414 -0.0678
  115POPC   GL1 1864   3.562   5.990   8.143  0.0889  0.1114  0.1766
  115POPC   GL2 1865   3.623   5.698   8.042 -0.2895 -0.2305  0.2747
  115POPC   C1A 1866   3.702   6.259   7.879 -0.0210  0.1377  0.1455
  115POPC   D2A 1867   3.680   6.492   7.436  0.1748  0.0980 -0.2177
  115POPC   C3A 1868   3.858   6.218   7.101 -0.0186 -0.0861  0.0117
  115POPC   C4A 1869   4.012   5.837   6.851 -0.2185  0.1323  0.2659
  115POPC   C1B 1870   3.651   5.489   7.732  0.0650 -0.1344  0.2151
  115POPC   C2B 1871   3.728   5.465   7.409 -0.1568 -0.0312 -0.2858
  115POPC   C3B 1872   3.933   5.228   7.136  0.0348 -0.2474 -0.0840
  115POPC   C4B 1873   4.101   4.858   6.840 -0.2688  0.0552 -0.1662
  116POPC   NC3 1874   1.268   9.418   8.323 -0.0824 -0.1020 -0.1381
  116POPC   PO4 1875   1.502   9.034   8.460  0.2774 -0.1210 -0.0049
  116POPC   GL1 1876   1.373   9.014   8.053 -0.0850  0.1562 -0.3226
  116POPC   GL2 1877   1.045   8.956   8.164 -0.0772  0.3273 -0.1558
  116POPC   C1A 1878   1.421   8.753   7.710 -0.2332 -0.1833 -0.3825
  116POPC   D2A 1879   1.814   8.590   7.429  0.1111 -0.0166 -0.0268
  116POPC   C3A 1880   2.133   8.888   7.539 -0.0886 -0.0059  0.0361
  116POPC   C4A 1881   2.497   9.232   7.352  0.2723 -0.1244 -0.0992
  116POPC   C1B 1882   0.655   9.048   7.913 -0.0004  0.2456 -0.3241
  116POPC   C2B 1883   0.402   9.416   7.855  0.0609 -0.2491 -0.1636
  116POPC   C3B 1884   0.192   9.666   7.537  0.0993 -0.1580 -0.0330
  116POPC   C4B 1885   0.311   9.811   7.111 -0.0763  0.0290  0.1513
  117POPC   NC3 1886   2.262   3.734   9.007 -0.2029  0.2336 -0.3800
  117POPC   PO4 1887   1.920   4.058   8.955  0.1505 -0.0505 -0.4402
  117POPC   GL1 1888   1.883   4.041   8.515 -0.0784  0.0398 -0.2193
  117POPC   GL2 1889   2.024   3.823   8.449 -0.0957 -0.0036  0.0331
  117POPC   C1A 1890   1.896   4.167   8.062  0.3256 -0.0361 -0.1705
  117POPC   D2A 1891   1.669   4.292   7.718 -0.1887  0.0885  0.0092
  117POPC   C3A 1892   1.829   4.309   7.272  0.0891 -0.0946 -0.1690
  117POPC   C4A 1893   1.674   4.107   6.960 -0.2039 -0.3274 -0.3094
  117POPC   C1B 1894   2.162   3.519   8.088 -0.2089  0.2609 -0.2222
  117POPC   C2B 1895   2.370   3.197   7.717 -0.1520 -0.2638 -0.0179
  117POPC   C3B 1896   2.432   3.068   7.209  0.4997  0.0413  0.0629
  117POPC   C4B 1897   2.223   3.246   6.874 -0.2087 -0.0104 -0.4141
  118POPC   NC3 1898   9.593   0.279   8.832  0.3161  0.1355  0.2351
  118POPC   PO4 1899   9.674  -0.101   8.713  0.2214  0.1631  0.0298
  118POPC   GL1 1900   9.469  -0.222   8.361 -0.0984  0.1494  0.1371
  118POPC   GL2 1901   9.124  -0.250   8.206  0.0177  0.0993  0.2016
  118POPC   C1A 1902   9.531  -0.032   7.950 -0.1903 -0.0580  0.1510
  118POPC   D2A 1903   9.584   0.122   7.613  0.1461 -0.0672  0.0919
  118POPC   C3A 1904   9.275   0.119   7.298 -0.0713  0.2763 -0.0803
  118POPC   C4A 1905   9.099   0.317   6.911 -0.0516  0.0622  0.2531
  118POPC   C1B 1906   9.273  -0.480   7.873 -0.0105  0.0532  0.3730
  118POPC   C2B 1907   9.156  -0.691   7.449 -0.1332  0.2701 -0.1694
  118POPC   C3B 1908   9.122  -0.497   7.115  0.0033  0.1292 -0.1134
  118POPC   C4B 1909   8.901  -0.155   6.773 -0.0614 -0.1273  0.0725
  119POPC   NC3 1910   4.371   6.048   8.831  0.3076 -0.4347  0.1883
  119POPC   PO4 1911   4.585   5.672   8.784 -0.4753 -0.1970  0.1417
  119POPC   GL1 1912   4.871   5.577   8.353 -0.4497  0.2040 -0.1196
  119POPC   GL2 1913   5.085   5.212   8.296 -0.0799  0.1938 -0.4304
  119POPC   C1A 1914   5.152   5.739   7.974  0.4060 -0.2064  0.1654
  119POPC   D2A 1915   5.455   6.095   7.970 -0.1009 -0.2080 -0.1500
  119POPC   C3A 1916   5.348   6.565   7.844 -0.1940  0.2843 -0.0308
  119POPC   C4A 1917   4.976   6.738   7.702 -0.0852  0.1253 -0.0315
  119POPC   C1B 1918   5.037   5.246   7.901  0.1972 -0.2812 -0.0197
  119POPC   C2B 1919   5.093   5.156   7.472 -0.0623  0.0690  0.0799
  119POPC   C3B 1920   5.200   5.111   7.000 -0.2189  0.2309  0.0211
  119POPC   C4B 1921   5.496   5.041   6.622 -0.0115 -0.1810 -0.1968
  120POPC   NC3 1922   7.194   2.090  10.261  0.1161 -0.0282  0.0860
  120POPC   PO4 1923   6.854   2.220  10.042 -0.0630  0.2959 -0.0446
  120POPC   GL1 1924   6.776   2.290   9.658  0.2698  0.2718  0.2080
  120POPC   GL2 1925   7.025   2.332   9.386  0.2468 -0.1566  0.1570
  120POPC   C1A 1926   6.455   2.358   9.384 -0.3310 -0.0271  0.0174
  120POPC   D2A 1927   6.294   2.494   8.991  0.0220 -0.0494 -0.2284
  120POPC   C3A 1928   6.441   2.658   8.613 -0.2808 -0.1682  0.1558
  120POPC   C4A 1929   6.814   2.674   8.301  0.1366  0.1416 -0.0665
  120POPC   C1B 1930   7.142   2.732   9.211 -0.3249 -0.0658  0.1552
  120POPC   C2B 1931   7.109   3.138   9.020 -0.0574 -0.0485  0.0240
  120POPC   C3B 1932   6.979   3.159   8.692 -0.0243  0.1327  0.0802
  120POPC   C4B 1933   6.928   3.136   8.133 -0.0085 -0.0511  0.3851
  121POPC   NC3 1934   9.667   7.595   8.770 -0.2257 -0.2581  0.0929
  121POPC   PO4 1935   9.945   7.256   8.734  0.3956 -0.1498  0.1427
  121POPC   GL1 1936   9.978   7.360   8.331  0.0350  0.0619  0.0723
  121POPC   GL2 1937  10.250   7.456   8.105 -0.0614  0.1924 -0.0646
  121POPC   C1A 1938   9.866   7.485   7.853 -0.0043  0.0106 -0.0060
  121POPC   D2A 1939   9.860   7.647   7.357 -0.0982  0.2548 -0.3358
  121POPC   C3A 1940   9.696   7.368   7.011 -0.1705 -0.2009 -0.0778
  121POPC   C4A 1941   9.510   7.452   6.669 -0.1503 -0.0216  0.0091
  121POPC   C1B 1942  10.175   7.053   7.812  0.1212 -0.2634 -0.2801
  121POPC   C2B 1943  10.416   6.667   7.929  0.1613 -0.2006 -0.0237
  121POPC   C3B 1944  10.568   6.285   8.061  0.0345 -0.2180  0.1409
  121POPC   C4B 1945  10.466   5.858   8.040 -0.1971  0.1783 -0.2012
  122POPC   NC3 1946   8.381   6.421   8.685 -0.0210 -0.1115 -0.1349
  122POPC   PO4 1947   8.736   6.406   8.933  0.3291  0.3079  0.0937
  122POPC   GL1 1948   8.830   6.478   8.525 -0.4153 -0.1683 -0.1120
  122POPC   GL2 1949   8.611   6.685   8.266 -0.0115 -0.3108  0.0481
  122POPC   C1A 1950   9.210   6.580   8.235 -0.1387 -0.0871  0.2428
  122POPC   D2A 1951   9.312   6.365   7.962 -0.0004  0.0879 -0.2921
  122POPC   C3A 1952   9.211   6.420   7.623 -0.1390 -0.0133 -0.0149
  122POPC   C4A 1953   9.007   6.461   7.278  0.1453  0.1339  0.4269
  122POPC   C1B 1954   8.428   6.730   7.867 -0.0703  0.2446 -0.1402
  122POPC   C2B 1955   8.621   6.788   7.389  0.1163  0.1245 -0.2528
  122POPC   C3B 1956   8.909   6.861   7.024 -0.0495  0.0921 -0.4504
  122POPC   C4B 1957   9.136   7.119   6.690  0.0718 -0.2759 -0.1057
  123POPC   NC3 1958   7.272   0.119   9.359  0.0719  0.0702 -0.0690
  123POPC   PO4 1959   7.355  -0.212   9.002 -0.0859  0.1179  0.1460
  123POPC   GL1 1960   7.220   0.006   8.628 -0.0026  0.0269 -0.0072
  123POPC   GL2 1961   7.155  -0.216   8.417 -0.0482 -0.0567  0.0816
  123POPC   C1A 1962   6.842   0.292   8.547 -0.2753  0.0412  0.0545
  123POPC   D2A 1963   6.644   0.344   8.188  0.0607  0.0505  0.1774
  123POPC   C3A 1964   6.238   0.305   8.066 -0.1242  0.0049 -0.0313
  123POPC   C4A 1965   6.041   0.600   7.733  0.1076  0.0509 -0.3224
  123POPC   C1B 1966   7.180   0.004   7.892 -0.2486  0.1446 -0.0277
  123POPC   C2B 1967   7.374   0.314   7.639 -0.0418  0.2852  0.3549
  123POPC   C3B 1968   7.344   0.597   7.213  0.1858  0.1279  0.1296
  123POPC   C4B 1969   7.153   0.739   6.805  0.0740 -0.0009 -0.1457
  124POPC   NC3 1970   0.680   0.412   8.787 -0.2728  0.1965 -0.1545
  124POPC   PO4 1971   0.689   0.152   8.369  0.0123 -0.2956  0.1027
  124POPC   GL1 1972   0.581   0.520   8.010  0.0237 -0.1027 -0.1577
  124POPC   GL2 1973   0.567   0.840   7.906 -0.0006 -0.2159 -0.0329
  124POPC   C1A 1974   0.542   0.436   7.584  0.1756  0.0465 -0.2068
  124POPC   D2A 1975   0.401   0.288   7.260  0.3664  0.2161  0.1359
  124POPC   C3A 1976   0.272   0.496   6.879  0.1473 -0.2071 -0.0601
  124POPC   C4A 1977   0.039   0.466   6.498  0.1560 -0.0209 -0.1882
  124POPC   C1B 1978   0.250   0.865   7.704 -0.0312  0.0999  0.0141
  124POPC   C2B 1979   0.050   0.671   7.436  0.0329  0.0426 -0.0562
  124POPC   C3B 1980  -0.194   0.655   7.083 -0.0889 -0.3795 -0.0975
  124POPC   C4B 1981  -0.057   0.903   6.737  0.0121  0.1078 -0.0039
  125POPC   NC3 1982   9.047   4.384   8.886  0.4208 -0.2081  0.1752
  125POPC   PO4 1983   9.039   3.926   9.022 -0.0766 -0.3601 -0.1962
  125POPC   GL1 1984   8.739   3.703   8.688  0.0973 -0.3386 -0.2406
  125POPC   GL2 1985   8.465   3.833   8.751  0.0978 -0.0955  0.1359
  125POPC   C1A 1986   8.478   3.364   8.671  0.6148  0.0258 -0.0175
  125POPC   D2A 1987   8.081   3.117   8.432 -0.0079  0.1612 -0.0085
  125POPC   C3A 1988   8.138   3.035   8.029  0.2360 -0.0341  0.1771
  125POPC   C4A 1989   8.463   2.931   7.691  0.0446  0.1133 -0.0066
  125POPC   C1B 1990   8.431   3.989   8.390  0.3011  0.0066  0.2125
  125POPC   C2B 1991   8.242   3.848   8.014  0.1887 -0.3267 -0.1016
  125POPC   C3B 1992   8.016   3.819   7.679 -0.3659  0.0148  0.2051
  125POPC   C4B 1993   7.860   4.143   7.365 -0.1551 -0.1912  0.2091
  126POPC   NC3 1994   6.310   5.212   9.241 -0.0610  0.2051 -0.2470
  126POPC   PO4 1995   6.714   5.184   9.434  0.1033  0.0834 -0.1221
  126POPC   GL1 1996   6.554   4.838   9.057 -0.0548 -0.0288  0.1487
  126POPC   GL2 1997   6.284   4.610   9.053  0.0248  0.0013  0.4778
  126POPC   C1A 1998   6.649   4.534   8.632  0.0544  0.1862  0.1145
  126POPC   D2A 1999   6.849   4.381   8.177 -0.1128 -0.0617  0.3092
  126POPC   C3A 2000   7.090   4.538   7.963  0.2197  0.0606  0.0620
  126POPC   C4A 2001   7.116   4.745   7.611  0.0293  0.1010  0.1361
  126POPC   C1B 2002   6.186   4.181   9.128  0.3961  0.1076  0.3587
  126POPC   C2B 2003   6.054   3.958   8.781 -0.0687 -0.0645  0.3737
  126POPC   C3B 2004   5.853   3.637   8.608 -0.3532  0.4295 -0.0476
  126POPC   C4B 2005   5.371   3.466   8.683 -0.0799 -0.0138 -0.2560
  127POPC   NC3 2006   1.806   6.868   8.968  0.1237  0.3994 -0.1431
  127POPC   PO4 2007   1.866   6.523   8.690 -0.0633 -0.0055  0.0805
  127POPC   GL1 2008   1.697   6.532   8.233  0.0089 -0.0249  0.0224
  127POPC   GL2 2009   1.805   6.303   8.061 -0.0021  0.1060  0.0042
  127POPC   C1A 2010   1.935   6.841   7.900  0.3126  0.4276 -0.0696
  127POPC   D2A 2011   1.697   7.170   7.721 -0.0951  0.0346  0.1904
  127POPC   C3A 2012   1.737   7.389   7.434 -0.0161 -0.1992  0.1428
  127POPC   C4A 2013   1.843   7.720   7.106  0.0346 -0.1997  0.0845
  127POPC   C1B 2014   2.043   5.985   7.802  0.3012  0.1923  0.0074
  127POPC   C2B 2015   2.418   5.951   7.594 -0.1866  0.0234 -0.3620
  127POPC   C3B 2016   2.275   5.497   7.479  0.2143 -0.1254 -0.0328
  127POPC   C4B 2017   2.035   5.210   7.294 -0.0370 -0.2160  0.2077
  128POPC   NC3 2018   7.428   4.254   9.673 -0.1690  0.3324  0.1685
  128POPC   PO4 2019   7.774   3.908   9.543  0.0843  0.3340 -0.2047
  128POPC   GL1 2020   7.709   3.921   9.183 -0.2002 -0.0924  0.2476
  128POPC   GL2 2021   8.068   4.035   9.067  0.2147  0.2250 -0.1238
  128POPC   C1A 2022   7.569   3.782   8.754 -0.4059  0.3834  0.1253
  128POPC   D2A 2023   7.327   3.519   8.363 -0.0577  0.1352 -0.1209
  128POPC   C3A 2024   6.831   3.585   8.463  0.0553  0.2025  0.1367
  128POPC   C4A 2025   6.549   3.110   8.464 -0.0954  0.1488 -0.1333
  128POPC   C1B 2026   7.961   4.061   8.616  0.1511  0.2713 -0.2862
  128POPC   C2B 2027   7.644   4.271   8.447 -0.1954 -0.1172  0.0152
  128POPC   C3B 2028   7.530   4.694   8.204  0.0778  0.0458 -0.1200
  128POPC   C4B 2029   7.862   4.961   8.161 -0.2094  0.0219  0.4723
  129POPC   NC3 2030   1.920   2.507   8.747  0.1423 -0.0336  0.2782
  129POPC   PO4 2031   2.037   2.866   8.841 -0.0331 -0.0172 -0.2786
  129POPC   GL1 2032   2.283   2.688   8.424  0.0522  0.2931  0.2036
  129POPC   GL2 2033   2.241   2.322   8.352  0.1847  0.2970  0.1126
  129POPC   C1A 2034   2.424   2.705   8.013  0.0985 -0.2193  0.0957
  129POPC   D2A 2035   2.575   2.680   7.552  0.0779 -0.1421  0.0233
  129POPC   C3A 2036   2.963   2.850   7.395  0.0866  0.3899  0.0471
  129POPC   C4A 2037   2.982   3.096   7.001 -0.0142 -0.0144  0.1537
  129POPC   C1B 2038   2.401   1.947   8.067 -0.0088 -0.2729 -0.1839
  129POPC   C2B 2039   2.701   1.790   7.695  0.0362  0.0836  0.3779
  129POPC   C3B 2040   2.829   1.758   7.236 -0.0000  0.0238 -0.0482
  129POPC   C4B 2041   3.125   1.817   6.934 -0.1398 -0.0477 -0.0977
  130POPC   NC3 2042   8.880   7.657   8.938  0.2654  0.4226  0.0873
  130POPC   PO4 2043   9.189   7.841   8.965 -0.3596  0.1289 -0.0655
  130POPC   GL1 2044   9.147   7.651   8.500 -0.0293 -0.2472  0.1321
  130POPC   GL2 2045   9.369   7.505   8.396 -0.2559  0.0398 -0.1659
  130POPC   C1A 2046   9.042   7.200   8.210  0.0014 -0.3105  0.1446
  130POPC   D2A 2047   9.134   6.967   7.889 -0.1049  0.0592 -0.2465
  130POPC   C3A 2048   9.245   6.888   7.437 -0.0448 -0.1336 -0.0610
  130POPC   C4A 2049   9.406   6.869   7.064 -0.0244  0.3747  0.0895
  130POPC   C1B 2050   9.575   7.174   8.193  0.2081  0.1691  0.3284
  130POPC   C2B 2051   9.675   6.971   7.982 -0.1228 -0.0781  0.1263
  130POPC   C3B 2052   9.706   6.656   7.788  0.1047  0.0568 -0.1384
  130POPC   C4B 2053   9.643   6.474   7.427  0.3256  0.2758 -0.1547
  131POPC   NC3 2054  10.271   8.448   8.704 -0.3637 -0.1009  0.1623
  131POPC   PO4 2055  10.682   8.373   8.507 -0.1000 -0.2590 -0.0139
  131POPC   GL1 2056  10.779   8.227   8.051 -0.1010 -0.3737 -0.2849
  131POPC   GL2 2057  11.086   8.105   8.027  0.1820 -0.1426  0.0297
  131POPC   C1A 2058  10.693   8.125   7.596  0.1719 -0.1634 -0.0733
  131POPC   D2A 2059  10.543   8.281   7.236  0.3965 -0.1809 -0.1667
  131POPC   C3A 2060  10.533   8.343   6.817 -0.0981 -0.0401 -0.0369
  131POPC   C4A 2061  10.373   8.115   6.546 -0.2928  0.0342 -0.0785
  131POPC   C1B 2062  11.253   8.002   7.665  0.2001 -0.3447  0.0237
  131POPC   C2B 2063  11.116   8.209   7.306  0.0961  0.0369 -0.0152
  131POPC   C3B 2064  11.006   8.409   6.927 -0.3416  0.2463 -0.1476
  131POPC   C4B 2065  10.936   8.726   6.632  0.1625  0.1122 -0.0822
  132POPC   NC3 2066   9.978   4.127   9.124 -0.2236  0.0329  0.2057
  132POPC   PO4 2067   9.490   4.177   9.122 -0.0555 -0.0688  0.1361
  132POPC   GL1 2068   9.376   4.100   8.653  0.3186  0.2078 -0.1968
  132POPC   GL2 2069   9.524   3.842   8.484  0.1718 -0.3621 -0.3766
  132POPC   C1A 2070   9.068   4.060   8.333 -0.0543 -0.0983  0.2054
  132POPC   D2A 2071   8.834   3.834   7.964 -0.0592  0.0175 -0.0499
  132POPC   C3A 2072   8.857   3.459   7.665  0.2168 -0.1185 -0.0417
  132POPC   C4A 2073   8.951   2.997   7.542  0.0930  0.2878  0.1899
  132POPC   C1B 2074   9.770   3.884   8.112  0.1922 -0.1757  0.2470
  132POPC   C2B 2075   9.786   4.011   7.662 -0.2204  0.1442 -0.3522
  132POPC   C3B 2076   9.723   3.993   7.218 -0.0248 -0.2583 -0.0127
  132POPC   C4B 2077   9.398   3.718   6.975 -0.3066  0.1115 -0.0622
  133POPC   NC3 2078   7.074   8.324   8.208 -0.3110 -0.2539 -0.2233
  133POPC   PO4 2079   6.818   8.077   8.416  0.1652  0.1081 -0.0330
  133POPC   GL1 2080   6.691   7.906   8.012  0.0667 -0.0438  0.0371
  133POPC   GL2 2081   6.796   7.579   7.990  0.0122  0.1877 -0.1342
  133POPC   C1A 2082   6.750   7.937   7.614 -0.2361 -0.2975 -0.0886
  133POPC   D2A 2083   6.566   7.893   7.215  0.1241  0.2821  0.0181
  133POPC   C3A 2084   6.145   7.676   7.155 -0.3980  0.2513  0.2108
  133POPC   C4A 2085   5.933   7.732   7.543  0.1588 -0.2019 -0.2149
  133POPC   C1B 2086   6.763   7.443   7.534  0.2178  0.2380 -0.0983
  133POPC   C2B 2087   6.500   7.278   7.169 -0.0302 -0.0688 -0.1040
  133POPC   C3B 2088   6.716   7.008   6.810  0.2995  0.2870  0.1073
  133POPC   C4B 2089   6.976   6.991   6.439  0.1064  0.0274  0.0571
  134POPC   NC3 2090   0.214   4.878   8.886 -0.0886  0.0084  0.3412
  134POPC   PO4 2091  -0.130   4.949   8.628  0.0949 -0.0184 -0.3674
  134POPC   GL1 2092   0.206   5.031   8.384  0.1506  0.2245 -0.0612
  134POPC   GL2 2093   0.589   5.075   8.409  0.1587 -0.0520 -0.3494
  134POPC   C1A 2094   0.300   4.997   7.970  0.1107  0.1925 -0.3791
  134POPC   D2A 2095   0.620   4.720   7.753 -0.1521 -0.1652  0.0020
  134POPC   C3A 2096   0.749   4.266   7.990  0.1263 -0.0785  0.1930
  134POPC   C4A 2097   1.079   3.995   8.034 -0.0380 -0.0281 -0.0854
  134POPC   C1B 2098   0.720   5.217   7.969 -0.0550 -0.3283 -0.0427
  134POPC   C2B 2099   0.612   5.326   7.518 -0.1642  0.1120 -0.1881
  134POPC   C3B 2100   0.634   4.919   7.296  0.4715 -0.0763 -0.0338
  134POPC   C4B 2101   0.902   4.630   7.134  0.2863  0.3434  0.1579
  135POPC   NC3 2102   9.418   1.660   9.936  0.1975 -0.0479  0.4424
  135POPC   PO4 2103   9.263   1.752   9.467  0.1966 -0.0962  0.2722
  135POPC   GL1 2104   8.801   1.897   9.381 -0.3817 -0.0266  0.0726
  135POPC   GL2 2105   8.553   1.564   9.304  0.1585  0.0357  0.0152
  135POPC   C1A 2106   8.728   1.906   8.995 -0.3354  0.1238  0.1082
  135POPC   D2A 2107   8.483   2.291   8.838  0.2866  0.0609  0.1325
  135POPC   C3A 2108   8.391   2.265   8.427 -0.0075  0.2553  0.1244
  135POPC   C4A 2109   8.376   2.636   8.182 -0.2400  0.0297  0.4314
  135POPC   C1B 2110   8.535   1.485   8.854  0.0169  0.1140 -0.2062
  135POPC   C2B 2111   8.527   1.326   8.420 -0.0332 -0.0301  0.0029
  135POPC   C3B 2112   8.614   1.333   7.998 -0.1503  0.3222  0.2138
  135POPC   C4B 2113   8.893   1.485   7.704  0.0860 -0.0262 -0.0868
  136POPC   NC3 2114   6.531   8.414   8.835  0.0576  0.1550 -0.0889
  136POPC   PO4 2115   6.642   8.622   8.340  0.1976  0.0011 -0.1307
  136POPC   GL1 2116   6.387   8.384   7.982  0.2305 -0.2926 -0.0762
  136POPC   GL2 2117   6.389   8.738   7.835 -0.1428  0.0781  0.0345
  136POPC   C1A 2118   6.340   8.174   7.589 -0.3040 -0.1361 -0.0531
  136POPC   D2A 2119   5.871   8.167   7.279 -0.1442  0.0222 -0.1238
  136POPC   C3A 2120   6.008   8.175   6.794  0.1374  0.0103  0.0601
  136POPC   C4A 2121   6.297   8.059   6.583  0.0315  0.1009 -0.2974
  136POPC   C1B 2122   6.781   8.598   7.667  0.0176 -0.1454  0.2142
  136POPC   C2B 2123   7.151   8.733   7.495  0.0104 -0.1717 -0.1448
  136POPC   C3B 2124   7.155   9.189   7.323  0.1568 -0.0241 -0.0065
  136POPC   C4B 2125   6.849   9.508   7.261 -0.0298 -0.2481 -0.1310
  137POPC   NC3 2126   2.323   1.258   9.395 -0.0923 -0.3279  0.2330
  137POPC   PO4 2127   2.443   0.826   9.134  0.3993 -0.3563 -0.2119
  137POPC   GL1 2128   2.270   1.008   8.676  0.1027 -0.0697  0.1064
  137POPC   GL2 2129   1.949   0.909   8.438 -0.7467  0.0904  0.4033
  137POPC   C1A 2130   2.284   1.293   8.281  0.5291 -0.1630  0.1122
  137POPC   D2A 2131   2.339   1.504   7.944  0.1012 -0.0752  0.0811
  137POPC   C3A 2132   2.612   1.329   7.683 -0.1690  0.0911  0.1169
  137POPC   C4A 2133   2.869   1.263   7.323  0.3237  0.1372 -0.0761
  137POPC   C1B 2134   1.942   0.957   8.020 -0.1139 -0.0785  0.0278
  137POPC   C2B 2135   2.136   1.010   7.706  0.1491 -0.0487  0.0644
  137POPC   C3B 2136   2.396   0.790   7.435 -0.0198 -0.1760 -0.0736
  137POPC   C4B 2137   2.512   0.550   7.044  0.0299 -0.1157 -0.0912
  138POPC   NC3 2138   3.424   9.343   9.022  0.3156 -0.0387  0.2833
  138POPC   PO4 2139   3.440   9.215   8.622 -0.0221  0.2554  0.3551
  138POPC   GL1 2140   3.550   9.384   8.165 -0.0452 -0.2917 -0.4770
  138POPC   GL2 2141   3.528   9.623   8.245 -0.0996 -0.1546  0.2493
  138POPC   C1A 2142   3.413   9.397   7.706 -0.0398  0.0631  0.0565
  138POPC   D2A 2143   3.529   9.194   7.220 -0.2843 -0.2367  0.0022
  138POPC   C3A 2144   3.226   8.999   7.052 -0.1001 -0.0851 -0.1644
  138POPC   C4A 2145   2.867   8.835   6.941 -0.0499 -0.0092 -0.0520
  138POPC   C1B 2146   3.756   9.866   7.958  0.1940  0.1311  0.0184
  138POPC   C2B 2147   3.804  10.225   7.791  0.0018 -0.1327 -0.0256
  138POPC   C3B 2148   3.849  10.483   7.356  0.2958  0.0257 -0.2109
  138POPC   C4B 2149   4.066  10.782   6.987  0.1511 -0.1448  0.0633
  139POPC   NC3 2150   2.951   6.110   8.470  0.1988 -0.0042 -0.1133
  139POPC   PO4 2151   3.318   6.389   8.520  0.2288  0.0802 -0.1599
  139POPC   GL1 2152   3.360   6.444   8.062  0.1535  0.1041 -0.2419
  139POPC   GL2 2153   2.993   6.412   8.018 -0.2949  0.1260  0.1778
  139POPC   C1A 2154   3.279   6.291   7.692 -0.2914  0.2358  0.1285
  139POPC   D2A 2155   3.270   6.211   7.276  0.0636  0.0074 -0.0880
  139POPC   C3A 2156   3.486   6.550   6.972  0.2697  0.6031  0.3313
  139POPC   C4A 2157   3.767   6.806   7.042 -0.0539 -0.0770 -0.0337
  139POPC   C1B 2158   2.815   6.399   7.590 -0.0245 -0.1272 -0.0265
  139POPC   C2B 2159   2.484   6.359   7.373  0.3133  0.0250 -0.2257
  139POPC   C3B 2160   2.183   6.110   7.200 -0.0977  0.0933 -0.1180
  139POPC   C4B 2161   1.898   5.688   7.113 -0.2116 -0.1676 -0.0800
  140POPC   NC3 2162   7.492   5.601   9.604  0.0664 -0.2719 -0.1821
  140POPC   PO4 2163   7.493   5.884   9.205  0.0355 -0.2240  0.0462
  140POPC   GL1 2164   7.487   5.630   8.743  0.2541 -0.1341  0.0794
  140POPC   GL2 2165   7.208   5.492   8.791 -0.2503 -0.1721  0.1302
  140POPC   C1A 2166   7.534   5.561   8.298  0.0326  0.0315 -0.0286
  140POPC   D2A 2167   7.574   5.460   7.912 -0.0774  0.0297 -0.1393
  140POPC   C3A 2168   7.729   5.059   7.666  0.3172  0.0832 -0.0096
  140POPC   C4A 2169   7.584   4.552   7.610 -0.0630 -0.1728 -0.1038
  140POPC   C1B 2170   6.864   5.424   8.326  0.0817 -0.0955  0.1981
  140POPC   C2B 2171   6.552   5.546   7.940 -0.0055 -0.2258 -0.0913
  140POPC   C3B 2172   6.267   5.442   7.524 -0.1054 -0.1337  0.2045
  140POPC   C4B 2173   6.273   5.645   7.110 -0.0973 -0.0535 -0.1018
  141POPC   NC3 2174   4.141   8.583   8.875 -0.2105 -0.0616 -0.2252
  141POPC   PO4 2175   4.487   8.684   8.537 -0.1712  0.1143 -0.3754
  141POPC   GL1 2176   4.264   8.890   8.216 -0.1407 -0.2227 -0.1443
  141POPC   GL2 2177   3.963   9.080   8.173  0.1849 -0.1844 -0.1340
  141POPC   C1A 2178   4.272   9.151   7.827 -0.1237 -0.0201 -0.1643
  141POPC   D2A 2179   4.492   9.580   7.690 -0.2954 -0.1419  0.2466
  141POPC   C3A 2180   4.527   9.507   7.263 -0.2122  0.0138 -0.0745
  141POPC   C4A 2181   4.490   9.257   6.907 -0.3176 -0.1772 -0.0472
  141POPC   C1B 2182   3.669   9.007   7.839  0.1186  0.1502  0.1465
  141POPC   C2B 2183   3.493   8.783   7.399 -0.1119  0.0007  0.2099
  141POPC   C3B 2184   3.341   8.463   7.114 -0.2180  0.2424 -0.0147
  141POPC   C4B 2185   3.277   8.084   7.015 -0.2287  0.1975  0.2461
  142POPC   NC3 2186   8.531   6.906   8.715 -0.1111  0.0078 -0.0895
  142POPC   PO4 2187   8.171   7.028   8.594 -0.0943  0.0979 -0.0346
  142POPC   GL1 2188   8.087   6.789   8.204 -0.1249  0.1142  0.1540
  142POPC   GL2 2189   7.977   6.451   8.292 -0.3576  0.0241  0.0239
  142POPC   C1A 2190   7.990   6.632   7.730 -0.1434  0.1683 -0.0614
  142POPC   D2A 2191   8.088   6.530   7.278 -0.3361  0.0484  0.1692
  142POPC   C3A 2192   7.965   6.132   7.148  0.2006 -0.4387  0.0980
  142POPC   C4A 2193   8.081   5.794   6.980  0.2229 -0.2387 -0.2839
  142POPC   C1B 2194   8.226   6.266   8.034  0.0726  0.1142  0.0350
  142POPC   C2B 2195   8.388   6.242   7.635  0.0168 -0.4579 -0.3684
  142POPC   C3B 2196   8.513   6.364   7.189  0.5759  0.0323  0.0872
  142POPC   C4B 2197   8.384   6.814   6.971  0.0384 -0.0472 -0.0981
  143POPC   NC3 2198   4.336   4.598   9.391 -0.4625 -0.1365  0.0416
  143POPC   PO4 2199   4.439   4.344   9.011  0.0792  0.0234  0.0497
  143POPC   GL1 2200   4.533   4.116   8.518 -0.1974  0.3469 -0.0850
  143POPC   GL2 2201   4.310   3.810   8.434 -0.0217  0.0102 -0.0326
  143POPC   C1A 2202   4.621   3.937   7.936  0.1543  0.1962 -0.1440
  143POPC   D2A 2203   4.957   3.709   7.632 -0.0254 -0.2452  0.0279
  143POPC   C3A 2204   5.479   3.640   7.717  0.3239  0.0816  0.2491
  143POPC   C4A 2205   5.824   3.486   7.459 -0.1369 -0.0040 -0.0331
  143POPC   C1B 2206   4.329   3.448   8.108  0.3705 -0.0770  0.2761
  143POPC   C2B 2207   4.586   3.126   7.928  0.0235  0.1152  0.1170
  143POPC   C3B 2208   4.883   3.232   7.567  0.0923  0.1574 -0.2214
  143POPC   C4B 2209   4.831   3.067   7.145  0.0365 -0.1054  0.0844
  144POPC   NC3 2210   7.857   8.244   8.571 -0.2130 -0.0660  0.1027
  144POPC   PO4 2211   7.789   7.960   8.195 -0.1207 -0.0081 -0.4323
  144POPC   GL1 2212   7.573   8.320   7.992 -0.1071  0.3995 -0.0655
  144POPC   GL2 2213   7.947   8.452   8.003  0.0915  0.0916 -0.4014
  144POPC   C1A 2214   7.565   8.754   7.716 -0.2974 -0.1092 -0.1115
  144POPC   D2A 2215   7.618   8.932   7.406  0.0435  0.0420 -0.1834
  144POPC   C3A 2216   7.336   8.763   7.009 -0.1734 -0.1482 -0.1838
  144POPC   C4A 2217   6.919   8.803   6.974  0.3592  0.2551  0.0620
  144POPC   C1B 2218   8.312   8.646   7.729 -0.1078 -0.1132 -0.0793
  144POPC   C2B 2219   8.581   8.917   7.480 -0.0695  0.0157  0.2878
  144POPC   C3B 2220   9.046   8.890   7.447 -0.3485  0.1602 -0.1986
  144POPC   C4B 2221   9.461   8.825   7.359 -0.0468  0.1255  0.1473
  145POPC   NC3 2222   3.452   8.397   8.410  0.0114 -0.1388  0.1429
  145POPC   PO4 2223   2.999   8.226   8.436  0.2965  0.0276  0.3433
  145POPC   GL1 2224   3.185   8.352   8.000  0.1363  0.2452  0.0015
  145POPC   GL2 2225   3.467   8.569   7.912  0.0656  0.2049  0.4078
  145POPC   C1A 2226   3.122   8.408   7.574 -0.0993 -0.0238 -0.1015
  145POPC   D2A 2227   2.980   8.005   7.444  0.1272  0.4720  0.1012
  145POPC   C3A 2228   2.902   7.787   7.093  0.2843  0.0415  0.1542
  145POPC   C4A 2229   3.024   7.581   6.751 -0.3832  0.1450 -0.0806
  145POPC   C1B 2230   3.177   8.932   7.785  0.1517  0.0452  0.1050
  145POPC   C2B 2231   3.020   9.158   7.451  0.0570 -0.0714  0.2055
  145POPC   C3B 2232   2.870   9.372   7.074  0.1822  0.2949  0.3362
  145POPC   C4B 2233   3.039   9.762   6.930  0.2506  0.1174  0.0892
  146POPC   NC3 2234   6.602   9.617   9.269 -0.1874 -0.0556 -0.0528
  146POPC   PO4 2235   6.452   9.833   8.860  0.0816  0.0302 -0.0385
  146POPC   GL1 2236   6.368   9.984   8.427  0.0207  0.1149  0.0580
  146POPC   GL2 2237   6.231   9.734   8.248  0.1067 -0.1642  0.0649
  146POPC   C1A 2238   6.277  10.248   8.064 -0.1957 -0.3014  0.4723
  146POPC   D2A 2239   6.191  10.522   7.620  0.1233  0.0466 -0.3938
  146POPC   C3A 2240   6.021  10.351   7.228  0.0390  0.0427  0.0476
  146POPC   C4A 2241   6.036  10.391   6.814  0.0087 -0.1878 -0.2466
  146POPC   C1B 2242   6.047   9.868   7.812 -0.0602 -0.1327  0.1923
  146POPC   C2B 2243   6.264  10.015   7.524 -0.0445  0.1078  0.0269
  146POPC   C3B 2244   6.476  10.282   7.239  0.1346  0.0885  0.1128
  146POPC   C4B 2245   6.473  10.673   7.160  0.2141 -0.0594  0.0585
  147POPC   NC3 2246   9.243   4.990   8.932  0.0918  0.3951 -0.2556
  147POPC   PO4 2247   8.983   4.870   8.746  0.3856 -0.1150 -0.1856
  147POPC   GL1 2248   8.802   4.945   8.357 -0.0723 -0.3792 -0.1552
  147POPC   GL2 2249   8.477   4.835   8.408 -0.0745 -0.4998 -0.0603
  147POPC   C1A 2250   8.783   4.925   7.917 -0.0093 -0.1055 -0.3219
  147POPC   D2A 2251   8.782   4.657   7.534 -0.1933  0.1373 -0.0569
  147POPC   C3A 2252   9.117   4.661   7.140 -0.1683 -0.3275  0.1281
  147POPC   C4A 2253   9.064   4.458   6.766  0.1916  0.1086  0.1445
  147POPC   C1B 2254   8.331   4.827   8.038  0.1010 -0.0748  0.2560
  147POPC   C2B 2255   8.257   4.917   7.566  0.2905  0.3225 -0.1634
  147POPC   C3B 2256   8.059   4.653   7.259  0.1557  0.1073  0.0160
  147POPC   C4B 2257   8.237   4.321   7.006  0.0896  0.0885  0.1540
  148POPC   NC3 2258   7.390   6.761   8.797  0.1021  0.1499 -0.2452
  148POPC   PO4 2259   7.466   6.497   8.452  0.0542 -0.0177 -0.0912
  148POPC   GL1 2260   7.512   6.435   8.077  0.2972 -0.0551  0.1203
  148POPC   GL2 2261   7.436   6.066   7.881  0.0144 -0.0406 -0.0600
  148POPC   C1A 2262   7.481   6.519   7.668 -0.0807 -0.1887  0.4115
  148POPC   D2A 2263   7.217   6.848   7.439  0.1677 -0.1340  0.0011
  148POPC   C3A 2264   7.208   7.262   7.266  0.0600  0.0077 -0.0247
  148POPC   C4A 2265   6.943   7.501   7.051  0.0359  0.0624 -0.0074
  148POPC   C1B 2266   7.293   6.035   7.494 -0.2562  0.3494 -0.1731
  148POPC   C2B 2267   7.126   5.910   7.042 -0.0650 -0.0294 -0.1439
  148POPC   C3B 2268   7.225   5.559   6.844  0.2202  0.0269  0.0394
  148POPC   C4B 2269   7.431   5.180   6.682 -0.2680  0.3424 -0.3112
  149POPC   NC3 2270   5.928   7.141   9.136  0.0151 -0.0829 -0.0817
  149POPC   PO4 2271   6.358   7.095   9.051  0.1882 -0.0799  0.0532
  149POPC   GL1 2272   6.520   6.820   8.582  0.5965  0.1111  0.0625
  149POPC   GL2 2273   6.328   6.564   8.525  0.0580  0.0588 -0.1444
  149POPC   C1A 2274   6.445   6.827   8.127 -0.0611 -0.2057  0.2237
  149POPC   D2A 2275   6.488   7.112   7.780 -0.1083 -0.1648 -0.1136
  149POPC   C3A 2276   6.352   7.581   7.777 -0.0963 -0.0504  0.0814
  149POPC   C4A 2277   6.097   7.973   8.060  0.4002  0.2282  0.2823
  149POPC   C1B 2278   6.066   6.433   8.138 -0.2727 -0.1260 -0.1134
  149POPC   C2B 2279   5.993   6.342   7.732 -0.1885  0.1235  0.2416
  149POPC   C3B 2280   5.741   6.041   7.518  0.0219  0.0272  0.1139
  149POPC   C4B 2281   5.831   5.560   7.375  0.0518  0.2185  0.0150
  150POPC   NC3 2282   5.143   9.071   8.570 -0.1630 -0.0248 -0.0762
  150POPC   PO4 2283   5.493   9.232   8.547 -0.1330  0.6579  0.1117
  150POPC   GL1 2284   5.459   8.922   8.205 -0.3283 -0.0112  0.0404
  150POPC   GL2 2285   5.802   8.863   8.109 -0.0666 -0.1953  0.0023
  150POPC   C1A 2286   5.522   8.985   7.687  0.0343  0.0618 -0.1812
  150POPC   D2A 2287   5.382   9.155   7.291 -0.2227  0.0538 -0.2736
  150POPC   C3A 2288   5.334   8.761   7.051 -0.0220  0.0023 -0.1187
  150POPC   C4A 2289   5.584   8.433   6.934 -0.0127 -0.1216  0.1632
  150POPC   C1B 2290   5.898   8.560   7.838 -0.1371 -0.2082  0.0146
  150POPC   C2B 2291   6.246   8.633   7.396 -0.2202  0.0837 -0.1164
  150POPC   C3B 2292   6.531   8.381   7.158  0.0498 -0.0844 -0.1761
  150POPC   C4B 2293   6.926   8.332   7.266 -0.0358  0.2427 -0.3107
  151POPC   NC3 2294   4.820   5.276   9.146  0.0422 -0.1550 -0.0868
  151POPC   PO4 2295   4.748   4.780   9.011 -0.0309  0.0450  0.4343
  151POPC   GL1 2296   4.843   4.608   8.540  0.0130 -0.0596  0.1379
  151POPC   GL2 2297   4.820   4.799   8.306  0.0005 -0.1203  0.2351
  151POPC   C1A 2298   4.865   4.329   8.182 -0.3333 -0.0691 -0.1505
  151POPC   D2A 2299   4.942   4.248   7.704 -0.2919  0.0187 -0.2285
  151POPC   C3A 2300   5.111   4.201   7.356 -0.0960  0.2732 -0.2444
  151POPC   C4A 2301   5.307   3.867   7.327 -0.0379 -0.3031  0.0919
  151POPC   C1B 2302   4.790   4.787   7.877  0.0097 -0.1501  0.1405
  151POPC   C2B 2303   4.763   4.684   7.428 -0.0834  0.0152 -0.0767
  151POPC   C3B 2304   4.999   4.693   7.047 -0.1964 -0.2700  0.1287
  151POPC   C4B 2305   5.335   4.352   6.923 -0.2656 -0.2297 -0.0472
  152POPC   NC3 2306   9.988   9.501   8.828  0.0288  0.2185  0.0040
  152POPC   PO4 2307  10.125   8.930   8.740 -0.0377 -0.0913 -0.2366
  152POPC   GL1 2308  10.132   8.757   8.283 -0.0471 -0.0470 -0.1211
  152POPC   GL2 2309  10.295   8.521   8.226 -0.1180  0.0234 -0.2575
  152POPC   C1A 2310  10.080   9.016   7.888  0.0947 -0.1088 -0.0450
  152POPC   D2A 2311   9.868   9.138   7.468 -0.1502 -0.2720 -0.1767
  152POPC   C3A 2312   9.895   9.250   7.064  0.0513 -0.0490  0.0663
  152POPC   C4A 2313  10.252   9.125   6.771 -0.0300 -0.0467 -0.0543
  152POPC   C1B 2314  10.069   8.371   7.823 -0.0939 -0.3300 -0.0419
  152POPC   C2B 2315  10.156   8.097   7.461 -0.2097 -0.0810  0.1908
  152POPC   C3B 2316  10.239   7.829   7.089  0.3766  0.1973 -0.0229
  152POPC   C4B 2317   9.979   7.631   6.731 -0.0091  0.0782 -0.3917
  153POPC   NC3 2318   3.573   7.877   8.553  0.2006  0.0230 -0.1622
  153POPC   PO4 2319   3.889   8.159   8.521  0.1425 -0.1967  0.1221
  153POPC   GL1 2320   4.067   8.286   8.101  0.1050 -0.3092 -0.1552
  153POPC   GL2 2321   4.368   8.379   8.180  0.2215  0.0738  0.2534
  153POPC   C1A 2322   3.990   8.607   7.925  0.0074  0.2332 -0.1460
  153POPC   D2A 2323   4.083   8.787   7.584 -0.4372 -0.1317  0.0024
  153POPC   C3A 2324   3.987   8.655   7.144 -0.0279  0.0247  0.1021
  153POPC   C4A 2325   3.865   8.326   6.895 -0.2578  0.4686 -0.2850
  153POPC   C1B 2326   4.520   8.157   7.792  0.0054  0.3241 -0.2160
  153POPC   C2B 2327   4.146   7.855   7.692 -0.0460  0.0125  0.2648
  153POPC   C3B 2328   3.906   7.665   7.487  0.2803  0.1292 -0.0290
  153POPC   C4B 2329   3.495   7.782   7.327 -0.0526  0.3359 -0.0319
  154POPC   NC3 2330   9.477   2.152   9.794 -0.0257  0.3004 -0.0143
  154POPC   PO4 2331   9.774   1.898   9.559 -0.1463 -0.2106  0.1731
  154POPC   GL1 2332   9.814   2.000   9.083  0.1085  0.0515  0.0515
  154POPC   GL2 2333   9.894   2.232   8.845 -0.1499  0.1979  0.0672
  154POPC   C1A 2334   9.746   1.785   8.705 -0.2072 -0.2039 -0.1028
  154POPC   D2A 2335   9.784   1.650   8.296  0.0312 -0.2896  0.0116
  154POPC   C3A 2336   9.855   2.035   8.111  0.1636 -0.2664 -0.0584
  154POPC   C4A 2337   9.833   2.449   8.151 -0.1041 -0.0746  0.1650
  154POPC   C1B 2338  10.159   2.156   8.480  0.0950 -0.3585  0.3205
  154POPC   C2B 2339  10.290   2.139   7.946  0.0910  0.3234  0.2356
  154POPC   C3B 2340  10.017   2.308   7.709  0.3310  0.0477 -0.4202
  154POPC   C4B 2341   9.878   2.645   7.471 -0.2349 -0.1301 -0.2099
  155POPC   NC3 2342   2.044   0.656   8.832  0.0566  0.0494 -0.4330
  155POPC   PO4 2343   1.634   0.474   8.627 -0.0015  0.3191  0.2380
  155POPC   GL1 2344   1.469   0.425   8.340  0.3995 -0.0417 -0.0427
  155POPC   GL2 2345   1.604   0.193   8.019 -0.2432 -0.0932  0.4218
  155POPC   C1A 2346   1.546   0.686   7.984 -0.4661  0.1040  0.2214
  155POPC   D2A 2347   1.696   0.914   7.480 -0.3670  0.5829  0.0307
  155POPC   C3A 2348   1.723   1.213   7.280  0.2493  0.0576 -0.1338
  155POPC   C4A 2349   1.878   1.321   6.900  0.1063  0.1217 -0.1740
  155POPC   C1B 2350   1.411   0.122   7.729  0.2890  0.2491 -0.0702
  155POPC   C2B 2351   1.443   0.515   7.342 -0.2456  0.3222  0.0622
  155POPC   C3B 2352   1.546   0.846   7.039 -0.0642 -0.0582  0.2801
  155POPC   C4B 2353   1.490   0.970   6.736  0.1526  0.0146  0.0740
  156POPC   NC3 2354  10.124   5.380   8.865  0.0549  0.3794  0.1977
  156POPC   PO4 2355   9.814   5.248   8.503  0.0515 -0.0980  0.0599
  156POPC   GL1 2356   9.865   5.062   8.046 -0.0863  0.2295 -0.0426
  156POPC   GL2 2357  10.157   4.811   8.023 -0.2440 -0.3330  0.0048
  156POPC   C1A 2358   9.747   4.901   7.586 -0.0797  0.2492 -0.0957
  156POPC   D2A 2359   9.636   4.859   7.226 -0.1759 -0.1234  0.2774
  156POPC   C3A 2360   9.383   5.064   6.886  0.2125  0.1867 -0.1116
  156POPC   C4A 2361   9.412   5.497   6.670  0.0904 -0.2574 -0.4700
  156POPC   C1B 2362  10.355   4.658   7.637  0.1493  0.4117  0.1101
  156POPC   C2B 2363  10.144   4.930   7.238 -0.0012 -0.1292 -0.2276
  156POPC   C3B 2364  10.307   5.332   7.130  0.0965  0.0339 -0.1038
  156POPC   C4B 2365  10.189   5.688   6.936 -0.0553  0.0376  0.4155
  157POPC   NC3 2366   6.895   9.064   8.537  0.2274  0.0044  0.1592
  157POPC   PO4 2367   7.319   9.242   8.567 -0.1626 -0.2097  0.2514
  157POPC   GL1 2368   7.127   9.500   8.425  0.0807 -0.3695  0.1868
  157POPC   GL2 2369   6.870   9.411   8.176 -0.0817  0.0196 -0.0744
  157POPC   C1A 2370   6.853   9.847   8.339 -0.0904 -0.2719  0.0341
  157POPC   D2A 2371   6.787  10.106   7.958 -0.1508 -0.2426  0.2319
  157POPC   C3A 2372   6.656  10.517   7.778 -0.0937  0.1981  0.1086
  157POPC   C4A 2373   6.531  10.990   7.536  0.2170 -0.1543  0.1053
  157POPC   C1B 2374   6.866   9.700   7.767  0.1390  0.0391  0.2276
  157POPC   C2B 2375   6.748   9.933   7.499  0.0245 -0.1885 -0.3224
  157POPC   C3B 2376   6.817   9.925   7.017  0.0806  0.0157  0.1090
  157POPC   C4B 2377   6.723   9.831   6.576 -0.1380 -0.2877  0.1694
  158POPC   NC3 2378   2.655  10.431   8.720 -0.1425  0.2083 -0.2030
  158POPC   PO4 2379   2.491  10.600   9.029 -0.0250 -0.0656  0.0184
  158POPC   GL1 2380   2.541  10.912   8.603 -0.1186  0.0865  0.1764
  158POPC   GL2 2381   2.439  10.627   8.298  0.1234 -0.2763 -0.1867
  158POPC   C1A 2382   2.555  11.329   8.327 -0.1839  0.0866 -0.1210
  158POPC   D2A 2383   2.547  11.248   7.932 -0.1710  0.1314  0.0838
  158POPC   C3A 2384   2.170  10.993   7.870  0.1275 -0.0274 -0.0757
  158POPC   C4A 2385   1.873  10.927   7.665 -0.1640  0.3056 -0.0100
  158POPC   C1B 2386   2.522  10.569   7.912 -0.0490 -0.0107  0.0536
  158POPC   C2B 2387   2.683  10.268   7.553 -0.3897  0.1096  0.0068
  158POPC   C3B 2388   2.869  10.186   7.138 -0.4144  0.0506 -0.0801
  158POPC   C4B 2389   3.118  10.300   6.747  0.0365 -0.1775 -0.1489
  159POPC   NC3 2390   5.801   9.792   9.075 -0.0531  0.0784 -0.1928
  159POPC   PO4 2391   6.199   9.857   9.316  0.4900  0.1288  0.2067
  159POPC   GL1 2392   5.987  10.281   9.005 -0.0284 -0.0729  0.0197
  159POPC   GL2 2393   5.855  10.175   8.745  0.1604  0.3571 -0.4292
  159POPC   C1A 2394   5.849  10.694   8.959 -0.3508  0.1075 -0.0034
  159POPC   D2A 2395   5.604  11.109   9.017  0.2041  0.1317  0.0562
  159POPC   C3A 2396   5.456  11.430   8.666  0.1944  0.1504  0.0359
  159POPC   C4A 2397   5.666  11.575   8.385  0.0230 -0.1193  0.0220
  159POPC   C1B 2398   5.868  10.217   8.346  0.1164 -0.0392 -0.2419
  159POPC   C2B 2399   5.605  10.516   8.035 -0.1167 -0.0077  0.1037
  159POPC   C3B 2400   5.491  10.904   7.929  0.1157  0.0458  0.1239
  159POPC   C4B 2401   5.507  11.281   8.004 -0.3304 -0.0171  0.0629
  160POPC   NC3 2402   6.531   5.884   9.108 -0.1006  0.0168 -0.0819
  160POPC   PO4 2403   6.674   5.438   9.038  0.0863  0.2013  0.2179
  160POPC   GL1 2404   6.385   5.291   8.782  0.2355 -0.2396  0.1749
  160POPC   GL2 2405   6.239   5.526   8.812 -0.1958  0.1716  0.0037
  160POPC   C1A 2406   6.234   4.949   8.607 -0.2103 -0.0686  0.1653
  160POPC   D2A 2407   6.180   4.479   8.602  0.1506  0.0553 -0.1586
  160POPC   C3A 2408   5.839   4.156   8.381  0.1335 -0.1695 -0.0639
  160POPC   C4A 2409   5.722   3.978   8.052 -0.2598  0.0100  0.2108
  160POPC   C1B 2410   6.280   5.735   8.423  0.1190 -0.1589 -0.0175
  160POPC   C2B 2411   6.440   6.062   8.150 -0.1147 -0.2052 -0.1182
  160POPC   C3B 2412   6.792   6.008   7.827 -0.0116 -0.3783  0.0419
  160POPC   C4B 2413   7.040   6.395   7.743 -0.1575 -0.0869 -0.1032
  161POPC   NC3 2414   8.394   6.004   8.976 -0.5244 -0.0317  0.0981
  161POPC   PO4 2415   8.831   5.918   9.021 -0.1841  0.3905  0.0264
  161POPC   GL1 2416   8.721   5.890   8.580 -0.4712 -0.0206  0.2332
  161POPC   GL2 2417   8.779   5.693   8.262 -0.0987 -0.1021  0.1533
  161POPC   C1A 2418   8.712   6.173   8.155 -0.5210  0.3469 -0.0911
  161POPC   D2A 2419   8.804   6.379   7.878 -0.1036  0.2406 -0.1289
  161POPC   C3A 2420   8.815   6.118   7.551  0.0249 -0.2317  0.0538
  161POPC   C4A 2421   8.932   5.645   7.540 -0.0822  0.1342 -0.2683
  161POPC   C1B 2422   8.993   5.411   7.935  0.2500  0.2482 -0.2618
  161POPC   C2B 2423   9.191   5.165   7.515  0.1193  0.0222 -0.2143
  161POPC   C3B 2424   9.151   5.467   7.124 -0.1810 -0.0711  0.0214
  161POPC   C4B 2425   8.897   5.591   6.723 -0.5470 -0.1340 -0.0386
  162POPC   NC3 2426   6.459   4.198  10.043  0.0686 -0.0929 -0.0072
  162POPC   PO4 2427   5.988   4.071   9.995  0.1705 -0.5262 -0.1474
  162POPC   GL1 2428   6.213   3.810   9.717  0.0378  0.1941  0.1988
  162POPC   GL2 2429   6.441   3.968   9.540 -0.0864  0.3671  0.0962
  162POPC   C1A 2430   6.207   3.248   9.591 -0.0119 -0.0248  0.1688
  162POPC   D2A 2431   6.230   2.837   9.430 -0.1349  0.1741  0.0763
  162POPC   C3A 2432   5.838   2.636   9.264 -0.1247  0.0158  0.1737
  162POPC   C4A 2433   5.790   2.184   9.127  0.1560 -0.0107  0.1009
  162POPC   C1B 2434   6.648   3.816   9.190 -0.1348 -0.1432 -0.3631
  162POPC   C2B 2435   6.558   4.074   8.841  0.0873 -0.0546  0.3578
  162POPC   C3B 2436   6.377   4.020   8.372  0.1622  0.0367  0.1561
  162POPC   C4B 2437   6.327   4.044   7.917 -0.2634 -0.0713 -0.1143
  163POPC   NC3 2438   5.058   1.969   9.754  0.1346 -0.0123 -0.1324
  163POPC   PO4 2439   4.548   2.076   9.792  0.0325 -0.1381  0.0629
  163POPC   GL1 2440   4.690   1.936   9.364  0.1087 -0.1455  0.0831
  163POPC   GL2 2441   4.819   1.674   9.237 -0.2274 -0.2430 -0.1052
  163POPC   C1A 2442   4.620   2.094   8.900 -0.1929  0.0439 -0.0311
  163POPC   D2A 2443   4.424   1.844   8.652  0.2125 -0.0789 -0.0920
  163POPC   C3A 2444   4.678   1.457   8.354  0.2122  0.1900  0.2022
  163POPC   C4A 2445   4.641   1.166   8.019  0.0066 -0.0316 -0.1877
  163POPC   C1B 2446   5.188   1.520   9.090  0.0919 -0.2264 -0.2845
  163POPC   C2B 2447   5.472   1.307   9.046 -0.2486  0.3613  0.0568
  163POPC   C3B 2448   5.812   1.002   9.243  0.1567 -0.1918  0.0376
  163POPC   C4B 2449   6.219   0.849   9.161  0.2095 -0.1050 -0.0111
  164POPC   NC3 2450   8.523   8.658   8.800  0.1856 -0.2172 -0.2618
  164POPC   PO4 2451   8.309   8.331   8.729  0.2564  0.2586  0.1875
  164POPC   GL1 2452   8.321   8.237   8.267  0.0888  0.0579  0.1088
  164POPC   GL2 2453   8.468   8.551   8.190 -0.1949  0.2065 -0.3814
  164POPC   C1A 2454   8.402   8.131   7.826  0.3684 -0.3309  0.2115
  164POPC   D2A 2455   8.320   8.029   7.366  0.0033 -0.2268  0.2259
  164POPC   C3A 2456   8.324   8.113   7.040  0.0671  0.0614  0.3143
  164POPC   C4A 2457   8.245   8.097   6.543 -0.1807  0.1455  0.2590
  164POPC   C1B 2458   8.728   8.484   7.930  0.1022 -0.3149  0.0110
  164POPC   C2B 2459   8.682   8.392   7.470 -0.0293  0.1880 -0.1511
  164POPC   C3B 2460   9.192   8.325   7.286  0.1247 -0.1457  0.2656
  164POPC   C4B 2461   9.683   8.300   7.382 -0.1682 -0.3361  0.2538
  165POPC   NC3 2462   5.878   5.304   9.051 -0.0233  0.0229 -0.0740
  165POPC   PO4 2463   5.583   5.624   8.829  0.3374  0.2227 -0.0624
  165POPC   GL1 2464   5.748   5.779   8.452  0.1397  0.1499  0.0159
  165POPC   GL2 2465   5.531   5.606   8.216 -0.0683  0.1070 -0.2872
  165POPC   C1A 2466   5.940   5.959   8.169  0.2019 -0.3147 -0.1421
  165POPC   D2A 2467   6.107   5.778   7.904  0.0801 -0.1960 -0.0332
  165POPC   C3A 2468   6.293   5.950   7.575 -0.2719 -0.5102 -0.0178
  165POPC   C4A 2469   6.111   6.134   7.199 -0.1248 -0.2784  0.1388
  165POPC   C1B 2470   5.494   5.459   7.776  0.0202 -0.0431  0.0721
  165POPC   C2B 2471   5.322   5.603   7.362 -0.0136  0.2122  0.0139
  165POPC   C3B 2472   5.559   5.486   6.979  0.1088  0.4123 -0.2300
  165POPC   C4B 2473   5.923   5.674   6.758  0.1207  0.2698  0.0425
  166POPC   NC3 2474   7.689   7.077   8.528  0.2373  0.0371 -0.0308
  166POPC   PO4 2475   7.356   7.227   8.630  0.0006 -0.0125  0.2647
  166POPC   GL1 2476   7.482   7.313   8.140  0.2004 -0.2240  0.0947
  166POPC   GL2 2477   7.660   7.016   8.023 -0.4011  0.2006  0.2802
  166POPC   C1A 2478   7.692   7.465   7.765 -0.1474  0.1557  0.0400
  166POPC   D2A 2479   7.986   7.541   7.462 -0.0883  0.0519 -0.0504
  166POPC   C3A 2480   8.445   7.516   7.396 -0.0801  0.2173 -0.0473
  166POPC   C4A 2481   8.727   7.520   7.021 -0.4094 -0.2743  0.0252
  166POPC   C1B 2482   7.686   7.011   7.522  0.0181 -0.0052  0.3195
  166POPC   C2B 2483   7.668   7.044   7.055 -0.0735  0.0441  0.0888
  166POPC   C3B 2484   7.982   6.868   6.618  0.1139 -0.1519 -0.0512
  166POPC   C4B 2485   8.270   6.947   6.274  0.0797 -0.2261  0.0426
  167POPC   NC3 2486   3.315   2.367   9.069 -0.1058 -0.1759 -0.1932
  167POPC   PO4 2487   2.916   2.223   8.983  0.1959 -0.1782 -0.1267
  167POPC   GL1 2488   2.894   2.533   8.624 -0.0024 -0.0965 -0.1132
  167POPC   GL2 2489   2.704   2.438   8.339  0.2230  0.0662  0.1312
  167POPC   C1A 2490   3.017   2.805   8.236 -0.2887  0.0605 -0.3288
  167POPC   D2A 2491   3.257   2.720   7.912 -0.3610  0.4024  0.0009
  167POPC   C3A 2492   3.594   2.405   7.893  0.3348 -0.0471 -0.0413
  167POPC   C4A 2493   3.735   1.962   7.726  0.1646 -0.3361  0.0774
  167POPC   C1B 2494   2.842   2.269   7.962 -0.0527  0.2421  0.1978
  167POPC   C2B 2495   2.937   2.313   7.487 -0.0928 -0.2050  0.0630
  167POPC   C3B 2496   2.619   2.273   7.093  0.1839 -0.2404  0.1851
  167POPC   C4B 2497   2.317   2.030   6.909  0.0487  0.0448 -0.0728
  168POPC   NC3 2498   1.401   5.529   5.219  0.2429  0.1967  0.2413
  168POPC   PO4 2499   1.696   5.906   5.343 -0.1648  0.3051 -0.0561
  168POPC   GL1 2500   1.604   5.992   5.754  0.4756 -0.0419  0.1453
  168POPC   GL2 2501   1.431   5.753   5.769  0.2451  0.0295 -0.3153
  168POPC   C1A 2502   1.451   6.101   6.220 -0.2204  0.2896 -0.0993
  168POPC   D2A 2503   1.031   6.015   6.394 -0.1537  0.0622  0.0507
  168POPC   C3A 2504   0.782   6.395   6.650  0.1506  0.0008 -0.0475
  168POPC   C4A 2505   0.441   6.604   6.713  0.3727 -0.0097  0.0271
  168POPC   C1B 2506   1.568   5.587   6.153  0.2142 -0.1908  0.2389
  168POPC   C2B 2507   1.846   5.281   6.458  0.0120  0.1245  0.0260
  168POPC   C3B 2508   2.033   5.323   6.720 -0.3328  0.5202  0.0692
  168POPC   C4B 2509   2.398   5.484   6.955 -0.4022  0.0276 -0.2836
  169POPC   NC3 2510   8.235   4.886   3.993 -0.2181 -0.0508 -0.1540
  169POPC   PO4 2511   8.045   4.485   4.112  0.0488 -0.2694 -0.1271
  169POPC   GL1 2512   7.979   4.682   4.473 -0.0446 -0.1476  0.1812
  169POPC   GL2 2513   7.889   4.914   4.563  0.1621  0.1958 -0.0521
  169POPC   C1A 2514   8.227   4.689   4.815  0.0879 -0.1105 -0.0244
  169POPC   D2A 2515   8.190   4.623   5.372  0.0381 -0.0537 -0.0443
  169POPC   C3A 2516   8.004   4.212   5.511 -0.0298  0.0876 -0.0557
  169POPC   C4A 2517   7.672   3.929   5.464  0.1274  0.1992 -0.2856
  169POPC   C1B 2518   7.716   4.777   4.967 -0.0395  0.1428 -0.1201
  169POPC   C2B 2519   7.679   4.538   5.354 -0.0011 -0.1495  0.2567
  169POPC   C3B 2520   7.846   4.630   5.783 -0.1179  0.0447 -0.0702
  169POPC   C4B 2521   7.890   4.703   6.235 -0.1848  0.0788 -0.0257
  170POPC   NC3 2522   4.726   8.049   4.673  0.0639  0.0328  0.2561
  170POPC   PO4 2523   4.813   8.188   5.023 -0.1168  0.3869  0.0448
  170POPC   GL1 2524   4.908   8.168   5.441  0.0813  0.0996  0.1074
  170POPC   GL2 2525   5.185   8.278   5.338  0.5095  0.2867 -0.3175
  170POPC   C1A 2526   4.988   8.279   5.846  0.0262  0.0108 -0.2967
  170POPC   D2A 2527   4.756   8.027   6.277  0.3778 -0.2994 -0.1414
  170POPC   C3A 2528   4.970   7.823   6.578 -0.2846 -0.0997  0.1540
  170POPC   C4A 2529   4.682   7.773   6.828  0.0251  0.1311  0.0651
  170POPC   C1B 2530   5.100   8.634   5.533  0.0988 -0.1804  0.3033
  170POPC   C2B 2531   4.783   8.804   5.755 -0.1020  0.0363  0.3718
  170POPC   C3B 2532   4.696   8.975   6.052 -0.3892 -0.3028 -0.0421
  170POPC   C4B 2533   4.729   9.007   6.500 -0.1436 -0.0856 -0.1648
  171POPC   NC3 2534   9.848   4.109   4.356 -0.1992  0.0787 -0.3494
  171POPC   PO4 2535  10.141   4.059   4.831 -0.1950  0.2965 -0.2821
  171POPC   GL1 2536  10.076   4.184   5.219  0.2031  0.1649  0.0576
  171POPC   GL2 2537  10.424   4.189   5.429 -0.2574 -0.0184 -0.0282
  171POPC   C1A 2538  10.004   4.363   5.629 -0.3193  0.2244 -0.0868
  171POPC   D2A 2539   9.943   4.416   6.054  0.0608 -0.0534  0.1817
  171POPC   C3A 2540   9.596   4.546   6.235  0.4215 -0.0927  0.4408
  171POPC   C4A 2541   9.222   4.733   6.381  0.1353  0.0764 -0.1897
  171POPC   C1B 2542  10.543   4.071   5.908  0.1707  0.0231 -0.0349
  171POPC   C2B 2543  10.442   3.914   6.267 -0.0999 -0.1892 -0.1799
  171POPC   C3B 2544  10.511   3.661   6.705  0.0251  0.3951 -0.0632
  171POPC   C4B 2545  10.435   3.386   7.085 -0.1270 -0.1722 -0.1977
  172POPC   NC3 2546   0.676   0.644   4.540 -0.0959 -0.0060  0.0709
  172POPC   PO4 2547   0.607   1.123   4.673 -0.2706  0.1435 -0.0730
  172POPC   GL1 2548   0.618   1.263   5.195 -0.1697  0.3955  0.1554
  172POPC   GL2 2549   0.425   1.032   5.241  0.0611 -0.0127  0.1247
  172POPC   C1A 2550   0.496   1.420   5.684  0.1323 -0.0219 -0.0236
  172POPC   D2A 2551   0.415   1.209   6.140  0.0597  0.0578 -0.0681
  172POPC   C3A 2552   0.279   1.348   6.510  0.2321 -0.3485 -0.0752
  172POPC   C4A 2553   0.201   1.727   6.637  0.1840  0.0803 -0.0054
  172POPC   C1B 2554   0.819   0.814   5.431  0.3530 -0.3673  0.2726
  172POPC   C2B 2555   1.200   0.488   5.594 -0.2446 -0.0014 -0.2545
  172POPC   C3B 2556   1.320   0.391   5.979  0.1322 -0.2643 -0.1905
  172POPC   C4B 2557   1.259   0.496   6.402  0.3299 -0.1251  0.0834
  173POPC   NC3 2558   8.383   4.118   4.105 -0.0631  0.0241 -0.0953
  173POPC   PO4 2559   8.615   4.500   4.184  0.1795  0.0123  0.0098
  173POPC   GL1 2560   8.659   4.437   4.665  0.2901  0.1320  0.1730
  173POPC   GL2 2561   8.354   4.273   4.634 -0.0650 -0.3264 -0.1218
  173POPC   C1A 2562   8.552   4.469   5.075 -0.0680 -0.2038  0.1908
  173POPC   D2A 2563   8.503   4.141   5.521  0.2045 -0.1485 -0.4573
  173POPC   C3A 2564   8.887   4.083   5.836  0.4944 -0.0879  0.5142
  173POPC   C4A 2565   9.062   4.400   6.027  0.1198  0.3750  0.0132
  173POPC   C1B 2566   8.443   3.831   4.661 -0.0792  0.0977  0.2165
  173POPC   C2B 2567   8.247   3.478   4.789 -0.0064 -0.0879 -0.2398
  173POPC   C3B 2568   7.900   3.146   4.871  0.4087  0.0609  0.0248
  173POPC   C4B 2569   7.625   3.242   5.086 -0.2221 -0.0979 -0.3748
  174POPC   NC3 2570   1.910   1.846   4.595  0.1432  0.2504 -0.0088
  174POPC   PO4 2571   1.966   1.715   4.991 -0.0129  0.0593  0.0880
  174POPC   GL1 2572   2.098   1.651   5.449 -0.0754 -0.0824 -0.0346
  174POPC   GL2 2573   2.150   1.874   5.654 -0.6366  0.0402 -0.2250
  174POPC   C1A 2574   2.194   1.448   5.860 -0.2731  0.3265 -0.1344
  174POPC   D2A 2575   2.330   1.104   5.994 -0.1232 -0.0886  0.0395
  174POPC   C3A 2576   2.482   1.239   6.370 -0.1064 -0.0859 -0.1165
  174POPC   C4A 2577   2.932   1.332   6.483 -0.0937  0.2419  0.1830
  174POPC   C1B 2578   2.359   2.039   5.981 -0.0914  0.0283 -0.0906
  174POPC   C2B 2579   2.432   2.235   6.417  0.0560 -0.3774  0.1542
  174POPC   C3B 2580   2.331   2.527   6.681  0.4798  0.1850  0.2620
  174POPC   C4B 2581   2.599   2.874   6.777 -0.4042  0.1143  0.0200
  175POPC   NC3 2582   4.414   7.202   4.533  0.0565 -0.0604 -0.2744
  175POPC   PO4 2583   4.280   7.233   5.029 -0.1494  0.3729 -0.0434
  175POPC   GL1 2584   4.106   7.509   5.244 -0.2443 -0.0977 -0.1279
  175POPC   GL2 2585   3.800   7.682   5.073 -0.2188 -0.1655  0.1092
  175POPC   C1A 2586   4.416   7.776   5.595  0.1408  0.3333 -0.1322
  175POPC   D2A 2587   4.832   7.772   5.792  0.1580 -0.0593 -0.0377
  175POPC   C3A 2588   4.738   7.560   6.231  0.5342 -0.0946 -0.0674
  175POPC   C4A 2589   4.758   7.381   6.615  0.1417  0.5790 -0.0791
  175POPC   C1B 2590   3.878   7.914   5.404  0.1356  0.1057 -0.0380
  175POPC   C2B 2591   3.792   7.801   5.836 -0.0187  0.1049  0.2328
  175POPC   C3B 2592   3.742   7.499   6.115 -0.3938 -0.1727  0.1637
  175POPC   C4B 2593   3.809   7.308   6.546 -0.0439 -0.1273  0.4293
  176POPC   NC3 2594   1.625   6.404   5.085 -0.0440 -0.0271  0.1221
  176POPC   PO4 2595   2.000   6.715   5.065 -0.1199 -0.4669  0.0598
  176POPC   GL1 2596   1.906   6.721   5.442  0.2262 -0.2403 -0.2850
  176POPC   GL2 2597   1.885   6.338   5.526  0.0267  0.0206 -0.1827
  176POPC   C1A 2598   1.807   6.954   5.756 -0.0543  0.1416 -0.0282
  176POPC   D2A 2599   1.587   7.012   6.073  0.2368  0.2611 -0.0301
  176POPC   C3A 2600   1.444   6.968   6.471  0.0334  0.2082  0.1550
  176POPC   C4A 2601   1.287   7.219   6.970 -0.1149  0.1349 -0.1606
  176POPC   C1B 2602   2.014   6.227   5.893 -0.2192 -0.1054 -0.1620
  176POPC   C2B 2603   1.920   6.043   6.269  0.0468 -0.2002  0.0005
  176POPC   C3B 2604   1.750   5.820   6.592 -0.1913  0.0859 -0.0345
  176POPC   C4B 2605   1.377   5.683   6.787 -0.1904  0.2177 -0.2574
  177POPC   NC3 2606   1.037   7.678   4.782 -0.0728 -0.1836 -0.3259
  177POPC   PO4 2607   1.248   7.254   4.821  0.0151 -0.0539 -0.0425
  177POPC   GL1 2608   1.070   7.217   5.213  0.2513 -0.1811  0.1513
  177POPC   GL2 2609   0.797   7.339   5.166  0.3817 -0.2453  0.2236
  177POPC   C1A 2610   0.859   7.143   5.669  0.1250  0.1676 -0.1350
  177POPC   D2A 2611   0.547   7.296   5.943 -0.1118  0.1144  0.1827
  177POPC   C3A 2612   0.210   7.579   5.799  0.1700 -0.2074 -0.3948
  177POPC   C4A 2613  -0.082   7.905   5.599 -0.1989  0.0109  0.3500
  177POPC   C1B 2614   0.404   7.322   5.458  0.0904 -0.2858  0.1429
  177POPC   C2B 2615  -0.054   7.440   5.403  0.1900 -0.0842 -0.1250
  177POPC   C3B 2616  -0.404   7.184   5.484  0.2402  0.2618 -0.1485
  177POPC   C4B 2617  -0.777   7.169   5.796  0.2442  0.0184 -0.0551
  178POPC   NC3 2618   6.180   8.756   5.449  0.0865  0.1079  0.4865
  178POPC   PO4 2619   6.563   8.450   5.541  0.0884  0.2682  0.0212
  178POPC   GL1 2620   6.960   8.211   5.626  0.0712 -0.0620  0.1553
  178POPC   GL2 2621   7.254   8.322   5.623 -0.3104  0.1050  0.1776
  178POPC   C1A 2622   6.994   8.129   6.099  0.0320 -0.3040  0.0844
  178POPC   D2A 2623   7.078   8.368   6.473 -0.2121  0.0178 -0.2723
  178POPC   C3A 2624   7.072   8.805   6.446 -0.0361  0.0383  0.2568
  178POPC   C4A 2625   7.316   9.260   6.441 -0.2511 -0.0316 -0.0655
  178POPC   C1B 2626   7.461   8.534   6.039  0.2102 -0.1228  0.0772
  178POPC   C2B 2627   7.568   8.859   6.305  0.3436 -0.2376 -0.0651
  178POPC   C3B 2628   7.901   8.930   6.689 -0.6243 -0.2827 -0.1271
  178POPC   C4B 2629   8.040   9.139   6.988 -0.1924  0.3565 -0.0451
  179POPC   NC3 2630   0.217   0.807   4.844  0.0121 -0.2289 -0.1279
  179POPC   PO4 2631   0.092   0.400   4.632 -0.1488  0.0461 -0.2271
  179POPC   GL1 2632   0.157   0.344   5.101 -0.0520 -0.0062 -0.2299
  179POPC   GL2 2633   0.064   0.032   5.277 -0.0158  0.3872 -0.0102
  179POPC   C1A 2634   0.347   0.552   5.496  0.0403 -0.0854 -0.0819
  179POPC   D2A 2635   0.457   0.846   5.768 -0.1533 -0.2496 -0.1884
  179POPC   C3A 2636   0.844   1.133   5.861 -0.1849  0.5673 -0.1343
  179POPC   C4A 2637   1.245   1.065   5.848  0.2173 -0.1003  0.1287
  179POPC   C1B 2638   0.281  -0.039   5.760 -0.1655 -0.1195  0.0354
  179POPC   C2B 2639   0.066  -0.056   6.118  0.0483 -0.2301 -0.0076
  179POPC   C3B 2640  -0.142  -0.196   6.479 -0.2395  0.1050 -0.3549
  179POPC   C4B 2641  -0.199  -0.396   6.902 -0.0594  0.0221  0.1763
  180POPC   NC3 2642   7.115   6.425   4.734  0.2996  0.2032  0.4510
  180POPC   PO4 2643   6.750   6.177   4.704  0.2684  0.0186 -0.1659
  180POPC   GL1 2644   6.561   6.071   5.046  0.3231  0.3335  0.0232
  180POPC   GL2 2645   6.303   6.158   5.035  0.2942 -0.4379  0.0234
  180POPC   C1A 2646   6.445   5.724   5.341  0.3232 -0.0203  0.1396
  180POPC   D2A 2647   6.366   5.681   5.826  0.0310 -0.0248 -0.0297
  180POPC   C3A 2648   6.075   6.004   6.116 -0.0419 -0.1498  0.1308
  180POPC   C4A 2649   5.626   6.069   6.246  0.0132 -0.0112 -0.0018
  180POPC   C1B 2650   5.936   5.938   5.305 -0.2454 -0.1418  0.0645
  180POPC   C2B 2651   5.767   5.826   5.755  0.0786 -0.1390  0.1962
  180POPC   C3B 2652   5.878   5.534   5.971  0.1992 -0.0927 -0.1211
  180POPC   C4B 2653   5.849   5.276   6.312 -0.1241  0.2515  0.1920
  181POPC   NC3 2654   9.748   8.093   5.083  0.1356 -0.0557 -0.5420
  181POPC   PO4 2655   9.770   8.483   4.821 -0.0954 -0.0329 -0.3683
  181POPC   GL1 2656  10.020   8.447   5.278 -0.3284 -0.3329 -0.2814
  181POPC   GL2 2657   9.931   8.175   5.515  0.0338  0.0403  0.0978
  181POPC   C1A 2658  10.292   8.439   5.713  0.1237  0.1093 -0.0540
  181POPC   D2A 2659  10.330   8.375   6.099 -0.0418 -0.1943  0.1528
  181POPC   C3A 2660  10.804   8.293   6.249 -0.2282 -0.1244  0.1226
  181POPC   C4A 2661  11.240   8.173   6.477 -0.1796 -0.1544 -0.2016
  181POPC   C1B 2662   9.896   8.082   5.899 -0.0372  0.3658  0.2969
  181POPC   C2B 2663   9.660   7.716   5.998  0.6301 -0.2865 -0.0312
  181POPC   C3B 2664   9.438   7.401   6.163 -0.0282 -0.1110 -0.1300
  181POPC   C4B 2665   9.006   7.434   6.064  0.1204  0.2308 -0.0336
  182POPC   NC3 2666   6.811   9.365   4.697  0.0826  0.0490 -0.0844
  182POPC   PO4 2667   7.044   9.456   5.068 -0.0826 -0.1063 -0.0235
  182POPC   GL1 2668   7.133   9.610   5.386  0.3562 -0.0161 -0.0697
  182POPC   GL2 2669   7.299   9.335   5.517 -0.2114  0.0966 -0.3893
  182POPC   C1A 2670   6.988   9.800   5.777 -0.2590  0.0643  0.1941
  182POPC   D2A 2671   6.802  10.072   6.110  0.1259  0.4263  0.0928
  182POPC   C3A 2672   6.995  10.261   6.387  0.0679  0.2476 -0.0535
  182POPC   C4A 2673   7.350  10.474   6.265 -0.0431 -0.1409  0.3086
  182POPC   C1B 2674   7.205   9.328   5.901 -0.3058  0.3292 -0.1397
  182POPC   C2B 2675   6.930   9.550   6.207 -0.0841  0.1506  0.0161
  182POPC   C3B 2676   6.891   9.363   6.576 -0.0036 -0.2494 -0.2300
  182POPC   C4B 2677   7.044   9.219   6.815 -0.2619 -0.1732  0.0804
  183POPC   NC3 2678   4.742   0.787   4.256 -0.0926 -0.0488 -0.1484
  183POPC   PO4 2679   4.716   1.198   4.217 -0.0111 -0.2147  0.2244
  183POPC   GL1 2680   4.717   1.170   4.620 -0.5643  0.2182 -0.1983
  183POPC   GL2 2681   4.698   0.854   4.823 -0.1939 -0.1541  0.2708
  183POPC   C1A 2682   4.872   1.247   5.015  0.0862 -0.1597 -0.0887
  183POPC   D2A 2683   5.146   1.412   5.402 -0.1997 -0.4228  0.3125
  183POPC   C3A 2684   5.433   1.492   5.707  0.2817  0.0299 -0.0453
  183POPC   C4A 2685   5.840   1.708   5.783  0.3255 -0.2678  0.1181
  183POPC   C1B 2686   4.482   0.808   5.210 -0.0885  0.0642  0.2352
  183POPC   C2B 2687   4.361   1.016   5.535 -0.1662 -0.1226 -0.1612
  183POPC   C3B 2688   4.335   1.117   5.861 -0.3929 -0.4919  0.1585
  183POPC   C4B 2689   4.586   1.269   6.173 -0.0699 -0.2843 -0.0216
  184POPC   NC3 2690   6.595   6.205   4.131  0.2669  0.0450 -0.3529
  184POPC   PO4 2691   6.645   5.830   4.255  0.1711 -0.2612 -0.2035
  184POPC   GL1 2692   6.557   5.692   4.682 -0.0842  0.0859  0.1224
  184POPC   GL2 2693   6.844   5.595   4.717 -0.0372 -0.1034  0.0528
  184POPC   C1A 2694   6.476   5.341   5.043  0.0078 -0.3409 -0.0097
  184POPC   D2A 2695   6.266   4.937   5.151  0.0412  0.2812 -0.0539
  184POPC   C3A 2696   5.921   4.917   5.412 -0.1192 -0.0541 -0.0050
  184POPC   C4A 2697   5.758   4.578   5.598  0.1305 -0.1898 -0.0676
  184POPC   C1B 2698   6.889   5.552   5.166 -0.2756 -0.0803 -0.0788
  184POPC   C2B 2699   6.990   5.202   5.468  0.0655 -0.2776 -0.0621
  184POPC   C3B 2700   6.912   5.038   5.786  0.4161  0.1135  0.3404
  184POPC   C4B 2701   7.220   5.089   6.171 -0.0742  0.0332 -0.0685
  185POPC   NC3 2702   4.069   4.347   4.575 -0.2811 -0.2683 -0.1654
  185POPC   PO4 2703   4.256   4.668   4.533 -0.0098  0.2465  0.3734
  185POPC   GL1 2704   4.576   4.696   4.863  0.0748 -0.1380 -0.1989
  185POPC   GL2 2705   4.520   4.952   5.094 -0.2742  0.0891  0.1255
  185POPC   C1A 2706   4.864   4.510   5.249 -0.2991  0.0605  0.0942
  185POPC   D2A 2707   5.304   4.429   5.430 -0.1566 -0.0866 -0.0294
  185POPC   C3A 2708   5.489   4.092   5.764  0.0555  0.1258  0.0089
  185POPC   C4A 2709   5.661   4.342   6.088 -0.1977  0.3199  0.0349
  185POPC   C1B 2710   4.470   5.032   5.521 -0.3218 -0.0815 -0.0095
  185POPC   C2B 2711   4.370   5.197   6.008  0.0056 -0.0036 -0.0614
  185POPC   C3B 2712   4.456   5.281   6.453  0.3559  0.0374  0.1010
  185POPC   C4B 2713   4.359   5.427   6.896 -0.2341  0.2325  0.0552
  186POPC   NC3 2714   6.512   7.758   5.219 -0.0330  0.2874  0.2154
  186POPC   PO4 2715   6.871   7.542   5.080 -0.1293  0.0093 -0.1326
  186POPC   GL1 2716   6.864   7.491   5.587  0.0149 -0.1050  0.0457
  186POPC   GL2 2717   7.115   7.527   5.890  0.1281  0.1956  0.0397
  186POPC   C1A 2718   6.652   7.749   5.947 -0.2929 -0.1107  0.0814
  186POPC   D2A 2719   6.423   8.104   6.082 -0.0584 -0.4489  0.1122
  186POPC   C3A 2720   5.956   8.149   6.201  0.0352 -0.1393  0.0607
  186POPC   C4A 2721   5.742   8.495   6.372 -0.1416 -0.1411 -0.2912
  186POPC   C1B 2722   7.306   7.264   6.161  0.1576  0.0316 -0.1771
  186POPC   C2B 2723   7.537   6.850   6.352  0.2035 -0.3223 -0.0128
  186POPC   C3B 2724   7.525   6.494   6.780 -0.1487 -0.4965  0.1982
  186POPC   C4B 2725   7.550   6.487   7.111  0.1657  0.2140 -0.0624
  187POPC   NC3 2726   6.043   0.876   3.341  0.0443 -0.1943 -0.0135
  187POPC   PO4 2727   6.015   1.194   3.351  0.2236 -0.1334  0.1482
  187POPC   GL1 2728   6.233   1.332   3.729 -0.2170 -0.1551 -0.0665
  187POPC   GL2 2729   6.605   1.256   3.839 -0.0212 -0.1634  0.0492
  187POPC   C1A 2730   6.109   1.366   4.134 -0.1250 -0.0368 -0.0288
  187POPC   D2A 2731   6.112   1.501   4.617  0.3903 -0.3311 -0.1145
  187POPC   C3A 2732   5.998   1.927   4.601  0.1915  0.3463  0.0743
  187POPC   C4A 2733   5.471   2.112   4.638 -0.4211  0.0223  0.1618
  187POPC   C1B 2734   6.697   1.333   4.211  0.4280 -0.3454  0.0865
  187POPC   C2B 2735   6.588   1.323   4.626 -0.0079 -0.2468  0.0122
  187POPC   C3B 2736   6.737   1.286   5.070 -0.1310 -0.0238 -0.0738
  187POPC   C4B 2737   7.016   1.044   5.252  0.0246 -0.0932 -0.1340
  188POPC   NC3 2738   0.283   3.481   5.089  0.2390 -0.1515 -0.0104
  188POPC   PO4 2739  -0.036   3.708   5.163 -0.1546  0.2106  0.1352
  188POPC   GL1 2740  -0.335   3.740   5.544 -0.2355 -0.0836 -0.1225
  188POPC   GL2 2741  -0.660   3.862   5.605  0.0552  0.1117 -0.1227
  188POPC   C1A 2742  -0.455   3.865   6.000 -0.2579 -0.0552  0.1707
  188POPC   D2A 2743  -0.661   3.815   6.409  0.2699 -0.1310  0.3766
  188POPC   C3A 2744  -1.034   3.583   6.481  0.0782  0.0642 -0.0107
  188POPC   C4A 2745  -1.450   3.556   6.369 -0.0361 -0.0053 -0.1026
  188POPC   C1B 2746  -1.029   4.093   5.805  0.1011 -0.2843  0.0204
  188POPC   C2B 2747  -1.160   3.971   6.165 -0.0551  0.0133  0.0567
  188POPC   C3B 2748  -0.990   4.088   6.614 -0.0149 -0.2055  0.2784
  188POPC   C4B 2749  -0.953   4.453   6.736  0.0809 -0.1528 -0.1658
  189POPC   NC3 2750   4.174   5.110   4.801  0.2034 -0.0225 -0.0625
  189POPC   PO4 2751   4.570   5.478   4.758 -0.2132  0.1158  0.1082
  189POPC   GL1 2752   4.762   5.406   5.157 -0.1639  0.3125  0.0680
  189POPC   GL2 2753   4.992   5.561   5.282 -0.2043 -0.1572  0.0018
  189POPC   C1A 2754   4.574   5.503   5.552 -0.3349  0.1345 -0.0731
  189POPC   D2A 2755   4.665   5.922   5.621  0.1124 -0.3514 -0.1958
  189POPC   C3A 2756   4.576   6.188   5.920 -0.2498 -0.0679 -0.3450
  189POPC   C4A 2757   4.518   6.533   6.252  0.2028  0.0224  0.1775
  189POPC   C1B 2758   5.117   5.549   5.764 -0.1822 -0.0894  0.3263
  189POPC   C2B 2759   5.374   5.586   6.152 -0.0607 -0.0656 -0.0322
  189POPC   C3B 2760   5.368   5.766   6.624  0.1447 -0.0786 -0.2037
  189POPC   C4B 2761   5.524   6.007   7.025  0.4194 -0.1302  0.0637
  190POPC   NC3 2762   2.158   7.143   4.921  0.1965  0.1464  0.0726
  190POPC   PO4 2763   1.763   7.152   4.670 -0.1791  0.1436 -0.1457
  190POPC   GL1 2764   1.618   7.239   5.201  0.1100  0.0576  0.2078
  190POPC   GL2 2765   1.838   7.414   5.449 -0.1587  0.2533 -0.1181
  190POPC   C1A 2766   1.404   7.146   5.604 -0.2954 -0.0261 -0.0591
  190POPC   D2A 2767   1.184   7.409   5.982  0.1455 -0.0486 -0.1062
  190POPC   C3A 2768   0.839   7.366   6.302 -0.1345  0.4469 -0.3523
  190POPC   C4A 2769   0.815   7.339   6.757  0.2389  0.0690  0.0192
  190POPC   C1B 2770   2.175   7.647   5.610 -0.0742  0.0095  0.1841
  190POPC   C2B 2771   2.551   7.669   5.906  0.2705 -0.1985  0.1166
  190POPC   C3B 2772   2.692   7.457   6.288 -0.0067 -0.2654  0.3825
  190POPC   C4B 2773   2.761   7.092   6.683 -0.1001  0.0794  0.0051
  191POPC   NC3 2774   3.776   1.380   3.851  0.2030  0.0456 -0.0332
  191POPC   PO4 2775   3.691   1.638   4.205 -0.2099 -0.0523  0.1330
  191POPC   GL1 2776   4.044   1.673   4.402  0.2407  0.2142 -0.1077
  191POPC   GL2 2777   4.155   1.439   4.506 -0.0362  0.1306 -0.0085
  191POPC   C1A 2778   4.282   1.850   4.815 -0.1286 -0.1129  0.2247
  191POPC   D2A 2779   4.434   2.035   5.206 -0.0874 -0.1796  0.0567
  191POPC   C3A 2780   4.282   1.890   5.401  0.1225  0.1908 -0.0574
  191POPC   C4A 2781   4.069   1.935   5.651 -0.0936  0.5843 -0.3816
  191POPC   C1B 2782   4.340   1.369   4.866  0.0807  0.5846 -0.1907
  191POPC   C2B 2783   4.455   1.359   5.212  0.2463 -0.0455  0.2843
  191POPC   C3B 2784   4.680   1.498   5.617  0.0450  0.0249  0.1495
  191POPC   C4B 2785   4.982   1.592   5.995  0.1881 -0.2311 -0.4234
  192POPC   NC3 2786   7.036   2.393   2.883  0.2561 -0.3386  0.2541
  192POPC   PO4 2787   7.297   2.517   3.266 -0.4390  0.3221  0.2035
  192POPC   GL1 2788   7.145   2.494   3.753  0.0918 -0.1034 -0.0773
  192POPC   GL2 2789   7.003   2.240   3.999 -0.1243 -0.1527 -0.1913
  192POPC   C1A 2790   7.195   2.587   4.261 -0.0469  0.1181 -0.0911
  192POPC   D2A 2791   7.518   2.432   4.483  0.2520  0.1805  0.0104
  192POPC   C3A 2792   7.874   2.615   4.703  0.0466 -0.3114  0.1701
  192POPC   C4A 2793   8.180   2.705   5.007  0.0268  0.0997 -0.0175
  192POPC   C1B 2794   6.934   2.165   4.359  0.0627 -0.1370 -0.1328
  192POPC   C2B 2795   6.822   2.249   4.790 -0.4248  0.0371 -0.4156
  192POPC   C3B 2796   7.052   2.181   5.209  0.2137  0.0288 -0.1088
  192POPC   C4B 2797   7.461   2.139   5.429 -0.1012  0.2234  0.0065
  193POPC   NC3 2798   5.560   9.245   4.395  0.1995  0.3390 -0.1567
  193POPC   PO4 2799   5.841   9.283   4.813 -0.2784 -0.1633 -0.0481
  193POPC   GL1 2800   5.800   9.325   5.180  0.2924 -0.0807 -0.2414
  193POPC   GL2 2801   6.062   9.338   5.404 -0.0114 -0.0750  0.1341
  193POPC   C1A 2802   5.553   9.476   5.533  0.0602  0.0115  0.3484
  193POPC   D2A 2803   5.406   9.633   5.881  0.3266 -0.1173 -0.0946
  193POPC   C3A 2804   5.128   9.414   6.258  0.0826 -0.0995 -0.0625
  193POPC   C4A 2805   4.848   9.612   6.533 -0.0310 -0.1320 -0.0189
  193POPC   C1B 2806   6.001   9.640   5.822  0.2978 -0.0319  0.2567
  193POPC   C2B 2807   5.859   9.480   6.270 -0.1519 -0.3502 -0.0569
  193POPC   C3B 2808   5.607   9.059   6.272 -0.0063 -0.0806  0.1779
  193POPC   C4B 2809   5.576   8.712   5.961  0.2350  0.3486  0.1226
  194POPC   NC3 2810   2.332   3.398   5.156 -0.3114  0.1088 -0.1348
  194POPC   PO4 2811   2.722   3.382   5.095 -0.1641 -0.0735  0.0183
  194POPC   GL1 2812   2.803   3.614   5.362 -0.2224 -0.0441 -0.2300
  194POPC   GL2 2813   2.844   3.955   5.455  0.2224  0.2422  0.0852
  194POPC   C1A 2814   3.043   3.489   5.707 -0.0494  0.3196  0.2540
  194POPC   D2A 2815   2.913   3.149   6.175  0.2812  0.3982 -0.2382
  194POPC   C3A 2816   2.786   3.389   6.605 -0.2996  0.2071  0.2421
  194POPC   C4A 2817   2.391   3.550   6.520  0.1588  0.1592 -0.0134
  194POPC   C1B 2818   3.079   4.117   5.714 -0.0286 -0.0079 -0.0640
  194POPC   C2B 2819   3.117   4.223   6.121 -0.1467  0.0449  0.0787
  194POPC   C3B 2820   3.417   4.375   6.514 -0.0608  0.0136 -0.0268
  194POPC   C4B 2821   3.392   4.450   6.976 -0.0667  0.2235 -0.2016
  195POPC   NC3 2822   4.913   9.685   4.679 -0.2001  0.0469  0.0213
  195POPC   PO4 2823   5.295   9.587   4.688  0.0641  0.0076 -0.0052
  195POPC   GL1 2824   5.352   9.644   5.109  0.1705 -0.1142 -0.0105
  195POPC   GL2 2825   5.478   9.869   5.234  0.0804  0.0241 -0.3987
  195POPC   C1A 2826   5.062   9.675   5.513  0.0197 -0.1819  0.4377
  195POPC   D2A 2827   4.870   9.373   5.679 -0.0859  0.0812  0.0289
  195POPC   C3A 2828   4.575   9.546   6.124 -0.1256 -0.1770 -0.0984
  195POPC   C4A 2829   4.375   9.554   6.438 -0.0426 -0.2800  0.1445
  195POPC   C1B 2830   5.428  10.135   5.592  0.1264 -0.3005  0.0743
  195POPC   C2B 2831   5.325  10.338   5.895  0.1689 -0.2371 -0.1208
  195POPC   C3B 2832   5.174  10.710   6.064  0.0539  0.1081  0.0186
  195POPC   C4B 2833   5.143  11.198   6.169 -0.2328 -0.0771  0.1330
  196POPC   NC3 2834   6.974   8.622   5.312 -0.0037  0.0674 -0.1353
  196POPC   PO4 2835   6.745   8.987   5.052 -0.1303  0.0080 -0.0077
  196POPC   GL1 2836   6.583   9.024   5.537  0.1013 -0.2236 -0.0160
  196POPC   GL2 2837   6.873   9.100   5.599  0.1402  0.1209  0.0427
  196POPC   C1A 2838   6.292   9.230   5.800  0.0526 -0.1420  0.1228
  196POPC   D2A 2839   6.388   9.428   6.219 -0.0938 -0.2878 -0.2063
  196POPC   C3A 2840   6.385   9.501   6.579 -0.0075 -0.0992  0.0486
  196POPC   C4A 2841   6.310   9.985   6.817  0.0850 -0.0065  0.1839
  196POPC   C1B 2842   6.720   9.091   6.095 -0.1054 -0.0358 -0.4795
  196POPC   C2B 2843   6.579   8.943   6.499 -0.0804  0.2824  0.0458
  196POPC   C3B 2844   6.671   8.427   6.685  0.1632  0.2246 -0.4016
  196POPC   C4B 2845   6.841   8.057   6.807 -0.0414  0.3373  0.2289
  197POPC   NC3 2846   3.569   2.790   3.649  0.1944 -0.0356 -0.0315
  197POPC   PO4 2847   3.993   2.801   3.794 -0.1297  0.1373 -0.0890
  197POPC   GL1 2848   4.147   2.500   4.193  0.2143  0.0736  0.1728
  197POPC   GL2 2849   4.439   2.544   4.368 -0.2302  0.1825  0.0159
  197POPC   C1A 2850   4.312   2.093   4.312  0.1251 -0.2261  0.2700
  197POPC   D2A 2851   4.539   1.710   4.326  0.0797  0.0606 -0.1628
  197POPC   C3A 2852   4.788   1.658   4.759 -0.2385 -0.0934  0.4472
  197POPC   C4A 2853   5.213   1.770   4.868  0.0153  0.2684  0.0476
  197POPC   C1B 2854   4.279   2.375   4.714  0.1719 -0.1204 -0.2758
  197POPC   C2B 2855   4.305   2.510   5.082  0.0438  0.2084 -0.0006
  197POPC   C3B 2856   4.349   2.859   5.244 -0.1242 -0.0039  0.2345
  197POPC   C4B 2857   4.445   2.901   5.681  0.1754 -0.3131 -0.2652
  198POPC   NC3 2858   8.763   1.738   4.513  0.0179  0.2262 -0.2531
  198POPC   PO4 2859   8.594   2.085   4.520 -0.1722  0.1109  0.0999
  198POPC   GL1 2860   8.437   2.262   4.880 -0.0784 -0.2041 -0.2509
  198POPC   GL2 2861   8.630   2.360   5.021  0.0497  0.1124 -0.3659
  198POPC   C1A 2862   7.999   2.221   5.286  0.1321  0.1133  0.0440
  198POPC   D2A 2863   7.911   1.921   5.602  0.0445  0.0261  0.1870
  198POPC   C3A 2864   7.498   1.689   5.689 -0.1645  0.3374  0.2187
  198POPC   C4A 2865   7.323   1.670   6.097  0.1968  0.2741 -0.1541
  198POPC   C1B 2866   8.502   2.226   5.383  0.4832  0.0136 -0.2118
  198POPC   C2B 2867   8.651   2.345   5.836  0.0419  0.0256 -0.0683
  198POPC   C3B 2868   8.939   2.296   6.160  0.1933  0.0933 -0.1941
  198POPC   C4B 2869   9.249   2.562   6.204  0.2307  0.0888  0.0145
  199POPC   NC3 2870   0.550   8.253   4.913  0.2945 -0.1276  0.0118
  199POPC   PO4 2871   0.739   8.569   4.640 -0.1211  0.0871  0.0041
  199POPC   GL1 2872   0.907   8.557   5.154  0.0381  0.0468 -0.0026
  199POPC   GL2 2873   0.923   8.913   5.296 -0.3284 -0.1484 -0.0240
  199POPC   C1A 2874   0.913   8.185   5.488  0.0382  0.1722 -0.0572
  199POPC   D2A 2875   1.194   8.006   5.890 -0.5456  0.1491  0.1683
  199POPC   C3A 2876   1.076   7.800   6.215 -0.1866 -0.3036 -0.1543
  199POPC   C4A 2877   1.025   7.754   6.670 -0.1418 -0.1116 -0.0474
  199POPC   C1B 2878   1.158   9.222   5.518 -0.0141  0.0889  0.0464
  199POPC   C2B 2879   1.450   9.370   5.859  0.1586 -0.3481  0.2007
  199POPC   C3B 2880   1.599   9.377   6.382  0.0519  0.1298 -0.1396
  199POPC   C4B 2881   1.702   9.073   6.706 -0.0470 -0.0060 -0.0185
  200POPC   NC3 2882   0.585  10.020   4.742 -0.2712  0.0828  0.1959
  200POPC   PO4 2883   0.983  10.332   4.870  0.0104 -0.0696  0.1021
  200POPC   GL1 2884   1.150  10.310   5.335 -0.1344 -0.3256 -0.1521
  200POPC   GL2 2885   1.524  10.291   5.454 -0.1620  0.0591 -0.2101
  200POPC   C1A 2886   1.061  10.387   5.766  0.1965  0.1268 -0.1075
  200POPC   D2A 2887   0.975  10.562   6.083  0.0665  0.0580 -0.0812
  200POPC   C3A 2888   0.877  10.747   6.481  0.3208  0.2320 -0.1077
  200POPC   C4A 2889   0.722  10.654   6.890 -0.3705  0.0194  0.3613
  200POPC   C1B 2890   1.646  10.573   5.802  0.0425 -0.1416 -0.1383
  200POPC   C2B 2891   1.708  10.708   6.251  0.1150  0.0732  0.3509
  200POPC   C3B 2892   1.723  10.832   6.633 -0.4498 -0.2629  0.3611
  200POPC   C4B 2893   1.390  10.785   6.839 -0.0196  0.1527  0.0487
  201POPC   NC3 2894   4.747   1.463   3.750 -0.0667 -0.2509  0.1462
  201POPC   PO4 2895   4.796   1.756   3.488  0.2685 -0.2934 -0.1725
  201POPC   GL1 2896   5.028   2.015   3.793 -0.2435  0.1544 -0.2683
  201POPC   GL2 2897   4.969   1.802   4.054 -0.2893  0.1517 -0.0649
  201POPC   C1A 2898   5.308   2.252   4.150  0.2215 -0.0241 -0.2415
  201POPC   D2A 2899   5.579   2.587   4.278  0.2048  0.3199  0.1209
  201POPC   C3A 2900   5.581   2.677   4.651  0.2007 -0.1291 -0.1720
  201POPC   C4A 2901   5.488   2.527   5.019  0.0227 -0.1022 -0.3374
  201POPC   C1B 2902   4.863   2.078   4.412 -0.4431  0.0707 -0.0666
  201POPC   C2B 2903   4.715   2.141   4.829 -0.1833 -0.0774 -0.2677
  201POPC   C3B 2904   4.961   2.237   5.163  0.0578 -0.0149 -0.1133
  201POPC   C4B 2905   5.244   2.421   5.463 -0.0719 -0.1060  0.0075
  202POPC   NC3 2906   3.527   2.237   4.703  0.2179  0.2960  0.3520
  202POPC   PO4 2907   3.716   2.713   4.564 -0.2216  0.1290 -0.1044
  202POPC   GL1 2908   3.980   2.967   4.900 -0.0901  0.3077  0.0314
  202POPC   GL2 2909   3.815   2.978   5.256  0.1752 -0.1162  0.0560
  202POPC   C1A 2910   4.115   3.466   5.081  0.0309  0.0023 -0.0145
  202POPC   D2A 2911   4.230   3.355   5.403  0.1728  0.1286 -0.2577
  202POPC   C3A 2912   4.299   3.384   5.841  0.2340 -0.0593 -0.0438
  202POPC   C4A 2913   3.985   3.377   6.193 -0.1877 -0.3153  0.0599
  202POPC   C1B 2914   3.991   2.609   5.542  0.1053  0.2778  0.1647
  202POPC   C2B 2915   4.299   2.377   5.618 -0.1382  0.2998  0.0544
  202POPC   C3B 2916   4.594   2.066   5.747  0.3597  0.2807  0.2665
  202POPC   C4B 2917   5.011   2.047   5.711 -0.2174 -0.1257  0.0403
  203POPC   NC3 2918  10.227   1.874   5.212 -0.1108  0.2760 -0.2777
  203POPC   PO4 2919  10.040   1.558   5.072  0.1037  0.2694  0.0951
  203POPC   GL1 2920   9.676   1.561   5.317 -0.1553 -0.0657  0.2576
  203POPC   GL2 2921   9.352   1.640   5.290 -0.1392 -0.1430  0.0369
  203POPC   C1A 2922   9.630   1.788   5.661  0.0858 -0.3281 -0.1076
  203POPC   D2A 2923   9.952   2.134   5.877 -0.3369 -0.2556 -0.2030
  203POPC   C3A 2924   9.991   1.976   6.353 -0.0252 -0.0647 -0.1614
  203POPC   C4A 2925   9.736   2.120   6.841  0.0323 -0.1170 -0.3936
  203POPC   C1B 2926   9.163   1.471   5.671 -0.0591 -0.0493  0.1665
  203POPC   C2B 2927   9.011   1.329   6.052 -0.0857  0.1000  0.0010
  203POPC   C3B 2928   8.890   1.111   6.328  0.4292 -0.0105 -0.1728
  203POPC   C4B 2929   8.753   0.759   6.552 -0.2075 -0.2322 -0.0001
  204POPC   NC3 2930   2.979   7.557   4.584  0.0064  0.3388 -0.0778
  204POPC   PO4 2931   3.390   7.747   4.608  0.0367 -0.0410  0.1151
  204POPC   GL1 2932   3.303   7.779   4.906 -0.1131  0.1128  0.0420
  204POPC   GL2 2933   2.975   7.989   5.050  0.1446 -0.1081  0.0301
  204POPC   C1A 2934   3.390   7.754   5.374 -0.0639  0.0008 -0.2614
  204POPC   D2A 2935   3.626   7.394   5.565  0.0029 -0.0338  0.0979
  204POPC   C3A 2936   4.107   7.314   5.766  0.0772 -0.1822  0.0042
  204POPC   C4A 2937   4.516   7.316   5.851 -0.4772 -0.2230 -0.0300
  204POPC   C1B 2938   3.011   8.115   5.532 -0.2397  0.0025 -0.2676
  204POPC   C2B 2939   2.815   8.190   6.070  0.3336 -0.0923 -0.0730
  204POPC   C3B 2940   2.619   8.472   6.254  0.2353  0.0742  0.2492
  204POPC   C4B 2941   2.447   8.423   6.606  0.1828 -0.1746 -0.1487
  205POPC   NC3 2942   8.382   5.926   4.326  0.0480 -0.1905  0.0093
  205POPC   PO4 2943   8.574   6.174   4.598  0.3105 -0.0079 -0.1301
  205POPC   GL1 2944   8.551   5.772   4.949  0.0465  0.0735  0.2113
  205POPC   GL2 2945   8.627   5.850   5.245 -0.3114 -0.0393 -0.1783
  205POPC   C1A 2946   8.810   5.424   5.111  0.0065 -0.0803 -0.1286
  205POPC   D2A 2947   9.063   5.222   5.515  0.2168 -0.2218 -0.3354
  205POPC   C3A 2948   9.298   5.483   5.773 -0.2579  0.0072  0.1675
  205POPC   C4A 2949   9.411   5.750   6.222 -0.2083  0.2386 -0.1558
  205POPC   C1B 2950   8.650   5.655   5.509  0.2772 -0.1517  0.2272
  205POPC   C2B 2951   8.795   5.435   5.880 -0.0144  0.1391 -0.0542
  205POPC   C3B 2952   8.792   5.313   6.277 -0.2021 -0.1779 -0.3828
  205POPC   C4B 2953   8.846   5.040   6.744  0.2147 -0.1645 -0.0132
  206POPC   NC3 2954   5.824   6.407   4.478  0.1110 -0.1828 -0.0517
  206POPC   PO4 2955   5.923   6.479   4.854 -0.0848 -0.0825 -0.6820
  206POPC   GL1 2956   5.985   6.487   5.315  0.0828  0.0800 -0.0532
  206POPC   GL2 2957   5.994   6.690   5.534  0.2179  0.3723  0.2431
  206POPC   C1A 2958   6.127   6.233   5.633 -0.2509  0.0847 -0.0189
  206POPC   D2A 2959   6.523   6.323   5.907  0.1142  0.1113 -0.1547
  206POPC   C3A 2960   6.440   6.273   6.406 -0.1789 -0.3046 -0.1055
  206POPC   C4A 2961   6.259   6.022   6.732 -0.0162 -0.1163 -0.0889
  206POPC   C1B 2962   6.097   6.515   6.062 -0.1336  0.1860 -0.0639
  206POPC   C2B 2963   6.164   6.643   6.583  0.2180 -0.0015  0.2583
  206POPC   C3B 2964   6.182   6.961   6.866  0.1178 -0.0483  0.0881
  206POPC   C4B 2965   6.096   7.361   6.781 -0.2493  0.1524 -0.2903
  207POPC   NC3 2966   8.399   8.665   4.710 -0.1840 -0.4285  0.0277
  207POPC   PO4 2967   8.383   8.767   5.137  0.1559  0.0134 -0.0579
  207POPC   GL1 2968   8.536   8.537   5.483 -0.3051  0.1710  0.2204
  207POPC   GL2 2969   8.276   8.436   5.533  0.2576 -0.0362 -0.4060
  207POPC   C1A 2970   8.633   8.547   5.895 -0.2148  0.0123  0.1001
  207POPC   D2A 2971   8.624   8.292   6.205  0.1787 -0.1372  0.2261
  207POPC   C3A 2972   8.756   8.535   6.524  0.4447  0.1155 -0.1221
  207POPC   C4A 2973   8.935   8.604   6.981  0.1618  0.0140 -0.1130
  207POPC   C1B 2974   8.184   8.206   5.995 -0.2406  0.0003  0.0445
  207POPC   C2B 2975   8.110   7.841   6.127  0.0193 -0.0889 -0.1361
  207POPC   C3B 2976   8.263   7.462   6.337  0.1817  0.0569  0.2046
  207POPC   C4B 2977   8.584   7.317   6.597  0.2595  0.3587  0.1791
  208POPC   NC3 2978   0.351   2.701   5.050  0.1954  0.2145 -0.2410
  208POPC   PO4 2979   0.576   3.052   4.956  0.1355 -0.3444 -0.0604
  208POPC   GL1 2980   0.608   3.147   5.418 -0.2576  0.1661  0.0438
  208POPC   GL2 2981   0.613   3.582   5.612 -0.2747  0.1193 -0.1411
  208POPC   C1A 2982   0.688   3.085   5.801 -0.1423 -0.4175 -0.3387
  208POPC   D2A 2983   0.711   2.928   6.179 -0.2380  0.0885 -0.1620
  208POPC   C3A 2984   0.694   2.518   6.202  0.0613 -0.1651  0.3917
  208POPC   C4A 2985   0.704   2.347   6.593  0.0318  0.2148 -0.1211
  208POPC   C1B 2986   0.408   3.638   5.980 -0.1025  0.0041 -0.0508
  208POPC   C2B 2987   0.443   3.775   6.327  0.5277  0.2176  0.2685
  208POPC   C3B 2988   0.872   3.855   6.621 -0.1795 -0.0497  0.0218
  208POPC   C4B 2989   1.026   3.543   6.930  0.1235 -0.1492  0.1940
  209POPC   NC3 2990   7.740   7.363   4.888 -0.4753 -0.0177 -0.2902
  209POPC   PO4 2991   7.682   7.046   5.149  0.0729 -0.1480 -0.0770
  209POPC   GL1 2992   7.835   6.911   5.585  0.1971 -0.0223 -0.4989
  209POPC   GL2 2993   7.667   7.082   5.741  0.0543  0.0728  0.1637
  209POPC   C1A 2994   7.913   6.696   6.080  0.1056 -0.2175  0.2203
  209POPC   D2A 2995   7.825   6.395   6.388 -0.0000  0.0611 -0.2833
  209POPC   C3A 2996   8.095   5.999   6.362  0.1743 -0.3655 -0.0227
  209POPC   C4A 2997   8.453   5.847   6.518 -0.0342  0.2125  0.4136
  209POPC   C1B 2998   7.827   7.189   6.191  0.0653  0.0347 -0.0092
  209POPC   C2B 2999   7.803   7.339   6.610 -0.2945 -0.2102  0.3777
  209POPC   C3B 3000   7.781   7.735   6.724 -0.2291 -0.3989  0.1233
  209POPC   C4B 3001   7.494   8.049   6.956 -0.0660 -0.0198 -0.0744
  210POPC   NC3 3002  10.132   1.208   4.746  0.2946 -0.0473  0.0350
  210POPC   PO4 3003  10.199   0.816   4.977  0.2522 -0.3496  0.0089
  210POPC   GL1 3004  10.426   0.889   5.306  0.1446 -0.0539  0.0359
  210POPC   GL2 3005  10.181   1.161   5.399 -0.1607 -0.1840 -0.0510
  210POPC   C1A 3006  10.380   0.938   5.790 -0.1567 -0.0298 -0.0480
  210POPC   D2A 3007  10.466   0.933   6.213  0.1106  0.5637  0.2044
  210POPC   C3A 3008  10.045   0.998   6.421  0.1561  0.3592  0.1287
  210POPC   C4A 3009   9.765   1.310   6.581  0.1086 -0.0220 -0.0197
  210POPC   C1B 3010   9.925   1.296   5.722  0.2850 -0.0052 -0.0419
  210POPC   C2B 3011   9.729   1.576   6.127  0.0689  0.0699  0.0235
  210POPC   C3B 3012   9.338   1.596   6.435 -0.0216 -0.0109  0.0553
  210POPC   C4B 3013   8.928   1.561   6.601 -0.1771 -0.1064  0.2783
  211POPC   NC3 3014   5.687   7.411   4.863 -0.3682  0.0655 -0.1756
  211POPC   PO4 3015   5.823   7.106   5.158 -0.0833  0.0506 -0.3199
  211POPC   GL1 3016   6.055   7.173   5.508 -0.0270  0.0158 -0.2194
  211POPC   GL2 3017   6.122   7.611   5.472  0.0470 -0.1941  0.2370
  211POPC   C1A 3018   6.419   7.299   5.772 -0.0742  0.0806 -0.2540
  211POPC   D2A 3019   6.788   7.157   5.998  0.0835  0.2038 -0.0028
  211POPC   C3A 3020   6.883   7.481   6.311 -0.1054  0.0962 -0.1854
  211POPC   C4A 3021   6.672   7.747   6.521  0.1437  0.0961 -0.1438
  211POPC   C1B 3022   5.803   7.396   5.851  0.0085  0.0753  0.1118
  211POPC   C2B 3023   5.700   7.515   6.255 -0.1465  0.2365  0.3091
  211POPC   C3B 3024   5.304   7.426   6.506 -0.1305  0.0754 -0.0739
  211POPC   C4B 3025   5.199   7.477   6.880 -0.3482 -0.1104  0.1635
  212POPC   NC3 3026   2.496   7.975   5.018  0.1184 -0.0808  0.3349
  212POPC   PO4 3027   2.503   7.531   4.871 -0.1028  0.0788 -0.0345
  212POPC   GL1 3028   2.537   7.364   5.269 -0.1059 -0.1118  0.2073
  212POPC   GL2 3029   2.681   7.605   5.419 -0.0410 -0.0770  0.1622
  212POPC   C1A 3030   2.239   7.133   5.545 -0.3322  0.0360  0.0678
  212POPC   D2A 3031   2.195   7.180   5.992 -0.1759 -0.2971 -0.4844
  212POPC   C3A 3032   2.539   7.028   6.208  0.0034  0.2838 -0.1784
  212POPC   C4A 3033   2.949   6.907   6.266  0.1268 -0.2448 -0.0787
  212POPC   C1B 3034   3.032   7.716   5.853  0.4009 -0.0914  0.1310
  212POPC   C2B 3035   3.123   7.400   6.100  0.1479  0.4197 -0.1605
  212POPC   C3B 3036   3.342   7.225   6.411  0.3033 -0.1202  0.5082
  212POPC   C4B 3037   3.594   6.887   6.610 -0.2507  0.0766 -0.3120
  213POPC   NC3 3038   3.319   0.432   5.108 -0.1686 -0.1915 -0.0651
  213POPC   PO4 3039   2.850   0.451   5.263  0.2032  0.3498  0.2913
  213POPC   GL1 3040   2.839   0.288   5.668  0.0709 -0.0283  0.1070
  213POPC   GL2 3041   2.574   0.450   5.720 -0.1015  0.1850  0.0652
  213POPC   C1A 3042   2.825   0.144   6.018 -0.2436 -0.1081 -0.0342
  213POPC   D2A 3043   2.759  -0.014   6.440 -0.0790  0.2181 -0.0844
  213POPC   C3A 3044   2.792   0.353   6.656 -0.1292  0.3101 -0.0259
  213POPC   C4A 3045   3.090   0.574   6.764 -0.0824  0.0802  0.0133
  213POPC   C1B 3046   2.162   0.649   5.845  0.2415  0.2086 -0.4251
  213POPC   C2B 3047   1.992   0.678   6.283  0.0745  0.2641  0.0683
  213POPC   C3B 3048   1.944   0.772   6.741 -0.1734  0.1938  0.0047
  213POPC   C4B 3049   1.939   0.596   7.160  0.1287  0.1266 -0.0657
  214POPC   NC3 3050   2.436   5.803   4.789  0.0015  0.6616  0.3176
  214POPC   PO4 3051   2.143   5.791   5.096 -0.0929  0.3660 -0.0254
  214POPC   GL1 3052   2.164   5.831   5.530 -0.2610 -0.3264 -0.1746
  214POPC   GL2 3053   1.958   5.538   5.540  0.0925 -0.0746  0.1403
  214POPC   C1A 3054   2.170   5.739   5.977 -0.2256  0.1979  0.0527
  214POPC   D2A 3055   2.267   5.642   6.410 -0.2491 -0.1635  0.0992
  214POPC   C3A 3056   2.192   5.929   6.760 -0.2657 -0.2554 -0.1318
  214POPC   C4A 3057   1.774   6.238   7.058 -0.0540  0.2565  0.2511
  214POPC   C1B 3058   1.894   5.214   5.944  0.2226 -0.2129  0.3104
  214POPC   C2B 3059   2.019   4.882   6.162 -0.0060 -0.0252 -0.2598
  214POPC   C3B 3060   2.037   4.829   6.608 -0.1174  0.0269  0.1880
  214POPC   C4B 3061   1.871   4.828   7.040  0.3217 -0.2732  0.0112
  215POPC   NC3 3062   5.539   8.419   4.953 -0.1601  0.0065 -0.2200
  215POPC   PO4 3063   5.961   8.609   4.997  0.0595 -0.4418 -0.1650
  215POPC   GL1 3064   5.558   8.806   5.221  0.5539 -0.1306 -0.0154
  215POPC   GL2 3065   5.689   8.936   5.525 -0.1674 -0.1472 -0.0919
  215POPC   C1A 3066   5.231   9.096   5.400 -0.1776  0.1340 -0.0998
  215POPC   D2A 3067   5.290   9.117   5.836 -0.1039  0.0476  0.2442
  215POPC   C3A 3068   5.149   8.867   6.183 -0.0699 -0.2299 -0.2379
  215POPC   C4A 3069   5.358   8.705   6.538  0.0046  0.2692 -0.2391
  215POPC   C1B 3070   5.832   9.197   5.857  0.2905 -0.0029 -0.1057
  215POPC   C2B 3071   6.077   8.997   6.181  0.1640 -0.0320 -0.2269
  215POPC   C3B 3072   6.115   9.076   6.577  0.1128 -0.0333 -0.1270
  215POPC   C4B 3073   5.768   8.872   6.788  0.2069  0.1962  0.2798
  216POPC   NC3 3074   3.945   0.591   4.301  0.0193  0.0671  0.2777
  216POPC   PO4 3075   3.924   0.765   4.748  0.1942  0.2343 -0.1574
  216POPC   GL1 3076   4.024   0.485   5.149  0.0409  0.1750 -0.0166
  216POPC   GL2 3077   3.768   0.538   5.415  0.1532  0.1443 -0.1811
  216POPC   C1A 3078   4.253   0.527   5.591  0.0779  0.1013 -0.0847
  216POPC   D2A 3079   4.245   0.579   6.057 -0.0674  0.0914  0.0449
  216POPC   C3A 3080   4.524   0.793   6.330  0.1034 -0.0428  0.0965
  216POPC   C4A 3081   4.913   1.028   6.502 -0.2729  0.0129  0.3206
  216POPC   C1B 3082   3.891   0.974   5.728  0.0565 -0.1798 -0.1641
  216POPC   C2B 3083   4.003   0.992   6.211  0.0835 -0.0411 -0.0384
  216POPC   C3B 3084   4.074   0.880   6.634  0.2021 -0.2044 -0.0122
  216POPC   C4B 3085   4.399   0.773   6.803 -0.3265 -0.1875 -0.1515
  217POPC   NC3 3086   2.718   1.349   5.122 -0.1373  0.0078  0.0357
  217POPC   PO4 3087   2.498   1.695   5.115 -0.3393  0.0835  0.1866
  217POPC   GL1 3088   2.643   1.621   5.546  0.1186  0.0938 -0.2913
  217POPC   GL2 3089   2.552   1.389   5.599 -0.3372  0.0150  0.1793
  217POPC   C1A 3090   2.780   1.685   5.889  0.0586  0.1311  0.2253
  217POPC   D2A 3091   2.621   1.681   6.191  0.0979  0.0384  0.2115
  217POPC   C3A 3092   2.675   1.735   6.623 -0.0010  0.1553  0.0790
  217POPC   C4A 3093   2.406   1.487   6.883  0.0893  0.0882  0.1123
  217POPC   C1B 3094   2.818   1.146   5.966  0.2358  0.4109 -0.2669
  217POPC   C2B 3095   2.620   0.784   6.111  0.4442  0.1067 -0.2283
  217POPC   C3B 3096   2.496   0.754   6.465  0.1012 -0.0738  0.1412
  217POPC   C4B 3097   2.715   0.911   6.814 -0.2858 -0.1059 -0.0242
  218POPC   NC3 3098   7.886   3.650   3.470  0.0848  0.0964 -0.2171
  218POPC   PO4 3099   7.906   3.953   3.921 -0.1753 -0.1548  0.0986
  218POPC   GL1 3100   7.590   4.159   4.266  0.1403  0.1993  0.1384
  218POPC   GL2 3101   7.527   4.533   4.447  0.3602 -0.2653 -0.2477
  218POPC   C1A 3102   7.454   4.008   4.582 -0.1221  0.0114  0.1514
  218POPC   D2A 3103   7.191   3.725   4.550 -0.1377  0.4344 -0.2395
  218POPC   C3A 3104   7.179   3.429   4.833  0.0165  0.1212  0.0461
  218POPC   C4A 3105   7.143   3.065   5.040  0.2476  0.2462  0.1923
  218POPC   C1B 3106   7.842   4.286   4.702  0.0166 -0.1468  0.1127
  218POPC   C2B 3107   7.970   3.952   5.036  0.0172  0.0781  0.0407
  218POPC   C3B 3108   8.334   3.875   5.173  0.3601  0.2786  0.0547
  218POPC   C4B 3109   8.505   3.631   5.404  0.1210 -0.1318  0.0249
  219POPC   NC3 3110   7.919   1.780   3.633 -0.4523  0.2444  0.2787
  219POPC   PO4 3111   7.526   1.673   3.643 -0.0963 -0.2283  0.1551
  219POPC   GL1 3112   7.357   1.653   4.001 -0.3140  0.1750 -0.1017
  219POPC   GL2 3113   7.056   1.730   4.045 -0.0543 -0.3118  0.0897
  219POPC   C1A 3114   7.432   1.819   4.458 -0.1362 -0.0866  0.1544
  219POPC   D2A 3115   7.449   2.116   4.833 -0.0970  0.2667  0.1867
  219POPC   C3A 3116   7.774   2.111   4.877 -0.0386 -0.1710  0.2405
  219POPC   C4A 3117   7.798   1.813   5.140  0.0773 -0.0060  0.0138
  219POPC   C1B 3118   7.000   1.623   4.486  0.0416 -0.6709 -0.1045
  219POPC   C2B 3119   6.971   1.755   4.923 -0.0211 -0.0494  0.0253
  219POPC   C3B 3120   7.114   1.627   5.359 -0.1124 -0.0311  0.2720
  219POPC   C4B 3121   7.041   1.865   5.703 -0.2504 -0.1591 -0.0342
  220POPC   NC3 3122   0.811   2.655   4.785  0.0404 -0.0282 -0.0619
  220POPC   PO4 3123   1.159   2.377   4.820  0.1572  0.3333  0.2089
  220POPC   GL1 3124   1.082   2.257   5.287  0.0135 -0.1396 -0.2053
  220POPC   GL2 3125   1.253   2.502   5.393 -0.5246  0.1408 -0.1662
  220POPC   C1A 3126   1.055   2.093   5.685 -0.1150  0.1330 -0.1442
  220POPC   D2A 3127   1.086   2.109   6.067  0.2854 -0.0396 -0.5359
  220POPC   C3A 3128   1.205   1.844   6.354  0.2260  0.0433 -0.1494
  220POPC   C4A 3129   1.131   1.492   6.579  0.0680  0.0719 -0.2200
  220POPC   C1B 3130   1.342   2.463   5.832  0.0710  0.2565 -0.0163
  220POPC   C2B 3131   1.178   2.709   6.126 -0.0420  0.1940  0.3316
  220POPC   C3B 3132   1.521   2.789   6.508 -0.0311 -0.3066 -0.3003
  220POPC   C4B 3133   1.408   2.989   6.953 -0.3404 -0.1505  0.1227
  221POPC   NC3 3134   2.153   2.093   5.213 -0.0411  0.2380 -0.0154
  221POPC   PO4 3135   2.354   2.462   4.957 -0.1212  0.0508  0.1148
  221POPC   GL1 3136   2.483   2.516   5.286 -0.0977  0.0210  0.0603
  221POPC   GL2 3137   2.453   2.397   5.620 -0.1284 -0.3293 -0.1265
  221POPC   C1A 3138   2.611   2.859   5.584 -0.2317 -0.2249  0.4236
  221POPC   D2A 3139   2.585   3.320   5.690  0.2329  0.1268 -0.0798
  221POPC   C3A 3140   2.471   3.304   6.054 -0.0113  0.3064 -0.2349
  221POPC   C4A 3141   2.343   3.004   6.385  0.1122  0.1928  0.1289
  221POPC   C1B 3142   2.679   2.513   6.005  0.4795 -0.1868 -0.1892
  221POPC   C2B 3143   2.755   2.658   6.357  0.0573 -0.2762  0.1245
  221POPC   C3B 3144   3.124   2.848   6.581 -0.0282  0.0992  0.2863
  221POPC   C4B 3145   3.553   3.056   6.709  0.2344  0.0438  0.2727
  222POPC   NC3 3146   2.626   6.253   4.740  0.0867 -0.0799 -0.1214
  222POPC   PO4 3147   2.908   5.975   4.890 -0.1567  0.1034 -0.3453
  222POPC   GL1 3148   2.664   5.847   5.246  0.3504  0.1258  0.1221
  222POPC   GL2 3149   2.553   5.564   5.281  0.1724 -0.1729  0.2256
  222POPC   C1A 3150   2.602   5.987   5.729  0.2049  0.1009 -0.2513
  222POPC   D2A 3151   2.448   6.251   6.083 -0.0548 -0.0351 -0.1641
  222POPC   C3A 3152   2.584   6.076   6.463 -0.2540  0.0655 -0.0613
  222POPC   C4A 3153   3.073   6.087   6.599  0.1437  0.0157 -0.1389
  222POPC   C1B 3154   2.415   5.414   5.708  0.0832 -0.0321  0.1241
  222POPC   C2B 3155   2.531   5.279   6.043  0.1868 -0.1735  0.0402
  222POPC   C3B 3156   2.536   4.851   6.219 -0.0315  0.0317  0.2558
  222POPC   C4B 3157   2.453   4.565   6.592 -0.3534  0.1485 -0.0190
  223POPC   NC3 3158   9.711   5.464   4.338  0.0049  0.1123  0.0176
  223POPC   PO4 3159   9.724   5.382   4.714  0.2939 -0.2813 -0.1236
  223POPC   GL1 3160   9.816   5.594   5.009 -0.0968  0.0152 -0.0539
  223POPC   GL2 3161  10.145   5.557   5.091  0.0184 -0.1041  0.3280
  223POPC   C1A 3162   9.805   5.773   5.439 -0.1026 -0.0914 -0.2824
  223POPC   D2A 3163   9.621   5.957   5.767  0.2785  0.3951  0.0185
  223POPC   C3A 3164   9.953   5.908   6.158 -0.0643  0.3345 -0.2147
  223POPC   C4A 3165  10.116   6.008   6.534  0.0032 -0.2872 -0.2681
  223POPC   C1B 3166  10.163   5.243   5.408  0.2589 -0.0753 -0.0861
  223POPC   C2B 3167  10.465   5.091   5.759 -0.0652 -0.0781  0.1096
  223POPC   C3B 3168  10.714   5.048   6.216  0.0934  0.3071  0.1531
  223POPC   C4B 3169  10.870   4.734   6.498 -0.2300  0.1957  0.0577
  224POPC   NC3 3170   5.863   4.472   4.193  0.1001 -0.1271  0.0705
  224POPC   PO4 3171   6.155   4.836   4.329 -0.0826  0.1614 -0.3683
  224POPC   GL1 3172   6.089   4.610   4.731  0.2411 -0.0942 -0.2182
  224POPC   GL2 3173   5.884   4.738   4.912  0.2253  0.1451 -0.1330
  224POPC   C1A 3174   6.232   4.478   5.232 -0.2504 -0.1980 -0.1160
  224POPC   D2A 3175   6.508   4.297   5.579 -0.1310  0.1414  0.0696
  224POPC   C3A 3176   6.642   4.511   6.075  0.0659 -0.1769 -0.0301
  224POPC   C4A 3177   6.469   4.582   6.352  0.0481 -0.0340 -0.1368
  224POPC   C1B 3178   5.669   4.480   5.096 -0.2641 -0.1642 -0.0903
  224POPC   C2B 3179   5.769   4.120   5.388  0.1464 -0.0495  0.1692
  224POPC   C3B 3180   5.812   3.709   5.654  0.0522 -0.2608 -0.0720
  224POPC   C4B 3181   5.724   3.773   6.014  0.0330 -0.2094 -0.0652
  225POPC   NC3 3182   5.535  10.143   4.248 -0.0322  0.0195 -0.1046
  225POPC   PO4 3183   5.871  10.307   4.422 -0.0098 -0.0301 -0.2059
  225POPC   GL1 3184   5.634  10.367   4.809  0.0094  0.1354  0.1058
  225POPC   GL2 3185   5.853  10.238   5.012 -0.0181 -0.1037  0.1688
  225POPC   C1A 3186   5.345  10.430   5.152 -0.0692 -0.0634  0.0826
  225POPC   D2A 3187   5.245  10.648   5.451  0.2866 -0.1706  0.1377
  225POPC   C3A 3188   5.242  11.066   5.638  0.1423 -0.1761  0.0229
  225POPC   C4A 3189   5.492  11.424   5.446  0.1531 -0.0799  0.1588
  225POPC   C1B 3190   5.806  10.459   5.464 -0.0867  0.3658 -0.0908
  225POPC   C2B 3191   5.666  10.829   5.827 -0.1932  0.1759  0.3692
  225POPC   C3B 3192   5.616  10.893   6.205 -0.3068  0.0166 -0.1419
  225POPC   C4B 3193   5.864  11.158   6.559  0.0369 -0.1244 -0.2932
  226POPC   NC3 3194   0.966   3.211   4.400  0.1788 -0.0975 -0.0667
  226POPC   PO4 3195   1.312   3.309   4.603 -0.1142  0.1701 -0.2559
  226POPC   GL1 3196   1.374   3.426   5.009 -0.2265 -0.2766  0.0032
  226POPC   GL2 3197   1.707   3.535   5.166 -0.2976 -0.0544 -0.0802
  226POPC   C1A 3198   1.133   3.420   5.360  0.2590 -0.1267  0.0436
  226POPC   D2A 3199   1.088   3.666   5.688 -0.1507  0.2843  0.0942
  226POPC   C3A 3200   0.906   3.448   6.065 -0.1053 -0.0418  0.3326
  226POPC   C4A 3201   0.708   3.334   6.402  0.1638  0.0022 -0.0718
  226POPC   C1B 3202   1.806   3.730   5.596  0.1170 -0.1380 -0.2344
  226POPC   C2B 3203   1.954   3.812   6.072  0.0565 -0.2006  0.2299
  226POPC   C3B 3204   1.747   3.995   6.416 -0.0853 -0.1833  0.0157
  226POPC   C4B 3205   1.955   4.354   6.661  0.1597  0.0490 -0.1651
  227POPC   NC3 3206   9.883   0.428   4.849  0.1837 -0.2654 -0.3462
  227POPC   PO4 3207  10.195   0.169   4.890 -0.0423  0.0186  0.0922
  227POPC   GL1 3208  10.141   0.395   5.263 -0.1590  0.0783 -0.0005
  227POPC   GL2 3209  10.038   0.114   5.382 -0.1599  0.2356  0.1251
  227POPC   C1A 3210  10.363   0.379   5.647  0.0874 -0.2375  0.3073
  227POPC   D2A 3211  10.573   0.458   5.984 -0.0065  0.0359 -0.3276
  227POPC   C3A 3212  10.922   0.265   6.174 -0.3577 -0.0631 -0.0469
  227POPC   C4A 3213  10.990  -0.062   6.409  0.0315  0.1681  0.0508
  227POPC   C1B 3214   9.755   0.087   5.671 -0.1877 -0.0576 -0.0169
  227POPC   C2B 3215   9.481  -0.164   5.940  0.0840 -0.3132  0.3217
  227POPC   C3B 3216   9.308  -0.029   6.376 -0.2295 -0.0859 -0.0549
  227POPC   C4B 3217   9.444  -0.214   6.760 -0.1596 -0.0826 -0.4029
  228POPC   NC3 3218  10.009   4.506   4.655 -0.0401 -0.1532  0.4068
  228POPC   PO4 3219   9.880   4.954   4.637 -0.3360  0.1809  0.1835
  228POPC   GL1 3220   9.818   4.986   5.055 -0.0499 -0.1693 -0.5127
  228POPC   GL2 3221  10.110   4.815   5.102 -0.0569 -0.2931  0.4110
  228POPC   C1A 3222   9.659   5.254   5.448  0.0326  0.2541 -0.2348
  228POPC   D2A 3223   9.783   5.493   5.902  0.0994 -0.0669 -0.0884
  228POPC   C3A 3224   9.828   5.377   6.347  0.0761  0.0434 -0.1627
  228POPC   C4A 3225   9.679   4.962   6.504 -0.2381  0.2526 -0.1885
  228POPC   C1B 3226   9.936   4.817   5.515 -0.1076 -0.1769  0.0853
  228POPC   C2B 3227   9.976   5.036   5.871  0.1641 -0.0130  0.3169
  228POPC   C3B 3228  10.125   4.932   6.150 -0.1223  0.3467  0.0106
  228POPC   C4B 3229  10.135   4.760   6.502  0.0156 -0.0539 -0.0083
  229POPC   NC3 3230   4.241   3.247   3.733 -0.2390 -0.4268  0.1126
  229POPC   PO4 3231   4.181   3.605   4.136 -0.0424  0.0906 -0.1001
  229POPC   GL1 3232   4.500   3.419   4.332  0.0683  0.2317 -0.0925
  229POPC   GL2 3233   4.441   3.174   4.336  0.0151  0.0727 -0.2589
  229POPC   C1A 3234   4.968   3.336   4.480 -0.0402  0.1463 -0.2456
  229POPC   D2A 3235   5.281   3.064   4.569 -0.3116  0.0557  0.0005
  229POPC   C3A 3236   5.617   3.087   4.911  0.0859 -0.0927  0.1292
  229POPC   C4A 3237   5.610   3.416   5.234 -0.1870 -0.3000  0.1859
  229POPC   C1B 3238   4.426   2.882   4.707  0.0191  0.0845 -0.0525
  229POPC   C2B 3239   4.759   2.625   4.938  0.1652 -0.1372 -0.0794
  229POPC   C3B 3240   4.859   2.681   5.419  0.0221 -0.1969  0.1010
  229POPC   C4B 3241   4.846   2.516   5.733  0.0865  0.2698  0.1140
  230POPC   NC3 3242   6.337   6.781   4.987 -0.0455 -0.0275 -0.2065
  230POPC   PO4 3243   6.741   6.590   5.063 -0.1414  0.2889  0.4085
  230POPC   GL1 3244   7.057   6.272   5.237 -0.0430 -0.1316 -0.1828
  230POPC   GL2 3245   6.897   6.008   5.432  0.2692 -0.1173  0.0611
  230POPC   C1A 3246   7.078   6.281   5.748  0.1055  0.0513  0.2058
  230POPC   D2A 3247   6.998   6.069   6.082 -0.2037  0.1019 -0.0467
  230POPC   C3A 3248   6.621   5.876   6.186  0.0980 -0.5931  0.2046
  230POPC   C4A 3249   6.327   5.581   6.320 -0.2261 -0.0532  0.0107
  230POPC   C1B 3250   6.853   5.667   5.675  0.2356 -0.0281  0.0620
  230POPC   C2B 3251   6.746   5.417   6.072 -0.3903  0.0712  0.1783
  230POPC   C3B 3252   6.535   5.079   6.252 -0.0355 -0.2435 -0.0769
  230POPC   C4B 3253   6.379   5.166   6.676  0.2116  0.2209 -0.1306
  231POPC   NC3 3254   7.364   5.360   4.014 -0.0318  0.1712 -0.0244
  231POPC   PO4 3255   7.352   5.132   4.314 -0.0638  0.0675  0.1888
  231POPC   GL1 3256   7.703   5.339   4.573 -0.0513  0.0373  0.0733
  231POPC   GL2 3257   7.657   5.636   4.749  0.1063  0.2372  0.2226
  231POPC   C1A 3258   7.941   5.241   4.978 -0.0554 -0.4360  0.0430
  231POPC   D2A 3259   7.823   5.017   5.409 -0.2915 -0.1739 -0.1484
  231POPC   C3A 3260   8.055   5.113   5.808  0.0197  0.1092 -0.2591
  231POPC   C4A 3261   8.402   5.140   5.905  0.1102 -0.1383  0.0229
  231POPC   C1B 3262   7.522   5.619   5.126  0.0368 -0.1607  0.1299
  231POPC   C2B 3263   7.421   5.479   5.593  0.1123 -0.1262 -0.3025
  231POPC   C3B 3264   7.263   5.556   5.935 -0.0612 -0.2622 -0.0165
  231POPC   C4B 3265   7.120   5.657   6.336 -0.0089  0.1316 -0.4236
  232POPC   NC3 3266   8.204   7.556   5.070 -0.2777  0.1857 -0.2173
  232POPC   PO4 3267   8.398   7.801   4.877 -0.1394 -0.1799  0.0357
  232POPC   GL1 3268   8.529   8.023   5.252  0.0926  0.2410 -0.2505
  232POPC   GL2 3269   8.881   8.129   5.271 -0.3251 -0.3891 -0.2453
  232POPC   C1A 3270   8.579   8.046   5.702  0.0263  0.0022 -0.2028
  232POPC   D2A 3271   8.622   7.761   6.055  0.0608  0.2545  0.2850
  232POPC   C3A 3272   8.664   7.774   6.430  0.0745  0.1593 -0.0742
  232POPC   C4A 3273   9.028   7.638   6.515  0.1185  0.0111  0.0101
  232POPC   C1B 3274   8.986   8.307   5.679  0.3271 -0.0491  0.0136
  232POPC   C2B 3275   9.099   8.469   5.996  0.0872 -0.2286 -0.0518
  232POPC   C3B 3276   9.289   8.565   6.434  0.3601 -0.1573  0.0812
  232POPC   C4B 3277   9.367   8.394   6.769  0.0756 -0.4681  0.1956
  233POPC   NC3 3278   3.341  10.146   4.978 -0.1059  0.1422  0.0386
  233POPC   PO4 3279   3.463  10.490   4.793 -0.2491  0.1318 -0.1483
  233POPC   GL1 3280   3.724  10.527   5.146 -0.0112  0.0462  0.2590
  233POPC   GL2 3281   3.447  10.421   5.367  0.0765 -0.2351  0.1223
  233POPC   C1A 3282   4.002  10.594   5.428  0.4102 -0.2500  0.1836
  233POPC   D2A 3283   4.246  10.459   5.821 -0.0785 -0.1594  0.1096
  233POPC   C3A 3284   4.246  10.432   6.305 -0.0108 -0.1051 -0.2552
  233POPC   C4A 3285   4.361  10.408   6.711  0.3137  0.1563 -0.1919
  233POPC   C1B 3286   3.450  10.647   5.648  0.1722 -0.0479 -0.1192
  233POPC   C2B 3287   3.754  10.764   6.028  0.3672 -0.0317  0.0879
  233POPC   C3B 3288   3.921  10.879   6.387 -0.0381 -0.0324 -0.0561
  233POPC   C4B 3289   4.222  10.873   6.566 -0.3823  0.1094  0.0382
  234POPC   NC3 3290   3.386   6.771   4.765 -0.0747 -0.0176  0.1140
  234POPC   PO4 3291   3.733   6.520   4.818  0.5491 -0.1503 -0.0283
  234POPC   GL1 3292   3.565   6.491   5.212 -0.1999  0.1303  0.0314
  234POPC   GL2 3293   3.411   6.698   5.457  0.0460  0.1086 -0.2023
  234POPC   C1A 3294   3.777   6.365   5.533 -0.0411 -0.0879  0.2755
  234POPC   D2A 3295   4.159   6.396   5.768 -0.0960 -0.1707 -0.3831
  234POPC   C3A 3296   4.250   6.840   5.975 -0.3099 -0.0092  0.0916
  234POPC   C4A 3297   4.285   7.172   6.246 -0.1470  0.0576 -0.1019
  234POPC   C1B 3298   3.293   6.428   5.789  0.0289  0.1687 -0.0044
  234POPC   C2B 3299   3.147   6.018   6.017  0.1508 -0.0822  0.0295
  234POPC   C3B 3300   3.205   5.722   6.343 -0.3868  0.0289 -0.1237
  234POPC   C4B 3301   3.519   5.337   6.366  0.1414  0.2288  0.0478
  235POPC   NC3 3302   1.531   2.632   4.931 -0.2606  0.0646 -0.2842
  235POPC   PO4 3303   1.864   2.585   5.127  0.0487 -0.2146  0.4201
  235POPC   GL1 3304   1.954   2.481   5.470  0.1890 -0.0978 -0.0354
  235POPC   GL2 3305   2.107   2.749   5.534 -0.2639 -0.2042  0.1187
  235POPC   C1A 3306   1.912   2.243   5.851  0.2303  0.2136  0.0494
  235POPC   D2A 3307   1.942   1.968   6.245  0.0019  0.2447  0.2634
  235POPC   C3A 3308   2.167   1.660   6.352  0.0415  0.0077 -0.0081
  235POPC   C4A 3309   1.934   1.220   6.419 -0.1154 -0.1217 -0.1994
  235POPC   C1B 3310   2.161   2.638   5.960  0.0317  0.3776 -0.0972
  235POPC   C2B 3311   1.939   2.550   6.286  0.0337 -0.1756 -0.1290
  235POPC   C3B 3312   1.919   2.232   6.648 -0.1178 -0.0142 -0.0773
  235POPC   C4B 3313   1.870   2.055   7.125  0.0115  0.0777  0.2481
  236POPC   NC3 3314   9.084   2.082   4.730 -0.2111  0.2825 -0.0746
  236POPC   PO4 3315   9.257   1.626   4.539 -0.1033 -0.1634  0.0245
  236POPC   GL1 3316   8.998   1.604   4.943  0.1911 -0.0088 -0.1965
  236POPC   GL2 3317   8.907   1.947   5.209  0.0276 -0.1544 -0.1761
  236POPC   C1A 3318   8.759   1.538   5.365  0.2250  0.3787  0.1175
  236POPC   D2A 3319   8.560   1.338   5.797 -0.2517 -0.0555  0.0906
  236POPC   C3A 3320   8.213   1.408   5.933  0.2559 -0.3062  0.2185
  236POPC   C4A 3321   7.986   1.354   6.341  0.2963 -0.0815 -0.0156
  236POPC   C1B 3322   9.126   2.018   5.580 -0.0487  0.2396 -0.1700
  236POPC   C2B 3323   9.333   1.968   6.010  0.2880 -0.0998  0.2776
  236POPC   C3B 3324   9.363   2.078   6.478  0.0552 -0.0692  0.4081
  236POPC   C4B 3325   9.247   2.268   6.900 -0.1342 -0.2076  0.2464
  237POPC   NC3 3326   0.770   9.076   4.704 -0.0861  0.1326  0.1413
  237POPC   PO4 3327   0.813   9.548   4.745  0.0928  0.1227  0.1416
  237POPC   GL1 3328   0.964   9.538   5.134 -0.0504  0.2312 -0.0260
  237POPC   GL2 3329   0.634   9.673   5.189  0.0062 -0.0833  0.0792
  237POPC   C1A 3330   1.195   9.713   5.518 -0.1965  0.2329 -0.0472
  237POPC   D2A 3331   1.230   9.869   5.897  0.2753 -0.3060 -0.2226
  237POPC   C3A 3332   1.370  10.263   6.104 -0.1789 -0.0528  0.2744
  237POPC   C4A 3333   1.339  10.419   6.427 -0.1380 -0.0848 -0.0659
  237POPC   C1B 3334   0.718   9.681   5.676 -0.4596  0.0986 -0.0586
  237POPC   C2B 3335   0.973   9.406   5.979  0.1140  0.3563  0.0885
  237POPC   C3B 3336   0.769   9.147   6.345 -0.0985  0.3198  0.0610
  237POPC   C4B 3337   0.331   9.196   6.415 -0.0637  0.1621 -0.3520
  238POPC   NC3 3338   0.384   9.378   4.434  0.1168  0.1382  0.0162
  238POPC   PO4 3339   0.068   9.248   4.726 -0.1251  0.2284  0.3800
  238POPC   GL1 3340   0.379   9.214   5.011  0.0885  0.0049 -0.2268
  238POPC   GL2 3341   0.432   8.873   5.074 -0.0264 -0.0791  0.4315
  238POPC   C1A 3342   0.501   9.203   5.422 -0.0056 -0.1105 -0.0318
  238POPC   D2A 3343   0.700   8.938   5.773 -0.0201  0.0306 -0.0707
  238POPC   C3A 3344   0.961   8.614   5.678  0.1210 -0.0763 -0.2002
  238POPC   C4A 3345   0.806   8.263   5.926 -0.3062  0.2168 -0.1212
  238POPC   C1B 3346   0.484   8.617   5.407  0.1326  0.0834 -0.4447
  238POPC   C2B 3347   0.346   8.637   5.823 -0.0319 -0.0094 -0.1524
  238POPC   C3B 3348   0.198   8.761   6.155 -0.0247  0.0897  0.0809
  238POPC   C4B 3349  -0.034   8.727   6.519  0.1538  0.1209 -0.0629
  239POPC   NC3 3350   1.431   0.041   4.940 -0.1869 -0.0903 -0.0044
  239POPC   PO4 3351   1.030   0.330   5.064  0.1196 -0.1783  0.0994
  239POPC   GL1 3352   0.814   0.186   5.454  0.3511 -0.2848  0.0103
  239POPC   GL2 3353   0.617   0.060   5.290  0.0773  0.2201  0.0636
  239POPC   C1A 3354   0.757   0.423   5.802  0.1388  0.0168 -0.1628
  239POPC   D2A 3355   0.810   0.670   6.179 -0.0317  0.2391 -0.0218
  239POPC   C3A 3356   0.463   0.772   6.383 -0.0805 -0.0146 -0.0198
  239POPC   C4A 3357   0.409   0.955   6.780  0.0154 -0.1934 -0.1154
  239POPC   C1B 3358   0.676  -0.318   5.537 -0.0401 -0.1791 -0.1622
  239POPC   C2B 3359   0.679  -0.452   5.996 -0.3284  0.3001 -0.1901
  239POPC   C3B 3360   0.756  -0.574   6.476  0.6310  0.1730 -0.0606
  239POPC   C4B 3361   0.614  -0.911   6.676  0.1724  0.0093 -0.0512
  240POPC   NC3 3362   6.411   4.334   3.641  0.1454 -0.1859  0.2044
  240POPC   PO4 3363   6.280   4.225   3.966 -0.0788  0.2303 -0.0373
  240POPC   GL1 3364   6.294   4.268   4.404 -0.0759 -0.0369  0.0716
  240POPC   GL2 3365   6.560   4.594   4.470 -0.2758 -0.1985  0.0451
  240POPC   C1A 3366   6.096   4.142   4.773 -0.1002 -0.0897  0.0955
  240POPC   D2A 3367   6.015   3.764   5.096  0.3894  0.4200  0.1759
  240POPC   C3A 3368   6.133   3.400   5.162  0.1915  0.2777  0.2094
  240POPC   C4A 3369   6.314   3.082   5.162  0.1122  0.1876  0.2858
  240POPC   C1B 3370   6.591   4.499   4.892 -0.1755 -0.3209 -0.3752
  240POPC   C2B 3371   6.845   4.267   5.239 -0.0327 -0.0355 -0.1257
  240POPC   C3B 3372   7.172   4.089   5.443  0.5099  0.1614  0.0307
  240POPC   C4B 3373   7.449   4.272   5.772  0.2257  0.2029 -0.0602
  241POPC   NC3 3374   3.832   3.955   4.359 -0.3599 -0.0114  0.1175
  241POPC   PO4 3375   3.602   3.687   4.692  0.0819 -0.3054 -0.1985
  241POPC   GL1 3376   3.671   3.818   5.141  0.0359 -0.0985  0.2973
  241POPC   GL2 3377   3.331   3.719   5.418 -0.0568  0.4368 -0.3646
  241POPC   C1A 3378   3.707   4.050   5.448  0.1900 -0.0856 -0.0201
  241POPC   D2A 3379   3.686   4.248   5.880 -0.2241  0.1301  0.4058
  241POPC   C3A 3380   3.438   4.524   5.857 -0.0504 -0.0146 -0.2484
  241POPC   C4A 3381   2.991   4.734   5.940  0.0827 -0.1892  0.1092
  241POPC   C1B 3382   3.478   3.755   5.890 -0.1087  0.2958 -0.1150
  241POPC   C2B 3383   3.613   3.779   6.242 -0.3764 -0.1707  0.2484
  241POPC   C3B 3384   3.845   3.993   6.507  0.1012 -0.1509  0.0610
  241POPC   C4B 3385   3.752   4.046   6.940 -0.1978 -0.2737 -0.2891
  242POPC   NC3 3386   8.364   9.742   3.973  0.1664 -0.0025  0.0701
  242POPC   PO4 3387   8.197  10.007   4.496  0.0053  0.1973 -0.2147
  242POPC   GL1 3388   8.061  10.041   4.977  0.0430 -0.1774  0.1449
  242POPC   GL2 3389   8.223   9.754   5.133 -0.1814  0.1848 -0.1904
  242POPC   C1A 3390   8.298  10.277   5.330 -0.0619  0.3729 -0.1113
  242POPC   D2A 3391   8.068  10.532   5.599 -0.1872 -0.1174 -0.0641
  242POPC   C3A 3392   8.195  10.881   5.835 -0.2529  0.2099  0.3226
  242POPC   C4A 3393   8.163  11.299   5.854  0.1371  0.0383 -0.1054
  242POPC   C1B 3394   8.010   9.616   5.566  0.3074 -0.0889 -0.1788
  242POPC   C2B 3395   7.514   9.754   5.737  0.1482  0.1182 -0.0721
  242POPC   C3B 3396   7.410   9.731   6.173  0.2769 -0.0441 -0.2074
  242POPC   C4B 3397   7.651   9.892   6.448  0.0021 -0.3178  0.0878
  243POPC   NC3 3398   2.278   9.808   4.866  0.1778  0.0739 -0.0684
  243POPC   PO4 3399   2.434   9.359   4.949 -0.2805 -0.1240  0.0243
  243POPC   GL1 3400   2.557   9.078   5.247  0.2235 -0.1463  0.3730
  243POPC   GL2 3401   2.568   9.213   5.541 -0.2432  0.0406 -0.1204
  243POPC   C1A 3402   2.282   8.789   5.429 -0.3298  0.0959  0.1098
  243POPC   D2A 3403   2.343   8.291   5.500  0.0816  0.0646 -0.0171
  243POPC   C3A 3404   2.238   8.182   5.959 -0.1161 -0.1514 -0.1817
  243POPC   C4A 3405   2.437   7.882   6.334  0.0942  0.2430 -0.0555
  243POPC   C1B 3406   2.165   9.241   5.816 -0.1644 -0.2928  0.0753
  243POPC   C2B 3407   1.892   8.930   5.891  0.0418  0.0305  0.0253
  243POPC   C3B 3408   1.634   8.893   6.236  0.5596 -0.3050 -0.1091
  243POPC   C4B 3409   1.264   8.964   6.520  0.0230  0.1645  0.1868
  244POPC   NC3 3410   1.429   6.777   4.727  0.1621  0.0569  0.1028
  244POPC   PO4 3411   1.129   6.523   4.970 -0.0855 -0.0139 -0.0451
  244POPC   GL1 3412   0.937   6.470   5.394 -0.3597 -0.5818  0.0859
  244POPC   GL2 3413   0.729   6.252   5.324  0.1122 -0.2078 -0.0280
  244POPC   C1A 3414   1.066   6.671   5.722 -0.1893  0.0024  0.0093
  244POPC   D2A 3415   1.116   6.877   6.053  0.0237  0.3222 -0.2734
  244POPC   C3A 3416   1.193   6.564   6.360 -0.1612  0.1635  0.1129
  244POPC   C4A 3417   1.426   6.368   6.664  0.2394 -0.0783  0.0416
  244POPC   C1B 3418   0.480   6.310   5.698  0.1905  0.1786 -0.2118
  244POPC   C2B 3419   0.078   6.126   5.929 -0.1581 -0.2314  0.1275
  244POPC   C3B 3420   0.058   5.878   6.277 -0.0582  0.0369 -0.1874
  244POPC   C4B 3421   0.160   5.746   6.709  0.0034 -0.0808 -0.2379
  245POPC   NC3 3422   0.543   1.624   4.791  0.0303  0.1958 -0.0115
  245POPC   PO4 3423   0.266   1.885   5.179  0.2010  0.3445  0.3260
  245POPC   GL1 3424   0.134   1.851   5.592  0.1266  0.0621  0.3899
  245POPC   GL2 3425   0.003   1.467   5.625 -0.0385  0.0320 -0.2341
  245POPC   C1A 3426   0.045   2.187   5.837 -0.3758  0.0355  0.2115
  245POPC   D2A 3427  -0.227   2.441   6.080  0.0474  0.1391  0.0787
  245POPC   C3A 3428  -0.317   2.523   6.524  0.0419 -0.0632 -0.0107
  245POPC   C4A 3429  -0.570   2.616   6.941  0.2702 -0.0371  0.3457
  245POPC   C1B 3430  -0.227   1.421   6.040  0.0244 -0.1937  0.0802
  245POPC   C2B 3431  -0.285   1.515   6.487 -0.4639  0.1904  0.2164
  245POPC   C3B 3432  -0.056   1.407   6.893  0.3332 -0.1482 -0.3746
  245POPC   C4B 3433   0.082   1.097   7.217  0.0865 -0.2563 -0.0068
  246POPC   NC3 3434   9.577   5.846   4.663 -0.1601  0.1927 -0.0129
  246POPC   PO4 3435   9.236   5.492   4.438 -0.3278  0.1274  0.0173
  246POPC   GL1 3436   9.263   5.564   4.883  0.0837  0.0951 -0.1778
  246POPC   GL2 3437   9.339   5.237   5.047  0.1415  0.1719  0.3189
  246POPC   C1A 3438   9.199   5.739   5.312  0.0344 -0.0932  0.3169
  246POPC   D2A 3439   9.100   5.953   5.851 -0.2437  0.0497  0.2814
  246POPC   C3A 3440   9.269   6.224   6.044 -0.1252  0.1339 -0.0513
  246POPC   C4A 3441   9.565   6.276   6.308  0.0473  0.0285 -0.3446
  246POPC   C1B 3442   9.293   4.794   5.371  0.0755 -0.0918 -0.0385
  246POPC   C2B 3443   9.087   4.781   5.714 -0.2196 -0.2091 -0.0273
  246POPC   C3B 3444   8.822   4.846   6.064  0.2483  0.0085 -0.0861
  246POPC   C4B 3445   8.620   4.618   6.229 -0.0719  0.0908 -0.0057
  247POPC   NC3 3446   2.304   9.566   4.481 -0.3178  0.0996  0.1995
  247POPC   PO4 3447   2.019   9.301   4.730 -0.0941  0.0917  0.1484
  247POPC   GL1 3448   2.020   9.083   5.083  0.1065  0.0700 -0.0377
  247POPC   GL2 3449   2.059   9.242   5.312 -0.0061 -0.0359  0.1100
  247POPC   C1A 3450   1.766   8.901   5.439 -0.2220  0.2548 -0.1785
  247POPC   D2A 3451   1.446   8.858   5.687  0.2402 -0.3480 -0.2747
  247POPC   C3A 3452   1.159   8.963   6.053 -0.2587 -0.1350 -0.0483
  247POPC   C4A 3453   0.791   8.639   6.214 -0.1651  0.0488 -0.0907
  247POPC   C1B 3454   1.754   9.456   5.484  0.2761 -0.0452  0.2493
  247POPC   C2B 3455   1.643   9.812   5.659  0.0804  0.0317 -0.2491
  247POPC   C3B 3456   1.704   9.940   6.080  0.0320 -0.2862 -0.0378
  247POPC   C4B 3457   1.762  10.081   6.450 -0.3446  0.0972 -0.0969
  248POPC   NC3 3458   6.317   2.908   3.229 -0.3747  0.1145 -0.2568
  248POPC   PO4 3459   6.160   3.135   3.440 -0.0963 -0.0174  0.1235
  248POPC   GL1 3460   5.857   3.146   3.730 -0.0106  0.1065 -0.0719
  248POPC   GL2 3461   5.859   3.434   3.881  0.2987 -0.1558  0.0331
  248POPC   C1A 3462   5.525   3.028   4.058  0.0210 -0.0586  0.1235
  248POPC   D2A 3463   5.044   2.976   4.060  0.1322 -0.1030 -0.2610
  248POPC   C3A 3464   4.897   2.793   4.401 -0.0098  0.0199  0.0430
  248POPC   C4A 3465   5.142   2.522   4.622  0.1331 -0.1161  0.1691
  248POPC   C1B 3466   6.191   3.522   4.189  0.2228  0.0157 -0.1346
  248POPC   C2B 3467   6.281   3.755   4.463  0.1014 -0.0610  0.0389
  248POPC   C3B 3468   6.413   3.778   4.864  0.0267  0.1905 -0.1245
  248POPC   C4B 3469   6.454   4.034   5.140  0.2204 -0.1601  0.3148
  249POPC   NC3 3470   3.714  10.337   4.396  0.3740 -0.2163 -0.1728
  249POPC   PO4 3471   3.830  10.120   4.779 -0.2419  0.0733  0.0536
  249POPC   GL1 3472   4.101  10.250   5.091  0.2226  0.2223 -0.3242
  249POPC   GL2 3473   3.897  10.086   5.299 -0.0129 -0.0229 -0.3442
  249POPC   C1A 3474   4.409  10.233   5.413  0.0653 -0.1225 -0.0357
  249POPC   D2A 3475   4.548   9.866   5.752 -0.0865  0.1948  0.5145
  249POPC   C3A 3476   4.967   9.888   5.935 -0.1089 -0.0056  0.1146
  249POPC   C4A 3477   5.279   9.956   6.251  0.2293 -0.0898  0.2031
  249POPC   C1B 3478   3.758  10.231   5.732 -0.0225 -0.0770 -0.2312
  249POPC   C2B 3479   3.725  10.176   6.260 -0.0492 -0.1649  0.1724
  249POPC   C3B 3480   4.019   9.961   6.585 -0.1291  0.1094  0.0477
  249POPC   C4B 3481   4.120   9.735   7.007  0.1302 -0.0422 -0.0599
  250POPC   NC3 3482   8.832   2.587   4.477 -0.1747  0.0422 -0.3161
  250POPC   PO4 3483   9.274   2.544   4.657 -0.0147  0.1182  0.0288
  250POPC   GL1 3484   9.115   2.505   5.096  0.2122 -0.1343 -0.1383
  250POPC   GL2 3485   9.335   2.384   5.261 -0.1875  0.1578  0.2901
  250POPC   C1A 3486   8.902   2.532   5.469 -0.4537  0.0807  0.2674
  250POPC   D2A 3487   8.512   2.731   5.414  0.2135 -0.0424 -0.0569
  250POPC   C3A 3488   8.169   2.542   5.641  0.1469 -0.3178 -0.1978
  250POPC   C4A 3489   8.210   2.158   5.851  0.2700  0.2008  0.2288
  250POPC   C1B 3490   9.396   2.804   5.453 -0.2607 -0.1072 -0.1019
  250POPC   C2B 3491   9.271   3.225   5.285 -0.0615 -0.0134 -0.1817
  250POPC   C3B 3492   8.924   3.511   5.234 -0.0401 -0.0182 -0.0308
  250POPC   C4B 3493   8.764   3.922   4.996  0.0171 -0.3616  0.0405
  251POPC   NC3 3494   1.711   4.568   4.606 -0.1936  0.2452  0.0023
  251POPC   PO4 3495   1.400   4.915   4.846  0.1936  0.1751 -0.0230
  251POPC   GL1 3496   1.088   4.881   5.191  0.2053 -0.0724  0.4638
  251POPC   GL2 3497   0.967   4.590   5.200  0.0032 -0.0653 -0.3207
  251POPC   C1A 3498   0.914   4.867   5.627  0.1459  0.2092 -0.0131
  251POPC   D2A 3499   0.647   4.807   6.087  0.0524 -0.1217 -0.1033
  251POPC   C3A 3500   0.870   5.079   6.399  0.0241  0.0414 -0.0212
  251POPC   C4A 3501   1.060   4.990   6.843 -0.0089  0.0424 -0.2624
  251POPC   C1B 3502   1.223   4.461   5.466 -0.1815 -0.0637 -0.3117
  251POPC   C2B 3503   1.033   4.494   5.903 -0.1621 -0.1948  0.1104
  251POPC   C3B 3504   1.182   4.708   6.210 -0.1121  0.0919  0.1750
  251POPC   C4B 3505   1.401   5.031   6.328 -0.1038  0.0549  0.2317
  252POPC   NC3 3506   6.615   5.390   3.818  0.1655  0.1923  0.2036
  252POPC   PO4 3507   6.894   5.320   4.278 -0.3033  0.1235 -0.1197
  252POPC   GL1 3508   7.108   5.168   4.692  0.1643  0.1503 -0.0503
  252POPC   GL2 3509   7.348   4.997   4.802  0.1032 -0.1497  0.3950
  252POPC   C1A 3510   6.850   4.920   5.053  0.3653  0.0001 -0.2004
  252POPC   D2A 3511   6.670   4.717   5.420 -0.2513 -0.1273  0.1415
  252POPC   C3A 3512   6.475   4.808   5.700 -0.0911  0.0994 -0.2164
  252POPC   C4A 3513   6.207   5.103   5.902  0.0829 -0.0664 -0.3536
  252POPC   C1B 3514   7.414   5.053   5.208  0.0791 -0.0515  0.0407
  252POPC   C2B 3515   7.422   4.897   5.797 -0.2086  0.2554 -0.0019
  252POPC   C3B 3516   7.333   4.600   6.134  0.1889 -0.0628  0.0325
  252POPC   C4B 3517   7.377   4.734   6.532  0.2521  0.2734 -0.0799
  253POPC   NC3 3518   3.977   9.625   5.166  0.2838  0.1614  0.0754
  253POPC   PO4 3519   3.507   9.731   5.258 -0.0265  0.0207  0.2848
  253POPC   GL1 3520   3.633   9.565   5.594 -0.1730 -0.0839  0.1761
  253POPC   GL2 3521   3.928   9.766   5.710 -0.1229 -0.2438  0.2370
  253POPC   C1A 3522   3.649   9.247   5.968  0.0861  0.1177 -0.2557
  253POPC   D2A 3523   3.716   9.008   6.339  0.1471 -0.1124  0.2466
  253POPC   C3A 3524   3.991   8.717   6.166 -0.0529  0.2481  0.0015
  253POPC   C4A 3525   4.004   8.323   5.870  0.1520  0.0563 -0.0395
  253POPC   C1B 3526   4.144   9.848   6.127 -0.0055  0.1958  0.1762
  253POPC   C2B 3527   4.528  10.036   6.269 -0.0622  0.0378  0.0339
  253POPC   C3B 3528   4.849  10.107   6.600  0.2885  0.3752  0.1459
  253POPC   C4B 3529   4.828  10.502   6.943  0.2779  0.0519  0.0546
  254POPC   NC3 3530   2.084   0.529   4.781  0.1334  0.0671  0.0729
  254POPC   PO4 3531   1.850   0.854   4.908  0.0605 -0.0401 -0.0902
  254POPC   GL1 3532   1.797   0.729   5.470 -0.2065 -0.0024 -0.1604
  254POPC   GL2 3533   2.112   1.044   5.419  0.2561 -0.2290 -0.1576
  254POPC   C1A 3534   1.680   0.703   5.855  0.1314  0.0861 -0.2366
  254POPC   D2A 3535   1.568   0.932   6.264  0.1449 -0.1550 -0.0987
  254POPC   C3A 3536   1.132   0.948   6.407  0.0535  0.0975  0.2613
  254POPC   C4A 3537   0.811   1.131   6.480 -0.2354  0.0441  0.3202
  254POPC   C1B 3538   1.748   1.177   5.780 -0.3631  0.3838  0.0011
  254POPC   C2B 3539   1.548   1.392   6.103  0.1233  0.0492  0.0528
  254POPC   C3B 3540   1.617   1.654   6.542  0.1368 -0.2567 -0.3445
  254POPC   C4B 3541   1.481   2.026   6.767  0.2412  0.2069 -0.2211
  255POPC   NC3 3542   0.027   5.227   4.891  0.1526 -0.1039 -0.0814
  255POPC   PO4 3543   0.357   5.309   4.633  0.2225  0.0394 -0.0358
  255POPC   GL1 3544   0.545   5.502   4.980  0.0266  0.1903 -0.1698
  255POPC   GL2 3545   0.371   5.377   5.230 -0.0826 -0.1236 -0.1658
  255POPC   C1A 3546   0.697   5.797   5.411  0.1183  0.1548  0.0633
  255POPC   D2A 3547   0.667   5.858   5.707  0.1023  0.1545  0.2239
  255POPC   C3A 3548   0.953   5.688   6.100 -0.2382  0.0456  0.0663
  255POPC   C4A 3549   1.177   5.499   6.387 -0.1081  0.4019 -0.0067
  255POPC   C1B 3550   0.283   5.521   5.577  0.2540  0.0712  0.0882
  255POPC   C2B 3551   0.344   5.510   6.007  0.3265 -0.0821 -0.1958
  255POPC   C3B 3552   0.469   5.424   6.522  0.2349  0.0220  0.4719
  255POPC   C4B 3553   0.843   5.493   6.853 -0.1224 -0.1627 -0.0488
  256POPC   NC3 3554   5.101   7.677   5.389 -0.1560 -0.1407 -0.0984
  256POPC   PO4 3555   5.197   7.248   5.185 -0.1407  0.1101  0.0566
  256POPC   GL1 3556   5.171   7.183   5.566  0.1090 -0.0373  0.2592
  256POPC   GL2 3557   5.511   7.085   5.586 -0.2864 -0.0330  0.2418
  256POPC   C1A 3558   5.176   7.263   6.036  0.1119  0.0867  0.0186
  256POPC   D2A 3559   5.202   7.740   6.133 -0.0281 -0.0328  0.1206
  256POPC   C3A 3560   5.524   7.944   6.487  0.3069 -0.0788 -0.2596
  256POPC   C4A 3561   5.672   7.766   6.815 -0.0831 -0.0125 -0.0610
  256POPC   C1B 3562   5.585   6.933   6.035 -0.3063  0.5598  0.0683
  256POPC   C2B 3563   5.228   6.933   6.382  0.3573  0.4624 -0.0864
  256POPC   C3B 3564   5.145   6.991   6.789  0.1793 -0.2445  0.0204
  256POPC   C4B 3565   5.172   6.951   7.170  0.1669  0.1156 -0.0647
  257POPC   NC3 3566   3.630   1.736   4.737  0.0500  0.1114  0.0568
  257POPC   PO4 3567   3.739   1.279   4.780  0.2604  0.1618  0.1766
  257POPC   GL1 3568   3.706   1.475   5.215 -0.1972  0.0023 -0.0513
  257POPC   GL2 3569   3.559   1.265   5.504 -0.1827  0.3485 -0.2721
  257POPC   C1A 3570   4.044   1.466   5.478 -0.1485 -0.1904  0.0197
  257POPC   D2A 3571   4.179   1.559   5.921  0.1156 -0.2836  0.2734
  257POPC   C3A 3572   4.447   1.919   6.202 -0.2350  0.3322  0.1856
  257POPC   C4A 3573   4.580   1.853   6.524  0.4079  0.1499 -0.1743
  257POPC   C1B 3574   3.641   1.364   5.906  0.0003 -0.3356 -0.0765
  257POPC   C2B 3575   3.765   1.432   6.321 -0.2151 -0.1126  0.1361
  257POPC   C3B 3576   4.162   1.389   6.485 -0.2409 -0.0380  0.2461
  257POPC   C4B 3577   4.437   1.248   6.665  0.1510 -0.3460  0.0795
  258POPC   NC3 3578   8.377   7.016   4.513 -0.2971  0.0404 -0.2589
  258POPC   PO4 3579   8.165   7.045   4.927 -0.1128  0.0848 -0.2458
  258POPC   GL1 3580   8.135   6.755   5.229 -0.2513 -0.1321  0.1228
  258POPC   GL2 3581   8.210   6.459   5.027 -0.0171  0.0565  0.0142
  258POPC   C1A 3582   8.023   6.465   5.473 -0.3075 -0.0224  0.0448
  258POPC   D2A 3583   7.859   6.167   5.845 -0.4305 -0.0146 -0.2328
  258POPC   C3A 3584   7.790   5.598   5.917 -0.3740 -0.1667  0.1332
  258POPC   C4A 3585   7.674   5.240   6.141  0.0252  0.1581  0.2079
  258POPC   C1B 3586   8.231   6.115   5.181  0.0570  0.2559  0.2384
  258POPC   C2B 3587   8.224   5.964   5.549 -0.3547 -0.3888 -0.0670
  258POPC   C3B 3588   8.274   5.622   5.850  0.0704  0.0308 -0.2073
  258POPC   C4B 3589   8.189   5.377   6.280 -0.0373 -0.0222  0.1997
  259POPC   NC3 3590   3.260   4.344   4.625 -0.1127 -0.0413  0.2421
  259POPC   PO4 3591   3.659   4.177   4.775 -0.3340 -0.1811  0.2552
  259POPC   GL1 3592   3.847   4.365   5.133 -0.2112 -0.0030  0.0087
  259POPC   GL2 3593   4.019   4.699   5.026  0.0054  0.1402  0.1344
  259POPC   C1A 3594   3.810   4.646   5.534  0.4824 -0.2908 -0.1425
  259POPC   D2A 3595   4.047   4.857   5.947  0.0717  0.1320  0.1823
  259POPC   C3A 3596   3.822   4.665   6.357  0.3419 -0.4131  0.1882
  259POPC   C4A 3597   3.641   4.854   6.746 -0.1569 -0.1618 -0.1058
  259POPC   C1B 3598   4.302   4.568   5.305 -0.0237  0.3996 -0.0666
  259POPC   C2B 3599   4.623   4.607   5.646  0.0741 -0.1484 -0.4228
  259POPC   C3B 3600   4.554   4.738   6.147 -0.1472  0.0633  0.1695
  259POPC   C4B 3601   4.287   4.863   6.381  0.0624  0.0424 -0.1496
  260POPC   NC3 3602  10.379   8.961   4.275 -0.2848  0.4188  0.1716
  260POPC   PO4 3603  10.219   8.826   4.670 -0.1701 -0.0706 -0.0263
  260POPC   GL1 3604  10.310   8.871   5.014  0.0517  0.0792  0.1730
  260POPC   GL2 3605  10.177   9.233   5.175 -0.2320  0.0637 -0.3903
  260POPC   C1A 3606  10.511   8.846   5.465  0.0573  0.5085 -0.0697
  260POPC   D2A 3607  10.564   9.056   5.783  0.3208 -0.0251 -0.1175
  260POPC   C3A 3608  10.865   9.291   5.906 -0.1323  0.1023  0.0653
  260POPC   C4A 3609  11.037   9.570   6.193  0.2765 -0.0698  0.0690
  260POPC   C1B 3610  10.237   9.391   5.507 -0.0526  0.2973 -0.0048
  260POPC   C2B 3611  10.018   9.321   5.898 -0.0073 -0.2646 -0.2290
  260POPC   C3B 3612   9.871   9.379   6.275  0.0161  0.0913  0.2792
  260POPC   C4B 3613   9.647   9.377   6.655  0.0671  0.1347 -0.0532
  261POPC   NC3 3614   8.160   6.584   4.544 -0.2173  0.1073 -0.1645
  261POPC   PO4 3615   7.833   6.493   4.642 -0.1246 -0.2454  0.1307
  261POPC   GL1 3616   7.651   6.287   5.048 -0.1588  0.2034 -0.0051
  261POPC   GL2 3617   7.598   6.511   5.250  0.1934  0.1058 -0.1862
  261POPC   C1A 3618   7.693   6.005   5.427 -0.0446 -0.2220  0.1564
  261POPC   D2A 3619   7.443   5.995   5.736 -0.2216  0.1636 -0.0098
  261POPC   C3A 3620   7.519   5.936   6.144  0.1322 -0.0284 -0.2444
  261POPC   C4A 3621   7.577   5.596   6.445 -0.0357  0.1182 -0.0587
  261POPC   C1B 3622   7.550   6.504   5.735 -0.1646  0.0069 -0.1792
  261POPC   C2B 3623   7.376   6.387   6.212 -0.2485 -0.0476  0.1706
  261POPC   C3B 3624   7.273   6.086   6.600  0.0963  0.0677 -0.1983
  261POPC   C4B 3625   7.579   5.913   6.912  0.0971 -0.0683  0.4231
  262POPC   NC3 3626   9.782   8.937   5.035 -0.2205 -0.0409 -0.0909
  262POPC   PO4 3627   9.597   9.262   5.101  0.0842 -0.0973 -0.3903
  262POPC   GL1 3628   9.696   9.336   5.475 -0.1791  0.4621  0.0208
  262POPC   GL2 3629   9.539   9.019   5.518  0.2108 -0.0121  0.0829
  262POPC   C1A 3630   9.516   9.380   5.876  0.1688 -0.1142  0.0472
  262POPC   D2A 3631   9.330   9.463   6.257 -0.0206 -0.2357 -0.2492
  262POPC   C3A 3632   8.996   9.525   6.413  0.0276  0.0481  0.0700
  262POPC   C4A 3633   8.730   9.407   6.583  0.1381 -0.0098 -0.1222
  262POPC   C1B 3634  10.047   8.912   5.639 -0.2766  0.3029  0.0763
  262POPC   C2B 3635  10.164   8.851   6.086 -0.0726 -0.1509 -0.0203
  262POPC   C3B 3636  10.318   9.213   6.275 -0.1458 -0.2126  0.1834
  262POPC   C4B 3637  10.478   9.472   6.132  0.2381 -0.2239  0.1542
  263POPC   NC3 3638   6.137  10.059   4.077 -0.0080 -0.0568  0.1075
  263POPC   PO4 3639   6.265   9.998   4.465 -0.1491  0.0647 -0.1111
  263POPC   GL1 3640   6.340  10.285   4.880 -0.2027  0.1000 -0.0383
  263POPC   GL2 3641   6.714  10.346   5.011 -0.0084  0.0035  0.4804
  263POPC   C1A 3642   6.267  10.278   5.347  0.2179  0.0809  0.0119
  263POPC   D2A 3643   5.899   9.982   5.499 -0.1355  0.0828  0.2758
  263POPC   C3A 3644   5.791  10.098   5.920  0.0077 -0.0370  0.1292
  263POPC   C4A 3645   5.582  10.412   6.313  0.2997 -0.1876 -0.2236
  263POPC   C1B 3646   6.520  10.650   5.236 -0.2359  0.1112  0.5515
  263POPC   C2B 3647   6.537  10.723   5.631 -0.1482 -0.2269 -0.1167
  263POPC   C3B 3648   6.536  10.923   5.917  0.0363 -0.0596  0.3079
  263POPC   C4B 3649   6.154  11.105   6.083  0.0867 -0.0267 -0.0017
  264POPC   NC3 3650   4.372   0.441   4.643 -0.0502 -0.2169 -0.2053
  264POPC   PO4 3651   4.654   0.284   4.321 -0.1707  0.0205 -0.0949
  264POPC   GL1 3652   4.812   0.215   4.667 -0.0975 -0.0447 -0.3121
  264POPC   GL2 3653   5.128   0.089   4.605  0.0891 -0.3475 -0.2530
  264POPC   C1A 3654   4.938   0.471   5.025  0.3619 -0.1063 -0.4556
  264POPC   D2A 3655   5.072   0.834   5.211  0.1430  0.2248  0.1884
  264POPC   C3A 3656   4.867   1.024   5.444 -0.0255  0.6298  0.0173
  264POPC   C4A 3657   5.021   1.123   5.845 -0.2014  0.2274 -0.1351
  264POPC   C1B 3658   5.426   0.346   4.834  0.0415 -0.0124  0.0330
  264POPC   C2B 3659   5.632   0.731   4.863 -0.1026 -0.0136  0.0886
  264POPC   C3B 3660   5.947   0.872   5.243 -0.1776 -0.0438  0.0327
  264POPC   C4B 3661   5.844   1.358   5.397  0.0239  0.2195 -0.1927
  265POPC   NC3 3662   9.079   4.582   4.346  0.0632  0.2408 -0.0591
  265POPC   PO4 3663   9.202   4.201   4.623  0.1318  0.0165 -0.0178
  265POPC   GL1 3664   9.141   4.547   4.879  0.0145 -0.0505 -0.1606
  265POPC   GL2 3665   9.521   4.622   4.939  0.2818 -0.0602 -0.0737
  265POPC   C1A 3666   8.851   4.851   5.176  0.0117 -0.0696 -0.0230
  265POPC   D2A 3667   8.547   5.157   5.453 -0.0393  0.0094 -0.0628
  265POPC   C3A 3668   8.322   5.368   5.243 -0.1687 -0.0305 -0.0006
  265POPC   C4A 3669   7.960   5.519   5.436 -0.0791 -0.0296  0.0305
  265POPC   C1B 3670   9.503   4.385   5.402  0.1051 -0.1214 -0.0245
  265POPC   C2B 3671   9.541   4.620   5.764  0.0185 -0.0139 -0.2274
  265POPC   C3B 3672   9.481   5.021   5.911 -0.0004 -0.1355  0.1809
  265POPC   C4B 3673   9.323   5.268   6.253  0.1207  0.3014  0.0300
  266POPC   NC3 3674   7.354   9.578   4.737  0.1227 -0.1684  0.0338
  266POPC   PO4 3675   7.124   9.833   4.660 -0.1693  0.1664  0.2193
  266POPC   GL1 3676   7.210  10.040   5.035  0.1535  0.1017  0.0953
  266POPC   GL2 3677   7.568  10.147   5.044  0.1010 -0.2128  0.2344
  266POPC   C1A 3678   7.181  10.125   5.443  0.1524 -0.0083  0.3440
  266POPC   D2A 3679   7.344  10.219   5.780  0.0325 -0.0296 -0.1900
  266POPC   C3A 3680   7.698  10.198   5.999  0.0268  0.0889  0.1069
  266POPC   C4A 3681   7.864  10.372   6.302  0.2620  0.0458  0.0221
  266POPC   C1B 3682   7.818  10.154   5.503  0.1869 -0.2622 -0.1397
  266POPC   C2B 3683   8.162  10.098   5.862  0.0752  0.0758 -0.2355
  266POPC   C3B 3684   8.296  10.001   6.276  0.1580 -0.3426  0.0811
  266POPC   C4B 3685   8.126   9.765   6.579  0.0945 -0.2055 -0.2394
  267POPC   NC3 3686   8.046   3.168   4.239 -0.0377  0.0821 -0.1963
  267POPC   PO4 3687   7.709   3.473   3.918  0.1756 -0.3547 -0.1899
  267POPC   GL1 3688   7.694   3.485   4.344  0.2558 -0.0323  0.1251
  267POPC   GL2 3689   7.501   3.253   4.408  0.0228  0.3385 -0.1074
  267POPC   C1A 3690   7.670   3.570   4.740  0.1479 -0.0879 -0.2036
  267POPC   D2A 3691   7.463   3.868   5.015  0.2321  0.0067  0.0024
  267POPC   C3A 3692   7.457   4.240   5.007  0.2122 -0.0075  0.3006
  267POPC   C4A 3693   7.156   4.546   4.850 -0.2283  0.2089  0.1431
  267POPC   C1B 3694   7.471   2.918   4.708  0.0304 -0.1420  0.3651
  267POPC   C2B 3695   7.094   2.661   4.754 -0.0018  0.1774  0.1255
  267POPC   C3B 3696   6.814   2.631   5.203  0.4036  0.1905 -0.0118
  267POPC   C4B 3697   6.507   2.694   5.424  0.1979 -0.2888  0.2077
  268POPC   NC3 3698   2.884   2.610   4.999  0.1395  0.0351  0.0406
  268POPC   PO4 3699   2.795   2.176   5.086  0.1117 -0.0939 -0.0264
  268POPC   GL1 3700   2.893   2.187   5.468  0.2887 -0.2724 -0.0760
  268POPC   GL2 3701   2.952   2.474   5.520  0.2441  0.0263  0.0193
  268POPC   C1A 3702   3.166   2.220   5.916 -0.3340 -0.0192  0.1777
  268POPC   D2A 3703   2.950   2.027   6.272  0.0541  0.1652 -0.1679
  268POPC   C3A 3704   2.885   2.177   6.665  0.1662  0.1936  0.0250
  268POPC   C4A 3705   2.971   2.607   6.972 -0.2277  0.0194  0.0769
  268POPC   C1B 3706   3.440   2.647   5.496  0.0798 -0.1727  0.0906
  268POPC   C2B 3707   3.694   2.989   5.763 -0.0577 -0.1943 -0.2862
  268POPC   C3B 3708   3.492   3.270   5.890 -0.1728 -0.0520 -0.0862
  268POPC   C4B 3709   3.365   3.294   6.246  0.1718 -0.0709  0.0549
  269POPC   NC3 3710   4.800   4.244   4.158 -0.0631 -0.0354 -0.2090
  269POPC   PO4 3711   4.322   4.079   4.189  0.0177  0.0952 -0.0182
  269POPC   GL1 3712   4.331   3.841   4.521 -0.0675 -0.1507 -0.1843
  269POPC   GL2 3713   4.077   3.910   4.818 -0.5766  0.1871 -0.1359
  269POPC   C1A 3714   4.538   3.659   4.865 -0.1573 -0.4803 -0.0531
  269POPC   D2A 3715   4.692   3.274   4.922 -0.0010  0.0174 -0.0553
  269POPC   C3A 3716   4.752   3.166   5.383  0.3961  0.2692  0.4325
  269POPC   C4A 3717   5.024   3.011   5.759  0.2609 -0.0590 -0.0868
  269POPC   C1B 3718   4.223   3.941   5.155  0.1757  0.1042  0.2541
  269POPC   C2B 3719   4.363   4.150   5.530  0.0349  0.1193  0.0824
  269POPC   C3B 3720   4.247   4.390   5.798 -0.0493 -0.1308  0.0155
  269POPC   C4B 3721   4.218   4.363   6.211 -0.0716 -0.4274 -0.0344
  270POPC   NC3 3722   1.775   0.302   5.170 -0.0825  0.0694 -0.1137
  270POPC   PO4 3723   2.043   0.005   5.285  0.1745 -0.0339  0.2069
  270POPC   GL1 3724   2.170   0.114   5.682 -0.4439 -0.1185 -0.2174
  270POPC   GL2 3725   2.487  -0.085   5.758  0.0437  0.2536  0.0595
  270POPC   C1A 3726   2.043  -0.055   6.042 -0.3452 -0.1693 -0.2026
  270POPC   D2A 3727   2.234  -0.175   6.371 -0.3407 -0.0699  0.1046
  270POPC   C3A 3728   2.230  -0.619   6.371  0.1191  0.1627  0.0565
  270POPC   C4A 3729   1.897  -0.939   6.081 -0.1473  0.2589 -0.3131
  270POPC   C1B 3730   2.381   0.280   6.173  0.1916  0.0655  0.1555
  270POPC   C2B 3731   2.304   0.293   6.680 -0.1320  0.0917 -0.1521
  270POPC   C3B 3732   2.561   0.067   7.006  0.0835 -0.1275 -0.2771
  270POPC   C4B 3733   2.945   0.250   7.125  0.1099  0.4241  0.3228
  271POPC   NC3 3734   9.282   3.312   4.672  0.4281 -0.1657  0.0002
  271POPC   PO4 3735   9.070   2.978   4.626  0.0434 -0.0316 -0.0089
  271POPC   GL1 3736   8.658   2.853   4.876 -0.0361 -0.0233 -0.2225
  271POPC   GL2 3737   8.801   2.991   5.118 -0.1094  0.2001 -0.0976
  271POPC   C1A 3738   8.297   3.125   5.225  0.2423 -0.0431 -0.0151
  271POPC   D2A 3739   8.028   3.540   5.305  0.0618 -0.0401  0.1272
  271POPC   C3A 3740   7.710   3.338   5.624 -0.0324 -0.3312 -0.3112
  271POPC   C4A 3741   7.645   3.062   5.846  0.2374  0.4572  0.3461
  271POPC   C1B 3742   8.807   3.078   5.582 -0.1081 -0.2988 -0.0455
  271POPC   C2B 3743   8.923   2.899   5.994  0.2522 -0.0196  0.1348
  271POPC   C3B 3744   8.641   2.648   6.267  0.3925  0.1544 -0.2092
  271POPC   C4B 3745   8.701   2.511   6.723  0.0566  0.0696  0.1871
  272POPC   NC3 3746   5.934   5.562   4.367  0.0663  0.0262 -0.2437
  272POPC   PO4 3747   5.633   5.948   4.617 -0.2742 -0.0413 -0.1100
  272POPC   GL1 3748   5.504   5.911   5.039  0.0793  0.1279 -0.3002
  272POPC   GL2 3749   5.433   6.166   5.202  0.0062  0.0873 -0.0186
  272POPC   C1A 3750   5.482   5.666   5.359 -0.1424  0.0549  0.0215
  272POPC   D2A 3751   5.607   5.258   5.682 -0.0488 -0.1423  0.0347
  272POPC   C3A 3752   5.334   4.856   5.621  0.1417 -0.0322 -0.1909
  272POPC   C4A 3753   5.246   4.558   5.936 -0.0872  0.1464 -0.0822
  272POPC   C1B 3754   5.539   6.180   5.503  0.0774  0.0818  0.2135
  272POPC   C2B 3755   5.650   6.373   5.920  0.0042 -0.0632  0.1614
  272POPC   C3B 3756   5.636   6.562   6.367  0.1335 -0.3018  0.1045
  272POPC   C4B 3757   5.471   6.642   6.907  0.2830 -0.0646  0.0803
  273POPC   NC3 3758  10.001   3.620   4.368  0.3299  0.0087 -0.0642
  273POPC   PO4 3759   9.784   3.290   4.711  0.1584 -0.1562  0.0243
  273POPC   GL1 3760   9.804   3.184   5.248 -0.0203 -0.2204 -0.4104
  273POPC   GL2 3761  10.125   3.255   5.384  0.2391  0.2025 -0.1303
  273POPC   C1A 3762   9.641   3.223   5.660 -0.0147 -0.0755  0.0538
  273POPC   D2A 3763   9.370   3.132   5.984  0.0223  0.2166  0.1940
  273POPC   C3A 3764   9.426   3.094   6.382  0.0416 -0.3027 -0.1969
  273POPC   C4A 3765   9.539   3.078   6.787  0.0063  0.0469  0.1483
  273POPC   C1B 3766  10.119   3.188   5.777 -0.2840 -0.1408  0.2172
  273POPC   C2B 3767  10.325   2.965   6.043 -0.1971  0.1690  0.0658
  273POPC   C3B 3768  10.697   3.094   6.348 -0.1156 -0.4080  0.0300
  273POPC   C4B 3769  10.888   2.840   6.626 -0.1335  0.2560  0.1851
  274POPC   NC3 3770   0.994   8.274   4.281  0.1152 -0.0776 -0.0892
  274POPC   PO4 3771   1.065   8.213   4.817  0.2355  0.0360 -0.1453
  274POPC   GL1 3772   1.385   8.131   5.058  0.2041  0.3249  0.0708
  274POPC   GL2 3773   1.211   7.838   5.247  0.0416 -0.2519  0.0166
  274POPC   C1A 3774   1.405   8.264   5.460  0.1052  0.1793  0.0957
  274POPC   D2A 3775   1.326   8.486   5.960  0.2421  0.1158 -0.3168
  274POPC   C3A 3776   1.236   8.333   6.342  0.0518  0.1840  0.1739
  274POPC   C4A 3777   1.190   8.220   6.786 -0.1152  0.1178  0.2577
  274POPC   C1B 3778   1.297   7.619   5.443 -0.0331 -0.1042  0.0119
  274POPC   C2B 3779   1.659   7.523   5.854  0.0589 -0.0865  0.1925
  274POPC   C3B 3780   1.985   7.622   6.184  0.1601 -0.2390 -0.0262
  274POPC   C4B 3781   2.216   7.361   6.470  0.1879 -0.1509 -0.1284
  275POPC   NC3 3782   6.803   2.672   3.245  0.0608  0.0599  0.0847
  275POPC   PO4 3783   6.810   2.254   3.350 -0.1564  0.2036 -0.0416
  275POPC   GL1 3784   6.599   2.280   3.687 -0.0971  0.0105  0.0749
  275POPC   GL2 3785   6.574   2.612   3.700 -0.3321 -0.0407  0.2580
  275POPC   C1A 3786   6.429   2.298   4.119  0.1739 -0.0412 -0.0409
  275POPC   D2A 3787   6.476   2.511   4.569  0.0897  0.0523  0.1164
  275POPC   C3A 3788   6.455   2.462   4.919 -0.4828 -0.2315  0.1945
  275POPC   C4A 3789   6.335   2.287   5.265  0.2137  0.0521 -0.1498
  275POPC   C1B 3790   6.721   2.664   4.111 -0.0681 -0.0230  0.0311
  275POPC   C2B 3791   6.814   2.955   4.426 -0.0877  0.0369 -0.0754
  275POPC   C3B 3792   6.699   2.988   4.860 -0.1574 -0.1391 -0.0283
  275POPC   C4B 3793   6.742   3.265   5.200 -0.3012 -0.1966 -0.1931
  276POPC   NC3 3794   9.775   9.739   4.540  0.1837  0.1012  0.0446
  276POPC   PO4 3795   9.451  10.089   4.699 -0.0575  0.0586 -0.1010
  276POPC   GL1 3796   9.640   9.944   5.096 -0.1061 -0.2923  0.2138
  276POPC   GL2 3797   9.849   9.747   5.057  0.1416 -0.2387  0.2943
  276POPC   C1A 3798   9.700   9.961   5.527 -0.0957 -0.0602 -0.1004
  276POPC   D2A 3799   9.687   9.828   5.963  0.3322 -0.2208  0.5153
  276POPC   C3A 3800   9.318   9.944   6.245 -0.1077  0.0592  0.1090
  276POPC   C4A 3801   9.394   9.828   6.625 -0.3338 -0.1407  0.2045
  276POPC   C1B 3802  10.196   9.819   5.385 -0.0450 -0.0498  0.2124
  276POPC   C2B 3803  10.218   9.805   5.841 -0.1007  0.1556 -0.0805
  276POPC   C3B 3804  10.184   9.799   6.297 -0.0381  0.0968  0.0042
  276POPC   C4B 3805  10.005   9.711   6.620  0.0790 -0.1713 -0.2932
  277POPC   NC3 3806   5.960   1.688   3.392 -0.1830 -0.2705  0.2311
  277POPC   PO4 3807   6.299   2.078   3.260  0.1315 -0.1860  0.0448
  277POPC   GL1 3808   6.149   2.090   3.720  0.0408  0.0945  0.4074
  277POPC   GL2 3809   6.135   1.804   3.884  0.1152 -0.3134 -0.0136
  277POPC   C1A 3810   6.029   2.564   4.029 -0.0247  0.0511  0.2060
  277POPC   D2A 3811   6.084   2.911   4.204 -0.2170 -0.0133 -0.1254
  277POPC   C3A 3812   5.828   3.209   4.449  0.0167 -0.0508 -0.0080
  277POPC   C4A 3813   5.836   3.631   4.651 -0.1146  0.1172 -0.0192
  277POPC   C1B 3814   6.542   1.776   4.043  0.1672 -0.1262  0.1065
  277POPC   C2B 3815   6.562   1.788   4.428 -0.0086 -0.1625 -0.2186
  277POPC   C3B 3816   6.497   1.911   4.872  0.0113  0.0767  0.1406
  277POPC   C4B 3817   6.648   1.930   5.229 -0.0949 -0.0660 -0.2921
  278POPC   NC3 3818   0.448   4.012   4.216  0.0171 -0.0894  0.2157
  278POPC   PO4 3819   0.756   4.044   4.616 -0.2328 -0.1222  0.0245
  278POPC   GL1 3820   0.704   4.092   5.025 -0.1099  0.0940 -0.0671
  278POPC   GL2 3821   0.463   4.103   5.205  0.2140  0.1979  0.0109
  278POPC   C1A 3822   0.874   4.098   5.499 -0.1213  0.2400  0.1560
  278POPC   D2A 3823   0.847   4.007   5.937 -0.0525 -0.3818  0.1204
  278POPC   C3A 3824   1.213   3.951   6.167  0.2935 -0.2180 -0.0716
  278POPC   C4A 3825   1.266   4.207   6.444 -0.0925 -0.3060  0.0836
  278POPC   C1B 3826   0.389   4.391   5.604 -0.5329 -0.0290  0.1616
  278POPC   C2B 3827   0.452   4.355   5.941  0.0262 -0.0166  0.0820
  278POPC   C3B 3828   0.664   4.290   6.310  0.2794 -0.0961 -0.0642
  278POPC   C4B 3829   0.894   4.554   6.558 -0.1423 -0.3213 -0.1711
  279POPC   NC3 3830   1.647   1.200   5.127 -0.0842 -0.3407  0.0209
  279POPC   PO4 3831   1.481   1.539   5.035  0.2396 -0.4376  0.0110
  279POPC   GL1 3832   1.331   1.724   5.438  0.0280  0.1213 -0.0785
  279POPC   GL2 3833   1.516   1.609   5.582 -0.1281  0.0170 -0.0893
  279POPC   C1A 3834   1.107   1.554   5.877  0.1825 -0.1661 -0.0355
  279POPC   D2A 3835   0.774   1.593   6.174  0.0629 -0.1195  0.1469
  279POPC   C3A 3836   0.247   1.687   6.058 -0.2086  0.1586  0.0764
  279POPC   C4A 3837  -0.001   1.955   6.262 -0.2196  0.0915  0.1747
  279POPC   C1B 3838   1.482   1.926   5.913  0.1185  0.3400  0.0621
  279POPC   C2B 3839   1.556   2.246   6.197 -0.2792  0.1363  0.1840
  279POPC   C3B 3840   1.256   2.353   6.491  0.2032  0.1673 -0.1369
  279POPC   C4B 3841   1.056   2.730   6.618  0.3223 -0.0104  0.0429
  280POPC   NC3 3842   8.819   6.244   5.004 -0.0710  0.0333 -0.1157
  280POPC   PO4 3843   9.213   6.649   4.976  0.0921  0.0274  0.2478
  280POPC   GL1 3844   8.840   6.701   5.331 -0.0979 -0.1094 -0.1685
  280POPC   GL2 3845   8.580   6.404   5.395 -0.0600  0.1377 -0.1580
  280POPC   C1A 3846   8.508   6.766   5.693 -0.0974  0.1863 -0.0738
  280POPC   D2A 3847   8.291   6.382   5.956  0.3178  0.0691  0.3579
  280POPC   C3A 3848   8.365   6.442   6.430 -0.3820  0.0955 -0.0089
  280POPC   C4A 3849   8.151   6.343   6.773  0.1604  0.1651 -0.1453
  280POPC   C1B 3850   8.678   6.200   5.709 -0.2181 -0.1754  0.0069
  280POPC   C2B 3851   8.653   5.929   6.052 -0.0454  0.1215 -0.0221
  280POPC   C3B 3852   8.965   5.849   6.321 -0.1621  0.0155 -0.2144
  280POPC   C4B 3853   9.216   6.010   6.636  0.2382  0.0603  0.0549
  281POPC   NC3 3854   6.313   9.444   4.757 -0.0672  0.1923 -0.0834
  281POPC   PO4 3855   6.480   9.421   5.175 -0.1046 -0.1350  0.0044
  281POPC   GL1 3856   6.418   9.707   5.459 -0.0048  0.0143 -0.1609
  281POPC   GL2 3857   6.678   9.888   5.332 -0.0729 -0.2537 -0.5812
  281POPC   C1A 3858   6.475   9.683   5.842  0.0843 -0.1533  0.0616
  281POPC   D2A 3859   6.309   9.932   6.252 -0.1395 -0.0853 -0.2289
  281POPC   C3A 3860   6.431  10.286   6.430  0.0084 -0.0246  0.0913
  281POPC   C4A 3861   6.680  10.337   6.803  0.0450 -0.2448  0.3041
  281POPC   C1B 3862   6.701  10.215   5.616 -0.0034  0.0551 -0.1714
  281POPC   C2B 3863   6.319  10.349   5.874  0.0440  0.2537  0.1763
  281POPC   C3B 3864   6.001  10.582   6.093 -0.3460 -0.1241  0.0649
  281POPC   C4B 3865   6.026  10.743   6.406  0.0663 -0.1492  0.1499
  282POPC   NC3 3866   9.003   9.248   4.541  0.0739 -0.0361  0.3013
  282POPC   PO4 3867   8.608   9.121   4.810  0.0073 -0.0979  0.1794
  282POPC   GL1 3868   8.648   9.284   5.223 -0.0721 -0.2181  0.2296
  282POPC   GL2 3869   8.511   9.047   5.504 -0.0749  0.1307  0.1539
  282POPC   C1A 3870   8.563   9.609   5.468  0.2368  0.3282 -0.0109
  282POPC   D2A 3871   8.627  10.053   5.724 -0.0343 -0.0808  0.4362
  282POPC   C3A 3872   9.143  10.104   5.669  0.1686  0.0934 -0.1862
  282POPC   C4A 3873   9.431  10.309   5.353 -0.1020  0.1120 -0.0881
  282POPC   C1B 3874   8.713   9.165   5.862  0.0587 -0.1030  0.0667
  282POPC   C2B 3875   8.763   9.021   6.285  0.3478  0.0107 -0.0244
  282POPC   C3B 3876   8.966   8.984   6.627  0.0543 -0.0250  0.3780
  282POPC   C4B 3877   9.348   8.865   6.877 -0.1124 -0.1451  0.2659
  283POPC   NC3 3878   3.733   5.045   4.550  0.1405  0.3578 -0.1389
  283POPC   PO4 3879   3.601   4.699   4.808 -0.2930 -0.0510 -0.1804
  283POPC   GL1 3880   3.507   4.839   5.158 -0.0978  0.2234 -0.1682
  283POPC   GL2 3881   3.702   5.156   5.038 -0.0105  0.0810 -0.0941
  283POPC   C1A 3882   3.342   4.921   5.510  0.3380 -0.1048  0.0873
  283POPC   D2A 3883   3.513   5.007   5.888  0.0333  0.1323 -0.2266
  283POPC   C3A 3884   3.290   4.877   6.301 -0.2478  0.1183 -0.2038
  283POPC   C4A 3885   2.998   4.643   6.490  0.0328 -0.0290 -0.3952
  283POPC   C1B 3886   3.842   5.155   5.404 -0.2000  0.0681 -0.1313
  283POPC   C2B 3887   3.869   5.382   5.770  0.0248 -0.2994  0.1227
  283POPC   C3B 3888   4.019   5.468   6.196  0.0380 -0.0938  0.1038
  283POPC   C4B 3889   3.927   5.295   6.596  0.3262 -0.0391 -0.1824
  284POPC   NC3 3890   6.536   7.799   4.655  0.1549  0.4500  0.1088
  284POPC   PO4 3891   6.261   8.116   4.866  0.2278 -0.3463  0.2977
  284POPC   GL1 3892   6.064   8.103   5.204  0.0521  0.3160 -0.2396
  284POPC   GL2 3893   6.224   8.098   5.501  0.0277 -0.0050  0.0344
  284POPC   C1A 3894   5.731   7.893   5.480 -0.1864  0.0302 -0.0419
  284POPC   D2A 3895   5.426   8.006   5.699  0.2400 -0.1406 -0.2305
  284POPC   C3A 3896   5.456   8.209   6.005  0.1760 -0.1978 -0.2028
  284POPC   C4A 3897   5.178   8.249   6.303  0.0611  0.0168  0.0584
  284POPC   C1B 3898   6.049   7.845   5.875 -0.0791 -0.1324 -0.0052
  284POPC   C2B 3899   6.159   7.659   6.253  0.2628 -0.0196 -0.0196
  284POPC   C3B 3900   6.401   7.345   6.349 -0.2458 -0.3397 -0.0688
  284POPC   C4B 3901   6.490   6.912   6.348 -0.3037 -0.1637  0.1602
  285POPC   NC3 3902   8.719   7.120   5.157  0.1404  0.2687 -0.1180
  285POPC   PO4 3903   8.681   7.384   4.888 -0.1180  0.1920 -0.0087
  285POPC   GL1 3904   8.787   7.579   5.280 -0.5805 -0.0406 -0.1139
  285POPC   GL2 3905   8.582   7.568   5.465 -0.1391 -0.1501 -0.0555
  285POPC   C1A 3906   8.981   7.775   5.675 -0.1497 -0.3439 -0.2296
  285POPC   D2A 3907   9.078   7.953   6.145  0.2166 -0.1406 -0.0924
  285POPC   C3A 3908   9.013   8.107   6.554  0.1875 -0.0439  0.1065
  285POPC   C4A 3909   8.766   8.057   6.808  0.1392  0.1251  0.0060
  285POPC   C1B 3910   8.622   7.308   5.784  0.2166 -0.0565  0.1499
  285POPC   C2B 3911   8.704   6.954   6.090 -0.0117 -0.3448  0.1351
  285POPC   C3B 3912   8.757   6.837   6.534  0.2809  0.0778  0.1927
  285POPC   C4B 3913   8.776   6.261   6.685 -0.1916 -0.2226 -0.1898
  286POPC   NC3 3914   3.593   0.898   5.114 -0.0736  0.1310 -0.0675
  286POPC   PO4 3915   3.061   0.878   5.056  0.2510 -0.0953 -0.2212
  286POPC   GL1 3916   3.193   0.711   5.494  0.3460  0.2578  0.1625
  286POPC   GL2 3917   3.318   0.858   5.527  0.2349  0.0817  0.0101
  286POPC   C1A 3918   3.082   0.571   5.975  0.3631  0.1103  0.0842
  286POPC   D2A 3919   3.062   0.853   6.348 -0.2756  0.3820  0.0131
  286POPC   C3A 3920   3.389   1.089   6.501 -0.1201  0.6001  0.2100
  286POPC   C4A 3921   3.717   1.212   6.797  0.2733  0.0602 -0.2854
  286POPC   C1B 3922   3.387   0.966   5.953  0.1235 -0.1990 -0.1435
  286POPC   C2B 3923   3.518   0.696   6.188 -0.0001 -0.0128  0.1772
  286POPC   C3B 3924   3.610   0.646   6.690  0.3248 -0.1137 -0.0018
  286POPC   C4B 3925   3.468   0.791   7.051  0.0855 -0.1307 -0.2582
  287POPC   NC3 3926   4.252   5.858   4.759 -0.0337  0.1209 -0.1519
  287POPC   PO4 3927   3.964   5.513   4.794 -0.0138 -0.2653  0.3522
  287POPC   GL1 3928   3.851   5.660   5.180 -0.3513 -0.1499  0.0324
  287POPC   GL2 3929   3.624   5.875   5.270 -0.0093  0.1761 -0.0706
  287POPC   C1A 3930   4.129   5.939   5.526  0.1770 -0.2394  0.0911
  287POPC   D2A 3931   4.177   5.831   5.919 -0.1821  0.0020  0.0662
  287POPC   C3A 3932   4.556   5.734   6.045  0.3031 -0.0643 -0.4256
  287POPC   C4A 3933   4.895   5.498   6.197 -0.1111 -0.0148 -0.0743
  287POPC   C1B 3934   3.280   6.030   5.478 -0.1211  0.4539  0.3653
  287POPC   C2B 3935   2.906   6.336   5.447  0.1192 -0.1893 -0.3350
  287POPC   C3B 3936   2.487   6.435   5.560 -0.1212  0.0662 -0.1580
  287POPC   C4B 3937   2.272   6.693   5.869  0.0332  0.1436 -0.0562
  288POPC   NC3 3938   8.676   1.137   3.791  0.0746  0.4049 -0.0555
  288POPC   PO4 3939   8.598   0.862   4.239 -0.1997  0.0373  0.5201
  288POPC   GL1 3940   8.555   0.905   4.681 -0.2828  0.3841  0.0090
  288POPC   GL2 3941   8.803   1.081   4.782 -0.0647  0.1021  0.0677
  288POPC   C1A 3942   8.225   0.849   4.942 -0.0018 -0.1871 -0.1283
  288POPC   D2A 3943   7.801   0.913   5.204 -0.2128  0.0121  0.0974
  288POPC   C3A 3944   7.802   0.976   5.580 -0.1462 -0.1260  0.1057
  288POPC   C4A 3945   7.690   0.803   5.855 -0.0926  0.3941 -0.0213
  288POPC   C1B 3946   8.639   1.025   5.253 -0.1242 -0.3984 -0.0554
  288POPC   C2B 3947   8.936   1.053   5.609  0.3352  0.0951  0.2065
  288POPC   C3B 3948   9.174   0.769   5.930  0.0790 -0.4246 -0.1311
  288POPC   C4B 3949   9.176   0.534   6.281 -0.1455 -0.0004  0.1242
  289POPC   NC3 3950   7.244   8.991   5.171  0.0713 -0.0062 -0.0522
  289POPC   PO4 3951   7.403   8.684   4.986 -0.0968  0.2568 -0.0914
  289POPC   GL1 3952   7.542   8.779   5.578 -0.0739 -0.4166  0.0605
  289POPC   GL2 3953   7.292   8.863   5.748  0.1783 -0.0840 -0.0379
  289POPC   C1A 3954   7.856   8.790   5.868 -0.0192 -0.5158 -0.1341
  289POPC   D2A 3955   7.969   8.559   6.218  0.1616 -0.1352 -0.2175
  289POPC   C3A 3956   8.210   8.581   6.628  0.0340  0.0563 -0.1027
  289POPC   C4A 3957   8.346   8.616   7.091 -0.2310 -0.3002 -0.0083
  289POPC   C1B 3958   6.956   8.681   5.920  0.2102 -0.0984  0.2200
  289POPC   C2B 3959   6.692   8.506   6.237  0.1368 -0.0620  0.1883
  289POPC   C3B 3960   6.244   8.534   6.464 -0.0915 -0.0415  0.1722
  289POPC   C4B 3961   6.230   8.667   6.848 -0.4011 -0.4098 -0.1602
  290POPC   NC3 3962   3.448   3.270   4.546 -0.2555  0.0903 -0.0250
  290POPC   PO4 3963   3.299   2.703   4.750  0.2851  0.0163  0.1459
  290POPC   GL1 3964   3.299   2.943   5.127 -0.2377 -0.3602 -0.3500
  290POPC   GL2 3965   3.007   2.985   5.290  0.0669 -0.1327  0.0757
  290POPC   C1A 3966   3.443   3.254   5.408 -0.2463  0.0139  0.2043
  290POPC   D2A 3967   3.790   3.442   5.550 -0.0491  0.2520  0.0295
  290POPC   C3A 3968   4.033   3.750   5.660  0.1000 -0.1874 -0.1831
  290POPC   C4A 3969   4.301   3.934   5.949  0.1970  0.0959 -0.2685
  290POPC   C1B 3970   3.122   2.933   5.703  0.2273  0.0040  0.2010
  290POPC   C2B 3971   3.288   2.755   6.033 -0.2510 -0.1324 -0.1269
  290POPC   C3B 3972   3.326   2.424   6.425 -0.0393  0.2729  0.1444
  290POPC   C4B 3973   3.470   2.177   6.751  0.1717 -0.2124 -0.3270
  291POPC   NC3 3974   1.772   9.699   4.857  0.1095 -0.1721 -0.0631
  291POPC   PO4 3975   1.757  10.056   5.015 -0.0229  0.2511 -0.0087
  291POPC   GL1 3976   2.012   9.914   5.234  0.3796  0.1164 -0.0576
  291POPC   GL2 3977   1.994  10.074   5.516 -0.0668 -0.0657  0.1226
  291POPC   C1A 3978   2.236   9.638   5.561  0.0469 -0.0106 -0.2252
  291POPC   D2A 3979   2.470   9.545   6.019  0.2880 -0.0387  0.0950
  291POPC   C3A 3980   2.583   9.138   6.123  0.0783  0.2328 -0.1006
  291POPC   C4A 3981   2.696   8.902   6.476  0.2912 -0.0740  0.1548
  291POPC   C1B 3982   2.239  10.005   5.860  0.2058  0.1860  0.0201
  291POPC   C2B 3983   2.648  10.111   6.103  0.2189 -0.0936 -0.0906
  291POPC   C3B 3984   2.884   9.932   6.432 -0.1168  0.0343 -0.0056
  291POPC   C4B 3985   3.319   9.923   6.446 -0.1358  0.2183  0.3030
  292POPC   NC3 3986   7.239  10.209   4.382  0.3858 -0.0070  0.0077
  292POPC   PO4 3987   7.057  10.408   4.065 -0.1244 -0.0698  0.2063
  292POPC   GL1 3988   6.966  10.620   4.402 -0.3293  0.0534 -0.2782
  292POPC   GL2 3989   6.724  10.790   4.361 -0.1668 -0.0749 -0.1538
  292POPC   C1A 3990   6.975  10.906   4.750 -0.0212  0.1354 -0.1892
  292POPC   D2A 3991   7.319  11.168   4.858 -0.3368 -0.0601 -0.1339
  292POPC   C3A 3992   7.287  11.630   4.881 -0.2360 -0.0221 -0.2032
  292POPC   C4A 3993   7.397  12.056   4.897 -0.0458  0.1560  0.1107
  292POPC   C1B 3994   6.395  10.862   4.716 -0.1307  0.4720  0.2838
  292POPC   C2B 3995   6.207  11.189   4.912 -0.1652 -0.2037  0.0517
  292POPC   C3B 3996   6.210  11.627   4.933  0.0367  0.0718  0.0104
  292POPC   C4B 3997   6.321  11.943   5.174 -0.1086  0.2152  0.0209
  293POPC   NC3 3998   4.573   6.806   4.900 -0.2946 -0.3714 -0.0746
  293POPC   PO4 3999   4.216   6.654   5.012  0.0696  0.1317 -0.0241
  293POPC   GL1 4000   4.063   6.778   5.392  0.1436  0.1194  0.0989
  293POPC   GL2 4001   4.391   6.885   5.443  0.1195  0.1522  0.2161
  293POPC   C1A 4002   3.804   6.874   5.723 -0.2183  0.3759  0.1724
  293POPC   D2A 4003   3.791   7.017   6.126 -0.1660  0.0637 -0.0584
  293POPC   C3A 4004   3.951   6.667   6.291 -0.0549  0.3019  0.0452
  293POPC   C4A 4005   3.824   6.400   6.574  0.0709  0.1413 -0.1676
  293POPC   C1B 4006   4.685   6.709   5.820 -0.2108 -0.0912  0.1350
  293POPC   C2B 4007   4.745   6.983   6.143 -0.1453 -0.1116  0.2310
  293POPC   C3B 4008   4.634   6.903   6.571  0.2273  0.0697  0.1674
  293POPC   C4B 4009   4.173   6.935   6.698  0.0165 -0.1647 -0.2906
  294POPC   NC3 4010   8.063   0.849   4.182 -0.0036 -0.1720 -0.2255
  294POPC   PO4 4011   8.313   1.291   4.040 -0.0697  0.0920 -0.2457
  294POPC   GL1 4012   8.424   1.358   4.450 -0.0744 -0.0483  0.1434
  294POPC   GL2 4013   8.102   1.293   4.569  0.0698  0.1818  0.0203
  294POPC   C1A 4014   8.482   1.388   4.944 -0.0229 -0.0927  0.1609
  294POPC   D2A 4015   8.201   1.246   5.294  0.2257  0.0181 -0.2599
  294POPC   C3A 4016   7.914   1.431   5.583 -0.0776  0.2033  0.0615
  294POPC   C4A 4017   7.675   1.302   5.940  0.0834  0.4674  0.0519
  294POPC   C1B 4018   7.852   1.339   5.003 -0.0685  0.0496 -0.1619
  294POPC   C2B 4019   7.495   1.340   5.318 -0.3467 -0.3183 -0.0999
  294POPC   C3B 4020   7.300   1.222   5.689  0.0798 -0.0073 -0.0274
  294POPC   C4B 4021   7.267   0.999   6.068 -0.0378  0.1513 -0.0932
  295POPC   NC3 4022   3.011   1.774   5.296  0.1089 -0.0715 -0.1247
  295POPC   PO4 4023   3.377   1.866   5.130 -0.1276 -0.3727 -0.1177
  295POPC   GL1 4024   3.574   1.902   5.549 -0.0633  0.1007  0.0996
  295POPC   GL2 4025   3.281   1.806   5.759 -0.0305  0.1202  0.1593
  295POPC   C1A 4026   3.704   2.236   5.659  0.0593 -0.0400  0.0955
  295POPC   D2A 4027   3.652   2.404   6.060 -0.2642  0.0101 -0.0652
  295POPC   C3A 4028   3.810   2.764   6.305  0.0435 -0.2478  0.1402
  295POPC   C4A 4029   4.051   3.046   6.616  0.0513  0.3637  0.1550
  295POPC   C1B 4030   3.225   1.513   6.094 -0.3658 -0.0987 -0.5137
  295POPC   C2B 4031   3.312   1.635   6.490 -0.0796 -0.1190 -0.0892
  295POPC   C3B 4032   3.623   1.683   6.787 -0.3131 -0.2674  0.1350
  295POPC   C4B 4033   4.032   1.689   6.909 -0.1220 -0.1695  0.1655
  296POPC   NC3 4034   2.480   4.328   4.246 -0.1301 -0.0147 -0.0098
  296POPC   PO4 4035   2.381   4.294   4.738  0.4375 -0.1345  0.3378
  296POPC   GL1 4036   2.289   4.130   5.195  0.1543 -0.0913  0.0417
  296POPC   GL2 4037   2.294   3.836   5.346  0.0327  0.3305 -0.1676
  296POPC   C1A 4038   2.111   4.157   5.698 -0.1535 -0.0544 -0.1412
  296POPC   D2A 4039   2.132   4.384   6.051 -0.2140  0.1471 -0.1657
  296POPC   C3A 4040   2.251   3.992   6.465  0.1045  0.2303  0.0631
  296POPC   C4A 4041   2.010   3.728   6.790 -0.0364 -0.2138  0.1171
  296POPC   C1B 4042   2.457   3.821   5.748  0.0791  0.3632  0.5253
  296POPC   C2B 4043   2.798   3.796   6.016 -0.1850  0.0774 -0.0205
  296POPC   C3B 4044   3.093   3.708   6.350 -0.1083  0.0598 -0.4639
  296POPC   C4B 4045   3.414   3.547   6.694  0.1373  0.1260 -0.0392
  297POPC   NC3 4046  10.249   9.801   4.738  0.1358  0.2316 -0.0422
  297POPC   PO4 4047  10.622   9.806   4.548  0.0733 -0.1289  0.0134
  297POPC   GL1 4048  10.695   9.773   4.966  0.1429 -0.1154  0.6148
  297POPC   GL2 4049  10.615   9.531   5.252 -0.0610  0.2129  0.0109
  297POPC   C1A 4050  10.629  10.042   5.301  0.0124 -0.3655 -0.2395
  297POPC   D2A 4051  10.289  10.223   5.680 -0.1604  0.0751  0.2618
  297POPC   C3A 4052   9.995  10.229   5.972  0.0600 -0.2869  0.1531
  297POPC   C4A 4053   9.792  10.149   6.347 -0.2946  0.1005 -0.1758
  297POPC   C1B 4054  10.705   9.677   5.629 -0.1428 -0.0585  0.0904
  297POPC   C2B 4055  10.651   9.930   5.953  0.1025 -0.0844 -0.1687
  297POPC   C3B 4056  10.678   9.953   6.327  0.2834  0.0073 -0.0995
  297POPC   C4B 4057  10.793  10.049   6.704 -0.3562  0.2659  0.0019
  298POPC   NC3 4058   9.962   3.606   4.991 -0.0896 -0.1343  0.0824
  298POPC   PO4 4059   9.589   3.716   4.583  0.0431 -0.1124  0.2714
  298POPC   GL1 4060   9.282   3.784   4.909  0.0288  0.1485  0.2035
  298POPC   GL2 4061   9.546   3.732   5.188  0.0243 -0.0734 -0.1395
  298POPC   C1A 4062   9.118   3.980   5.399  0.1235  0.0417  0.1784
  298POPC   D2A 4063   8.966   4.386   5.403  0.0896  0.0977 -0.1437
  298POPC   C3A 4064   8.635   4.596   5.675 -0.3395 -0.0467  0.1411
  298POPC   C4A 4065   8.308   4.660   5.851 -0.0321  0.0079  0.0278
  298POPC   C1B 4066   9.312   3.612   5.567 -0.0170  0.1918  0.0350
  298POPC   C2B 4067   9.033   3.539   5.892 -0.2005 -0.1071 -0.5199
  298POPC   C3B 4068   8.518   3.700   5.929 -0.1450 -0.0584  0.2303
  298POPC   C4B 4069   8.117   3.731   5.782  0.2661 -0.0721 -0.0218
  299POPC   NC3 4070   1.852   8.526   4.945 -0.0588 -0.1681 -0.1525
  299POPC   PO4 4071   2.044   8.117   4.832  0.2393  0.0888  0.0409
  299POPC   GL1 4072   1.944   8.159   5.257 -0.0135  0.3109 -0.0946
  299POPC   GL2 4073   1.718   7.951   5.340  0.1219  0.3471  0.2100
  299POPC   C1A 4074   1.903   8.440   5.581  0.2261 -0.1354 -0.0914
  299POPC   D2A 4075   1.802   8.392   5.995 -0.3215 -0.1031 -0.0263
  299POPC   C3A 4076   2.006   8.185   6.374 -0.0176  0.2575 -0.2243
  299POPC   C4A 4077   2.117   7.849   6.701 -0.0231  0.0526 -0.0020
  299POPC   C1B 4078   1.794   7.981   5.827  0.4812  0.0778 -0.0244
  299POPC   C2B 4079   1.577   7.972   6.218 -0.1843  0.0789  0.0031
  299POPC   C3B 4080   1.548   7.933   6.638  0.0166 -0.2018  0.1821
  299POPC   C4B 4081   1.392   7.689   6.968 -0.0196  0.0522  0.2125
  300POPC   NC3 4082   2.854   5.514   4.833 -0.2180  0.1599  0.3663
  300POPC   PO4 4083   2.746   5.032   4.959 -0.0056 -0.1995 -0.1078
  300POPC   GL1 4084   2.837   4.952   5.397  0.1981 -0.1070  0.1323
  300POPC   GL2 4085   2.904   4.636   5.434  0.2536 -0.4076  0.0620
  300POPC   C1A 4086   2.919   5.149   5.625 -0.2994 -0.1854 -0.1802
  300POPC   D2A 4087   3.094   5.288   6.017  0.2632 -0.1731  0.0620
  300POPC   C3A 4088   2.910   5.240   6.358 -0.1335  0.3067  0.1518
  300POPC   C4A 4089   2.551   5.161   6.600  0.0421 -0.1021  0.0089
  300POPC   C1B 4090   2.622   4.377   5.699 -0.0982  0.1378 -0.0194
  300POPC   C2B 4091   2.616   4.269   6.166 -0.2526 -0.1262  0.0205
  300POPC   C3B 4092   2.712   4.140   6.578  0.0032  0.0585  0.2215
  300POPC   C4B 4093   2.626   3.723   6.930  0.0782  0.0663  0.2794
  301POPC   NC3 4094   7.859   9.574   4.783 -0.2960  0.0330 -0.0795
  301POPC   PO4 4095   7.647   9.158   4.945 -0.3224  0.0525 -0.0166
  301POPC   GL1 4096   7.794   9.166   5.389 -0.1674  0.0946  0.2196
  301POPC   GL2 4097   8.021   8.959   5.439 -0.4999  0.2035 -0.0252
  301POPC   C1A 4098   7.671   9.239   5.751 -0.0435 -0.3256 -0.1000
  301POPC   D2A 4099   7.805   9.291   6.215  0.0681 -0.1660  0.0981
  301POPC   C3A 4100   7.718   9.411   6.660  0.1549 -0.1493 -0.1653
  301POPC   C4A 4101   7.480   9.284   6.967 -0.0142  0.0740 -0.0691
  301POPC   C1B 4102   8.176   9.137   5.790 -0.1162 -0.1582  0.2844
  301POPC   C2B 4103   8.285   8.963   6.203 -0.0054 -0.0970  0.2816
  301POPC   C3B 4104   8.233   9.269   6.542 -0.1294 -0.0059 -0.1463
  301POPC   C4B 4105   8.353   9.483   6.897 -0.0171 -0.1243  0.2562
  302POPC   NC3 4106   1.212   3.875   4.823 -0.0674 -0.0661 -0.1070
  302POPC   PO4 4107   1.593   3.939   4.580  0.1204  0.1697 -0.1180
  302POPC   GL1 4108   1.657   4.018   5.026  0.2096  0.2995 -0.0224
  302POPC   GL2 4109   1.338   3.944   5.301 -0.0854 -0.0035 -0.1663
  302POPC   C1A 4110   1.802   4.137   5.310 -0.1286  0.0502 -0.2891
  302POPC   D2A 4111   1.685   4.565   5.542 -0.2827 -0.1896 -0.3159
  302POPC   C3A 4112   2.063   4.820   5.576 -0.0246  0.2397  0.2841
  302POPC   C4A 4113   2.492   4.883   5.739 -0.1527  0.0995  0.4099
  302POPC   C1B 4114   1.454   4.080   5.703  0.1164  0.1081 -0.0622
  302POPC   C2B 4115   1.672   4.213   5.975  0.3418  0.2142  0.1737
  302POPC   C3B 4116   1.647   4.502   6.240  0.0295  0.0806  0.1873
  302POPC   C4B 4117   1.532   4.676   6.688  0.1004  0.0466 -0.0357
  303POPC   NC3 4118   8.873   8.715   5.106  0.1040  0.0643 -0.0338
  303POPC   PO4 4119   9.076   9.152   5.001  0.1076  0.0927  0.2759
  303POPC   GL1 4120   9.094   9.124   5.398  0.0485 -0.3171  0.1417
  303POPC   GL2 4121   9.040   8.847   5.520  0.2026  0.0250  0.1305
  303POPC   C1A 4122   9.076   9.409   5.693 -0.0874 -0.2621  0.2779
  303POPC   D2A 4123   8.871   9.657   5.975  0.1496 -0.2936  0.0919
  303POPC   C3A 4124   8.437   9.552   6.142 -0.2269 -0.0152  0.1278
  303POPC   C4A 4125   7.958   9.721   6.083 -0.1167  0.4492 -0.1046
  303POPC   C1B 4126   9.231   8.975   5.902  0.1767 -0.2044 -0.0967
  303POPC   C2B 4127   9.548   8.970   6.237  0.0373  0.0117 -0.0380
  303POPC   C3B 4128   9.889   8.943   6.517  0.1838 -0.0119  0.1278
  303POPC   C4B 4129   9.897   8.785   6.976 -0.0815 -0.0976 -0.0517
  304POPC   NC3 4130   9.374   1.223   5.008  0.0761 -0.0586 -0.0603
  304POPC   PO4 4131   9.226   0.839   4.944 -0.1038  0.1144 -0.0383
  304POPC   GL1 4132   9.505   0.805   5.345  0.1226  0.1914  0.1624
  304POPC   GL2 4133   9.742   0.660   5.261  0.1308  0.1888  0.1712
  304POPC   C1A 4134   9.521   1.049   5.729  0.0679  0.1073  0.1229
  304POPC   D2A 4135   9.429   1.087   6.198  0.2606 -0.1214 -0.1077
  304POPC   C3A 4136   9.596   0.792   6.312  0.1349 -0.2260 -0.0235
  304POPC   C4A 4137   9.538   0.484   6.567 -0.2513 -0.5379 -0.1820
  304POPC   C1B 4138   9.923   0.643   5.659 -0.1418 -0.0414  0.0439
  304POPC   C2B 4139  10.057   0.576   6.078  0.2784  0.0088  0.1021
  304POPC   C3B 4140  10.048   0.530   6.539 -0.0301 -0.3444  0.0236
  304POPC   C4B 4141   9.852   0.420   6.932 -0.1399  0.0900 -0.1793
  305POPC   NC3 4142   6.946   0.622   3.341 -0.0434  0.2530 -0.0389
  305POPC   PO4 4143   6.902   0.946   3.629  0.0809  0.1627  0.0070
  305POPC   GL1 4144   6.918   0.901   4.045 -0.0681  0.3929  0.1239
  305POPC   GL2 4145   6.655   0.772   4.081 -0.1730 -0.3984  0.0867
  305POPC   C1A 4146   7.305   0.651   4.176  0.1171  0.1273  0.1097
  305POPC   D2A 4147   7.618   0.815   4.477  0.0660  0.3374  0.1049
  305POPC   C3A 4148   7.843   0.583   4.813 -0.0654 -0.1526 -0.1778
  305POPC   C4A 4149   8.084   0.327   5.066 -0.2463  0.0259  0.4139
  305POPC   C1B 4150   6.392   0.987   4.363 -0.2128  0.0046 -0.1995
  305POPC   C2B 4151   5.974   0.928   4.485 -0.0932 -0.2060 -0.2926
  305POPC   C3B 4152   5.735   1.130   4.671 -0.2909  0.2101  0.1872
  305POPC   C4B 4153   5.474   1.263   5.022 -0.0591  0.0276  0.0513
  306POPC   NC3 4154   0.622   6.486   4.884  0.0810  0.0733  0.0818
  306POPC   PO4 4155   0.380   6.250   4.571  0.0439 -0.3094  0.4130
  306POPC   GL1 4156   0.196   6.231   4.998  0.1988 -0.0527  0.4064
  306POPC   GL2 4157   0.273   6.480   5.187  0.1025  0.1354 -0.2654
  306POPC   C1A 4158   0.178   5.883   5.256  0.0543  0.1071  0.0681
  306POPC   D2A 4159  -0.180   5.677   5.616  0.0360  0.1741 -0.0140
  306POPC   C3A 4160  -0.183   5.494   5.966 -0.1323 -0.0308 -0.2007
  306POPC   C4A 4161  -0.175   5.394   6.429 -0.1859  0.0157 -0.0968
  306POPC   C1B 4162   0.019   6.528   5.546  0.0666  0.1950 -0.2974
  306POPC   C2B 4163   0.053   6.643   6.032  0.3317  0.0600 -0.1017
  306POPC   C3B 4164   0.018   6.802   6.453  0.1175 -0.0579  0.1048
  306POPC   C4B 4165  -0.059   6.635   6.972 -0.1601  0.2629 -0.0090
  307POPC   NC3 4166   4.824   5.423   4.242 -0.1316 -0.2134 -0.0302
  307POPC   PO4 4167   5.079   5.416   4.650  0.3050  0.0157 -0.0871
  307POPC   GL1 4168   5.013   5.086   4.870 -0.1061  0.1753  0.2952
  307POPC   GL2 4169   5.238   4.866   4.908  0.2755 -0.0577  0.1183
  307POPC   C1A 4170   4.915   4.992   5.359  0.1769  0.0476  0.4162
  307POPC   D2A 4171   4.887   5.086   5.820  0.2217 -0.1456  0.0440
  307POPC   C3A 4172   5.219   5.086   6.052 -0.0750  0.0531  0.1034
  307POPC   C4A 4173   5.606   4.845   6.098 -0.4098 -0.1471  0.2743
  307POPC   C1B 4174   5.457   5.136   5.168 -0.0125 -0.0908  0.1788
  307POPC   C2B 4175   5.923   5.347   5.150 -0.0574  0.0894  0.1550
  307POPC   C3B 4176   6.105   5.423   5.485  0.0710 -0.0126  0.1718
  307POPC   C4B 4177   6.514   5.303   5.565 -0.0230  0.4696  0.2194
  308POPC   NC3 4178   6.564   4.934   4.136  0.0338  0.1227  0.3888
  308POPC   PO4 4179   6.666   4.559   3.972  0.1300 -0.2180  0.0430
  308POPC   GL1 4180   6.769   4.236   4.200 -0.1115  0.2301 -0.1851
  308POPC   GL2 4181   6.952   4.276   4.388  0.0967  0.0594 -0.1780
  308POPC   C1A 4182   6.730   3.831   4.410 -0.2254 -0.2864  0.1130
  308POPC   D2A 4183   6.672   3.393   4.604 -0.2104 -0.0214 -0.3082
  308POPC   C3A 4184   6.282   3.188   4.700  0.2299  0.0673  0.5988
  308POPC   C4A 4185   6.015   2.839   4.795 -0.0912  0.3164 -0.1482
  308POPC   C1B 4186   6.957   4.099   4.783  0.2116 -0.0195 -0.0234
  308POPC   C2B 4187   6.922   3.739   5.164 -0.0362  0.2286 -0.0165
  308POPC   C3B 4188   7.286   3.445   5.355 -0.1457 -0.0679 -0.0214
  308POPC   C4B 4189   7.430   2.983   5.426 -0.3533  0.2483  0.0828
  309POPC   NC3 4190   9.970   2.830   4.828  0.1193  0.0881 -0.1569
  309POPC   PO4 4191  10.437   2.792   4.717  0.0522 -0.0230 -0.1960
  309POPC   GL1 4192  10.333   2.832   5.194 -0.0090 -0.1236 -0.0330
  309POPC   GL2 4193  10.567   3.050   5.372 -0.0760  0.0089 -0.1942
  309POPC   C1A 4194  10.348   2.569   5.591  0.2439  0.0279 -0.0070
  309POPC   D2A 4195  10.725   2.650   5.904 -0.0102  0.0747 -0.2183
  309POPC   C3A 4196  10.713   2.478   6.328  0.1174  0.2744 -0.3815
  309POPC   C4A 4197  10.681   2.387   6.803 -0.0629 -0.0205  0.0593
  309POPC   C1B 4198  10.671   3.339   5.695 -0.1165  0.2753 -0.6254
  309POPC   C2B 4199  10.464   3.428   6.091 -0.0221 -0.1200 -0.2886
  309POPC   C3B 4200   9.994   3.380   6.214 -0.1502 -0.0411  0.0955
  309POPC   C4B 4201   9.584   3.594   6.020 -0.0989  0.3601 -0.1266
  310POPC   NC3 4202   3.592   7.306   4.351  0.3338 -0.0559 -0.1706
  310POPC   PO4 4203   3.371   7.230   4.727 -0.1901  0.0056  0.3015
  310POPC   GL1 4204   3.129   7.202   4.942 -0.0730 -0.0547 -0.2155
  310POPC   GL2 4205   3.068   7.430   5.098  0.1173  0.3201 -0.2318
  310POPC   C1A 4206   2.866   7.002   5.274 -0.4128 -0.0706 -0.0301
  310POPC   D2A 4207   2.751   7.024   5.711  0.0478 -0.1198  0.0380
  310POPC   C3A 4208   2.838   6.638   5.850  0.1930 -0.0839  0.2447
  310POPC   C4A 4209   2.927   6.421   6.221  0.1275  0.1434  0.3242
  310POPC   C1B 4210   3.193   7.257   5.522  0.0131  0.2019 -0.1006
  310POPC   C2B 4211   3.253   6.980   5.843 -0.0912 -0.0046 -0.0310
  310POPC   C3B 4212   3.417   6.695   6.204  0.1940 -0.1127 -0.0656
  310POPC   C4B 4213   3.386   6.399   6.363 -0.1975 -0.3780 -0.3466
  311POPC   NC3 4214  10.350   7.039   4.511 -0.2585  0.2111  0.2246
  311POPC   PO4 4215  10.765   6.923   4.593 -0.0243  0.1794  0.1092
  311POPC   GL1 4216  10.917   6.986   5.065 -0.0165  0.0335  0.1747
  311POPC   GL2 4217  11.084   6.807   5.296  0.0452 -0.1035 -0.1483
  311POPC   C1A 4218  10.565   6.985   5.326  0.2330 -0.0907  0.2844
  311POPC   D2A 4219  10.521   7.074   5.712  0.0022  0.0310 -0.0305
  311POPC   C3A 4220  10.617   7.138   6.069 -0.0729 -0.2837  0.1758
  311POPC   C4A 4221  10.831   7.221   6.432  0.1314 -0.1060 -0.0643
  311POPC   C1B 4222  10.950   6.843   5.778 -0.0066 -0.1213 -0.1596
  311POPC   C2B 4223  11.059   6.841   6.258 -0.0020  0.1238  0.2813
  311POPC   C3B 4224  11.367   6.910   6.522 -0.0706  0.2976  0.2452
  311POPC   C4B 4225  11.614   6.689   6.884  0.0604 -0.2584 -0.0734
  312POPC   NC3 4226   7.258   6.834   5.252  0.1641 -0.3524  0.0620
  312POPC   PO4 4227   7.312   7.319   5.467  0.3626 -0.0669  0.2176
  312POPC   GL1 4228   7.157   6.996   5.719  0.2383 -0.0044  0.1086
  312POPC   GL2 4229   6.881   6.717   5.568 -0.0514 -0.0279  0.0654
  312POPC   C1A 4230   7.159   6.751   5.987 -0.1402 -0.1971  0.1099
  312POPC   D2A 4231   6.857   6.546   6.173 -0.1620 -0.1430 -0.1556
  312POPC   C3A 4232   6.872   6.557   6.656  0.1096  0.0843  0.2064
  312POPC   C4A 4233   6.958   6.512   7.157 -0.2549 -0.2189 -0.0030
  312POPC   C1B 4234   6.486   6.804   5.815 -0.0150  0.1635 -0.0957
  312POPC   C2B 4235   6.107   6.976   5.945 -0.1194 -0.0028 -0.1606
  312POPC   C3B 4236   5.985   7.064   6.357 -0.0491  0.1247  0.2390
  312POPC   C4B 4237   5.679   7.070   6.585  0.1161  0.0045  0.0019
  313POPC   NC3 4238  10.356   6.219   4.516 -0.0073 -0.4099  0.0977
  313POPC   PO4 4239  10.075   5.930   4.700 -0.0094 -0.0998 -0.2714
  313POPC   GL1 4240  10.179   6.079   4.999 -0.0074  0.0853  0.2474
  313POPC   GL2 4241   9.975   6.309   4.981  0.0368  0.2199  0.0702
  313POPC   C1A 4242  10.210   6.115   5.416  0.0095  0.0182  0.0594
  313POPC   D2A 4243   9.997   6.219   5.789 -0.0271  0.0629  0.2092
  313POPC   C3A 4244  10.028   6.423   6.218 -0.0664 -0.0892 -0.1612
  313POPC   C4A 4245  10.094   6.581   6.637 -0.2169 -0.0439  0.0870
  313POPC   C1B 4246   9.684   6.213   5.314 -0.0204  0.0424  0.1387
  313POPC   C2B 4247   9.279   6.214   5.519 -0.2317  0.0331 -0.0293
  313POPC   C3B 4248   8.990   6.575   5.833  0.1602 -0.0283  0.2021
  313POPC   C4B 4249   8.819   6.419   6.164 -0.2699 -0.1617  0.2481
  314POPC   NC3 4250   0.059   7.999   4.395  0.3440 -0.0509  0.1866
  314POPC   PO4 4251   0.176   7.786   4.749  0.2807 -0.1702 -0.1321
  314POPC   GL1 4252   0.370   7.864   5.110  0.1836  0.3220  0.0371
  314POPC   GL2 4253   0.643   7.790   5.096 -0.0422  0.0487  0.1300
  314POPC   C1A 4254   0.391   7.982   5.459  0.1006 -0.0670 -0.0180
  314POPC   D2A 4255   0.255   8.172   5.774 -0.2754  0.3617 -0.1949
  314POPC   C3A 4256  -0.032   7.898   6.091 -0.0561  0.2756 -0.1490
  314POPC   C4A 4257  -0.480   7.841   6.325 -0.0823 -0.0368  0.2655
  314POPC   C1B 4258   0.822   7.659   5.529 -0.0859  0.1851 -0.0199
  314POPC   C2B 4259   0.786   7.757   5.839 -0.0251 -0.1010  0.1720
  314POPC   C3B 4260   0.509   7.732   6.150 -0.4075 -0.1372  0.1110
  314POPC   C4B 4261   0.457   7.769   6.529 -0.2549  0.4784  0.2293
  315POPC   NC3 4262   0.456   4.525   4.900 -0.0658 -0.0218  0.0027
  315POPC   PO4 4263   0.511   4.953   4.958 -0.0478  0.0246 -0.1100
  315POPC   GL1 4264   0.446   4.886   5.307 -0.1218  0.2180 -0.1729
  315POPC   GL2 4265   0.100   4.880   5.237  0.1005  0.1966  0.1880
  315POPC   C1A 4266   0.420   4.952   5.627 -0.1628  0.3275  0.0905
  315POPC   D2A 4267   0.755   5.245   5.933 -0.1205 -0.3309  0.2002
  315POPC   C3A 4268   1.181   5.239   5.887  0.1918  0.1319  0.0506
  315POPC   C4A 4269   1.509   4.962   5.833  0.3801 -0.1082 -0.0207
  315POPC   C1B 4270  -0.048   4.632   5.488  0.2197 -0.1122  0.0645
  315POPC   C2B 4271  -0.069   4.583   5.913 -0.0537 -0.0323  0.0456
  315POPC   C3B 4272   0.009   4.405   6.333 -0.2427 -0.2560 -0.0971
  315POPC   C4B 4273   0.098   4.173   6.724  0.1944 -0.0413 -0.3049
  316POPC   NC3 4274   3.095   4.748   4.963  0.1112 -0.1058  0.0994
  316POPC   PO4 4275   3.234   5.097   4.801 -0.1565 -0.0843 -0.2878
  316POPC   GL1 4276   3.178   5.244   5.199  0.0498 -0.1391 -0.0134
  316POPC   GL2 4277   3.155   5.593   5.219  0.4282  0.1570 -0.1491
  316POPC   C1A 4278   3.382   5.408   5.588 -0.0396 -0.0144  0.0659
  316POPC   D2A 4279   3.498   5.695   5.914 -0.1226  0.0886 -0.0346
  316POPC   C3A 4280   3.664   5.964   5.798 -0.0084 -0.0236  0.0612
  316POPC   C4A 4281   3.740   6.266   6.040  0.0162  0.0076  0.0677
  316POPC   C1B 4282   2.908   5.642   5.725  0.3335 -0.1830  0.2665
  316POPC   C2B 4283   2.728   5.679   6.142  0.1797 -0.2500  0.2316
  316POPC   C3B 4284   2.724   5.656   6.680  0.4200 -0.0388  0.3468
  316POPC   C4B 4285   2.980   5.407   6.926  0.0211 -0.1247  0.1323
  317POPC   NC3 4286   5.459   0.985   3.160 -0.0052  0.2725  0.0927
  317POPC   PO4 4287   5.564   0.821   3.553  0.0749 -0.1287  0.0100
  317POPC   GL1 4288   5.487   0.947   3.969 -0.0797  0.0407 -0.4309
  317POPC   GL2 4289   5.650   1.232   4.131  0.1428  0.0852 -0.0242
  317POPC   C1A 4290   5.469   0.633   4.379 -0.1057 -0.1279 -0.0825
  317POPC   D2A 4291   5.879   0.320   4.578 -0.2464  0.1130 -0.2757
  317POPC   C3A 4292   5.925   0.247   5.057 -0.0732 -0.2045 -0.0351
  317POPC   C4A 4293   5.645   0.443   5.297 -0.2399 -0.3092 -0.1196
  317POPC   C1B 4294   5.657   1.730   4.219  0.0134 -0.0173 -0.5776
  317POPC   C2B 4295   5.816   2.156   4.188  0.1049  0.3380 -0.0065
  317POPC   C3B 4296   6.016   2.435   4.479  0.3301  0.1569  0.0938
  317POPC   C4B 4297   5.981   2.315   4.905  0.0839  0.2810 -0.1010
  318POPC   NC3 4298   4.977   5.908   4.927  0.0091  0.0362 -0.0819
  318POPC   PO4 4299   4.973   6.384   5.019  0.2686  0.0314  0.2054
  318POPC   GL1 4300   5.034   6.295   5.470 -0.1649  0.2278 -0.0859
  318POPC   GL2 4301   5.257   6.597   5.556  0.0116 -0.1529  0.1192
  318POPC   C1A 4302   5.135   6.149   5.881 -0.1144  0.2312  0.2739
  318POPC   D2A 4303   5.054   6.019   6.246 -0.2738  0.1268  0.2179
  318POPC   C3A 4304   4.711   5.857   6.470 -0.0539 -0.0527  0.1445
  318POPC   C4A 4305   4.578   5.861   6.824  0.1036 -0.3133  0.0129
  318POPC   C1B 4306   5.130   6.635   6.022  0.0310 -0.1124 -0.0564
  318POPC   C2B 4307   5.146   6.456   6.460  0.1091 -0.1139 -0.1335
  318POPC   C3B 4308   5.099   6.137   6.785  0.3067  0.1266 -0.2021
  318POPC   C4B 4309   5.030   5.882   7.050 -0.1515 -0.1845 -0.3511
  319POPC   NC3 4310   3.061   8.602   4.933  0.0956  0.1089 -0.1708
  319POPC   PO4 4311   2.643   8.472   5.009 -0.0048 -0.0616  0.1662
  319POPC   GL1 4312   2.769   8.550   5.400 -0.0639  0.2102 -0.1698
  319POPC   GL2 4313   2.989   8.774   5.424 -0.4026 -0.0468 -0.0142
  319POPC   C1A 4314   2.604   8.717   5.834 -0.2102 -0.0246 -0.1377
  319POPC   D2A 4315   2.218   8.746   6.169 -0.1008  0.2593  0.0783
  319POPC   C3A 4316   2.096   9.170   6.323  0.0256  0.2277 -0.0084
  319POPC   C4A 4317   1.988   9.437   6.809 -0.4217 -0.1108  0.3969
  319POPC   C1B 4318   3.066   8.536   5.805 -0.1383  0.0307  0.1201
  319POPC   C2B 4319   3.122   8.506   6.272  0.1575  0.1959  0.0430
  319POPC   C3B 4320   3.223   8.667   6.589 -0.0565  0.0132 -0.2090
  319POPC   C4B 4321   3.576   8.787   6.753  0.0300 -0.0474 -0.1910
  320POPC   NC3 4322   8.704   0.434   4.434 -0.1506  0.0797 -0.1351
  320POPC   PO4 4323   8.579  -0.049   4.535 -0.0524 -0.1061  0.1890
  320POPC   GL1 4324   8.587   0.150   4.999  0.1753 -0.0242  0.2108
  320POPC   GL2 4325   8.792  -0.024   5.281 -0.1976  0.0063  0.2420
  320POPC   C1A 4326   8.546   0.540   5.097  0.2078  0.1356  0.2006
  320POPC   D2A 4327   8.265   0.709   5.396  0.0982  0.1477 -0.2146
  320POPC   C3A 4328   7.852   0.488   5.478 -0.3384  0.0125  0.1355
  320POPC   C4A 4329   7.443   0.637   5.342 -0.1498 -0.0670  0.0146
  320POPC   C1B 4330   8.597   0.060   5.659 -0.2162  0.2809  0.1465
  320POPC   C2B 4331   8.391   0.001   6.102 -0.0065  0.1136 -0.0133
  320POPC   C3B 4332   8.339   0.006   6.467 -0.1527  0.1772 -0.0409
  320POPC   C4B 4333   8.370  -0.333   6.746 -0.2415  0.0694  0.1739
  321POPC   NC3 4334   7.840   8.364   5.350  0.1764  0.1861  0.0359
  321POPC   PO4 4335   7.702   8.120   5.573  0.0394  0.0832 -0.1391
  321POPC   GL1 4336   7.639   8.029   5.950 -0.1351 -0.2744 -0.3728
  321POPC   GL2 4337   7.626   7.647   6.052 -0.2449  0.0528 -0.0558
  321POPC   C1A 4338   7.721   8.119   6.362 -0.1531 -0.0610  0.1642
  321POPC   D2A 4339   7.627   8.465   6.650  0.1347  0.3206 -0.3971
  321POPC   C3A 4340   7.840   8.606   7.055  0.2507  0.1589 -0.1067
  321POPC   C4A 4341   7.960   8.412   7.415  0.0318 -0.0803 -0.1974
  321POPC   C1B 4342   7.372   7.728   6.285  0.3414  0.3526  0.2708
  321POPC   C2B 4343   7.275   7.588   6.720 -0.2233  0.1726  0.0780
  321POPC   C3B 4344   7.348   7.230   6.763  0.2134 -0.1698 -0.2487
  321POPC   C4B 4345   7.187   6.883   6.936  0.1529  0.1148  0.0624
  322POPC   NC3 4346   4.381   8.704   5.103 -0.0038 -0.0237  0.4253
  322POPC   PO4 4347   4.306   9.239   5.027  0.0476 -0.0397 -0.0727
  322POPC   GL1 4348   4.332   9.102   5.474 -0.0157 -0.2143  0.2858
  322POPC   GL2 4349   4.128   9.332   5.591  0.2953 -0.0727 -0.0401
  322POPC   C1A 4350   4.215   8.740   5.745 -0.1379  0.0296  0.3094
  322POPC   D2A 4351   4.468   8.494   6.043 -0.1307 -0.0201  0.1072
  322POPC   C3A 4352   4.723   8.559   6.334 -0.1098  0.0844  0.3350
  322POPC   C4A 4353   4.811   8.321   6.704 -0.3298  0.3829  0.0488
  322POPC   C1B 4354   4.111   9.320   6.043 -0.1738  0.0860 -0.0530
  322POPC   C2B 4355   4.255   9.102   6.321 -0.1853 -0.0233 -0.1525
  322POPC   C3B 4356   4.237   8.687   6.572 -0.1159  0.1355 -0.0274
  322POPC   C4B 4357   4.525   8.625   6.880 -0.0887 -0.0570  0.1979
  323POPC   NC3 4358   2.948   9.118   4.995  0.2276 -0.0368  0.0818
  323POPC   PO4 4359   3.159   9.483   4.931 -0.0358  0.3033 -0.2328
  323POPC   GL1 4360   3.193   9.258   5.389 -0.2501  0.1249 -0.0616
  323POPC   GL2 4361   3.083   9.417   5.621  0.1963 -0.1628  0.1756
  323POPC   C1A 4362   3.157   9.006   5.873 -0.4154  0.1051 -0.0215
  323POPC   D2A 4363   3.161   9.041   6.265 -0.1510  0.0053 -0.2729
  323POPC   C3A 4364   3.384   9.347   6.512  0.0232 -0.0426  0.0267
  323POPC   C4A 4365   3.537   9.571   6.834 -0.1038  0.0605 -0.0086
  323POPC   C1B 4366   3.129   9.533   6.124  0.2044  0.1202 -0.0807
  323POPC   C2B 4367   2.906   9.417   6.558 -0.0584 -0.1418 -0.2267
  323POPC   C3B 4368   2.564   9.327   6.747  0.0120 -0.1315 -0.0642
  323POPC   C4B 4369   2.302   8.990   6.755 -0.0035 -0.1433  0.1030
  324POPC   NC3 4370   7.816   1.445   3.254 -0.3045 -0.2324 -0.0188
  324POPC   PO4 4371   7.901   1.304   3.747  0.0145 -0.1794  0.0017
  324POPC   GL1 4372   7.816   1.558   4.202 -0.0057  0.0347 -0.0499
  324POPC   GL2 4373   7.600   1.303   4.444 -0.2950  0.0366  0.1269
  324POPC   C1A 4374   7.907   1.763   4.569  0.0885  0.3068 -0.5046
  324POPC   D2A 4375   8.277   1.811   4.674 -0.0865 -0.3110 -0.0833
  324POPC   C3A 4376   8.311   1.832   5.164  0.1502  0.3158  0.0314
  324POPC   C4A 4377   8.486   1.835   5.619  0.3568 -0.0921  0.3063
  324POPC   C1B 4378   7.231   1.157   4.377 -0.0228 -0.1490 -0.2065
  324POPC   C2B 4379   6.933   0.923   4.538 -0.0533  0.0336  0.2433
  324POPC   C3B 4380   6.719   0.823   4.842  0.0431  0.0588 -0.1120
  324POPC   C4B 4381   6.889   0.581   5.208 -0.0320  0.0200  0.1669
  325POPC   NC3 4382   3.089   9.921   5.386  0.0712  0.0853 -0.0322
  325POPC   PO4 4383   2.880  10.297   5.474  0.1345  0.0385 -0.1393
  325POPC   GL1 4384   3.173  10.215   5.761  0.0964  0.0966  0.0480
  325POPC   GL2 4385   3.380  10.004   5.871 -0.0478 -0.0629  0.1768
  325POPC   C1A 4386   3.333  10.470   6.108 -0.2571  0.2865  0.2237
  325POPC   D2A 4387   3.415  10.645   6.462 -0.1287  0.1515 -0.2867
  325POPC   C3A 4388   3.820  10.486   6.654 -0.0088 -0.3631  0.4852
  325POPC   C4A 4389   3.921  10.251   6.959 -0.0479  0.0498  0.1177
  325POPC   C1B 4390   3.614   9.722   6.099  0.0608  0.2559 -0.1971
  325POPC   C2B 4391   3.894   9.497   6.479  0.0186 -0.1177  0.0479
  325POPC   C3B 4392   3.986   9.250   6.920 -0.2411  0.0394 -0.0008
  325POPC   C4B 4393   4.125   9.205   7.321 -0.1849  0.0450 -0.0278
  326POPC   NC3 4394   9.255   7.530   4.635 -0.3970  0.0338  0.2154
  326POPC   PO4 4395   9.691   7.606   4.918 -0.2528 -0.0212 -0.1956
  326POPC   GL1 4396   9.687   7.515   5.372  0.1426 -0.0501  0.0248
  326POPC   GL2 4397   9.924   7.679   5.587 -0.1013  0.1303  0.1451
  326POPC   C1A 4398   9.329   7.403   5.587 -0.0869  0.1545  0.2013
  326POPC   D2A 4399   9.066   7.117   5.700 -0.0346  0.2479 -0.3629
  326POPC   C3A 4400   9.225   6.915   6.044  0.1266  0.0663 -0.0673
  326POPC   C4A 4401   9.245   6.679   6.454  0.2182 -0.3562  0.3820
  326POPC   C1B 4402  10.125   7.474   5.932  0.3266  0.0011 -0.0613
  326POPC   C2B 4403  10.348   7.461   6.321  0.3527  0.2308 -0.0248
  326POPC   C3B 4404  10.549   7.449   6.741  0.0361  0.1136  0.2496
  326POPC   C4B 4405  10.750   7.102   6.896 -0.0207 -0.3493  0.0470
  327POPC   NC3 4406   9.892   2.467   4.376 -0.0688  0.1198 -0.0665
  327POPC   PO4 4407   9.754   2.418   4.735  0.0439 -0.0135  0.0883
  327POPC   GL1 4408   9.838   2.530   5.244 -0.2270 -0.1806 -0.0409
  327POPC   GL2 4409   9.778   2.241   5.450 -0.4191  0.1369 -0.0081
  327POPC   C1A 4410   9.882   2.800   5.572  0.1364  0.0109 -0.1173
  327POPC   D2A 4411   9.745   2.870   6.039 -0.1237 -0.2615 -0.1479
  327POPC   C3A 4412   9.905   2.934   6.433 -0.0506  0.5679 -0.0883
  327POPC   C4A 4413  10.161   3.047   6.612  0.0174  0.2745 -0.0452
  327POPC   C1B 4414   9.601   2.458   5.742 -0.1317  0.1233 -0.0896
  327POPC   C2B 4415   9.727   2.401   6.230 -0.1962  0.1160 -0.4019
  327POPC   C3B 4416   9.585   2.595   6.570  0.0125  0.4180  0.0775
  327POPC   C4B 4417   9.149   2.703   6.741 -0.1413  0.0148  0.2609
  328POPC   NC3 4418   9.009  10.423   4.791 -0.1756  0.4972  0.1980
  328POPC   PO4 4419   9.424  10.808   4.932  0.3270  0.2185  0.0466
  328POPC   GL1 4420   9.233  10.854   5.288  0.2928 -0.1449  0.3092
  328POPC   GL2 4421   9.006  11.123   5.332 -0.3681 -0.1875  0.5896
  328POPC   C1A 4422   9.274  10.728   5.660  0.4720 -0.0844 -0.0661
  328POPC   D2A 4423   9.566  10.902   6.019 -0.0172  0.1565 -0.1297
  328POPC   C3A 4424   9.817  10.678   6.241  0.1410 -0.0542 -0.2113
  328POPC   C4A 4425   9.961  10.511   6.657  0.0660  0.2666  0.0285
  328POPC   C1B 4426   8.764  11.045   5.554 -0.4114  0.0027 -0.0431
  328POPC   C2B 4427   8.782  10.837   6.002 -0.1358 -0.2760  0.3096
  328POPC   C3B 4428   8.884  10.357   6.052 -0.2188  0.1811 -0.0433
  328POPC   C4B 4429   8.817  10.032   6.366 -0.1151  0.2491  0.0413
  329POPC   NC3 4430   4.135   9.636   4.693  0.0044 -0.0573 -0.2522
  329POPC   PO4 4431   4.367   9.897   4.823 -0.3557  0.1266 -0.0374
  329POPC   GL1 4432   4.748  10.129   4.936 -0.0564  0.0154  0.1126
  329POPC   GL2 4433   4.921   9.898   5.115  0.0647  0.3664 -0.1368
  329POPC   C1A 4434   4.694  10.509   5.125  0.2776  0.1586 -0.2149
  329POPC   D2A 4435   4.476  10.728   5.240  0.2679  0.0917  0.2046
  329POPC   C3A 4436   4.778  10.926   5.528 -0.1262  0.3240  0.0416
  329POPC   C4A 4437   4.735  11.189   5.838  0.1382 -0.1595 -0.1727
  329POPC   C1B 4438   4.929  10.167   5.497  0.1927 -0.0576  0.0700
  329POPC   C2B 4439   4.817  10.538   5.800  0.2451  0.1282  0.1870
  329POPC   C3B 4440   4.659  10.789   6.144  0.0944  0.3705 -0.0622
  329POPC   C4B 4441   4.758  10.842   6.531 -0.0425 -0.0703 -0.1271
  330POPC   NC3 4442   3.940   8.363   4.749  0.1348 -0.1726 -0.0516
  330POPC   PO4 4443   3.644   8.639   4.987  0.2810  0.1272 -0.0809
  330POPC   GL1 4444   3.436   8.546   5.378 -0.1461  0.1905 -0.3490
  330POPC   GL2 4445   3.575   8.834   5.547 -0.2908 -0.1373 -0.1684
  330POPC   C1A 4446   3.552   8.292   5.717 -0.0287  0.1279  0.2537
  330POPC   D2A 4447   3.444   8.112   6.084 -0.0395 -0.0441  0.1197
  330POPC   C3A 4448   3.849   8.005   6.333 -0.0348 -0.0848  0.0861
  330POPC   C4A 4449   4.243   7.907   6.200 -0.0014  0.1857 -0.1942
  330POPC   C1B 4450   3.544   8.701   5.993  0.0901  0.0407 -0.4234
  330POPC   C2B 4451   3.635   8.483   6.407  0.0083 -0.0847  0.2202
  330POPC   C3B 4452   3.433   8.168   6.575  0.0081  0.0346  0.1464
  330POPC   C4B 4453   3.459   7.732   6.430 -0.1273  0.0816 -0.1680
  331POPC   NC3 4454   5.534   3.829   3.713  0.1610 -0.1274 -0.0628
  331POPC   PO4 4455   5.353   4.154   4.146 -0.2524 -0.0108  0.0861
  331POPC   GL1 4456   5.366   3.983   4.526 -0.2660  0.2912 -0.4110
  331POPC   GL2 4457   5.627   4.151   4.602 -0.3623 -0.0416 -0.2603
  331POPC   C1A 4458   5.079   3.930   4.860 -0.3560  0.3874 -0.0076
  331POPC   D2A 4459   4.751   4.002   5.120  0.2666  0.0651 -0.0679
  331POPC   C3A 4460   4.665   3.648   5.521  0.0798  0.0258  0.1571
  331POPC   C4A 4461   4.738   3.675   5.902 -0.0825 -0.1574 -0.3579
  331POPC   C1B 4462   5.536   3.926   5.015  0.3266 -0.1632 -0.0404
  331POPC   C2B 4463   5.193   3.863   5.343 -0.0427 -0.2246  0.0626
  331POPC   C3B 4464   4.974   4.120   5.635 -0.0608  0.1457 -0.0560
  331POPC   C4B 4465   4.749   4.286   6.021 -0.0418 -0.2270  0.0714
  332POPC   NC3 4466   1.679   3.041   4.722 -0.0050 -0.0307  0.4020
  332POPC   PO4 4467   1.988   3.054   5.016 -0.1607 -0.2640 -0.0845
  332POPC   GL1 4468   1.775   3.064   5.357  0.0479  0.2950  0.1481
  332POPC   GL2 4469   1.592   2.823   5.555 -0.5135  0.1007 -0.3991
  332POPC   C1A 4470   1.539   3.294   5.577 -0.2253  0.3188  0.1161
  332POPC   D2A 4471   1.512   3.540   5.939  0.3798  0.0798  0.2617
  332POPC   C3A 4472   1.446   3.568   6.327 -0.1164  0.0929  0.0707
  332POPC   C4A 4473   1.414   3.752   6.730 -0.1066 -0.0647 -0.2353
  332POPC   C1B 4474   1.599   2.833   5.969 -0.4103 -0.0949  0.2774
  332POPC   C2B 4475   1.703   3.107   6.176 -0.3090 -0.1099 -0.0363
  332POPC   C3B 4476   1.857   3.356   6.482 -0.3124  0.2329  0.0586
  332POPC   C4B 4477   1.693   3.366   6.968  0.1245  0.0071  0.0886
  333POPC   NC3 4478   8.183  10.442   4.269  0.3529  0.2300  0.1611
  333POPC   PO4 4479   7.726  10.537   4.288  0.0016  0.3531 -0.0151
  333POPC   GL1 4480   7.513  10.569   4.571 -0.1343 -0.2736 -0.0223
  333POPC   GL2 4481   7.188  10.454   4.804  0.0852  0.1048 -0.1423
  333POPC   C1A 4482   7.590  10.637   4.998 -0.4210 -0.2692  0.0049
  333POPC   D2A 4483   7.553  10.557   5.392  0.0566 -0.3550  0.2150
  333POPC   C3A 4484   7.575  10.653   5.868 -0.2036  0.0135 -0.4152
  333POPC   C4A 4485   7.836  10.900   6.274  0.0864  0.3129  0.1569
  333POPC   C1B 4486   7.099  10.616   5.170 -0.1262  0.2149  0.0699
  333POPC   C2B 4487   7.036  10.644   5.655 -0.2918  0.1033  0.1111
  333POPC   C3B 4488   6.859  10.556   6.012  0.3364 -0.3008 -0.1490
  333POPC   C4B 4489   6.679  10.767   6.357 -0.1395  0.1791 -0.0496
  334POPC   NC3 4490   1.057   1.900   4.986 -0.1535 -0.2125 -0.1493
  334POPC   PO4 4491   0.683   2.224   4.993 -0.1650 -0.2687 -0.0085
  334POPC   GL1 4492   0.547   2.190   5.400  0.0854  0.2383  0.2932
  334POPC   GL2 4493   0.408   2.432   5.530 -0.1350  0.3997 -0.3030
  334POPC   C1A 4494   0.558   1.972   5.797  0.0509 -0.0712 -0.1320
  334POPC   D2A 4495   0.504   2.026   6.286 -0.1741  0.3260  0.3857
  334POPC   C3A 4496   0.655   1.784   6.634 -0.2485 -0.3977 -0.1403
  334POPC   C4A 4497   0.941   1.819   6.915  0.1259  0.3034 -0.1769
  334POPC   C1B 4498   0.854   2.576   5.734  0.3732  0.0928  0.5073
  334POPC   C2B 4499   1.127   2.889   5.612 -0.1982  0.0157  0.0497
  334POPC   C3B 4500   1.217   3.131   5.887  0.0506 -0.1595  0.0094
  334POPC   C4B 4501   1.178   3.193   6.443  0.1108 -0.1807  0.1430
  335POPC   NC3 4502   0.986   5.700   4.730  0.1627 -0.3190  0.0111
  335POPC   PO4 4503   1.195   5.947   4.996 -0.1439 -0.1504 -0.1326
  335POPC   GL1 4504   1.224   6.070   5.391  0.0321 -0.1099 -0.0090
  335POPC   GL2 4505   1.406   6.370   5.523  0.1265  0.0224 -0.0444
  335POPC   C1A 4506   1.104   6.152   5.884  0.1344 -0.0873  0.0228
  335POPC   D2A 4507   0.811   6.395   6.127 -0.0648  0.1114  0.1634
  335POPC   C3A 4508   0.447   6.351   6.211  0.0285 -0.0123  0.4591
  335POPC   C4A 4509   0.102   6.265   6.512  0.0838  0.0013 -0.0208
  335POPC   C1B 4510   1.580   6.453   5.894 -0.0657 -0.2179  0.1594
  335POPC   C2B 4511   1.739   6.525   6.337  0.0204  0.1082  0.1684
  335POPC   C3B 4512   1.981   6.415   6.669 -0.1568  0.2555  0.2374
  335POPC   C4B 4513   2.256   6.505   6.930 -0.0856 -0.0141 -0.0784
  336POPC   NC3 4514   9.617   8.050   4.649 -0.1892  0.3705  0.2859
  336POPC   PO4 4515   9.253   8.260   4.867  0.0079 -0.3580  0.1992
  336POPC   GL1 4516   9.319   8.351   5.327  0.2081 -0.0766 -0.2097
  336POPC   GL2 4517   9.542   8.522   5.379 -0.4743 -0.0085 -0.1397
  336POPC   C1A 4518   9.402   8.104   5.701  0.2748 -0.2175 -0.1635
  336POPC   D2A 4519   9.487   8.205   6.182 -0.0273  0.2317 -0.0732
  336POPC   C3A 4520   9.478   7.940   6.513  0.2965 -0.1177  0.0227
  336POPC   C4A 4521   9.647   8.024   6.954  0.0272 -0.0805  0.0969
  336POPC   C1B 4522   9.651   8.623   5.760  0.0443 -0.0234  0.0914
  336POPC   C2B 4523   9.817   8.536   6.103 -0.2901 -0.1938  0.2548
  336POPC   C3B 4524   9.849   8.332   6.563  0.0240 -0.0709  0.0722
  336POPC   C4B 4525  10.050   8.318   7.042 -0.1642 -0.1582  0.2164
  337POPC   NC3 4526   9.400   6.777   4.506  0.3153  0.2884  0.3638
  337POPC   PO4 4527   9.609   7.194   4.653 -0.0314  0.0534 -0.0444
  337POPC   GL1 4528   9.554   6.990   5.086 -0.1566  0.1723  0.2470
  337POPC   GL2 4529   9.694   6.735   5.120 -0.0854 -0.0641  0.0315
  337POPC   C1A 4530   9.413   6.782   5.520 -0.2139  0.2850  0.2143
  337POPC   D2A 4531   9.596   6.558   5.849  0.0464 -0.2322  0.1707
  337POPC   C3A 4532   9.699   6.810   6.265  0.1412 -0.2689  0.0175
  337POPC   C4A 4533   9.604   6.985   6.657 -0.1836 -0.1935  0.1055
  337POPC   C1B 4534  10.035   6.713   5.325  0.0036  0.0083 -0.3380
  337POPC   C2B 4535  10.111   6.714   5.782  0.1199  0.2457  0.0623
  337POPC   C3B 4536  10.133   7.009   6.124 -0.0594  0.0893  0.2572
  337POPC   C4B 4537   9.914   7.287   6.360 -0.0552 -0.0793 -0.2552
  338W        W 4538   5.690   8.478  12.702 -0.0772 -0.2493  0.1371
  339W        W 4539   6.766   7.878  10.805 -0.1562 -0.0118  0.5449
  340W        W 4540   5.755   2.493   1.284 -0.4030  0.0308 -0.1664
  341W        W 4541   7.505   3.995  12.783  0.0493  0.0293  0.2550
  342W        W 4542   6.358   0.281  12.518 -0.0578  0.0463 -0.1158
  343W        W 4543   4.368   3.274  12.746  0.2042  0.2960 -0.1845
  344W        W 4544   9.998   0.429  11.831  0.0801  0.1166  0.2587
  345W        W 4545   0.337   3.312   3.122  0.1124  0.2947  0.2268
  346W        W 4546   1.918   5.339   2.420 -0.1855  0.0592  0.1583
  347W        W 4547   7.521   5.208   0.103  0.5362  0.1006 -0.2551
  348W        W 4548   3.033   8.598  10.686 -0.1801 -0.2092 -0.1258
  349W        W 4549   8.189   9.447   9.802  0.2397 -0.0125 -0.1799
  350W        W 4550   3.379   7.250   2.996 -0.0274  0.0042 -0.0889
  351W        W 4551   8.126   2.224   3.815  0.1856 -0.0704 -0.0608
  352W        W 4552   8.468   5.272   1.198  0.1921 -0.2780  0.0633
  353W        W 4553   7.418   5.161   2.722 -0.0273 -0.5197  0.0789
  354W        W 4554   0.690   5.251  13.427  0.0355  0.2720 -0.2871
  355W        W 4555   1.044   8.638   0.697  0.1612  0.0049 -0.1817
  356W        W 4556   0.072   6.238  12.780  0.1025 -0.0092 -0.0308
  357W        W 4557   7.601   5.363   9.185 -0.3283  0.0181  0.1121
  358W        W 4558   2.044   3.927  12.507  0.0780 -0.4542  0.1608
  359W        W 4559   5.452   1.343  10.742  0.0816  0.0364 -0.2201
  360W        W 4560   2.843   4.025   2.247 -0.1148  0.0554 -0.1439
  361W        W 4561   4.361   9.603   2.582  0.1664 -0.2660  0.3900
  362W        W 4562   0.868   4.716  12.869 -0.0813  0.0038  0.1217
  363W        W 4563   1.981   6.297   3.311 -0.1768 -0.0987  0.0665
  364W        W 4564   0.897   7.683   1.811  0.3028 -0.2524 -0.2299
  365W        W 4565   8.533  10.053   2.943  0.1244 -0.3710  0.1637
  366W        W 4566   7.497   4.440  10.175  0.1908  0.1330  0.0291
  367W        W 4567   9.875   7.873  12.791  0.0920 -0.0348  0.0087
  368W        W 4568   4.442   0.710   1.075  0.1434 -0.0405 -0.2758
  369W        W 4569   1.561   8.253   4.085 -0.0177  0.2091  0.1435
  370W        W 4570   2.545   3.335   0.184  0.3695  0.0600 -0.2238
  371W        W 4571   1.218   1.578   4.016  0.1815  0.4001 -0.2277
  372W        W 4572   7.338   0.254   2.734 -0.2493  0.0880  0.0087
  373W        W 4573  10.271   2.751  12.421 -0.0771 -0.2416  0.0422
  374W        W 4574   3.202   8.123   8.953 -0.2292  0.0144 -0.1163
  375W        W 4575   8.017   2.594  13.016  0.0778  0.1920 -0.2285
  376W        W 4576   1.386   6.751   3.809 -0.0103 -0.0848 -0.1264
  377W        W 4577   9.043   7.244  10.719 -0.0489 -0.0113  0.0538
  378W        W 4578   3.081   7.212  12.953  0.1545 -0.3836  0.1317
  379W        W 4579   2.533   4.878  10.533  0.1133  0.1160  0.2215
  380W        W 4580   8.953   8.309  10.724  0.0717 -0.3395  0.0692
  381W        W 4581   8.994   9.020   1.610  0.1071 -0.3318 -0.1572
  382W        W 4582   8.109   1.495  12.862  0.1965 -0.2190  0.4625
  383W        W 4583   4.729   0.706   1.531  0.1869 -0.1362 -0.1405
  384W        W 4584   4.582   7.227   2.955  0.4849 -0.0883  0.3010
  385W        W 4585   2.306   9.214   1.171 -0.1428  0.1277 -0.1671
  386W        W 4586   7.659   8.282   4.760  0.1029 -0.0651 -0.2744
  387W        W 4587   8.873   5.879   0.585  0.3451  0.0903 -0.0663
  388W        W 4588   5.789   9.005   0.481  0.1375  0.1017 -0.2337
  389W        W 4589   3.083  10.132   8.520 -0.0895 -0.1518 -0.0379
  390W        W 4590   5.727   0.221   2.024  0.1707 -0.0784  0.0720
  391W        W 4591   5.432   0.416  10.728  0.0620  0.0994 -0.1483
  392W        W 4592   6.698   3.813   1.112  0.2629  0.2561 -0.3186
  393W        W 4593   5.708   5.333   1.640 -0.4146 -0.0907  0.4733
  394W        W 4594   8.049   7.454   2.684 -0.1996  0.3521  0.1875
  395W        W 4595  10.441   7.520   8.594  0.0396  0.2331 -0.0312
  396W        W 4596   0.401   6.724   8.829  0.0009 -0.0160 -0.0654
  397W        W 4597   6.701   4.496   3.238  0.4469 -0.1971 -0.3320
  398W        W 4598   8.304   3.005   3.259  0.1797  0.1945  0.1917
  399W        W 4599   6.177   7.021   1.833  0.1636  0.0585  0.4018
  400W        W 4600   3.616   5.051  12.642 -0.0426  0.2167  0.0251
  401W        W 4601   6.634   6.370  12.550  0.0157  0.1285  0.0361
  402W        W 4602  10.043   5.085  11.799 -0.0731  0.1490 -0.0337
  403W        W 4603   1.500   5.887   3.876 -0.0629 -0.0082 -0.0635
  404W        W 4604   8.952   2.566   0.332  0.2330 -0.1208  0.0938
  405W        W 4605   1.718   8.620  11.526  0.2672 -0.0052 -0.0511
  406W        W 4606   1.872   4.465  11.361 -0.2259 -0.2752 -0.0474
  407W        W 4607   0.006   9.303   2.688  0.1321 -0.3742 -0.3140
  408W        W 4608   3.549   5.792   4.361  0.1278 -0.1268 -0.0603
  409W        W 4609   6.435  10.017  12.013 -0.1087 -0.1137  0.1853
  410W        W 4610   9.453   4.421  10.623 -0.0418  0.1710 -0.0920
  411W        W 4611   1.754   0.601   9.632 -0.1129  0.4972  0.1269
  412W        W 4612   2.510   6.711  10.078 -0.2331  0.0074 -0.1439
  413W        W 4613   6.474   0.479  12.022  0.2495 -0.1316  0.0606
  414W        W 4614   0.668   9.986   1.278  0.0681  0.0395 -0.0456
  415W        W 4615   3.208   0.917   9.766  0.2497  0.0188  0.2749
  416W        W 4616   8.868   1.823   3.913  0.2656  0.0144  0.2351
  417W        W 4617   2.568   2.273   0.811 -0.0606  0.3371 -0.2252
  418W        W 4618   3.777   4.881   0.477 -0.2192  0.0220 -0.1992
  419W        W 4619   6.786   9.361  13.130 -0.0959 -0.2450 -0.2193
  420W        W 4620   0.241  10.220   4.317 -0.0191 -0.1642 -0.0130
  421W        W 4621   5.658   5.048   2.211  0.1510  0.0083  0.2857
  422W        W 4622   1.019   3.881   1.801  0.0862 -0.0507  0.2014
  423W        W 4623   4.362   2.243  12.038  0.2010 -0.1307  0.2453
  424W        W 4624   2.126   5.944   1.721 -0.0319 -0.0419 -0.3676
  425W        W 4625   1.510   5.729   2.966 -0.3089  0.0692 -0.0323
  426W        W 4626   4.201   7.607   0.501  0.0064  0.1303 -0.2378
  427W        W 4627   2.709   6.591  11.193 -0.5032 -0.0131 -0.0728
  428W        W 4628   1.848   1.532  11.852  0.1231 -0.0023 -0.0475
  429W        W 4629   2.646   8.213  10.846 -0.1480 -0.2360  0.2558
  430W        W 4630   9.331   6.853   2.360 -0.0586 -0.2014 -0.1606
  431W        W 4631   8.028   8.919  13.188 -0.1045 -0.1441  0.7279
  432W        W 4632   1.843   0.070   9.390 -0.0482  0.2143  0.2664
  433W        W 4633   3.759   6.006   4.773  0.0015 -0.0771  0.0022
  434W        W 4634   2.479   8.317  12.824 -0.0750 -0.1034  0.1598
  435W        W 4635   2.391   1.740   9.516 -0.2189  0.1619 -0.0339
  436W        W 4636   9.158   7.131   3.382  0.1790 -0.1026 -0.1142
  437W        W 4637   3.891   7.714   1.172 -0.2649 -0.0991  0.0626
  438W        W 4638   4.915   5.681   1.030  0.0385  0.4403  0.0212
  439W        W 4639   9.650   8.680   3.910  0.2758 -0.3997 -0.0037
  440W        W 4640   8.274   6.607   2.212  0.1966 -0.1297  0.2973
  441W        W 4641   1.939   1.162  13.240 -0.1262 -0.1404 -0.0694
  442W        W 4642   8.939   3.681  12.020 -0.0460  0.2216 -0.2206
  443W        W 4643   2.051   3.413   0.335 -0.0431 -0.0799 -0.4276
  444W        W 4644   6.835   5.617  10.768  0.0874 -0.3030 -0.0382
  445W        W 4645   2.138   4.218  11.860  0.0384 -0.2530  0.1127
  446W        W 4646   5.432   7.440   1.198 -0.1845  0.0786 -0.0404
  447W        W 4647   4.654  10.025   9.467 -0.0660  0.2671  0.0001
  448W        W 4648   5.197  10.058  13.286 -0.1245  0.1489  0.0213
  449W        W 4649   3.258  10.235   1.193 -0.3113  0.0452 -0.0167
  450W        W 4650   1.290   0.853  11.924 -0.0092  0.0670  0.3557
  451W        W 4651   0.816  10.317  12.928  0.2334  0.2187 -0.0672
  452W        W 4652   0.409   8.624   2.085  0.0213  0.1829 -0.1915
  453W        W 4653   1.176   4.386  12.616  0.1559 -0.0322  0.0909
  454W        W 4654   5.321   0.067   9.728 -0.0263  0.2146 -0.0556
  455W        W 4655   7.378   8.735   3.940  0.2706  0.2146  0.0922
  456W        W 4656   3.741   2.528   5.128 -0.1931  0.0111  0.1310
  457W        W 4657   1.771   3.228   3.721 -0.0855  0.1112  0.4146
  458W        W 4658   5.125   2.224  10.544  0.2392 -0.0166 -0.2122
  459W        W 4659   2.969   5.965  11.359  0.1638  0.1162 -0.0780
  460W        W 4660   7.128   9.014  12.944 -0.2184  0.1380 -0.0790
  461W        W 4661   4.390   4.920  11.755 -0.5187 -0.1818  0.2872
  462W        W 4662   3.460   1.238  11.899  0.2144 -0.0394  0.0366
  463W        W 4663   3.257   8.083   4.169 -0.1486 -0.0542 -0.0322
  464W        W 4664  10.345  10.322  10.039 -0.2168  0.2503  0.2413
  465W        W 4665   8.203   2.066  10.801 -0.2472  0.1269  0.1414
  466W        W 4666   7.945   0.419   0.725 -0.4263  0.1216  0.0754
  467W        W 4667   3.788   5.047   3.065  0.1915 -0.1641 -0.0691
  468W        W 4668   0.733   2.074  13.119  0.3332  0.0940  0.1102
  469W        W 4669   1.574   7.562   9.147  0.3272  0.0528 -0.2693
  470W        W 4670   0.144   6.795   2.446 -0.1516 -0.1216 -0.1740
  471W        W 4671   4.683   8.619  13.103  0.2615 -0.0142 -0.0261
  472W        W 4672   3.157   2.772   2.750  0.1030 -0.0532  0.0857
  473W        W 4673   0.381   4.656  12.882 -0.0635  0.1837  0.4624
  474W        W 4674   8.227   8.767   1.014  0.0826  0.2681  0.2062
  475W        W 4675   8.313   0.953   0.088  0.0023 -0.1899  0.0872
  476W        W 4676   9.427   7.354  11.576 -0.1551 -0.0431 -0.1598
  477W        W 4677   0.161   0.107  11.330  0.1294 -0.1384  0.1575
  478W        W 4678   2.081   3.769   2.854 -0.1630 -0.1265 -0.1139
  479W        W 4679  10.089   2.125  12.936  0.2338  0.1683 -0.1242
  480W        W 4680   3.205   6.240   0.507 -0.0572 -0.0536 -0.1484
  481W        W 4681   9.814   8.134  11.916 -0.5383 -0.0602  0.1456
  482W        W 4682   5.536   2.244  12.315  0.1533  0.2090  0.3627
  483W        W 4683   1.295   2.076   1.564 -0.1092  0.1380  0.0786
  484W        W 4684   5.423   5.080   9.566  0.0041  0.3107 -0.3313
  485W        W 4685  10.396   1.568   1.293  0.0708  0.2103  0.5078
  486W        W 4686   6.046   4.921  11.846 -0.0175 -0.0132 -0.0685
  487W        W 4687   5.018   5.711   2.173 -0.0193  0.1347 -0.1565
  488W        W 4688   2.637   3.830   4.964  0.1889 -0.1407  0.1315
  489W        W 4689   3.003   1.200  11.698  0.3059 -0.0059  0.1256
  490W        W 4690   8.489   9.486   1.892 -0.2435  0.0777  0.1704
  491W        W 4691   0.955   7.622   0.004  0.0333 -0.2185 -0.0364
  492W        W 4692   3.664   4.476   4.343 -0.1335  0.2670 -0.4489
  493W        W 4693   9.322   4.343   3.063 -0.1710 -0.0275  0.1502
  494W        W 4694  10.291   8.007  10.717 -0.2436 -0.2637 -0.3867
  495W        W 4695   5.511   8.074   2.741  0.0124  0.1801 -0.0305
  496W        W 4696   7.604   2.256  11.129 -0.4759  0.0406  0.1341
  497W        W 4697   4.262   4.795   3.706  0.2476 -0.1341  0.1332
  498W        W 4698   7.078   4.354   1.231 -0.2759 -0.0237  0.3081
  499W        W 4699   1.086   8.820   9.208  0.0828  0.0286 -0.0375
  500W        W 4700   1.992   1.814  13.107 -0.3258  0.2796 -0.2758
  501W        W 4701   2.323   3.508   9.456  0.0636 -0.1851  0.2410
  502W        W 4702   5.095  10.265  10.087  0.1317  0.2618 -0.3448
  503W        W 4703   0.339   6.348  11.891 -0.0308  0.0313  0.0778
  504W        W 4704  10.019   1.951   4.677  0.1858  0.0899 -0.0715
  505W        W 4705   9.537   4.131   0.272  0.4982 -0.1030  0.0547
  506W        W 4706   9.215   0.408  10.610 -0.0727  0.1041 -0.1510
  507W        W 4707   0.233   9.834   1.985 -0.1044 -0.2295 -0.0594
  508W        W 4708   2.680   4.209  11.887 -0.1101 -0.3227 -0.1908
  509W        W 4709   5.219   4.887  13.087 -0.1719  0.0316 -0.3155
  510W        W 4710   0.808   2.690   1.797 -0.1278  0.2747 -0.1038
  511W        W 4711   6.100   5.150  10.171  0.0898  0.2894  0.1675
  512W        W 4712   4.855   7.521   2.253 -0.0571 -0.2099  0.1836
  513W        W 4713   8.428   1.314  10.353 -0.3016  0.0318  0.2389
  514W        W 4714   3.616   2.544  10.753  0.1772  0.1996 -0.1337
  515W        W 4715  10.150   0.334  11.225  0.2402  0.0837  0.1785
  516W        W 4716   8.368   7.958   0.781  0.1027 -0.0502  0.1716
  517W        W 4717   5.473   8.598   2.583 -0.2267 -0.0749 -0.5354
  518W        W 4718   3.660  10.169   1.550 -0.0134  0.1349  0.2091
  519W        W 4719   3.743   7.435  11.095 -0.1257  0.1273 -0.0797
  520W        W 4720   0.406   4.427   0.574 -0.0586 -0.0261  0.0888
  521W        W 4721   4.245   7.048   3.233  0.2655 -0.0100  0.2000
  522W        W 4722   1.517   5.048  12.076 -0.1893 -0.0665  0.1893
  523W        W 4723   2.007   1.239   2.523 -0.0100 -0.1544  0.0089
  524W        W 4724   8.684   8.976   3.311  0.0036 -0.1792 -0.3079
  525W        W 4725   0.456   3.608   0.707 -0.0090 -0.0537  0.1390
  526W        W 4726   5.736   0.346  13.097 -0.1871 -0.5424 -0.3123
  527W        W 4727   4.980   2.942   2.287  0.0083  0.1156 -0.2933
  528W        W 4728   5.125  10.046  11.815  0.3387 -0.0610  0.0298
  529W        W 4729   1.230   5.961  11.666 -0.2226  0.1408 -0.1618
  530W        W 4730   7.445   7.946  12.548  0.0707 -0.3979  0.2246
  531W        W 4731   5.790   2.937   1.622  0.1279 -0.1624 -0.1884
  532W        W 4732   2.814   3.178   3.843  0.2306  0.2333 -0.2232
  533W        W 4733   6.943   7.567   3.674  0.2074  0.4983 -0.4435
  534W        W 4734   6.549   3.505  11.048  0.1080  0.3055 -0.0931
  535W        W 4735   6.786   7.101   1.227  0.4215  0.2541  0.1325
  536W        W 4736   2.972  10.273  12.703  0.2591  0.2820  0.3395
  537W        W 4737   7.568   5.972  10.798  0.0998 -0.2480  0.0864
  538W        W 4738   8.891   3.837  10.364 -0.3024  0.1684 -0.3601
  539W        W 4739   8.698   9.737   2.232 -0.5075  0.1844 -0.2324
  540W        W 4740   7.721   2.844  11.867  0.0682  0.1566  0.1975
  541W        W 4741   7.486   9.365   9.080 -0.0669  0.1281 -0.0316
  542W        W 4742   2.226  10.296   8.616  0.4917 -0.1989  0.0772
  543W        W 4743   8.487   2.661  12.808  0.2353  0.2680  0.1074
  544W        W 4744   4.567   2.765   1.977 -0.2199 -0.1791 -0.3619
  545W        W 4745   5.138   4.949   3.529  0.1098  0.1464 -0.0258
  546W        W 4746   0.623   7.925   4.547  0.0373 -0.0350  0.3910
  547W        W 4747   9.047   0.328  12.899 -0.2156 -0.0184 -0.1668
  548W        W 4748   2.630   6.810   4.230  0.0644 -0.4746  0.1970
  549W        W 4749   7.870   4.801   1.672 -0.1806  0.0689  0.3221
  550W        W 4750   3.882   3.023  11.545 -0.3168  0.4560 -0.1571
  551W        W 4751   6.787   4.848  11.606  0.0100 -0.2470 -0.0246
  552W        W 4752   1.534   8.528   1.064 -0.1145  0.1718 -0.0753
  553W        W 4753   7.794   8.354  12.455 -0.3709 -0.2196 -0.1964
  554W        W 4754   5.000   9.319  11.784 -0.1268 -0.1374  0.1423
  555W        W 4755   9.855   1.809  10.082  0.0260 -0.3119  0.0649
  556W        W 4756   4.496   9.995  10.445 -0.2681  0.1014  0.0216
  557W        W 4757   6.774   5.344  12.380 -0.3079  0.1138 -0.1933
  558W        W 4758   9.596   1.494   9.171 -0.0556  0.4026  0.3038
  559W        W 4759   5.989   2.543   3.035 -0.0081  0.0723 -0.0649
  560W        W 4760   9.369   2.998   2.676 -0.2125  0.0144 -0.0529
  561W        W 4761   1.195   3.370  12.454 -0.1598 -0.1962  0.4780
  562W        W 4762   0.440   0.380   1.805  0.4886 -0.2294  0.1345
  563W        W 4763   3.787   2.756  12.589  0.1737  0.3574 -0.1123
  564W        W 4764   0.085   4.742   3.548 -0.4102 -0.1841  0.3342
  565W        W 4765   8.704   0.287   2.312  0.0024  0.2733 -0.0700
  566W        W 4766   1.934  10.223   4.044  0.0212 -0.2632  0.1223
  567W        W 4767   7.453   8.318   3.561  0.0632  0.2313  0.1796
  568W        W 4768   2.826   4.592   4.572 -0.1400  0.0245 -0.0043
  569W        W 4769   7.505  10.167  11.893 -0.1581  0.0474  0.0729
  570W        W 4770   6.181   4.582  10.847 -0.2330 -0.3518 -0.1128
  571W        W 4771   3.022   9.248   8.373  0.2462  0.1397  0.2588
  572W        W 4772  10.323   7.980   9.823 -0.2843 -0.0155  0.0794
  573W        W 4773   2.304   4.986   2.503  0.4305  0.0693 -0.1067
  574W        W 4774   0.205   7.840  11.697  0.0177  0.0846 -0.3175
  575W        W 4775  10.270   0.964   2.781 -0.4368 -0.3055 -0.0737
  576W        W 4776  10.200   6.477  11.293  0.1946 -0.0907  0.1384
  577W        W 4777   4.225   0.072   3.786  0.0094  0.3176 -0.0299
  578W        W 4778  10.018   4.598   9.437 -0.0562  0.1826  0.1265
  579W        W 4779   7.689   2.158   0.800  0.2038  0.2923  0.2149
  580W        W 4780   7.487  10.376  10.223 -0.1249 -0.0775  0.3044
  581W        W 4781   7.441   6.738   3.402  0.1625 -0.1278 -0.2533
  582W        W 4782   6.348   7.995   1.517 -0.1280 -0.2094 -0.0838
  583W        W 4783   5.254   7.570  10.325 -0.0265  0.0499 -0.1807
  584W        W 4784   9.195   6.806   3.825 -0.0466 -0.1357  0.0571
  585W        W 4785   0.641  10.079   2.714 -0.1219  0.0262 -0.0300
  586W        W 4786   2.232   8.817  12.843 -0.0883  0.1409  0.0063
  587W        W 4787   6.630   4.375  12.656 -0.0074 -0.1722 -0.0030
  588W        W 4788   9.258   2.908   2.047  0.1523 -0.1333  0.0486
  589W        W 4789   9.113   4.282   9.426 -0.2037 -0.0106  0.3184
  590W        W 4790   5.180   6.389  10.739 -0.2340 -0.3096  0.4371
  591W        W 4791   9.370   4.067   1.123 -0.0506  0.2706 -0.1082
  592W        W 4792   0.557   1.270  11.530 -0.2700  0.2835  0.3844
  593W        W 4793   8.157   5.665   2.571 -0.2304  0.0141  0.0423
  594W        W 4794   4.919   9.836   1.303  0.2853 -0.3772 -0.2063
  595W        W 4795   7.586   9.802  10.533 -0.0152 -0.1052 -0.2725
  596W        W 4796   4.549   7.290   4.049 -0.0073 -0.2314  0.0420
  597W        W 4797   1.158   1.294   5.391  0.1216  0.3327  0.1268
  598W        W 4798   0.451   6.947  12.367  0.0299  0.0082  0.0379
  599W        W 4799   3.207   2.354  11.074  0.1287  0.2221 -0.0050
  600W        W 4800   9.368   3.782   0.594  0.2448  0.0181 -0.1638
  601W        W 4801   6.395   6.910  13.373 -0.0911  0.0583  0.3012
  602W        W 4802   0.042   0.062   3.902  0.1961 -0.0723 -0.2657
  603W        W 4803   5.646   9.554  10.438  0.0640 -0.0705 -0.2543
  604W        W 4804   3.979   0.972  13.025  0.1866 -0.2089  0.0443
  605W        W 4805   2.531   9.128  13.216  0.2684 -0.0176 -0.1414
  606W        W 4806   1.132   1.826  13.340 -0.0079  0.2713  0.3830
  607W        W 4807   1.473   0.171  10.634  0.1717  0.0628  0.0847
  608W        W 4808   7.920   9.554   2.903  0.2033 -0.0252  0.1777
  609W        W 4809   7.869   1.537  11.581  0.2332 -0.0939  0.3223
  610W        W 4810  10.390   8.644  12.603 -0.1443  0.0141  0.1553
  611W        W 4811   6.110   6.348   1.116 -0.0694 -0.2213 -0.0009
  612W        W 4812   9.550   4.571   4.379 -0.2022 -0.1732  0.3265
  613W        W 4813   1.455   2.042  12.456 -0.0285 -0.0203 -0.0766
  614W        W 4814   7.448   6.378   2.899  0.1142  0.2155 -0.0464
  615W        W 4815   1.644   5.950   2.056  0.1041 -0.0079  0.0627
  616W        W 4816   0.544   9.807  12.825  0.1079 -0.0414 -0.4234
  617W        W 4817   3.446   0.702   4.203 -0.1315  0.0561  0.2927
  618W        W 4818  10.275   7.147   0.208  0.1036  0.0639 -0.2065
  619W        W 4819   1.379   2.649   9.822  0.1875 -0.0155  0.0972
  620W        W 4820   6.465   9.959  10.599 -0.0869  0.0802  0.4144
  621W        W 4821   4.678   7.693   0.077  0.2149 -0.1219 -0.0226
  622W        W 4822   1.986   1.910  10.797  0.0829 -0.2121  0.0431
  623W        W 4823   9.438   4.660   9.335 -0.2452  0.1240  0.0281
  624W        W 4824   7.245   5.660  13.356  0.1802  0.0388  0.1636
  625W        W 4825   5.599   5.005   2.703 -0.1651  0.0021  0.0240
  626W        W 4826   8.931  10.436  12.592 -0.3522  0.2391 -0.2109
  627W        W 4827   9.806   1.929   3.645 -0.1149  0.1278  0.1314
  628W        W 4828   5.150   3.907  10.567  0.0725 -0.0172 -0.1463
  629W        W 4829   9.745   3.098  10.369  0.1310  0.0204 -0.1740
  630W        W 4830   8.140   7.677   3.297 -0.2326 -0.2218  0.0061
  631W        W 4831   7.405   0.780   3.094  0.1232  0.2704 -0.3089
  632W        W 4832   4.036   4.109   0.841 -0.0011 -0.0395  0.0730
  633W        W 4833   3.908   7.857  12.962 -0.1741  0.0296  0.1501
  634W        W 4834   0.388   2.701   4.470 -0.4074  0.0350  0.1354
  635W        W 4835   0.806   9.218   3.472 -0.0382 -0.2936 -0.1859
  636W        W 4836   5.984   8.739   3.838 -0.0216 -0.2690  0.2109
  637W        W 4837   1.646   1.514   1.141  0.0301  0.2007  0.1653
  638W        W 4838   6.025   6.780   0.229 -0.1874 -0.1246  0.2495
  639W        W 4839   5.636   8.066   1.792 -0.1095  0.0613  0.0495
  640W        W 4840   6.208   8.428  12.526 -0.1112  0.3187  0.0621
  641W        W 4841   9.439   9.799   2.979 -0.3660  0.1961  0.3675
  642W        W 4842   8.749   6.660   3.772  0.1265  0.0106 -0.1387
  643W        W 4843   4.480  10.058   1.565 -0.1794 -0.3097  0.0958
  644W        W 4844   3.622   6.350   0.806  0.1302 -0.1961  0.1152
  645W        W 4845  10.343   2.356  11.216 -0.1618  0.4181  0.0978
  646W        W 4846   4.329   8.173   9.239 -0.2221 -0.2836  0.0924
  647W        W 4847   1.667   2.071   5.450 -0.1646 -0.0363 -0.2450
  648W        W 4848   2.642   5.428  12.848  0.0454  0.2574  0.0957
  649W        W 4849   0.427   6.329   0.125  0.0915 -0.2190  0.3068
  650W        W 4850   1.310   6.516   1.832 -0.0764 -0.1921 -0.5244
  651W        W 4851   0.080   9.121  12.490  0.1080  0.0779 -0.3491
  652W        W 4852   9.301   6.076   5.009 -0.0028  0.0704  0.0344
  653W        W 4853   1.624   2.345   9.588  0.0064  0.1156 -0.0225
  654W        W 4854   3.632  10.101  11.780  0.1162  0.1710  0.1230
  655W        W 4855   4.368   3.328  10.168 -0.1110  0.1005  0.0688
  656W        W 4856   5.909   2.211  10.642  0.1559  0.0204 -0.1202
  657W        W 4857   7.426   9.278  12.639  0.2772 -0.0546 -0.1214
  658W        W 4858   6.664   1.994  12.197  0.1120  0.0285 -0.1219
  659W        W 4859   2.042   1.938  10.278 -0.1294  0.0999 -0.0879
  660W        W 4860   7.451   2.767   2.846 -0.3162  0.0495  0.0447
  661W        W 4861   3.363   1.371  10.921 -0.3056 -0.0277 -0.0898
  662W        W 4862   7.321   1.111  11.531 -0.4208  0.1173  0.3031
  663W        W 4863   4.845   7.178   0.097 -0.0661  0.0205 -0.1431
  664W        W 4864   2.366   7.114   2.483  0.1577 -0.0963  0.1622
  665W        W 4865   9.992   2.663  11.949 -0.0421 -0.1641  0.0985
  666W        W 4866   5.318   0.645   1.183 -0.1808  0.1155  0.1102
  667W        W 4867   6.044   7.388   0.538  0.3724  0.2347 -0.1916
  668W        W 4868  10.343   2.378   1.653  0.2962 -0.1936  0.0962
  669W        W 4869   4.762   8.296   4.172 -0.1914 -0.0214 -0.2643
  670W        W 4870   4.053   7.129   4.118 -0.1086 -0.3336 -0.2388
  671W        W 4871   4.356   6.314   1.785  0.1803 -0.0685 -0.0071
  672W        W 4872  10.373   8.796   0.444  0.0836 -0.5059 -0.1432
  673W        W 4873   5.220   5.037   4.375  0.0366  0.1278  0.0111
  674W        W 4874   7.079   4.926   3.938  0.0606  0.3187  0.0040
  675W        W 4875   2.816   1.995  11.120 -0.2788  0.0971 -0.0516
  676W        W 4876   5.405   0.710   2.600 -0.1511  0.1230  0.0710
  677W        W 4877   0.559   5.297  10.644  0.0922  0.0824  0.0312
  678W        W 4878   6.523  10.047  11.494 -0.0063 -0.0380  0.0652
  679W        W 4879   6.267   6.903  11.588 -0.1195 -0.0525  0.2632
  680W        W 4880   3.543   0.067   9.908 -0.0571 -0.0924 -0.0076
  681W        W 4881   4.651   6.226  13.425 -0.0665  0.1857 -0.0105
  682W        W 4882   9.367   0.567   4.472 -0.0100 -0.2079 -0.2600
  683W        W 4883   8.858   7.463   2.826 -0.2945  0.4066  0.0073
  684W        W 4884   4.456   5.867   1.580 -0.1504  0.1646 -0.3877
  685W        W 4885   7.539   5.539  12.859  0.0944  0.2177  0.0239
  686W        W 4886   4.994   6.574   2.957  0.0690 -0.0811  0.1605
  687W        W 4887   2.810   7.995   3.407  0.0104 -0.1513 -0.1684
  688W        W 4888   0.153   6.204  11.292 -0.0800  0.1427 -0.2584
  689W        W 4889   1.568   5.263   9.161  0.0407  0.1352  0.1413
  690W        W 4890   4.221   8.825  13.208 -0.2263  0.4779  0.0261
  691W        W 4891   0.763   7.441   1.225  0.2114  0.0140 -0.0406
  692W        W 4892   3.372   8.921  10.441 -0.2531  0.0755  0.0125
  693W        W 4893   2.412   7.437   1.171  0.0460 -0.1251  0.0821
  694W        W 4894   4.672   0.311   3.668 -0.0431  0.0929 -0.4060
  695W        W 4895   2.347   3.800   0.231 -0.4579 -0.0665  0.1720
  696W        W 4896   2.779   4.460   9.165  0.2982  0.2257 -0.0951
  697W        W 4897   4.152   9.580   4.143 -0.0597 -0.0965 -0.1994
  698W        W 4898   6.421   8.754  10.606 -0.1078  0.2188 -0.3128
  699W        W 4899   2.706   2.859  12.639  0.0734 -0.0864 -0.2227
  700W        W 4900   7.887   9.481   0.985 -0.3207 -0.2752  0.1671
  701W        W 4901   1.040   2.979   0.617  0.2393  0.3228  0.1264
  702W        W 4902   5.019  10.302   2.952 -0.1829 -0.0308 -0.3451
  703W        W 4903   8.923   2.069   1.978  0.1159  0.2456 -0.0006
  704W        W 4904   9.893   3.994  13.353  0.0378 -0.3471  0.1064
  705W        W 4905   3.382   8.063  10.003  0.1258  0.3244 -0.0553
  706W        W 4906   3.656   6.051   9.997  0.2048 -0.7998 -0.0726
  707W        W 4907   3.635   9.749   3.735 -0.3858 -0.2949  0.0432
  708W        W 4908   2.048   6.194   9.389  0.1090 -0.1693 -0.2271
  709W        W 4909   3.580   0.197  10.527  0.0898 -0.0736 -0.1376
  710W        W 4910   0.286   9.768  12.392  0.1824  0.1345  0.1673
  711W        W 4911   8.465   4.181   1.419  0.1232  0.3387 -0.0034
  712W        W 4912   1.664   7.631  12.219  0.0425 -0.1932 -0.1256
  713W        W 4913   8.487   7.219  10.575 -0.0332 -0.2132  0.0388
  714W        W 4914  10.465   1.838   1.710 -0.3844 -0.0665  0.0170
  715W        W 4915   4.046  10.035  13.112  0.0526 -0.2946  0.2206
  716W        W 4916   1.281   2.610   1.488 -0.2684  0.1647 -0.4084
  717W        W 4917   5.989   9.448  13.194  0.1662 -0.0796 -0.0128
  718W        W 4918   7.056   6.488   9.097  0.1223  0.1024  0.1084
  719W        W 4919   8.794   3.376   4.790 -0.0001  0.1053  0.0225
  720W        W 4920   3.894   6.499   2.909 -0.2795  0.2405  0.0295
  721W        W 4921   2.904   6.300  10.072 -0.2293  0.1378 -0.0604
  722W        W 4922  10.276   3.591   0.113  0.0924 -0.0208  0.1067
  723W        W 4923   3.311   9.820  11.527  0.0477  0.1128 -0.2347
  724W        W 4924   8.654   8.554   0.243  0.0791 -0.0389  0.0178
  725W        W 4925   6.206   8.328   0.305  0.1019  0.2506  0.0353
  726W        W 4926   4.127   5.933   4.244  0.2214 -0.0165  0.0739
  727W        W 4927   0.404   0.129  10.736 -0.0463 -0.0425 -0.2142
  728W        W 4928   9.777   9.978   2.131 -0.1825  0.3986  0.0323
  729W        W 4929   2.690   2.306   2.832  0.0794 -0.0044 -0.0533
  730W        W 4930   3.995   2.927   3.244 -0.0149  0.2005 -0.1555
  731W        W 4931   8.839   5.069   3.294  0.1147 -0.1463 -0.0616
  732W        W 4932   5.267   9.316   3.897  0.0303  0.0910 -0.1608
  733W        W 4933  10.378   6.602   4.813  0.0864 -0.2230  0.3837
  734W        W 4934   6.071   9.854  12.840 -0.0076  0.2243 -0.1110
  735W        W 4935   9.192   5.113  13.143 -0.0417  0.2565 -0.4452
  736W        W 4936   4.937   5.085   0.957 -0.1107  0.1308 -0.0376
  737W        W 4937   2.248   2.545  10.099  0.0828  0.0619  0.0996
  738W        W 4938   9.083   4.698  13.345  0.1943 -0.0249  0.2846
  739W        W 4939   0.270   5.786   2.083  0.3235 -0.1251  0.0038
  740W        W 4940   5.164   4.227   3.068 -0.1275 -0.2177  0.1151
  741W        W 4941   7.304   5.172  13.149  0.1528 -0.4433  0.0794
  742W        W 4942   3.014   9.265   3.528 -0.0875 -0.2577 -0.0436
  743W        W 4943   0.085   5.758   4.729  0.2019  0.2226 -0.2173
  744W        W 4944   9.873   0.863   0.785  0.0401  0.2758  0.3453
  745W        W 4945   1.038   9.831   9.052 -0.0452 -0.3018 -0.0190
  746W        W 4946   9.785   1.359   9.682  0.1980 -0.0976 -0.2478
  747W        W 4947   9.819   5.687  12.504 -0.2349 -0.1242  0.1020
  748W        W 4948   2.872   6.904   2.594 -0.0141  0.2062  0.0331
  749W        W 4949   7.511   6.017  12.083 -0.2935 -0.0492  0.1148
  750W        W 4950   6.420   3.231  12.509  0.3533 -0.0903  0.0646
  751W        W 4951   4.422   7.253   8.563 -0.0162 -0.0643  0.0066
  752W        W 4952   0.772   6.635  10.274  0.1009 -0.0635 -0.0787
  753W        W 4953  10.424   6.181   2.864  0.1018 -0.0738 -0.0977
  754W        W 4954   4.440   5.256  10.551 -0.1134  0.0213 -0.0765
  755W        W 4955   4.854   7.467   9.853  0.1605 -0.2069 -0.2518
  756W        W 4956   3.094   7.745   0.252 -0.0458 -0.3614 -0.0272
  757W        W 4957   5.725   2.123   3.206 -0.2677 -0.0909 -0.2537
  758W        W 4958  10.173   8.950   2.860  0.0796  0.0667  0.1128
  759W        W 4959   9.730   2.840   3.114  0.4364  0.0310 -0.2031
  760W        W 4960   2.559   2.742   0.968  0.0049 -0.0956  0.0752
  761W        W 4961   9.043   1.547   9.089  0.2211 -0.0052 -0.1125
  762W        W 4962   5.902   4.295   0.987  0.0192  0.1744  0.5214
  763W        W 4963   5.030   6.297  11.416  0.2653  0.3715 -0.0728
  764W        W 4964   2.026   9.103   8.479  0.1577  0.0286  0.0321
  765W        W 4965   1.649   9.700   9.150  0.0666  0.0889  0.4993
  766W        W 4966   4.711   4.847  10.400 -0.0875 -0.0080  0.0824
  767W        W 4967   3.684   5.433   9.730 -0.0184  0.2787 -0.1318
  768W        W 4968   4.107   8.697   2.007 -0.0097  0.0820 -0.2098
  769W        W 4969   3.198   4.299  10.974  0.0932  0.1695 -0.0307
  770W        W 4970   5.797   5.524   3.839 -0.0812  0.0064  0.0519
  771W        W 4971   5.575   9.445   0.603  0.1414 -0.4834 -0.1999
  772W        W 4972   9.970   2.887   9.516  0.1953 -0.1220 -0.1743
  773W        W 4973   8.592   6.227  10.812  0.1243  0.2359 -0.2629
  774W        W 4974   9.684   0.007  11.503 -0.0467 -0.0742 -0.0553
  775W        W 4975   5.233   2.675   3.644 -0.0394  0.1789  0.0515
  776W        W 4976   2.737   9.495   3.205 -0.1933 -0.0474  0.2540
  777W        W 4977   5.940   0.894  11.869  0.0989 -0.0161 -0.1150
  778W        W 4978  10.146   9.699   1.860 -0.2268 -0.0460  0.2521
  779W        W 4979   7.818   1.022  11.572 -0.3628  0.0967  0.0000
  780W        W 4980   8.017   2.439   2.036 -0.2010 -0.1960  0.0887
  781W        W 4981   9.914   9.396  12.198 -0.1434 -0.2217  0.1501
  782W        W 4982   7.742   9.383  12.205  0.1356 -0.2330  0.0277
  783W        W 4983   8.622   1.414   2.488  0.1077 -0.0802 -0.1250
  784W        W 4984   3.939   8.667   3.815  0.0445  0.2782  0.0348
  785W        W 4985   3.684   9.219  10.679 -0.0855 -0.0035  0.0904
  786W        W 4986   0.049   4.843  11.810 -0.0519 -0.1013 -0.0501
  787W        W 4987   7.420   3.019  12.715  0.1313  0.2936 -0.0324
  788W        W 4988   7.914   7.836   4.663  0.2600  0.2683 -0.2168
  789W        W 4989   5.857   5.623  11.132  0.3626 -0.1202  0.1498
  790W        W 4990   5.674   5.655  13.446 -0.1243  0.1785 -0.0941
  791W        W 4991  10.198   4.746   4.219  0.0267  0.0759  0.2127
  792W        W 4992   0.697   3.504   1.660  0.0790  0.0148  0.0244
  793W        W 4993   7.026   0.038  11.872 -0.1059  0.0617  0.1368
  794W        W 4994   5.457   5.162   1.234 -0.0697  0.2362  0.1748
  795W        W 4995   7.065   9.437  11.649 -0.0024  0.2665 -0.2053
  796W        W 4996   0.139   8.483  13.015  0.1242  0.0281 -0.1246
  797W        W 4997   6.810   0.329   2.841 -0.1521 -0.1459 -0.2346
  798W        W 4998  10.138   9.126  11.450  0.0299  0.0159 -0.0928
  799W        W 4999   3.333   6.661  12.916 -0.0262  0.0809 -0.0805
  800W        W 5000   3.100   3.444  10.633 -0.1927  0.1293  0.1409
  801W        W 5001   1.900   5.252   2.911 -0.1318 -0.3992  0.2781
  802W        W 5002   6.712   3.365   0.664 -0.1115 -0.1160 -0.0858
  803W        W 5003  10.441  10.388   1.214  0.1656  0.2257 -0.4086
  804W        W 5004   6.973   8.134   3.897  0.2997  0.1763  0.0480
  805W        W 5005   0.679   4.860  10.433 -0.1130 -0.0010 -0.3052
  806W        W 5006   0.358   4.291   3.498 -0.1063 -0.4715  0.0941
  807W        W 5007   0.513  10.182   0.537 -0.0071  0.0809 -0.0207
  808W        W 5008   7.734   0.811   0.961  0.2737 -0.0739  0.0353
  809W        W 5009   0.016   6.652  12.219  0.0620 -0.1233 -0.0697
  810W        W 5010   2.534   5.116   0.931  0.4159  0.0860  0.1147
  811W        W 5011   3.852   3.311   1.782 -0.1666  0.2466 -0.0731
  812W        W 5012   7.456   3.488   2.010 -0.0180 -0.3229  0.2305
  813W        W 5013   3.566   6.813   3.256 -0.3220 -0.2244 -0.1822
  814W        W 5014   4.370   4.985   2.977 -0.1205  0.0687 -0.2486
  815W        W 5015   5.181   0.853  12.092  0.0279 -0.2254  0.0882
  816W        W 5016   1.653   1.869   9.852 -0.4790 -0.0828  0.3501
  817W        W 5017   2.031   2.081   0.853  0.0432  0.4997 -0.1796
  818W        W 5018   9.247   1.922   3.543 -0.0095 -0.3430  0.2947
  819W        W 5019   0.937   8.588   9.789  0.0805 -0.2917  0.1287
  820W        W 5020   0.557   7.396   4.657  0.0194  0.1696  0.3379
  821W        W 5021   5.116   5.357  13.376 -0.0376  0.4543  0.1162
  822W        W 5022   4.488   1.567   1.682 -0.1764 -0.0120 -0.0949
  823W        W 5023   7.513   5.239  10.467 -0.0522  0.1507 -0.1893
  824W        W 5024  10.311   3.405   3.011  0.0336 -0.0208 -0.1036
  825W        W 5025   6.364   5.373   4.318 -0.3056  0.0769 -0.2707
  826W        W 5026   0.992   3.913  12.313  0.1857 -0.1349  0.3345
  827W        W 5027   2.729   2.478  11.818 -0.0362  0.1647 -0.0538
  828W        W 5028   2.194   6.471  11.871 -0.0321  0.0755 -0.0791
  829W        W 5029   9.251   9.006  10.947 -0.2828  0.1595 -0.1110
  830W        W 5030   6.521   1.758   3.557  0.1091 -0.3600  0.1247
  831W        W 5031   1.822   0.143   1.885  0.2235 -0.0277  0.0052
  832W        W 5032   6.883   8.524  11.475  0.4264 -0.1125  0.0097
  833W        W 5033   4.041   8.590   3.000 -0.1646 -0.0762 -0.2080
  834W        W 5034  10.316   4.118  12.980 -0.3487  0.1983 -0.0509
  835W        W 5035   6.099   4.311   2.778 -0.0790  0.1550 -0.0912
  836W        W 5036  10.457   0.825   1.657 -0.1085 -0.0722  0.2185
  837W        W 5037   1.064   3.200   0.051 -0.0081 -0.0080  0.2114
  838W        W 5038   3.157   9.318  11.958  0.0129 -0.2173 -0.2061
  839W        W 5039   3.295   6.003  10.277  0.0299  0.0731 -0.2008
  840W        W 5040   3.763   5.066  11.011  0.2179  0.0181  0.2500
  841W        W 5041   2.024   5.648   4.533 -0.4407  0.4547  0.2270
  842W        W 5042   4.412   0.521  12.216 -0.1911  0.0788 -0.2521
  843W        W 5043   1.470   3.110  12.024  0.1220 -0.2385  0.1343
  844W        W 5044   4.446   4.595  13.153  0.0171  0.3046 -0.0689
  845W        W 5045   3.363   8.211  10.615  0.0302  0.0700  0.0708
  846W        W 5046  10.136   5.450   1.534  0.0308  0.1624  0.2398
  847W        W 5047   1.694   5.971   1.191 -0.0767  0.0604 -0.1287
  848W        W 5048   1.850   4.378  12.370 -0.0630 -0.0240  0.0881
  849W        W 5049   0.947   3.429  10.277 -0.2245  0.3285  0.1559
  850W        W 5050   0.143  10.454  11.811  0.0365  0.0798 -0.1395
  851W        W 5051   8.019   9.262  11.529 -0.1244 -0.1965  0.0578
  852W        W 5052   4.033   5.756   9.618  0.0467  0.0443 -0.0241
  853W        W 5053   8.107   4.013   1.029 -0.2496 -0.1801 -0.1293
  854W        W 5054   1.090   9.982   4.439  0.3399  0.2882  0.0674
  855W        W 5055  10.374   9.162   9.101  0.2913  0.0027 -0.0157
  856W        W 5056   1.982   7.661   0.547  0.0614 -0.2645 -0.0307
  857W        W 5057   8.390   5.249   2.212  0.0626  0.0020  0.0733
  858W        W 5058   9.269   8.465   8.265 -0.0717  0.0104  0.1062
  859W        W 5059   3.381   7.669  13.326 -0.0321 -0.1560  0.0779
  860W        W 5060   3.940   1.998   0.639 -0.0761 -0.0226  0.3004
  861W        W 5061   1.388   7.822  10.989 -0.2346 -0.0500 -0.1616
  862W        W 5062   2.085  10.058  10.371 -0.3065 -0.1561  0.0903
  863W        W 5063   1.533   5.677   2.478  0.0145 -0.1679 -0.0106
  864W        W 5064   3.278   5.598  10.589  0.1874  0.0996 -0.0121
  865W        W 5065   5.100  10.462  11.565 -0.1976 -0.0603  0.2434
  866W        W 5066   4.070   9.324   0.597  0.0737  0.2710  0.0073
  867W        W 5067   3.423   7.190  10.656 -0.1094  0.0841 -0.3761
  868W        W 5068   2.855   7.758  10.055 -0.1217 -0.1173 -0.0784
  869W        W 5069   8.776   7.458   3.818 -0.2366 -0.0540 -0.1265
  870W        W 5070   3.380   6.558  10.114  0.0531 -0.2825 -0.2883
  871W        W 5071   6.486   8.616   0.019  0.0313 -0.0297 -0.1875
  872W        W 5072   2.043   5.644   0.905  0.1364 -0.2054  0.1998
  873W        W 5073   0.228   5.894   9.369 -0.0036 -0.2840 -0.3179
  874W        W 5074   5.716   8.842   8.758 -0.1336 -0.1122 -0.0397
  875W        W 5075   5.959   6.857   3.139  0.0208  0.2626 -0.0335
  876W        W 5076  10.474   0.422  11.659 -0.2296 -0.0394 -0.0453
  877W        W 5077   1.366   9.691   3.669 -0.1219 -0.0840  0.0802
  878W        W 5078   8.532   8.455   3.516  0.0008  0.3203  0.1229
  879W        W 5079   9.982   7.995   8.672  0.2095  0.0891  0.0928
  880W        W 5080   5.170   4.594   9.837  0.0773 -0.2181  0.2061
  881W        W 5081   6.382   9.456   1.572 -0.0893  0.1170 -0.1344
  882W        W 5082   7.531   7.932   3.873  0.2222  0.0727 -0.0407
  883W        W 5083  10.427   7.560  13.210 -0.0959  0.1391 -0.2744
  884W        W 5084   6.124   6.637   9.097  0.0349  0.1450 -0.1444
  885W        W 5085   4.384   4.203   9.710  0.2138 -0.0781 -0.0150
  886W        W 5086   3.175   8.275  11.081  0.1361 -0.3180  0.0377
  887W        W 5087   3.938   4.645   8.913  0.1039 -0.0003  0.1813
  888W        W 5088   1.261   6.863  10.150  0.2697 -0.3195  0.3409
  889W        W 5089   2.452   8.222  10.210  0.2953  0.3305  0.0778
  890W        W 5090   8.201   3.105  12.196 -0.0036 -0.0582 -0.0035
  891W        W 5091   0.804   6.517   9.810 -0.1272  0.4062 -0.0078
  892W        W 5092   1.062   4.957  11.785 -0.1487  0.0917  0.3462
  893W        W 5093   1.729   2.128  12.804  0.2308 -0.2398 -0.0691
  894W        W 5094   3.497   8.132   0.023 -0.0663  0.2885 -0.0517
  895W        W 5095   1.674   2.702  10.865 -0.4983  0.1577  0.1954
  896W        W 5096   1.021   6.202   3.615 -0.0709  0.2697  0.2941
  897W        W 5097   9.929   9.738  10.765  0.1588  0.4571  0.2812
  898W        W 5098   4.648   2.092   2.611  0.3653 -0.0180 -0.0387
  899W        W 5099   5.922   3.136  12.296  0.6296 -0.1704 -0.0593
  900W        W 5100   5.039   1.023   2.897 -0.0741  0.1329 -0.0724
  901W        W 5101   2.627   4.837   1.986 -0.2887  0.3447 -0.4218
  902W        W 5102   1.181   4.884  10.159  0.0559 -0.0213 -0.0996
  903W        W 5103   5.210   1.079  13.231  0.0376 -0.2487  0.0299
  904W        W 5104   3.721   9.612  11.811  0.3080  0.0780  0.0603
  905W        W 5105   2.877   2.424   3.579  0.3066  0.0888 -0.0141
  906W        W 5106   6.110   4.883   9.639  0.1346  0.5278 -0.3399
  907W        W 5107   2.970   6.887  13.293  0.3305 -0.2236 -0.3275
  908W        W 5108   9.582   6.901   8.551  0.0213  0.0490  0.3671
  909W        W 5109   6.299   8.786   2.097 -0.0820  0.1213 -0.1532
  910W        W 5110   9.355  10.268  12.173  0.0396 -0.1095  0.0257
  911W        W 5111   8.952   8.034   1.558  0.0425 -0.0507  0.1534
  912W        W 5112   8.664   6.895  13.228  0.2399 -0.0534 -0.1311
  913W        W 5113   1.583   7.277   3.654  0.2826 -0.1649 -0.1065
  914W        W 5114   9.165   0.237   0.163  0.2015  0.1152  0.1478
  915W        W 5115  10.475   6.511   8.461 -0.1419  0.2262 -0.0085
  916W        W 5116  10.046   1.012  12.633 -0.2950  0.1140  0.1263
  917W        W 5117   1.662   2.664   2.131 -0.0142  0.1182 -0.1062
  918W        W 5118   6.508   5.434   3.178  0.0864  0.0041 -0.1361
  919W        W 5119   2.381   5.896   9.462 -0.1025  0.2526  0.0933
  920W        W 5120   1.487   4.473   2.239  0.2384 -0.0836 -0.2585
  921W        W 5121   8.225   3.721   1.746  0.1393 -0.1588  0.3739
  922W        W 5122   7.644   7.265  13.089  0.0247  0.2266  0.1930
  923W        W 5123  10.082   5.646  11.688 -0.3039 -0.2939  0.1708
  924W        W 5124   3.887   3.538  12.929 -0.3353  0.0874 -0.0298
  925W        W 5125   8.002   4.025  10.356 -0.1674 -0.1345 -0.1944
  926W        W 5126   9.397   8.738   8.663  0.2850 -0.0403 -0.1809
  927W        W 5127   2.700   2.994   2.169  0.1314 -0.1085  0.2402
  928W        W 5128   9.533   2.287   3.889 -0.3216 -0.0140  0.0675
  929W        W 5129   0.073  10.437   0.634 -0.1376 -0.1632 -0.1552
  930W        W 5130   0.540   2.143  11.522  0.0845  0.0492 -0.0176
  931W        W 5131   0.948   5.164   4.792  0.2562  0.0920 -0.0008
  932W        W 5132   9.757   2.732   2.111  0.0752 -0.1661 -0.2170
  933W        W 5133   6.359   6.817   1.357 -0.0276  0.0772 -0.3047
  934W        W 5134   6.548   4.931   3.076  0.1233  0.1120 -0.1398
  935W        W 5135   3.956   8.865   0.838  0.2129  0.1415  0.0190
  936W        W 5136   1.181   6.373   4.055  0.0646  0.0203 -0.2287
  937W        W 5137   8.388   1.804  10.385 -0.1001  0.0534  0.3950
  938W        W 5138   8.937   3.220   3.637 -0.0010  0.1969 -0.0044
  939W        W 5139   2.267   5.556  13.120  0.0628  0.0928  0.3163
  940W        W 5140   6.361   1.592   3.113  0.1800  0.0476  0.1439
  941W        W 5141   9.800   4.835   2.973 -0.1333  0.2753  0.1777
  942W        W 5142   2.670   8.680  10.229  0.2700 -0.1736 -0.1069
  943W        W 5143   9.474   2.627  12.323 -0.0176  0.0855  0.1238
  944W        W 5144   2.210   4.458   3.567  0.1859 -0.1592  0.1301
  945W        W 5145   1.236   3.069   8.302  0.2773  0.0098 -0.1159
  946W        W 5146   3.032   8.070  13.276 -0.0183  0.0992  0.0450
  947W        W 5147   4.968   8.298  10.994  0.1047 -0.0988  0.1466
  948W        W 5148   7.946   8.792   4.880  0.0112 -0.0814  0.3027
  949W        W 5149   5.835   1.427  11.197  0.1674 -0.1509 -0.0489
  950W        W 5150  10.287   9.504   4.371  0.1174 -0.1876  0.0272
  951W        W 5151   4.437   1.696   0.714 -0.4215  0.1382 -0.0846
  952W        W 5152   3.905   9.213   2.765 -0.1534  0.0295 -0.1031
  953W        W 5153   0.747   9.745  10.822  0.1253 -0.1629 -0.0635
  954W        W 5154   0.221   7.324  12.704 -0.1328  0.1003  0.0111
  955W        W 5155   6.567   0.857  10.269 -0.1189 -0.1053 -0.0862
  956W        W 5156   1.605   2.022   1.135  0.1842 -0.0400  0.0618
  957W        W 5157   0.258   6.675  11.418  0.0357 -0.0297 -0.0824
  958W        W 5158   9.549   4.761  13.009 -0.2893  0.0317  0.0293
  959W        W 5159   1.812   2.791  11.937 -0.1574 -0.1933  0.4535
  960W        W 5160   6.611   7.819   4.138 -0.2237 -0.0145 -0.1275
  961W        W 5161   8.499   8.756   1.864  0.0966 -0.3167 -0.1436
  962W        W 5162   5.672   1.878   3.766  0.1248  0.1282  0.2254
  963W        W 5163   6.502   6.782   0.414 -0.1835  0.1227 -0.2788
  964W        W 5164   5.650   1.384   2.169  0.0922  0.0736  0.0676
  965W        W 5165   5.608   0.775   0.493 -0.0021 -0.3521  0.0927
  966W        W 5166  10.218   2.068   1.244 -0.0750  0.0076  0.0849
  967W        W 5167   7.973   6.353   9.999  0.0768  0.1284 -0.0174
  968W        W 5168   8.075   6.869  12.146 -0.0704  0.6609  0.0351
  969W        W 5169   6.518  10.467   2.099 -0.2992  0.3239 -0.3710
  970W        W 5170   8.906   1.188  12.739 -0.0829  0.0542 -0.0112
  971W        W 5171   0.057   4.401   3.949 -0.0065 -0.0314 -0.0896
  972W        W 5172   3.094   5.524  12.118  0.2633 -0.3340  0.0716
  973W        W 5173   5.304   2.588   2.244  0.3124 -0.0457  0.3469
  974W        W 5174   5.667   7.227  12.900  0.0823 -0.1400 -0.0883
  975W        W 5175   5.098  10.263   9.360  0.0368 -0.1472 -0.1194
  976W        W 5176   7.703   2.972  13.171  0.2019  0.1476  0.2892
  977W        W 5177   6.386   7.772   2.959  0.1020 -0.0979  0.2709
  978W        W 5178   8.027   7.575  13.161  0.1720  0.0009  0.0910
  979W        W 5179   5.256   6.249   1.603 -0.4982  0.0965 -0.1860
  980W        W 5180  10.356   1.042   9.199 -0.2654 -0.0358  0.2207
  981W        W 5181   3.676   3.558   4.134  0.1575  0.2363 -0.1251
  982W        W 5182   3.963   9.788   0.117 -0.1704  0.1871  0.2619
  983W        W 5183   4.759  10.001  12.485 -0.0700 -0.1492 -0.1364
  984W        W 5184   1.855   0.362   2.954 -0.2840  0.0221 -0.1473
  985W        W 5185   2.143   5.765   3.286 -0.0666 -0.3990  0.1707
  986W        W 5186   6.461   6.398   5.404 -0.2157  0.0098  0.0979
  987W        W 5187   2.558   2.048   8.687 -0.0627  0.1281 -0.0878
  988W        W 5188   7.863   8.486   9.528  0.0299 -0.1759 -0.0921
  989W        W 5189   7.214   3.900   0.997 -0.1863  0.0654  0.0711
  990W        W 5190  10.055   0.776  12.179  0.2939 -0.4328 -0.3313
  991W        W 5191   9.055   3.141   4.114 -0.1279 -0.1276  0.0230
  992W        W 5192   6.436   1.939  10.178 -0.0108 -0.2467 -0.3138
  993W        W 5193   7.756   1.387   1.390  0.5460 -0.1278 -0.1906
  994W        W 5194   6.560   9.813  13.058  0.5021  0.1216  0.1199
  995W        W 5195   8.889   5.088   1.466  0.0937  0.0245  0.0068
  996W        W 5196   4.515   2.727   2.581 -0.0427  0.2811  0.0429
  997W        W 5197   0.289   7.184  11.291 -0.0592 -0.0199  0.0920
  998W        W 5198   3.240   5.483   2.216  0.1424 -0.0127 -0.0170
  999W        W 5199   9.283  10.442   1.451 -0.0948 -0.0715  0.1054
 1000W        W 5200   0.769   3.561   4.036  0.2474 -0.0440 -0.3322
 1001W        W 5201   2.419   1.759   3.422 -0.4312 -0.1472  0.1257
 1002W        W 5202   6.471   3.774  13.363  0.3034  0.1436 -0.1554
 1003W        W 5203   4.172   0.530  13.192 -0.1424  0.0736 -0.0696
 1004W        W 5204   8.949   0.431   4.852  0.0834 -0.0753 -0.0738
 1005W        W 5205   5.094   7.536   0.330  0.0493  0.2133 -0.0018
 1006W        W 5206   9.364   1.844   4.033  0.4639  0.3388  0.0456
 1007W        W 5207   8.342   9.672  11.709 -0.0766  0.1467  0.1331
 1008W        W 5208   4.096   0.198  12.071  0.1986  0.0071  0.0440
 1009W        W 5209   4.836   8.018  13.131 -0.0916 -0.1262 -0.0804
 1010W        W 5210   9.983   5.447   3.824  0.1076  0.3394 -0.0343
 1011W        W 5211   9.946   0.083  13.031  0.1263  0.1112 -0.0970
 1012W        W 5212   0.184   2.303   4.775 -0.1982 -0.0117  0.0735
 1013W        W 5213   5.304   6.768   8.623  0.2602  0.0336 -0.0045
 1014W        W 5214   1.419  10.075   0.484  0.1274  0.1887  0.0422
 1015W        W 5215   2.416   6.824   5.237  0.1049 -0.0311  0.0167
 1016W        W 5216   7.551   6.925  12.355 -0.3582 -0.2409 -0.0239
 1017W        W 5217   1.598   3.947   2.986  0.1576 -0.0317 -0.2100
 1018W        W 5218   1.913   0.416  10.423 -0.1606  0.1601 -0.0375
 1019W        W 5219   8.117   9.824   2.231  0.0585  0.0918 -0.0491
 1020W        W 5220   1.710   0.976   0.910 -0.1332  0.2678 -0.0752
 1021W        W 5221   6.329   7.652   8.371  0.2582 -0.1008 -0.0663
 1022W        W 5222   5.753   5.662   3.362  0.1795  0.1491 -0.0518
 1023W        W 5223   1.654   2.192   1.991 -0.1293  0.1646 -0.1016
 1024W        W 5224   8.910   6.254  12.666  0.0562  0.3099 -0.2311
 1025W        W 5225   6.335   2.913  10.135 -0.4007 -0.1677 -0.3104
 1026W        W 5226   6.379   2.621  11.774  0.1457 -0.1047  0.0169
 1027W        W 5227   0.124   5.593   1.354 -0.3430  0.5512  0.4019
 1028W        W 5228   0.361   2.522  11.204  0.0608  0.3954  0.1133
 1029W        W 5229   3.495   4.850   9.694 -0.1632  0.1183  0.0579
 1030W        W 5230   6.784   3.882  11.423  0.3546 -0.1249 -0.2908
 1031W        W 5231   4.277   0.819   9.847 -0.1631 -0.0019 -0.0091
 1032W        W 5232   9.206   0.257   9.575  0.0009  0.0247 -0.0844
 1033W        W 5233   7.820   8.433  11.515 -0.2296  0.1449  0.2535
 1034W        W 5234   5.109   7.975   3.269  0.0641  0.0609 -0.1014
 1035W        W 5235   4.054  10.038   1.297  0.1540 -0.0166  0.1330
 1036W        W 5236   7.546   5.209  11.025  0.1388 -0.1170 -0.2002
 1037W        W 5237   0.417   4.724   3.095 -0.2598  0.0873  0.1588
 1038W        W 5238   3.456   3.984  10.145 -0.0605  0.0226 -0.1182
 1039W        W 5239   6.228   4.933  11.339 -0.0056  0.3766 -0.1239
 1040W        W 5240   6.246   5.162   2.145 -0.4974 -0.0650 -0.1611
 1041W        W 5241   4.577   5.739  10.744 -0.0428 -0.0800  0.0209
 1042W        W 5242   2.885   1.882   2.509  0.2211 -0.1203  0.1092
 1043W        W 5243   0.580   6.299  11.123 -0.0191  0.1366 -0.2217
 1044W        W 5244   2.391   7.883   9.250  0.3014  0.1779  0.2132
 1045W        W 5245   6.760   5.872  13.134  0.2822 -0.0725  0.0070
 1046W        W 5246   8.379   2.382  11.177  0.5616  0.0383  0.4200
 1047W        W 5247   4.840   9.949   0.724  0.1564 -0.1694  0.0033
 1048W        W 5248   4.127   5.345  10.083  0.1349  0.0575 -0.0580
 1049W        W 5249   8.567   9.292  11.440 -0.2180  0.1230  0.1228
 1050W        W 5250   2.777   4.203   1.250  0.0730 -0.2765  0.2140
 1051W        W 5251   3.388   1.737   1.712 -0.0550  0.1697  0.2034
 1052W        W 5252   5.874   0.413  12.643 -0.0487  0.1288  0.0028
 1053W        W 5253   4.865   3.826  12.737 -0.0591 -0.3281  0.0223
 1054W        W 5254   7.624   1.161   2.886 -0.2923 -0.0128  0.3176
 1055W        W 5255   4.262   7.428  12.095  0.1234  0.0526 -0.3314
 1056W        W 5256   2.194   6.982   0.185  0.2789  0.0717 -0.0958
 1057W        W 5257   0.948   6.352   0.102 -0.1846 -0.2484 -0.1846
 1058W        W 5258   8.589   4.614  13.340  0.0886  0.0331 -0.1981
 1059W        W 5259   5.905   3.414   2.635  0.3981 -0.0032 -0.0406
 1060W        W 5260   2.448   6.921   1.200 -0.0180 -0.1717 -0.2321
 1061W        W 5261   1.258   3.759  10.479  0.0713 -0.1813  0.1892
 1062W        W 5262   2.199   0.864   3.193  0.0663  0.2049 -0.0981
 1063W        W 5263   5.564   9.048   9.331  0.4001  0.1200 -0.0212
 1064W        W 5264   4.423   9.654   0.388  0.0252 -0.1950  0.0858
 1065W        W 5265   4.185   1.571  10.842 -0.4205 -0.0091 -0.0651
 1066W        W 5266   6.932   5.816   2.150 -0.1981  0.0485  0.3164
 1067W        W 5267   6.887   2.713  11.645  0.0780 -0.0087 -0.1522
 1068W        W 5268   0.311   0.382   0.515 -0.1243  0.2024  0.0418
 1069W        W 5269   3.373   9.560  11.052  0.1632 -0.0390 -0.2083
 1070W        W 5270   2.022   5.190   0.624  0.1623  0.0410  0.0401
 1071W        W 5271   9.285   5.448  12.624 -0.4470  0.1431  0.0525
 1072W        W 5272   7.564   6.397  13.034 -0.0973  0.5772  0.0659
 1073W        W 5273   4.396   1.030  11.557  0.1466  0.0074  0.0433
 1074W        W 5274  10.220   6.505   2.346  0.1473 -0.1549  0.1045
 1075W        W 5275   6.330   7.909  13.215  0.1267 -0.0468  0.3201
 1076W        W 5276   0.250   6.006   9.905  0.1122  0.0810  0.2997
 1077W        W 5277   6.452   9.533  12.384 -0.1170  0.0762 -0.1339
 1078W        W 5278   5.255   5.521   9.237  0.0526 -0.1432  0.0395
 1079W        W 5279   1.572   0.068   0.367  0.0369  0.2106 -0.0635
 1080W        W 5280  10.377   0.266   1.767  0.4154 -0.1341 -0.0112
 1081W        W 5281   6.196   6.412   0.620 -0.2398 -0.0707  0.1171
 1082W        W 5282   2.956   6.623   4.534  0.0023 -0.1238  0.3620
 1083W        W 5283   9.202   7.863  10.659 -0.1530 -0.1098  0.1124
 1084W        W 5284   9.377   6.877   3.040  0.0718  0.1872 -0.0749
 1085W        W 5285   0.811   5.437   3.551  0.1812 -0.1264 -0.1988
 1086W        W 5286   6.170   2.153  12.934  0.0147  0.0327  0.2709
 1087W        W 5287   8.275   6.800   0.038  0.0206 -0.0215  0.0248
 1088W        W 5288   8.642   1.580  12.863 -0.1874  0.3508 -0.1952
 1089W        W 5289   3.290   4.795   4.415 -0.2436  0.0974  0.3395
 1090W        W 5290   1.871   9.992  11.807  0.0964  0.0477  0.0484
 1091W        W 5291   4.524   8.349  11.812 -0.1368 -0.1387 -0.0058
 1092W        W 5292   4.405   6.725   8.421  0.2385  0.2119  0.1481
 1093W        W 5293   1.028   2.796   1.078 -0.2899 -0.0759  0.2233
 1094W        W 5294   1.576   7.863   1.629 -0.0148 -0.2375 -0.0061
 1095W        W 5295   0.234   1.676   2.152  0.0178  0.4534 -0.2491
 1096W        W 5296   2.828   8.634   9.620 -0.0828  0.0931 -0.1404
 1097W        W 5297   5.775   0.587  10.325  0.1883  0.2684 -0.1717
 1098W        W 5298   9.986   4.211  12.429 -0.5120  0.2165 -0.3020
 1099W        W 5299   7.215   5.794   0.775 -0.0890  0.1750  0.1713
 1100W        W 5300   3.498   9.128   3.638 -0.0366  0.2285  0.2577
 1101W        W 5301   5.251   9.972   9.743  0.2080 -0.0319  0.2343
 1102W        W 5302   1.976   2.900  10.438  0.1343  0.3267  0.0188
 1103W        W 5303  10.400   8.419   4.214  0.2098  0.4552 -0.1220
 1104W        W 5304  10.032   1.501   9.285 -0.4551 -0.0161  0.0745
 1105W        W 5305   1.014   9.637   3.226  0.0098 -0.2417  0.2443
 1106W        W 5306   5.892   1.508   2.780  0.2060  0.4087  0.1672
 1107W        W 5307   7.092   8.531   0.814 -0.1940  0.0064 -0.1884
 1108W        W 5308   7.174   0.205  12.367 -0.2891  0.2581  0.1221
 1109W        W 5309   2.347   4.720   0.718 -0.2577 -0.1893 -0.0701
 1110W        W 5310   0.213   7.453  12.211  0.0773 -0.0118  0.1165
 1111W        W 5311   7.247   7.259   2.977  0.1487  0.1042 -0.1057
 1112W        W 5312   6.224   6.611  12.915 -0.0669  0.0130 -0.1909
 1113W        W 5313   3.737   6.283   9.304 -0.0861 -0.2402  0.1364
 1114W        W 5314   2.049   3.688   4.112  0.3376  0.2133  0.0732
 1115W        W 5315   9.490   8.150   0.616 -0.1230 -0.1767 -0.0465
 1116W        W 5316   0.555   4.054   0.019 -0.0847  0.0214 -0.0803
 1117W        W 5317   6.132   1.098  10.975  0.0307  0.0849  0.3690
 1118W        W 5318   7.070   8.965   1.181  0.0365  0.3836  0.0681
 1119W        W 5319   2.711   0.608   2.587 -0.0974  0.0188  0.3251
 1120W        W 5320   0.672   5.131   3.200  0.2394 -0.1839  0.1172
 1121W        W 5321   7.177   9.611  12.981 -0.2366  0.0240  0.1652
 1122W        W 5322   8.983   8.343  10.102  0.2720 -0.3878  0.2391
 1123W        W 5323   5.089   1.420   3.199 -0.1325  0.4993  0.1211
 1124W        W 5324   1.984  10.335   2.968  0.0945  0.0391 -0.0511
 1125W        W 5325   9.894   1.519   1.791 -0.0942  0.0772  0.0392
 1126W        W 5326   7.896   9.409   9.339  0.1442 -0.1610  0.0562
 1127W        W 5327   3.544  10.271  10.322  0.1101 -0.1301  0.2091
 1128W        W 5328   1.364   8.758  10.650 -0.0978 -0.0378 -0.0465
 1129W        W 5329   3.645   9.081  11.909 -0.1314 -0.0249  0.1274
 1130W        W 5330   7.783   3.262  12.406  0.2006 -0.1016  0.1218
 1131W        W 5331   5.954   5.512  13.046  0.4277 -0.3186  0.0642
 1132W        W 5332   0.274   8.801  10.189 -0.4316  0.5467 -0.2690
 1133W        W 5333   2.152   9.182  11.289  0.2442 -0.0717  0.2901
 1134W        W 5334   3.972   3.038   4.269  0.1260  0.2482 -0.1336
 1135W        W 5335   7.792   6.187  11.389 -0.1455  0.0304 -0.1106
 1136W        W 5336   1.302   8.938  12.514 -0.0427 -0.2266  0.1748
 1137W        W 5337   6.417   7.534   9.143 -0.3324  0.0235  0.0915
 1138W        W 5338   4.508   9.615  12.854 -0.3498 -0.2950  0.0006
 1139W        W 5339   8.538   0.047  12.034  0.1715 -0.1098 -0.0715
 1140W        W 5340   5.081   6.175   1.086  0.0346  0.1258 -0.0694
 1141W        W 5341   1.704   7.371  13.449  0.2237  0.2410  0.2183
 1142W        W 5342   8.327   8.314   3.999 -0.0267 -0.0199 -0.0722
 1143W        W 5343   9.689   2.011   0.346 -0.1485 -0.0275  0.2198
 1144W        W 5344   3.704   8.075   9.516  0.1831 -0.0825 -0.0239
 1145W        W 5345   6.459   5.209  11.679  0.0898 -0.2594 -0.0477
 1146W        W 5346   2.987   4.597  10.549 -0.1312 -0.1254  0.1227
 1147W        W 5347   6.413   1.522   1.500 -0.2042  0.0512  0.1507
 1148W        W 5348   7.170   9.971  10.258 -0.1288  0.0343 -0.0291
 1149W        W 5349   5.676   7.567  11.974  0.1003  0.1545  0.3721
 1150W        W 5350   7.042   7.977   3.407 -0.1538 -0.0592  0.2154
 1151W        W 5351   4.057   8.309   0.171 -0.1353  0.1754  0.4152
 1152W        W 5352   9.723   1.493   4.683 -0.0586 -0.2513  0.0854
 1153W        W 5353   6.332   9.234   3.742  0.0741  0.0519 -0.2508
 1154W        W 5354   0.389   7.660   1.836 -0.1219  0.2911  0.0558
 1155W        W 5355   8.800   3.905   9.628 -0.3922 -0.0690 -0.3271
 1156W        W 5356   6.572   9.104   0.085  0.0565 -0.2006 -0.1109
 1157W        W 5357   2.322   6.993   3.835 -0.0379  0.0476 -0.4358
 1158W        W 5358   3.432   1.779   3.193 -0.0587  0.2245  0.2464
 1159W        W 5359   6.225   7.846  10.563 -0.1267  0.2261 -0.2094
 1160W        W 5360   4.046   5.316  12.357  0.0311  0.1971  0.0645
 1161W        W 5361   8.804   7.156   9.101  0.0892 -0.1942 -0.2916
 1162W        W 5362   9.755   5.742   2.485  0.0158 -0.2575  0.2346
 1163W        W 5363   6.281   9.097   1.129 -0.2247 -0.1863  0.4016
 1164W        W 5364   8.212   2.638  12.013 -0.2898 -0.0965 -0.0079
 1165W        W 5365   9.284   9.379   0.248 -0.1915 -0.0211 -0.1485
 1166W        W 5366   0.311   3.646   3.827 -0.0611  0.2226  0.1436
 1167W        W 5367   6.013   0.667   0.771 -0.0013 -0.0442 -0.1474
 1168W        W 5368   2.454   5.450   2.619 -0.1412  0.0165 -0.1259
 1169W        W 5369   8.281   5.243  10.644  0.1439  0.1842 -0.0214
 1170W        W 5370   5.393   8.128  11.946  0.2180  0.4364  0.0005
 1171W        W 5371   9.474   9.856  11.266 -0.0744 -0.0567  0.1941
 1172W        W 5372   7.339   1.338   1.684 -0.0780  0.4102  0.0227
 1173W        W 5373   5.019   1.195  10.382  0.1403 -0.1349 -0.1685
 1174W        W 5374   2.419  10.077   9.043  0.2263 -0.1701 -0.2093
 1175W        W 5375   5.746   0.312   2.557  0.0853  0.3365  0.0565
 1176W        W 5376   3.802   8.328   2.253 -0.0722 -0.0562  0.2930
 1177W        W 5377   1.374   6.462  10.895  0.2002 -0.4150  0.0013
 1178W        W 5378   1.599   7.821   2.214 -0.1897  0.0818 -0.2450
 1179W        W 5379   8.672   7.982  11.795 -0.0058  0.1648  0.0331
 1180W        W 5380   0.337   0.155  12.187  0.1984 -0.0874  0.0705
 1181W        W 5381   6.637   0.139  13.162 -0.2119  0.0412  0.0503
 1182W        W 5382   9.737   7.383  12.019  0.0567 -0.0272 -0.1013
 1183W        W 5383   8.031   3.302  10.314  0.0084 -0.1444 -0.1719
 1184W        W 5384  10.331   3.243   4.936 -0.1092 -0.2658  0.1249
 1185W        W 5385   7.313   4.522   9.243  0.1715 -0.3748 -0.1878
 1186W        W 5386   2.481   6.590   2.559 -0.1803 -0.1606  0.3416
 1187W        W 5387   1.371   6.269   3.138 -0.3151  0.2945 -0.1391
 1188W        W 5388   0.507   2.018   1.770  0.0988 -0.1737  0.0613
 1189W        W 5389   7.137   2.086  13.263 -0.1108  0.3145 -0.1638
 1190W        W 5390   4.119   8.384  11.419 -0.1271 -0.1990 -0.0777
 1191W        W 5391   3.052   2.181   4.659 -0.1309 -0.1812 -0.1586
 1192W        W 5392   3.771   1.181   1.772 -0.2434  0.1245  0.0906
 1193W        W 5393   9.344   1.084   0.217  0.1892  0.4511  0.2815
 1194W        W 5394   2.605   2.849  10.080 -0.0665  0.0298 -0.0423
 1195W        W 5395   3.062   7.077  12.357  0.0225 -0.0895  0.3653
 1196W        W 5396   4.755   7.363  11.824  0.1925 -0.2914 -0.1764
 1197W        W 5397   6.507   8.855   1.522 -0.0633  0.0835 -0.1333
 1198W        W 5398   2.664   8.002  12.512 -0.1462 -0.0271 -0.2442
 1199W        W 5399   4.671   0.758  11.832 -0.1102  0.0135 -0.0658
 1200W        W 5400  10.391   9.383   1.040 -0.0238  0.1353  0.1305
 1201W        W 5401   2.433   8.718   1.315 -0.0357  0.0452 -0.1392
 1202W        W 5402   7.430   3.897   3.493 -0.2798 -0.1593  0.0113
 1203W        W 5403   0.087   6.755   0.006 -0.0178 -0.3267 -0.1135
 1204W        W 5404   3.204   8.210   2.432  0.0036  0.2002 -0.3098
 1205W        W 5405   7.674  10.375  12.985 -0.2193  0.1543 -0.0863
 1206W        W 5406   6.422   8.866  10.039  0.3836 -0.1884 -0.1920
 1207W        W 5407   7.483   4.358   1.654 -0.1092 -0.0684 -0.0294
 1208W        W 5408   4.634   3.805  12.009 -0.0274 -0.0973 -0.2474
 1209W        W 5409   8.601   8.559   2.320 -0.1381  0.0291 -0.0921
 1210W        W 5410   6.149   7.598   4.917 -0.0670 -0.1499  0.0950
 1211W        W 5411   4.552   9.237   0.607  0.0112  0.0119  0.1103
 1212W        W 5412   1.319   4.847   9.229  0.0685 -0.2399  0.1416
 1213W        W 5413   6.826   8.728   2.073  0.1269 -0.0293  0.0059
 1214W        W 5414   1.149   3.248  11.166 -0.1753  0.1409  0.1266
 1215W        W 5415   4.975   9.086  10.765 -0.0820  0.1869  0.0206
 1216W        W 5416   6.381   8.422   9.860  0.0480 -0.2615  0.0931
 1217W        W 5417   6.462   7.235   4.864 -0.1345 -0.0141  0.2570
 1218W        W 5418   7.448   5.423   0.681 -0.1574 -0.0741 -0.2579
 1219W        W 5419   2.775   5.358   4.008  0.1263  0.0072  0.1073
 1220W        W 5420   0.995   9.302   1.999  0.1839 -0.0077  0.0374
 1221W        W 5421   4.464   9.612   5.304  0.0932 -0.2113 -0.0812
 1222W        W 5422   9.689   8.536   1.160 -0.0164 -0.1798  0.3316
 1223W        W 5423   7.751   5.017  12.386 -0.1345  0.2313 -0.3282
 1224W        W 5424   9.940   9.319   4.713  0.0473  0.1285 -0.2770
 1225W        W 5425   3.228  10.068   3.621  0.0378 -0.2261 -0.1264
 1226W        W 5426   6.356   0.028   4.301 -0.0017  0.3386 -0.0122
 1227W        W 5427   0.735   9.430   9.152 -0.2296  0.1282  0.2970
 1228W        W 5428   3.030   1.843   3.716 -0.1295 -0.1034 -0.2015
 1229W        W 5429   8.845   2.402   3.168 -0.1895 -0.0222  0.1584
 1230W        W 5430   2.303   1.510   4.612 -0.3800 -0.2955  0.3255
 1231W        W 5431   6.352   0.101  11.305  0.1593 -0.1189  0.1038
 1232W        W 5432   1.831   9.189   1.902  0.2066  0.1443 -0.3314
 1233W        W 5433   6.640   1.706  10.619 -0.1209  0.0675  0.1668
 1234W        W 5434   5.200   4.089   2.604  0.3847 -0.3338  0.4176
 1235W        W 5435   3.506   6.068   1.249  0.1545  0.0848  0.1432
 1236W        W 5436   7.149   6.736  10.066  0.4345  0.0239  0.0482
 1237W        W 5437   5.981   2.440  13.305  0.0291 -0.2170  0.2114
 1238W        W 5438   1.807   1.342   4.664 -0.0144  0.4229 -0.0434
 1239W        W 5439   7.891   9.026  12.728  0.1673 -0.0044 -0.0739
 1240W        W 5440   9.160   8.457   1.110  0.0376  0.1101  0.1688
 1241W        W 5441   1.936   6.514   0.458 -0.2358  0.3193 -0.0537
 1242W        W 5442   8.241   7.187   5.452  0.3505  0.1446  0.2831
 1243W        W 5443   0.528   4.608   8.382  0.1758  0.0667  0.1404
 1244W        W 5444   5.228   8.761  13.018  0.2459 -0.0168  0.3593
 1245W        W 5445   2.528   7.296  10.087 -0.0862 -0.0839  0.0914
 1246W        W 5446  10.124   1.603  12.729  0.0524  0.0892 -0.0337
 1247W        W 5447   2.435   2.140  10.770 -0.0409 -0.0294  0.3597
 1248W        W 5448   2.946   1.092  10.118 -0.0476 -0.2106 -0.1160
 1249W        W 5449   7.302   7.480  10.531 -0.1864 -0.2862  0.2600
 1250W        W 5450   4.166   9.941  10.807 -0.0705  0.2459  0.4251
 1251W        W 5451   2.392   9.966  10.984  0.2615  0.0913  0.2360
 1252W        W 5452   0.625   8.301   3.954  0.0648 -0.0078 -0.1182
 1253W        W 5453   4.595  10.323   2.168  0.1169  0.1874 -0.0580
 1254W        W 5454   3.470   3.097  10.706  0.1554  0.0695 -0.3268
 1255W        W 5455   3.284   5.766   0.225 -0.1890 -0.3128  0.2275
 1256W        W 5456   6.001   7.275   2.237 -0.1262  0.3318 -0.6287
 1257W        W 5457   9.200   0.133  10.091 -0.2713 -0.3594 -0.4465
 1258W        W 5458   3.561   7.040  13.190 -0.1280 -0.0623 -0.0732
 1259W        W 5459   1.282   9.024   0.404 -0.2444 -0.2873 -0.1451
 1260W        W 5460   2.800   1.532   0.330  0.0540 -0.0517 -0.1820
 1261W        W 5461   9.961   1.116  10.662  0.0596 -0.1454 -0.0156
 1262W        W 5462   9.604   3.301   4.205 -0.2742 -0.3449  0.1829
 1263W        W 5463   9.710   2.245  12.192  0.1141  0.2803  0.2450
 1264W        W 5464   0.335   3.617   0.145 -0.0734  0.1238  0.1655
 1265W        W 5465   4.909   0.238   2.109 -0.1393 -0.2918  0.3932
 1266W        W 5466   9.723   4.038  10.957  0.0699 -0.1168  0.1634
 1267W        W 5467   4.245   8.544  10.961  0.2676 -0.1082  0.0351
 1268W        W 5468   8.958   4.673  12.868  0.1676 -0.1275 -0.2051
 1269W        W 5469   0.019   7.593   0.250 -0.1906  0.1987  0.0436
 1270W        W 5470   4.691   8.441   8.958 -0.0938 -0.1585 -0.1961
 1271W        W 5471   8.677   8.414   4.371 -0.0071 -0.4783  0.1227
 1272W        W 5472   1.759   5.719  11.612  0.1726 -0.0638  0.2868
 1273W        W 5473   6.242   8.623   2.835 -0.0826  0.1593  0.1048
 1274W        W 5474   4.352   4.444   3.256 -0.1087 -0.0092  0.3118
 1275W        W 5475   0.015   7.302   1.705  0.4327  0.0586 -0.2061
 1276W        W 5476   8.273   1.281  12.445 -0.0931 -0.1179 -0.2579
 1277W        W 5477   4.485   4.625   4.106 -0.0964  0.1648  0.0604
 1278W        W 5478   4.743   9.750  11.915 -0.1206 -0.1579 -0.0091
 1279W        W 5479   0.575   0.546   5.054  0.0150  0.0780  0.0492
 1280W        W 5480   4.762   1.218   1.463  0.1746 -0.0694  0.0385
 1281W        W 5481   6.818   7.556  11.244  0.0574  0.1505 -0.1375
 1282W        W 5482   9.636   1.971   4.996 -0.2319  0.1435  0.3353
 1283W        W 5483   7.624   4.323  11.015 -0.1434 -0.0204  0.1070
 1284W        W 5484   5.271  10.126  12.367  0.0506  0.0259 -0.1798
 1285W        W 5485   8.263   7.769   0.140  0.3426 -0.0583 -0.3346
 1286W        W 5486   0.340   8.811   4.064  0.3228  0.1106  0.0629
 1287W        W 5487   3.066   6.470  11.555 -0.1820 -0.0910  0.2293
 1288W        W 5488   1.639   0.468   3.417 -0.0442 -0.1243 -0.0875
 1289W        W 5489   1.852   0.050   3.571  0.2358  0.0872 -0.0242
 1290W        W 5490  10.184   3.094   4.399  0.0910 -0.1951  0.0613
 1291W        W 5491   5.728   5.302  12.098 -0.1966  0.0303 -0.0996
 1292W        W 5492   9.512   8.777   9.533 -0.2769  0.3337 -0.0508
 1293W        W 5493   2.836   5.924  12.913  0.0012  0.1927  0.1044
 1294W        W 5494   4.474   8.534   1.655  0.1878  0.0679  0.2478
 1295W        W 5495   5.641   7.024   0.560 -0.0236  0.0179 -0.0782
 1296W        W 5496   7.033   6.779   1.489  0.0961 -0.2627  0.1239
 1297W        W 5497   5.113   5.486  11.472  0.0680  0.1597 -0.0982
 1298W        W 5498  10.004  10.167  10.405  0.2026  0.1141 -0.0722
 1299W        W 5499   1.763   8.901   3.298 -0.1571  0.0366 -0.3045
 1300W        W 5500   5.373   7.750   4.496 -0.1838  0.2606 -0.1263
 1301W        W 5501   7.895   5.792  10.012 -0.0698 -0.1734 -0.4015
 1302W        W 5502   9.577   0.022  10.460  0.1441 -0.0560 -0.1231
 1303W        W 5503   9.324   9.054   4.134  0.1961  0.0433 -0.0108
 1304W        W 5504   3.351   4.782  10.898  0.1531  0.2055  0.1581
 1305W        W 5505   0.620   7.037   0.787  0.2538  0.1389 -0.0840
 1306W        W 5506   3.015   9.143  13.008 -0.1194 -0.1208 -0.1629
 1307W        W 5507   6.592   9.893   0.548  0.1194  0.0911  0.2113
 1308W        W 5508   2.719   4.996   9.342 -0.0561  0.1682 -0.0016
 1309W        W 5509   0.291   4.721  12.234 -0.1452  0.3084 -0.3675
 1310W        W 5510   9.411   7.971  10.070 -0.0453  0.1369 -0.0264
 1311W        W 5511   5.610   1.227   1.634 -0.3749 -0.1124  0.0626
 1312W        W 5512   6.090   4.383  12.605  0.2734  0.1632 -0.2510
 1313W        W 5513   7.310   8.793   9.482  0.0806 -0.0712  0.3117
 1314W        W 5514   6.464   3.669  10.565 -0.1790  0.0010 -0.1476
 1315W        W 5515   3.224   0.112  10.917 -0.0935 -0.3833 -0.3455
 1316W        W 5516   9.447   6.953  12.893 -0.1287  0.2755  0.0183
 1317W        W 5517   1.776   7.094   8.352 -0.1425 -0.1802 -0.0623
 1318W        W 5518   8.391   8.861  11.356 -0.1204 -0.0183 -0.2540
 1319W        W 5519   0.152   0.563  11.154  0.1103 -0.1793 -0.2727
 1320W        W 5520   0.058   3.222   1.503  0.0322  0.0194  0.1888
 1321W        W 5521   4.555   2.254   1.867  0.2130  0.1293 -0.1065
 1322W        W 5522   2.758   1.999   9.802 -0.1834 -0.0801 -0.1995
 1323W        W 5523   1.166   2.342   1.976  0.1279  0.3298 -0.1003
 1324W        W 5524   7.920   7.973   0.602 -0.1882  0.0202 -0.1085
 1325W        W 5525   3.799   5.007   1.653  0.1539  0.0721 -0.0503
 1326W        W 5526   0.255   7.724   1.289  0.0409 -0.0044 -0.1538
 1327W        W 5527   9.134  10.403  10.902 -0.0041 -0.2404  0.3351
 1328W        W 5528   2.142   0.250  12.728 -0.1852  0.1762  0.1069
 1329W        W 5529   8.469   8.376   9.233 -0.1189 -0.2978  0.0170
 1330W        W 5530   6.769   8.660   3.044  0.2248 -0.1723  0.0229
 1331W        W 5531   6.158   6.037   4.490  0.3424  0.0286 -0.0215
 1332W        W 5532   3.583   8.893   2.975  0.3190 -0.1942  0.2068
 1333W        W 5533   5.253   7.359  11.255  0.0284 -0.0003 -0.2021
 1334W        W 5534   1.892   1.905  12.264 -0.2139  0.2183  0.1236
 1335W        W 5535   3.388   4.721  13.257 -0.2200 -0.2626  0.0110
 1336W        W 5536   1.548   5.126   1.578 -0.2900 -0.1063 -0.2193
 1337W        W 5537   3.357   2.724  10.365 -0.0163  0.1398 -0.1390
 1338W        W 5538   0.060   5.763  12.547  0.1603  0.3480 -0.0054
 1339W        W 5539   7.281   3.793  11.799  0.1119  0.0294  0.2587
 1340W        W 5540   2.153   0.804  11.106  0.0007 -0.0354 -0.1919
 1341W        W 5541   7.301   2.063   0.300 -0.0538  0.1548  0.1714
 1342W        W 5542   4.632   0.488  10.825 -0.1462  0.0985 -0.3519
 1343W        W 5543   4.182   3.563   9.693 -0.2326  0.0016  0.3360
 1344W        W 5544   4.799   9.232   9.336  0.0719  0.0683 -0.0178
 1345W        W 5545   7.351   7.007  10.530  0.1416  0.0745 -0.1699
 1346W        W 5546   1.589   4.062  13.189 -0.0255  0.0449  0.2467
 1347W        W 5547   9.624   6.209   3.255  0.3133 -0.1831  0.2187
 1348W        W 5548   7.944   0.947  12.882 -0.1333  0.0195 -0.1076
 1349W        W 5549   5.425   5.185  10.423 -0.2892  0.4746  0.2023
 1350W        W 5550   8.303   4.565   1.829 -0.0304 -0.0010  0.0604
 1351W        W 5551   5.679   8.338   3.731  0.2535 -0.2336  0.0595
 1352W        W 5552   5.725   6.601   0.779 -0.0380 -0.1256  0.0317
 1353W        W 5553   1.577   1.005   1.467  0.0741 -0.0635  0.2316
 1354W        W 5554   6.118   3.335  11.335  0.1665 -0.1635 -0.0500
 1355W        W 5555   4.694   9.127   8.440 -0.0246 -0.2721  0.0014
 1356W        W 5556   5.857   1.057   2.859  0.1779 -0.1013  0.0190
 1357W        W 5557   2.177   7.941   8.443 -0.2097  0.1738  0.0305
 1358W        W 5558   6.468   8.699   3.940  0.2979  0.0473  0.0571
 1359W        W 5559   6.793   1.014  12.526  0.0954 -0.0237 -0.0848
 1360W        W 5560   7.463   4.756   0.453  0.1888 -0.0555  0.0202
 1361W        W 5561   9.722   5.117  13.352 -0.1373 -0.2159  0.1463
 1362W        W 5562   2.412   2.730  13.112 -0.0477 -0.3305 -0.0400
 1363W        W 5563   1.342   0.346   2.205 -0.0947 -0.2692 -0.0215
 1364W        W 5564   9.950  10.281   0.610 -0.0208  0.2364 -0.0901
 1365W        W 5565   7.718   8.951   9.310 -0.1789  0.0637  0.2541
 1366W        W 5566   7.548   4.511  12.502  0.1465 -0.0481 -0.0388
 1367W        W 5567   9.038   0.685   0.311 -0.1210 -0.0980 -0.1885
 1368W        W 5568   0.817   1.752   5.426  0.0773 -0.1908  0.1297
 1369W        W 5569   4.352   0.097  12.924  0.1806  0.0042  0.2432
 1370W        W 5570   5.322  10.439   1.878  0.1564  0.2258  0.2273
 1371W        W 5571   0.597   8.084   2.173 -0.1595  0.3810 -0.0410
 1372W        W 5572   7.740   3.031   3.354  0.0421 -0.0176  0.0415
 1373W        W 5573   6.958   8.105  11.256 -0.0351 -0.2375  0.1005
 1374W        W 5574   6.618   5.073   4.648  0.0569  0.3466 -0.1220
 1375W        W 5575   4.027   9.651   2.172 -0.0152  0.0104 -0.2556
 1376W        W 5576   6.782   5.556  11.952  0.1148  0.0550 -0.2048
 1377W        W 5577   3.229   3.271  11.166 -0.4665  0.2506  0.0981
 1378W        W 5578   0.494   3.190   4.177 -0.0743  0.0672 -0.2274
 1379W        W 5579  10.129   1.180   1.448  0.3491 -0.2066  0.0803
 1380W        W 5580   6.363   1.679   2.622 -0.0568  0.0612 -0.0058
 1381W        W 5581   5.917   1.510   0.074 -0.1315 -0.0563 -0.1392
 1382W        W 5582   9.007   2.149   1.017  0.1171  0.1209 -0.3383
 1383W        W 5583   5.502   6.986   0.024  0.0208 -0.1283  0.3003
 1384W        W 5584   7.520   7.965  10.622  0.1515 -0.3027 -0.4254
 1385W        W 5585   8.959   1.841  11.453  0.2594  0.3694  0.3481
 1386W        W 5586   7.284   9.778   2.978  0.0405 -0.0361 -0.2779
 1387W        W 5587   0.363   8.490   3.591  0.0339  0.1499  0.1515
 1388W        W 5588   6.868   4.711  10.665  0.0198 -0.1021 -0.3775
 1389W        W 5589   9.536   9.422   9.397  0.4619 -0.2133  0.3566
 1390W        W 5590   4.062   4.188   1.470  0.2513 -0.4248  0.0767
 1391W        W 5591   9.640   0.487   0.997 -0.0076 -0.1411 -0.2755
 1392W        W 5592   9.956   3.712   3.180 -0.1835 -0.1203  0.0272
 1393W        W 5593   9.101   8.861   0.293 -0.0046  0.0754  0.0656
 1394W        W 5594   3.371   8.290   3.275 -0.1714  0.1335 -0.2148
 1395W        W 5595   7.441   9.744   4.208 -0.0947 -0.1907  0.1624
 1396W        W 5596   4.353   2.400   3.739  0.0576 -0.1910 -0.0905
 1397W        W 5597   3.500   8.075  11.960  0.0517  0.3029 -0.1164
 1398W        W 5598   7.564   9.101   1.003  0.1367  0.0380 -0.0731
 1399W        W 5599   8.918   5.338  12.285 -0.1389 -0.2301  0.3095
 1400W        W 5600   1.279   6.449  12.752  0.1616 -0.3794  0.0478
 1401W        W 5601   0.204   3.414   9.802  0.1193  0.0167  0.2146
 1402W        W 5602   9.257   9.577   4.275  0.2327  0.2976 -0.1412
 1403W        W 5603   7.744   0.280   9.282 -0.0281 -0.0697 -0.2000
 1404W        W 5604   0.105   8.068   3.859  0.1348 -0.0054  0.2273
 1405W        W 5605  10.269   8.757  10.661 -0.0628 -0.0132 -0.0489
 1406W        W 5606   6.864   7.351   4.088 -0.2192 -0.1973 -0.2324
 1407W        W 5607   3.800   7.823   3.552  0.1366 -0.0255  0.0892
 1408W        W 5608  10.098   1.045   3.378  0.1698  0.1994  0.3562
 1409W        W 5609   0.529   6.386   3.667  0.0739 -0.0129  0.0365
 1410W        W 5610   2.950  10.448   3.879 -0.0569  0.0805  0.0036
 1411W        W 5611   4.191   4.135   2.867 -0.2161  0.1001  0.1028
 1412W        W 5612   4.270   5.450   4.376  0.2081 -0.1914  0.0992
 1413W        W 5613   2.251   2.811   0.185  0.2632 -0.0697  0.0854
 1414W        W 5614   7.451   6.999   2.032 -0.0847  0.0111 -0.4084
 1415W        W 5615   0.493  10.199   3.867  0.0232  0.0249 -0.1996
 1416W        W 5616   1.889   8.959   9.864 -0.1514  0.0810 -0.0339
 1417W        W 5617   5.098   9.077  13.336  0.0917 -0.1366 -0.3286
 1418W        W 5618   4.519   7.043   9.743  0.1683  0.1100  0.0463
 1419W        W 5619   3.382  10.177   4.082  0.0327 -0.0161  0.1607
 1420W        W 5620   3.176   7.555   4.066  0.0067 -0.2556 -0.0842
 1421W        W 5621   7.770   5.408   2.403  0.0197 -0.0581  0.2993
 1422W        W 5622   2.834   6.454   2.182  0.0652  0.0312 -0.0768
 1423W        W 5623   6.335   3.523   0.938 -0.0616 -0.1424 -0.2553
 1424W        W 5624   8.891   1.555   1.990 -0.0484 -0.0264 -0.1089
 1425W        W 5625   2.999   0.522   4.683 -0.4501  0.3123  0.0162
 1426W        W 5626   9.557   3.608  13.212 -0.0830  0.2107  0.1245
 1427W        W 5627   0.773   8.892   1.067 -0.0441 -0.1750 -0.1553
 1428W        W 5628   8.721   2.524  11.940 -0.0633  0.0316 -0.1394
 1429W        W 5629   1.561   1.501   3.642  0.0727  0.0973 -0.1066
 1430W        W 5630   0.735   6.670   9.288 -0.3273 -0.1905 -0.0264
 1431W        W 5631   8.484   0.605  12.046  0.0116 -0.1310  0.3583
 1432W        W 5632  10.285   0.140   0.275  0.1379 -0.1386  0.1967
 1433W        W 5633   2.858   0.329   0.040  0.0573 -0.3901  0.1328
 1434W        W 5634   5.317   8.014   3.756  0.0782 -0.0334  0.1867
 1435W        W 5635   4.146   9.450  10.558  0.0556 -0.0778  0.1909
 1436W        W 5636   5.862   2.048   1.561 -0.1855  0.0413  0.0350
 1437W        W 5637   7.183   9.724   9.335  0.4921  0.2597 -0.1529
 1438W        W 5638   0.030   2.270   5.268  0.0144 -0.0536 -0.2648
 1439W        W 5639   6.922   0.902  11.317  0.0600 -0.1481  0.1795
 1440W        W 5640   3.950   0.223   4.727  0.3555 -0.0778 -0.1120
 1441W        W 5641   5.768   8.403   5.523  0.1148 -0.0872 -0.2843
 1442W        W 5642   4.561   1.740  13.258 -0.0274 -0.0828  0.1196
 1443W        W 5643   2.972   6.029   3.077 -0.2044 -0.0758 -0.2045
 1444W        W 5644   6.090   7.613  12.819 -0.2246  0.3365  0.3538
 1445W        W 5645   9.654   9.477   0.540  0.0261  0.2872  0.1607
 1446W        W 5646   4.633   4.196   4.668  0.0394 -0.2389 -0.0348
 1447W        W 5647   7.221   4.655  12.854  0.0135 -0.4607 -0.0873
 1448W        W 5648   8.361   9.135  11.906  0.0494  0.0156 -0.2173
 1449W        W 5649   5.520   5.696  10.606 -0.2689  0.2282  0.0832
 1450W        W 5650   0.024   3.432   4.169 -0.0222  0.0884 -0.3225
 1451W        W 5651   1.893   0.073   8.893 -0.2513 -0.0389 -0.4179
 1452W        W 5652  10.231   1.589   9.760  0.1210 -0.2571 -0.0144
 1453W        W 5653   2.278   5.272   3.192  0.1065 -0.2966  0.0671
 1454W        W 5654   3.336   8.709   8.757 -0.1621  0.1645 -0.3323
 1455W        W 5655   1.312   4.821   4.347 -0.2178 -0.1914  0.3902
 1456W        W 5656   8.991   6.581  13.161 -0.3244  0.2336 -0.0198
 1457W        W 5657   0.965   7.317  12.790  0.1904  0.0726 -0.2435
 1458W        W 5658   4.793   8.532   1.160  0.1876  0.0320  0.1299
 1459W        W 5659   7.667   1.769  11.974  0.2566  0.0429 -0.0105
 1460W        W 5660   8.656   3.440   0.635  0.2924 -0.1074  0.0437
 1461W        W 5661   1.255   2.139   8.879  0.2234 -0.2420 -0.1031
 1462W        W 5662   9.745   0.769   8.678  0.1950  0.2395  0.0294
 1463W        W 5663   2.420   1.261  10.938 -0.1274  0.3237 -0.0951
 1464W        W 5664   9.402   6.875  11.379 -0.0351  0.0044 -0.0051
 1465W        W 5665   9.522   9.121  12.498 -0.0707  0.2224 -0.1129
 1466W        W 5666   9.121   1.119   2.040  0.1596 -0.1034  0.1064
 1467W        W 5667   4.544   4.078  13.086  0.0307  0.1957  0.0782
 1468W        W 5668   4.573   0.664   9.274 -0.1296 -0.3171 -0.1104
 1469W        W 5669   2.054   6.258   2.426 -0.2203 -0.0613 -0.0458
 1470W        W 5670   7.267   9.066   9.969  0.0381 -0.0299  0.0146
 1471W        W 5671   2.363   6.990   2.932 -0.2430 -0.1516  0.3080
 1472W        W 5672   3.046   7.756  12.732 -0.0681  0.0918  0.1273
 1473W        W 5673  10.276   0.229  12.159 -0.0659 -0.0216  0.0324
 1474W        W 5674   2.422   4.438   2.567 -0.2518 -0.1998  0.3234
 1475W        W 5675   7.258   2.233  10.777 -0.4997 -0.0849  0.1728
 1476W        W 5676   3.396   0.936   4.629  0.1499 -0.2240 -0.1939
 1477W        W 5677   3.018   9.832  12.016 -0.1933 -0.0347 -0.2151
 1478W        W 5678   0.562   8.000   2.707 -0.1137  0.0900  0.0955
 1479W        W 5679   9.454   4.223  13.188  0.0219 -0.0507  0.0189
 1480W        W 5680   4.898   3.054   0.161 -0.0821 -0.0851  0.1566
 1481W        W 5681   4.826   8.729   3.240 -0.0824  0.0221  0.0402
 1482W        W 5682   0.786   2.669  10.940  0.0264 -0.1419 -0.2618
 1483W        W 5683   0.086   9.023  11.146  0.1965 -0.3070 -0.0111
 1484W        W 5684   0.968   9.497  12.675  0.2245  0.2139 -0.0732
 1485W        W 5685   9.464   0.088  12.759  0.0545  0.1795  0.0143
 1486W        W 5686   2.695   3.634   3.685  0.0979 -0.1001  0.3309
 1487W        W 5687   0.510   9.673   9.852  0.3868 -0.0364 -0.0264
 1488W        W 5688   5.159   9.776   4.203 -0.1020 -0.2793  0.2824
 1489W        W 5689   8.503   2.077   1.304 -0.1519  0.0207 -0.2833
 1490W        W 5690   5.882   0.850  11.368  0.0611 -0.4110  0.0198
 1491W        W 5691   2.836   4.851  13.044  0.0201 -0.2329 -0.0603
 1492W        W 5692   9.833   9.001  11.880  0.4344 -0.1028  0.1881
 1493W        W 5693   2.384   7.657  11.480 -0.0692  0.1766 -0.4056
 1494W        W 5694   2.425   6.706   4.630  0.1029  0.1512 -0.1182
 1495W        W 5695   6.127   6.978   4.481 -0.1055 -0.0681 -0.1592
 1496W        W 5696   0.501   1.072  12.289  0.0967 -0.0797 -0.0707
 1497W        W 5697   5.017   3.433   2.390 -0.0364 -0.2928 -0.3328
 1498W        W 5698   8.213   1.740   2.998 -0.0917  0.2367 -0.0304
 1499W        W 5699   2.301   9.832   3.346 -0.0869  0.0588  0.3902
 1500W        W 5700   9.285   1.260  12.399 -0.0389 -0.2096  0.2778
 1501W        W 5701   2.490   4.342   2.037  0.0331  0.0814 -0.1454
 1502W        W 5702   7.181   3.200  12.347 -0.1386  0.0768  0.2096
 1503W        W 5703   8.236   1.398   2.217  0.0780 -0.1045  0.2872
 1504W        W 5704   8.464   6.554   9.697  0.2987  0.1681  0.0229
 1505W        W 5705   2.982  10.386  13.159  0.0589 -0.2647 -0.0679
 1506W        W 5706   4.441  10.349   4.557  0.1782  0.2394  0.1135
 1507W        W 5707   2.760   8.512  12.427  0.1033  0.0908 -0.1528
 1508W        W 5708   6.329   5.316   9.791 -0.0509  0.1803 -0.0279
 1509W        W 5709   9.480   8.063   8.599  0.3233  0.2361  0.3525
 1510W        W 5710   9.205   4.151   2.602 -0.1383 -0.0146  0.0771
 1511W        W 5711   2.815   6.961   3.106 -0.1249 -0.0201 -0.1194
 1512W        W 5712   9.215   4.557   8.430  0.1945  0.0581 -0.0201
 1513W        W 5713   6.531   4.939  12.616 -0.1685  0.2489  0.1333
 1514W        W 5714   1.463   3.975   9.196  0.2252 -0.0176 -0.1676
 1515W        W 5715   6.270   8.454  11.586 -0.1260 -0.0813  0.1419
 1516W        W 5716   3.968   9.345   1.306 -0.2159 -0.0835 -0.1250
 1517W        W 5717   8.878   6.738   9.849 -0.1171  0.0408 -0.1734
 1518W        W 5718   9.336   3.121   3.330  0.2985 -0.2778 -0.0948
 1519W        W 5719   1.851   1.771  11.322  0.0098 -0.1226 -0.0303
 1520W        W 5720   4.704   5.917  12.193 -0.2865 -0.1024  0.0479
 1521W        W 5721   8.282   2.912  11.160  0.1512  0.1010 -0.1574
 1522W        W 5722  10.319   1.819  11.842 -0.0095 -0.2659  0.1396
 1523W        W 5723   4.102   6.754   9.740 -0.0017  0.2698  0.0901
 1524W        W 5724   5.754   3.519  13.092  0.1081 -0.1343 -0.1426
 1525W        W 5725   5.319   5.208   3.902  0.1257  0.1062 -0.1297
 1526W        W 5726  10.063   6.294   3.575 -0.0448  0.1558  0.1719
 1527W        W 5727   2.170   6.345  10.553 -0.0497 -0.4584 -0.1959
 1528W        W 5728   3.174   8.029   9.481 -0.1158 -0.1436  0.0488
 1529W        W 5729   0.982   6.847  12.574  0.0458 -0.0478  0.1825
 1530W        W 5730   1.109   4.093  10.823 -0.0466 -0.0227  0.1762
 1531W        W 5731   6.415   8.882   8.676  0.2549 -0.1580 -0.1506
 1532W        W 5732   0.029   8.833   2.422 -0.0733  0.0027  0.0105
 1533W        W 5733   2.398   6.689  10.818 -0.3271 -0.1459 -0.0041
 1534W        W 5734   1.072   0.053  11.166  0.0205 -0.1170 -0.0935
 1535W        W 5735   6.018   7.739   0.967  0.2126  0.1134  0.2503
 1536W        W 5736   4.347   6.246   2.355  0.0841  0.0370  0.1008
 1537W        W 5737   7.535   3.558   2.575 -0.1912  0.1308  0.0486
 1538W        W 5738   1.718   3.859   0.320 -0.1695 -0.2681 -0.1839
 1539W        W 5739   8.451   5.763   2.196 -0.0159  0.0492  0.1687
 1540W        W 5740   9.298   4.341   3.553 -0.0543  0.0106  0.2003
 1541W        W 5741   7.549   3.234   2.975  0.2368 -0.2157 -0.0379
 1542W        W 5742   0.465   1.557  12.951  0.0843  0.1308  0.1182
 1543W        W 5743  10.129   8.713   9.211  0.2065  0.1671  0.0468
 1544W        W 5744   8.385   5.526   9.858  0.0890  0.1395 -0.0263
 1545W        W 5745   8.547   1.942   3.347  0.0128  0.1732  0.1084
 1546W        W 5746   0.758   0.224  12.424 -0.3033 -0.0502 -0.0027
 1547W        W 5747   3.432   3.728   2.917  0.2502  0.2510 -0.2043
 1548W        W 5748   8.937   4.099   3.309  0.0267  0.0883  0.3327
 1549W        W 5749   5.359   5.514   0.879 -0.0162 -0.1169  0.0283
 1550W        W 5750   2.999   3.697  12.885  0.0310  0.4313 -0.0136
 1551W        W 5751   9.723   9.713  12.995 -0.0297  0.2264  0.0217
 1552W        W 5752   3.351   3.046  11.701 -0.1190 -0.0497  0.2903
 1553W        W 5753   1.242   9.523   0.616  0.0146 -0.1868 -0.0365
 1554W        W 5754   6.939   4.484   2.252  0.1502  0.1764 -0.2259
 1555W        W 5755  10.322   4.567  12.702  0.4495 -0.0350 -0.1036
 1556W        W 5756   7.162   5.728  11.712  0.1901 -0.0311 -0.1479
 1557W        W 5757   0.970   5.727   3.906  0.3069 -0.3184 -0.1939
 1558W        W 5758   7.197   6.096   0.295  0.0556 -0.1087 -0.1699
 1559W        W 5759   4.378   2.461   3.042  0.2914 -0.3088 -0.2957
 1560W        W 5760   2.722   8.742  12.953  0.0063 -0.2633  0.0305
 1561W        W 5761   1.241   6.445  12.226 -0.1409 -0.0724  0.2156
 1562W        W 5762   9.159   0.552  11.491  0.0950 -0.3429 -0.3456
 1563W        W 5763   1.776   2.575   1.679  0.2479 -0.0963  0.0301
 1564W        W 5764   0.860   2.756   0.186  0.2334  0.0538  0.1255
 1565W        W 5765   4.990   4.037   3.741 -0.0160  0.0688  0.1853
 1566W        W 5766   3.681   3.786  12.101  0.0716  0.0483 -0.0174
 1567W        W 5767   9.245   0.167   2.326  0.1194  0.1204 -0.0992
 1568W        W 5768   0.022   4.491   0.295 -0.0297  0.0506 -0.0259
 1569W        W 5769   4.819   2.034   0.715  0.1026 -0.0009 -0.0441
 1570W        W 5770   8.494   3.576  11.653 -0.2677 -0.1296 -0.0382
 1571W        W 5771   2.216   2.488   4.136  0.2959 -0.0268 -0.1313
 1572W        W 5772   9.631   3.364  12.779  0.0079  0.1378 -0.3343
 1573W        W 5773   9.501   6.514  13.306  0.0048 -0.0808 -0.0172
 1574W        W 5774  10.433   1.659   4.177 -0.0174 -0.1267 -0.0517
 1575W        W 5775   4.657   6.718   0.041 -0.1121 -0.1991  0.0920
 1576W        W 5776   9.563   9.969   4.164 -0.2055 -0.0278  0.1067
 1577W        W 5777   5.492   7.954   1.079  0.4193  0.2278 -0.1084
 1578W        W 5778   0.447  10.362  10.264 -0.0198  0.0027  0.3530
 1579W        W 5779  10.335   6.616  11.750  0.2233 -0.1642 -0.0224
 1580W        W 5780   4.921  10.090   1.880 -0.1678  0.2691 -0.3267
 1581W        W 5781   6.848   7.234   9.328  0.0848 -0.2014  0.1099
 1582W        W 5782   1.897   2.735   9.690 -0.0610  0.0444  0.1484
 1583W        W 5783   6.002   8.818   9.607 -0.0421  0.3642 -0.2023
 1584W        W 5784   7.004   3.301  10.792 -0.2924 -0.3295 -0.1424
 1585W        W 5785   4.601   7.795   5.207  0.2334  0.0293  0.0453
 1586W        W 5786   5.534   5.280  11.040  0.3333 -0.1816 -0.2928
 1587W        W 5787   8.028   9.783  11.357  0.0001  0.2146 -0.0290
 1588W        W 5788   2.925   5.653   3.545 -0.1258  0.3802 -0.0443
 1589W        W 5789   8.034   5.428   0.902  0.2215 -0.1418  0.1240
 1590W        W 5790   2.970   6.615   9.711 -0.1222 -0.0526  0.0192
 1591W        W 5791   3.105   8.703   2.082 -0.1299  0.1452  0.1122
 1592W        W 5792   5.393   0.607  13.385 -0.1005  0.1363 -0.0352
 1593W        W 5793   8.580   9.622  10.642 -0.2282 -0.1201  0.0890
 1594W        W 5794   9.877   2.443   1.293 -0.1390  0.2237 -0.2702
 1595W        W 5795   5.624   8.438  13.185 -0.0522 -0.1763 -0.2598
 1596W        W 5796   8.191   9.016   9.038  0.0540 -0.1482  0.0092
 1597W        W 5797   5.347   3.604  11.059  0.0370 -0.0383 -0.2447
 1598W        W 5798   4.258   8.165   1.951  0.0168  0.0902 -0.0077
 1599W        W 5799   9.873   7.073   1.628 -0.1356 -0.0698 -0.2088
 1600W        W 5800   7.784   8.423   4.002 -0.1787  0.0798 -0.1032
 1601W        W 5801   8.682   3.133  11.373 -0.2320  0.4541 -0.2429
 1602W        W 5802   2.210   1.575   9.981 -0.0073  0.2579 -0.1265
 1603W        W 5803   7.762   4.533  11.824  0.2032 -0.0176  0.2827
 1604W        W 5804   1.430   9.839  11.975  0.0030 -0.1370 -0.1560
 1605W        W 5805   7.584   9.036  10.774  0.1221  0.1679 -0.0383
 1606W        W 5806   4.479   7.021  13.003  0.0227 -0.0972  0.1128
 1607W        W 5807   4.156   4.505   0.523 -0.1030 -0.1880 -0.0727
 1608W        W 5808   2.517   0.734   3.812  0.1503 -0.3577 -0.0531
 1609W        W 5809   4.841   5.873  11.661 -0.0978  0.0308 -0.1264
 1610W        W 5810   5.137   8.371   2.976 -0.0015  0.0190  0.4607
 1611W        W 5811   1.742   1.775   8.873  0.5189 -0.0997 -0.0634
 1612W        W 5812   0.668   0.137   9.798  0.2736 -0.0904  0.0724
 1613W        W 5813   5.083   1.718   2.776 -0.1553  0.1161  0.1781
 1614W        W 5814   5.925   3.239   0.190 -0.2707  0.1174  0.0491
 1615W        W 5815   0.972   0.023  11.664  0.2129  0.0517 -0.1536
 1616W        W 5816   3.161   2.487   0.301 -0.1345  0.4844  0.0186
 1617W        W 5817   9.035  10.033   0.948 -0.2166  0.2057 -0.1087
 1618W        W 5818   4.373   7.407  10.220 -0.2458 -0.1955  0.0863
 1619W        W 5819   9.810   5.953   3.805 -0.0651 -0.3031  0.0548
 1620W        W 5820   2.738   7.872   1.194 -0.0820  0.0219  0.0573
 1621W        W 5821   8.254   6.492   0.483 -0.2055  0.1606  0.0416
 1622W        W 5822   6.683   4.911   2.127  0.0692 -0.3602 -0.0455
 1623W        W 5823   3.969   9.051   3.258 -0.2270 -0.2526  0.1151
 1624W        W 5824   7.787  10.247  11.531  0.0135  0.3064 -0.2872
 1625W        W 5825   8.288   7.644  10.934 -0.0725  0.1328  0.0948
 1626W        W 5826  10.167   6.571  12.590 -0.0245 -0.1115  0.3895
 1627W        W 5827   7.275   3.024  10.160  0.2093 -0.1576 -0.2057
 1628W        W 5828   6.744   2.549  12.174 -0.0453 -0.1188 -0.1635
 1629W        W 5829   1.636   5.210  11.446 -0.0340 -0.4412  0.0159
 1630W        W 5830   4.152   2.453  10.652 -0.2221 -0.0375 -0.1688
 1631W        W 5831   6.115   4.339   9.568 -0.0695 -0.1639 -0.0441
 1632W        W 5832   8.235   7.177   9.073  0.0818  0.1200 -0.1996
 1633W        W 5833   2.586   7.839   0.115  0.2090 -0.0120  0.1019
 1634W        W 5834   1.043   0.160  10.178  0.1005  0.1293  0.1797
 1635W        W 5835   6.077   5.532  11.629  0.2311  0.1148 -0.2585
 1636W        W 5836   0.986   9.968  11.214 -0.1682 -0.0299  0.1177
 1637W        W 5837   8.879   1.501  10.146 -0.0776 -0.3145 -0.0873
 1638W        W 5838   9.733   1.449  12.446 -0.1025 -0.1418  0.3379
 1639W        W 5839   2.580   7.176  12.204 -0.2317  0.0802 -0.3452
 1640W        W 5840   3.312   3.903   4.352  0.3590 -0.2484  0.1761
 1641W        W 5841   2.678   6.725  11.858 -0.1263  0.0619 -0.0383
 1642W        W 5842   6.787   5.519   0.799 -0.3303  0.1592 -0.0260
 1643W        W 5843   4.110   1.515  10.364 -0.1857 -0.1648  0.1430
 1644W        W 5844   4.387   4.542  11.438 -0.2170 -0.0610 -0.1852
 1645W        W 5845   0.800   3.566   4.908 -0.1317  0.1385  0.0306
 1646W        W 5846   2.927   0.107   2.412 -0.2824  0.5089 -0.0302
 1647W        W 5847   6.749   8.407  12.361 -0.0762  0.0259  0.1776
 1648W        W 5848   7.372   8.154   2.724 -0.2093  0.3528 -0.3349
 1649W        W 5849   5.032   0.452   9.260  0.3588 -0.1278  0.0030
 1650W        W 5850   1.769   2.260   4.020  0.0721  0.3136 -0.3781
 1651W        W 5851   0.683   9.535   2.688  0.4006  0.1906  0.1013
 1652W        W 5852   5.837   4.751   1.267 -0.2631  0.0901 -0.1287
 1653W        W 5853   0.596   0.961  10.163  0.0446  0.0216  0.1158
 1654W        W 5854   1.051   1.556   9.713  0.1166  0.1082 -0.1045
 1655W        W 5855   0.998   3.302  13.041 -0.3466  0.0124  0.2006
 1656W        W 5856   7.577   7.345   2.659  0.0279 -0.0591  0.1125
 1657W        W 5857   9.905   3.766   9.462 -0.1902 -0.0061  0.0062
 1658W        W 5858   7.902   5.244   1.375  0.0760 -0.0057 -0.1698
 1659W        W 5859   1.748   5.157  10.974 -0.0047 -0.1955  0.1711
 1660W        W 5860   5.916   6.880  13.159  0.1449  0.3193 -0.0118
 1661W        W 5861   1.872   8.248  13.453  0.0827 -0.2083 -0.3560
 1662W        W 5862   1.768   7.848  13.208  0.2216  0.1714 -0.2025
 1663W        W 5863  10.122   3.217   8.612  0.0812  0.1592  0.0981
 1664W        W 5864   0.021   9.521  12.733 -0.1521 -0.0702 -0.4461
 1665W        W 5865   5.202   1.995   3.279 -0.1812 -0.4363  0.0568
 1666W        W 5866   3.305   5.496   3.163 -0.0340  0.2572 -0.3375
 1667W        W 5867   6.845   5.731   2.885 -0.1555  0.2906  0.0918
 1668W        W 5868   6.626   4.237   1.406  0.1796 -0.0905 -0.0171
 1669W        W 5869   0.271   8.788   1.026  0.3765  0.2486  0.1949
 1670W        W 5870  10.445   1.604  13.187  0.0811  0.2899 -0.0102
 1671W        W 5871   8.634   7.560   9.476  0.0798 -0.0031 -0.3394
 1672W        W 5872   1.283   6.933  11.465 -0.4488 -0.0979 -0.2098
 1673W        W 5873   7.806   8.303   1.537 -0.1819 -0.1140  0.0185
 1674W        W 5874   8.926   7.100   4.159  0.2076  0.1106  0.0743
 1675W        W 5875   0.959   6.399   8.849 -0.0985  0.1461 -0.0702
 1676W        W 5876   3.541   9.684  10.184 -0.1228  0.1621  0.0019
 1677W        W 5877   0.716   1.679   2.584 -0.1714  0.0909  0.3740
 1678W        W 5878   2.590   2.160  12.962 -0.1948  0.0123  0.2249
 1679W        W 5879   0.674   8.541   8.260 -0.0636 -0.4020  0.1306
 1680W        W 5880   8.004   7.437   8.284 -0.0894  0.1674 -0.0472
 1681W        W 5881   3.968   3.578   0.404 -0.1705 -0.1214 -0.0245
 1682W        W 5882   4.063   3.770   1.909 -0.2442 -0.2238  0.2515
 1683W        W 5883   9.891   8.108   2.766 -0.2581 -0.4020  0.0292
 1684W        W 5884   1.949   5.988   0.010  0.0228 -0.0429  0.1486
 1685W        W 5885   8.245   5.207   1.705 -0.4378 -0.1014 -0.1618
 1686W        W 5886   2.860   5.270   1.825  0.0642  0.2549 -0.1493
 1687W        W 5887   3.182   1.578  10.497  0.4939  0.0568  0.2307
 1688W        W 5888   2.699   7.071   4.809 -0.1120  0.2670  0.3333
 1689W        W 5889   7.143   8.993   9.024 -0.1330  0.2907 -0.4978
 1690W        W 5890   6.718   2.017  13.032  0.3387  0.1634  0.1352
 1691W        W 5891   3.599   1.831  12.824  0.2724 -0.2430 -0.3255
 1692W        W 5892   3.757   7.957   0.776  0.2120  0.1274  0.1617
 1693W        W 5893   2.818   2.799  13.452  0.3648 -0.0010  0.2742
 1694W        W 5894   0.360   8.735   0.556 -0.2083 -0.0312  0.1204
 1695W        W 5895   4.723   3.053  11.809 -0.0531  0.0088  0.0971
 1696W        W 5896  10.468   3.661   4.614 -0.0805 -0.1501 -0.0924
 1697W        W 5897   9.940   3.283   9.189  0.0711 -0.2177  0.4086
 1698W        W 5898   6.904   9.723   9.797 -0.1633 -0.0760  0.0458
 1699W        W 5899   0.287   1.920   0.446  0.1425  0.2801  0.3151
 1700W        W 5900   6.618   5.285  10.265  0.0806  0.1947 -0.0519
 1701W        W 5901   0.428   1.236   1.940 -0.0236  0.2030  0.2122
 1702W        W 5902   5.177   4.601   3.963  0.0274 -0.1275 -0.0457
 1703W        W 5903   9.907   7.027  12.580  0.2072  0.1853  0.0703
 1704W        W 5904   8.029   0.769  11.103  0.0344 -0.0292 -0.0354
 1705W        W 5905   7.659   2.396   0.308  0.0277 -0.1402  0.2629
 1706W        W 5906   6.053   3.674   2.109 -0.2316  0.2654  0.0581
 1707W        W 5907   8.465   2.980   0.781 -0.3155 -0.0133  0.1319
 1708W        W 5908   4.256   3.958   0.446  0.1348 -0.3909 -0.2230
 1709W        W 5909   3.280   1.776   2.735  0.0655 -0.1733 -0.5611
 1710W        W 5910   1.859   5.477  12.217  0.0254  0.3396  0.0787
 1711W        W 5911   7.785   6.467   3.748  0.0194 -0.0365 -0.1207
 1712W        W 5912   5.165   5.590  10.228 -0.0344 -0.0044  0.2388
 1713W        W 5913   0.666   8.383  10.867  0.0270  0.0677  0.2533
 1714W        W 5914   1.292   7.906   4.424  0.2538  0.0718 -0.0699
 1715W        W 5915   4.896   4.093   9.813  0.0596 -0.0359  0.1990
 1716W        W 5916   3.259   0.641  12.561 -0.3079 -0.0965 -0.1552
 1717W        W 5917   3.547   8.818   9.363  0.3194  0.1064  0.3469
 1718W        W 5918   1.376  10.037   3.230 -0.0528  0.1947 -0.0032
 1719W        W 5919   9.842   0.174   1.524 -0.1253  0.0952  0.2680
 1720W        W 5920   0.920   5.366   5.429 -0.0961  0.1832 -0.2038
 1721W        W 5921   1.544   2.582  12.865  0.0978 -0.0610  0.2104
 1722W        W 5922   9.978   7.035   1.041 -0.0525 -0.0632  0.1360
 1723W        W 5923   4.679  10.059  11.217 -0.1700 -0.2257  0.0121
 1724W        W 5924  10.073   4.635   0.992  0.0212  0.2727  0.3793
 1725W        W 5925   9.688   1.291  10.208  0.6160  0.1485 -0.3304
 1726W        W 5926   2.771   1.061   2.079 -0.0379  0.0638 -0.3680
 1727W        W 5927   6.190   6.797   2.656  0.0371  0.1067  0.1452
 1728W        W 5928  10.166   4.028   0.349 -0.0848 -0.1428  0.4084
 1729W        W 5929   9.572   2.751   1.606  0.1761 -0.0076  0.5819
 1730W        W 5930   3.820   8.371  13.130  0.1403 -0.2874 -0.0932
 1731W        W 5931   9.977   9.405   9.945 -0.1638 -0.0904  0.2072
 1732W        W 5932   9.930   4.601  10.611  0.2247 -0.1928 -0.3202
 1733W        W 5933   1.478   8.382   1.534 -0.1559  0.1360 -0.0515
 1734W        W 5934   6.424   4.094  11.850  0.0590  0.1624 -0.0935
 1735W        W 5935   2.711   0.927   5.423 -0.0011  0.2079 -0.0927
 1736W        W 5936   2.570   2.421   1.924  0.0557 -0.0506  0.0933
 1737W        W 5937   1.838   9.213   1.416 -0.1886  0.4120  0.4420
 1738W        W 5938   2.126   5.515   1.466  0.0902  0.2766  0.0657
 1739W        W 5939   6.010   5.814  10.689  0.1673  0.0934  0.1932
 1740W        W 5940   1.210   7.794  10.327  0.3992 -0.0202  0.2177
 1741W        W 5941   8.545   5.989   3.092 -0.0518  0.2401  0.1704
 1742W        W 5942   5.586   5.999  12.555 -0.1350 -0.1392  0.1151
 1743W        W 5943   5.403   4.116   9.792  0.0663 -0.2133  0.0910
 1744W        W 5944   2.284   1.616  12.175  0.0122  0.3805  0.1800
 1745W        W 5945   7.553   0.035   1.833  0.0143  0.1249  0.0989
 1746W        W 5946   2.221   8.805   4.619  0.1375  0.2222  0.1994
 1747W        W 5947   0.442   8.066  13.029  0.1993 -0.0544 -0.0416
 1748W        W 5948   2.968   9.043   4.043 -0.0106  0.1400  0.1766
 1749W        W 5949   6.543   6.850   3.027  0.3037  0.6098  0.0230
 1750W        W 5950   9.734   7.694   3.894 -0.1249  0.0568  0.1432
 1751W        W 5951   6.001   7.255   4.049  0.1424 -0.4965 -0.2669
 1752W        W 5952   0.190   5.031   1.064  0.2578  0.0306  0.0538
 1753W        W 5953   0.693   7.079   4.287  0.1138 -0.0087  0.2528
 1754W        W 5954   7.835   0.580   2.224  0.0752 -0.1955 -0.0026
 1755W        W 5955   4.532   4.103  11.637 -0.0891 -0.0466 -0.0314
 1756W        W 5956  10.253   8.477  12.124 -0.2758 -0.0667 -0.0244
 1757W        W 5957   0.191   0.290   9.678 -0.2813  0.2405  0.0184
 1758W        W 5958   5.353   6.294  12.914 -0.1110 -0.0493 -0.1940
 1759W        W 5959   8.789   1.545  10.614 -0.0750  0.2714  0.1389
 1760W        W 5960   6.902   9.599   2.399  0.1256  0.0947 -0.1037
 1761W        W 5961   3.380   3.503  13.069 -0.2120  0.0096 -0.2136
 1762W        W 5962   2.660   5.733  11.724  0.2750  0.3202 -0.0841
 1763W        W 5963   8.036   2.501   0.654 -0.0324  0.3212 -0.1603
 1764W        W 5964   7.464   9.941  13.342 -0.2566 -0.1757 -0.1437
 1765W        W 5965   9.479   7.774  13.144 -0.2949  0.1641 -0.3210
 1766W        W 5966   0.065   5.452   9.222  0.1918  0.2340 -0.1696
 1767W        W 5967   2.486   9.849   1.906 -0.1786  0.0131  0.1205
 1768W        W 5968   6.961   4.413   1.738  0.2212  0.0032 -0.0631
 1769W        W 5969   4.346   7.300   0.047  0.1033  0.2233  0.2482
 1770W        W 5970   9.831   8.722  10.292  0.0351 -0.0566 -0.1158
 1771W        W 5971   0.413   3.159   2.640 -0.2276 -0.1747  0.1346
 1772W        W 5972   7.576   6.067  12.572  0.1001  0.1377 -0.1385
 1773W        W 5973   2.466   2.057   2.289 -0.0585 -0.0159  0.0736
 1774W        W 5974   5.957   7.007  12.582 -0.0504  0.0073  0.0132
 1775W        W 5975   4.580   6.426   2.716  0.0516 -0.3327  0.1294
 1776W        W 5976   6.893   0.082  11.368  0.1957 -0.2763  0.1921
 1777W        W 5977   7.540   5.693   0.279  0.0656  0.0882 -0.0743
 1778W        W 5978   1.540   1.899  11.928  0.1282  0.1140 -0.1445
 1779W        W 5979   4.326   0.812   3.255  0.0976  0.3359 -0.0184
 1780W        W 5980   4.039   2.620   0.462  0.1471  0.1392 -0.0841
 1781W        W 5981   7.024   4.495   2.818  0.1378  0.5142  0.0628
 1782W        W 5982   4.034   6.277   9.742 -0.0496 -0.0665  0.0132
 1783W        W 5983   3.977   2.550  13.358  0.0896 -0.2444  0.1465
 1784W        W 5984   0.975  10.327   2.421 -0.4107  0.2536  0.0690
 1785W        W 5985   9.147   7.841   0.699 -0.0825  0.1598  0.1894
 1786W        W 5986   1.242   7.690  12.556 -0.1680 -0.0017 -0.1078
 1787W        W 5987   0.110   5.551   4.234  0.1956 -0.2764  0.0521
 1788W        W 5988   9.158   0.399   4.060  0.0715  0.2029  0.1375
 1789W        W 5989   3.586   3.937  11.592 -0.0728  0.0290 -0.1297
 1790W        W 5990   0.098   2.660   1.336  0.0911  0.0440 -0.0777
 1791W        W 5991   2.116   6.875  10.373  0.3246  0.2067  0.2726
 1792W        W 5992   3.102   1.950  10.148 -0.0742  0.1888  0.0385
 1793W        W 5993   4.754   5.653  12.866 -0.0329 -0.1493 -0.4143
 1794W        W 5994   6.818   9.359   2.910  0.2698 -0.4335  0.1706
 1795W        W 5995   3.503   7.149  12.178 -0.2088 -0.2821  0.3003
 1796W        W 5996   0.025   2.304  13.184  0.0219  0.1180 -0.2339
 1797W        W 5997   3.139   2.717   3.870 -0.0354 -0.1943  0.1264
 1798W        W 5998   3.107   6.564   3.330 -0.2229 -0.0334  0.1232
 1799W        W 5999  10.197   8.173   0.358  0.0470 -0.0434  0.1866
 1800W        W 6000   4.827   4.920  13.457  0.1761  0.1145  0.1415
 1801W        W 6001   2.186   9.343  12.907  0.1635  0.0955  0.2692
 1802W        W 6002   8.036   4.904   2.102  0.0594  0.2031  0.0045
 1803W        W 6003   6.598   5.060   0.881 -0.2187  0.1635  0.0419
 1804W        W 6004   7.338   7.121   0.994  0.1461 -0.1865 -0.4796
 1805W        W 6005  10.009   9.311  12.683 -0.1155  0.1957 -0.0957
 1806W        W 6006   4.889   7.718  10.909  0.1511 -0.1974  0.2502
 1807W        W 6007   8.112   9.733  12.251 -0.0655  0.0213 -0.1717
 1808W        W 6008   6.325   7.073  10.310  0.1418  0.1221  0.2851
 1809W        W 6009   2.813  10.036   9.431  0.0670 -0.1048 -0.5049
 1810W        W 6010   8.061   5.820  12.231  0.0148 -0.1836 -0.1323
 1811W        W 6011   5.262   1.626   2.137 -0.2403  0.1713  0.0132
 1812W        W 6012   0.975   7.415   0.790  0.2715  0.0623 -0.0506
 1813W        W 6013   3.758   0.160   0.936  0.3095 -0.1728 -0.1035
 1814W        W 6014   9.709   5.340   3.094 -0.0725 -0.0783 -0.0109
 1815W        W 6015   4.703   1.879  12.121  0.1632  0.2799  0.0987
 1816W        W 6016   3.504   1.827   3.765 -0.1842  0.2830  0.1802
 1817W        W 6017   5.406   6.450   4.707 -0.0638 -0.1978  0.0416
 1818W        W 6018   1.225   5.744   3.468  0.3561 -0.1554 -0.2904
 1819W        W 6019   2.291   5.752  12.196 -0.2667  0.1472 -0.3165
 1820W        W 6020   8.712   9.052  10.995 -0.3945 -0.0715 -0.0095
 1821W        W 6021   4.212   7.959   3.040  0.0860 -0.0669  0.0343
 1822W        W 6022   5.060   3.921  13.219 -0.3220  0.0999 -0.0190
 1823W        W 6023   8.159   5.200  13.140  0.1350  0.1383 -0.1526
 1824W        W 6024   9.733   9.664  10.308 -0.0330  0.0540 -0.2093
 1825W        W 6025   5.658   6.494   1.770 -0.1288 -0.1890 -0.0540
 1826W        W 6026   4.317   6.440   1.322  0.1909 -0.0258  0.3853
 1827W        W 6027   8.712   5.551   4.502 -0.2536 -0.0835 -0.3145
 1828W        W 6028   5.568   8.264   4.355 -0.3574 -0.0731  0.1530
 1829W        W 6029   8.962   4.114  11.439 -0.1675 -0.0230  0.1172
 1830W        W 6030   8.279   9.820  13.010 -0.0529 -0.0201  0.1054
 1831W        W 6031   3.443   7.627  12.388  0.3418 -0.2244  0.2660
 1832W        W 6032   8.424   3.234   0.221  0.2054 -0.0953 -0.0483
 1833W        W 6033   2.606   3.214  12.286  0.2363 -0.0311 -0.1754
 1834W        W 6034   9.838   9.531   4.098 -0.0217 -0.1106  0.0626
 1835W        W 6035   2.299   6.214  10.019 -0.3180 -0.0309 -0.1996
 1836W        W 6036   6.175   8.502   1.362 -0.2982  0.0495 -0.0039
 1837W        W 6037   8.071   6.023   2.964 -0.0016  0.2647  0.2643
 1838W        W 6038   1.808   9.747  12.345 -0.3229 -0.1747 -0.1605
 1839W        W 6039   8.623   6.790  10.797  0.0753 -0.3559  0.0220
 1840W        W 6040  10.188   4.802   3.239 -0.0027 -0.2127  0.0630
 1841W        W 6041   6.980   8.517   4.765 -0.2036  0.2536 -0.1192
 1842W        W 6042   3.307   1.819   2.226  0.2683 -0.1637 -0.0217
 1843W        W 6043   9.168   3.492  12.569  0.2477 -0.1033 -0.2163
 1844W        W 6044   8.521   6.459  12.972  0.3756  0.0853 -0.0671
 1845W        W 6045   2.490   4.663   5.149  0.1486 -0.0694  0.4242
 1846W        W 6046   9.239   9.060   0.742 -0.3654  0.1476 -0.1118
 1847W        W 6047   1.843   8.096  11.439  0.1168 -0.0503  0.0172
 1848W        W 6048   3.317   5.289  11.054 -0.3423  0.0936  0.0790
 1849W        W 6049   3.202   2.260   1.598 -0.3785 -0.2260  0.0890
 1850W        W 6050   5.329   2.212   0.543  0.4921 -0.5394  0.0750
 1851W        W 6051  10.067  10.468   9.064 -0.2000 -0.0861  0.0136
 1852W        W 6052   6.332   5.451  10.641  0.1154 -0.1032  0.0234
 1853W        W 6053   4.892   5.086  11.928  0.1177  0.0059 -0.2317
 1854W        W 6054   9.545   7.350   2.019 -0.0515  0.0373  0.1753
 1855W        W 6055  10.251   0.893  11.410  0.1726 -0.4618 -0.0485
 1856W        W 6056   2.804   3.205   3.321  0.0748 -0.1947 -0.0259
 1857W        W 6057   3.483   2.205   0.683 -0.3462  0.0728 -0.1741
 1858W        W 6058   5.120   4.465   0.392 -0.1736  0.2346 -0.0576
 1859W        W 6059   5.231   5.719   3.912 -0.1749 -0.1183 -0.2526
 1860W        W 6060   1.842   8.429   3.390  0.5244  0.3722  0.2375
 1861W        W 6061   9.090   3.485   9.276  0.0369 -0.3067  0.0450
 1862W        W 6062   5.057   3.277  12.825  0.2967  0.2723 -0.1092
 1863W        W 6063   1.381   8.271  11.273  0.1002 -0.2266  0.2825
 1864W        W 6064   7.455   2.167   1.291 -0.1102  0.0569  0.0766
 1865W        W 6065   1.466   6.310   4.504 -0.0451 -0.2811 -0.1571
 1866W        W 6066   8.003   6.608   9.517 -0.0391 -0.0839  0.2719
 1867W        W 6067   1.460   8.012   8.954  0.1191 -0.1784  0.0493
 1868W        W 6068   3.712   9.294   2.254 -0.4293 -0.1866  0.4215
 1869W        W 6069   7.123   3.247  11.738  0.0440 -0.0667  0.0108
 1870W        W 6070   1.031   1.090  12.315 -0.1050 -0.0855  0.0055
 1871W        W 6071   5.834   6.787   1.221 -0.1670  0.1504  0.0090
 1872W        W 6072   9.975   8.297   3.846  0.2500 -0.0824 -0.0643
 1873W        W 6073   4.845   2.451   4.073  0.0924 -0.1815 -0.0670
 1874W        W 6074   3.227   3.255   3.052  0.0148  0.2513  0.0818
 1875W        W 6075   5.651   2.190   0.221  0.1127 -0.0247 -0.0938
 1876W        W 6076   8.911  10.043  12.177  0.3250 -0.4702  0.0969
 1877W        W 6077   8.620   8.243   2.764  0.0701  0.1549 -0.1186
 1878W        W 6078   0.010   4.407   3.169  0.0469  0.2064 -0.2526
 1879W        W 6079   2.435   2.955   9.521 -0.0686  0.2450  0.0793
 1880W        W 6080   0.360   9.980  10.553 -0.0563  0.0250  0.1888
 1881W        W 6081   1.010   9.157   8.797  0.0019  0.2195 -0.2523
 1882W        W 6082   4.463   0.019  12.432 -0.3934 -0.2883  0.0336
 1883W        W 6083   0.002   5.264   3.773 -0.0798 -0.1258  0.2683
 1884W        W 6084   5.126   6.228  12.453  0.1510 -0.1208 -0.0518
 1885W        W 6085   5.183   0.958   1.580  0.1061 -0.1294  0.1922
 1886W        W 6086   5.273   9.694   3.096  0.1324  0.1865  0.1613
 1887W        W 6087   7.646   5.763   1.622  0.1245 -0.0163  0.0273
 1888W        W 6088   4.919   8.969   0.872  0.2665 -0.0708  0.0546
 1889W        W 6089   4.751   6.719   3.987  0.3137 -0.2180  0.1343
 1890W        W 6090   8.151   7.159  11.044 -0.2789 -0.0138 -0.2751
 1891W        W 6091   9.496   2.847   4.984  0.0310  0.2644  0.0662
 1892W        W 6092   5.644  10.317   0.674  0.1989 -0.2888  0.1337
 1893W        W 6093   0.242   1.491   0.210 -0.0952 -0.1332  0.0025
 1894W        W 6094   6.836   6.624   3.395  0.1245  0.0052 -0.0455
 1895W        W 6095   3.173   6.768  11.915  0.2356  0.2239 -0.0477
 1896W        W 6096   3.246   0.185   0.972 -0.0343  0.2436  0.0015
 1897W        W 6097   4.369   9.477   9.116 -0.1152 -0.3341  0.0129
 1898W        W 6098   1.355   3.657  13.408 -0.1249  0.1270  0.3587
 1899W        W 6099   4.613   2.564  11.701 -0.2693  0.2710  0.2290
 1900W        W 6100   8.819   1.154   2.989  0.2563 -0.0645  0.0830
 1901W        W 6101   2.106   5.339  10.042  0.1293 -0.4157  0.0716
 1902W        W 6102   1.903  10.098   0.255 -0.2653  0.1734  0.3891
 1903W        W 6103   5.898   9.022  11.311  0.0764  0.1898 -0.0177
 1904W        W 6104   9.825   3.591  10.395 -0.3749  0.0418  0.2800
 1905W        W 6105   2.001   3.888   9.533  0.0316  0.0978 -0.3082
 1906W        W 6106   9.965   3.213   3.384  0.0309  0.0180  0.1950
 1907W        W 6107   9.651   7.167   2.615  0.0963  0.0246 -0.0422
 1908W        W 6108   8.432   9.244   2.361 -0.1552 -0.3375 -0.1868
 1909W        W 6109  10.080   0.941   9.562 -0.1509 -0.1670 -0.1266
 1910W        W 6110   4.251   9.403  10.063  0.2386 -0.0654 -0.1598
 1911W        W 6111   5.271   1.086  12.553 -0.0866  0.0947  0.0920
 1912W        W 6112   4.529   8.780  12.211  0.0329 -0.1122  0.1568
 1913W        W 6113   7.420   9.538   0.140 -0.3021 -0.0585 -0.1051
 1914W        W 6114   6.382   0.318   0.798  0.0595  0.1295 -0.0291
 1915W        W 6115   9.201   3.398   2.005  0.2281 -0.0233  0.4021
 1916W        W 6116   9.580   5.748   3.400  0.0283  0.0789  0.1506
 1917W        W 6117   7.000   2.959   3.650 -0.0821  0.1118  0.0590
 1918W        W 6118   9.758   7.805   8.214 -0.1302 -0.2428  0.0423
 1919W        W 6119   7.148   2.561   1.054  0.1044 -0.1407 -0.2158
 1920W        W 6120  10.225   8.218   9.292  0.1207 -0.1816  0.2164
 1921W        W 6121   9.991   2.072  10.902  0.3226  0.0522 -0.3340
 1922W        W 6122   9.531   8.209  10.913  0.3275  0.2152 -0.1957
 1923W        W 6123   5.735   5.992   4.161 -0.1258 -0.2362  0.5997
 1924W        W 6124   2.138   4.740  10.958  0.1751  0.0542  0.0746
 1925W        W 6125   9.997   8.375  10.677  0.0872  0.1495  0.0520
 1926W        W 6126   9.894   4.957   9.713  0.0370  0.0255  0.1052
 1927W        W 6127   7.092   4.684   9.698 -0.1132  0.0506  0.0757
 1928W        W 6128   9.200   0.755   2.967 -0.1219  0.1890  0.1017
 1929W        W 6129   1.714   5.224  12.610  0.0862  0.3208 -0.1023
 1930W        W 6130   4.445   8.071   0.332  0.0282  0.1182 -0.0121
 1931W        W 6131   4.624   0.588  10.132  0.1688 -0.1317 -0.0644
 1932W        W 6132   1.566   6.459   2.249  0.0916 -0.3305 -0.2767
 1933W        W 6133   7.767   1.810  12.967  0.2788 -0.0903  0.1188
 1934W        W 6134   9.915   1.154   2.455  0.3566 -0.0999 -0.2540
 1935W        W 6135   4.207   1.543   3.094  0.1189 -0.1583  0.1088
 1936W        W 6136   0.686   2.655   9.187  0.0639 -0.4067  0.1002
 1937W        W 6137   8.109   2.171  12.825  0.1937  0.3154  0.0981
 1938W        W 6138   0.339   2.538   1.776 -0.0483  0.0815  0.1100
 1939W        W 6139   9.600   0.907   2.119  0.0445  0.1713 -0.2687
 1940W        W 6140   8.249   5.697  11.472  0.0823  0.2074  0.1208
 1941W        W 6141   9.834   1.905  11.530 -0.0453  0.2446  0.2489
 1942W        W 6142   0.262   9.751  11.851 -0.0800  0.3360 -0.0024
 1943W        W 6143   5.109   3.035   0.629  0.2859  0.6597 -0.1003
 1944W        W 6144   7.351   1.594  11.564  0.1473  0.1431 -0.0402
 1945W        W 6145  10.220   5.153   2.866 -0.0048  0.0308 -0.6675
 1946W        W 6146   4.961   0.392  12.120  0.2711 -0.1306  0.0477
 1947W        W 6147   5.507   1.236  12.117  0.1012  0.0972  0.4637
 1948W        W 6148   5.063   1.414   9.730 -0.2962  0.1584 -0.3505
 1949W        W 6149   1.907   6.178  12.970 -0.2901 -0.1021  0.0835
 1950W        W 6150   0.026   7.172  11.835  0.1865  0.3135 -0.0944
 1951W        W 6151   9.504   7.796  11.212 -0.0394 -0.0195 -0.1964
 1952W        W 6152   3.933   0.373   1.895  0.0538  0.2539 -0.3538
 1953W        W 6153   0.392   1.103   9.283 -0.0646 -0.3980 -0.1408
 1954W        W 6154   8.505   9.067   1.457  0.3192 -0.1889 -0.1036
 1955W        W 6155   1.661   6.603  11.306  0.0689 -0.1945 -0.0497
 1956W        W 6156   4.433   5.192   3.920  0.0833  0.0819 -0.0601
 1957W        W 6157   4.031   1.915   3.919  0.0233 -0.0422  0.1104
 1958W        W 6158   7.215   7.124  12.065  0.0607  0.2377  0.0684
 1959W        W 6159   0.453   5.181  11.873  0.2990 -0.0287  0.0512
 1960W        W 6160   9.016   2.488   1.770  0.1487  0.1379  0.1348
 1961W        W 6161   5.262   8.632  12.486  0.0236  0.2871  0.2673
 1962W        W 6162   9.095   3.991   2.065 -0.0420  0.1644 -0.0751
 1963W        W 6163   3.874   7.085   2.933  0.1410 -0.2142  0.0402
 1964W        W 6164   1.509   8.923   2.891  0.2252  0.0443  0.0110
 1965W        W 6165   2.491   7.171  10.596 -0.0573 -0.0061 -0.1006
 1966W        W 6166   7.274   7.726  11.607  0.1058 -0.0415  0.4054
 1967W        W 6167   4.165   7.502   3.790  0.0347 -0.3368 -0.1693
 1968W        W 6168   8.421   2.267   1.767 -0.1696  0.0478 -0.0036
 1969W        W 6169   6.487   8.558   5.016  0.1247  0.0613  0.0016
 1970W        W 6170   6.092   2.638   2.470  0.0342 -0.0300 -0.2015
 1971W        W 6171   2.756   3.649   0.981  0.2796 -0.0362 -0.1745
 1972W        W 6172   3.920   0.030  12.509  0.0677  0.3505 -0.0170
 1973W        W 6173  10.187   3.343   9.606  0.0365 -0.1477  0.2991
 1974W        W 6174   0.647   3.962   2.535 -0.2325  0.0804 -0.0379
 1975W        W 6175   0.599   6.435  12.670  0.0839  0.0794 -0.2087
 1976W        W 6176   1.171   7.193   3.423  0.0429  0.1199 -0.0976
 1977W        W 6177  10.434   2.965   3.906 -0.1843 -0.1745  0.3485
 1978W        W 6178   0.812   1.982   3.853  0.2584 -0.1526  0.0261
 1979W        W 6179   1.099   9.989  12.574  0.2164  0.2464 -0.2554
 1980W        W 6180   0.455   6.270  10.428  0.1510 -0.0242  0.3768
 1981W        W 6181   2.416   8.222   1.470  0.2283  0.1413 -0.1102
 1982W        W 6182   1.169   1.929   2.915 -0.1664  0.1897  0.2309
 1983W        W 6183   8.333   7.234   3.487 -0.2114 -0.3373 -0.0857
 1984W        W 6184   7.487   1.152   3.506  0.0563 -0.0956  0.2296
 1985W        W 6185   5.724   9.887   4.655 -0.0850 -0.1326 -0.0266
 1986W        W 6186   7.125   3.952   1.533 -0.4146  0.3108  0.1083
 1987W        W 6187   5.403   5.876  11.130  0.0940  0.1054  0.2008
 1988W        W 6188   4.843   5.555   3.190  0.1505  0.3467 -0.3848
 1989W        W 6189   8.721   0.326   9.722 -0.1145  0.0956  0.1786
 1990W        W 6190   1.211   0.918  12.880  0.3174  0.0377  0.0127
 1991W        W 6191   7.689  10.352   3.405  0.0437 -0.0764  0.0709
 1992W        W 6192  10.369   7.060  12.486  0.0190  0.1360  0.0644
 1993W        W 6193   1.513   5.720   8.979 -0.1635  0.0970 -0.0051
 1994W        W 6194   5.966   6.098  11.836 -0.3912  0.2049 -0.1104
 1995W        W 6195   1.970   6.515  13.400  0.1034 -0.0923  0.2255
 1996W        W 6196   6.291   6.045  12.989 -0.2248  0.0634 -0.1024
 1997W        W 6197   9.403   3.774   9.456  0.0388  0.1371 -0.0436
 1998W        W 6198   0.091   8.401  10.874 -0.2545 -0.3173 -0.0936
 1999W        W 6199   8.648   4.004   2.419 -0.1064  0.1368 -0.0432
 2000W        W 6200   1.116   6.665   3.430 -0.1502  0.0815 -0.2640
 2001W        W 6201   4.630   6.417   8.977  0.0552  0.3088  0.1571
 2002W        W 6202   9.728   8.359   1.961  0.0365 -0.1817 -0.2346
 2003W        W 6203   7.868   5.728  11.134 -0.2843 -0.3664 -0.2579
 2004W        W 6204   7.858   6.745  11.291 -0.0915  0.1349  0.1951
 2005W        W 6205   9.003   8.938  11.432 -0.4293 -0.2667 -0.0093
 2006W        W 6206   2.104   4.121  13.010 -0.0140 -0.0927 -0.1043
 2007W        W 6207   8.456   4.737   3.564 -0.0210 -0.0190 -0.0075
 2008W        W 6208   0.081   3.936   3.352 -0.0920 -0.1934  0.0887
 2009W        W 6209   0.257   7.815   3.051 -0.0347 -0.0522  0.3078
 2010W        W 6210   4.151   3.363  11.830 -0.0953 -0.1279  0.0286
 2011W        W 6211   2.873   5.964   0.001  0.2943  0.2204  0.2512
 2012W        W 6212   6.991   9.833   0.052  0.1854 -0.2323 -0.0436
 2013W        W 6213   4.998   9.264   4.367  0.1002 -0.0936  0.1128
 2014W        W 6214   2.454   2.995   4.925 -0.0993  0.0700 -0.0669
 2015W        W 6215   9.834   6.654  11.637  0.3629  0.1119  0.0539
 2016W        W 6216   5.734   0.339   9.678  0.2388 -0.0238  0.0807
 2017W        W 6217   1.559   2.366  12.032  0.3039  0.1547 -0.0535
 2018W        W 6218   6.030   1.037   0.325 -0.0130  0.1108  0.0121
 2019W        W 6219   5.234   3.624   1.818 -0.3431  0.1988  0.2403
 2020W        W 6220   2.328   8.989   1.762 -0.0716  0.2965 -0.0413
 2021W        W 6221   9.070   2.835  12.146 -0.0650 -0.0561 -0.3230
 2022W        W 6222   3.487   1.179  12.441 -0.1247 -0.1764  0.0282
 2023W        W 6223   7.198   6.906  13.253 -0.2361  0.0589 -0.1809
 2024W        W 6224   6.076   2.509   1.890  0.0741 -0.1664  0.0171
 2025W        W 6225  10.331   1.836   0.152 -0.2283 -0.0208  0.1387
 2026W        W 6226   3.417   7.054   1.204 -0.1058 -0.2531 -0.4591
 2027W        W 6227   7.954   0.441   0.226  0.1907 -0.0772 -0.0709
 2028W        W 6228   9.059   9.267  12.411 -0.1050 -0.1281  0.1055
 2029W        W 6229   6.928   6.183   0.981 -0.0728  0.2195 -0.0231
 2030W        W 6230  10.270   8.426   2.957 -0.0395 -0.4404  0.1012
 2031W        W 6231   3.212   8.763  12.734  0.1907 -0.0352  0.1636
 2032W        W 6232   3.439   7.567   1.040  0.0964 -0.1015 -0.1429
 2033W        W 6233   8.164  10.399   9.887  0.1524  0.3061 -0.0948
 2034W        W 6234   9.842   4.451   3.970 -0.0939  0.0851 -0.2731
 2035W        W 6235   6.960   3.863  12.744 -0.4112 -0.1305  0.1107
 2036W        W 6236   1.271   8.057  13.433  0.0312  0.0229 -0.1224
 2037W        W 6237   4.013   6.053   1.479  0.0160 -0.1744  0.3432
 2038W        W 6238   8.281   9.821   9.421  0.2597  0.1115  0.0026
 2039W        W 6239   5.006   5.188   1.483  0.1769 -0.0914  0.1250
 2040W        W 6240   0.434   5.830   8.844  0.2300  0.0298 -0.1132
 2041W        W 6241   4.539   6.487   3.184  0.2717 -0.0624  0.0874
 2042W        W 6242   5.967   6.022   3.643  0.1737  0.3843 -0.5647
 2043W        W 6243   6.005   0.224  10.561 -0.1342 -0.2228 -0.1239
 2044W        W 6244   9.847   6.662  13.011  0.0046  0.0947  0.0224
 2045W        W 6245   2.819   7.868   2.449  0.0605  0.2861  0.1431
 2046W        W 6246   2.132   3.556  12.882  0.2057  0.1423  0.1361
 2047W        W 6247   0.161   5.123  13.342  0.0150 -0.1161  0.1188
 2048W        W 6248   9.173   7.316   2.496  0.2499  0.1978 -0.1187
 2049W        W 6249   3.345   5.390   3.758  0.0518  0.1601 -0.1063
 2050W        W 6250   2.879   1.513  10.910  0.2890  0.0543 -0.0768
 2051W        W 6251   2.569   4.039   0.656 -0.2992  0.0110  0.3664
 2052W        W 6252   0.937   5.524   0.312 -0.1179 -0.0647 -0.2613
 2053W        W 6253   3.380   8.459   9.670 -0.0457  0.1508  0.1158
 2054W        W 6254   5.534  10.033   2.816 -0.0385 -0.3762  0.3015
 2055W        W 6255   7.795   4.164   2.582 -0.1526  0.0053  0.0067
 2056W        W 6256   9.986   0.009  12.518 -0.0385 -0.1360  0.1115
 2057W        W 6257   8.256   1.228  11.424 -0.1597 -0.1341  0.0806
 2058W        W 6258   0.383   9.369   8.860 -0.1915  0.0988  0.0949
 2059W        W 6259   8.130   9.132   4.519  0.0309 -0.2848 -0.2623
 2060W        W 6260   8.617   8.878  12.289 -0.0782 -0.1513  0.1209
 2061W        W 6261   1.245   0.478  10.976  0.0548 -0.0403  0.2229
 2062W        W 6262   5.639   7.709   3.554 -0.2489 -0.0750  0.0770
 2063W        W 6263   1.691   0.518   3.963  0.1162 -0.3771  0.1109
 2064W        W 6264   1.658   7.318   2.153  0.0239  0.0181  0.0034
 2065W        W 6265   0.735   8.819   2.678  0.0366 -0.0978 -0.1188
 2066W        W 6266   7.343   1.711   1.311 -0.1008  0.2852  0.0332
 2067W        W 6267  10.110   9.168   2.365  0.0397  0.1897 -0.3557
 2068W        W 6268   9.775   5.779   1.650  0.1205 -0.0576  0.2689
 2069W        W 6269   7.344   5.565  10.796  0.0371  0.2779  0.3686
 2070W        W 6270   4.774   5.465   9.621  0.0657  0.1149 -0.2929
 2071W        W 6271   0.261   3.194   4.620  0.0472 -0.0224 -0.4438
 2072W        W 6272   4.338   6.001  13.150 -0.0533  0.2987 -0.2277
 2073W        W 6273   9.391   2.353   2.030 -0.0380  0.1810  0.0961
 2074W        W 6274   4.587   9.222  10.439  0.2296  0.3827  0.3286
 2075W        W 6275   8.843   6.379  11.281 -0.0711 -0.0975  0.0702
 2076W        W 6276   0.887   8.420  11.405 -0.0226 -0.0963  0.3429
 2077W        W 6277   3.892   3.045  11.019  0.2992  0.1181  0.0206
 2078W        W 6278   7.234   5.950   1.759 -0.0673  0.0838  0.0889
 2079W        W 6279   3.892   8.872  12.372 -0.1987 -0.0350 -0.0333
 2080W        W 6280   6.948   7.655   9.147 -0.1417  0.1804  0.1119
 2081W        W 6281   4.062   3.874  11.809  0.1002 -0.0778  0.1833
 2082W        W 6282   0.651   9.671  10.330  0.0946 -0.1142 -0.0881
 2083W        W 6283   5.570   0.083   3.753  0.0296 -0.0047 -0.3349
 2084W        W 6284   0.524  10.174  11.990 -0.1357  0.1026 -0.1112
 2085W        W 6285   3.707   9.976  11.171  0.0604  0.4446 -0.0725
 2086W        W 6286   5.234   6.496   0.735 -0.2080 -0.0526 -0.2469
 2087W        W 6287   7.520   0.785  11.221 -0.1298  0.0451 -0.1262
 2088W        W 6288   5.881   7.911   0.523 -0.3198 -0.4433 -0.1527
 2089W        W 6289   3.497   8.987  11.061 -0.1200 -0.1202  0.1038
 2090W        W 6290   3.349   6.992   2.263  0.0331  0.5146 -0.1480
 2091W        W 6291   4.873   2.237  10.129  0.0425 -0.1509  0.2492
 2092W        W 6292   0.669   5.117   1.246 -0.1922  0.0928 -0.4276
 2093W        W 6293   1.564   3.243  10.469  0.4385  0.2004 -0.0990
 2094W        W 6294   8.253   0.704  11.570  0.0218  0.1248  0.1200
 2095W        W 6295   2.605   4.967  11.237 -0.1453  0.0439 -0.3046
 2096W        W 6296   6.063   4.815   2.871  0.3451 -0.0210  0.2874
 2097W        W 6297   7.221   2.581  10.403  0.0102 -0.0042  0.1343
 2098W        W 6298   9.290   4.301  11.071 -0.2701 -0.3592  0.1421
 2099W        W 6299   6.326   4.287  11.272  0.1360  0.0480 -0.0918
 2100W        W 6300   6.901  10.058   8.837 -0.0316  0.0223 -0.2451
 2101W        W 6301   4.365   9.674  13.340  0.1621 -0.1139  0.3425
 2102W        W 6302   8.145   6.707  11.702 -0.0813 -0.0923 -0.2859
 2103W        W 6303   4.952   0.560   2.507 -0.0789 -0.1106 -0.1754
 2104W        W 6304   5.940   5.752   9.791  0.1233  0.1345  0.0119
 2105W        W 6305   7.184   7.678   2.499 -0.2155 -0.0409 -0.2020
 2106W        W 6306   2.524  10.420  12.957 -0.3566 -0.0105  0.0431
 2107W        W 6307   0.061   7.599  10.859 -0.2130 -0.1144 -0.1826
 2108W        W 6308   5.537   4.578  11.892  0.0215 -0.2134 -0.0175
 2109W        W 6309   5.292   2.674   1.428 -0.2225  0.2336 -0.1448
 2110W        W 6310   1.351   2.738   0.260  0.1333  0.0522 -0.1175
 2111W        W 6311   1.681   0.796   4.390 -0.2073  0.2590  0.0802
 2112W        W 6312   7.983   2.540  11.539 -0.1287 -0.0012 -0.1364
 2113W        W 6313   2.361   4.845   8.543  0.0862 -0.1094  0.1581
 2114W        W 6314   0.885   2.457   9.965 -0.1918  0.2083 -0.0168
 2115W        W 6315   0.748   5.653   1.357  0.1276  0.0972 -0.2381
 2116W        W 6316   8.641   4.675  10.151 -0.0007 -0.0239 -0.3600
 2117W        W 6317   1.263   8.309  10.784  0.0142 -0.0513 -0.1447
 2118W        W 6318   2.089   1.114   1.231  0.1969 -0.0398 -0.4956
 2119W        W 6319   5.667   2.144  12.807  0.0759 -0.1478 -0.1043
 2120W        W 6320   0.099   9.333   3.179 -0.1728 -0.2565  0.0352
 2121W        W 6321   8.421   0.015   1.678 -0.1312  0.0710 -0.1262
 2122W        W 6322   2.654   7.895  13.039  0.1586  0.1433 -0.1536
 2123W        W 6323   4.560   8.500   4.656  0.1060 -0.0129  0.1915
 2124W        W 6324  10.171   5.423  13.297 -0.3109  0.5650  0.1538
 2125W        W 6325   3.300   6.514  13.414  0.1654 -0.1323 -0.1986
 2126W        W 6326   9.056   9.979   5.078  0.4802 -0.0587 -0.1084
 2127W        W 6327   2.795   6.112   9.646 -0.1127  0.1759  0.1627
 2128W        W 6328   8.922   2.031  12.531  0.1540 -0.3110  0.2356
 2129W        W 6329   7.403   8.250   9.527 -0.1592 -0.3350  0.3733
 2130W        W 6330   1.255   8.715  11.720  0.2799 -0.5763  0.2752
 2131W        W 6331   1.877   6.027  12.090  0.2361 -0.2514  0.0103
 2132W        W 6332   1.221   8.096   9.898  0.0344  0.0414  0.0126
 2133W        W 6333   7.304   7.808   8.192 -0.2421 -0.3773 -0.0778
 2134W        W 6334   0.027   5.638   2.952 -0.0973 -0.1959  0.3206
 2135W        W 6335   0.937   3.670  11.337  0.1393  0.1679  0.0540
 2136W        W 6336   6.465   4.870   3.557 -0.1921  0.0996 -0.1898
 2137W        W 6337   8.615   8.945   2.738 -0.0789 -0.3419 -0.1283
 2138W        W 6338   2.082   6.614   9.780 -0.0992  0.0794 -0.1126
 2139W        W 6339   0.977  10.306  12.187 -0.1042  0.0186  0.2457
 2140W        W 6340   0.551   0.404  10.217 -0.2870  0.0629 -0.0089
 2141W        W 6341   0.266   4.085  10.567 -0.3827  0.2660 -0.1427
 2142W        W 6342   4.667   9.020   9.773  0.1387 -0.0356 -0.3230
 2143W        W 6343   3.026   2.429   0.799 -0.1104 -0.0506  0.1150
 2144W        W 6344   4.038   6.015   2.073  0.0386 -0.1032  0.2532
 2145W        W 6345   1.552   2.981   1.344  0.0544  0.2203 -0.2622
 2146W        W 6346   6.719   3.605  12.374  0.2626  0.1468 -0.0062
 2147W        W 6347   6.073  10.259   2.192  0.0954  0.1827 -0.0566
 2148W        W 6348   1.658   6.979   0.368  0.2258 -0.1278 -0.2853
 2149W        W 6349   1.273   3.833   0.961 -0.0314  0.0794  0.0791
 2150W        W 6350   3.320   5.262  10.080  0.0839 -0.2497  0.2927
 2151W        W 6351   0.257   3.111   1.077 -0.2063  0.5562 -0.1491
 2152W        W 6352   5.599   5.456  12.595  0.0169  0.5038  0.2792
 2153W        W 6353   6.930   1.566  12.399  0.2785 -0.2180  0.0437
 2154W        W 6354  10.354   1.095   0.624 -0.0708 -0.1092 -0.1103
 2155W        W 6355   0.770   1.196   0.242  0.0953  0.0257  0.4731
 2156W        W 6356   1.435   9.690  10.980 -0.0175 -0.1091  0.0711
 2157W        W 6357   3.443   4.989   1.270 -0.1697  0.1768 -0.3769
 2158W        W 6358   4.004   5.533   3.014  0.3271  0.0930  0.0302
 2159W        W 6359   5.075   5.527  11.976 -0.1491  0.0805  0.0544
 2160W        W 6360   5.540   9.679  12.375 -0.4048 -0.0736 -0.0027
 2161W        W 6361   0.710   2.531   3.118 -0.0178 -0.0949 -0.3846
 2162W        W 6362   0.090   1.791   4.709 -0.0057 -0.0385  0.2167
 2163W        W 6363   2.561   4.182  13.394  0.1562  0.0504  0.0418
 2164W        W 6364   1.566   8.649   0.592  0.0538  0.5242 -0.2707
 2165W        W 6365   5.106   7.284  10.766  0.0535  0.3728  0.0261
 2166W        W 6366   9.564   6.356   4.713  0.3367  0.1972 -0.1633
 2167W        W 6367   8.388  10.374  12.489  0.0500  0.0088 -0.0863
 2168W        W 6368   3.725   3.267   3.734  0.2302  0.1222 -0.2005
 2169W        W 6369   0.592   6.796   2.242 -0.0314  0.0652  0.0047
 2170W        W 6370   8.146   3.111  13.170  0.0256  0.2088 -0.1035
 2171W        W 6371   1.023   9.055   2.979 -0.0395  0.0379 -0.3026
 2172W        W 6372   8.913   2.954   9.919  0.0659  0.0223 -0.0646
 2173W        W 6373   3.770  10.136   9.662  0.0054  0.2844  0.1131
 2174W        W 6374   5.400   7.916   5.061 -0.3908 -0.1475  0.1328
 2175W        W 6375   5.774   8.421   9.882  0.0108 -0.1864  0.2616
 2176W        W 6376   6.660   6.638  10.338 -0.2072 -0.0015 -0.0448
 2177W        W 6377   5.445   6.790  13.011  0.0950 -0.0440  0.2313
 2178W        W 6378   2.155   0.419   9.290  0.0835 -0.2218  0.4521
 2179W        W 6379   4.718   8.746   2.044  0.1646 -0.0553  0.1178
 2180W        W 6380   0.508   5.533  12.597 -0.2081 -0.2118 -0.0107
 2181W        W 6381   4.316   0.571   2.241 -0.1156 -0.1208 -0.2940
 2182W        W 6382   4.637   0.978   3.740  0.2921  0.6835  0.1673
 2183W        W 6383   5.072   7.136   1.323  0.2024 -0.2253  0.0411
 2184W        W 6384   1.962  10.116   1.667  0.3085 -0.2156 -0.1667
 2185W        W 6385   6.569   9.233   2.111  0.3335  0.1930  0.0121
 2186W        W 6386   2.656   7.956   8.753  0.1922 -0.1704  0.0287
 2187W        W 6387   7.730   1.077   2.372  0.1680 -0.3100 -0.2442
 2188W        W 6388   6.677  10.278   0.120 -0.2975 -0.0857 -0.2871
 2189W        W 6389   9.150   7.731   2.054 -0.1593  0.2908  0.2197
 2190W        W 6390   9.269   4.845  10.612  0.0174  0.1696  0.0047
 2191W        W 6391   2.223   3.306  11.621 -0.1643 -0.3398 -0.0801
 2192W        W 6392   1.273   0.515  12.491 -0.0990  0.1627  0.4455
 2193W        W 6393   6.310   7.358  12.424 -0.1138  0.1547 -0.3929
 2194W        W 6394   3.233   9.606   3.973 -0.1230  0.4370  0.0021
 2195W        W 6395   0.505  10.233  12.478 -0.2370 -0.1248 -0.0648
 2196W        W 6396   4.172   4.295  12.826  0.2520 -0.2128  0.0256
 2197W        W 6397   2.742   3.532   2.156  0.1596  0.0099 -0.1232
 2198W        W 6398   5.285   8.814   3.110 -0.1049 -0.0781 -0.1570
 2199W        W 6399   6.462   5.019   1.634 -0.0416  0.0917 -0.0075
 2200W        W 6400   6.685   3.220   3.404  0.3358 -0.0395  0.1226
 2201W        W 6401   4.137   8.393   0.697 -0.0115 -0.0235  0.1045
 2202W        W 6402   2.132   7.633   0.076 -0.3017 -0.0414 -0.1931
 2203W        W 6403   3.716   5.885   3.868 -0.0639  0.2650  0.2531
 2204W        W 6404   8.124   6.950   2.689 -0.1182 -0.0808  0.1579
 2205W        W 6405   3.503   7.554  12.869  0.0913 -0.1827  0.0987
 2206W        W 6406   4.083   9.007  10.263  0.0182  0.1318 -0.1155
 2207W        W 6407   9.089   6.489  12.228  0.0361  0.1487  0.0464
 2208W        W 6408   4.046   8.009  10.890  0.0393 -0.1798 -0.0852
 2209W        W 6409   5.817   6.884   3.661 -0.1011  0.2118  0.0002
 2210W        W 6410   8.832   3.012   3.161  0.3090 -0.2388 -0.1696
 2211W        W 6411   0.587   3.700  13.102  0.0790 -0.2408  0.1751
 2212W        W 6412   7.531   2.528  10.005 -0.0519 -0.2307 -0.0427
 2213W        W 6413   1.243   8.957  10.153 -0.3627  0.1559 -0.1423
 2214W        W 6414   5.912   1.305   0.725 -0.2014 -0.1359  0.0836
 2215W        W 6415   3.056   8.076   2.916  0.3277  0.2087 -0.2286
 2216W        W 6416   3.584   2.638   2.508  0.0747 -0.0981  0.0216
 2217W        W 6417   9.726   5.841  11.366 -0.1344 -0.2012  0.1591
 2218W        W 6418   1.652   9.881  10.602 -0.1345  0.0010 -0.2573
 2219W        W 6419   4.856   3.052   2.724  0.0360  0.0701  0.0149
 2220W        W 6420   2.869   1.955  10.593 -0.0148  0.1022  0.0123
 2221W        W 6421   2.517   0.932  12.165 -0.1316 -0.1439  0.1123
 2222W        W 6422   6.176   0.584   1.647 -0.2344 -0.0269  0.0283
 2223W        W 6423   5.060   3.302  11.507  0.0856  0.1835 -0.0081
 2224W        W 6424   2.280   5.155   4.254 -0.0634 -0.2654 -0.2635
 2225W        W 6425   7.907   3.627   1.307  0.2408 -0.0834 -0.1157
 2226W        W 6426   3.370   9.725   8.721  0.0491  0.0099  0.2400
 2227W        W 6427   7.943   5.362  10.230 -0.3096 -0.4247 -0.1689
 2228W        W 6428   3.808   0.515   2.402 -0.2575 -0.0132  0.4054
 2229W        W 6429   6.637   7.810  12.246  0.0095 -0.1470  0.2025
 2230W        W 6430   8.104   2.978  12.683 -0.2237  0.1136 -0.1898
 2231W        W 6431   9.623   8.276  12.586 -0.0566  0.3430  0.1098
 2232W        W 6432   5.367   4.318   1.734  0.0048 -0.2445 -0.4434
 2233W        W 6433   7.980   0.665  12.004  0.1838 -0.1152  0.3529
 2234W        W 6434   1.544   1.288  12.912  0.2430  0.1106 -0.0147
 2235W        W 6435   8.439   4.826  12.892  0.0774  0.0032 -0.1998
 2236W        W 6436   0.922   8.026  11.114 -0.2942  0.0909 -0.2785
 2237W        W 6437   4.173   1.326   9.880 -0.0568 -0.1642 -0.1354
 2238W        W 6438   0.734   3.103  10.595  0.1153 -0.0016 -0.2418
 2239W        W 6439   0.913   3.526  10.830 -0.1072 -0.0706  0.2522
 2240W        W 6440   0.687   8.050   1.270  0.3813  0.1558 -0.1447
 2241W        W 6441   0.422   3.751  12.265  0.2247  0.0747 -0.1744
 2242W        W 6442   7.218   7.514  13.420 -0.0159  0.1837 -0.1061
 2243W        W 6443   2.557   1.509   2.457 -0.1700 -0.0044  0.1385
 2244W        W 6444   1.511   2.141   4.479  0.4393 -0.3757  0.3422
 2245W        W 6445   9.911   6.480   9.687  0.1117  0.0876  0.1707
 2246W        W 6446   9.784   9.184  10.971  0.3434  0.0504 -0.0553
 2247W        W 6447  10.452   1.312   1.802  0.0138 -0.2152  0.0454
 2248W        W 6448   9.762   2.736   4.004 -0.0556  0.1272  0.1451
 2249W        W 6449   1.966   4.166   2.040  0.1513 -0.2029 -0.0832
 2250W        W 6450   7.646   9.253   3.276  0.2320 -0.2228 -0.1467
 2251W        W 6451   6.930   6.458   0.517 -0.1676  0.0264  0.1087
 2252W        W 6452   3.415   2.494   4.229 -0.1556  0.1925 -0.3981
 2253W        W 6453   7.795   5.750   4.261  0.0013 -0.1778  0.1734
 2254W        W 6454   3.366   8.793   2.469 -0.1492  0.3184 -0.2117
 2255W        W 6455   3.607   1.380   9.792 -0.2050 -0.1496  0.1278
 2256W        W 6456   3.916   0.545   3.016 -0.0746 -0.0201  0.2129
 2257W        W 6457   7.513   2.839   1.895  0.0020 -0.0439 -0.1252
 2258W        W 6458   9.348   6.186   3.715 -0.0706  0.1421  0.2645
 2259W        W 6459   4.750   8.832  11.715 -0.0385  0.3060 -0.4601
 2260W        W 6460   9.612   4.545   0.025 -0.0314 -0.2974  0.2526
 2261W        W 6461   8.391   0.256   1.075  0.2417  0.1862 -0.0810
 2262W        W 6462   1.463   7.048   1.491  0.1200 -0.1506  0.5095
 2263W        W 6463   6.154  10.114   0.901  0.0994  0.1337 -0.0091
 2264W        W 6464   9.013   1.531  11.914  0.0432 -0.0933  0.1440
 2265W        W 6465   3.843   5.079  13.110 -0.1939 -0.0537  0.2211
 2266W        W 6466   3.060   6.246   1.657  0.0704  0.0412 -0.1793
 2267W        W 6467   9.726   4.124   3.538 -0.0093  0.2230  0.3498
 2268W        W 6468   3.187   0.564  11.133  0.2461 -0.0983 -0.0746
 2269W        W 6469   8.152   0.963   1.877 -0.0461  0.0320 -0.0907
 2270W        W 6470   3.225  10.475   1.965 -0.0893  0.1545 -0.0983
 2271W        W 6471   1.208   6.860  12.008 -0.2224  0.1884 -0.0343
 2272W        W 6472   0.031   8.288   2.124 -0.1840  0.0800  0.4388
 2273W        W 6473   9.148   3.081  11.111  0.0590  0.1318 -0.1594
 2274W        W 6474   1.929   2.398  10.526 -0.2247 -0.0587  0.0960
 2275W        W 6475   8.985   4.452  10.460  0.1157  0.3339 -0.1457
 2276W        W 6476   3.600   7.652   9.946 -0.1685 -0.1542  0.0332
 2277W        W 6477   3.895   5.289  10.516  0.3823  0.0994  0.1546
 2278W        W 6478   2.058   1.285  11.401 -0.2026  0.0052  0.1866
 2279W        W 6479   8.556   0.960  11.093  0.1671  0.1033 -0.0659
 2280W        W 6480   2.836   7.608   3.670 -0.1500  0.2086  0.0808
 2281W        W 6481   0.666   3.311   0.397  0.0991  0.2741 -0.1398
 2282W        W 6482  10.267   1.322  11.028  0.1632  0.0286 -0.1562
 2283W        W 6483   2.791   7.777   9.592  0.2338 -0.2945  0.2233
 2284W        W 6484   7.894   7.645   3.746  0.4583  0.2806  0.2313
 2285W        W 6485   6.853   8.223   1.280 -0.1869 -0.1426 -0.2076
 2286W        W 6486   5.943  10.411   2.880  0.0920 -0.0758  0.0386
 2287W        W 6487   9.175   3.032  12.720  0.2068 -0.0227  0.3303
 2288W        W 6488   1.624   5.606   1.562 -0.0750 -0.0130  0.1722
 2289W        W 6489   0.035   4.590  13.213 -0.0173 -0.4201 -0.0140
 2290W        W 6490   5.962   4.515   3.278 -0.1490 -0.4275  0.1938
 2291W        W 6491   6.310   6.285  10.115  0.2531  0.0902  0.0087
 2292W        W 6492   6.953   6.214   3.786  0.0502 -0.3439  0.0715
 2293W        W 6493   6.095   7.887  12.341 -0.4867 -0.0554  0.0264
 2294W        W 6494   3.153   9.853   4.458 -0.0680  0.0313 -0.0513
 2295W        W 6495   6.158   9.360  10.507 -0.2393  0.1057  0.1275
 2296W        W 6496  10.040   6.337  12.141  0.1821  0.0397  0.0863
 2297W        W 6497   5.658   0.645   1.737 -0.2125  0.0766 -0.1432
 2298W        W 6498   6.929   0.221   1.340 -0.3957 -0.0592  0.1153
 2299W        W 6499   9.874   4.980  10.316 -0.0456  0.1413 -0.0020
 2300W        W 6500   8.891   5.602   1.332  0.0091  0.2249  0.0409
 2301W        W 6501   0.189  10.088  11.450  0.2457 -0.3111  0.3175
 2302W        W 6502   6.004   3.217   1.287  0.3687 -0.3225 -0.0288
 2303W        W 6503   3.669   0.407  12.358  0.1822  0.0002  0.0908
 2304W        W 6504   5.769  10.241   1.758 -0.0941  0.0540  0.1989
 2305W        W 6505   5.886   7.778   1.442  0.0805  0.1398  0.0785
 2306W        W 6506   6.740   0.678   1.506 -0.1458  0.0847 -0.0037
 2307W        W 6507   9.972   1.297   0.920  0.1158  0.0296 -0.3847
 2308W        W 6508   4.998   6.222   3.988  0.0502  0.1113 -0.3188
 2309W        W 6509   4.362   9.530   3.080  0.1113 -0.0698 -0.1124
 2310W        W 6510   0.825   6.916   4.765 -0.3743 -0.0770  0.0277
 2311W        W 6511   2.447   0.238   2.314  0.2490  0.0187  0.2044
 2312W        W 6512   9.323   6.485  11.023  0.0295 -0.0208 -0.0246
 2313W        W 6513   8.651   9.569  12.066 -0.2556  0.0426  0.1152
 2314W        W 6514   1.453   0.109   8.950  0.0917  0.0702 -0.1581
 2315W        W 6515  10.460   4.480   2.283 -0.1722  0.1864 -0.0202
 2316W        W 6516   5.167   7.338   1.824  0.0642 -0.1814 -0.0080
 2317W        W 6517   7.309   0.922   2.611  0.0736 -0.0843  0.5009
 2318W        W 6518   9.322   8.747   4.965  0.0651  0.0695 -0.0431
 2319W        W 6519   1.106   0.832   1.562 -0.2023  0.3458  0.0564
 2320W        W 6520   9.150   0.107  11.354 -0.3459 -0.1460  0.2999
 2321W        W 6521   1.538   3.904   2.420  0.3477  0.0179  0.1098
 2322W        W 6522   9.743   7.931  10.553 -0.0813 -0.5452 -0.2572
 2323W        W 6523   3.751  10.077  12.719 -0.6352 -0.2363 -0.0311
 2324W        W 6524   8.402   3.099   2.812 -0.0591 -0.0932 -0.2366
 2325W        W 6525   2.518   9.115   4.277  0.1796  0.2693  0.0753
 2326W        W 6526   2.248   5.316  12.558  0.2426 -0.1965 -0.3272
 2327W        W 6527   0.434   3.192   3.612 -0.0092  0.0441  0.2115
 2328W        W 6528   9.003   7.869  12.198 -0.0002  0.0778 -0.0826
 2329W        W 6529   0.842   4.538   4.262  0.1689 -0.1528  0.3390
 2330W        W 6530   8.271   3.752   2.246  0.0648 -0.1637  0.0735
 2331W        W 6531   4.799   6.913   2.659 -0.0444 -0.0549 -0.0246
 2332W        W 6532   9.297   8.309   0.138 -0.2252  0.0603 -0.2080
 2333W        W 6533   0.800   3.830  11.838 -0.0770  0.0243  0.1777
 2334W        W 6534   1.658   9.194  11.027  0.0133  0.0112 -0.0427
 2335W        W 6535   4.303  10.021   3.754 -0.1467 -0.0858 -0.2220
 2336W        W 6536   9.366   3.530   1.106  0.0628 -0.1384 -0.0204
 2337W        W 6537   1.072   6.821  10.644  0.0118 -0.0102  0.0836
 2338W        W 6538   8.133   6.131  11.757 -0.4302  0.1803  0.0192
 2339W        W 6539   9.516   7.390  12.471  0.1378  0.0624 -0.0867
 2340W        W 6540   9.087   1.962   3.050  0.1996  0.2063  0.1190
 2341W        W 6541   2.322   2.716  12.302  0.4439 -0.0225  0.1596
 2342W        W 6542   7.862   6.616   1.843 -0.0911 -0.1694  0.1509
 2343W        W 6543   6.295   7.652   9.636 -0.1103  0.2168  0.0618
 2344W        W 6544   2.881   5.073   2.432  0.3436  0.1176 -0.3098
 2345W        W 6545   1.517   3.877   1.919 -0.0321 -0.0756 -0.1468
 2346W        W 6546   3.069   1.964  12.896 -0.0284  0.4256 -0.0654
 2347W        W 6547   6.167   3.887   3.178 -0.3297 -0.1399 -0.1335
 2348W        W 6548   3.891   0.654   0.303  0.1258  0.3700  0.1176
 2349W        W 6549   7.704   5.836   0.802 -0.2004  0.2460 -0.3027
 2350W        W 6550   4.886  10.324   1.150 -0.0873 -0.0570  0.0946
 2351W        W 6551   8.870   8.715  13.263 -0.0962 -0.0067  0.0431
 2352W        W 6552  10.046   8.014   4.263 -0.0153 -0.3832  0.1398
 2353W        W 6553   3.759  10.415   1.987  0.0652 -0.4039 -0.1034
 2354W        W 6554   5.427   8.096  10.113  0.0125 -0.1281  0.3221
 2355W        W 6555   9.312   0.377   1.756 -0.3726 -0.0700  0.0822
 2356W        W 6556   8.246   6.733  10.346 -0.1741 -0.1385 -0.1895
 2357W        W 6557   7.258   7.064  12.732  0.1299  0.0070  0.1586
 2358W        W 6558   9.374   5.025   4.562  0.1722  0.4669 -0.1581
 2359W        W 6559   8.668   0.092  11.124  0.0791 -0.2294  0.0482
 2360W        W 6560   6.539   1.989   1.146 -0.3120  0.2389 -0.1646
 2361W        W 6561   5.489   2.759   0.622  0.0817  0.1049  0.1255
 2362W        W 6562   9.174   9.690  10.266 -0.1105 -0.1919 -0.2762
 2363W        W 6563   5.463   1.401  10.187  0.2802 -0.0618  0.0698
 2364W        W 6564   1.971   4.024   3.393  0.0690 -0.0299 -0.1300
 2365W        W 6565   1.164   9.713  10.548  0.2379 -0.1795  0.0022
 2366W        W 6566   9.288   6.504  10.138  0.0651  0.0817 -0.3200
 2367W        W 6567   7.368   6.304   0.778 -0.0217  0.1338 -0.1043
 2368W        W 6568   6.822   9.492   3.756 -0.2159 -0.5699 -0.1522
 2369W        W 6569   2.807   4.545   0.778 -0.2625  0.0153 -0.3080
 2370W        W 6570   3.003   2.718   1.262 -0.1343 -0.1338 -0.1410
 2371W        W 6571   2.079   0.803   1.636  0.0572 -0.1994 -0.2053
 2372W        W 6572   6.567   7.949   9.993 -0.3506 -0.0448  0.0665
 2373W        W 6573   2.095   6.855   9.350  0.1696  0.1982 -0.1972
 2374W        W 6574   7.857   3.656  11.965 -0.1637 -0.2732 -0.1522
 2375W        W 6575   8.964   1.220  11.478 -0.1802 -0.1469  0.1339
 2376W        W 6576   2.187   9.339   3.984  0.4997 -0.2525 -0.1149
 2377W        W 6577   2.988   1.899   0.846 -0.2273 -0.0197 -0.2914
 2378W        W 6578   5.679   4.980   3.703 -0.0272 -0.1101 -0.0329
 2379W        W 6579   6.876  10.420   2.558  0.0110 -0.3377 -0.0543
 2380W        W 6580   1.112   6.209   0.526  0.2680  0.2085  0.0833
 2381W        W 6581   9.137   5.038  11.639  0.0611  0.1808 -0.1518
 2382W        W 6582   7.290   3.887   3.944  0.0066  0.2076 -0.0249
 2383W        W 6583   3.606   9.226  10.084  0.1291  0.0450 -0.1278
 2384W        W 6584   8.582   2.172  11.617 -0.2045 -0.1504  0.0658
 2385W        W 6585   3.427   7.199  11.600  0.0123 -0.0081 -0.1105
 2386W        W 6586   2.046   8.416   3.854 -0.1125  0.0343 -0.0414
 2387W        W 6587   2.843   6.892   9.258 -0.2542  0.0499 -0.1592
 2388W        W 6588   0.386   8.404   4.365 -0.0491 -0.1305  0.1630
 2389W        W 6589   1.947   0.376  11.501 -0.0215 -0.0045 -0.1477
 2390W        W 6590   5.565   3.986  13.201  0.1192 -0.0980  0.2007
 2391W        W 6591   4.392  10.153   0.121 -0.0311  0.0456 -0.2568
 2392W        W 6592   0.036   9.824  13.193 -0.4139  0.0841  0.0373
 2393W        W 6593   2.769   5.977   0.468  0.2895  0.0314  0.3509
 2394W        W 6594   5.510   4.368  10.680 -0.3323  0.5760 -0.0482
 2395W        W 6595   6.079   5.919   0.024 -0.0324  0.1400  0.0686
 2396W        W 6596   5.217   9.670   2.603  0.1310  0.0267  0.1306
 2397W        W 6597   3.575   5.807   9.369 -0.1150  0.0756 -0.0751
 2398W        W 6598   0.022   1.062  12.420 -0.0723 -0.1274 -0.1998
 2399W        W 6599   7.324  10.107  11.264 -0.2096 -0.0208  0.2712
 2400W        W 6600  10.307   4.490  12.090  0.0557  0.2659  0.2610
 2401W        W 6601   8.110   7.635   1.031  0.0254 -0.1642  0.3594
 2402W        W 6602   1.676   4.077  11.143  0.1109  0.4506 -0.0406
 2403W        W 6603   3.813   2.484  10.286 -0.3376 -0.1552  0.2693
 2404W        W 6604   8.516   4.424   9.733  0.1140  0.4269  0.0960
 2405W        W 6605   5.041   2.293  12.079 -0.3811 -0.2896  0.0224
 2406W        W 6606   9.134   0.896  13.034  0.0641 -0.1262 -0.0585
 2407W        W 6607   8.190   7.962   2.413 -0.1619 -0.1435 -0.0793
 2408W        W 6608   8.622   5.566   3.418 -0.3006  0.0504 -0.0520
 2409W        W 6609  10.452   0.465   0.879 -0.0310 -0.3415  0.2451
 2410W        W 6610   8.916   7.875   4.874  0.0990 -0.1011  0.0088
 2411W        W 6611   8.158   2.071  11.757  0.2013  0.1895 -0.3815
 2412W        W 6612   7.757   4.443   8.884 -0.1415 -0.1842  0.3027
 2413W        W 6613   7.427   3.542   1.266  0.0243 -0.1915 -0.3330
 2414W        W 6614   8.761   3.277  12.427 -0.2524 -0.0639  0.1072
 2415W        W 6615   0.724   6.183   4.138 -0.3175  0.1850 -0.3453
 2416W        W 6616   8.998   7.011   4.687  0.0869 -0.2200 -0.0973
 2417W        W 6617   2.801   0.690  10.412  0.0199 -0.1105 -0.2322
 2418W        W 6618   7.104   0.404  13.204 -0.1118  0.1890  0.0605
 2419W        W 6619   4.051   3.475   3.339  0.0112  0.1714  0.0571
 2420W        W 6620   4.345   3.318   1.804 -0.0746 -0.1274 -0.3279
 2421W        W 6621   0.931   6.037   1.641  0.0913 -0.2303  0.0558
 2422W        W 6622   1.748   7.997   9.897 -0.1206 -0.0209 -0.2680
 2423W        W 6623   1.033   9.402   0.185  0.2583  0.2419  0.2055
 2424W        W 6624   7.338   3.172   0.675  0.0195 -0.1275  0.0644
 2425W        W 6625   0.883   0.963   2.974  0.4532  0.2249  0.2198
 2426W        W 6626   4.368   4.636   1.948 -0.1584  0.0851  0.1346
 2427W        W 6627   1.488   6.114  11.234  0.1906 -0.0274  0.0671
 2428W        W 6628   3.514   6.941   1.706  0.0222 -0.2316 -0.3127
 2429W        W 6629   9.545   8.135   4.135 -0.0027  0.1204 -0.3708
 2430W        W 6630   1.960   5.885   8.374  0.1722 -0.1553 -0.1016
 2431W        W 6631   4.558   1.928  10.423 -0.1927  0.3272 -0.2311
 2432W        W 6632   6.302   1.511   0.458 -0.3207  0.1761 -0.4377
 2433W        W 6633   1.915   8.219   1.361  0.0913 -0.0920  0.0244
 2434W        W 6634   3.781   0.824  12.008  0.1695  0.0635  0.3929
 2435W        W 6635   5.609   6.445   9.423 -0.0480 -0.2325  0.2622
 2436W        W 6636   0.662   3.940  10.948  0.2202 -0.0496 -0.1581
 2437W        W 6637   8.866   9.900   1.746  0.1909  0.1459  0.1987
 2438W        W 6638   3.559   0.619   9.547 -0.0521  0.0371  0.1747
 2439W        W 6639   8.693   7.541  12.020  0.0409 -0.1008  0.0720
 2440W        W 6640   8.694   5.518  10.853 -0.0151  0.0927 -0.0023
 2441W        W 6641   6.797   5.410   2.408  0.1251 -0.1237 -0.1722
 2442W        W 6642   1.733   3.713   3.694 -0.1401 -0.2207  0.0654
 2443W        W 6643   2.250   8.862   0.717 -0.2522 -0.1461 -0.1919
 2444W        W 6644   7.546   3.976  10.605  0.1652 -0.0392  0.2295
 2445W        W 6645   7.306   9.068   2.976  0.0172  0.1164  0.1175
 2446W        W 6646   3.203   9.260   0.231  0.0450 -0.1063 -0.0630
 2447W        W 6647   4.588   5.035   4.403 -0.0669  0.0023 -0.5268
 2448W        W 6648   2.978   5.976   2.130  0.0376 -0.1186  0.1303
 2449W        W 6649   3.329   6.554   1.351  0.0496 -0.4793  0.1516
 2450W        W 6650   9.123   0.745  12.493 -0.4146  0.2380  0.1769
 2451W        W 6651   5.864   6.402   8.681  0.0568 -0.1172  0.1540
 2452W        W 6652   9.032   8.264   2.317 -0.1126 -0.4220 -0.1628
 2453W        W 6653   0.509   7.898  10.826  0.1381 -0.1460  0.1401
 2454W        W 6654   1.232   7.761  11.996  0.0460 -0.0719  0.1686
 2455W        W 6655   5.650   8.482  11.534 -0.1763 -0.0522  0.1119
 2456W        W 6656   8.487   7.843   3.584 -0.0489 -0.1188  0.0904
 2457W        W 6657   8.569   4.097   1.894 -0.1409 -0.2569 -0.0392
 2458W        W 6658   2.628   2.671   3.938 -0.0487  0.1000  0.1997
 2459W        W 6659   9.971   7.545  13.386 -0.2821 -0.0592  0.2347
 2460W        W 6660   1.423  10.373   0.861  0.3969 -0.1899 -0.3209
 2461W        W 6661   6.364   8.156  11.983 -0.1052 -0.2313  0.0267
 2462W        W 6662   5.119   2.228   1.934  0.4796  0.2074 -0.0247
 2463W        W 6663   2.967  10.005   8.980  0.0883  0.0227  0.1723
 2464W        W 6664   3.233   3.226   3.574 -0.4832 -0.2920  0.2908
 2465W        W 6665   1.532  10.051   9.740 -0.0991 -0.3786 -0.3518
 2466W        W 6666   5.493  10.265   3.335 -0.2015 -0.0947 -0.1453
 2467W        W 6667   4.358   7.898  11.698 -0.1039  0.3390 -0.2100
 2468W        W 6668   6.317   2.577   0.719 -0.2117 -0.1742  0.0167
 2469W        W 6669   1.441   1.315  12.009 -0.0200  0.1511  0.0212
 2470W        W 6670   4.512   0.589  11.361  0.0083  0.0942 -0.2475
 2471W        W 6671   1.324   2.029   3.779  0.1346  0.1617 -0.1255
 2472W        W 6672   1.851   7.782   1.111 -0.0595  0.0473 -0.0769
 2473W        W 6673   5.932   5.591   2.001 -0.1130  0.3469 -0.1541
 2474W        W 6674   1.988   6.117   3.818  0.2173 -0.4105 -0.2928
 2475W        W 6675   7.928   1.427   9.958  0.0705 -0.4103 -0.1985
 2476W        W 6676   1.337   8.039  12.955  0.0297 -0.1914 -0.0417
 2477W        W 6677   4.182   0.290  10.851 -0.4255 -0.4219 -0.2335
 2478W        W 6678   5.616   2.547   2.675  0.1302 -0.2814 -0.1865
 2479W        W 6679   1.970   3.074   4.252  0.2118  0.1832 -0.2037
 2480W        W 6680   2.024   7.020  10.816  0.0458 -0.0397 -0.0331
 2481W        W 6681   5.550   5.530   2.917 -0.1481  0.0521 -0.1732
 2482W        W 6682   3.042   5.282   1.344  0.0442 -0.1093  0.2864
 2483W        W 6683   0.018   8.178   3.350 -0.0281  0.0063  0.4428
 2484W        W 6684   1.415   6.432  13.219  0.2872 -0.0203 -0.2117
 2485W        W 6685   9.015   3.316   2.812 -0.1586 -0.0819 -0.0578
 2486W        W 6686  10.176   9.552   3.676 -0.1337  0.1735  0.0343
 2487W        W 6687   3.756   4.973  10.073  0.0761 -0.0062  0.2079
 2488W        W 6688   8.103   7.617   9.287 -0.0113 -0.1394  0.3075
 2489W        W 6689   9.454   4.729  10.011  0.3594 -0.1124 -0.1966
 2490W        W 6690   5.260   4.709  10.327 -0.1701  0.0079 -0.2697
 2491W        W 6691   3.822   1.407   8.981  0.0588  0.0422 -0.1152
 2492W        W 6692   4.820   4.451   9.430  0.1812 -0.1883 -0.0117
 2493W        W 6693   3.245  10.060   2.444 -0.2151  0.0330 -0.0930
 2494W        W 6694   6.148   6.455   3.322 -0.2461  0.1227  0.0616
 2495W        W 6695   3.445   0.077  12.703  0.2373  0.0674  0.2249
 2496W        W 6696   3.250   2.768  12.696  0.0392  0.0262  0.0635
 2497W        W 6697   2.669   5.887   3.956  0.0162  0.0729  0.2598
 2498W        W 6698   2.719   8.781   0.413  0.1213  0.2063 -0.0566
 2499W        W 6699   6.091   9.691   0.520  0.0284 -0.1365 -0.2033
 2500W        W 6700   9.332   4.564  11.663 -0.1059  0.1528  0.0435
 2501W        W 6701   8.377   8.909  12.828  0.1397 -0.0371  0.0347
 2502W        W 6702   3.652   5.434   1.348  0.0010  0.2932 -0.2198
 2503W        W 6703   7.044   5.134   0.522  0.0511 -0.0692  0.0588
 2504W        W 6704   9.821   6.918  10.531  0.0445 -0.2293  0.0827
 2505W        W 6705   7.897   3.451  12.935  0.2513 -0.2722  0.3639
 2506W        W 6706   2.548   4.967   3.460  0.2647  0.1810  0.0545
 2507W        W 6707   2.512   7.645   3.229  0.0354 -0.1722 -0.0237
 2508W        W 6708   8.693   4.392  10.864  0.1679 -0.0811 -0.1972
 2509W        W 6709   9.888   1.743   0.795 -0.1998 -0.0980 -0.1461
 2510W        W 6710   4.939   8.528   9.737  0.0638  0.1445 -0.0746
 2511W        W 6711   2.421   5.415  10.454  0.1083 -0.0192 -0.0305
 2512W        W 6712   5.026   7.387   4.092  0.0046  0.1598 -0.0183
 2513W        W 6713   9.437   8.598   4.424 -0.0654 -0.1062  0.0221
 2514W        W 6714   4.512   8.207   9.793  0.1061  0.4577  0.4256
 2515W        W 6715   5.641   6.777   8.959  0.0954  0.0762  0.2105
 2516W        W 6716   6.077   5.710   4.874 -0.1121  0.2254  0.1961
 2517W        W 6717   2.683   2.617   0.470 -0.1556 -0.0067  0.1724
 2518W        W 6718   2.932   7.745   9.145 -0.2068  0.0292  0.1012
 2519W        W 6719   7.088  10.119  12.213  0.0694  0.3196  0.2976
 2520W        W 6720   8.177   0.053   3.332 -0.0693  0.0690  0.1438
 2521W        W 6721   6.041   0.414   3.637 -0.0054 -0.2425  0.2699
 2522W        W 6722   4.730   3.515  13.203  0.0450  0.1637  0.0941
 2523W        W 6723   0.206   7.110  13.150  0.2044 -0.2799  0.1530
 2524W        W 6724  10.227   6.646  10.048 -0.2085  0.4462 -0.2990
 2525W        W 6725   6.516   7.003   2.196 -0.2327 -0.0827 -0.0966
 2526W        W 6726   4.217   0.001   0.929 -0.3696  0.2426  0.1219
 2527W        W 6727   5.278   7.777  12.322  0.2454 -0.1555  0.1736
 2528W        W 6728   5.301   9.170   2.649 -0.0526 -0.0129  0.0953
 2529W        W 6729   6.701   5.299   1.323  0.0294  0.0031  0.0063
 2530W        W 6730   1.139   1.239  13.313 -0.0970 -0.1834 -0.1437
 2531W        W 6731   5.009   5.973  10.555  0.2615  0.2528  0.0954
 2532W        W 6732   4.138   9.102   4.224  0.0689  0.2079 -0.0346
 2533W        W 6733   9.774   6.162  12.840  0.3373  0.3400  0.0323
 2534W        W 6734   6.939   9.045   2.499  0.1104  0.1549  0.0861
 2535W        W 6735   4.745   5.385  11.143 -0.1088  0.0249 -0.0835
 2536W        W 6736   3.688   9.755   4.250 -0.1860 -0.3246 -0.1692
 2537W        W 6737   4.793   9.776   2.321 -0.3791 -0.0333  0.1327
 2538W        W 6738  10.014   2.833  10.062 -0.1038 -0.3231  0.0691
 2539W        W 6739   1.613   2.217  10.993  0.0256 -0.1745  0.3278
 2540W        W 6740   7.094   5.464  10.295 -0.0032 -0.0096 -0.0628
 2541W        W 6741   7.290   1.453   2.638 -0.2713  0.3773  0.1405
 2542W        W 6742   8.746   5.031   4.261  0.2118  0.0138 -0.1077
 2543W        W 6743   1.120   6.973   9.557 -0.1211 -0.0685 -0.0692
 2544W        W 6744   7.898   6.105  10.445  0.1471 -0.2994  0.0997
 2545W        W 6745   4.510   0.096   1.324 -0.0201 -0.2991  0.1415
 2546W        W 6746   0.143   2.738   2.231  0.2603  0.0766 -0.2703
 2547W        W 6747   1.696   3.075  10.007  0.1641 -0.1300 -0.3185
 2548W        W 6748   5.546   6.040   0.776  0.1728 -0.1662 -0.1292
 2549W        W 6749   4.466   9.240  10.933 -0.2302 -0.2129 -0.1648
 2550W        W 6750   8.750   2.292  13.453  0.0932  0.1679  0.0313
 2551W        W 6751   5.131   8.253   4.539  0.1123  0.0178 -0.2510
 2552W        W 6752   6.644   6.352  10.865  0.2228 -0.2531 -0.0100
 2553W        W 6753   6.396   0.600   0.400 -0.0352 -0.0552  0.0033
 2554W        W 6754   1.601   2.752   9.309 -0.0581  0.3215 -0.0994
 2555W        W 6755   3.952   4.168  10.693 -0.0470 -0.1096 -0.2981
 2556W        W 6756   7.990   2.151   2.646 -0.0390  0.1462 -0.1732
 2557W        W 6757   9.666   6.022   9.635 -0.0118 -0.0678  0.3302
 2558W        W 6758   1.470   6.132   1.600 -0.0180 -0.0152 -0.0613
 2559W        W 6759   3.333   4.313   5.200 -0.1958 -0.0973 -0.0355
 2560W        W 6760   7.835   0.707   2.737 -0.2754 -0.3281  0.0275
 2561W        W 6761   2.193   4.976  13.287  0.1274 -0.0799  0.2663
 2562W        W 6762   9.311   0.622   3.579 -0.2349 -0.1479  0.0153
 2563W        W 6763   5.049   5.726   1.536  0.0368  0.1375  0.3636
 2564W        W 6764   4.723   1.701   0.307  0.1956  0.0331  0.2592
 2565W        W 6765   4.127  10.475   1.659 -0.2047 -0.1659  0.4654
 2566W        W 6766  10.165   6.122   9.960 -0.0174 -0.0316  0.0675
 2567W        W 6767   6.676   9.881   1.346  0.3284 -0.0494 -0.0347
 2568W        W 6768   5.994   9.781   1.784  0.2597  0.3535  0.0722
 2569W        W 6769   6.787   8.093   5.013  0.1491 -0.0213 -0.4464
 2570W        W 6770   0.159   1.671   2.738  0.1379  0.2349 -0.1657
 2571W        W 6771   8.356   9.955   9.937 -0.0550  0.0813  0.0827
 2572W        W 6772   0.200   8.126   1.663 -0.1520  0.1591  0.2128
 2573W        W 6773   0.411   1.006  12.798  0.4027 -0.3625 -0.2737
 2574W        W 6774   2.673   4.431   9.657  0.3082  0.2645 -0.0280
 2575W        W 6775   6.116   5.115   3.385 -0.3446 -0.0250 -0.2692
 2576W        W 6776   3.862   4.579  11.074  0.1861  0.0166 -0.0513
 2577W        W 6777   9.243   9.736  13.307  0.0335 -0.0702  0.0594
 2578W        W 6778   5.890   9.360   0.981 -0.2222 -0.1880  0.1994
 2579W        W 6779   5.415   6.117   3.683  0.0632  0.0136 -0.1286
 2580W        W 6780   1.275  10.128   8.715  0.1003  0.0445  0.2348
 2581W        W 6781   7.007   1.901   2.633 -0.0265  0.4397  0.0070
 2582W        W 6782   8.019   9.149   1.363 -0.0185 -0.1772 -0.1386
 2583W        W 6783   9.741   0.951   4.322  0.0928  0.1996 -0.0685
 2584W        W 6784   3.848   4.158  13.207  0.0936 -0.0030 -0.0219
 2585W        W 6785   9.476   5.599   3.879  0.0017  0.0546 -0.1488
 2586W        W 6786   2.500   0.551   0.385 -0.5988 -0.2873  0.3407
 2587W        W 6787   9.966   6.661   4.040  0.4354  0.1253 -0.1775
 2588W        W 6788   9.350   4.287   1.646  0.1734 -0.2485  0.1801
 2589W        W 6789   6.509   6.381  12.039  0.0891 -0.3570 -0.1258
 2590W        W 6790   2.083   0.083   0.399  0.0871 -0.1422 -0.3224
 2591W        W 6791   6.178   1.665  12.311  0.0561  0.0777 -0.0137
 2592W        W 6792   9.982   3.169  13.243  0.1299 -0.2898  0.0511
 2593W        W 6793   2.805   8.457   8.840 -0.1026 -0.1294  0.0780
 2594W        W 6794   4.353   1.409  12.891  0.0636 -0.1938 -0.0121
 2595W        W 6795   7.336   3.524  12.760  0.2413  0.2055 -0.0703
 2596W        W 6796   8.295   5.236  11.115  0.0452  0.2841  0.2448
 2597W        W 6797   3.965   1.212  11.704  0.1246  0.2175  0.3135
 2598W        W 6798   9.066   9.326   3.474  0.3903  0.3206 -0.2366
 2599W        W 6799   6.774   1.416   2.775 -0.1007 -0.1011  0.0210
 2600W        W 6800   3.624   4.035   1.257 -0.1397 -0.1239 -0.1556
 2601W        W 6801   5.943   6.074  11.186 -0.0439  0.0180 -0.1358
 2602W        W 6802   4.374   2.572   9.690  0.0231 -0.2303 -0.0944
 2603W        W 6803   8.669   5.073  11.940  0.2773  0.0166 -0.4165
 2604W        W 6804   0.831   2.983   8.747 -0.3217 -0.1092  0.3195
 2605W        W 6805   4.667   8.281  12.725  0.0172  0.0276 -0.2910
 2606W        W 6806   5.076   9.331  10.172 -0.0093 -0.2276  0.0397
 2607W        W 6807   6.056   9.842  12.335  0.2392 -0.4072 -0.1517
 2608W        W 6808   4.621   2.587   0.361 -0.1080  0.0282 -0.1191
 2609W        W 6809   4.009   2.019  13.279  0.2647 -0.0586  0.3049
 2610W        W 6810  10.297   8.536  10.097 -0.2776 -0.1499  0.1887
 2611W        W 6811  10.304   3.912   2.776  0.3037  0.3361  0.2237
 2612W        W 6812   7.877   4.922  10.808 -0.2203  0.0194 -0.2180
 2613W        W 6813   7.781   7.044   9.040  0.2521  0.1155  0.1059
 2614W        W 6814   5.747   8.967  13.042  0.1334  0.2047  0.0758
 2615W        W 6815   3.515   5.426   2.715  0.0431  0.0384  0.1982
 2616W        W 6816   4.601   9.127  13.084 -0.1179  0.3504  0.0006
 2617W        W 6817   2.573   0.559   1.924  0.3235 -0.0673  0.1052
 2618W        W 6818   1.741   8.603   2.361 -0.0047 -0.0411 -0.0992
 2619W        W 6819   9.145   9.454   9.759 -0.2256 -0.0207  0.0482
 2620W        W 6820   9.920   8.597   0.198 -0.0553 -0.1484 -0.4522
 2621W        W 6821   5.172   8.559   1.908  0.0638 -0.1443  0.1456
 2622W        W 6822   7.623  10.445   0.034 -0.0254  0.1541 -0.0524
 2623W        W 6823   1.560   1.665   2.774  0.2242 -0.0067  0.0374
 2624W        W 6824   7.214   3.204   1.655  0.0041  0.0125 -0.3114
 2625W        W 6825   9.610   1.857   3.175  0.2527  0.0286 -0.0120
 2626W        W 6826   4.717   8.134   1.415 -0.2252  0.2933  0.1497
 2627W        W 6827   1.912   2.077   2.378 -0.0274 -0.1822 -0.1473
 2628W        W 6828   0.343   1.115   1.361  0.2783  0.1307 -0.2347
 2629W        W 6829   7.966   8.075   9.006 -0.1458 -0.3778 -0.0451
 2630W        W 6830   2.483   7.220   3.427  0.3277 -0.0464 -0.2272
 2631W        W 6831   0.409   8.827  10.835  0.1508 -0.2779 -0.1794
 2632W        W 6832   6.829   9.003   3.943  0.1869 -0.2760 -0.2331
 2633W        W 6833   8.005   6.385  13.436  0.0709  0.2569  0.0049
 2634W        W 6834   1.755   0.301  12.387 -0.4472  0.1291 -0.1541
 2635W        W 6835   5.997   1.741   2.303  0.0263  0.2935 -0.0273
 2636W        W 6836   2.162   8.482  11.082  0.1127  0.0977 -0.1148
 2637W        W 6837   3.976   7.217   9.829 -0.0872 -0.1297 -0.3236
 2638W        W 6838   0.813  10.175   3.437  0.1776 -0.0687 -0.5070
 2639W        W 6839   3.241   0.451   2.567 -0.1408 -0.1913 -0.1212
 2640W        W 6840   8.402  10.350   0.717 -0.1340  0.4286 -0.1669
 2641W        W 6841   5.611   9.507   1.860  0.0652 -0.0613 -0.0909
 2642W        W 6842   4.012   1.650   1.554 -0.1223  0.6223 -0.0834
 2643W        W 6843   6.386   4.597  11.712 -0.1957  0.1766  0.2212
 2644W        W 6844   1.381   8.177   3.534 -0.0152  0.0589 -0.1630
 2645W        W 6845  10.026   3.163   0.306 -0.1058 -0.0193  0.1066
 2646W        W 6846   8.708   4.673   9.313  0.0052  0.3595 -0.0142
 2647W        W 6847   8.385   1.674   3.714 -0.0075 -0.2878  0.0169
 2648W        W 6848  10.189   2.514   2.133 -0.2925  0.1200  0.1423
 2649W        W 6849   8.663   0.100   3.961 -0.0537 -0.2276  0.0601
 2650W        W 6850   9.002   8.169   3.572 -0.0227  0.0013 -0.0946
 2651W        W 6851   3.992   3.662   1.419  0.2808  0.1440  0.0822
 2652W        W 6852   4.741   6.767   1.363  0.1813 -0.2082  0.1879
 2653W        W 6853   4.296   2.832  11.903 -0.0171  0.1481  0.2410
 2654W        W 6854   4.472   7.710   2.684  0.1205  0.0317 -0.0252
 2655W        W 6855   3.682   3.559   9.858 -0.2091  0.0470  0.1705
 2656W        W 6856   6.018   9.047   3.361  0.1638 -0.1162  0.0582
 2657W        W 6857   3.429   2.168  10.492  0.0676 -0.0608 -0.0019
 2658W        W 6858   6.877   6.614   0.069  0.4032 -0.1084 -0.3308
 2659W        W 6859   6.668   6.082   3.298  0.2932  0.1631  0.3052
 2660W        W 6860   9.617   0.587   3.993  0.3497  0.2674 -0.0484
 2661W        W 6861   9.448   2.194   2.716  0.0673 -0.0003 -0.3280
 2662W        W 6862   5.620  10.377  10.813  0.3058 -0.0990 -0.2159
 2663W        W 6863   9.252   9.224   8.282  0.3439 -0.0542 -0.2178
 2664W        W 6864   9.576   2.876  10.852  0.1755 -0.1380  0.1406
 2665W        W 6865   1.782   3.563   9.236  0.1279  0.0854 -0.0772
 2666W        W 6866   6.375   2.315   1.529 -0.0416  0.1828  0.1918
 2667W        W 6867   2.890   8.978   8.794 -0.0412  0.2094 -0.3778
 2668W        W 6868   6.099   3.137   2.190  0.0098  0.2656  0.0084
 2669W        W 6869   7.884   5.314  11.388 -0.2654 -0.2088 -0.1574
 2670W        W 6870   0.370   7.087   3.016 -0.0777  0.2728 -0.0832
 2671W        W 6871   9.008   7.653   1.216 -0.0775  0.2089  0.1307
 2672W        W 6872   7.618   4.812   4.047  0.1864 -0.0575  0.0419
 2673W        W 6873   2.824   3.747   0.231  0.1019 -0.1254 -0.1057
 2674W        W 6874   9.974   3.136   2.792 -0.1785 -0.3913 -0.2628
 2675W        W 6875   8.946   9.770   2.756 -0.0113  0.1651 -0.1366
 2676W        W 6876   5.771   3.739  11.254  0.1047  0.1219 -0.1077
 2677W        W 6877   0.963   0.139  10.667  0.3173  0.0002 -0.0035
 2678W        W 6878   3.089   9.620   9.330  0.4720  0.1337  0.2910
 2679W        W 6879   5.087   1.083   3.620 -0.2496 -0.0896 -0.1202
 2680W        W 6880   2.817   9.496   0.823  0.1837  0.0675  0.1462
 2681W        W 6881   0.019   5.388  11.748 -0.0564 -0.2126  0.1684
 2682W        W 6882   3.791  10.053   2.361  0.0128 -0.1576 -0.2404
 2683W        W 6883   1.518   7.145   0.835  0.2124 -0.0028  0.0140
 2684W        W 6884   8.064   6.708   4.108  0.0938 -0.0206  0.0445
 2685W        W 6885   5.332   4.617  11.300  0.0155  0.0963  0.3004
 2686W        W 6886   4.644   8.596  10.594  0.1892  0.0306 -0.1179
 2687W        W 6887   3.083   0.951   2.645 -0.1012 -0.1847 -0.1949
 2688W        W 6888  10.169   3.037   2.274  0.0801  0.0087 -0.1864
 2689W        W 6889   7.918   8.590   9.003  0.0704  0.1892  0.0396
 2690W        W 6890   0.436   3.017   1.749  0.0969  0.2997 -0.4130
 2691W        W 6891  10.175   5.281   9.973 -0.2249  0.2062  0.0954
 2692W        W 6892  10.266   9.846   2.752 -0.2769  0.2348  0.2782
 2693W        W 6893   5.416   0.148  11.179  0.4984  0.2250  0.1453
 2694W        W 6894   2.487   1.330  13.392 -0.0680 -0.2398 -0.2205
 2695W        W 6895   5.792   9.234   3.796 -0.0690 -0.1623  0.0593
 2696W        W 6896   0.701   4.398   1.695  0.1795  0.1229  0.3188
 2697W        W 6897   9.280   8.347  13.082  0.3113  0.3221 -0.0210
 2698W        W 6898   1.580   8.121   9.441 -0.0081  0.2036  0.3788
 2699W        W 6899   9.218   3.820   9.923  0.2017  0.0660  0.2048
 2700W        W 6900   3.911   7.391  13.342 -0.0289  0.2092 -0.1038
 2701W        W 6901   1.925   6.315   0.943 -0.1964 -0.3960 -0.0185
 2702W        W 6902   1.170   1.282   1.957  0.2853  0.2367 -0.0058
 2703W        W 6903   5.731   7.019   2.689  0.0438 -0.0208 -0.0668
 2704W        W 6904   4.802   4.763  12.354  0.1287  0.0774  0.3267
 2705W        W 6905   7.028   6.760   2.792  0.0148 -0.0898 -0.1156
 2706W        W 6906   7.958   0.033   4.680  0.0378 -0.1107 -0.0581
 2707W        W 6907   5.353   5.656  13.121 -0.1176 -0.0802  0.3435
 2708W        W 6908   4.689   7.253   8.976 -0.1430 -0.1836  0.1531
 2709W        W 6909   6.912   6.591   4.255  0.0493 -0.0500  0.1604
 2710W        W 6910   7.728   7.952   3.353  0.1158 -0.1981 -0.0035
 2711W        W 6911   5.868   4.176   0.090  0.0698 -0.2025 -0.2780
 2712W        W 6912   2.514   6.317   1.010  0.0461 -0.4361 -0.0427
 2713W        W 6913   7.507   6.102   4.616 -0.0853  0.2120  0.2619
 2714W        W 6914   3.958   4.859  11.558  0.1474 -0.3184  0.0420
 2715W        W 6915   9.225   2.057   0.155 -0.3446 -0.0886  0.2691
 2716W        W 6916   1.371   4.580  11.991  0.0747  0.0968  0.3721
 2717W        W 6917   8.631   1.177   1.865  0.5614 -0.0836  0.1080
 2718W        W 6918   0.002   1.107   4.058 -0.0351 -0.2086  0.1134
 2719W        W 6919  10.021   9.983  13.392 -0.1902  0.0003 -0.0642
 2720W        W 6920   9.539   2.897  11.864  0.2409 -0.3533  0.0161
 2721W        W 6921   3.336   7.867  11.297 -0.0590 -0.0187  0.1139
 2722W        W 6922   1.511   1.754  11.003  0.2423  0.2338  0.0077
 2723W        W 6923  10.139   7.518   4.619  0.1008 -0.2850 -0.2227
 2724W        W 6924   3.646   8.570  11.989  0.0359 -0.1139 -0.1934
 2725W        W 6925   7.573   6.035  13.364 -0.1365  0.2036  0.1805
 2726W        W 6926   8.548   0.910   3.334 -0.4947  0.0754 -0.1461
 2727W        W 6927   0.955   0.778  10.486 -0.1619 -0.0868 -0.1352
 2728W        W 6928   4.235   9.155   8.709 -0.2350  0.2173  0.0080
 2729W        W 6929   2.396   3.610  10.573 -0.1265  0.0898 -0.1240
 2730W        W 6930   6.403   1.498   2.003  0.1948 -0.0483 -0.1613
 2731W        W 6931   4.357   4.299   3.687  0.1855 -0.1863  0.0365
 2732W        W 6932  10.131   5.470  10.461  0.0038  0.0206 -0.3214
 2733W        W 6933   4.879   0.827   9.690 -0.0552  0.1085 -0.1140
 2734W        W 6934   1.977   8.899   4.164 -0.0432  0.0429 -0.1889
 2735W        W 6935   9.748   9.853  12.079  0.3345 -0.1074 -0.0578
 2736W        W 6936   2.026   5.087   1.643  0.0459  0.0108  0.0242
 2737W        W 6937   1.234   0.580   3.809  0.0271 -0.0532  0.1136
 2738W        W 6938   5.589   8.501   1.539  0.3365 -0.1040  0.2352
 2739W        W 6939   4.949   2.768  10.468 -0.0543 -0.0789 -0.4509
 2740W        W 6940   9.078   0.182   2.866 -0.1672 -0.2120  0.1898
 2741W        W 6941   2.913   8.190  10.402 -0.1202  0.3428 -0.1272
 2742W        W 6942   3.388   3.062   1.148 -0.2464  0.0420 -0.0665
 2743W        W 6943   1.570   7.471   3.213 -0.0889 -0.0239 -0.0601
 2744W        W 6944   5.722   5.029   4.204  0.0958 -0.2157 -0.0206
 2745W        W 6945   1.532   6.344   3.601  0.5245  0.1219 -0.0802
 2746W        W 6946   2.709   9.597  10.336 -0.0794  0.2272 -0.3525
 2747W        W 6947   2.205   2.774   1.864 -0.0196  0.1041  0.1468
 2748W        W 6948   6.931   5.647   3.346  0.1962 -0.3103  0.1994
 2749W        W 6949   7.593   7.168   9.507 -0.5811  0.0305  0.0911
 2750W        W 6950   3.019   5.043   3.787 -0.0002 -0.0084  0.1582
 2751W        W 6951   1.014   3.204   2.462  0.2668 -0.1463 -0.2732
 2752W        W 6952   2.941   4.224   0.319 -0.0293 -0.2856 -0.0022
 2753W        W 6953   0.001   2.964   9.908 -0.1830  0.2914 -0.2604
 2754W        W 6954   8.728   1.640   2.907  0.3108 -0.2188  0.1190
 2755W        W 6955   4.166   0.624  11.771  0.0773  0.0376  0.0267
 2756W        W 6956   5.797   0.787   2.283 -0.1512  0.2119  0.2518
 2757W        W 6957  10.288   2.050   2.907 -0.0968  0.2321  0.0146
 2758W        W 6958   8.359   3.899  12.763 -0.0122 -0.1164 -0.0039
 2759W        W 6959   4.393   4.778   0.168 -0.1910  0.0740  0.0891
 2760W        W 6960   4.719   6.062   8.468 -0.0808 -0.0550 -0.2371
 2761W        W 6961   9.135   0.655   2.167 -0.1236  0.0710  0.2690
 2762W        W 6962   9.573  10.276  13.141  0.1716 -0.0956  0.0575
 2763W        W 6963   9.868   9.490   0.978 -0.1123  0.0238  0.5121
 2764W        W 6964   1.351   8.514  12.188 -0.0470 -0.0067  0.0942
 2765W        W 6965   0.370   7.841   9.725  0.2271  0.0650  0.0533
 2766W        W 6966   0.499   7.566  12.983  0.1818 -0.1872  0.0323
 2767W        W 6967   5.632   2.014   0.971 -0.1776  0.0439 -0.0633
 2768W        W 6968   9.349   7.421   2.988  0.3488  0.2022 -0.5014
 2769W        W 6969   0.185   2.065  10.923 -0.0013  0.0062 -0.5156
 2770W        W 6970   8.727   9.059   9.682  0.1642  0.1127  0.1834
 2771W        W 6971   7.343   5.835   3.021 -0.0508 -0.0334  0.2318
 2772W        W 6972   6.388   8.251   3.747 -0.2211 -0.0067  0.1190
 2773W        W 6973   9.414   5.478   1.457 -0.1864  0.1717  0.3798
 2774W        W 6974   8.163   4.211   0.581  0.1950 -0.1575 -0.1394
 2775W        W 6975   7.554   7.995   4.357 -0.2101 -0.2183 -0.1896
 2776W        W 6976   5.543   3.958  11.987 -0.1936  0.0100 -0.0574
 2777W        W 6977   0.801   7.157  12.055 -0.0870 -0.2081  0.3136
 2778W        W 6978   3.657   8.816   2.081 -0.1089  0.2139  0.1723
 2779W        W 6979   1.114   3.384  11.682 -0.4181 -0.0133 -0.0418
 2780W        W 6980   7.661   9.502   0.536 -0.0197 -0.0952 -0.0819
 2781W        W 6981   8.971   2.518  12.570  0.0258  0.1381  0.1806
 2782W        W 6982   3.817   6.592   1.230 -0.1310 -0.0501 -0.1894
 2783W        W 6983   8.716   7.880   2.275  0.0099 -0.1356 -0.1020
 2784W        W 6984   1.755   0.707   2.599 -0.2591 -0.2447  0.2507
 2785W        W 6985   1.804   3.446  11.908  0.0587 -0.1769 -0.0277
 2786W        W 6986   0.379   4.248  12.090  0.3045 -0.0161 -0.1280
 2787W        W 6987  10.004   0.011   2.023 -0.2059  0.1049 -0.1274
 2788W        W 6988   2.858   9.918   4.906 -0.3536 -0.0029 -0.0924
 2789W        W 6989   5.117   1.848   1.049  0.0058 -0.0011 -0.2572
 2790W        W 6990   7.251   7.068   4.239 -0.0070  0.1938  0.1351
 2791W        W 6991   1.965   6.047   8.865  0.2718 -0.0584  0.2435
 2792W        W 6992   8.841   6.209   4.022  0.1147 -0.2022  0.0424
 2793W        W 6993   8.628   1.474   0.397  0.6302 -0.0082 -0.1074
 2794W        W 6994   6.057   3.731   0.232 -0.0702  0.1800  0.3038
 2795W        W 6995   2.797   0.182  11.258  0.1026  0.1185 -0.2092
 2796W        W 6996   7.758   6.240   1.520 -0.1813 -0.0303  0.0872
 2797W        W 6997   8.363   9.765   0.934 -0.2252 -0.1502  0.1621
 2798W        W 6998   0.730   4.949  11.271 -0.0068  0.2750 -0.2120
 2799W        W 6999   2.926   2.248   4.104 -0.1541 -0.1421 -0.0785
 2800W        W 7000   8.956   9.474  11.216  0.2289  0.0353 -0.2995
 2801W        W 7001   1.659   7.561  10.151  0.1919 -0.1150 -0.1083
 2802W        W 7002   2.999   0.577   2.134 -0.1071  0.0553 -0.1374
 2803W        W 7003   4.636   7.332  10.660  0.1976 -0.2346  0.0422
 2804W        W 7004   6.499   0.705   3.031 -0.1195 -0.0329 -0.0205
 2805W        W 7005   9.758   6.448   8.310 -0.0799 -0.1545  0.0478
 2806W        W 7006   3.619   4.255   0.669  0.4006 -0.0703 -0.0652
 2807W        W 7007   4.562  10.196  11.697 -0.0127  0.1473 -0.0127
 2808W        W 7008   5.569   8.112   3.276  0.0932 -0.1778  0.2182
 2809W        W 7009   0.627   2.385   2.159 -0.0025 -0.2053 -0.1812
 2810W        W 7010   1.521   7.473   4.329 -0.0557  0.0532  0.0006
 2811W        W 7011   9.766   7.116  13.383  0.1350 -0.1609 -0.1509
 2812W        W 7012   8.117   2.682   3.996  0.1459 -0.0321 -0.0493
 2813W        W 7013   9.040  10.404   4.277  0.0312  0.2962 -0.1316
 2814W        W 7014   6.093   8.280   9.490  0.2493  0.1369 -0.0505
 2815W        W 7015   3.176   8.562  12.070  0.0778 -0.0391 -0.1534
 2816W        W 7016   9.571   9.615  12.506 -0.1520 -0.0334  0.2255
 2817W        W 7017   4.990   2.683   1.831 -0.0289  0.0337  0.1857
 2818W        W 7018   0.343   5.869   0.945  0.0870 -0.0537 -0.1684
 2819W        W 7019   0.948   2.848   4.059  0.0481  0.0134  0.1849
 2820W        W 7020   5.377   9.689   3.595  0.0965 -0.0867  0.0820
 2821W        W 7021   1.741   8.445  10.551  0.0721 -0.2144 -0.2203
 2822W        W 7022   1.328   9.669  13.017 -0.1726  0.3323  0.1548
 2823W        W 7023   8.078   8.218   1.111 -0.0447 -0.0400  0.0188
 2824W        W 7024   5.088   6.535  13.293  0.0131 -0.2871  0.0863
 2825W        W 7025   1.121   4.607  10.576 -0.0871 -0.0553  0.3935
 2826W        W 7026   4.624   1.299   3.284 -0.1746 -0.2958  0.1632
 2827W        W 7027   6.130   3.260   1.760  0.1631 -0.2521  0.3650
 2828W        W 7028   1.668   4.676   1.825  0.1047 -0.0995 -0.0803
 2829W        W 7029   7.419   7.526   4.539  0.2806 -0.0764  0.0754
 2830W        W 7030   8.291   2.885  10.609  0.0269 -0.0536 -0.0032
 2831W        W 7031   9.144   6.672   0.631 -0.5858 -0.4328 -0.0667
 2832W        W 7032   1.697   2.638   4.379  0.1416 -0.0010 -0.0956
 2833W        W 7033   9.756   7.021   9.636 -0.0250  0.1860  0.1519
 2834W        W 7034  10.005   3.247  12.313  0.0549  0.1477 -0.2053
 2835W        W 7035   5.940   2.569  12.013  0.0452  0.2278  0.2406
 2836W        W 7036   8.407   7.762  10.433 -0.1952 -0.1302  0.0761
 2837W        W 7037   8.153   0.500   3.153 -0.0736 -0.4936  0.2625
 2838W        W 7038   7.822   7.672  12.733  0.1087  0.1287  0.0959
 2839W        W 7039   5.397   9.711   9.366  0.0511  0.2285 -0.1981
 2840W        W 7040   7.662   4.013  11.668 -0.3344  0.0480 -0.3030
 2841W        W 7041   8.050  10.016   3.514  0.0229  0.1165 -0.1242
 2842W        W 7042   9.371   6.422   1.379 -0.1469 -0.2483 -0.1447
 2843W        W 7043   1.294   7.341   0.329 -0.1569 -0.0945 -0.1925
 2844W        W 7044   5.929   5.357   2.480 -0.0925  0.0158  0.0337
 2845W        W 7045   6.054   3.583  12.585  0.0874  0.1821 -0.0326
 2846W        W 7046   7.455   0.809  12.061  0.2431 -0.0857 -0.2735
 2847W        W 7047   7.537   6.174  10.013 -0.1940  0.3964 -0.3677
 2848W        W 7048   4.831   4.402  12.872 -0.0575  0.1790 -0.1446
 2849W        W 7049   6.008   7.215  13.442  0.1626  0.0401 -0.2499
 2850W        W 7050   0.717   0.378  11.106  0.2831 -0.0525 -0.0723
 2851W        W 7051   5.904   8.903   2.434 -0.2160 -0.0360  0.1081
 2852W        W 7052   9.954  10.240   1.222 -0.2871 -0.2078  0.2192
 2853W        W 7053   7.100   0.096   0.882  0.3257  0.0269  0.0081
 2854W        W 7054   7.705   5.061   3.101  0.0009 -0.0851 -0.0325
 2855W        W 7055   1.234   4.093  10.032  0.4779 -0.0880 -0.0444
 2856W        W 7056   8.685   0.919  12.376 -0.1016 -0.1495  0.0255
 2857W        W 7057   8.489   9.095  10.550 -0.3773 -0.3998 -0.0110
 2858W        W 7058   4.114   6.187   3.763 -0.1114  0.0130  0.2066
 2859W        W 7059   5.467   3.380   2.918  0.0609  0.0303 -0.0185
 2860W        W 7060   0.143   9.759   4.027  0.2433 -0.1773  0.3016
 2861W        W 7061   0.583   2.814   1.298  0.0744 -0.1219 -0.0338
 2862W        W 7062   9.641   7.834  12.290  0.1722 -0.2012 -0.1522
 2863W        W 7063   9.280   1.909   8.879  0.0289  0.1100  0.0450
 2864W        W 7064   1.039   4.566   8.555 -0.1232 -0.3424 -0.0518
 2865W        W 7065   1.146   8.350   9.427 -0.1709 -0.2371  0.0948
 2866W        W 7066   0.073   2.623  12.050  0.4444 -0.1478 -0.0716
 2867W        W 7067   9.449   6.042  10.447  0.0224  0.0238  0.1096
 2868W        W 7068   7.126   4.306  10.551  0.1361  0.1870 -0.2050
 2869W        W 7069   3.416   9.233   2.632 -0.1112 -0.3196 -0.0254
 2870W        W 7070   6.876   5.092   0.067  0.0897 -0.2371  0.2362
 2871W        W 7071   5.338   0.825  10.442  0.0264  0.1474  0.2666
 2872W        W 7072   7.371   2.619   2.340 -0.0206 -0.4059 -0.0986
 2873W        W 7073   2.803   6.466   0.656  0.1978  0.0282  0.3047
 2874W        W 7074   1.763   2.733   3.869 -0.2331  0.1547 -0.0066
 2875W        W 7075   1.909   8.049  11.973 -0.0209  0.2551  0.0873
 2876W        W 7076   9.595   0.897  12.323 -0.0931 -0.2013  0.1503
 2877W        W 7077   9.435  10.351   9.160 -0.1143  0.0488 -0.3674
 2878W        W 7078   8.855   8.213  13.442  0.0410  0.1683  0.3080
 2879W        W 7079   4.008   1.200  11.195  0.0583  0.2115  0.1032
 2880W        W 7080   9.300   8.237  12.107 -0.3224  0.1742  0.0043
 2881W        W 7081   8.833   2.582   2.196  0.0058 -0.2250 -0.0047
 2882W        W 7082   8.161   9.870  10.752  0.0298 -0.1921  0.0025
 2883W        W 7083   7.604   9.584   5.201  0.4315 -0.0998  0.0903
 2884W        W 7084   2.246   0.765   9.612  0.1539  0.2097  0.1149
 2885W        W 7085   2.580   4.014   3.289  0.0098 -0.1333  0.0036
 2886W        W 7086   1.006   7.204  10.993  0.3649  0.5944 -0.1476
 2887W        W 7087  10.167   4.176   0.839 -0.2341 -0.0287  0.1475
 2888W        W 7088   9.532   1.326  10.789  0.1307 -0.0657 -0.1700
 2889W        W 7089   2.369   9.868   2.368  0.0368 -0.0372  0.2002
 2890W        W 7090   1.826   4.620  13.322 -0.3804  0.2424  0.2777
 2891W        W 7091   8.459   2.460   3.518  0.1442 -0.1874  0.1857
 2892W        W 7092  10.052   3.684   0.729  0.1849 -0.2838 -0.3412
 2893W        W 7093   5.494   2.426  11.815  0.1129  0.0376  0.1056
 2894W        W 7094   5.955   1.760  12.737  0.0037 -0.2359 -0.0144
 2895W        W 7095   8.528   7.043   9.480 -0.3571  0.0724  0.0342
 2896W        W 7096   3.132   3.882   1.313  0.2622 -0.0066  0.3067
 2897W        W 7097   5.325   8.942  11.622 -0.0918  0.0355 -0.0745
 2898W        W 7098   3.755   8.742   4.452 -0.0007  0.2288 -0.0405
 2899W        W 7099   4.722   5.900   4.489  0.0031 -0.0412 -0.2294
 2900W        W 7100   6.249   2.158   9.779 -0.2349 -0.0082 -0.1234
 2901W        W 7101  10.314   6.894  10.479  0.2817 -0.1144  0.1348
 2902W        W 7102   9.896   8.753  12.746 -0.2340 -0.1845 -0.1343
 2903W        W 7103   9.742   6.334   1.727 -0.0345 -0.1058  0.1024
 2904W        W 7104   2.680   7.746   8.331  0.1059  0.0331  0.1135
 2905W        W 7105   0.520   1.196  10.625  0.1164  0.4520 -0.2250
 2906W        W 7106   2.722   9.886   3.554 -0.0468 -0.1860 -0.0189
 2907W        W 7107   8.905   6.103  11.699 -0.0657  0.1612  0.2105
 2908W        W 7108   9.630   0.316   9.882  0.1076  0.1112  0.4496
 2909W        W 7109   3.943   6.033  11.362 -0.1670 -0.0051 -0.1885
 2910W        W 7110   8.465   2.259   2.341 -0.0213  0.0109  0.0626
 2911W        W 7111   5.288   7.386  13.304 -0.2211 -0.1422  0.2043
 2912W        W 7112   6.863   4.618  13.216 -0.2580 -0.1330  0.0515
 2913W        W 7113   1.129   5.535   9.916 -0.3721 -0.0806  0.3423
 2914W        W 7114   1.230   4.479   3.318  0.1655 -0.1340  0.2573
 2915W        W 7115   6.963   7.156  10.267  0.3907  0.2216 -0.0012
 2916W        W 7116  10.042   3.640  13.018 -0.0176 -0.0314  0.0402
 2917W        W 7117   3.119   0.808   0.761 -0.0348 -0.3265  0.3197
 2918W        W 7118   4.326   8.576   1.084 -0.2899 -0.2777 -0.2218
 2919W        W 7119   7.384   7.761   3.030 -0.3172 -0.0316  0.0147
 2920W        W 7120   7.284   2.560  13.381 -0.1795 -0.0055 -0.0135
 2921W        W 7121   3.166   5.755   3.976  0.0104  0.0194 -0.1931
 2922W        W 7122   4.974   7.438   2.707  0.1865 -0.2433  0.1587
 2923W        W 7123   2.405   8.299   9.636 -0.2433 -0.3462 -0.0893
 2924W        W 7124   6.846   4.391   9.148 -0.1347 -0.2345  0.0817
 2925W        W 7125   5.814   3.958   4.124 -0.0902 -0.3276 -0.0137
 2926W        W 7126   7.616   0.738   0.526  0.3044 -0.0330 -0.0397
 2927W        W 7127   4.839   3.446   0.660  0.1182  0.1008 -0.3478
 2928W        W 7128   1.710   4.405  12.827 -0.0142  0.0328  0.0981
 2929W        W 7129   1.395   2.879   3.621  0.1021 -0.1586  0.0119
 2930W        W 7130   7.942   4.207  12.612  0.3799 -0.0738  0.0791
 2931W        W 7131   4.520   9.180   3.400 -0.3239  0.0867  0.1394
 2932W        W 7132   1.105   3.665   2.212 -0.1999 -0.2161 -0.2296
 2933W        W 7133   9.508   9.015   3.512  0.1779  0.0951  0.0438
 2934W        W 7134   2.964   8.120   4.552  0.5296 -0.0689 -0.0681
 2935W        W 7135   6.719   3.664   2.770 -0.2089 -0.0540 -0.0470
 2936W        W 7136   6.234   1.115  13.056  0.1421 -0.0645  0.0557
 2937W        W 7137   1.712   3.956  12.016  0.2399 -0.0522  0.0458
 2938W        W 7138   0.474  10.193   2.303  0.2435  0.3914 -0.1170
 2939W        W 7139   6.689   5.843   1.665 -0.0460 -0.0588  0.0480
 2940W        W 7140   4.590   6.521   9.841  0.0291 -0.2225 -0.1002
 2941W        W 7141   7.722   6.680  10.312 -0.2684  0.3044 -0.1176
 2942W        W 7142   1.290   8.975   9.676  0.3227 -0.0246  0.2533
 2943W        W 7143   8.043   1.209   0.971 -0.1907 -0.2889  0.1731
 2944W        W 7144   5.670   5.872   9.389  0.1668  0.0880 -0.0349
 2945W        W 7145   1.556   7.453   2.631  0.2561 -0.0342  0.0066
 2946W        W 7146   4.486   3.919   1.622 -0.1347 -0.1701 -0.0756
 2947W        W 7147   0.809   8.322  12.820 -0.1784  0.1892 -0.2055
 2948W        W 7148   9.085   2.271  11.687 -0.1098  0.0112  0.2347
 2949W        W 7149   2.057   9.811   0.682  0.2350  0.4659  0.0473
 2950W        W 7150   2.822   1.140   3.791  0.1620 -0.0219 -0.1761
 2951W        W 7151   7.559   7.799  13.215  0.2115  0.0369  0.2334
 2952W        W 7152   1.331   2.593  12.427 -0.0130  0.2162 -0.1939
 2953W        W 7153  10.022   0.461   0.008  0.1565 -0.0459 -0.0904
 2954W        W 7154   0.419   1.585   1.495 -0.0954 -0.0989  0.1569
 2955W        W 7155  10.200   2.376   4.915 -0.0151 -0.0173  0.0182
 2956W        W 7156   3.461   9.336  11.542 -0.3388  0.0881  0.2551
 2957W        W 7157   3.655   5.634  10.209 -0.2012 -0.0976 -0.0092
 2958W        W 7158   8.241   4.693  11.074 -0.2286 -0.1770 -0.1915
 2959W        W 7159   9.645   9.878   9.059  0.3519 -0.0513  0.1672
 2960W        W 7160   4.627   1.137  10.027 -0.2500  0.1698  0.0408
 2961W        W 7161   6.022   8.236  10.770  0.2104  0.1900  0.1013
 2962W        W 7162   2.484   6.596  13.296  0.1219  0.0917 -0.1405
 2963W        W 7163   9.996   9.127   3.328 -0.1302  0.0858  0.0937
 2964W        W 7164   7.069   5.178  10.700 -0.2656  0.4805  0.0946
 2965W        W 7165   9.991   1.267  12.029  0.1845  0.1332  0.0580
 2966W        W 7166   6.748  10.190   4.513  0.2928 -0.1673  0.0252
 2967W        W 7167   1.335   5.736   0.690 -0.0721 -0.1123  0.1723
 2968W        W 7168   7.517   8.658  12.720  0.2374 -0.4039 -0.2794
 2969W        W 7169   3.315   6.071  13.189 -0.0548  0.0046  0.2809
 2970W        W 7170   0.894   1.725   1.599 -0.0385  0.0374 -0.0238
 2971W        W 7171   3.873   4.177   0.255 -0.4555 -0.1090 -0.1498
 2972W        W 7172   1.462  10.025  11.381  0.0044 -0.0603 -0.1889
 2973W        W 7173   3.238   4.952   9.279 -0.2137  0.0021 -0.1304
 2974W        W 7174   0.567   4.180   9.977 -0.0376 -0.0429 -0.1982
 2975W        W 7175   2.466   1.079   4.210  0.0138 -0.0893  0.0828
 2976W        W 7176   6.139   2.229   1.082  0.0589  0.1359 -0.1929
 2977W        W 7177   8.581   6.906   2.468  0.0207 -0.1698  0.0203
 2978W        W 7178  10.400   6.014  10.815  0.3843 -0.0581  0.0777
 2979W        W 7179   1.813   6.530  10.189  0.3362  0.0282 -0.2638
 2980W        W 7180   1.741   5.498  10.577  0.0153  0.2561 -0.0096
 2981W        W 7181   3.033   4.243   3.142  0.0351  0.0826 -0.3057
 2982W        W 7182   3.332   4.636   2.521  0.0746  0.1524 -0.1123
 2983W        W 7183   3.791   7.376   0.720 -0.3139  0.0045  0.1848
 2984W        W 7184   2.568   4.521   3.256  0.1762 -0.1919  0.2787
 2985W        W 7185   5.563   5.606  11.704 -0.0270 -0.3779  0.0489
 2986W        W 7186   1.900   6.592  10.895  0.1583  0.0500 -0.1149
 2987W        W 7187   1.131   1.761  12.116 -0.1723  0.3773 -0.0322
 2988W        W 7188   7.723   9.472   2.279 -0.1679 -0.3233 -0.3615
 2989W        W 7189   9.697   0.490  11.435 -0.0187 -0.0223 -0.1207
 2990W        W 7190  10.252   7.764   3.156  0.1237 -0.0820 -0.1881
 2991W        W 7191   2.717   8.840   4.665  0.1225  0.1756  0.2260
 2992W        W 7192   9.558   1.004   3.256  0.2483  0.2810  0.0348
 2993W        W 7193   2.507   1.282  11.852  0.3164 -0.2164 -0.0254
 2994W        W 7194   9.866   0.908  11.709 -0.1534  0.2668  0.0126
 2995W        W 7195   0.605   1.736   9.525 -0.2409 -0.3310  0.1114
 2996W        W 7196  10.319   6.556  13.043 -0.1249 -0.4101 -0.0774
 2997W        W 7197   6.878   6.297   2.051 -0.3047  0.2263 -0.2425
 2998W        W 7198   5.981   6.395   2.835 -0.1240 -0.2471 -0.1223
 2999W        W 7199   9.234   6.840  10.511 -0.0792 -0.0515 -0.0770
 3000W        W 7200   9.258   5.788   1.007 -0.2247 -0.0126  0.1111
 3001W        W 7201  10.191   7.533  12.606 -0.2289 -0.1600  0.0705
 3002W        W 7202   4.155   7.037  10.464 -0.1031  0.3751  0.0679
 3003W        W 7203   0.860   9.796   2.268  0.1438 -0.1379 -0.0268
 3004W        W 7204   2.244   0.531   5.297  0.2076 -0.0652  0.2596
 3005W        W 7205   2.508   8.412  13.365  0.0925 -0.1381 -0.0753
 3006W        W 7206   8.814   5.389   0.791 -0.1559  0.1054 -0.3915
 3007W        W 7207   1.893   7.953   3.249  0.0071  0.0475 -0.0688
 3008W        W 7208   1.168   4.685   0.651  0.1412  0.0567 -0.0227
 3009W        W 7209   6.525   4.954  12.095 -0.0929  0.0391  0.2684
 3010W        W 7210   7.650   7.901   1.155 -0.2097  0.3179 -0.2013
 3011W        W 7211   1.402   0.902   9.329  0.0032  0.1469  0.0335
 3012W        W 7212   9.203   6.357   9.111  0.2247  0.1935  0.0736
 3013W        W 7213   9.457   0.400  13.232 -0.2334 -0.2257  0.1124
 3014W        W 7214   2.396   8.832  11.619 -0.1122 -0.3316  0.2922
 3015W        W 7215   6.630  10.222   3.969 -0.5003 -0.0659 -0.0225
 3016W        W 7216   8.340   2.742   2.407  0.4952 -0.1827  0.0709
 3017W        W 7217   2.442   1.445   1.039 -0.0608 -0.1562 -0.0511
 3018W        W 7218   2.902   5.227   3.239  0.1079 -0.3104 -0.3183
 3019W        W 7219   0.603  10.116   9.290 -0.1929  0.2534 -0.0607
 3020W        W 7220   9.570   0.059   4.474  0.1928 -0.0700 -0.2504
 3021W        W 7221   3.543   9.618  12.458  0.0795  0.1455 -0.0238
 3022W        W 7222   6.815   8.000   0.847 -0.0164 -0.2164 -0.0010
 3023W        W 7223   6.435   5.500  13.319 -0.4207 -0.0775  0.1855
 3024W        W 7224   0.136   4.378   1.639 -0.1113 -0.2034 -0.0334
 3025W        W 7225   2.320  10.167   0.915 -0.0726 -0.5356 -0.2455
 3026W        W 7226   8.732   6.595  10.339 -0.0430 -0.0655 -0.1791
 3027W        W 7227   4.257   3.286  13.327 -0.0916  0.3250  0.1225
 3028W        W 7228  10.078   0.864   3.990 -0.2156  0.3097 -0.0532
 3029W        W 7229   0.984   7.625  10.746 -0.3235  0.0113 -0.2496
 3030W        W 7230   6.575   0.476   1.909  0.0086  0.1602  0.2430
 3031W        W 7231   9.785   9.523  11.721  0.0699 -0.0133  0.0477
 3032W        W 7232   6.148   6.863   0.810  0.0341  0.0596  0.1081
 3033W        W 7233   0.426   6.658   3.226  0.2590 -0.3617  0.1216
 3034W        W 7234   2.092   9.043  10.752  0.0002 -0.1376  0.1393
 3035W        W 7235   5.775   4.346  13.045  0.2551 -0.1133  0.0599
 3036W        W 7236   7.944  10.388   1.522 -0.1857  0.2035  0.3043
 3037W        W 7237   1.401   2.291   3.330 -0.1066  0.1517 -0.3086
 3038W        W 7238   8.656   8.739   3.892  0.3564  0.0932 -0.0372
 3039W        W 7239   1.520   6.001  10.190 -0.1120  0.0271  0.1119
 3040W        W 7240   3.569   8.497  12.574 -0.1427  0.1282 -0.2527
 3041W        W 7241   8.372  10.237   3.783 -0.3516  0.1039  0.1343
 3042W        W 7242   4.083   8.258  12.701 -0.4052  0.1303 -0.1786
 3043W        W 7243   6.767   6.193   9.435 -0.3976  0.1339  0.0470
 3044W        W 7244   6.238   8.334  10.331  0.0495  0.0976  0.4296
 3045W        W 7245   9.208   4.774  11.188 -0.0079  0.1651  0.0950
 3046W        W 7246   3.313   5.120  12.999 -0.2067 -0.0958 -0.2657
 3047W        W 7247   0.254   6.530  10.015 -0.1605  0.1391 -0.0763
 3048W        W 7248   9.110   2.621  10.804 -0.0103 -0.3472 -0.2245
 3049W        W 7249   5.022   0.458  10.490  0.2550  0.0152 -0.2698
 3050W        W 7250   0.155   3.350  12.436  0.1622 -0.0184  0.3898
 3051W        W 7251   6.257   1.960  13.367 -0.4460  0.5304  0.1495
 3052W        W 7252   1.447   8.937   1.396  0.0378  0.2054  0.1165
 3053W        W 7253   0.142   6.734   9.222  0.2784 -0.2242 -0.0492
 3054W        W 7254   7.405   7.580   3.470 -0.3388 -0.0646 -0.1429
 3055W        W 7255   4.774   7.566   4.515 -0.0081 -0.1885  0.1824
 3056W        W 7256   8.600   3.070   4.358  0.0421  0.0019  0.0268
 3057W        W 7257   1.421   9.592   9.639 -0.2766  0.2087  0.0946
 3058W        W 7258   4.192   0.805  10.879 -0.2548  0.0293 -0.0257
 3059W        W 7259   9.216   1.000  10.358 -0.0769 -0.0566 -0.0964
 3060W        W 7260   2.273   8.457  12.383  0.2162  0.2093  0.2180
 3061W        W 7261   1.827   2.427  12.400 -0.4351  0.1024  0.0837
 3062W        W 7262   6.529   9.495  11.412 -0.0535 -0.0775  0.2326
 3063W        W 7263   5.212   9.252   9.048  0.1620  0.3415 -0.5463
 3064W        W 7264   7.372   1.553   3.148 -0.1983 -0.0331  0.0750
 3065W        W 7265   4.742   4.586   3.651 -0.0072  0.0851  0.0217
 3066W        W 7266   8.533   0.509  10.779 -0.0915 -0.2147  0.0020
 3067W        W 7267   3.124   7.671   3.231  0.2032 -0.0495  0.1271
 3068W        W 7268   2.176   3.137   9.852  0.0876  0.1773 -0.0216
 3069W        W 7269   8.693   0.610   2.753  0.1476  0.2550  0.3769
 3070W        W 7270   9.459   1.453   2.221 -0.1182  0.1046  0.0498
 3071W        W 7271   6.086   9.788  10.256 -0.2020  0.1619 -0.1980
 3072W        W 7272   4.022   5.554   1.758 -0.3541 -0.1991 -0.3406
 3073W        W 7273   1.810   7.365   8.786 -0.1056 -0.0439 -0.3072
 3074W        W 7274   4.526   1.068   2.370  0.1880  0.0397  0.1499
 3075W        W 7275   2.276   6.289   5.159 -0.4413  0.1555  0.0261
 3076W        W 7276   5.140   2.587   0.254 -0.1523  0.0097  0.3342
 3077W        W 7277   1.077   5.316   4.301  0.5924 -0.2933  0.0226
 3078W        W 7278   2.893   8.256   2.049 -0.3699 -0.0061  0.0760
 3079W        W 7279   4.978   1.307   2.435  0.0695 -0.1452 -0.1439
 3080W        W 7280  10.139   0.678  10.397  0.0105  0.0541  0.1516
 3081W        W 7281   4.521   0.834  13.024  0.3233 -0.1492  0.1699
 3082W        W 7282   8.144  10.362  13.217  0.2774 -0.1959 -0.0448
 3083W        W 7283   4.184   3.247   9.077  0.2016 -0.0351  0.2089
 3084W        W 7284   6.391   5.659   2.200 -0.2196  0.1292  0.4323
 3085W        W 7285   3.471  10.066   2.889 -0.3506  0.2547  0.1258
 3086W        W 7286  10.376   0.315  10.761 -0.0814  0.2849 -0.1511
 3087W        W 7287   3.609   6.665   3.749 -0.0025 -0.3611  0.1309
 3088W        W 7288  10.436   9.853   8.486  0.0799  0.1642 -0.2809
 3089W        W 7289   2.023   5.085  10.533 -0.3476 -0.0362  0.1713
 3090W        W 7290   6.414   5.686   1.141 -0.2289 -0.1140 -0.1369
 3091W        W 7291   1.024   3.115   1.466 -0.0798  0.0968 -0.3187
 3092W        W 7292   0.717   1.561  10.224  0.0494  0.1114  0.1651
 3093W        W 7293   4.251   0.980   0.001  0.1566  0.1374 -0.1960
 3094W        W 7294   8.410  10.042  12.014 -0.0021 -0.0047 -0.2206
 3095W        W 7295   7.620   2.341   1.774 -0.1455  0.0562  0.2065
 3096W        W 7296   2.415   5.820  12.708 -0.1340 -0.2102  0.1895
 3097W        W 7297   9.989   9.571   9.372  0.3348 -0.1211  0.2706
 3098W        W 7298   8.758   6.739   0.330 -0.1154 -0.0530  0.1953
 3099W        W 7299   8.081   7.269   9.616 -0.0283  0.0040  0.0708
 3100W        W 7300   8.431   6.474   1.686 -0.1740 -0.1153 -0.0696
 3101W        W 7301   4.742   3.723  10.304  0.2832 -0.2958  0.0261
 3102W        W 7302   3.948   9.370   3.643 -0.0715  0.0764 -0.1687
 3103W        W 7303   3.482   2.097  11.829  0.0087  0.4082  0.0725
 3104W        W 7304   9.017   9.443   1.968  0.2545 -0.3043  0.0438
 3105W        W 7305   8.338  10.190  10.392 -0.0376  0.0094 -0.2065
 3106W        W 7306   9.323   1.109   9.820  0.0367  0.0277  0.0043
 3107W        W 7307   7.302   6.267  11.667  0.2017 -0.1264 -0.0853
 3108W        W 7308   7.370  10.374   2.367  0.1953  0.0071  0.1215
 3109W        W 7309   1.349   9.480  12.302  0.3551  0.0321 -0.3456
 3110W        W 7310   6.216   7.682   2.468  0.0015 -0.0298 -0.1497
 3111W        W 7311   6.870   9.648  12.072  0.0255 -0.1137  0.0119
 3112W        W 7312   5.204   6.584   1.263  0.2652 -0.3575  0.0274
 3113W        W 7313   4.567  10.361   0.550  0.1215  0.1236 -0.1624
 3114W        W 7314  10.372   4.047   1.946 -0.1157  0.0404  0.0267
 3115W        W 7315   3.941   3.693   2.871  0.1200 -0.0544  0.2854
 3116W        W 7316   5.871   5.754  12.185 -0.1645 -0.4099  0.3021
 3117W        W 7317   8.144   4.837  12.018  0.0261  0.0709 -0.2165
 3118W        W 7318   9.065  10.204  10.384  0.3051 -0.2178 -0.0151
 3119W        W 7319   7.167   3.014   3.191  0.3572  0.0076  0.2666
 3120W        W 7320   8.441   1.113  12.948 -0.3314  0.0507 -0.1887
 3121W        W 7321   3.876  10.237   3.910 -0.1247  0.3731  0.1064
 3122W        W 7322   2.760   3.255   1.734 -0.0278 -0.2917 -0.1614
 3123W        W 7323   8.150   7.481   0.566 -0.0389 -0.1414  0.0877
 3124W        W 7324   5.357   2.150   2.835  0.1661 -0.0181 -0.0172
 3125W        W 7325   4.842   3.563   3.373  0.0193  0.1758  0.0380
 3126W        W 7326   8.421   7.759   2.797 -0.2279  0.0573 -0.1097
 3127W        W 7327   8.455   7.933   9.047  0.3194 -0.1395 -0.0546
 3128W        W 7328   5.073   0.739  10.898 -0.2247 -0.0196 -0.4426
 3129W        W 7329   5.681   2.811  11.682 -0.0030 -0.1373  0.2043
 3130W        W 7330   3.010   1.996  11.603  0.1189 -0.1730  0.1056
 3131W        W 7331   0.768   5.480   8.552  0.0884 -0.0279 -0.1533
 3132W        W 7332   0.446   6.881  11.838  0.2137  0.0985  0.0223
 3133W        W 7333   5.990  10.374   3.381 -0.0835  0.2462  0.0178
 3134W        W 7334   7.913   1.580  12.358 -0.1119 -0.3841 -0.0686
 3135W        W 7335   9.858   2.559  11.225 -0.1382  0.1498 -0.0619
 3136W        W 7336   0.138   6.067   3.453 -0.2470  0.2322  0.0345
 3137W        W 7337   7.207   1.032   9.542  0.1157  0.0852  0.1691
 3138W        W 7338   4.979  10.080  10.552  0.0593 -0.1989  0.0631
 3139W        W 7339   2.112   3.775   4.825 -0.0160 -0.2439 -0.1592
 3140W        W 7340   9.702   3.181   2.361 -0.2711 -0.1807  0.0958
 3141W        W 7341   4.839   5.966  11.099 -0.2110  0.3354 -0.1225
 3142W        W 7342   4.436   3.011   3.023 -0.3328  0.1085 -0.0507
 3143W        W 7343   5.512   7.092  11.700  0.1550 -0.0231 -0.1813
 3144W        W 7344  10.398   8.853   9.608  0.0205  0.0158 -0.1462
 3145W        W 7345   7.431   3.282  10.530 -0.0180  0.2081  0.1110
 3146W        W 7346   1.141   3.739   3.846  0.0962  0.0774 -0.1906
 3147W        W 7347   3.128   6.704   1.827  0.0530 -0.1398  0.0933
 3148W        W 7348   1.562  10.441  11.064  0.2179  0.1625 -0.0231
 3149W        W 7349   5.217   3.089  11.081 -0.3682 -0.0323 -0.3270
 3150W        W 7350   1.569   4.490   4.082  0.5095  0.0381 -0.2052
 3151W        W 7351   5.270   4.714  12.585 -0.2546  0.1293 -0.4063
 3152W        W 7352   4.834   0.724   3.331  0.2745  0.0517 -0.0597
 3153W        W 7353   7.367   5.035   9.457 -0.3618  0.2315  0.3142
 3154W        W 7354   2.036   9.025  12.450 -0.0925 -0.2286  0.1605
 3155W        W 7355   1.753   4.758   2.632 -0.0750 -0.0144 -0.0436
 3156W        W 7356   5.540   0.495  12.020  0.0539  0.2824 -0.1918
 3157W        W 7357   2.476   0.878   0.879 -0.1968  0.2995  0.0222
 3158W        W 7358   7.646   1.407  10.624  0.0526 -0.3828 -0.0878
 3159W        W 7359   9.923   6.718   4.541  0.3318  0.1696 -0.1048
 3160W        W 7360   0.495   8.533   1.388 -0.1657 -0.2105  0.3005
 3161W        W 7361   5.353   5.073  11.778  0.1243 -0.1425  0.1594
 3162W        W 7362   1.112   8.082   1.556  0.0874  0.4430 -0.2311
 3163W        W 7363   8.975   0.018   1.037 -0.1809  0.0600  0.2388
 3164W        W 7364   1.192   4.082  11.861 -0.1352 -0.0840  0.0880
 3165W        W 7365   6.748   5.382   1.864 -0.4439 -0.0515  0.0361
 3166W        W 7366  10.396   9.838  10.648 -0.0378  0.0134  0.0543
 3167W        W 7367   4.371   5.134   1.943  0.1272  0.0878  0.1297
 3168W        W 7368   5.471   1.734   0.109 -0.0901 -0.0317  0.1824
 3169W        W 7369   9.265   7.019   9.439 -0.0667 -0.1101 -0.0267
 3170W        W 7370   2.069   0.614   1.143  0.2768 -0.3746  0.0604
 3171W        W 7371   5.888   5.322   9.592  0.0359  0.2518 -0.0531
 3172W        W 7372   5.077   0.069  10.778  0.0016 -0.0612  0.0787
 3173W        W 7373   5.303   6.646   3.792 -0.3786 -0.0744  0.2226
 3174W        W 7374  10.069   0.394   3.870 -0.0967  0.4099  0.0484
 3175W        W 7375   8.447   3.786   3.025 -0.0034 -0.1152  0.0910
 3176W        W 7376   3.245   0.251   4.225  0.0013 -0.0546  0.2970
 3177W        W 7377   8.688   4.908   1.841 -0.0548  0.1981 -0.3044
 3178W        W 7378   2.262   3.239   1.669 -0.0828 -0.1138 -0.0965
 3179W        W 7379   3.277   8.735   0.271 -0.1505 -0.0325 -0.1746
 3180W        W 7380   5.513   2.496  10.810 -0.0929 -0.1020  0.0183
 3181W        W 7381   0.851   7.690   9.925 -0.0114 -0.1063 -0.2464
 3182W        W 7382   9.236   5.916  12.810 -0.1079  0.1452 -0.0588
 3183W        W 7383   4.919   5.292  10.506 -0.0875  0.1723 -0.3392
 3184W        W 7384   0.347   3.047  11.967 -0.2750  0.3435 -0.1784
 3185W        W 7385   4.998   7.053   3.712  0.1999 -0.3037 -0.1458
 3186W        W 7386   0.433   1.295   2.455 -0.1122 -0.0935 -0.1170
 3187W        W 7387  10.222   3.297  10.195 -0.0386 -0.1765 -0.3590
 3188W        W 7388   7.918   6.200   4.220 -0.4874  0.4123 -0.2594
 3189W        W 7389   3.231   8.535   2.862 -0.0292  0.1023  0.3470
 3190W        W 7390   0.266   3.722   2.801  0.0269 -0.1055 -0.2096
 3191W        W 7391   4.782   0.113   2.572  0.1391  0.2436 -0.0292
 3192W        W 7392   0.510   7.381  11.709 -0.1898 -0.1301 -0.0302
 3193W        W 7393   7.160   6.272  12.339 -0.3077  0.0313 -0.2106
 3194W        W 7394   0.456   5.818  11.031  0.0399  0.4638 -0.0914
 3195W        W 7395   0.704   2.176  10.412  0.6416  0.0598 -0.0909
 3196W        W 7396   8.279   6.801  12.732  0.0180  0.0312 -0.0986
 3197W        W 7397   8.945   9.946   4.567 -0.0977  0.1018 -0.3859
 3198W        W 7398   7.083   6.230  13.252 -0.0170 -0.0483 -0.1119
 3199W        W 7399   2.194   5.234  11.962  0.0626 -0.0625 -0.0799
 3200W        W 7400   2.399   3.458   2.518 -0.2339  0.1802  0.1825
 3201W        W 7401   9.863   4.393  12.964 -0.1321  0.0896  0.2341
 3202W        W 7402   6.643   0.911  10.806  0.1332  0.0187  0.1852
 3203W        W 7403   4.057   3.479  12.337  0.4296 -0.2285  0.0220
 3204W        W 7404   3.222   4.353   1.701 -0.3341  0.0388  0.0954
 3205W        W 7405   7.165   4.234  12.460  0.1807  0.4697  0.0242
 3206W        W 7406   4.259   7.179  11.037 -0.0181 -0.1042  0.0469
 3207W        W 7407   4.154   7.619   4.275 -0.2939 -0.2500  0.1469
 3208W        W 7408  10.228   1.752   8.830  0.0409 -0.0595  0.1517
 3209W        W 7409   9.923   8.162   3.305  0.1042  0.1839 -0.5987
 3210W        W 7410   3.013   0.545   3.039  0.0479 -0.0065 -0.0411
 3211W        W 7411   0.668   7.470  12.451  0.4226  0.0697  0.2476
 3212W        W 7412   2.973   7.380  10.586 -0.1649 -0.0585 -0.0511
 3213W        W 7413  10.175   9.920   4.169  0.1199  0.1818  0.3814
 3214W        W 7414   3.607   5.805   1.682 -0.0868 -0.1608  0.2583
 3215W        W 7415   0.745   3.226   1.029 -0.3131 -0.2244 -0.3840
 3216W        W 7416   3.114   0.105  12.259 -0.0093 -0.1191  0.1968
 3217W        W 7417   0.350   9.502   8.376 -0.0181  0.1590 -0.0518
 3218W        W 7418   8.764   9.729   1.240 -0.0178 -0.0543  0.4062
 3219W        W 7419   4.902   8.124   0.305  0.0172 -0.1923  0.0204
 3220W        W 7420   7.825   5.240   9.697  0.0589  0.0272 -0.2157
 3221W        W 7421   0.362   0.598  10.655 -0.0051 -0.2874  0.2633
 3222W        W 7422   0.385   4.725   1.388 -0.5039 -0.1273 -0.0468
 3223W        W 7423   6.452   1.693  11.821  0.3070  0.1245 -0.1311
 3224W        W 7424   1.582   6.949   4.225 -0.5452 -0.0670 -0.1624
 3225W        W 7425   3.615   7.363   2.436 -0.0299  0.0356 -0.1036
 3226W        W 7426   4.553  10.292   4.075  0.0418 -0.0143  0.1560
 3227W        W 7427   9.853   4.060   1.674  0.0694 -0.0807  0.0886
 3228W        W 7428   6.474   7.387   3.270  0.3996 -0.2105  0.1659
 3229W        W 7429   6.437   9.648   2.768 -0.1579  0.1071 -0.4151
 3230W        W 7430   2.017   7.929   9.523  0.0089  0.1189  0.0943
 3231W        W 7431   4.066  10.412  10.539  0.1166  0.0919 -0.2009
 3232W        W 7432   6.005   2.041   2.746 -0.0119  0.0194  0.0864
 3233W        W 7433   4.585   5.262   0.343  0.1003  0.2185 -0.0732
 3234W        W 7434   8.544   1.630  11.609  0.4813 -0.0529  0.1541
 3235W        W 7435   5.712   7.885   4.044  0.0161  0.1276  0.1187
 3236W        W 7436   6.909   5.639   0.292  0.1584  0.0692  0.1126
 3237W        W 7437   4.873   7.010   2.131  0.0709 -0.1901  0.0016
 3238W        W 7438   0.997   4.235   0.852 -0.1613  0.0452 -0.1085
 3239W        W 7439   6.245   3.924   1.313  0.1289 -0.2686 -0.2437
 3240W        W 7440   9.725   6.109   1.249 -0.0937  0.0185  0.0846
 3241W        W 7441   0.706   8.735  11.833  0.1244  0.1608  0.1118
 3242W        W 7442   1.163   0.750   4.373 -0.0156 -0.0582  0.1528
 3243W        W 7443   6.716   5.628  11.452 -0.0402 -0.2730  0.0885
 3244W        W 7444   4.715   5.495   1.837 -0.3697 -0.3596  0.0284
 3245W        W 7445   3.763   1.892   2.045  0.1529 -0.0001 -0.1261
 3246W        W 7446   2.437   8.144   3.114  0.4784 -0.0092 -0.0468
 3247W        W 7447   3.961   2.550  12.073  0.2444 -0.0576 -0.1443
 3248W        W 7448   7.812   5.906   3.326  0.0628 -0.3476 -0.0516
 3249W        W 7449   0.993   2.291  12.779  0.2703 -0.0170 -0.0950
 3250W        W 7450   6.759  10.059   2.254  0.0305  0.1873 -0.3164
 3251W        W 7451   2.992   0.806   4.239  0.1181  0.4632  0.1635
 3252W        W 7452   1.188   7.363   2.322 -0.1563 -0.1576  0.2829
 3253W        W 7453   5.101   5.568  10.896  0.0877 -0.1349  0.2989
 3254W        W 7454  10.201   2.260   3.391 -0.1448 -0.0873  0.0766
 3255W        W 7455   3.761   1.641  11.231 -0.1923 -0.3538 -0.0168
 3256W        W 7456   6.225   9.936   3.133 -0.1010  0.1581 -0.2547
 3257W        W 7457   1.796   5.651  11.102  0.2463  0.1624 -0.1336
 3258W        W 7458   4.155   4.011  12.246  0.2048 -0.3903 -0.4997
 3259W        W 7459   6.851   1.625   1.325 -0.2256 -0.0669  0.1031
 3260W        W 7460   1.231   9.588  11.566 -0.3940  0.0226  0.1721
 3261W        W 7461   5.486   1.539   0.870 -0.4214  0.2061 -0.0891
 3262W        W 7462   5.364   0.602   2.096 -0.0690 -0.1781 -0.0661
 3263W        W 7463   6.803   0.503   2.377 -0.3500  0.0901 -0.1022
 3264W        W 7464   2.363   4.777   9.062  0.0155 -0.3973  0.1813
 3265W        W 7465   2.165   0.578   4.218 -0.1272 -0.1665 -0.0454
 3266W        W 7466   9.665   7.909   0.251  0.1207  0.0284 -0.0575
 3267W        W 7467   5.841   6.185   0.399 -0.1698  0.3400 -0.1676
 3268W        W 7468   6.890  10.359   3.090 -0.0993  0.2635 -0.0637
 3269W        W 7469   9.909   9.020   4.319 -0.1693 -0.0958 -0.1521
 3270W        W 7470   4.233   1.465   2.059 -0.0203  0.0887 -0.1105
 3271W        W 7471   2.314   6.712   0.684  0.2993 -0.1068  0.0560
 3272W        W 7472  10.078   2.313   0.000  0.0535 -0.0897  0.2001
 3273W        W 7473   7.850   5.525  13.324  0.1231  0.1748 -0.2100
 3274W        W 7474   1.262   0.483   9.553 -0.0877  0.0767 -0.1130
 3275W        W 7475   3.452   8.080  12.867 -0.0168 -0.1181  0.2162
 3276W        W 7476   4.472   2.096   1.052  0.1002 -0.2820 -0.0658
 3277W        W 7477   6.907   8.010   9.533  0.0795  0.1553  0.0749
 3278W        W 7478   3.743   2.218   0.216 -0.1922 -0.0730 -0.1533
 3279W        W 7479   4.155   6.394   0.131 -0.3688 -0.2408  0.0574
 3280W        W 7480   1.184   6.934   0.563 -0.1143  0.2860  0.2747
 3281W        W 7481   8.596   1.213  11.949 -0.0457  0.2066 -0.1739
 3282W        W 7482   2.698   3.286  11.382  0.3199 -0.2272 -0.1487
 3283W        W 7483   4.268   7.295   2.521 -0.0923 -0.1360 -0.1401
 3284W        W 7484   8.342   6.233  10.400  0.1586 -0.2818  0.0400
 3285W        W 7485   9.720   9.188   8.481 -0.1811  0.0095 -0.2131
 3286W        W 7486   8.079   2.972   1.091  0.1602  0.0795  0.2104
 3287W        W 7487   0.540   9.720  11.312 -0.0206 -0.4373  0.1118
 3288W        W 7488   7.744   2.910  11.294  0.2706 -0.0813 -0.2966
 3289W        W 7489   8.726   0.907   2.335  0.1449 -0.0435 -0.0008
 3290W        W 7490   8.225   1.093   9.294 -0.0678 -0.2965 -0.1300
 3291W        W 7491   1.569   9.294  10.008 -0.2053 -0.1017 -0.0502
 3292W        W 7492  10.279   8.178  11.710 -0.3283 -0.0427  0.0001
 3293W        W 7493   8.736   5.908  10.350  0.0028  0.1660 -0.3591
 3294W        W 7494   0.030   0.588   0.121  0.0642  0.1459 -0.3313
 3295W        W 7495   2.237   5.480  11.540  0.2779  0.1588 -0.3212
 3296W        W 7496   3.264   3.783  11.053  0.0989  0.1487 -0.1998
 3297W        W 7497   0.601   6.973  12.901  0.1586  0.1480  0.2035
 3298W        W 7498   1.059   4.169   2.281 -0.2779  0.2588  0.1480
 3299W        W 7499   3.178   8.796   3.326  0.0007  0.0313 -0.0681
 3300W        W 7500   9.228   3.717  11.183 -0.1012  0.4073 -0.0229
 3301W        W 7501   6.122   0.385  11.644  0.2667  0.0296 -0.0225
 3302W        W 7502   2.491   7.527   2.195 -0.0228  0.0022 -0.1169
 3303W        W 7503   0.904   0.522   1.942  0.0848 -0.1599  0.2568
 3304W        W 7504   9.507   7.934   1.065  0.0733 -0.2408 -0.1281
 3305W        W 7505   3.680   0.700  13.298 -0.0244 -0.1132 -0.1196
 3306W        W 7506   7.301   0.258  11.110  0.0269 -0.1162 -0.1108
 3307W        W 7507   2.833   7.947  11.216 -0.0190 -0.3648  0.2670
 3308W        W 7508   6.302   2.392  10.310  0.0945 -0.1591  0.0506
 3309W        W 7509   6.973   6.807   1.980 -0.2843 -0.0296  0.3565
 3310W        W 7510  10.371   8.517   0.028 -0.0684  0.1431  0.0629
 3311W        W 7511   3.265   2.293  12.526  0.1491 -0.2316  0.1384
 3312W        W 7512   0.991   3.538   0.711  0.0323 -0.2432  0.4190
 3313W        W 7513   9.356   6.172   2.444  0.4129 -0.2505  0.2178
 3314W        W 7514   7.217   1.051   0.460 -0.1503 -0.0406 -0.0815
 3315W        W 7515   1.985   3.380  10.691 -0.1738  0.3923 -0.0578
 3316W        W 7516  10.132   7.135  10.889  0.3966 -0.1896  0.0348
 3317W        W 7517   2.595   0.581   3.305 -0.0896  0.2165  0.0471
 3318W        W 7518   5.526   5.819   1.284 -0.0283 -0.1418  0.0948
 3319W        W 7519   1.265   4.889   0.150 -0.1305 -0.0134 -0.0644
 3320W        W 7520   6.659   8.644   1.071  0.1522 -0.0633 -0.0220
 3321W        W 7521   0.214   8.333   9.513  0.2644  0.0205 -0.1232
 3322W        W 7522   7.365   0.343  10.019  0.2440 -0.1136  0.0141
 3323W        W 7523   5.092   9.078   3.504  0.3448  0.3820 -0.1861
 3324W        W 7524   0.521   3.983   1.970  0.2347 -0.1051  0.1332
 3325W        W 7525   4.430   6.748   4.402  0.0017 -0.1141 -0.2933
 3326W        W 7526   9.308   9.222  12.016 -0.1300  0.1109 -0.1000
 3327W        W 7527   0.202   7.381   4.328 -0.0147  0.0463 -0.2993
 3328W        W 7528   9.353   4.370  12.693  0.0995  0.1292  0.1293
 3329W        W 7529   4.719   1.282  13.270 -0.6093 -0.0548  0.4889
 3330W        W 7530   0.147   7.476   9.065 -0.3283 -0.0028  0.0446
 3331W        W 7531   7.476   1.661  13.369 -0.0706  0.1609  0.2729
 3332W        W 7532   0.258   1.493  12.503  0.1764 -0.1105  0.1233
 3333W        W 7533   0.208   3.757  12.703 -0.0413  0.0348 -0.3933
 3334W        W 7534   7.884   7.971   1.990 -0.2290 -0.0178 -0.4549
 3335W        W 7535   1.676   9.430  11.910 -0.0572 -0.1686 -0.2600
 3336W        W 7536   5.946   7.041  10.682  0.1107  0.1515 -0.0622
 3337W        W 7537   0.082   4.428  11.470  0.1762 -0.1873 -0.1784
 3338W        W 7538   4.479   2.744   0.987 -0.1995  0.1264 -0.1925
 3339W        W 7539   2.168   0.229   9.771  0.2465  0.2336  0.1517
 3340W        W 7540   8.788   0.949   0.640  0.2536 -0.1034  0.1921
 3341W        W 7541   0.206   4.911  11.307 -0.0246  0.0189 -0.0810
 3342W        W 7542   6.051  10.333   9.530  0.1189  0.1190  0.2187
 3343W        W 7543   9.229   8.359   2.778  0.0937  0.1526 -0.0892
 3344W        W 7544   4.156   4.919  10.731 -0.2377 -0.3132  0.0749
 3345W        W 7545   7.034   5.595  12.823 -0.0754 -0.1297  0.1103
 3346W        W 7546   4.537   5.950   9.757  0.1361 -0.0891  0.0118
 3347W        W 7547  10.365   8.749   3.817  0.4151  0.3462  0.4066
 3348W        W 7548   9.698   7.379   9.264 -0.1757  0.1230 -0.0241
 3349W        W 7549   7.010   5.721   3.949  0.2277 -0.3188 -0.0025
 3350W        W 7550   8.054   8.666   0.155 -0.2282 -0.0376 -0.3210
 3351W        W 7551   2.593   4.054  12.861 -0.0162  0.2530  0.1350
 3352W        W 7552   7.100   7.747   4.189 -0.3113  0.1118 -0.2215
 3353W        W 7553   3.020   5.829   9.235  0.1656 -0.1175 -0.4194
 3354W        W 7554  10.249   6.709   0.712 -0.2532  0.3146 -0.0953
 3355W        W 7555   9.293   6.009   9.944 -0.0282 -0.1198  0.0140
 3356W        W 7556   7.806   0.482   4.022 -0.3016 -0.1236  0.0710
 3357W        W 7557   6.888   5.114  12.909 -0.2877 -0.1551  0.2354
 3358W        W 7558   3.217   8.557  10.136  0.2020  0.0906  0.1260
 3359W        W 7559  10.152   9.741   1.355 -0.2770 -0.3982 -0.0987
 3360W        W 7560   8.702   8.704  11.795  0.0412 -0.0953  0.0040
 3361W        W 7561   3.482   1.184  10.353  0.1020  0.1486 -0.1783
 3362W        W 7562   9.214   9.848   9.351 -0.0258  0.0528 -0.1274
 3363W        W 7563   6.798   1.273   0.322 -0.1096 -0.2986 -0.2957
 3364W        W 7564   8.414   9.282   9.374  0.1795  0.0438 -0.2050
 3365W        W 7565   3.004   9.344  11.421 -0.0933 -0.1611  0.2166
 3366W        W 7566   6.552   5.995  10.460 -0.1704  0.0195 -0.1120
 3367W        W 7567   5.657   0.320   3.348  0.2305  0.0620 -0.1872
 3368W        W 7568   9.110   5.412  10.653  0.1182  0.2580  0.1777
 3369W        W 7569   5.710   8.555   9.255  0.2662 -0.0726 -0.0804
 3370W        W 7570   2.661   1.836  12.510  0.0373 -0.3733 -0.0082
 3371W        W 7571   6.710   7.724   2.506 -0.4847  0.0992  0.0386
 3372W        W 7572   0.134   3.188   2.138  0.1526  0.2938 -0.2004
 3373W        W 7573   1.615   6.911  13.275 -0.2150  0.0034 -0.1231
 3374W        W 7574  10.006   8.648   2.499 -0.2145  0.0186  0.2121
 3375W        W 7575   4.060   0.033  10.055  0.1614 -0.2184  0.1011
 3376W        W 7576   1.466   6.618   0.825  0.2641 -0.2640  0.1645
 3377W        W 7577   9.401   8.980   1.227 -0.1365  0.2542  0.1494
 3378W        W 7578   2.947   4.018  12.480 -0.1247  0.1694  0.3555
 3379W        W 7579   4.485   5.408  12.143 -0.1028 -0.3233 -0.0265
 3380W        W 7580   1.746   7.541   9.680  0.1510 -0.0636 -0.0179
 3381W        W 7581   6.645   9.827   4.891 -0.0720 -0.0256  0.2014
 3382W        W 7582   3.411   2.474  13.279  0.1179  0.1793 -0.5135
 3383W        W 7583   3.965   7.586  12.523  0.0543  0.1902  0.0875
 3384W        W 7584   9.197   0.830   1.547 -0.0118  0.0541  0.2119
 3385W        W 7585   8.093   4.725   9.730 -0.2788  0.2105  0.5278
 3386W        W 7586   7.290   8.560   2.144  0.1405 -0.0785  0.0636
 3387W        W 7587   0.429   5.995  13.048 -0.0921  0.0408 -0.3139
 3388W        W 7588   9.154   8.877   3.050  0.1416  0.1907  0.2467
 3389W        W 7589   3.775   8.015  10.416  0.0328  0.0313  0.2063
 3390W        W 7590   0.949   1.715  12.822 -0.0556  0.0690  0.2014
 3391W        W 7591   7.745   7.762   2.409  0.0546 -0.2035  0.0194
 3392W        W 7592   9.193   0.159   3.477 -0.2495  0.0228 -0.2132
 3393W        W 7593   9.738   8.966   0.832  0.0888 -0.1787 -0.0276
 3394W        W 7594   7.529   0.039   0.508  0.1191 -0.2020 -0.1010
 3395W        W 7595  10.403   0.298  13.123 -0.1372  0.1798 -0.0206
 3396W        W 7596   5.382   9.351  11.317 -0.0663 -0.0398  0.1143
 3397W        W 7597   9.294   1.657   1.720 -0.2059 -0.0489 -0.1972
 3398W        W 7598   0.634   3.321  11.620 -0.0802 -0.0022  0.0888
 3399W        W 7599   9.280   8.556  11.139 -0.0229 -0.0283  0.2311
 3400W        W 7600   8.027  10.434   0.330  0.2151 -0.4409  0.0179
 3401W        W 7601   3.125   4.833   1.671  0.2243  0.2365 -0.3712
 3402W        W 7602   1.245   1.149  11.531  0.0534 -0.1450 -0.2535
 3403W        W 7603   1.883   7.239   1.183  0.1237  0.2071  0.2421
 3404W        W 7604   1.050   6.530   2.262  0.0346  0.1878 -0.0358
 3405W        W 7605   8.656   0.606   9.243  0.0005 -0.2708  0.0181
 3406W        W 7606   2.973   6.223   3.712 -0.0926  0.0545  0.1391
 3407W        W 7607  10.061   7.140  10.065  0.0898 -0.0416 -0.1824
 3408W        W 7608   7.390   8.045   2.141 -0.0789 -0.0036 -0.0686
 3409W        W 7609   1.644   1.784   4.107 -0.4233 -0.1879 -0.3720
 3410W        W 7610   3.814   8.972   8.920  0.1675  0.1363 -0.0544
 3411W        W 7611   5.370   1.641  11.232 -0.1702 -0.2327  0.0188
 3412W        W 7612   0.171   3.495  11.943 -0.1413  0.2063  0.0811
 3413W        W 7613   9.424   9.326  11.357 -0.0482  0.0437 -0.0542
 3414W        W 7614   7.211   8.294  10.231  0.2567  0.2422 -0.1934
 3415W        W 7615   7.391   9.651   1.037 -0.3075 -0.0338 -0.4448
 3416W        W 7616   5.548   7.238   4.290  0.1378  0.0033  0.0423
 3417W        W 7617   5.738   6.142   3.151 -0.0259 -0.1085  0.2814
 3418W        W 7618   1.582   4.343   0.665  0.0910 -0.2874 -0.1079
 3419W        W 7619   2.384   3.128  10.514  0.0219 -0.2923  0.2214
 3420W        W 7620   0.695   2.297   9.560 -0.3495  0.4982  0.2295
 3421W        W 7621   4.977   7.699   1.464  0.1479  0.2494  0.1504
 3422W        W 7622   2.162   8.498   1.828  0.0958 -0.0862  0.0614
 3423W        W 7623   6.011   9.887  11.654  0.1780 -0.0319 -0.0739
 3424W        W 7624   8.908   8.523   1.546  0.0054 -0.2281  0.0455
 3425W        W 7625   8.193   8.847   2.331 -0.0348  0.0251  0.1389
 3426W        W 7626   5.588   7.034  12.239 -0.1612 -0.0731 -0.0886
 3427W        W 7627   6.476   0.904   0.035 -0.0013  0.0458  0.3368
 3428W        W 7628   8.690   8.856  10.210  0.2337 -0.1041  0.0671
 3429W        W 7629  10.263   6.950   9.631 -0.3980  0.1968  0.3348
 3430W        W 7630   1.348   6.478   9.835  0.3173 -0.2312 -0.2151
 3431W        W 7631   8.766   8.262  12.900  0.1903  0.0181  0.1179
 3432W        W 7632   2.746   9.076   1.460 -0.0041  0.1008  0.0499
 3433W        W 7633   4.390   8.517   2.422 -0.0323  0.0006  0.0482
 3434W        W 7634   3.163  10.178   0.707 -0.2141 -0.0473 -0.3994
 3435W        W 7635   8.908   7.113   1.221 -0.2312  0.2181  0.0304
 3436W        W 7636   0.305   8.428   2.577 -0.1424  0.3649  0.2001
 3437W        W 7637   4.203   9.937  11.344 -0.1592 -0.0080  0.2519
 3438W        W 7638   0.099   3.301   0.480 -0.1961  0.1377 -0.0124
 3439W        W 7639   5.248   1.084   2.069 -0.1116 -0.2654 -0.0891
 3440W        W 7640   3.539   0.198   1.483 -0.3165 -0.0470 -0.1403
 3441W        W 7641  10.128   6.901   3.550  0.2718  0.5174 -0.0495
 3442W        W 7642   1.728   4.991  10.100  0.2674  0.0056 -0.1749
 3443W        W 7643   0.208   8.809  11.654 -0.2041  0.1116 -0.0777
 3444W        W 7644   7.200   9.059   0.620 -0.0086 -0.2066 -0.2265
 3445W        W 7645   9.903   9.134   1.383  0.0436  0.0037  0.0183
 3446W        W 7646   2.382   6.124  13.164  0.1428  0.0285 -0.1369
 3447W        W 7647   3.808   8.518   1.699 -0.1214  0.3011 -0.1482
 3448W        W 7648   4.815   8.240   1.951 -0.1488 -0.4099 -0.1406
 3449W        W 7649   0.362   2.940  10.839  0.4700 -0.2649  0.2623
 3450W        W 7650   7.389   1.270   1.102 -0.0013 -0.0216 -0.2694
 3451W        W 7651   4.629   8.079  10.717 -0.2880 -0.0846  0.2073
 3452W        W 7652   4.511   4.290   0.913 -0.0005 -0.0445 -0.0036
 3453W        W 7653   6.033   6.947   8.709 -0.0542 -0.0970  0.2742
 3454W        W 7654   5.880   7.535   4.438 -0.2811 -0.0428  0.3552
 3455W        W 7655   3.787   8.813  12.905 -0.2563  0.1461  0.2589
 3456W        W 7656   8.848   4.780   3.834 -0.2498  0.1411  0.0103
 3457W        W 7657   5.797   4.133   2.365  0.2003  0.1830  0.2141
 3458W        W 7658   3.776   0.797  10.503  0.2854 -0.1317  0.0288
 3459W        W 7659   3.738   4.391   2.497  0.2131  0.1825 -0.2829
 3460W        W 7660   3.861   6.929  11.318  0.1075  0.1696  0.1757
 3461W        W 7661   1.822   3.939   1.154 -0.2717  0.1064  0.0920
 3462W        W 7662   6.749   9.656   1.923 -0.3549  0.2244  0.1774
 3463W        W 7663   3.706   0.994   3.343 -0.1549 -0.2457 -0.1776
 3464W        W 7664   9.537   4.321   9.681 -0.0787 -0.3086  0.0164
 3465W        W 7665   6.534   4.640   9.524 -0.0346 -0.0478 -0.0881
 3466W        W 7666   6.424   0.245   1.330  0.1190 -0.0831 -0.0142
 3467W        W 7667   4.006   6.607   4.121 -0.2049  0.1217  0.3460
 3468W        W 7668   6.266   2.148  11.903 -0.2040 -0.0692 -0.0134
 3469W        W 7669   1.545   5.886  13.123 -0.0765 -0.1183  0.0787
 3470W        W 7670   8.348   5.089   3.239  0.0979 -0.4877  0.0007
 3471W        W 7671   1.937   8.719   1.392 -0.0315  0.1072  0.1256
 3472W        W 7672   6.301   8.827   0.436 -0.3492 -0.4063 -0.1089
 3473W        W 7673   1.501   4.766  11.462 -0.0914 -0.0249 -0.0942
 3474W        W 7674   4.539   5.876   5.179  0.0785 -0.0611  0.2282
 3475W        W 7675   8.244   6.647   3.584  0.2237 -0.2776 -0.0861
 3476W        W 7676   2.145   9.645   9.129 -0.0502 -0.2839 -0.3540
 3477W        W 7677   8.673   6.903   3.337  0.0876  0.1169 -0.2203
 3478W        W 7678   3.964   6.141   3.256  0.0572  0.1048  0.1031
 3479W        W 7679   5.115   8.822   4.419 -0.1467  0.1513  0.1048
 3480W        W 7680   3.072   8.758  11.200 -0.2821 -0.0307 -0.0276
 3481W        W 7681   5.452   7.661   1.625 -0.2769 -0.2608 -0.0118
 3482W        W 7682   6.543   6.585   1.836  0.2524 -0.0507  0.2883
 3483W        W 7683   0.621  10.096   1.804  0.0954 -0.2791  0.1718
 3484W        W 7684   8.746   3.145  11.921  0.0631 -0.1295  0.2901
 3485W        W 7685   1.883  10.281   0.760 -0.0350  0.0796 -0.0261
 3486W        W 7686   6.859   9.312  12.627  0.3383 -0.0132  0.0656
 3487W        W 7687   2.620   6.296  12.590  0.1238 -0.2259  0.2718
 3488W        W 7688   7.310   1.099  10.434 -0.0357  0.0762  0.1061
 3489W        W 7689   1.007   2.410  13.325  0.0510 -0.2340  0.0335
 3490W        W 7690   6.401  10.360   0.572  0.1329  0.0029 -0.1074
 3491W        W 7691   2.472   4.107  12.352 -0.0593  0.4097  0.0059
 3492W        W 7692   4.985   2.082   0.147 -0.2326 -0.1541  0.1611
 3493W        W 7693   2.844   7.416   2.876  0.0179 -0.2449  0.0584
 3494W        W 7694   1.166   1.804   1.172 -0.1862  0.0291 -0.0538
 3495W        W 7695   0.772   2.285   1.420 -0.0914  0.1119  0.2434
 3496W        W 7696   2.494   2.388   0.018 -0.1903 -0.2776  0.0280
 3497W        W 7697   3.959   7.644   2.716  0.0301  0.1146  0.0465
 3498W        W 7698  10.296   3.158  11.950  0.2412 -0.0241 -0.1665
 3499W        W 7699   1.648   3.486   1.289 -0.0846  0.1853 -0.0747
 3500W        W 7700   4.321   4.871  12.329  0.5884 -0.3220  0.3946
 3501W        W 7701   5.721   2.967   9.519  0.1238  0.0527 -0.2558
 3502W        W 7702   2.530   6.081   8.823 -0.0687  0.0660  0.3233
 3503W        W 7703   2.318   2.935   2.535  0.0236  0.4141  0.0886
 3504W        W 7704   4.789   1.716  12.689  0.1057 -0.1460 -0.1740
 3505W        W 7705   1.226   7.874  11.498  0.0379 -0.1114  0.0601
 3506W        W 7706   5.524   8.422   8.644  0.0166 -0.1528  0.1337
 3507W        W 7707   6.991   7.876  10.371  0.5025 -0.0560 -0.3625
 3508W        W 7708   9.500   7.472   9.716  0.1565 -0.1131 -0.2364
 3509W        W 7709   2.407   8.944  12.150 -0.2355 -0.1406 -0.0314
 3510W        W 7710   0.490   7.803   4.087  0.2549 -0.1603  0.2364
 3511W        W 7711   8.178   1.105  10.769  0.0557 -0.0914  0.2509
 3512W        W 7712   1.465   9.962   4.126 -0.2132  0.1196  0.1641
 3513W        W 7713   2.134   5.109   3.774  0.2176  0.4532  0.1229
 3514W        W 7714   8.127   8.488   2.635  0.1231 -0.0469 -0.0829
 3515W        W 7715  10.326   8.010   8.322 -0.4971 -0.0911  0.1872
 3516W        W 7716   3.575   8.348  11.513  0.2977 -0.0165  0.0181
 3517W        W 7717   4.272   6.828   2.734 -0.1788  0.0800 -0.0353
 3518W        W 7718  10.396   7.487  10.038 -0.0034  0.0076  0.1107
 3519W        W 7719   7.619   2.169   3.494 -0.0068 -0.2798  0.0246
 3520W        W 7720  10.272   9.539  11.690 -0.2762  0.1122 -0.0669
 3521W        W 7721   7.938   6.986   3.171  0.0923  0.1047  0.3742
 3522W        W 7722   2.566   9.151  12.531  0.0881 -0.0877 -0.2051
 3523W        W 7723   9.175   1.636  12.814 -0.1744  0.1021 -0.2298
 3524W        W 7724   9.434   3.671   2.501  0.2809  0.0897 -0.1783
 3525W        W 7725   8.832   7.989   9.418  0.3335 -0.0541 -0.3055
 3526W        W 7726   8.517   7.056   3.910  0.0749 -0.3822  0.2003
 3527W        W 7727   4.366   2.088  10.874 -0.0491  0.3076  0.0295
 3528W        W 7728   3.002  10.413  10.543  0.2094  0.0516  0.0097
 3529W        W 7729   7.111   8.819  12.457 -0.1486  0.2575  0.2192
 3530W        W 7730   3.901   5.810  12.320 -0.1607 -0.1491  0.2750
 3531W        W 7731   0.774   1.531   1.089  0.2793  0.2295 -0.1445
 3532W        W 7732   6.887   8.165  11.951 -0.4681  0.1883  0.0674
 3533W        W 7733   7.182   4.031   9.288  0.0317 -0.1642  0.1675
 3534W        W 7734   7.756   9.605  13.160  0.0626 -0.0929  0.1630
 3535W        W 7735   7.441   6.508   4.280 -0.2424 -0.1574 -0.2054
 3536W        W 7736   0.593   9.267  11.138 -0.2460  0.1972  0.1430
 3537W        W 7737   8.405   4.464  11.671 -0.4074 -0.1588 -0.1234
 3538W        W 7738   4.004   6.612   3.472 -0.2470 -0.0565  0.1467
 3539W        W 7739   6.904   3.555  13.121  0.0579 -0.1332  0.1941
 3540W        W 7740  10.283   7.276   3.084 -0.1415  0.2101  0.2783
 3541W        W 7741   3.276   2.361   5.129 -0.1540 -0.1207  0.0666
 3542W        W 7742   9.029   8.733   3.562 -0.1095 -0.0623  0.0535
 3543W        W 7743   2.006   3.079   2.912  0.4014 -0.1512  0.0464
 3544W        W 7744   2.019   9.837   1.220 -0.2126  0.2573  0.1561
 3545W        W 7745   5.444   4.938   1.693  0.2321  0.2706 -0.5067
 3546W        W 7746   4.145   9.078   9.692 -0.0218  0.1784 -0.2352
 3547W        W 7747   8.540  10.449   0.224 -0.1269  0.2016  0.2200
 3548W        W 7748   5.348   2.411   1.003  0.1611  0.3560  0.3348
 3549W        W 7749   8.805  10.260   1.426 -0.0120  0.4729 -0.0219
 3550W        W 7750   7.038   4.906   2.481  0.0179  0.2420  0.2300
 3551W        W 7751   7.824  10.074   2.595 -0.1417 -0.1708 -0.0310
 3552W        W 7752   8.405   3.662  12.205 -0.1687 -0.3345  0.0580
 3553W        W 7753   1.003   0.136   9.212  0.2815  0.1454  0.1003
 3554W        W 7754   9.847   2.399   1.812  0.0750  0.0816  0.1038
 3555W        W 7755  10.212   8.228  12.844 -0.0931  0.0956 -0.1997
 3556W        W 7756   5.387   2.092   1.472 -0.3148 -0.1624  0.2609
 3557W        W 7757   3.624  10.305  10.852  0.0170  0.3809 -0.1019
 3558W        W 7758   3.436   0.771   2.939 -0.1823 -0.4906  0.1108
 3559W        W 7759   5.656   3.438   1.963 -0.1386  0.2478  0.1849
 3560W        W 7760   3.599   5.419  12.177 -0.3116 -0.0235 -0.0330
 3561W        W 7761   3.119   3.142  10.051  0.0603  0.2384  0.2799
 3562W        W 7762   7.529  10.173   3.820  0.1672 -0.0870 -0.0088
 3563W        W 7763   5.406   3.844   1.393 -0.0626 -0.0536 -0.0193
 3564W        W 7764   1.455   5.590   9.532  0.3449  0.1614  0.1853
 3565W        W 7765   4.362   3.787   3.629  0.0402  0.3627  0.0278
 3566W        W 7766   3.002   5.574  13.220  0.1709  0.1340  0.1827
 3567W        W 7767   3.337   4.643  10.195  0.2455  0.0601  0.2528
 3568W        W 7768   5.278   7.926  13.365 -0.1253 -0.0759  0.0562
 3569W        W 7769   9.499   4.574   8.809 -0.0376  0.1915  0.3198
 3570W        W 7770   5.052   6.274  11.908  0.1139  0.0334  0.3152
 3571W        W 7771   0.634   5.948   3.353  0.0678  0.0122 -0.3732
 3572W        W 7772   8.768   3.274  10.294  0.1801 -0.0199  0.0397
 3573W        W 7773   9.743   4.749  12.505 -0.0784  0.0708 -0.0776
 3574W        W 7774   8.548   8.450   1.178 -0.2330  0.0884 -0.0950
 3575W        W 7775   5.128   8.459  11.595  0.1173  0.1144 -0.4323
 3576W        W 7776   8.204   0.848   2.424  0.3799  0.2083  0.0661
 3577W        W 7777   7.263   8.880   1.731  0.1803  0.2303  0.0411
 3578W        W 7778   5.896   8.054  11.864 -0.2152 -0.0185 -0.2079
 3579W        W 7779   6.149  10.314  12.344 -0.0255 -0.1249 -0.4049
 3580W        W 7780   8.031   7.248   4.060 -0.0898 -0.0266  0.3141
 3581W        W 7781  10.281   5.923   2.419 -0.0222  0.2531  0.1157
 3582W        W 7782   9.395   5.920  11.747  0.1514 -0.1051 -0.0746
 3583W        W 7783   8.254   3.966   3.563 -0.1535  0.0636  0.0926
 3584W        W 7784   2.551   6.024   3.516 -0.4318 -0.0987  0.1957
 3585W        W 7785   6.570   6.608   0.904 -0.0212  0.0033 -0.0274
 3586W        W 7786   9.567   8.323  11.526 -0.0681  0.1403  0.7005
 3587W        W 7787   9.588   3.015   0.170  0.0612 -0.1107  0.2461
 3588W        W 7788   4.023   9.809   3.416  0.0640  0.1802 -0.2485
 3589W        W 7789   2.062   2.897   1.306  0.3719 -0.2034 -0.2906
 3590W        W 7790   7.674  10.057   4.559 -0.0836 -0.3392  0.0622
 3591W        W 7791   5.477   8.986  10.448 -0.0340  0.1080  0.1120
 3592W        W 7792   8.975   7.804  13.115 -0.0708 -0.3829 -0.2093
 3593W        W 7793   0.055  10.289   4.778  0.0977 -0.2282  0.0032
 3594W        W 7794   1.499   3.024   2.548  0.2039 -0.1322 -0.2246
 3595W        W 7795   9.221   0.929   4.047 -0.1082 -0.0103 -0.0300
 3596W        W 7796   1.014   1.412   4.837  0.2353 -0.1520 -0.1220
 3597W        W 7797   5.740   8.530   3.040 -0.0582 -0.1746  0.0828
 3598W        W 7798   9.530   1.177   1.698  0.0414  0.0518 -0.0691
 3599W        W 7799   1.868   2.172   3.503 -0.1729  0.1371 -0.0498
 3600W        W 7800   1.474   4.138   3.569 -0.0669  0.1291  0.2986
 3601W        W 7801   8.373   1.112   1.394  0.0172  0.1556  0.0319
 3602W        W 7802   6.630   6.097   0.145  0.1087 -0.1434  0.2391
 3603W        W 7803   3.784   5.663   3.457 -0.1304  0.1195 -0.2761
 3604W        W 7804   1.476   2.717   0.786 -0.1610 -0.1719 -0.0603
 3605W        W 7805   4.328  10.093   2.559 -0.0036  0.3756  0.1391
 3606W        W 7806   6.098   4.617  10.099 -0.1270  0.1505  0.3286
 3607W        W 7807   5.967   6.568  10.975  0.0228  0.1291  0.0220
 3608W        W 7808   7.874   9.909   0.754 -0.0812 -0.1396  0.1366
 3609W        W 7809   5.549   3.085  12.638  0.2835  0.0644  0.1687
 3610W        W 7810   2.569   6.232  12.119  0.1030 -0.0438  0.3558
 3611W        W 7811   2.887   9.699  10.768  0.1412  0.1060 -0.1620
 3612W        W 7812   3.809   7.721  11.981 -0.0618 -0.1583 -0.2594
 3613W        W 7813   7.778   4.452   0.803 -0.0511 -0.0646 -0.0159
 3614W        W 7814   0.878  10.189  10.371 -0.2836 -0.0130  0.0851
 3615W        W 7815   6.132   8.480   3.401  0.2176 -0.0094  0.2085
 3616W        W 7816   2.265  10.300   2.051 -0.3391  0.0642  0.2203
 3617W        W 7817   0.825   7.177  13.251  0.2079  0.0762  0.1041
 3618W        W 7818   8.530   8.272  10.336  0.1391 -0.0505 -0.2817
 3619W        W 7819   8.731   2.107   0.489 -0.0517  0.0174  0.0579
 3620W        W 7820   8.690   1.801   0.924  0.2575 -0.4442 -0.0045
 3621W        W 7821   6.221   5.624  10.206  0.1565 -0.2143 -0.1452
 3622W        W 7822   3.302   3.366   9.013  0.0465 -0.0755  0.2351
 3623W        W 7823   7.072  10.172   0.500  0.2252  0.0772  0.1507
 3624W        W 7824   2.578  10.230   3.150 -0.1986  0.1256 -0.3993
 3625W        W 7825  10.189   5.875   0.094 -0.1822  0.0593 -0.1176
 3626W        W 7826   5.575   3.603   0.155  0.1268 -0.0757 -0.2350
 3627W        W 7827   9.494   1.156   8.786 -0.0153  0.0152  0.1074
 3628W        W 7828   2.500   7.879   4.485  0.0767 -0.1400  0.2313
 3629W        W 7829  10.203   2.670   3.031  0.2536  0.0987 -0.1733
 3630W        W 7830   2.551   7.153  13.103  0.1076 -0.0147 -0.1735
 3631W        W 7831   2.610   0.414   1.025 -0.0267 -0.1753 -0.1360
 3632W        W 7832   1.889   2.963  11.216  0.2316 -0.1998  0.4190
 3633W        W 7833   5.833   4.769  10.480  0.1608  0.3169 -0.1150
 3634W        W 7834   4.100   7.840  10.071 -0.5907  0.0841  0.1920
 3635W        W 7835   6.346   9.550  11.877 -0.1678 -0.0116 -0.0487
 3636W        W 7836   4.131  10.059   4.313 -0.1068  0.1576 -0.0079
 3637W        W 7837   5.211   5.267   2.531 -0.1392 -0.2166  0.0936
 3638W        W 7838  10.212  10.382   3.352 -0.2490 -0.1541  0.2288
 3639W        W 7839   8.185   8.490  10.023 -0.3627  0.1797  0.1916
 3640W        W 7840  10.103   5.804  12.945 -0.0231  0.4073 -0.2452
 3641W        W 7841   8.833   4.699   1.159 -0.0138 -0.0228 -0.1796
 3642W        W 7842   1.660   0.263   4.360 -0.4575  0.0293  0.0231
 3643W        W 7843   5.049   5.957   9.937  0.2911  0.1146 -0.1646
 3644W        W 7844   4.238   6.137   8.368  0.1706  0.0235 -0.4457
 3645W        W 7845   9.079   4.714   9.698 -0.1848  0.0119 -0.0602
 3646W        W 7846   3.254   9.997  10.715 -0.3866 -0.3707 -0.0260
 3647W        W 7847   6.980   0.152   2.047  0.2766 -0.0552 -0.1095
 3648W        W 7848   0.119   6.969   0.954  0.2059 -0.0120  0.0686
 3649W        W 7849   5.032   8.659   0.427 -0.1624 -0.0336 -0.1422
 3650W        W 7850  10.452   0.028  12.672 -0.0898  0.0686  0.1293
 3651W        W 7851   1.782   2.951   0.374 -0.0944  0.2508  0.0573
 3652W        W 7852   9.930   1.680   2.282 -0.1517 -0.0596 -0.1545
 3653W        W 7853   4.881   4.980  11.420  0.5765  0.0815 -0.0201
 3654W        W 7854   5.009   0.400   0.253 -0.1351 -0.0620  0.0307
 3655W        W 7855   9.067  10.122   0.140  0.1220  0.0272  0.2287
 3656W        W 7856   1.025   5.436   3.116 -0.3220  0.1241 -0.2166
 3657W        W 7857   7.063   8.785  11.991 -0.0182 -0.1568  0.4821
 3658W        W 7858   3.646   5.887   2.906 -0.1922 -0.1379  0.1777
 3659W        W 7859   6.860   2.807   0.730 -0.2045 -0.3769 -0.0743
 3660W        W 7860   3.729   7.069   0.292 -0.1090  0.1776 -0.0983
 3661W        W 7861   1.944   3.681  13.354 -0.0303 -0.2707 -0.0294
 3662W        W 7862   7.075   0.692  10.240 -0.0243  0.0532  0.4898
 3663W        W 7863   9.297   5.069   0.174 -0.2687  0.1748 -0.1493
 3664W        W 7864   0.136   9.977   1.453 -0.1963 -0.0598  0.0819
 3665W        W 7865   3.897   2.015   5.142 -0.0535 -0.1326 -0.4566
 3666W        W 7866   4.352   8.741  12.731  0.3109  0.0628  0.1073
 3667W        W 7867   8.865   7.248   8.619 -0.0321 -0.0988  0.1311
 3668W        W 7868   5.605   6.383  11.984 -0.3715  0.0147 -0.0116
 3669W        W 7869   3.073   2.391   9.516 -0.1566 -0.4798  0.0738
 3670W        W 7870   8.607   3.640   1.420 -0.0339 -0.1260 -0.0515
 3671W        W 7871   8.952   9.702  11.645 -0.0142  0.0623 -0.0776
 3672W        W 7872   6.466   6.343   2.892 -0.2092  0.4159  0.0742
 3673W        W 7873   0.725   3.904  10.445 -0.0010  0.1314  0.2057
 3674W        W 7874   7.159   8.643   2.607 -0.1401  0.0202  0.0127
 3675W        W 7875   0.809   7.025   9.977 -0.2119  0.0162 -0.4345
 3676W        W 7876   2.408   1.839   1.858  0.0041  0.1235  0.2222
 3677W        W 7877   4.875   4.661   4.363 -0.1309  0.0092 -0.0505
 3678W        W 7878   3.513   8.341   3.774  0.1038  0.1190 -0.0574
 3679W        W 7879   3.653   2.122  11.364  0.5518 -0.3080  0.1174
 3680W        W 7880   5.389   9.958   2.080  0.1556  0.0872  0.1926
 3681W        W 7881   9.173   2.226  12.153  0.0134  0.0806 -0.1802
 3682W        W 7882   8.023   2.602   3.482 -0.2078  0.0316  0.3958
 3683W        W 7883   7.237   2.923  11.277  0.0654  0.2801  0.1081
 3684W        W 7884   6.267   2.635  12.879  0.1255  0.0806  0.0454
 3685W        W 7885   8.452   4.281   3.176 -0.1049 -0.1769 -0.2910
 3686W        W 7886   2.143   6.169  12.474 -0.2335  0.0765  0.0474
 3687W        W 7887   9.199   7.493  12.019  0.2603 -0.1545 -0.1064
 3688W        W 7888   1.719   6.746   3.305  0.1116  0.2262 -0.1032
 3689W        W 7889   1.952   4.863  12.845 -0.1148  0.2509  0.0751
 3690W        W 7890   8.900   7.080  10.251 -0.0008  0.1894 -0.0944
 3691W        W 7891   2.134   2.476   2.255 -0.0478  0.0233  0.1672
 3692W        W 7892   2.834   0.509  12.267  0.0371 -0.1485  0.1837
 3693W        W 7893   7.257   4.870   3.103  0.2520 -0.1190  0.0173
 3694W        W 7894   1.285   5.858   4.369 -0.2988  0.1671  0.4858
 3695W        W 7895   2.488   8.674   2.836 -0.2611  0.0432  0.1964
 3696W        W 7896   6.080   3.895  13.073 -0.1406  0.3205 -0.0600
 3697W        W 7897   5.951   1.570   1.777 -0.2498  0.0352  0.1472
 3698W        W 7898   1.735   2.292  10.065 -0.0827 -0.0123 -0.0661
 3699W        W 7899   8.754   6.449   3.035  0.1860 -0.3487 -0.3850
 3700W        W 7900   2.764   9.774   5.760  0.1880 -0.2475 -0.1617
 3701W        W 7901   6.179   9.429   8.924 -0.1855  0.3518  0.4008
 3702W        W 7902   7.593   1.009   3.990 -0.0336 -0.4352  0.3486
 3703W        W 7903   4.859   8.151   3.712  0.0975 -0.1499 -0.1249
 3704W        W 7904   7.237   4.326   0.743  0.0722  0.1253 -0.2240
 3705W        W 7905   9.205   5.316   3.532  0.0679 -0.0301  0.0176
 3706W        W 7906   9.147   8.803  12.335 -0.1788  0.0519 -0.0976
 3707W        W 7907   5.324   3.085   3.388  0.0225  0.0890  0.2969
 3708W        W 7908   3.981   1.260   9.439  0.5200 -0.0311 -0.0209
 3709W        W 7909   8.688   5.885  11.254  0.0016 -0.0391  0.1783
 3710W        W 7910   7.347   8.711  10.417 -0.1869  0.0558  0.0237
 3711W        W 7911   3.517   2.990   4.146 -0.1592 -0.2459 -0.0753
 3712W        W 7912   1.962   3.930  11.477  0.0319 -0.0982  0.0806
 3713W        W 7913   2.058   0.160   2.564 -0.0920 -0.0628 -0.0622
 3714W        W 7914   3.582   1.442  13.237  0.1476  0.0251  0.0775
 3715W        W 7915   5.556   5.671   2.295 -0.1475  0.1584  0.0459
 3716W        W 7916   2.701   0.123   9.714  0.2194  0.0324  0.2990
 3717W        W 7917   7.718   0.542  12.438  0.2850 -0.0525  0.1437
 3718W        W 7918   1.146   3.880   2.768  0.0773 -0.3002  0.0930
 3719W        W 7919   2.565   7.159  11.652  0.2383  0.3490 -0.1144
 3720W        W 7920   7.537   1.815   1.766 -0.0009  0.2756 -0.0005
 3721W        W 7921   1.312   7.477  13.139 -0.1022  0.0292  0.1610
 3722W        W 7922   5.919   9.700   8.626  0.0418 -0.2015  0.1270
 3723W        W 7923   0.388   1.023   3.329 -0.0306  0.0480 -0.0864
 3724W        W 7924   1.208   2.361   4.158 -0.0509  0.0216  0.1526
 3725W        W 7925   6.738   7.517   9.791  0.0366  0.1829 -0.0358
 3726W        W 7926   1.205   8.713   3.391  0.0817 -0.1334  0.1375
 3727W        W 7927   1.568  10.154   2.776 -0.0604  0.0418 -0.2211
 3728W        W 7928   4.105   7.795   0.043  0.0508 -0.5093 -0.0563
 3729W        W 7929   9.098  10.247  13.037  0.1639  0.0682  0.2106
 3730W        W 7930   8.975   9.318  10.578 -0.0277 -0.0860 -0.3465
 3731W        W 7931   7.636   3.900   2.236  0.1059 -0.2549  0.1261
 3732W        W 7932   3.516   6.316   1.716 -0.1647  0.0831  0.2137
 3733W        W 7933   1.001   7.514   4.303  0.1308 -0.0250 -0.2472
 3734W        W 7934   1.684   0.770  12.752  0.1341  0.1376  0.3087
 3735W        W 7935   2.843   4.801   1.184 -0.0926  0.0974  0.1637
 3736W        W 7936   6.362   6.596   9.603  0.1098 -0.2634 -0.2834
 3737W        W 7937   1.360   0.608   1.256 -0.3260 -0.1840  0.1488
 3738W        W 7938   7.501   0.351   0.901  0.1081  0.0713 -0.0535
 3739W        W 7939   2.261   3.113  12.696  0.0904 -0.1697  0.2087
 3740W        W 7940   0.063   8.078  12.142  0.1397  0.0608 -0.0944
 3741W        W 7941   8.036   6.464  12.373  0.1150 -0.0350 -0.3390
 3742W        W 7942   1.974   9.040  11.747  0.0469  0.1548  0.0013
 3743W        W 7943   6.274   0.524   4.251  0.5096  0.2161  0.2920
 3744W        W 7944   9.491   5.591   9.740  0.1393  0.0919  0.1729
 3745W        W 7945   0.645   4.387  10.599  0.2780 -0.2030 -0.0122
 3746W        W 7946   9.699   3.769   3.917 -0.3142 -0.2312  0.0660
 3747W        W 7947   7.603   2.676   3.705 -0.0736 -0.3914 -0.3407
 3748W        W 7948   6.204   2.257   0.356 -0.0862  0.1785  0.0671
 3749W        W 7949   4.351   2.994  11.425  0.0360  0.0823  0.0005
 3750W        W 7950   0.420   0.567   3.838  0.1291  0.1973 -0.4426
 3751W        W 7951   5.597   4.372   3.764 -0.0637 -0.0378 -0.2362
 3752W        W 7952   2.634   9.586   9.211  0.0962 -0.0227 -0.1009
 3753W        W 7953   4.572   7.389   3.490 -0.0109  0.3954  0.2336
 3754W        W 7954   4.627   3.319   1.091 -0.5685 -0.1105  0.4572
 3755W        W 7955   8.905   8.338   8.992  0.0511 -0.0853 -0.0421
 3756W        W 7956   4.491   2.775   3.474  0.0832  0.1136 -0.2063
 3757W        W 7957   6.845   1.364   1.773 -0.3231  0.0573 -0.1796
 3758W        W 7958   9.502   2.090   4.449 -0.2436 -0.1959  0.1403
 3759W        W 7959   1.344   2.562   2.869 -0.0000  0.1530  0.0505
 3760W        W 7960   1.970   6.674  12.291 -0.1010 -0.0784 -0.0857
 3761W        W 7961   3.791   6.008  13.411 -0.1521  0.1480 -0.3576
 3762W        W 7962   5.699   8.756   4.515  0.3121 -0.0444 -0.0806
 3763W        W 7963   1.812   7.887   4.353  0.2267 -0.2592  0.0183
 3764W        W 7964   9.894   1.608  10.624  0.0349  0.0114  0.1123
 3765W        W 7965   4.833   2.546  12.821 -0.0193 -0.0004 -0.1483
 3766W        W 7966   5.777   7.957   4.753 -0.0623 -0.0218 -0.2567
 3767W        W 7967   5.692   8.596  10.970 -0.0001  0.2940 -0.0202
 3768W        W 7968   5.195   1.755   0.519 -0.1123  0.0342  0.3668
 3769W        W 7969   4.701   4.087   3.324 -0.1469 -0.0860 -0.0678
 3770W        W 7970   2.305   3.307  11.056  0.1056 -0.4034 -0.1061
 3771W        W 7971   3.255   3.439   4.972  0.2651  0.0914  0.0740
 3772W        W 7972   6.002   9.356   7.943 -0.0680  0.1098 -0.0246
 3773W        W 7973   9.646  10.099  12.616  0.1786  0.2126 -0.0798
 3774W        W 7974   1.713   1.057  11.646  0.0293  0.2881  0.0352
 3775W        W 7975   2.859   6.364  13.127 -0.0094  0.1871 -0.2433
 3776W        W 7976   9.925   1.418  11.564 -0.1622  0.1440  0.1906
 3777W        W 7977   1.898   6.811   0.958 -0.0601 -0.1212  0.0404
 3778W        W 7978   8.970   8.728   4.581  0.0959  0.2870 -0.3186
 3779W        W 7979   9.096   1.020  11.954  0.1560  0.2622 -0.1375
 3780W        W 7980   5.882   8.145   0.003  0.0841 -0.1058 -0.4991
 3781W        W 7981   6.978   6.741  12.392 -0.1498  0.0843  0.1941
 3782W        W 7982   5.155   9.070   9.658  0.0718 -0.0806 -0.1992
 3783W        W 7983   7.796   7.195   3.583 -0.2347  0.0264 -0.0018
 3784W        W 7984   6.069   8.444   4.518  0.0497 -0.1718 -0.0165
 3785W        W 7985   5.566   5.279   0.277  0.2089  0.1176 -0.0617
 3786W        W 7986   6.548   7.844   8.795 -0.0423 -0.1016 -0.0448
 3787W        W 7987  10.366   5.774   3.776 -0.0351  0.0655  0.0341
 3788W        W 7988   7.389   1.484   9.696  0.3535  0.0058 -0.1494
 3789W        W 7989   5.674   0.954   0.996  0.4936 -0.1777  0.3560
 3790W        W 7990   3.270   6.223   4.697  0.0345 -0.0378 -0.2145
 3791W        W 7991   2.494  10.214  11.454 -0.2006  0.2383  0.2079
 3792W        W 7992   5.973   8.945  10.777  0.0775 -0.1171 -0.2221
 3793W        W 7993   2.346   6.151   2.856  0.1346 -0.1143 -0.1875
 3794W        W 7994   1.768   8.732  10.933  0.0013  0.0719 -0.0487
 3795W        W 7995   7.292   9.137  11.272 -0.0165 -0.2312 -0.1179
 3796W        W 7996   4.005   9.613  12.646 -0.0891 -0.0832  0.1196
 3797W        W 7997   2.582   4.012   2.720 -0.2543  0.0900  0.4464
 3798W        W 7998  10.266   2.003   2.433 -0.0492 -0.0150  0.0857
 3799W        W 7999   9.741   3.661   0.268 -0.1630 -0.3615 -0.0166
 3800W        W 8000   6.722   8.146   0.157  0.0116 -0.0124  0.1997
 3801W        W 8001   6.788   0.572   1.028 -0.4174 -0.2322 -0.0868
 3802W        W 8002   6.166   4.061   1.809  0.0371 -0.1185 -0.1671
 3803W        W 8003   2.431   3.506   3.142 -0.1858 -0.0194 -0.1434
 3804W        W 8004   8.737   0.398  12.433  0.0459 -0.1024  0.2085
 3805W        W 8005   8.925  10.283   9.333  0.2159  0.1630  0.3729
 3806W        W 8006   2.670   8.868   3.639 -0.0013  0.2089  0.0351
 3807W        W 8007   6.124   0.322   3.161  0.0479 -0.0330  0.1304
 3808W        W 8008  10.240   9.356  13.127  0.2494  0.2327 -0.0892
 3809W        W 8009   3.842   5.765   2.465  0.2004 -0.3859  0.0348
 3810W        W 8010   4.855   0.927   0.969  0.1425 -0.0373  0.0394
 3811W        W 8011   5.965   4.944   1.769 -0.0347  0.0319  0.0565
 3812W        W 8012   0.170   7.783  10.307  0.2069 -0.3120 -0.2488
 3813W        W 8013   6.876   8.550   4.141 -0.2226  0.1444 -0.1110
 3814W        W 8014   6.040   7.069  12.060 -0.2183 -0.0889 -0.1479
 3815W        W 8015   2.454   2.155  11.506  0.0630  0.2194  0.2064
 3816W        W 8016   7.304   6.648  12.024 -0.2932  0.1344  0.0175
 3817W        W 8017   6.547   7.813   3.573 -0.3190  0.0436 -0.2839
 3818W        W 8018   6.968   0.907   1.944 -0.0630 -0.3667  0.1620
 3819W        W 8019   9.584   8.838  11.420 -0.5279 -0.1613 -0.0863
 3820W        W 8020   3.022   5.053  12.153  0.3598  0.1771 -0.0984
 3821W        W 8021   9.279   3.965  12.390 -0.1827  0.4424  0.0869
 3822W        W 8022   1.254   8.481   0.248 -0.2623  0.2681 -0.0180
 3823W        W 8023   4.864   9.275   1.350  0.1515  0.4389  0.1558
 3824W        W 8024   6.343   2.114  10.844  0.0860 -0.0974 -0.1966
 3825W        W 8025   0.312  10.135   0.990  0.1030  0.3078  0.3656
 3826W        W 8026   9.574   4.506   2.551  0.0161 -0.0182 -0.2481
 3827W        W 8027   8.338   5.078   0.150 -0.0008  0.4023 -0.4280
 3828W        W 8028   2.241   3.775   9.998 -0.1948  0.2086  0.0483
 3829W        W 8029   3.412   5.630   4.822  0.0834 -0.1410 -0.0697
 3830W        W 8030  10.086   1.462   0.318  0.0368 -0.1930 -0.0411
 3831W        W 8031   6.005   0.155   0.432  0.3131 -0.1381 -0.1558
 3832W        W 8032   0.840   0.989  11.849  0.2128  0.2424 -0.2908
 3833W        W 8033   7.390   9.657   1.962 -0.1164 -0.1670  0.3043
 3834W        W 8034   6.036   5.091  12.801 -0.2703  0.2253  0.0067
 3835W        W 8035   1.738   8.783  12.757 -0.0078 -0.0671  0.1090
 3836W        W 8036   9.198   4.911   2.376  0.0632  0.1394  0.4459
 3837W        W 8037   7.366   6.295  10.486 -0.0180 -0.2216 -0.2052
 3838W        W 8038   4.303   4.489  10.533 -0.0492  0.0587 -0.0133
 3839W        W 8039   5.149   6.971   9.047  0.1236  0.1351  0.2081
 3840W        W 8040   7.330   4.762  12.142  0.0341 -0.0155  0.0304
 3841W        W 8041   0.273   1.581  11.091 -0.1195 -0.0729 -0.0990
 3842W        W 8042   6.973   4.613   0.341 -0.1415 -0.0019  0.0396
 3843W        W 8043   0.758   0.692   9.248  0.2243  0.0320  0.0082
 3844W        W 8044   2.863   6.343   9.103 -0.0055 -0.1558  0.4060
 3845W        W 8045   6.616   8.894  12.441 -0.0875 -0.3408  0.0538
 3846W        W 8046   0.687   1.687  10.802 -0.0805 -0.0524 -0.1136
 3847W        W 8047   4.333   7.527   9.748 -0.0886 -0.1188  0.0176
 3848W        W 8048   1.237   5.687  10.365 -0.1128  0.2116 -0.0729
 3849W        W 8049   5.662   1.649  12.364 -0.0088 -0.1131 -0.1978
 3850W        W 8050   1.151   6.056   2.085  0.2314  0.2314  0.1361
 3851W        W 8051  10.076   8.184   2.314 -0.1319 -0.2370 -0.1796
 3852W        W 8052   3.432   9.078  12.364  0.3719  0.0348 -0.0489
 3853W        W 8053   5.586   8.788   3.525 -0.1239  0.3087  0.1061
 3854W        W 8054   7.045   6.647   9.588 -0.0409 -0.0492  0.2482
 3855W        W 8055   8.612   2.694   1.369  0.2039 -0.0661 -0.4681
 3856W        W 8056   8.935   2.345   2.615 -0.2961  0.2528 -0.2490
 3857W        W 8057   7.490   5.763  10.272  0.0483  0.0114 -0.2638
 3858W        W 8058   9.409   1.550  11.437  0.2290 -0.2701 -0.1764
 3859W        W 8059   9.239   0.275  12.350  0.2004  0.2018  0.1764
 3860W        W 8060   5.242   5.539   3.444 -0.0675  0.1033 -0.4528
 3861W        W 8061   8.084   4.624   3.028 -0.2552  0.1600 -0.1376
 3862W        W 8062   3.449   4.265   0.025  0.2121 -0.0952  0.0889
 3863W        W 8063   4.768  10.432   0.054 -0.1205 -0.3111 -0.1605
 3864W        W 8064   6.033   9.256   9.955 -0.2800  0.4002 -0.3730
 3865W        W 8065   1.304   9.229   3.402 -0.1647  0.1185  0.3084
 3866W        W 8066   4.198   8.331  10.405 -0.0053 -0.1941  0.4126
 3867W        W 8067   6.995   8.870   8.071 -0.0630 -0.1138  0.2266
 3868W        W 8068   9.680   7.659   4.358  0.0494  0.0553 -0.0622
 3869W        W 8069   0.640   3.242  11.108  0.1999  0.0453  0.2913
 3870W        W 8070   6.296   3.623   3.632 -0.0380 -0.0491  0.2084
 3871W        W 8071   3.893   9.025   5.138 -0.2358  0.0653 -0.1178
 3872W        W 8072   9.524   3.272  11.371 -0.1078 -0.3129  0.0356
 3873W        W 8073   6.765   1.786   0.564 -0.0377  0.0315  0.0289
 3874W        W 8074   8.578   2.401  10.704  0.3578  0.1037  0.0380
 3875W        W 8075   5.968   7.490   8.776 -0.0005 -0.1209  0.2907
 3876W        W 8076   4.561   6.264   4.822 -0.0316 -0.1672  0.3584
 3877W        W 8077   2.713   2.972   2.897  0.3266  0.2863 -0.0682
 3878W        W 8078   9.622   0.766   9.561  0.0938  0.2514  0.0016
 3879W        W 8079   0.120   3.627   1.749  0.3550 -0.0764  0.3863
 3880W        W 8080   1.791   4.222   1.554  0.1114  0.1487 -0.1444
 3881W        W 8081   9.219   2.632   2.969  0.0097 -0.2127  0.1193
 3882W        W 8082   9.557   2.133  10.324  0.4630  0.1705 -0.0236
 3883W        W 8083   2.220   1.960   4.178  0.0498  0.1841  0.2362
 3884W        W 8084   7.081   7.600  12.355 -0.0813  0.3632  0.0817
 3885W        W 8085   5.004   4.476  10.758 -0.1084  0.0930 -0.0829
 3886W        W 8086   8.117   5.374  11.887 -0.0364 -0.3513  0.0352
 3887W        W 8087  10.279   1.045   0.054  0.1296 -0.3326  0.0877
 3888W        W 8088   4.039   0.762   1.623  0.1244  0.0657 -0.1201
 3889W        W 8089   8.334   1.607  12.085  0.1160 -0.2850 -0.0920
 3890W        W 8090   3.289   7.606  11.891 -0.3165 -0.1968 -0.1890
 3891W        W 8091   8.345   4.626   0.385  0.3379  0.2963 -0.4634
 3892W        W 8092   0.482   6.917   9.635 -0.2574  0.1347  0.1039
 3893W        W 8093   2.230   2.841  10.867  0.0896 -0.0915 -0.1885
 3894W        W 8094   9.518   2.627  10.371 -0.3352 -0.2189 -0.0377
 3895W        W 8095   9.429   6.773   1.807  0.1140  0.2197  0.1674
 3896W        W 8096   2.727   8.944   0.860  0.0515 -0.3245 -0.4507
 3897W        W 8097   7.257  10.104  10.790  0.1143  0.0995  0.0702
 3898W        W 8098   9.467   1.416  11.899 -0.1557  0.2055  0.1998
 3899W        W 8099   4.673   5.052   3.413 -0.3165 -0.1606 -0.4265
 3900W        W 8100   1.005   6.106  12.525 -0.5443  0.1340  0.2464
 3901W        W 8101   0.949   5.318  10.390 -0.0456 -0.1703  0.1043
 3902W        W 8102  10.113   0.338   2.604 -0.0891  0.0298  0.1971
 3903W        W 8103   8.295   5.721  10.323 -0.0996  0.1328  0.0309
 3904W        W 8104   8.382   6.667   9.153  0.3473  0.0720 -0.1430
 3905W        W 8105   1.939   3.441  10.198 -0.2078  0.2687 -0.0665
 3906W        W 8106   8.357   4.312  12.371  0.1037  0.0877  0.0203
 3907W        W 8107   4.341   8.698   3.369 -0.0507 -0.1164 -0.2712
 3908W        W 8108   8.356   9.562   1.415 -0.0618  0.0754  0.0255
 3909W        W 8109   2.675   0.301   4.204 -0.0292 -0.1041 -0.1383
 3910W        W 8110   1.919   1.406  10.928  0.0120 -0.1309  0.0516
 3911W        W 8111   8.281   1.823   2.476  0.3825 -0.0984 -0.1610
 3912W        W 8112   7.194   7.055  11.108 -0.0517 -0.0796 -0.0488
 3913W        W 8113   1.949   9.803  12.920  0.1108 -0.2566  0.1948
 3914W        W 8114   6.815   2.840  13.298 -0.1439 -0.2860 -0.3131
 3915W        W 8115   1.943   5.658   9.215  0.3376  0.2085 -0.3680
 3916W        W 8116   4.371   9.219  12.538  0.0655  0.1856  0.0575
 3917W        W 8117   2.332   9.866   4.016  0.1999 -0.1437 -0.0762
 3918W        W 8118   0.431   2.390  10.059  0.2086  0.1795 -0.0373
 3919W        W 8119   7.448   3.071   3.943 -0.0504 -0.2577 -0.0251
 3920W        W 8120   2.528   5.103   9.969  0.0634 -0.1518 -0.3321
 3921W        W 8121   7.462  10.151   9.468  0.1148 -0.3409  0.1948
 3922W        W 8122   5.288   9.373   1.079  0.0409 -0.2495 -0.1768
 3923W        W 8123   1.884   5.070   4.547 -0.1191  0.0519  0.0553
 3924W        W 8124   4.402   4.386  12.423  0.0085 -0.1292  0.0486
 3925W        W 8125   6.891   5.242   2.866 -0.0073 -0.3758  0.2031
 3926W        W 8126   3.437   2.783   9.433  0.3965 -0.2350  0.2301
 3927W        W 8127   2.408  10.256   2.631 -0.0069  0.0045 -0.2610
 3928W        W 8128   4.128   5.504  10.948  0.1395 -0.1475  0.2136
 3929W        W 8129   2.945   2.978  10.506  0.2255 -0.2044  0.3066
 3930W        W 8130   9.270   1.058   4.521 -0.1382 -0.1494  0.2951
 3931W        W 8131   5.009  10.033   3.354 -0.0189  0.2764 -0.2180
 3932W        W 8132   1.452   9.455   2.161 -0.0729  0.0559 -0.3622
 3933W        W 8133   8.818   0.631   3.818 -0.0273 -0.1417  0.0815
 3934W        W 8134   5.212   6.828   4.230  0.1713  0.1505 -0.2260
 3935W        W 8135   0.354   7.694  11.289 -0.0558 -0.0743  0.1067
 3936W        W 8136   0.875   1.254   9.226 -0.0392  0.2399  0.1492
 3937W        W 8137   5.055   0.100  12.521  0.2585 -0.1747 -0.2026
 3938W        W 8138   4.556   7.692   1.201  0.1812  0.1120 -0.0437
 3939W        W 8139   3.729   5.511  12.743 -0.1181  0.2733  0.0417
 3940W        W 8140   6.617   7.240   2.707 -0.1265  0.4130 -0.0675
 3941W        W 8141   0.557   7.923   0.038 -0.0256 -0.0050  0.2174
 3942W        W 8142   1.979   4.177   4.318  0.4081  0.1697 -0.1268
 3943W        W 8143   8.168   5.593   4.626 -0.0908  0.1157  0.2084
 3944W        W 8144   2.684   6.074   1.476  0.1873 -0.4249 -0.0834
 3945W        W 8145   6.053   9.016   4.294 -0.0083 -0.1249  0.0225
 3946W        W 8146   0.256   4.727   2.598 -0.2880  0.1532  0.2124
 3947W        W 8147   0.918   6.670   8.402 -0.0866 -0.2107  0.0036
 3948W        W 8148   3.658   1.612  11.697 -0.0501  0.0991 -0.0859
 3949W        W 8149   0.259   6.616   0.477 -0.0351 -0.0071 -0.0851
 3950W        W 8150  10.398   5.469   2.499 -0.2324 -0.2815  0.2766
 3951W        W 8151   3.673   2.542  11.626 -0.1213 -0.0298  0.0361
 3952W        W 8152   7.866   1.263  11.127  0.3090 -0.2441  0.0930
 3953W        W 8153   1.101   0.873   0.322  0.0397  0.1343  0.0469
 3954W        W 8154   9.088   1.101   3.464 -0.1870 -0.1473 -0.0248
 3955W        W 8155   1.350   6.413  10.389  0.0139 -0.0422  0.1698
 3956W        W 8156   1.778   2.479  11.400  0.0204 -0.1300  0.5661
 3957W        W 8157   3.560   2.647   3.105  0.0883 -0.1254  0.2120
 3958W        W 8158   6.980   6.273   1.424  0.1765  0.2421  0.0454
 3959W        W 8159   2.220   4.492  12.659 -0.0200 -0.4863  0.0080
 3960W        W 8160   8.474   7.899  13.157  0.1003  0.1284 -0.1726
 3961W        W 8161   5.220   8.577  10.646 -0.1488 -0.2430  0.0104
 3962W        W 8162   1.526   0.049   3.178 -0.1566 -0.0750  0.2827
 3963W        W 8163   5.872   9.451  11.545  0.1392  0.1146  0.1888
 3964W        W 8164   1.657   7.941  10.519 -0.1770  0.0291 -0.2562
 3965W        W 8165   7.063   8.059   4.592  0.0951  0.0187 -0.0532
 3966W        W 8166  10.147   8.141   4.746 -0.2793 -0.2644 -0.0808
 3967W        W 8167   6.122   5.135   4.715  0.0850 -0.1259  0.0642
 3968W        W 8168   5.239   8.470   3.471 -0.0271  0.3900 -0.0015
 3969W        W 8169   3.111   2.790   3.276  0.0826 -0.4003  0.0253
 3970W        W 8170   9.535   3.019   1.093  0.0988 -0.3685  0.0683
 3971W        W 8171   4.526   6.213  11.375 -0.3747  0.1012 -0.1673
 3972W        W 8172   9.713   4.395   1.268  0.1044  0.3856 -0.3528
 3973W        W 8173   8.511   7.794   1.266 -0.1616 -0.0640 -0.2072
 3974W        W 8174   2.181   2.143   9.802 -0.0879 -0.0700  0.1278
 3975W        W 8175   4.445   5.356   0.887 -0.2937  0.0639  0.0996
 3976W        W 8176   1.958   1.960   9.386 -0.1167  0.1627  0.2627
 3977W        W 8177   0.901   2.911   3.399 -0.1730  0.0890 -0.3234
 3978W        W 8178   1.225   9.835  10.077  0.4580 -0.2276 -0.2753
 3979W        W 8179   9.724   5.174  12.757  0.2092  0.0911  0.0545
 3980W        W 8180   9.677   1.039   3.737 -0.1105 -0.3210  0.0323
 3981W        W 8181   2.909   8.945  12.253  0.1484 -0.2420 -0.0820
 3982W        W 8182   0.327   9.230  12.063 -0.1422 -0.1149 -0.0840
 3983W        W 8183   3.340   9.749   0.843  0.1026  0.1793  0.1135
 3984W        W 8184   0.944   9.619   9.587  0.0600 -0.1828  0.6768
 3985W        W 8185   2.240   4.209   3.028 -0.0632 -0.0489  0.2290
 3986W        W 8186  10.047   1.463   3.825 -0.0247  0.0657  0.0548
 3987W        W 8187   9.738   9.434   2.022  0.1888 -0.1137  0.1035
 3988W        W 8188   0.262   2.858  12.644  0.2607 -0.1415  0.0485
 3989W        W 8189  10.400   1.687   0.659  0.2443 -0.0797 -0.1820
 3990W        W 8190   7.631   7.168  10.983 -0.0575 -0.1999 -0.0467
 3991W        W 8191   7.947   0.324   1.247 -0.1931 -0.0488  0.1856
 3992W        W 8192   8.862   8.043   1.014 -0.2778  0.2011  0.2112
 3993W        W 8193   4.120   8.471  12.269 -0.2628  0.3013  0.0862
 3994W        W 8194   9.172   5.591   1.804  0.1889  0.0791  0.0877
 3995W        W 8195   6.364   5.646   2.679 -0.3319  0.2184  0.1932
 3996W        W 8196   6.572   3.736   0.386  0.2438 -0.0869 -0.0844
 3997W        W 8197   6.957   8.441   9.748 -0.0564 -0.0302 -0.0996
 3998W        W 8198  10.044   8.787  11.101  0.2872  0.1492  0.0868
 3999W        W 8199   7.709   7.901   5.146 -0.0771  0.0898  0.2510
 4000W        W 8200   4.621   7.181   0.556  0.0490 -0.2572  0.0932
 4001W        W 8201   8.493   5.848   3.794  0.1726 -0.2327  0.4186
 4002W        W 8202   8.226   6.977   0.618  0.0525  0.0097  0.0859
 4003W        W 8203   3.177   8.989   1.674  0.1297  0.1562  0.1083
 4004W        W 8204   5.200   5.264  12.819  0.1770 -0.2584  0.0009
 4005W        W 8205   4.239   5.745  12.744 -0.1347 -0.0678  0.1924
 4006W        W 8206   5.597   1.638   1.346  0.1739 -0.0075 -0.2927
 4007W        W 8207   6.169   8.652   8.318 -0.0065  0.0163  0.2776
 4008W        W 8208   0.937   4.109   4.119  0.2303 -0.0499  0.2090
 4009W        W 8209   4.839   4.332  11.264 -0.1074  0.1104  0.0734
 4010W        W 8210   2.404  10.437  10.687 -0.0185 -0.0709  0.3191
 4011W        W 8211   1.216   7.310  10.382 -0.1397  0.2575 -0.0767
 4012W        W 8212   0.863   7.011   3.055  0.2012  0.0371  0.1740
 4013W        W 8213   0.601   6.375   1.464 -0.0218 -0.2608  0.2817
 4014W        W 8214   9.725   6.814  10.063 -0.0772  0.1867 -0.2055
 4015W        W 8215   1.176   6.932   2.045 -0.3464 -0.2362 -0.0201
 4016W        W 8216   3.374   0.969  12.957 -0.1017 -0.1120  0.0313
 4017W        W 8217   0.982   1.165   2.544 -0.2545 -0.1611  0.0168
 4018W        W 8218   9.983   8.206  11.223  0.0174 -0.1671  0.4779
 4019W        W 8219   6.895   1.623  13.336 -0.1389 -0.1620  0.0271
 4020W        W 8220   0.526   8.708  11.274 -0.1137 -0.2169  0.0893
 4021W        W 8221   4.682   4.898  12.790 -0.1820  0.2627 -0.0048
 4022W        W 8222   3.627   2.843  13.022 -0.3622  0.1528  0.0067
 4023W        W 8223   6.251   9.252   0.626 -0.1990 -0.0749  0.0557
 4024W        W 8224   5.541   2.410  10.308  0.2632  0.2212 -0.1701
 4025W        W 8225   4.141   5.413   8.824 -0.0805 -0.0459  0.0067
 4026W        W 8226   0.276   5.187   2.801 -0.1948  0.1879 -0.1174
 4027W        W 8227   7.949   5.431   0.422 -0.0638  0.0968  0.3427
 4028W        W 8228   4.897  10.188   4.399 -0.1407  0.1115 -0.0967
 4029W        W 8229   4.655   3.987   2.696  0.1277 -0.0877 -0.1497
 4030W        W 8230   7.776   0.393  13.196 -0.0524  0.4991  0.1107
 4031W        W 8231   2.183   0.893  11.700 -0.2080  0.4688 -0.0685
 4032W        W 8232   8.034   8.219  10.676  0.2262 -0.0963  0.0960
 4033W        W 8233   7.270   7.786   4.928  0.1146  0.1158  0.4254
 4034W        W 8234   9.031   3.458   1.541  0.0562 -0.0666 -0.5653
 4035W        W 8235   7.800   8.959  10.322  0.1312  0.0724 -0.1633
 4036W        W 8236   9.504   9.076   1.699  0.2117  0.1682 -0.0715
 4037W        W 8237   6.546   4.619   2.639 -0.3164  0.1044 -0.3141
 4038W        W 8238   6.461   3.207  10.579  0.1476  0.2200  0.0145
 4039W        W 8239   1.251   1.481  12.541  0.0373  0.1331  0.2246
 4040W        W 8240   7.967   9.597   4.300 -0.0830  0.2732 -0.3310
 4041W        W 8241   7.014   1.400   0.785 -0.3863 -0.0088  0.1516
 4042W        W 8242   9.139   1.642   1.164 -0.1169  0.0132  0.0278
 4043W        W 8243   7.628  10.014  12.306  0.0258  0.0374  0.1533
 4044W        W 8244   0.808   6.050  11.902 -0.0037  0.2146 -0.1081
 4045W        W 8245   4.235   4.984   0.638  0.0281  0.1673  0.2646
 4046W        W 8246   8.038   0.193  12.780  0.1458  0.0253 -0.0973
 4047W        W 8247   8.778   5.923   1.730 -0.0559 -0.1252 -0.1276
 4048W        W 8248  10.268   1.996   9.320  0.1427 -0.0932 -0.0473
 4049W        W 8249   5.567   9.543  12.850 -0.1297 -0.3987 -0.2308
 4050W        W 8250   7.654   5.924   2.574 -0.2631 -0.0757  0.0031
 4051W        W 8251   7.182   8.422   3.091 -0.1865 -0.0054 -0.0422
 4052W        W 8252   8.908   0.505  11.102  0.2052 -0.0482  0.1442
 4053W        W 8253   0.546   4.302   9.289  0.1358 -0.0368 -0.0693
 4054W        W 8254   9.719   0.925   4.823 -0.2511  0.0291 -0.1542
 4055W        W 8255   6.332   3.405   2.983 -0.0425  0.0811 -0.2893
 4056W        W 8256   4.848   2.455   1.283  0.1077  0.0437  0.0516
 4057W        W 8257   1.871   6.366   1.897 -0.0214  0.2608  0.0539
 4058W        W 8258   9.148   7.625   3.480 -0.3283  0.2132  0.1454
 4059W        W 8259   0.502   8.250   3.121 -0.0942 -0.0690 -0.0293
 4060W        W 8260   7.878   7.047  10.583  0.2305  0.0210 -0.2602
 4061W        W 8261   1.656   9.585   3.286 -0.0570 -0.1490 -0.0089
 4062W        W 8262   0.439   4.473   2.132 -0.0030  0.0327  0.2586
 4063W        W 8263   9.246   9.448  12.866 -0.2937 -0.2400  0.0083
 4064W        W 8264   3.405   2.377   1.136  0.1728 -0.2020 -0.3594
 4065W        W 8265   0.224   8.799   2.953 -0.1413  0.1939 -0.3766
 4066W        W 8266   8.764   9.324   8.353  0.1364 -0.3340 -0.0961
 4067W        W 8267   4.869   6.972  12.456 -0.1392 -0.0519 -0.2046
 4068W        W 8268   1.571   1.068  12.423  0.0046  0.2670 -0.3101
 4069W        W 8269  10.432   0.950   1.121 -0.0710 -0.1689  0.1312
 4070W        W 8270   1.938   8.340   9.088  0.0905 -0.1820 -0.0269
 4071W        W 8271   3.834   8.846  11.447  0.2068 -0.3679 -0.1005
 4072W        W 8272   2.613   5.554   1.305  0.2181 -0.2490 -0.0355
 4073W        W 8273   3.076   1.633  13.326 -0.1998  0.0137  0.1740
 4074W        W 8274   1.115   0.336   3.042  0.2669  0.0598 -0.0926
 4075W        W 8275   0.602   5.966   4.906 -0.2043 -0.0861  0.0762
 4076W        W 8276   5.056   8.618   4.986 -0.1653  0.2256  0.1942
 4077W        W 8277   6.385  10.271  12.894  0.0728 -0.2884 -0.2571
 4078W        W 8278   8.563   4.704   2.886  0.1051 -0.0570  0.0973
 4079W        W 8279   0.354   5.053   0.431 -0.2169 -0.0575  0.1128
 4080W        W 8280   4.636   4.425   0.452  0.1775 -0.0107  0.2794
 4081W        W 8281   0.003   5.061   1.490 -0.1559  0.1757  0.0765
 4082W        W 8282   5.208   2.291  13.139 -0.0421  0.1797 -0.3133
 4083W        W 8283   5.216   8.114   1.532  0.0736  0.0530  0.2718
 4084W        W 8284   1.914  10.096   9.334 -0.2638 -0.4260 -0.0476
 4085W        W 8285   7.266   6.187   9.575  0.2169 -0.0293  0.0396
 4086W        W 8286   2.767   8.005   0.702 -0.0596 -0.3569  0.2789
 4087W        W 8287   8.810   9.352  10.097 -0.1727 -0.0272 -0.2664
 4088W        W 8288   9.572   5.220   9.425  0.1708 -0.1886 -0.1230
 4089W        W 8289   2.681   3.218  13.099 -0.1460 -0.1278  0.2372
 4090W        W 8290  10.049   8.891  12.324  0.0345 -0.2156  0.1543
 4091W        W 8291   5.706   1.023  13.377 -0.0972 -0.0716 -0.2808
 4092W        W 8292   9.435   9.463   3.815 -0.0024 -0.1349  0.1480
 4093W        W 8293   3.951   3.422   2.276  0.2231 -0.2218 -0.0135
 4094W        W 8294   0.692   7.007   3.519 -0.0895 -0.1613 -0.1150
 4095W        W 8295   7.785   7.462   5.472  0.3863  0.0756 -0.0276
 4096W        W 8296   9.168   5.203   4.051 -0.0588  0.0896  0.0920
 4097W        W 8297   6.405   8.014  12.757  0.1060  0.1712  0.0114
 4098W        W 8298   0.315   4.184  13.003  0.1541  0.0673 -0.2076
 4099W        W 8299   3.615   7.882   2.378 -0.2271 -0.0792 -0.2207
 4100W        W 8300   2.346   7.516   9.685 -0.0852 -0.2307 -0.0829
 4101W        W 8301   0.950   5.652  12.382 -0.1031 -0.0161 -0.2100
 4102W        W 8302   8.780   0.947  10.629 -0.0864  0.3144  0.2534
 4103W        W 8303   3.358   5.856  11.030 -0.1557  0.0048 -0.4625
 4104W        W 8304   4.182   4.411  11.902 -0.1971  0.0417  0.2963
 4105W        W 8305   8.211   4.955  11.534 -0.0338 -0.2564  0.4201
 4106W        W 8306   6.983   2.508  12.971 -0.2350  0.1310 -0.0655
 4107W        W 8307   2.479   8.405   0.668  0.2909  0.0434 -0.1550
 4108W        W 8308   3.344   4.168   2.205 -0.0784  0.0115  0.3035
 4109W        W 8309   9.550   1.466   3.526 -0.2258  0.2724  0.0686
 4110W        W 8310   5.739   0.810  12.374 -0.3496  0.0910 -0.1226
 4111W        W 8311   1.945   9.740   3.692  0.1002 -0.3593  0.0546
 4112W        W 8312   7.253   6.639   3.824  0.0483 -0.0710 -0.2605
 4113W        W 8313   1.794   3.472   9.738  0.1851  0.0629 -0.1617
 4114W        W 8314   1.290   9.001   0.919 -0.0932 -0.3093  0.1245
 4115W        W 8315   1.745   7.143  12.828 -0.2025 -0.1687  0.0715
 4116W        W 8316   2.976   2.774  12.265  0.0283  0.0547  0.2255
 4117W        W 8317   8.403   0.465   3.547 -0.4422 -0.0283 -0.2106
 4118W        W 8318   2.919   0.067   9.293  0.3382 -0.0750 -0.0043
 4119W        W 8319   6.456   7.344   3.789 -0.0223 -0.0751 -0.2499
 4120W        W 8320   0.618   9.803   4.264 -0.0162 -0.1239 -0.0367
 4121W        W 8321   3.811   6.272   2.442 -0.1759  0.1038  0.0086
 4122W        W 8322   9.129   9.871  12.569 -0.2201 -0.0358 -0.1019
 4123W        W 8323   6.219   0.789  12.666 -0.1614 -0.1368  0.1669
 4124W        W 8324  10.194   8.900   0.971  0.0822 -0.1600  0.2604
 4125W        W 8325   1.373   5.458  11.801  0.2306  0.0170 -0.0550
 4126W        W 8326   3.763   8.053  12.407  0.2002 -0.0246 -0.0830
 4127W        W 8327   8.686   4.948  10.965  0.0478 -0.2196 -0.0513
 4128W        W 8328   9.964   7.535   0.992  0.1725 -0.1489  0.1075
 4129W        W 8329   0.125   7.077  10.858  0.2301  0.0603 -0.1954
 4130W        W 8330   0.015   6.148  13.292 -0.2418 -0.0746  0.1451
 4131W        W 8331   0.740   4.252   3.085 -0.1297 -0.1230  0.1457
 4132W        W 8332   3.676   0.389  11.005  0.0586  0.4712 -0.0524
 4133W        W 8333   7.601   3.397  10.040  0.0342 -0.3655  0.1524
 4134W        W 8334   9.641   5.004  10.886 -0.3304  0.3921 -0.3377
 4135W        W 8335   5.799   3.775   1.064 -0.1890  0.1850 -0.0269
 4136W        W 8336   4.114   6.540  11.505  0.1014 -0.5053  0.0089
 4137W        W 8337   2.013   8.423  10.077 -0.1292 -0.0112 -0.1329
 4138W        W 8338  10.159   3.625  11.994  0.3606 -0.1493 -0.0414
 4139W        W 8339   0.392   6.708   8.179 -0.0268  0.2417 -0.1888
 4140W        W 8340   6.026   7.420   3.588  0.0000 -0.0433  0.1974
 4141W        W 8341   4.448   3.744   3.103  0.1532 -0.3690  0.0514
 4142W        W 8342   6.853   7.362   2.094 -0.2113 -0.0971  0.0199
 4143W        W 8343   1.876   4.952   3.312  0.1641 -0.0656 -0.0081
 4144W        W 8344   6.888   8.581   1.591 -0.3491  0.0118  0.4292
 4145W        W 8345   4.383   9.570   3.662 -0.0376  0.3256  0.0523
 4146W        W 8346   7.036  10.222  13.144  0.0930  0.2025 -0.3605
 4147W        W 8347   9.727   1.516   1.330 -0.0647  0.0393  0.0395
 4148W        W 8348   5.649   1.313   3.646  0.1861  0.1134  0.2739
 4149W        W 8349  10.080   9.205   0.543 -0.1539  0.1263 -0.1348
 4150W        W 8350   6.382   5.969   9.735 -0.0951 -0.1294  0.0898
 4151W        W 8351   3.696   9.279   4.049 -0.0877  0.0851  0.1183
 4152W        W 8352   6.841   9.974   2.788  0.2633  0.0775 -0.2484
 4153W        W 8353   8.736   3.672  12.941  0.1537 -0.1487 -0.0450
 4154W        W 8354  10.403   5.010   9.647  0.1768  0.1471  0.0710
 4155W        W 8355   0.389   1.702   3.840  0.0902 -0.2507  0.0710
 4156W        W 8356   3.267   8.955   9.806 -0.2626  0.1165 -0.1222
 4157W        W 8357   9.384   8.636   0.645  0.0701  0.6645 -0.2041
 4158W        W 8358   2.239   0.647   2.749  0.0188  0.0853  0.1347
 4159W        W 8359   7.094   4.458  11.067 -0.1555  0.2732 -0.3503
 4160W        W 8360   1.416   5.879  12.655  0.1099  0.1833  0.2719
 4161W        W 8361   9.549   0.152  10.998 -0.0199 -0.0871 -0.2690
 4162W        W 8362  10.125   7.661   2.469 -0.3280 -0.0375 -0.1318
 4163W        W 8363   1.117  10.120   1.806 -0.2600  0.0114 -0.1976
 4164W        W 8364   2.833   0.900   0.142  0.2820  0.1658 -0.1506
 4165W        W 8365   6.957   2.805  10.856  0.1413 -0.0467  0.0731
 4166W        W 8366   1.782   3.559   0.752 -0.1687  0.2299  0.3299
 4167W        W 8367  10.025   6.247  13.249 -0.0871  0.0522 -0.1830
 4168W        W 8368   3.231   1.461   3.973  0.0894 -0.4144  0.1721
 4169W        W 8369   3.769   6.826   0.737 -0.2248 -0.2896 -0.0985
 4170W        W 8370   7.495   7.454   4.014  0.2002  0.3375 -0.1163
 4171W        W 8371   7.271   9.681  12.455 -0.2003  0.0032 -0.3966
 4172W        W 8372   3.580   0.663   1.657 -0.0223  0.1497  0.0913
 4173W        W 8373   0.156   3.904   2.348  0.1064  0.0824  0.1758
 4174W        W 8374   5.624   9.341   2.350 -0.3979  0.0207  0.1056
 4175W        W 8375   8.953   1.380  13.217 -0.1480 -0.3157  0.2573
 4176W        W 8376  10.192   5.359  12.687  0.5437  0.0864  0.1486
 4177W        W 8377   8.409   4.501   0.970  0.1724 -0.0299 -0.2467
 4178W        W 8378   9.655   7.647   3.390 -0.1110  0.1663  0.1782
 4179W        W 8379   1.366   0.282  11.987  0.1711 -0.0293  0.0831
 4180W        W 8380   4.491   9.607  12.309  0.0983  0.2075 -0.1703
 4181W        W 8381   7.127   7.152   2.472  0.0335  0.0425 -0.0195
 4182W        W 8382   7.154   2.123   1.966  0.3883  0.0517 -0.2589
 4183W        W 8383   7.137   4.546   3.512  0.0509  0.0423  0.1864
 4184W        W 8384   9.934   6.214   2.817  0.2724  0.0077 -0.0275
 4185W        W 8385   3.701   8.466  10.185  0.1312 -0.0181  0.2492
 4186W        W 8386   9.024   5.907  10.783 -0.1906 -0.1564  0.0502
 4187W        W 8387   9.145   6.939   0.094 -0.1882 -0.3079  0.2857
 4188W        W 8388   2.056  10.228   9.850 -0.0984 -0.1736 -0.3050
 4189W        W 8389   4.905  10.440  12.971  0.1359 -0.2650  0.0849
 4190W        W 8390   9.653  10.396   2.437  0.1177  0.1175  0.1978
 4191W        W 8391   0.462   7.125   1.696  0.1650 -0.0654  0.4171
 4192W        W 8392   3.724   2.139   1.597 -0.0347  0.1051 -0.1316
 4193W        W 8393   2.428   2.573  10.548 -0.1172  0.1144 -0.0554
 4194W        W 8394   4.289   7.872   8.322 -0.2504  0.4286  0.2096
 4195W        W 8395   7.014   4.769   4.386 -0.0649  0.1088  0.0597
 4196W        W 8396   1.507   5.026   5.365  0.2474 -0.0275  0.2804
 4197W        W 8397   9.137   6.071  13.292 -0.1142 -0.1281 -0.0755
 4198W        W 8398   1.135   8.013   2.076  0.2041  0.1354 -0.0548
 4199W        W 8399   2.048   7.625   5.012  0.1397 -0.1033  0.1202
 4200W        W 8400   4.556   8.718   0.622 -0.0724  0.0969 -0.1635
 4201W        W 8401   7.579   4.380   3.711  0.0291 -0.1189  0.0631
 4202W        W 8402   1.708   6.149  10.717  0.0299  0.1743  0.2431
 4203W        W 8403   2.971   9.087  10.238  0.2380  0.1666 -0.1216
 4204W        W 8404   3.843   1.258  10.693  0.0582  0.0095  0.0846
 4205W        W 8405   0.574   1.549   9.024  0.0914 -0.2498 -0.0292
 4206W        W 8406   2.333   9.878   9.548  0.2872 -0.3775 -0.0944
 4207W        W 8407   7.720   5.552   2.892 -0.2715  0.2407 -0.0931
 4208W        W 8408   4.232   2.589   1.496 -0.1017  0.3380  0.1750
 4209W        W 8409   2.866   0.744  11.694  0.0410 -0.0634  0.1057
 4210W        W 8410   5.125   9.527   1.695  0.0574 -0.2169  0.4214
 4211W        W 8411   2.914   0.680  13.094  0.0413 -0.0422  0.2471
 4212W        W 8412   7.421   6.228   3.369  0.1094 -0.0258 -0.3009
 4213W        W 8413   5.176   8.273  12.875  0.0856  0.1125  0.0144
 4214W        W 8414   3.375   1.952   9.642  0.2783  0.1619 -0.2071
 4215W        W 8415   4.710   2.850   9.929 -0.1169  0.0658 -0.2063
 4216W        W 8416   2.147   2.574   3.570 -0.0558  0.2215  0.0381
 4217W        W 8417   1.495   3.708  11.594 -0.1488 -0.2227 -0.0959
 4218W        W 8418   6.120   9.251   0.140  0.4469  0.1360 -0.2207
 4219W        W 8419  10.025   7.118  11.641  0.0392 -0.1093  0.0492
 4220W        W 8420   1.381   1.572   4.545  0.0782 -0.2887 -0.0401
 4221W        W 8421   2.420   2.846  11.364  0.0504 -0.2645  0.3800
 4222W        W 8422   0.914   4.631   1.289  0.0268  0.0788 -0.0428
 4223W        W 8423   0.070   1.857  12.731 -0.0659  0.2035 -0.2335
 4224W        W 8424   3.341   7.101   3.940  0.0484  0.2122 -0.2814
 4225W        W 8425   3.509   2.787  11.270  0.0286  0.0306 -0.0316
 4226W        W 8426   2.460   9.872  11.981  0.4868 -0.0271  0.1678
 4227W        W 8427   7.318   8.405   1.229 -0.1805 -0.2954  0.1138
 4228W        W 8428   0.635   6.753   0.015 -0.1217 -0.1630 -0.2298
 4229W        W 8429   9.343   4.580  12.234 -0.1509  0.0007  0.1504
 4230W        W 8430   3.548   6.772   4.258 -0.0270  0.0060  0.1977
 4231W        W 8431  10.445   0.743   3.138  0.0979  0.2471 -0.1518
 4232W        W 8432   4.604   5.828   3.990 -0.0459  0.0289  0.0557
 4233W        W 8433   8.828   0.117  13.287 -0.0854 -0.0124 -0.1191
 4234W        W 8434   2.513   1.833  13.349  0.2483 -0.0728  0.0081
 4235W        W 8435   8.442   9.604   2.715 -0.0965 -0.1583  0.0206
 4236W        W 8436   2.798   4.312   5.013  0.1379  0.0273  0.0455
 4237W        W 8437   2.927   0.051   3.367  0.0021  0.1223 -0.4299
 4238W        W 8438   5.634   4.345  12.349  0.0137 -0.1970 -0.0595
 4239W        W 8439   5.884   5.805   2.696  0.0213  0.2201 -0.4236
 4240W        W 8440   3.815   8.496   1.130  0.0120 -0.1388  0.1365
 4241W        W 8441   6.828   1.371  10.950 -0.2793  0.0434  0.2200
 4242W        W 8442   4.153   3.195   1.314 -0.3527  0.1725 -0.3343
 4243W        W 8443   4.508   8.120  11.218  0.1135 -0.0534  0.0854
 4244W        W 8444  10.027   9.489   2.966 -0.3077  0.0132  0.0628
 4245W        W 8445   5.941   9.236   1.526 -0.0398  0.1017  0.0317
 4246W        W 8446  10.111   4.132  11.796 -0.2076 -0.1859 -0.0278
 4247W        W 8447   4.163   1.664   1.071  0.2907 -0.1050 -0.0256
 4248W        W 8448   6.397   9.085   3.013 -0.0809 -0.0078 -0.0361
 4249W        W 8449   2.134   2.578   0.656 -0.4098  0.2960 -0.3311
 4250W        W 8450   7.335   4.240   2.478  0.0935 -0.1440  0.1247
 4251W        W 8451   7.533   3.081   2.332  0.1410 -0.3457  0.0541
 4252W        W 8452   6.464   6.407   3.681 -0.1259 -0.0513 -0.4269
 4253W        W 8453   1.987   8.614  11.990 -0.3401 -0.1871 -0.2652
 4254W        W 8454   0.109   6.113  12.232  0.0546 -0.2933  0.1976
 4255W        W 8455   4.046   5.668   0.669 -0.3012  0.2035  0.0421
 4256W        W 8456   7.113   5.233   1.115  0.0500  0.0588  0.2097
 4257W        W 8457   8.677   8.296   4.867 -0.1039  0.1004 -0.1891
 4258W        W 8458   7.962   5.666   9.491 -0.0945 -0.1059 -0.2134
 4259W        W 8459   9.092   1.678  10.972  0.0345 -0.0165  0.0502
 4260W        W 8460   8.443   4.226  10.460  0.0250 -0.2341 -0.2270
 4261W        W 8461   8.111  10.242  11.066 -0.1709  0.0741 -0.0565
 4262W        W 8462   3.804   1.707   0.232  0.1568 -0.1710 -0.2470
 4263W        W 8463   2.664   1.499  11.389  0.0190  0.0738  0.0900
 4264W        W 8464   7.512   1.072   9.957  0.1878  0.1970  0.3574
 4265W        W 8465   5.021   3.640   2.822 -0.0567  0.5026  0.0673
 4266W        W 8466   4.833   1.326   1.970 -0.4454 -0.1249  0.0070
 4267W        W 8467   9.165   3.924  12.895 -0.1077 -0.0714  0.0144
 4268W        W 8468   9.616   2.197  13.215  0.0665 -0.1471 -0.1438
 4269W        W 8469   9.346   8.752  11.866  0.0327 -0.0543 -0.2402
 4270W        W 8470   8.746   3.610  11.154  0.1799 -0.0763 -0.1035
 4271W        W 8471   2.037   4.050  10.379 -0.0186 -0.0631  0.0405
 4272W        W 8472   1.019   5.334   0.819  0.1261  0.1394  0.1640
 4273W        W 8473   6.493  10.333   9.171 -0.0647 -0.1316  0.1786
 4274W        W 8474   4.725   7.713   3.132 -0.0328 -0.0510 -0.4779
 4275W        W 8475   5.862   7.647   3.044  0.0288 -0.5234  0.0191
 4276W        W 8476   9.539   6.796   9.062  0.1894 -0.3315  0.0318
 4277W        W 8477   6.044   6.557  12.236 -0.0767 -0.0368  0.1809
 4278W        W 8478   6.892   6.105  11.428 -0.1421  0.1706  0.1304
 4279W        W 8479   3.309   5.876   3.515  0.0987  0.4245 -0.2111
 4280W        W 8480   5.491   6.081  11.579 -0.1705 -0.3237  0.1685
 4281W        W 8481   6.875   0.122   9.006  0.1255  0.3906 -0.1201
 4282W        W 8482   4.537   1.960   3.848 -0.0685  0.0209 -0.1598
 4283W        W 8483   4.169   2.894  10.004 -0.1440  0.1137  0.2960
 4284W        W 8484   1.065   9.754   1.492  0.0946  0.1122  0.2652
 4285W        W 8485   9.487   1.310  13.201 -0.0691  0.0894  0.0402
 4286W        W 8486   8.276   4.170   2.685 -0.1486  0.4226  0.1675
 4287W        W 8487   3.035   7.223   3.470  0.1369  0.1241  0.1969
 4288W        W 8488   0.161   8.204   1.165 -0.1085 -0.1585  0.0312
 4289W        W 8489   3.771   0.479  10.089 -0.1479  0.2740  0.2595
 4290W        W 8490   9.259   7.267   1.628  0.1882  0.1344 -0.0026
 4291W        W 8491   9.366   6.895   1.239  0.1076 -0.4343 -0.5565
 4292W        W 8492   6.669   9.690  10.242  0.1612  0.0955  0.0744
 4293W        W 8493   7.501   0.530   1.366  0.0818  0.1137  0.0064
 4294W        W 8494   1.984   8.471   0.855 -0.1280  0.1641 -0.2459
 4295W        W 8495   0.333  10.341  13.048  0.1324  0.2653 -0.0658
 4296W        W 8496   3.916   1.321   0.683 -0.3153  0.2315  0.2196
 4297W        W 8497   7.567   6.046   8.353 -0.0465  0.0493  0.1178
 4298W        W 8498   7.293  10.297  12.603 -0.2992  0.0623  0.2057
 4299W        W 8499   2.410   1.104   9.943 -0.0015 -0.2727  0.3176
 4300W        W 8500   9.992   6.065   2.016 -0.0673 -0.0270 -0.1134
 4301W        W 8501   8.463   2.788   9.611 -0.4420  0.0265  0.1338
 4302W        W 8502  10.107   4.053   2.378 -0.0472  0.3887 -0.3250
 4303W        W 8503   4.969   3.793  11.421 -0.1364  0.1871  0.1888
 4304W        W 8504   0.878   1.844   4.362 -0.2002  0.0222  0.0270
 4305W        W 8505   5.372   6.277   2.135  0.0325 -0.0929  0.4125
 4306W        W 8506   7.634   4.110   1.225  0.1239 -0.1306  0.3328
 4307W        W 8507   0.851   1.213  12.863  0.1938  0.2657  0.0937
 4308W        W 8508   1.409   5.351  13.449 -0.0484 -0.2309 -0.0659
 4309W        W 8509   2.154   5.368   0.156 -0.0179 -0.1460  0.1027
 4310W        W 8510   1.136   6.862   0.031  0.1368 -0.0980  0.2023
 4311W        W 8511   3.650  10.108   3.339  0.0303 -0.0574  0.0233
 4312W        W 8512   5.640   7.260   3.262 -0.0821 -0.1785 -0.2124
 4313W        W 8513   7.669   1.205   0.685 -0.0312 -0.3436  0.0801
 4314W        W 8514   5.983   4.000  12.258 -0.3442  0.0133  0.0981
 4315W        W 8515   0.971   0.951   9.594  0.0422  0.0403  0.2451
 4316W        W 8516   5.358   8.620  10.096 -0.1011  0.0503  0.1667
 4317W        W 8517   9.230   9.796   0.531 -0.0670 -0.0539  0.1656
 4318W        W 8518   8.211   8.101   9.499  0.0536  0.0739  0.0095
 4319W        W 8519   9.428   2.117  12.614 -0.2654 -0.0474  0.0450
 4320W        W 8520   0.873   8.442  13.380  0.2228  0.1417  0.3462
 4321W        W 8521   4.496  10.290   2.968 -0.1105  0.0038  0.3236
 4322W        W 8522   4.644   7.245   1.117  0.0087  0.2924  0.0677
 4323W        W 8523   3.035   7.302   9.853  0.1585 -0.1322  0.1637
 4324W        W 8524   1.074   1.654   3.409  0.0317  0.0502  0.2298
 4325W        W 8525   0.664   0.138   3.185  0.0353  0.0337 -0.2119
 4326W        W 8526   9.163   7.379  11.155 -0.0022  0.2202 -0.2683
 4327W        W 8527   8.621   4.156   9.251 -0.1818  0.2593 -0.0225
 4328W        W 8528   0.572   2.913   0.660  0.2322  0.0793  0.2786
 4329W        W 8529   3.984   9.757   1.670  0.0118 -0.0404 -0.0340
 4330W        W 8530   6.566   6.094   0.650 -0.1152 -0.0341  0.2806
 4331W        W 8531   6.283   5.482   1.661 -0.0657 -0.3122 -0.2295
 4332W        W 8532   4.639   9.306   4.065 -0.0996  0.0733  0.2855
 4333W        W 8533   5.775   4.802  11.001  0.0382 -0.0375 -0.0688
 4334W        W 8534   3.296   0.561   0.173  0.1862  0.1571 -0.2591
 4335W        W 8535   2.499   4.023  10.752 -0.1428  0.0143 -0.1107
 4336W        W 8536   5.802   6.420  13.283 -0.0580  0.0031 -0.5954
 4337W        W 8537   9.092   7.287  12.965  0.0905 -0.1488  0.2875
 4338W        W 8538   9.214   7.352   5.078 -0.1133  0.0581  0.0131
 4339W        W 8539   5.546   4.375   2.740 -0.2084 -0.0169 -0.4404
 4340W        W 8540  10.355  10.305  13.229  0.0824  0.1853  0.0930
 4341W        W 8541   4.131   0.212  11.435  0.2597 -0.3786  0.2502
 4342W        W 8542   2.120   7.230   1.968  0.1614 -0.0439  0.1342
 4343W        W 8543   9.993   8.727   1.587 -0.1999 -0.0863 -0.2265
 4344W        W 8544   4.606   8.886   4.305  0.2141  0.2984 -0.1433
 4345W        W 8545   1.600   2.257  13.263  0.0950  0.1794  0.2006
 4346W        W 8546   9.941   1.938  12.485  0.0362 -0.0700 -0.0187
 4347W        W 8547   0.688   8.993  10.073 -0.1627 -0.0069  0.1181
 4348W        W 8548   3.606   4.842   3.964  0.0720  0.3994  0.0719
 4349W        W 8549   6.474   0.229   3.833  0.0441 -0.0843  0.1646
 4350W        W 8550   9.277  10.305   0.576  0.0064 -0.0178  0.1014
 4351W        W 8551   6.023   5.247   0.033 -0.1048  0.0227  0.0330
 4352W        W 8552   6.995   3.833   0.038  0.2515 -0.1147 -0.0347
 4353W        W 8553   0.366   9.519   3.560  0.0152  0.0058 -0.1538
 4354W        W 8554   4.071   6.174   5.101  0.1928 -0.0728  0.0379
 4355W        W 8555   8.055   9.266   3.473  0.0085  0.1888 -0.3667
 4356W        W 8556   8.605  10.172  10.814  0.2896  0.0880 -0.0644
 4357W        W 8557   0.806   7.155   0.329 -0.2082  0.0366  0.3082
 4358W        W 8558   1.894   4.626  10.537 -0.0520  0.1683 -0.1741
 4359W        W 8559   9.668   9.950   0.910 -0.0862 -0.2694 -0.1236
 4360W        W 8560   3.421   0.937   2.214 -0.0980 -0.1082 -0.1742
 4361W        W 8561   9.592   0.454   2.643  0.2805 -0.0136 -0.0969
 4362W        W 8562   9.307   7.260   8.866  0.0357  0.1273  0.1087
 4363W        W 8563   3.790   0.860  12.548  0.0146  0.2351 -0.2158
 4364W        W 8564   1.589   8.709   3.749 -0.2280  0.0188 -0.3520
 4365W        W 8565  10.024   7.694  11.025  0.0690 -0.1895  0.1680
 4366W        W 8566   5.174   9.599  10.982  0.2726 -0.0405  0.2714
 4367W        W 8567   6.946   2.334   1.526  0.1410  0.0908  0.0724
 4368W        W 8568   2.693   9.379   0.230  0.0302 -0.2654 -0.1004
 4369W        W 8569   8.867   4.591   3.334 -0.0745 -0.2606 -0.0035
 4370W        W 8570   8.081   8.844  12.278 -0.1601 -0.0375  0.0163
 4371W        W 8571   2.518   3.237   1.145  0.1744  0.2883 -0.4855
 4372W        W 8572   3.892   7.150   3.617  0.2266 -0.2687 -0.2164
 4373W        W 8573   1.027   2.182  12.279  0.1574 -0.2508  0.0321
 4374W        W 8574   3.228   0.500  11.963  0.0181  0.1164  0.1564
 4375W        W 8575   9.982   2.954   1.371  0.1233 -0.1745 -0.0008
 4376W        W 8576   0.808   6.661   1.826  0.3183  0.2833  0.2137
 4377W        W 8577   2.971   2.707   1.776  0.0067 -0.0900 -0.1029
 4378W        W 8578   9.465  10.419   1.941  0.1521  0.0677  0.3137
 4379W        W 8579   7.453   6.830   4.671 -0.1874 -0.1088 -0.2373
 4380W        W 8580   1.015   1.490   2.967  0.0491  0.2766 -0.1566
 4381W        W 8581  10.295   6.913   1.471 -0.0295 -0.1319 -0.0122
 4382W        W 8582   5.722   0.622   2.965  0.0164 -0.0065  0.1398
 4383W        W 8583   3.142  10.298  11.763  0.2080  0.0606 -0.0808
 4384W        W 8584   9.644   9.011   0.361  0.0759  0.4056 -0.1957
 4385W        W 8585   9.128   8.071   4.416  0.1953  0.2981  0.4972
 4386W        W 8586   8.692   2.988  10.851  0.0831  0.1993  0.1294
 4387W        W 8587   7.368   2.494  11.647 -0.0207 -0.4691  0.3153
 4388W        W 8588   1.352   6.814   5.294 -0.0417 -0.2543  0.0303
 4389W        W 8589   2.450   1.628  10.567  0.3403 -0.0534  0.1609
 4390W        W 8590   4.408   5.265  12.730  0.0867  0.1342  0.1212
 4391W        W 8591   2.718   7.808   1.823 -0.2593  0.1666 -0.2838
 4392W        W 8592   0.272   3.442   9.326 -0.0844 -0.0898 -0.0732
 4393W        W 8593   1.818   7.167  12.263 -0.2432 -0.1338 -0.0700
 4394W        W 8594   9.815   1.780  12.036  0.0885  0.1723 -0.1094
 4395W        W 8595   3.877   9.586   9.748  0.3929  0.0093  0.0415
 4396W        W 8596   8.502   2.712  11.568  0.1358 -0.0309  0.2502
 4397W        W 8597   5.884   3.077   3.029  0.1537 -0.1779 -0.4152
 4398W        W 8598   4.681   6.136  12.724  0.0435  0.0302 -0.2975
 4399W        W 8599   0.720   0.968   8.809 -0.2131 -0.1224 -0.2231
 4400W        W 8600   7.665   6.858   1.464  0.2379 -0.2461 -0.1019
 4401W        W 8601   8.009   6.041   4.751  0.1603 -0.2720  0.0875
 4402W        W 8602   8.013   2.810   0.094 -0.0372  0.1414  0.0075
 4403W        W 8603   0.409   8.227   8.990 -0.0994 -0.1810 -0.2432
 4404W        W 8604   8.731   5.439  10.211  0.2071  0.1165  0.4657
 4405W        W 8605   5.926   5.610   1.245  0.0528 -0.2670 -0.2530
 4406W        W 8606   4.799   7.260   4.878  0.0075 -0.0213 -0.1014
 4407W        W 8607   0.092   4.359   9.775 -0.1187 -0.0546 -0.2932
 4408W        W 8608   3.638   9.282   0.894 -0.1739 -0.0865  0.0175
 4409W        W 8609   6.981   1.687  11.914 -0.0472 -0.0363 -0.4632
 4410W        W 8610   7.269   6.594   2.345  0.0565 -0.0628 -0.3740
 4411W        W 8611   8.470   8.960  13.392 -0.2481 -0.1003  0.0127
 4412W        W 8612   4.250   1.918   0.228 -0.0052  0.1045  0.1702
 4413W        W 8613   4.334   8.138  13.188 -0.1581  0.1410  0.4737
 4414W        W 8614   2.241   0.241   1.546  0.4921  0.2135  0.0666
 4415W        W 8615   2.464   1.052   2.454  0.0494  0.5859  0.2136
 4416W        W 8616  10.374   2.163   4.358  0.1056 -0.0561 -0.0114
 4417W        W 8617   6.635   9.100   9.052  0.1884  0.0726  0.0782
 4418W        W 8618   4.547   7.821   4.057 -0.2332 -0.0474 -0.0181
 4419W        W 8619   5.616  10.133   9.384  0.0553  0.0688  0.1345
 4420W        W 8620   0.180   3.968   0.491  0.2767  0.0264 -0.0923
 4421W        W 8621   0.562   8.645   8.786  0.1641 -0.1435  0.1971
 4422W        W 8622   7.574   7.749   8.651  0.2039  0.2931 -0.1685
 4423W        W 8623   8.092   2.224   4.339  0.0346  0.1581  0.1481
 4424W        W 8624   6.453   0.915  11.690  0.2899  0.1888 -0.2115
 4425W        W 8625   9.695   3.635  12.376  0.0993 -0.2059 -0.4863
 4426W        W 8626   0.186   0.917   2.266 -0.2818  0.0664  0.1952
 4427W        W 8627   7.636   0.701  10.310  0.1455 -0.1531  0.1347
 4428W        W 8628   0.499   5.930  11.550  0.0481 -0.0474 -0.3963
 4429W        W 8629   2.448   6.158   1.994 -0.4266  0.0551  0.1009
 4430W        W 8630   9.786   5.528   1.116 -0.2008 -0.0724 -0.1166
 4431W        W 8631   3.502   0.859  10.917  0.2743 -0.1643 -0.1658
 4432W        W 8632   3.123   9.922  10.196  0.0868  0.0734  0.0239
 4433W        W 8633   0.477   9.774   3.152  0.4069  0.2780 -0.0358
 4434W        W 8634   7.998   6.260   0.922  0.0208 -0.0054  0.0573
 4435W        W 8635   5.293  10.136  11.115 -0.3010  0.1443 -0.0614
 4436W        W 8636   4.154   6.345   4.581  0.2141 -0.1974  0.0587
 4437W        W 8637  10.377   3.671  10.506 -0.1041 -0.0494  0.0763
 4438W        W 8638   3.293   8.876   8.235  0.1373 -0.2927 -0.1317
 4439W        W 8639   6.538   1.310  12.136 -0.1647 -0.2209  0.0533
 4440W        W 8640   6.054   7.816   1.914 -0.4029 -0.3714  0.1432
 4441W        W 8641   2.722  10.183  12.254  0.1121 -0.4101 -0.0637
 4442W        W 8642   2.714   6.519   8.597  0.1934  0.0126  0.2739
 4443W        W 8643   3.763   4.028  12.604  0.0074  0.2238 -0.1630
 4444W        W 8644   1.116   4.359   9.094 -0.1323 -0.1568  0.0881
 4445W        W 8645   2.608   5.858   0.908 -0.0936 -0.0088 -0.2032
 4446W        W 8646   6.352   3.554  12.042  0.1440  0.0222  0.0760
 4447W        W 8647   0.314   1.794   1.034 -0.0448  0.0581 -0.0928
 4448W        W 8648   8.750   3.552   4.273 -0.0114  0.3115 -0.2820
 4449W        W 8649   4.946   7.194  10.274 -0.0910 -0.3622  0.1755
 4450W        W 8650   1.267   8.192   0.698  0.1453  0.1172 -0.4123
 4451W        W 8651   5.414   4.075   0.951 -0.0071  0.1215  0.0354
 4452W        W 8652   2.120   7.415  11.819  0.0052  0.1058 -0.0712
 4453W        W 8653   0.537   4.343   1.076  0.1204  0.1186 -0.1764
 4454W        W 8654   7.938   9.152   2.611  0.2791 -0.0044  0.0544
 4455W        W 8655  10.224   9.315  10.921  0.1418 -0.3305 -0.1988
 4456W        W 8656   8.036   3.850   4.488 -0.0138  0.0827 -0.0297
 4457W        W 8657   1.778   6.003   4.289  0.0277  0.3029 -0.2959
 4458W        W 8658   7.229   2.840  11.971 -0.0576  0.1173  0.1001
 4459W        W 8659   4.691   8.909   0.116 -0.2472  0.2090  0.1227
 4460W        W 8660   0.030   0.269  10.178  0.0633 -0.0036  0.1518
 4461W        W 8661   0.366   9.726   9.361  0.0381 -0.0945 -0.2051
 4462W        W 8662   7.334   4.297  11.933  0.2667  0.3281  0.0463
 4463W        W 8663   6.563   8.029   2.134  0.0201  0.1602  0.1332
 4464W        W 8664   1.058  10.159   3.880 -0.0971  0.0342 -0.2072
 4465W        W 8665   0.571   0.142   4.735  0.3072  0.0025  0.3528
 4466W        W 8666   9.428   7.435   0.107  0.2372  0.2037  0.2628
 4467W        W 8667   0.171   4.049   1.019  0.2298  0.1676 -0.0201
 4468W        W 8668   4.157   4.790  12.782 -0.1470  0.0646 -0.0986
 4469W        W 8669   2.088   0.547   3.652 -0.2550  0.1931  0.1131
 4470W        W 8670   8.924   4.005   4.291  0.1976 -0.3758  0.0700
 4471W        W 8671  10.367   2.908  10.433 -0.0311 -0.1067 -0.3549
 4472W        W 8672   9.429   2.073  11.273 -0.0104  0.2555  0.1877
 4473W        W 8673   5.456   5.759   1.817  0.0800  0.0110 -0.0979
 4474W        W 8674   8.845   0.468   3.247  0.1314  0.3741 -0.1333
 4475W        W 8675   0.913   3.205   1.977 -0.0052  0.0588 -0.2041
 4476W        W 8676   4.786   0.918  12.369 -0.1540  0.3361  0.0172
 4477W        W 8677   8.724   0.099  10.502 -0.0888 -0.2488  0.1120
 4478W        W 8678   6.346   1.606  11.055 -0.0366  0.0624 -0.1850
 4479W        W 8679   6.348   7.132   9.533 -0.1603 -0.1376 -0.1833
 4480W        W 8680   4.822   8.941  12.650 -0.0959 -0.2077  0.0496
 4481W        W 8681   5.398   4.715   3.077  0.2211 -0.2148 -0.1699
 4482W        W 8682   6.391   5.862  11.962  0.2282 -0.2719 -0.3293
 4483W        W 8683   3.048   6.684   4.075  0.2626  0.2582  0.1093
 4484W        W 8684   9.005   0.470  11.983  0.0577 -0.0305  0.2394
 4485W        W 8685   4.398   6.790   0.972 -0.0496 -0.0315  0.0237
 4486W        W 8686   6.383   9.340  12.847 -0.0519  0.1694 -0.2123
 4487W        W 8687   0.258   8.324   9.980 -0.1509  0.0148  0.4145
 4488W        W 8688   7.878   9.823  11.833 -0.0703  0.2071 -0.2259
 4489W        W 8689   5.283   4.278  12.794 -0.1119  0.0327  0.1345
 4490W        W 8690   3.841   1.412  12.696 -0.0225  0.0175 -0.2883
 4491W        W 8691   7.252   7.264   1.590  0.1138 -0.3038 -0.1714
 4492W        W 8692   7.075   6.058  12.768 -0.0925  0.1065  0.1148
 4493W        W 8693   6.457   9.192   9.614  0.0961  0.1402  0.1434
 4494W        W 8694   1.118   9.570   4.134 -0.1899  0.0872  0.0259
 4495W        W 8695   3.417   0.098   0.479  0.1582 -0.1585  0.0309
 4496W        W 8696   2.187   3.090   3.363 -0.1721  0.0152  0.0620
 4497W        W 8697   7.777   8.877  11.237 -0.0322  0.0184 -0.0865
 4498W        W 8698   6.183   8.633   0.852  0.1435  0.0673  0.0889
 4499W        W 8699   9.367   6.259   0.782 -0.1040  0.2021  0.2845
 4500W        W 8700   1.064   3.861   3.281 -0.0775  0.0997 -0.2350
 4501W        W 8701   5.639   3.593  12.389  0.2887 -0.0113 -0.0323
 4502W        W 8702   3.981   3.075   0.274 -0.1583  0.0820 -0.6506
 4503W        W 8703   3.998   2.360   1.990 -0.1476  0.0586 -0.3134
 4504W        W 8704   0.249   4.048   4.774 -0.0390  0.1214  0.4366
 4505W        W 8705   1.562   0.235  12.806  0.1495 -0.1655 -0.3417
 4506W        W 8706   7.277   1.807   0.820 -0.0101 -0.0029 -0.1572
 4507W        W 8707   0.762   0.736  12.567  0.3997 -0.1481  0.0979
 4508W        W 8708   7.202   2.242  12.060 -0.0166  0.0325  0.1303
 4509W        W 8709   5.144   0.443   1.660  0.0169  0.0570 -0.0103
 4510W        W 8710   0.899   6.629   0.948 -0.0139  0.2546  0.1118
 4511W        W 8711   1.430   8.492   8.967 -0.1640 -0.1930  0.1792
 4512W        W 8712   3.402   6.303  12.002 -0.2229 -0.0080 -0.3933
 4513W        W 8713   3.336   0.753  10.221 -0.1755  0.1369 -0.1491
 4514W        W 8714   6.240   7.407   1.400  0.0121  0.2388 -0.0720
 4515W        W 8715   8.016   4.056   3.115 -0.0063  0.1524 -0.0442
 4516W        W 8716   2.358   4.537  12.164 -0.0545 -0.0857  0.1005
 4517W        W 8717   3.267   8.893   4.575 -0.1079 -0.0719  0.2589
 4518W        W 8718   6.568   3.706   2.279  0.1284 -0.3082  0.0874
 4519W        W 8719   0.780   3.421  12.123  0.1942 -0.1369  0.1130
 4520W        W 8720   9.468   0.083   3.918  0.0758  0.1446  0.3561
 4521W        W 8721   6.657   9.784   4.219 -0.1126  0.0564  0.1445
 4522W        W 8722   2.272  10.095  13.262  0.3327  0.0175 -0.2153
 4523W        W 8723   5.530   1.550  11.708 -0.1212  0.2446  0.1204
 4524W        W 8724   9.191   5.169   1.108  0.0851  0.0467  0.3682
 4525W        W 8725   2.081   6.949  13.100 -0.0387 -0.0246 -0.0272
 4526W        W 8726   3.518   9.285   9.579  0.1402  0.2887  0.3939
 4527W        W 8727   1.779   3.424  12.428  0.3281  0.0479 -0.1420
 4528W        W 8728   8.634   4.215   0.307 -0.0633 -0.0604  0.0185
 4529W        W 8729   9.290   1.613  10.429 -0.2021  0.2952  0.2674
 4530W        W 8730   7.395   9.435   2.692  0.0309 -0.3460  0.2596
 4531W        W 8731   8.318   8.136   3.179  0.1828  0.1380  0.4223
 4532W        W 8732   2.484  10.292   4.863 -0.0295 -0.4099  0.2096
 4533W        W 8733   0.477   4.841  10.879 -0.2478  0.0657 -0.0324
 4534W        W 8734   2.223   3.888   2.379  0.1245  0.1954  0.0614
 4535W        W 8735   2.548   4.505  10.898  0.1323 -0.2078  0.0379
 4536W        W 8736   1.913   2.446   0.160 -0.3830 -0.0504 -0.0315
 4537W        W 8737   9.733   6.319  10.119 -0.0305  0.0654 -0.1973
 4538W        W 8738   8.487   2.423   0.924 -0.1619 -0.0367  0.0990
 4539W        W 8739  10.173   6.013  11.256  0.0229  0.1453 -0.0806
 4540W        W 8740   5.093   5.004  10.911  0.1694 -0.1842  0.0632
 4541W        W 8741   9.993   4.274   3.135 -0.0547 -0.0923  0.2374
 4542W        W 8742  10.227   2.612   0.428  0.3965 -0.1980  0.2306
 4543W        W 8743  10.180   5.805   1.096 -0.2102 -0.0114  0.1471
 4544W        W 8744   2.168   9.485   2.504  0.2412 -0.1680  0.1863
 4545W        W 8745   3.625   1.935  10.066 -0.2780 -0.2127 -0.0711
 4546W        W 8746   4.018   3.391  10.467 -0.1696 -0.1193 -0.0247
 4547W        W 8747   9.155   2.709   3.572  0.0675 -0.1208 -0.0316
 4548W        W 8748   0.571   4.229  11.411 -0.1256  0.0391  0.1269
 4549W        W 8749   6.969   9.290   9.443 -0.0567  0.1590 -0.0304
 4550W        W 8750   4.138   5.345   2.495 -0.4347 -0.1148  0.2354
 4551W        W 8751   7.672   4.425   2.152 -0.1370 -0.0541  0.0055
 4552W        W 8752   7.870   7.884  10.346 -0.2439 -0.2070  0.1948
 4553W        W 8753   5.072   5.710   2.749 -0.0512  0.1480  0.0444
 4554W        W 8754   5.062   7.329   0.797 -0.0075 -0.0294  0.1531
 4555W        W 8755   1.085   7.345   9.157 -0.2718  0.1733  0.2147
 4556W        W 8756   5.264   5.927   8.432  0.1885  0.2683  0.0922
 4557W        W 8757   6.959   8.174   2.389 -0.1365  0.1925 -0.0500
 4558W        W 8758   1.536   3.623  12.899  0.2263 -0.2982 -0.0310
 4559W        W 8759   0.559   5.059  12.473  0.1869  0.0531  0.1656
 4560W        W 8760   1.046   4.513  11.072  0.0229 -0.3138  0.0007
 4561W        W 8761   0.901   3.607   0.095  0.0783 -0.3939  0.1910
 4562W        W 8762   3.818   7.264   9.011 -0.0428  0.1402  0.0948
 4563W        W 8763   5.604   0.230  11.581 -0.1309  0.0397 -0.0799
 4564W        W 8764   3.861   2.802   1.228 -0.4001  0.0337 -0.0136
 4565W        W 8765   7.825   1.070  12.379  0.0081  0.1080  0.0327
 4566W        W 8766   4.474   3.487   0.292 -0.0367 -0.3064  0.1230
 4567W        W 8767   3.924   6.099   0.460  0.1947  0.1226 -0.1225
 4568W        W 8768   1.208  10.409  13.134 -0.0025 -0.1421 -0.2152
 4569W        W 8769   9.279   4.529   2.070  0.3451  0.2554 -0.3407
 4570W        W 8770   2.974   4.745   3.259 -0.0716  0.1113  0.1738
 4571W        W 8771   2.154   8.876   3.712  0.0079 -0.1311 -0.1529
 4572W        W 8772   2.962   4.658  11.180  0.2415  0.1232  0.3636
 4573W        W 8773   3.929   2.330   1.012  0.0148 -0.0331 -0.1153
 4574W        W 8774   4.427   8.075   8.773  0.3625 -0.0454 -0.1486
 4575W        W 8775   0.653  10.244  13.450  0.0108 -0.0754  0.1673
 4576W        W 8776   1.245  10.149  10.837 -0.0142 -0.2513 -0.3448
 4577W        W 8777   7.927   9.955   0.020  0.1831 -0.1581  0.1217
 4578W        W 8778   6.487  10.279   3.467 -0.1198  0.0516 -0.2014
 4579W        W 8779   3.399   6.343   2.824  0.2290  0.1081  0.0878
 4580W        W 8780   1.640   7.096   9.363  0.2624  0.0684 -0.2732
 4581W        W 8781   9.559   1.084  12.770 -0.2892 -0.0194  0.0059
 4582W        W 8782   2.932   9.080   2.682 -0.3694  0.1412  0.4745
 4583W        W 8783   7.483   8.029  11.129 -0.3447  0.4196 -0.0181
 4584W        W 8784   8.853   9.191  11.861  0.0711 -0.4372  0.1750
 4585W        W 8785   7.574   9.960   1.474  0.2613 -0.0129  0.1030
 4586W        W 8786   7.266   7.254   4.928  0.1042 -0.2549  0.1831
 4587W        W 8787   5.707   0.500   3.963 -0.0692  0.1685  0.1083
 4588W        W 8788   7.638   2.220  10.468 -0.0137 -0.2618  0.1136
 4589W        W 8789   2.751   3.562   9.128  0.2160 -0.2130  0.3222
 4590W        W 8790   8.341   8.866   0.519  0.0889 -0.1650 -0.1941
 4591W        W 8791   5.401   4.451   2.230 -0.0002  0.1252 -0.2691
 4592W        W 8792   2.087   9.334   3.418  0.2516 -0.2764  0.0393
 4593W        W 8793   9.797   3.367  11.877  0.2476 -0.0329  0.2168
 4594W        W 8794   6.545   2.754   2.279 -0.3964  0.0584 -0.0287
 4595W        W 8795   0.285   0.712   8.994  0.0687 -0.1621 -0.0503
 4596W        W 8796   2.250   9.316   9.530  0.0403  0.2962  0.1440
 4597W        W 8797   3.579   3.545   3.336 -0.0617 -0.1481 -0.1354
 4598W        W 8798   6.837   9.197   1.623 -0.1441 -0.0937  0.1485
 4599W        W 8799   0.780   7.827   3.125 -0.1589  0.0729 -0.0395
 4600W        W 8800   6.537   2.767   0.276  0.1383 -0.2099 -0.2218
 4601W        W 8801   5.097  10.230   0.369  0.0206  0.1056 -0.1002
 4602W        W 8802   2.016   8.566   0.378 -0.1710 -0.0244 -0.3400
 4603W        W 8803   1.351   8.975   2.181  0.2973  0.1417  0.1841
 4604W        W 8804  10.064   9.748   0.425 -0.1112 -0.0058 -0.2186
 4605W        W 8805   7.681   2.281  13.246 -0.1462 -0.0394  0.0058
 4606W        W 8806   5.696   4.023  12.692  0.1674  0.0179 -0.1949
 4607W        W 8807  10.249   6.456   1.149  0.0962 -0.1262 -0.5141
 4608W        W 8808   0.851   8.649  10.440 -0.0340  0.0817 -0.1590
 4609W        W 8809   7.082   2.619   9.896  0.0628  0.0438  0.0365
 4610W        W 8810   7.869   6.633   8.771 -0.2574  0.0885 -0.0190
 4611W        W 8811   9.648   6.640   3.603 -0.2184  0.2577 -0.1080
 4612W        W 8812   1.196   2.763   4.496 -0.2447  0.3256  0.0916
 4613W        W 8813   0.854   6.354   3.164  0.0011  0.2340  0.0790
 4614W        W 8814   1.327   6.483  11.725 -0.2387 -0.2973 -0.1868
 4615W        W 8815   4.934   9.685  11.441  0.0511 -0.2513  0.0761
 4616W        W 8816   5.506   7.885  11.461 -0.1874 -0.1197 -0.0964
 4617W        W 8817   4.257   9.267   0.108 -0.1258  0.0864 -0.1329
 4618W        W 8818   2.365   0.818  13.425  0.0237  0.3168 -0.3756
 4619W        W 8819   4.802   9.375   5.038 -0.3748 -0.1236  0.1895
 4620W        W 8820   4.151   3.159   2.648 -0.1508  0.0926  0.1331
 4621W        W 8821   9.244  10.140   2.624 -0.0218 -0.0834 -0.0204
 4622W        W 8822   8.342   7.590  11.482 -0.1542  0.3639 -0.1655
 4623W        W 8823   4.815   5.331  12.478 -0.0769 -0.1792 -0.1401
 4624W        W 8824   4.328   5.620   2.145 -0.3055 -0.1111 -0.3756
 4625W        W 8825   7.313   9.599  10.922  0.0912  0.0150  0.0740
 4626W        W 8826  10.017   4.210  11.315 -0.0672 -0.0913 -0.0468
 4627W        W 8827   2.631   9.989   4.450 -0.0575 -0.0985  0.1662
 4628W        W 8828   2.028   4.250  10.865  0.0675 -0.1594  0.0504
 4629W        W 8829  10.182   7.532   4.077  0.1627  0.1904  0.1218
 4630W        W 8830   2.933   6.408   2.730  0.2018 -0.0977  0.0480
 4631W        W 8831   7.412   6.448   1.249 -0.4314 -0.0743  0.0398
 4632W        W 8832   2.551   3.685   1.444 -0.0874  0.0964 -0.2572
 4633W        W 8833   4.653  10.355   3.439  0.0569  0.1777 -0.0375
 4634W        W 8834   2.820   9.131   9.729  0.2638 -0.0204 -0.1358
 4635W        W 8835   5.260   7.303   4.706  0.3015  0.1018  0.0212
 4636W        W 8836   4.210   1.604  11.934 -0.2119  0.0876  0.0511
 4637W        W 8837   8.377   5.077   4.578 -0.1844 -0.1827  0.3308
 4638W        W 8838   1.681   6.467   1.344 -0.3139 -0.0404 -0.0968
 4639W        W 8839   6.891   8.032   2.898 -0.0853  0.0179 -0.1361
 4640W        W 8840   8.740   8.844   9.242  0.0045 -0.0093 -0.2346
 4641W        W 8841   3.269   6.552  10.617  0.0611 -0.0960  0.0564
 4642W        W 8842   3.618   9.447   3.231  0.0838  0.1015  0.2464
 4643W        W 8843   7.549   9.057  13.131  0.2408 -0.0889 -0.3676
 4644W        W 8844   6.050   1.751   1.201 -0.0062  0.0517 -0.0446
 4645W        W 8845   8.466  10.278   9.495  0.2721 -0.0453 -0.0384
 4646W        W 8846   7.918   2.571  10.858  0.1500  0.0232  0.0631
 4647W        W 8847   1.979   4.535   8.816  0.2194  0.1560  0.1166
 4648W        W 8848   8.298   3.577  13.249  0.0135 -0.2490  0.0844
 4649W        W 8849   9.121   2.933   1.450  0.2508  0.1779  0.0935
 4650W        W 8850   8.676   3.115  12.973  0.1173  0.3911  0.1097
 4651W        W 8851   6.926   3.595   1.866  0.0633  0.1212 -0.1185
 4652W        W 8852   6.250   9.017   4.962  0.0784  0.1027  0.1659
 4653W        W 8853   6.881   9.324  11.021  0.0411  0.1383 -0.3629
 4654W        W 8854   7.417   0.074  11.521  0.3014 -0.2150 -0.3062
 4655W        W 8855   2.765   8.183   9.237  0.2774 -0.1947  0.1304
 4656W        W 8856   3.614   3.154   2.466 -0.3942  0.2390 -0.0722
 4657W        W 8857   9.639   1.689   2.653 -0.1572  0.0389 -0.1844
 4658W        W 8858   4.958   5.962   8.957 -0.1662 -0.1426 -0.2496
 4659W        W 8859   8.376  10.233   1.232  0.2947 -0.2077  0.0164
 4660W        W 8860   6.966   8.686  13.330  0.0025 -0.1439  0.1585
 4661W        W 8861   1.098   6.589   2.772  0.0381  0.1879  0.1105
 4662W        W 8862   5.879   4.303  11.078  0.0068  0.1722  0.5048
 4663W        W 8863   9.768   9.599   3.378  0.0202 -0.0227 -0.1872
 4664W        W 8864  10.424   8.143   5.166  0.0189  0.3161  0.1709
 4665W        W 8865   7.431   8.463   9.039  0.0794 -0.2716  0.3558
 4666W        W 8866   5.647   9.487   2.825 -0.1392  0.3813  0.1557
 4667W        W 8867   7.905   4.273   9.881  0.3057  0.0818 -0.0679
 4668W        W 8868   8.071   3.071   3.718  0.0898 -0.0591  0.1012
 4669W        W 8869   6.527  10.094   9.587 -0.2616 -0.0204 -0.4588
 4670W        W 8870   2.459   5.768   0.087 -0.2316 -0.0302 -0.0546
 4671W        W 8871   0.508   6.219   8.554 -0.1469 -0.0519 -0.0101
 4672W        W 8872   1.602   4.185   9.662  0.2330  0.1385  0.2571
 4673W        W 8873   3.364   4.194  12.211  0.2287  0.3374 -0.0460
 4674W        W 8874   4.643   0.105  10.270  0.0973  0.1937  0.1975
 4675W        W 8875   2.811   5.481   9.567  0.1606 -0.0239  0.1964
 4676W        W 8876   2.112   5.026   5.173 -0.1018 -0.0645 -0.1857
 4677W        W 8877   4.574  10.352  10.830 -0.2350 -0.4436  0.1004
 4678W        W 8878   0.784   9.464   1.108  0.1595 -0.0587 -0.0816
 4679W        W 8879   3.653   9.774   9.318  0.1926 -0.0149 -0.0290
 4680W        W 8880   8.265   7.564  12.491 -0.2061  0.1050  0.1578
 4681W        W 8881   7.617   8.718   4.481 -0.2453  0.0396  0.2027
 4682W        W 8882   0.134   9.060  12.986 -0.0741  0.1817  0.0826
 4683W        W 8883   3.315   6.702   9.316 -0.1460  0.0008  0.0142
 4684W        W 8884   8.216   5.564   3.075  0.1573 -0.0111 -0.2737
 4685W        W 8885   0.769   7.254   2.060  0.2040 -0.0436 -0.2866
 4686W        W 8886   7.381   9.816   9.849  0.0335  0.0303 -0.0876
 4687W        W 8887   7.407   9.408   3.830  0.2276 -0.0205  0.1582
 4688W        W 8888  10.018   5.667   2.877 -0.1593  0.1654 -0.0432
 4689W        W 8889   0.802   5.135   2.697  0.2496  0.0839  0.1677
 4690W        W 8890   5.155   2.588  12.445  0.0753  0.0731  0.0170
 4691W        W 8891   8.589   5.661  11.967 -0.1884 -0.0033  0.2022
 4692W        W 8892   9.410   2.565  12.803  0.4012 -0.0200  0.2000
 4693W        W 8893   1.542   8.336   4.603  0.0852  0.0324  0.1507
 4694W        W 8894   3.022   3.357   0.035 -0.0197 -0.0436 -0.0906
 4695W        W 8895   8.683   5.320  11.361 -0.2884 -0.0574 -0.2392
 4696W        W 8896   1.261   0.069   4.124 -0.0017  0.1172  0.2180
 4697W        W 8897   9.973  10.003   3.221  0.1238 -0.0169  0.0970
 4698W        W 8898   4.898   6.580  12.822 -0.0341 -0.0979 -0.1393
 4699W        W 8899  10.467   8.438   0.746 -0.1137 -0.1537  0.0056
 4700W        W 8900   0.242   2.340   3.025  0.1327  0.4000  0.0309
 4701W        W 8901   8.377   5.959   0.582 -0.1068 -0.0534 -0.0071
 4702W        W 8902   1.607   6.526   2.761  0.2851  0.0674  0.0204
 4703W        W 8903   7.038   1.046  12.020  0.2524 -0.1028  0.0392
 4704W        W 8904   2.853   5.507   0.324  0.3661  0.0478  0.1720
 4705W        W 8905   5.996   3.721  10.387  0.1613  0.1787 -0.0591
 4706W        W 8906   8.058   4.696  12.589  0.1540 -0.1359  0.0369
 4707W        W 8907   3.266   8.521  13.223  0.3934 -0.1515 -0.0803
 4708W        W 8908   6.609   8.369   0.597  0.0736 -0.1785 -0.2414
 4709W        W 8909   0.405   1.911   4.351  0.0735  0.2640 -0.3081
 4710W        W 8910   3.252   1.903   4.297  0.1263  0.2752 -0.0783
 4711W        W 8911   4.378   5.523   9.313 -0.1356 -0.1649 -0.1887
 4712W        W 8912   8.552   2.294  10.211  0.0795 -0.1777 -0.0057
 4713W        W 8913   1.015   4.799  12.249 -0.0455  0.2901 -0.3784
 4714W        W 8914   2.302   0.165   4.492 -0.0517  0.0042 -0.0692
 4715W        W 8915   4.482   9.544  11.447 -0.1013 -0.0480 -0.2625
 4716W        W 8916   8.149   9.358  13.007 -0.2297 -0.1694  0.0177
 4717W        W 8917   3.035   1.099  10.642  0.0930  0.1661 -0.2550
 4718W        W 8918   3.413   0.056   3.655 -0.3176  0.1867  0.3134
 4719W        W 8919  10.467   0.769   9.986  0.2733 -0.2128 -0.0055
 4720W        W 8920   4.934   8.808   2.720 -0.0620  0.1484 -0.1614
 4721W        W 8921   6.362   4.595   1.959  0.2250  0.1591 -0.0272
 4722W        W 8922   9.204   2.656   4.142  0.0738  0.1994  0.1992
 4723W        W 8923   3.910   2.454   3.404  0.0167 -0.0778 -0.3179
 4724W        W 8924   0.094   2.244  11.722 -0.3142 -0.2374  0.2228
 4725W        W 8925   3.930   7.080  12.382  0.0585  0.0996 -0.2092
 4726W        W 8926   5.097   4.274  10.252  0.2942  0.1292  0.1489
 4727W        W 8927  10.211   2.629   1.062 -0.0314  0.1727  0.2136
 4728W        W 8928   0.105   7.095   8.312  0.0736  0.3578 -0.0468
 4729W        W 8929   1.274   2.623  11.162  0.0405  0.1319 -0.1708
 4730W        W 8930   1.678   6.417   4.075  0.0684  0.4129  0.1309
 4731W        W 8931   1.372   9.495   8.791  0.0049  0.1026 -0.3718
 4732W        W 8932   3.978   2.550  11.135  0.3471 -0.0818 -0.0063
 4733W        W 8933   7.736   7.312   1.710 -0.2893 -0.2810 -0.0000
 4734W        W 8934   0.951   8.995  11.413  0.1850  0.3470 -0.2544
 4735W        W 8935   1.295   7.554   1.269 -0.0873  0.0386 -0.1834
 4736W        W 8936   9.150   8.331  12.569 -0.1934  0.1226  0.1950
 4737W        W 8937   7.457   7.435   9.037 -0.3454  0.0199  0.0350
 4738W        W 8938   8.743   9.225   0.395  0.0763  0.1490  0.1091
 4739W        W 8939   2.585  10.032  10.518 -0.3419 -0.1592 -0.4692
 4740W        W 8940   5.758   5.145  11.448 -0.0189 -0.0078  0.0744
 4741W        W 8941   4.740   0.759   0.487 -0.1181  0.4188  0.1247
 4742W        W 8942   3.699   8.496  11.073 -0.0517 -0.2959  0.2509
 4743W        W 8943   9.812   1.014  11.149 -0.2439  0.0360  0.0246
 4744W        W 8944   0.534   9.289  12.569  0.0664 -0.4172  0.0707
 4745W        W 8945   8.740   6.971   0.768  0.3384 -0.4853  0.1424
 4746W        W 8946   4.735   6.638  11.705 -0.0940  0.0706  0.1014
 4747W        W 8947   2.370   5.328   4.822  0.3588  0.1144  0.2485
 4748W        W 8948   9.698   6.477   2.226 -0.0385 -0.0651 -0.0910
 4749W        W 8949   0.059   4.107   0.013  0.0429 -0.0229 -0.0162
 4750W        W 8950   9.883   9.550  11.249 -0.2312  0.0202  0.0292
 4751W        W 8951  10.294   3.393  11.492  0.1387 -0.3063 -0.2830
 4752W        W 8952   0.702   1.597  13.381  0.1516  0.0064  0.0462
 4753W        W 8953   3.731   6.279   4.372 -0.1281 -0.2807  0.0029
 4754W        W 8954   3.264   0.344  13.175 -0.1117 -0.1741 -0.1457
 4755W        W 8955   4.079   3.806  10.145  0.0481  0.1237  0.1915
 4756W        W 8956   6.155   7.764   3.908 -0.0942 -0.2209 -0.2097
 4757W        W 8957   5.582   9.649   1.394  0.1654  0.0086 -0.0068
 4758W        W 8958   2.776   4.153  11.145  0.1125 -0.0021  0.2935
 4759W        W 8959   3.336   1.290   2.972 -0.0749  0.1540  0.1344
 4760W        W 8960   4.461   8.672  10.056 -0.0274 -0.0546  0.3793
 4761W        W 8961   9.334   9.131   2.171  0.1013  0.1783 -0.1622
 4762W        W 8962   6.687   6.597   2.467 -0.2410  0.0020 -0.0003
 4763W        W 8963   0.727   1.579   2.102 -0.1790  0.2687 -0.0104
 4764W        W 8964   7.850   8.104   9.877 -0.3741  0.1473  0.4256
 4765W        W 8965   2.677   1.809  11.902 -0.3241 -0.0092  0.0839
 4766W        W 8966   2.681   6.577   1.703  0.1680 -0.0532 -0.1230
 4767W        W 8967   3.226   4.679  12.700  0.0708  0.2817  0.1959
 4768W        W 8968   8.266   3.501   0.948  0.3216  0.0885  0.0354
 4769W        W 8969  10.432   0.140   2.242  0.0051 -0.1199  0.0507
 4770W        W 8970   2.697   8.495   7.821  0.2287  0.1785 -0.2299
 4771W        W 8971   9.107   6.068   3.201 -0.0233 -0.1098  0.3093
 4772W        W 8972   4.592   1.390  10.488 -0.2133 -0.1573 -0.0074
 4773W        W 8973   9.479  10.112  10.147 -0.0726 -0.2464  0.0055
 4774W        W 8974  10.298  10.021  11.808 -0.1087 -0.0860  0.0373
 4775W        W 8975   7.914   3.721  12.501 -0.0834  0.1945  0.2333
 4776W        W 8976   2.846  10.145  10.977 -0.3037 -0.0339  0.0157
 4777W        W 8977   8.922   3.813   2.855 -0.1681 -0.3936 -0.0207
 4778W        W 8978   5.015   3.817   0.968  0.0799 -0.0065  0.3002
 4779W        W 8979   7.435   1.709  12.447 -0.2875  0.0704  0.1346
 4780W        W 8980   0.713   6.968  11.455 -0.1574  0.0165  0.3133
 4781W        W 8981   2.223   5.261   9.050  0.1874 -0.2035 -0.0787
 4782W        W 8982   1.362   7.898   3.007 -0.0256 -0.1914 -0.0079
 4783W        W 8983   4.792   6.073   3.017 -0.0943 -0.0303  0.0454
 4784W        W 8984   0.949   3.905   9.253 -0.1643  0.1911 -0.4113
 4785W        W 8985   6.934   7.498   0.946  0.1095 -0.1096  0.0907
 4786W        W 8986  10.384   5.819   8.929  0.4275 -0.1964 -0.2149
 4787W        W 8987   1.906   0.842  10.163 -0.3336  0.0027 -0.3466
 4788W        W 8988   0.866   5.789   0.737  0.0515  0.0463  0.2207
 4789W        W 8989  10.042  10.403  10.860  0.1341  0.2634  0.1501
 4790W        W 8990   7.549   4.633   2.704 -0.0482 -0.3006  0.0448
 4791W        W 8991   8.354   2.619   4.501  0.0919 -0.4839 -0.0968
 4792W        W 8992   0.466   1.399   4.255 -0.4589 -0.1039  0.1075
 4793W        W 8993   1.596   2.030  10.488 -0.0494 -0.3213  0.0470
 4794W        W 8994   5.942   6.514  11.525  0.1803  0.2904 -0.1645
 4795W        W 8995   7.939   8.846  11.796 -0.2014  0.1552  0.2167
 4796W        W 8996   4.988   6.028   0.633 -0.0366  0.1719 -0.0008
 4797W        W 8997   3.898   7.467  10.327  0.1510  0.2813  0.1121
 4798W        W 8998   4.371   8.977   9.192  0.2929 -0.1209 -0.0128
 4799W        W 8999   4.325   7.586   8.955 -0.2031  0.2110 -0.1338
 4800W        W 9000   4.088   7.453  11.542  0.2698  0.0440 -0.3375
 4801W        W 9001   1.920  10.458   4.780  0.0379 -0.0158 -0.1299
 4802W        W 9002   9.768   6.239  11.051  0.1283 -0.2147 -0.2868
 4803W        W 9003   3.657   5.269   2.188 -0.4215 -0.0167 -0.1126
 4804W        W 9004   9.178   2.533  10.036  0.2879 -0.0995 -0.3253
 4805W        W 9005   6.659   8.545   2.541 -0.0852  0.0005 -0.0193
 4806W        W 9006   7.018   6.055  10.928 -0.3159  0.0077  0.0277
 4807W        W 9007   4.144   2.881  13.014 -0.2939  0.0432  0.2024
 4808W        W 9008   9.944   6.186  11.678  0.2059 -0.5226 -0.0627
 4809W        W 9009   0.246   9.491  10.840 -0.0091  0.0045 -0.2308
 4810W        W 9010   2.943   6.939  10.296 -0.1012  0.2941  0.2115
 4811W        W 9011   9.117   2.151  13.044  0.0963 -0.1357 -0.0599
 4812W        W 9012   7.064   3.195   2.191  0.0645 -0.1055 -0.1166
 4813W        W 9013   9.560   3.071   3.755  0.1389 -0.1148 -0.2543
 4814W        W 9014   6.615   8.731  12.916  0.2870  0.2903 -0.0708
 4815W        W 9015   3.893   5.425   9.266  0.0528 -0.0245  0.2893
 4816W        W 9016   6.216   2.007   1.935  0.0925 -0.0335 -0.1600
 4817W        W 9017   5.656  10.035  12.027  0.1465  0.0268  0.2974
 4818W        W 9018   2.019   4.961   2.114 -0.0407  0.1300  0.1269
 4819W        W 9019   7.285   4.738   1.912 -0.1018  0.2400 -0.0693
 4820W        W 9020   0.881   9.047  12.294  0.0652 -0.1835  0.0987
 4821W        W 9021   4.601   4.870  11.010  0.1586 -0.1047 -0.1768
 4822W        W 9022   8.235   4.386  12.987 -0.1932  0.2372 -0.0924
 4823W        W 9023   6.039   7.941   3.400 -0.1759  0.2033  0.1204
 4824W        W 9024   3.950   7.372   4.659  0.2944 -0.0783 -0.0795
 4825W        W 9025   2.327   8.774   9.885  0.0125  0.0168 -0.3318
 4826W        W 9026   1.462   9.163  11.480  0.2709  0.2388  0.0540
 4827W        W 9027   1.368   7.693   3.922 -0.2206  0.1512 -0.0080
 4828W        W 9028   9.962   9.087   9.518 -0.1146  0.2312  0.1306
 4829W        W 9029  10.289   6.391   0.259 -0.2182  0.2275 -0.2239
 4830W        W 9030   7.955   5.052   2.678 -0.0925  0.2628 -0.0974
 4831W        W 9031   5.208   9.936  12.796  0.0416  0.0478  0.0829
 4832W        W 9032   2.778   0.317  10.779  0.2323 -0.1706  0.0101
 4833W        W 9033  10.206  10.248   1.692 -0.1623  0.1114  0.2736
 4834W        W 9034   9.734  10.123   1.664  0.2790  0.0700  0.1420
 4835W        W 9035   2.814   8.504   3.264 -0.2133 -0.2222 -0.0377
 4836W        W 9036   2.861   1.842   1.568 -0.0879 -0.1353  0.2967
 4837W        W 9037   7.110   1.703  12.878  0.3102 -0.2212  0.0130
 4838W        W 9038   4.234   1.607   3.566 -0.0030  0.1281 -0.0204
 4839W        W 9039   7.124   3.648   0.556 -0.1066  0.0811  0.0644
 4840W        W 9040   9.167   1.405   3.864  0.1147 -0.0368 -0.0000
 4841W        W 9041   4.322   7.572  13.105  0.1462 -0.0766 -0.3866
 4842W        W 9042   2.684   2.533  11.071 -0.3562 -0.0662  0.1784
 4843W        W 9043   8.016   4.129   1.960 -0.0276  0.0615 -0.0499
 4844W        W 9044   8.687   7.468   0.767  0.1771  0.1415 -0.3722
 4845W        W 9045  10.226   7.639  12.076  0.0817  0.0597 -0.0076
 4846W        W 9046   9.993   0.272   3.097  0.1540  0.4264  0.1113
 4847W        W 9047   4.138   9.862   9.468  0.5160  0.1971 -0.1268
 4848W        W 9048   9.711   4.149   0.737 -0.1804  0.3052 -0.0199
 4849W        W 9049   6.687   8.986  11.446 -0.1078  0.1819 -0.1039
 4850W        W 9050   7.669   4.578   3.266 -0.0878  0.3497 -0.2308
 4851W        W 9051   0.831   0.380   1.440  0.1140 -0.1400  0.0476
 4852W        W 9052   8.358   8.200   1.573  0.2886 -0.2682  0.1843
 4853W        W 9053   2.509   4.983  12.251 -0.1240  0.0683 -0.0604
 4854W        W 9054   5.686   2.947  10.070 -0.0611 -0.2771 -0.3136
 4855W        W 9055   3.518   5.554  13.219 -0.2928 -0.1505  0.0675
 4856W        W 9056   0.389   8.476   0.046  0.0631  0.0946  0.0821
 4857W        W 9057   8.151   8.037  12.744 -0.2318 -0.2334 -0.4146
 4858W        W 9058   1.709   8.911   4.610 -0.1755  0.0618  0.0120
 4859W        W 9059   6.894   8.020  12.696 -0.2272 -0.2514 -0.3572
 4860W        W 9060   9.944   1.860   4.191 -0.2009  0.1579 -0.1629
 4861W        W 9061   4.071  10.326  11.106 -0.1392  0.0835 -0.1024
 4862W        W 9062   9.479   7.236   3.728 -0.4569  0.2410 -0.0185
 4863W        W 9063   6.909   2.417   0.202  0.1406  0.0749  0.2445
 4864W        W 9064   6.088   7.103  11.137 -0.0977 -0.2435 -0.0891
 4865W        W 9065   6.406   9.776   3.701  0.0319  0.2195 -0.1737
 4866W        W 9066   7.285   8.360   4.320  0.0129  0.0143 -0.2777
 4867W        W 9067   7.861   6.436   3.216  0.1097  0.2505 -0.1517
 4868W        W 9068   9.857   4.079  10.417 -0.0072 -0.0823  0.1515
 4869W        W 9069   0.327   5.657  12.088  0.0118  0.1680 -0.2515
 4870W        W 9070   8.785   5.631   2.885  0.1853 -0.0349  0.0305
 4871W        W 9071   2.288   4.148   1.548 -0.2040  0.3583 -0.0222
 4872W        W 9072   7.705   4.812  11.322 -0.3049 -0.1478  0.3384
 4873W        W 9073   8.768   7.987   4.023 -0.2710  0.0592  0.0191
 4874W        W 9074   5.339   1.978  10.175  0.1281  0.0554 -0.0589
 4875W        W 9075   6.532   4.839   9.974  0.4240  0.0065 -0.3285
 4876W        W 9076   8.908   4.633  11.940 -0.2130  0.3086 -0.1197
 4877W        W 9077   0.441   5.898   1.642 -0.1439 -0.2529 -0.0807
 4878W        W 9078   9.810   6.228   4.296  0.1429 -0.3118  0.0060
 4879W        W 9079   3.064   9.139  10.862 -0.0303 -0.0927 -0.2773
 4880W        W 9080   6.162   9.585   4.129  0.1748  0.3858 -0.2068
 4881W        W 9081   1.514  10.163   3.682  0.1505  0.1208 -0.0692
 4882W        W 9082   6.147   6.622   2.188  0.0530 -0.3449  0.0284
 4883W        W 9083  10.117   2.012   1.989 -0.0998 -0.2606 -0.3277
 4884W        W 9084   4.351   3.902   1.165  0.4633  0.1072 -0.0835
 4885W        W 9085   7.656   8.768   1.422 -0.0583  0.2503 -0.1493
 4886W        W 9086   7.538   2.227  12.431 -0.1220  0.5494 -0.0749
 4887W        W 9087   4.257   6.042   9.292  0.0999  0.2404 -0.1772
 4888W        W 9088   6.541   8.728  11.935 -0.0034  0.1340  0.0367
 4889W        W 9089   2.638   0.049   1.821  0.2942 -0.1088 -0.1177
 4890W        W 9090   5.347   2.015  10.935  0.1432 -0.0109 -0.2405
 4891W        W 9091   0.634   8.915   1.713 -0.4941 -0.3628  0.0131
 4892W        W 9092   7.021   7.626   8.663  0.0187  0.0978  0.2407
 4893W        W 9093   5.756   3.069  13.230  0.1906  0.0018 -0.0891
 4894W        W 9094   0.048   2.560   3.608  0.4301  0.1959 -0.2753
 4895W        W 9095   7.777   1.762  10.323  0.2250  0.0893 -0.0623
 4896W        W 9096   2.769   0.193  11.818 -0.0894  0.1270  0.1491
 4897W        W 9097   1.895   9.625   4.275  0.1651 -0.2369 -0.0401
 4898W        W 9098   2.738   1.839   4.297 -0.0767  0.0663  0.0521
 4899W        W 9099   8.292   9.255   3.026 -0.0552 -0.0774 -0.4461
 4900W        W 9100   3.332   7.155   0.694  0.2664  0.1240 -0.0688
 4901W        W 9101   0.828   9.053   9.582  0.4077  0.0447 -0.0735
 4902W        W 9102   9.049   6.405   4.543 -0.4850  0.2991  0.2439
 4903W        W 9103   0.888   4.496  10.088  0.3384  0.0920 -0.3199
 4904W        W 9104   9.808  10.105   9.472  0.2141  0.0153  0.0147
 4905W        W 9105   5.058   6.653   1.801  0.0952  0.2480 -0.0635
 4906W        W 9106   1.822   8.678   8.739 -0.1444  0.0577 -0.2788
 4907W        W 9107   9.567   5.380  11.676  0.0249  0.3144  0.0344
 4908W        W 9108   4.558   0.015  11.316 -0.1581  0.0429  0.0175
 4909W        W 9109   4.246   6.668  10.963  0.4517  0.1661 -0.2920
 4910W        W 9110   8.925   6.360   1.572 -0.1069 -0.1542 -0.0893
 4911W        W 9111   1.390   5.476  12.319  0.4365  0.0516 -0.1244
 4912W        W 9112   8.492   1.401  13.407  0.1267  0.0455  0.4806
 4913W        W 9113   2.735   5.425  11.304 -0.0972 -0.0381 -0.0311
 4914W        W 9114   0.486   1.547   8.532  0.2680  0.0073  0.0647
 4915W        W 9115   7.114  10.208   1.284  0.0820  0.1145  0.2077
 4916W        W 9116   1.833  10.344  11.454  0.1609 -0.2001 -0.0996
 4917W        W 9117   1.098   8.125  12.394 -0.1571 -0.3056 -0.3002
 4918W        W 9118   3.043   7.838  10.745 -0.0434  0.2336  0.1301
 4919W        W 9119   3.457   2.307   2.039  0.1755  0.0918  0.2603
 4920W        W 9120   3.654   4.098  11.102 -0.0678  0.1608 -0.1414
 4921W        W 9121   1.335   4.483  13.132  0.2955  0.1378 -0.1673
 4922W        W 9122   4.979   7.969   2.722 -0.0269 -0.0397  0.3468
 4923W        W 9123   0.818   2.941   2.849  0.1059  0.1152  0.1084
 4924W        W 9124   4.063   2.892   1.895  0.1609  0.2021 -0.4022
 4925W        W 9125   1.696  10.280  13.316 -0.0998  0.0538 -0.3668
 4926W        W 9126   5.362   4.596   1.257 -0.3612  0.0697 -0.0011
 4927W        W 9127   7.471   7.273  11.500 -0.0548 -0.2995  0.0542
 4928W        W 9128   1.350   3.652  12.084  0.2424  0.0245 -0.1465
 4929W        W 9129   2.194   2.604  11.754  0.0280  0.4770  0.0469
 4930W        W 9130  10.394   9.483   9.687  0.0930 -0.0704  0.1829
 4931W        W 9131   5.146   4.435  12.164  0.1397 -0.1107 -0.1143
 4932W        W 9132   5.471   4.210  11.528  0.3438 -0.4765 -0.2102
 4933W        W 9133   3.080   7.085   4.391 -0.0896 -0.1961  0.0751
 4934W        W 9134   0.101   5.149   3.289 -0.0751  0.0470  0.0702
 4935W        W 9135   5.314  10.061   1.000 -0.3585  0.0987  0.0452
 4936W        W 9136   1.941   9.548  10.939 -0.1241  0.0355  0.1796
 4937W        W 9137   5.807   7.949   2.347  0.1424 -0.3124  0.1038
 4938W        W 9138   0.601   6.638   2.747  0.2318  0.2297  0.0916
 4939W        W 9139   5.757   3.865   9.501  0.2347  0.0188 -0.0861
 4940W        W 9140   0.273   2.185   1.365  0.2629 -0.1135 -0.1146
 4941W        W 9141   9.697   6.337   9.256  0.0247 -0.1847 -0.1779
 4942W        W 9142   9.901  10.412  12.039 -0.0907 -0.0444 -0.2703
 4943W        W 9143   5.482   8.856   4.011 -0.1426  0.1041 -0.1766
 4944W        W 9144   2.710   0.790  10.934 -0.1768  0.2908 -0.1738
 4945W        W 9145   1.395   8.050   1.120  0.2150 -0.1377  0.1847
 4946W        W 9146   5.379   7.534   2.926  0.0928  0.1657 -0.1502
 4947W        W 9147   3.133   9.469   9.927  0.2165 -0.2859 -0.1712
 4948W        W 9148   0.713   3.091  12.535 -0.0959  0.0257 -0.3114
 4949W        W 9149   1.519   1.203   2.583  0.0045 -0.1246 -0.1684
 4950W        W 9150   8.622   4.304   3.683 -0.0039  0.0981 -0.2925
 4951W        W 9151   1.191   8.837   4.787  0.0512  0.2002  0.0754
 4952W        W 9152   9.373   4.176  10.183  0.0315 -0.2800  0.0455
 4953W        W 9153   0.543   4.697  11.728 -0.0647 -0.0462  0.2088
 4954W        W 9154   7.986   7.193   0.098  0.0383 -0.2693  0.1631
 4955W        W 9155   4.977   3.933   2.100  0.0805  0.1261 -0.1557
 4956W        W 9156   8.748   2.763   3.940 -0.0777 -0.1294 -0.0821
 4957W        W 9157   2.666   2.345   1.437 -0.0572  0.0532  0.0285
 4958W        W 9158   1.929   7.321   3.999  0.2991 -0.0450 -0.3282
 4959W        W 9159   4.080   4.225   8.633 -0.1079  0.0449  0.0194
 4960W        W 9160   7.563   3.030   0.215  0.0688  0.1992 -0.1710
 4961W        W 9161   6.643   3.706   3.288 -0.2877 -0.1643 -0.3065
 4962W        W 9162   3.442   7.497   3.605  0.1282  0.1885 -0.0498
 4963W        W 9163   2.967   8.606   4.315 -0.0326 -0.0574  0.1765
 4964W        W 9164   0.757   0.580   0.646  0.1214 -0.0517 -0.1887
 4965W        W 9165   7.306   7.514  11.110 -0.2208 -0.0051  0.0426
 4966W        W 9166   0.568   3.081   9.407  0.1039 -0.0568 -0.0663
 4967W        W 9167   9.628   4.845   0.956  0.1139 -0.3854  0.0812
 4968W        W 9168   3.567   5.784   0.690  0.1746  0.0313  0.2431
 4969W        W 9169   5.885   8.256   0.960  0.0442  0.0980  0.1068
 4970W        W 9170   9.208   5.293  11.147  0.0031 -0.2403 -0.3306
 4971W        W 9171   4.160  10.100   2.025  0.0310 -0.1770  0.1022
 4972W        W 9172   5.928   4.121  11.542 -0.0996  0.1185  0.1266
 4973W        W 9173   7.129   1.150  12.886  0.0340  0.2944  0.3033
 4974W        W 9174   0.885   0.764   1.125  0.1466 -0.1651  0.0323
 4975W        W 9175  10.321   7.758   1.831 -0.0281  0.1752 -0.0052
 4976W        W 9176   0.260   9.250   9.430 -0.1541 -0.2284  0.0817
 4977W        W 9177   4.244   9.707  11.851  0.1946 -0.1282  0.1941
 4978W        W 9178   0.846   5.579  13.020 -0.2404  0.1645 -0.1750
 4979W        W 9179   3.232   0.066   2.892  0.0577  0.3340 -0.0431
 4980W        W 9180   5.099   1.713  10.610 -0.0687 -0.0804 -0.1555
 4981W        W 9181   1.693   0.332   0.942 -0.0435 -0.0958 -0.0407
 4982W        W 9182   6.719   2.288   0.649  0.2420 -0.2810  0.0908
 4983W        W 9183   2.322  10.410   9.469  0.2374 -0.0853 -0.3738
 4984W        W 9184   7.436   8.590   9.921  0.0111  0.2177  0.1519
 4985W        W 9185   2.759   4.547   3.704 -0.0614 -0.0401 -0.4291
 4986W        W 9186   1.762   8.147   0.538  0.1952 -0.1789 -0.2154
 4987W        W 9187   9.656   4.205  12.074 -0.0765  0.0580  0.0205
 4988W        W 9188   1.741   9.585  11.390 -0.1114  0.0561 -0.1371
 4989W        W 9189   2.246   2.231  12.625  0.0080  0.2941  0.0719
 4990W        W 9190   8.978   1.274   1.536  0.0268  0.0590 -0.1321
 4991W        W 9191   1.441   1.316   9.571 -0.0376 -0.0135  0.1445
 4992W        W 9192   8.719   4.250  12.831  0.0764  0.0250 -0.1510
 4993W        W 9193   0.938   8.287   8.965 -0.0223  0.0109  0.0631
 4994W        W 9194   5.556   3.994  10.312 -0.0337 -0.4508 -0.0170
 4995W        W 9195   5.977   4.073   3.626  0.0687  0.1759  0.2323
 4996W        W 9196   3.755   6.089  12.824  0.0176 -0.0800 -0.1041
 4997W        W 9197  10.002   8.581  11.655  0.2495 -0.1914 -0.0241
 4998W        W 9198   2.812   9.943  13.041  0.0495 -0.0781 -0.0441
 4999W        W 9199   7.120   2.412  11.218  0.1254 -0.0553  0.0884
 5000W        W 9200   1.058  10.323   1.322 -0.2098  0.0625 -0.2474
 5001W        W 9201   9.059   7.889   2.650  0.0766 -0.0950  0.0224
 5002W        W 9202   7.182   3.661  10.261  0.1297  0.3385 -0.0356
 5003W        W 9203   4.351   6.169  10.233 -0.0191 -0.1149  0.2648
 5004W        W 9204   5.433   0.649  11.277  0.0040  0.1705  0.2445
 5005W        W 9205   6.675   8.859   4.531  0.1694 -0.1483  0.1435
 5006W        W 9206   4.061   7.505   3.206  0.3489  0.2546  0.1258
 5007W        W 9207   8.983   5.441   8.833 -0.0403 -0.0401 -0.1190
 5008W        W 9208   7.328   8.195   8.589 -0.0519  0.1677  0.1540
 5009W        W 9209   7.700   9.774   3.274  0.0182 -0.0886 -0.1459
 5010W        W 9210   3.201   0.550  10.646  0.0261  0.0511 -0.1329
 5011W        W 9211   5.124   6.875   4.820  0.2912 -0.0506 -0.1834
 5012W        W 9212   3.156   3.747  11.975 -0.4500  0.1255 -0.1778
 5013W        W 9213   2.601   8.545  11.958  0.0833  0.3472  0.0636
 5014W        W 9214   8.388   0.331  10.157 -0.2028 -0.3575  0.5616
 5015W        W 9215   9.993   3.015  11.465  0.1800  0.0457  0.1468
 5016W        W 9216   3.889   7.883  11.338  0.0761 -0.1116  0.1227
 5017W        W 9217   6.055   4.682   3.779  0.0744 -0.1850 -0.0850
 5018W        W 9218   6.989   0.709   0.088  0.1129 -0.0391 -0.2377
 5019W        W 9219   2.465   6.693  12.324 -0.0027  0.2640  0.4134
 5020W        W 9220   7.514   8.194   0.756 -0.1537  0.1430 -0.2947
 5021W        W 9221   9.095   6.759   8.832 -0.0903 -0.1139  0.0540
 5022W        W 9222   6.498   5.026  13.192 -0.0949  0.3368 -0.2328
 5023W        W 9223   2.314  10.424  11.943 -0.0659 -0.0707 -0.1315
 5024W        W 9224   5.322   7.734   2.433 -0.0806 -0.0561 -0.2084
 5025W        W 9225   2.399   3.838   1.909  0.3850 -0.3072  0.0586
 5026W        W 9226   7.730   3.798  11.132  0.2139  0.2107 -0.0786
 5027W        W 9227   2.753   6.291   4.194 -0.0441  0.0124 -0.3864
 5028W        W 9228   1.608   8.746   9.373  0.2088  0.5301 -0.2374
 5029W        W 9229  10.177   5.484   4.586  0.0421  0.1368  0.1273
 5030W        W 9230   0.230   2.547   9.238  0.2641 -0.3029  0.0824
 5031W        W 9231   0.971   0.423  12.873  0.3275  0.0878  0.0459
 5032W        W 9232   9.344   9.649   5.332  0.1183 -0.0318 -0.0626
 5033W        W 9233   5.278   5.165  12.342 -0.1580  0.1258  0.2712
 5034W        W 9234   4.126   6.459   0.713 -0.0220 -0.0607 -0.0243
 5035W        W 9235   1.179   1.425   0.794  0.4644 -0.0694  0.0163
 5036W        W 9236   7.824   4.501   0.321 -0.5213  0.1715  0.0214
 5037W        W 9237   3.680   9.765  10.675 -0.2521 -0.0621 -0.1211
 5038W        W 9238   8.257   5.849  10.840 -0.1234  0.2774  0.1386
 5039W        W 9239   6.277   3.809  11.465 -0.2205 -0.0166  0.1372
 5040W        W 9240   0.941   5.219   2.131 -0.2386 -0.1020 -0.0712
 5041W        W 9241   5.410   9.131   1.494 -0.0010  0.0033 -0.0068
 5042W        W 9242   6.883   8.735  10.119 -0.3279 -0.2149 -0.1567
 5043W        W 9243   0.365   0.235  13.396 -0.3329 -0.3215  0.2769
 5044W        W 9244   0.422   8.356  11.743  0.2264 -0.0804 -0.1576
 5045W        W 9245   3.235   4.136   2.676 -0.0460  0.2101  0.0565
 5046W        W 9246   4.288   9.873   9.918 -0.3678 -0.5558 -0.0456
 5047W        W 9247   8.238   0.612  13.016 -0.2083  0.2831  0.0890
 5048W        W 9248   4.879   3.628   1.472 -0.0874  0.2095 -0.0595
 5049W        W 9249   6.148  10.344  10.839  0.0074 -0.0626  0.1207
 5050W        W 9250   1.157   4.079  11.345  0.2911 -0.2722  0.0729
 5051W        W 9251   1.686   9.318   3.687  0.1135 -0.2477 -0.0017
 5052W        W 9252   1.654   5.922   4.839 -0.2184 -0.1940  0.3213
 5053W        W 9253   2.497   0.394  13.123 -0.0844 -0.2103 -0.1465
 5054W        W 9254   4.448   9.070  11.410  0.1163 -0.1645 -0.0928
 5055W        W 9255   5.441   1.317   2.615 -0.1918 -0.4922  0.0243
 5056W        W 9256   7.896   9.562  12.644  0.2752  0.2929 -0.1830
 5057W        W 9257   5.913   6.819   9.664 -0.0005 -0.1689  0.0243
 5058W        W 9258   0.412   2.730   3.878  0.1050  0.1818 -0.0303
 5059W        W 9259   3.054   9.347  12.538  0.0804 -0.0861 -0.1414
 5060W        W 9260   5.028   6.239   2.606  0.1042  0.0756  0.0228
 5061W        W 9261   1.615   9.785   1.458  0.1401 -0.0867 -0.1408
 5062W        W 9262   2.265   6.763   3.404  0.0777  0.1341 -0.0990
 5063W        W 9263   8.306   5.578   0.052 -0.2914  0.3424 -0.3799
 5064W        W 9264   1.951   3.081   2.216  0.3277 -0.2267 -0.3498
 5065W        W 9265   1.476   8.222  11.754 -0.1262  0.0487 -0.2936
 5066W        W 9266   4.762   7.494  12.377  0.1999  0.2028  0.3779
 5067W        W 9267   2.032   1.736   3.715 -0.3515  0.0762 -0.0400
 5068W        W 9268   4.449   5.912   1.063 -0.0992 -0.0212 -0.0328
 5069W        W 9269   3.801   6.928   9.337  0.0539  0.0890  0.0753
 5070W        W 9270   9.809   7.850   1.953  0.0561 -0.1790 -0.0399
 5071W        W 9271   0.443   8.204  11.223  0.1067 -0.2547  0.0711
 5072W        W 9272   1.461   5.139   2.156  0.3657 -0.1860  0.2513
 5073W        W 9273   8.832   1.055  10.044 -0.2334  0.0855  0.0663
 5074W        W 9274   4.620   7.325   5.385  0.1540 -0.3126  0.2744
 5075W        W 9275   0.030   5.347   1.900  0.1202 -0.2726  0.4340
 5076W        W 9276  10.465   1.251  12.864  0.0586  0.0896 -0.0464
 5077W        W 9277   9.890   6.234   0.794 -0.0536  0.0142 -0.0708
 5078W        W 9278   3.949   6.873   4.558  0.0616 -0.3509  0.1265
 5079W        W 9279   5.485   8.751   0.091 -0.1601 -0.1377 -0.0636
 5080W        W 9280   7.093  10.113   1.801  0.1476  0.0079 -0.0933
 5081W        W 9281   0.564   7.585   2.327  0.0163  0.0567  0.0441
 5082W        W 9282   6.846   4.166   3.681  0.1132  0.2655 -0.3536
 5083W        W 9283   8.787   1.065   0.126 -0.4207 -0.4072 -0.2889
 5084W        W 9284   9.828   1.021   0.319 -0.0573  0.0138 -0.1014
 5085W        W 9285   0.313   6.642   1.890 -0.0665 -0.2150  0.3329
 5086W        W 9286   6.723   1.976   0.156  0.1788 -0.1309  0.2201
 5087W        W 9287   8.466   2.748  13.323 -0.1905 -0.3213  0.0033
 5088W        W 9288   7.740   5.339   3.525 -0.1403  0.0051 -0.1283
 5089W        W 9289   9.002   6.495   1.037  0.0138  0.1675 -0.3358
 5090W        W 9290  10.361   4.076   4.357 -0.0845 -0.2110 -0.0433
 5091W        W 9291   5.311   9.129  12.652  0.3429 -0.0281 -0.0909
 5092W        W 9292   1.582   2.087   4.953  0.0920  0.2735  0.3841
 5093W        W 9293   7.571   1.367  12.836  0.2252 -0.1285 -0.0200
 5094W        W 9294   9.714   6.684   2.727  0.1396 -0.0799 -0.3038
 5095W        W 9295   6.286   4.311  13.342 -0.0028  0.0700 -0.1794
 5096W        W 9296   1.968   7.226  11.274 -0.1410 -0.0770 -0.1464
 5097W        W 9297   2.560   7.304   4.373  0.0391  0.0062 -0.0931
 5098W        W 9298   3.671   3.686  13.404 -0.0705 -0.2375 -0.2435
 5099W        W 9299   2.287   1.712  11.629  0.3055  0.3410  0.0007
 5100W        W 9300   3.594   2.719   0.240 -0.1776 -0.3797  0.0101
 5101W        W 9301   1.867   7.690  11.153 -0.0913 -0.0570  0.0544
 5102W        W 9302   0.560   9.480   0.304 -0.0229  0.2724 -0.3108
 5103W        W 9303   2.286   6.702   1.938  0.1108 -0.1032 -0.2153
 5104W        W 9304   4.290   6.157  12.308  0.2379  0.0873  0.1274
 5105W        W 9305   1.607   0.708   0.304 -0.1229  0.1552  0.0167
 5106W        W 9306   7.513   3.395  11.002  0.2724  0.3120 -0.2558
 5107W        W 9307   4.117   6.625  12.052 -0.1080 -0.1281 -0.1648
 5108W        W 9308   9.422   7.385   1.193  0.0384 -0.0497  0.1185
 5109W        W 9309   6.838   9.821   3.279 -0.2286  0.0006  0.1672
 5110W        W 9310   9.206   9.465   1.464  0.2863 -0.1252  0.1547
 5111W        W 9311   0.802   2.770  13.007  0.0616  0.0272  0.0421
 5112W        W 9312   6.834   8.793   0.379 -0.0742 -0.0523  0.1731
 5113W        W 9313   3.087  10.351   9.897 -0.0607  0.0837  0.1028
 5114W        W 9314   7.399   8.827   3.404 -0.2560 -0.0031 -0.2324
 5115W        W 9315   3.323   6.811   2.797  0.1484 -0.3748  0.1090
 5116W        W 9316   4.559   4.922   2.345  0.2183 -0.0143 -0.4084
 5117W        W 9317   8.722   9.589   4.335 -0.1970  0.2207 -0.0139
 5118W        W 9318   7.692   8.528  10.856 -0.0249  0.1080  0.2887
 5119W        W 9319   4.472   1.490  12.384 -0.0916  0.0525  0.1141
 5120W        W 9320   0.849   4.967   9.785  0.3866  0.0642  0.0688
 5121W        W 9321   6.216   5.114   1.236  0.1254 -0.1990  0.0312
 5122W        W 9322   7.620   4.702   9.774 -0.1571 -0.0248 -0.0860
 5123W        W 9323   8.497   8.150  10.895  0.0477 -0.2336  0.2627
 5124W        W 9324   1.132  10.387   0.175  0.1449 -0.1756 -0.2453
 5125W        W 9325   7.200   6.956   9.242 -0.2181  0.0806 -0.0314
 5126W        W 9326   3.926   2.915  10.527 -0.1646  0.2975  0.3283
 5127W        W 9327   5.823   4.920   0.471 -0.1852  0.4265  0.2493
 5128W        W 9328   6.196   9.126  12.174 -0.2540  0.0665 -0.0412
 5129W        W 9329   1.882   9.718   9.653  0.2870 -0.0204 -0.0560
 5130W        W 9330   8.421   3.761   0.245 -0.0898  0.1754 -0.2576
 5131W        W 9331   7.072   8.487  12.876 -0.1695 -0.1120 -0.0270
 5132W        W 9332   7.675   3.519  11.529 -0.1091  0.3464  0.0021
 5133W        W 9333   2.491   5.945   8.241  0.0403  0.1117 -0.2386
 5134W        W 9334   5.485   7.129  10.426  0.1575  0.0869  0.3112
 5135W        W 9335   4.899   1.708  10.147 -0.2289  0.0862 -0.1042
 5136W        W 9336   2.324   6.039   4.296 -0.1489  0.2247 -0.2012
 5137W        W 9337   2.567   0.022   0.564  0.0155 -0.1365  0.1085
 5138W        W 9338   3.605   1.673  12.204 -0.0039  0.0675  0.0620
 5139W        W 9339   0.008   3.405  10.964  0.0128  0.1320 -0.0448
 5140W        W 9340   6.587   8.272   3.260  0.0819 -0.2199  0.2687
 5141W        W 9341   0.953   0.601   9.999  0.0234 -0.3620  0.0492
 5142W        W 9342   2.724   2.628   9.195  0.0037 -0.3347 -0.0774
 5143W        W 9343   4.096   1.138   3.573 -0.1960 -0.0371 -0.4530
 5144W        W 9344  10.133   4.605   8.961  0.1046  0.0557  0.0595
 5145W        W 9345   5.898   2.712  10.547 -0.1021  0.0278  0.1210
 5146W        W 9346   4.002   0.109   0.465  0.2363 -0.0945 -0.1650
 5147W        W 9347  10.067   3.233  10.720  0.0225 -0.0768 -0.0669
 5148W        W 9348   1.823   5.463   1.967 -0.0647  0.1140 -0.0701
 5149W        W 9349   2.162   3.508   3.673 -0.1659  0.0581 -0.0879
 5150W        W 9350   9.574   5.877   2.926 -0.2018 -0.0279 -0.0972
 5151W        W 9351   5.727   3.343   0.806  0.1317  0.1294 -0.1260
 5152W        W 9352   6.041   1.111   1.360  0.4372  0.1137 -0.2783
 5153W        W 9353   0.858   6.607  13.083 -0.0655 -0.2481  0.0432
 5154W        W 9354  10.175   0.652   0.464 -0.0180 -0.0672 -0.0650
 5155W        W 9355   5.059   2.566   2.690 -0.3304 -0.2168 -0.2072
 5156W        W 9356   6.166   7.679   0.187 -0.0184 -0.1114  0.2451
 5157W        W 9357   1.080   6.342   9.405  0.0454 -0.0223  0.1442
 5158W        W 9358   3.447   9.616  13.427 -0.3376 -0.0776 -0.2460
 5159W        W 9359   5.295   6.032   3.108  0.0688  0.0523 -0.2458
 5160W        W 9360   2.603   4.562   1.583  0.0093  0.4179 -0.0524
 5161W        W 9361   6.540   9.446   8.539  0.3052  0.0879 -0.1817
 5162W        W 9362  10.230   5.547  12.196  0.0909  0.1093 -0.4133
 5163W        W 9363   8.991   0.735   9.599  0.0025  0.0303  0.2525
 5164W        W 9364   7.900   9.982  10.193  0.1202 -0.2387 -0.0941
 5165W        W 9365   2.859   8.588   1.619  0.3832  0.1570 -0.1718
 5166W        W 9366   4.403   7.220  12.544  0.1056 -0.1410  0.1458
 5167W        W 9367   9.899   8.519   4.310  0.0595  0.1344 -0.0568
 5168W        W 9368   3.159   1.463  12.776 -0.3134  0.3992  0.1008
 5169W        W 9369   9.656   6.711   0.838 -0.0752 -0.2672  0.2485
 5170W        W 9370   2.430   5.508   0.590  0.2080  0.2051  0.0213
 5171W        W 9371   1.201   7.225   3.991 -0.1080  0.3698  0.2180
 5172W        W 9372   9.570   5.220  10.014  0.2479 -0.0270  0.0747
 5173W        W 9373   6.342   1.202   2.795 -0.1098 -0.2459  0.0298
 5174W        W 9374   6.653   7.080   1.724  0.0095  0.0938 -0.2608
 5175W        W 9375   4.306   5.404   5.217 -0.0289  0.1932 -0.1594
 5176W        W 9376   3.935   4.379   9.354  0.2322  0.3020 -0.2786
 5177W        W 9377   9.464   8.592   2.376  0.1000  0.1351  0.2573
 5178W        W 9378   2.916   3.439   0.572 -0.0418 -0.0133  0.3025
 5179W        W 9379   1.113   4.456   3.790 -0.1664  0.2732  0.0808
 5180W        W 9380   2.814   9.524   5.249 -0.2459 -0.0243  0.2401
 5181W        W 9381   5.567   9.253  13.375 -0.2214  0.1006 -0.1450
 5182W        W 9382  10.121   5.284   3.347 -0.2271 -0.0700  0.0092
 5183W        W 9383   8.043   0.632  10.555 -0.2133  0.0385  0.0153
 5184W        W 9384   4.325   7.920  12.174  0.2011  0.0807 -0.3274
 5185W        W 9385   3.991   6.660   1.662  0.0821 -0.1236  0.0870
 5186W        W 9386   2.264   9.655  10.569 -0.2443 -0.0397 -0.0643
 5187W        W 9387   7.768   7.702  11.712  0.0503  0.0041 -0.0124
 5188W        W 9388   6.726   5.789   8.635 -0.1244  0.0971 -0.0257
 5189W        W 9389   7.472   6.076   3.952  0.1491  0.0367  0.3954
 5190W        W 9390   1.431   3.894   1.446  0.1757 -0.1873 -0.0435
 5191W        W 9391   1.828   3.456   2.595 -0.0417  0.0677 -0.1069
 5192W        W 9392   2.685   4.618  10.147 -0.3728 -0.3821  0.0496
 5193W        W 9393   3.586   5.200  11.558 -0.1486 -0.2911  0.0421
 5194W        W 9394   5.738   0.874   9.880  0.0370 -0.1663  0.5477
 5195W        W 9395   5.763   4.886  12.336  0.3741 -0.0535 -0.1893
 5196W        W 9396   7.692   0.134   9.737  0.2021 -0.2290 -0.0483
 5197W        W 9397   7.631   8.176  12.917  0.0335 -0.1623 -0.3441
 5198W        W 9398   8.893   5.125   9.323 -0.0817 -0.0933  0.1162
 5199W        W 9399   6.556   2.064   2.845  0.2641 -0.2983  0.0857
 5200W        W 9400   0.381   2.839  10.325  0.0566  0.4281  0.1157
 5201W        W 9401   1.816   7.910   3.776  0.2327  0.0283 -0.0788
 5202W        W 9402   1.978   3.199   5.759  0.0992  0.0934  0.0589
 5203W        W 9403   9.559   2.378  11.671 -0.1403  0.2307 -0.3711
 5204W        W 9404   8.924   5.396   0.223 -0.3314 -0.0216 -0.4336
 5205W        W 9405   0.023   7.818   9.374  0.0310 -0.1359 -0.1634
 5206W        W 9406   7.748   3.347   1.651  0.2279 -0.1399  0.0391
 5207W        W 9407   3.568   9.323   1.754  0.1921  0.2543  0.2029
 5208W        W 9408   5.654   3.897  10.781 -0.2825 -0.0143 -0.1661
 5209W        W 9409   9.843   4.661  11.984 -0.1714 -0.2967  0.0897
 5210W        W 9410   3.334   3.671  12.511 -0.3610  0.0679 -0.0177
 5211W        W 9411   3.438   4.568   3.111 -0.0782 -0.1270  0.3939
 5212W        W 9412   8.570   9.465  13.291  0.1196 -0.2143 -0.3735
 5213W        W 9413   2.308   0.112  11.147 -0.0403  0.2000 -0.1323
 5214W        W 9414   3.655   3.230  12.654 -0.2245  0.2752  0.0045
 5215W        W 9415   5.385   5.928  12.064  0.0884  0.1531 -0.0464
 5216W        W 9416   7.953   3.159  10.875 -0.1635  0.1450 -0.0998
 5217W        W 9417   3.116   1.369   2.444  0.1116  0.1468  0.0889
 5218W        W 9418   8.792   3.888  12.483 -0.1137  0.1867  0.2585
 5219W        W 9419   9.301   7.001   9.969  0.2622 -0.2972 -0.0456
 5220W        W 9420   7.002   0.378   3.802  0.4642  0.0436 -0.0607
 5221W        W 9421   6.117   9.751   1.266  0.4182  0.1394 -0.1931
 5222W        W 9422   6.022   1.398  11.899  0.0904 -0.1973 -0.1231
 5223W        W 9423   9.807   5.008   9.029 -0.0505  0.0689 -0.1617
 5224W        W 9424   5.474   0.269   0.352 -0.0209  0.0338 -0.0249
 5225W        W 9425   3.039   5.060  11.469 -0.3756  0.3607  0.0127
 5226W        W 9426   5.702   9.323   8.983  0.1185 -0.1445  0.2569
 5227W        W 9427   7.852   6.986   4.497  0.4328  0.0756 -0.1960
 5228W        W 9428  10.450   6.612   3.730 -0.2069  0.0496 -0.1851
 5229W        W 9429   0.563   6.023  12.398 -0.0611  0.1564  0.0101
 5230W        W 9430   2.879   5.173  10.350  0.0626 -0.1277 -0.5722
 5231W        W 9431   5.698   6.306   1.295  0.2989 -0.0011  0.0878
 5232W        W 9432   1.229   7.427   9.743  0.0824 -0.3484 -0.1751
 5233W        W 9433   5.209   6.047   9.374  0.1257 -0.1053  0.1962
 5234W        W 9434   9.700   5.825   0.721 -0.0438  0.1097  0.3504
 5235W        W 9435   8.547   8.631  10.741  0.2510 -0.0232  0.0343
 5236W        W 9436   5.030   8.028   9.826 -0.1884  0.3865  0.0657
 5237W        W 9437   7.197   3.558  11.375 -0.0975 -0.2225  0.1239
 5238W        W 9438   3.949   9.287   9.323  0.2180  0.0464 -0.1375
 5239W        W 9439   8.988   8.322   0.543 -0.1391 -0.0874 -0.0880
 5240W        W 9440   1.526   4.679  10.969  0.1047 -0.2159 -0.1486
 5241W        W 9441   1.784   8.938   0.953  0.1497  0.0682  0.2127
 5242W        W 9442   3.272   4.544   3.678 -0.1632  0.4097 -0.1339
 5243W        W 9443   6.038   6.414   4.042 -0.2850 -0.2253 -0.0385
 5244W        W 9444   1.669   7.465  10.705 -0.1222  0.0649  0.0303
 5245W        W 9445   1.738   1.729   0.543 -0.0569  0.3072  0.0155
 5246W        W 9446   3.289   1.398   0.302  0.5375  0.0204 -0.1109
 5247W        W 9447   3.896   3.810   3.764  0.0463 -0.2834  0.0055
 5248W        W 9448   8.055   7.430  12.049 -0.5028 -0.2640 -0.1652
 5249W        W 9449   9.546   0.614   0.251  0.0907  0.1720 -0.2093
 5250W        W 9450   5.365   8.310   9.538  0.0109  0.1106 -0.1094
 5251W        W 9451   2.358   3.985   3.869 -0.2500 -0.1088  0.0426
 5252W        W 9452  10.167   8.430   1.203  0.1389  0.1881 -0.0974
 5253W        W 9453   0.914   8.297   2.896 -0.1895 -0.0234 -0.0091
 5254W        W 9454   9.908   7.509   2.868 -0.4233 -0.0057 -0.1504
 5255W        W 9455   8.102   9.949   8.645 -0.2368  0.3116  0.4781
 5256W        W 9456   3.321   1.083   1.121  0.1223  0.1160 -0.1478
 5257W        W 9457   9.535   5.069   2.682  0.2421 -0.1171  0.1482
 5258W        W 9458   6.429   6.480   4.526  0.0579  0.1410 -0.2243
 5259W        W 9459   0.609   7.445   3.303  0.1459  0.3462 -0.1353
 5260W        W 9460  10.191   4.922   0.057 -0.0452  0.0770  0.1084
 5261W        W 9461   1.899   4.141   3.846  0.2762  0.1764  0.0073
 5262W        W 9462  10.187   3.523   2.088 -0.2553 -0.1531 -0.2997
 5263W        W 9463   0.779   6.656   0.450  0.2981  0.2619 -0.0200
 5264W        W 9464   2.164   7.819   1.477 -0.0586  0.3282 -0.2670
 5265W        W 9465   3.555   0.066   2.487  0.0775 -0.1176  0.1434
 5266W        W 9466   7.391  10.256   2.841  0.2783  0.0845  0.0533
 5267W        W 9467   1.840   3.492   3.221  0.2165 -0.3070  0.2779
 5268W        W 9468   4.517   5.433   1.367  0.0237 -0.1402  0.0751
 5269W        W 9469   4.647   0.713   2.872  0.1153 -0.5054 -0.1049
 5270W        W 9470   3.067   5.705   0.736 -0.0422 -0.2240 -0.0624
 5271W        W 9471   0.227  10.322   1.908  0.1658  0.5249 -0.3148
 5272W        W 9472   3.849   6.729  12.797 -0.2381 -0.3935  0.1369
 5273W        W 9473   5.002   7.706   4.906 -0.0200 -0.0230  0.2397
 5274W        W 9474   4.361   9.015   2.949 -0.1002  0.0718 -0.4415
 5275W        W 9475   3.789   6.416  11.106 -0.0163 -0.0075 -0.0360
 5276W        W 9476   3.722   2.192   2.968 -0.1864 -0.1145  0.0511
 5277W        W 9477   1.425   4.305   1.113  0.1399 -0.0037 -0.1323
 5278W        W 9478   4.095   6.196  10.741  0.0429 -0.0304 -0.0681
 5279W        W 9479   2.559   6.220  10.930  0.0955  0.1876  0.0187
 5280W        W 9480   8.517   7.251   0.222 -0.1612  0.1458  0.0745
 5281W        W 9481   1.961   4.374   1.010 -0.0989  0.0226  0.1775
 5282W        W 9482  10.129   4.890   3.707  0.0798 -0.0197 -0.0511
 5283W        W 9483   3.759   1.385   1.158 -0.0699 -0.2603  0.0640
 5284W        W 9484   3.607  10.083   0.495 -0.1041 -0.4292  0.0910
 5285W        W 9485   2.057   1.468   4.204  0.1568  0.0381  0.2231
 5286W        W 9486   3.358   4.996   3.398 -0.4532 -0.2255 -0.0331
 5287W        W 9487   7.186   0.500   0.499  0.0673  0.1177  0.0824
 5288W        W 9488   9.377   2.605  11.273  0.0982  0.5153  0.1385
 5289W        W 9489   8.793   4.860  12.342  0.2519  0.0028 -0.6011
 5290W        W 9490   6.192   5.739   4.006 -0.2828 -0.0211 -0.2519
 5291W        W 9491   7.799   1.681   0.928  0.2037 -0.0856 -0.2210
 5292W        W 9492   2.249   8.895  10.320  0.0022 -0.2528 -0.1619
 5293W        W 9493   4.833   8.165   9.380 -0.0131 -0.1599  0.3009
 5294W        W 9494   4.637   5.759  10.222 -0.0055 -0.0770 -0.2206
 5295W        W 9495   3.823   8.279   4.275  0.2694 -0.0888  0.3387
 5296W        W 9496   3.506   4.190   3.955 -0.1915  0.2022  0.0805
 5297W        W 9497   8.745  10.025   0.551 -0.2983 -0.2260 -0.0692
 5298W        W 9498   1.306   3.421   1.739 -0.0649  0.3978  0.0413
 5299W        W 9499   0.402   9.423  13.205 -0.1112 -0.2325 -0.0368
 5300W        W 9500   0.194  10.207   2.813 -0.0569 -0.1248 -0.2702
 5301W        W 9501   3.605   9.580   0.471 -0.1326  0.2402  0.1190
 5302W        W 9502   5.205   8.415   4.028 -0.4025 -0.1066  0.0227
 5303W        W 9503   8.606  10.172  12.875 -0.0367  0.1981 -0.0501
 5304W        W 9504   0.966   0.610  11.494  0.1485  0.2071 -0.2475
 5305W        W 9505   3.687   4.455  11.858  0.3322 -0.1061 -0.2597
 5306W        W 9506   3.298   9.445  10.537  0.0546  0.0394  0.3693
 5307W        W 9507   7.687   6.794  12.811 -0.2472 -0.0872 -0.1223
 5308W        W 9508   5.214   7.621  11.799 -0.1943 -0.1043  0.1938
 5309W        W 9509  10.255   4.569  11.076  0.3370 -0.1923 -0.1816
 5310W        W 9510   6.581   3.797   3.962  0.1177 -0.0007 -0.1980
 5311W        W 9511   4.423   7.862   3.521 -0.1055 -0.2049  0.0360
 5312W        W 9512   7.019   2.078   1.117  0.2792  0.0623  0.2960
 5313W        W 9513   4.340   2.974  10.911 -0.0857 -0.1373  0.0746
 5314W        W 9514   3.537   0.038  12.036 -0.2681 -0.2752 -0.0473
 5315W        W 9515   4.074   8.409   9.817  0.2459 -0.2270 -0.0842
 5316W        W 9516   0.288   1.728  11.595 -0.3359  0.1289  0.0278
 5317W        W 9517   6.631   5.891  12.423  0.0242 -0.2308 -0.1962
 5318W        W 9518   2.090   3.415   1.167 -0.2781  0.2501 -0.1430
 5319W        W 9519   6.070   9.386   2.556 -0.3996 -0.0064  0.5396
 5320W        W 9520   3.418   3.258  12.213 -0.0427 -0.2880 -0.2029
 5321W        W 9521   2.491  10.316   4.109  0.1136  0.2359  0.2967
 5322W        W 9522   4.670   1.487  11.838  0.0475 -0.3206 -0.3190
 5323W        W 9523   2.952   7.013  11.355 -0.0999  0.1608  0.0033
 5324W        W 9524   8.854   2.662  10.339 -0.4579  0.1222 -0.0982
 5325W        W 9525   1.508  10.271   1.543 -0.0085  0.0573 -0.1309
 5326W        W 9526   6.569   5.900   3.745  0.4374  0.1042 -0.3038
 5327W        W 9527   5.717   8.869  12.327 -0.0188  0.0934 -0.1611
 5328W        W 9528   4.817   3.718  10.910 -0.1800  0.1941 -0.4147
 5329W        W 9529  10.459   1.169  10.584 -0.4410  0.1350  0.0263
 5330W        W 9530   8.020   2.536  12.453  0.2063 -0.1142  0.0860
 5331W        W 9531   9.826   2.824   0.758 -0.1318 -0.1125  0.1133
 5332W        W 9532   2.908   6.629   5.019 -0.2553  0.1566  0.2237
 5333W        W 9533   9.055   5.914  12.150 -0.0813 -0.1135 -0.2464
 5334W        W 9534   7.750   1.413   1.982 -0.0572 -0.2219 -0.4316
 5335W        W 9535   8.664   1.919  11.018 -0.0360  0.0197 -0.3712
 5336W        W 9536  10.035   3.276   3.924 -0.0685 -0.0997  0.0971
 5337W        W 9537   0.053   0.197   2.989  0.0793  0.1372  0.1936
 5338W        W 9538   2.601   7.626  11.942  0.1495  0.1810 -0.0241
 5339W        W 9539   6.809   7.647  11.786 -0.1093 -0.0772 -0.0041
 5340W        W 9540   8.558   6.155  12.124  0.0927 -0.0219  0.1665
 5341W        W 9541  10.379   9.045   1.423 -0.0789 -0.1603 -0.0848
 5342W        W 9542   3.313   4.139  12.792 -0.2424  0.2735 -0.2237
 5343W        W 9543   9.035   6.331  10.580 -0.1514  0.0365  0.1548
 5344W        W 9544   2.538   3.387  10.120 -0.0677 -0.0875 -0.1304
 5345W        W 9545   7.642   0.293  12.028 -0.1603  0.1037  0.2462
 5346W        W 9546   9.941   5.291   2.466  0.1196 -0.0619 -0.0659
 5347W        W 9547   2.936   9.841   1.115  0.1510 -0.3784 -0.0571
 5348W        W 9548   0.837   9.734   3.723  0.0826 -0.1403 -0.2489
 5349W        W 9549   5.805   8.795   1.160  0.0183  0.1849 -0.1541
 5350W        W 9550   9.423   0.792  10.839  0.0617 -0.1521 -0.2911
 5351W        W 9551   3.047   4.422  13.228  0.1245  0.1372 -0.0390
 5352W        W 9552   2.003   5.917  10.262  0.0977 -0.0920 -0.0477
 5353W        W 9553   6.913   8.541   9.204 -0.1511  0.2823  0.1111
 5354W        W 9554  10.428   3.440   2.530  0.1074 -0.0462 -0.1208
 5355W        W 9555   4.130   7.766   9.365 -0.1274  0.1056 -0.1569
 5356W        W 9556   3.322   9.605   2.331 -0.1697 -0.4052  0.0428
 5357W        W 9557   5.434   4.570   4.501 -0.0130 -0.4132  0.1106
 5358W        W 9558   4.056   1.486  13.292 -0.0126 -0.0737 -0.0865
 5359W        W 9559   4.596   6.921  12.092  0.2042  0.1473 -0.0435
 5360W        W 9560   7.932   7.915   2.878  0.0675 -0.5739 -0.1109
 5361W        W 9561   6.447   8.130   2.667 -0.1755  0.0406  0.0140
 5362W        W 9562   4.820   5.812   0.175  0.3941 -0.0347  0.2012
 5363W        W 9563   7.627   0.434  10.784 -0.2544  0.0618 -0.2105
 5364W        W 9564   4.840   9.289   2.585 -0.1758 -0.2052  0.3115
 5365W        W 9565   2.175   7.833  10.063 -0.2196  0.0532  0.0744
 5366W        W 9566   9.408   8.701  12.806  0.0361 -0.0655 -0.0184
 5367W        W 9567   5.844   7.699  13.244 -0.0873  0.0257 -0.1092
 5368W        W 9568   4.028   5.292  11.774 -0.1088  0.0835  0.3409
 5369W        W 9569  10.420   2.976   3.344 -0.0627 -0.0171 -0.0159
 5370W        W 9570   7.808   9.113   3.926 -0.2404  0.0376  0.4695
 5371W        W 9571   1.813   1.872   1.645 -0.2809 -0.1535 -0.1163
 5372W        W 9572   5.577   6.982   2.068 -0.0512  0.0413  0.4079
 5373W        W 9573   1.218   5.970  10.790 -0.2515 -0.1591 -0.0562
 5374W        W 9574   6.554   3.320   1.421 -0.1813 -0.0136  0.0195
 5375W        W 9575   4.453   9.489   9.587 -0.0768  0.0709  0.2723
 5376W        W 9576   1.681   0.521   9.130  0.0442  0.3186 -0.3405
 5377W        W 9577   3.693  10.448  11.428 -0.0475 -0.0325  0.1287
 5378W        W 9578   8.651   3.477   9.850  0.1004  0.2092 -0.0676
 5379W        W 9579   9.742   5.325   1.848 -0.0349  0.1775 -0.3373
 5380W        W 9580   2.375   1.770  11.096 -0.0191  0.3768  0.1637
 5381W        W 9581   5.186   8.931   2.267 -0.0669 -0.0499  0.2955
 5382W        W 9582  10.160   8.208   1.691 -0.1303 -0.0572  0.0341
 5383W        W 9583   8.850   8.770   0.769  0.1279  0.0945 -0.1123
 5384W        W 9584   0.440   0.130   9.223 -0.0096 -0.3909  0.1462
 5385W        W 9585   0.883   8.843  10.912 -0.0840  0.1673  0.3523
 5386W        W 9586   0.622  10.289  11.388  0.1134 -0.1200 -0.2366
 5387W        W 9587   7.197   4.898  10.272  0.1268 -0.4453  0.2827
 5388W        W 9588  10.350   1.790  10.675  0.0288  0.0931 -0.1765
 5389W        W 9589   8.890   9.769  12.993  0.1728 -0.1228 -0.2547
 5390W        W 9590   3.884   8.715   8.500  0.2782  0.2535 -0.0622
 5391W        W 9591   3.978   2.701   2.806  0.3096 -0.1733 -0.0019
 5392W        W 9592   9.102   5.107  10.072  0.2658  0.2315  0.0091
 5393W        W 9593   3.512   7.671   9.059  0.2171 -0.0269  0.2659
 5394W        W 9594   1.082   6.584   1.434 -0.0932  0.0937  0.0767
 5395W        W 9595   3.707   2.276   9.355 -0.0376 -0.1896 -0.2001
 5396W        W 9596   1.679   0.973   8.880 -0.1265 -0.2137  0.2515
 5397W        W 9597   0.243   9.773   2.518 -0.1068 -0.1830  0.0290
 5398W        W 9598   2.112   0.194   3.978 -0.2729 -0.0447 -0.1430
 5399W        W 9599   2.960   2.180  13.364  0.1860 -0.1374 -0.0968
 5400W        W 9600   7.149   4.098  10.072 -0.0619 -0.1161  0.0448
 5401W        W 9601   2.145   4.602   1.788 -0.0552 -0.0769  0.1649
 5402W        W 9602  10.216   0.773  13.099 -0.2276 -0.1266 -0.1041
 5403W        W 9603   7.300   7.625   9.595 -0.1439  0.0965  0.0136
 5404W        W 9604   4.059   1.102   3.019  0.0765 -0.0031 -0.2354
 5405W        W 9605   4.679   7.709   9.436 -0.0193  0.0381 -0.1196
 5406W        W 9606   4.555   4.774   1.016 -0.2469 -0.0860 -0.0641
 5407W        W 9607   6.799   0.777   0.567  0.2966  0.3041 -0.2485
 5408W        W 9608   0.706   0.140   0.346 -0.1404  0.0683 -0.1844
 5409W        W 9609   1.397   5.027  10.551  0.3275  0.3567 -0.3670
 5410W        W 9610   4.503   0.385   0.308  0.1907  0.1471  0.2808
 5411W        W 9611  10.273   3.193   0.926  0.1715  0.2913 -0.1202
 5412W        W 9612   5.405   6.098   0.002 -0.0066 -0.3299 -0.0816
 5413W        W 9613   4.607  10.045  13.146  0.0233  0.1414  0.1795
 5414W        W 9614   7.336   8.622  11.175 -0.1744 -0.1086  0.0698
 5415W        W 9615   4.606   2.973  13.072 -0.1100  0.0878 -0.0431
 5416W        W 9616   2.907   8.874  11.743 -0.1042  0.2073  0.0230
 5417W        W 9617   7.294   0.588   2.223 -0.1116 -0.0421  0.2171
 5418W        W 9618   5.075   6.437   9.854 -0.1246 -0.2669 -0.0891
 5419W        W 9619   4.655   0.381  13.199  0.1129 -0.1783  0.0753
 5420W        W 9620   1.383   3.473  10.036 -0.0072  0.2420 -0.0939
 5421W        W 9621   7.741   8.352  10.277 -0.1958 -0.1672 -0.1261
 5422W        W 9622   3.965   8.385   5.319  0.1190 -0.0858  0.2408
 5423W        W 9623   2.383   2.139   3.740  0.1280  0.3116 -0.0147
 5424W        W 9624   6.653   4.084  13.049 -0.1430  0.0998  0.2714
 5425W        W 9625   2.984   3.282  12.557 -0.3013  0.2385  0.0910
 5426W        W 9626   8.607   2.191  12.982  0.0089  0.1529 -0.3302
 5427W        W 9627   5.591   0.078  12.376  0.2122 -0.0716  0.2279
 5428W        W 9628   1.341   3.720  11.024  0.0411  0.0927  0.2120
 5429W        W 9629   4.813   3.279   1.919 -0.2384 -0.1645  0.5227
 5430W        W 9630   5.458   3.721   2.355 -0.1943 -0.1879 -0.0140
 5431W        W 9631   6.376   3.421  10.071 -0.1500 -0.0362  0.2291
 5432W        W 9632   6.338   1.291  12.606  0.1577 -0.0414 -0.0880
 5433W        W 9633  10.425   2.446   2.595 -0.1050 -0.1294 -0.4353
 5434W        W 9634   0.055   5.468   0.864 -0.0823  0.1374 -0.0801
 5435W        W 9635   0.032   3.216  13.298 -0.3256  0.1357  0.0876
 5436W        W 9636   1.219   0.853   3.324 -0.0703 -0.2786  0.3103
 5437W        W 9637   3.141   8.518   9.231 -0.1525  0.2625  0.2020
 5438W        W 9638   1.127   2.652   2.384  0.3691 -0.1904 -0.0468
 5439W        W 9639   3.206   1.595  11.364  0.1685 -0.0843  0.3176
 5440W        W 9640   8.699   8.585   9.795 -0.2536 -0.0001  0.0016
 5441W        W 9641   2.892   9.789  12.523  0.1970  0.0396  0.2428
 5442W        W 9642   7.473   0.856  13.122  0.1591  0.0451 -0.1303
 5443W        W 9643   5.493   1.242   9.594  0.0352  0.1774  0.5045
 5444W        W 9644   2.629   7.325   9.305 -0.0752  0.0431 -0.2226
 5445W        W 9645   0.639   0.794   1.617 -0.0001  0.0783 -0.0467
 5446W        W 9646   5.207   0.363  12.984 -0.1167 -0.2179  0.2812
 5447W        W 9647   3.794   1.157   4.282  0.1728  0.2158  0.0876
 5448W        W 9648   9.347   9.972   1.355  0.2613 -0.0127 -0.1758
 5449W        W 9649   4.216   1.031  10.395 -0.0761 -0.0262 -0.1177
 5450W        W 9650   3.188   9.101   0.697  0.0340  0.0638  0.4606
 5451W        W 9651   0.498   9.348   2.025  0.1149 -0.0483  0.0395
 5452W        W 9652   0.504   8.818  13.182  0.0202  0.1200 -0.2094
 5453W        W 9653   9.105  10.120   2.150 -0.1166  0.0475  0.3418
 5454W        W 9654   2.068   8.699  13.345 -0.1345  0.0113 -0.1932
 5455W        W 9655   3.586   7.806  10.823 -0.1118  0.0876 -0.2763
 5456W        W 9656   2.746   0.977   9.609 -0.1950  0.1371 -0.0092
 5457W        W 9657   8.284   8.757   9.538 -0.3165 -0.5214 -0.0999
 5458W        W 9658   4.519   3.658   2.129 -0.0284 -0.0643  0.1568
 5459W        W 9659   0.044   4.623  10.615 -0.0160  0.1152  0.2802
 5460W        W 9660   0.317   0.947   2.833  0.1638  0.0697  0.0695
 5461W        W 9661   4.333   5.064  13.179  0.0293 -0.2369 -0.4718
 5462W        W 9662   9.756   0.240   0.493  0.1254 -0.1931 -0.1570
 5463W        W 9663   0.379   6.835   3.931 -0.3413  0.1488 -0.1502
 5464W        W 9664   2.059   7.380  10.350 -0.1573 -0.3489  0.2818
 5465W        W 9665   5.992   9.600   3.555  0.1386 -0.0920  0.1463
 5466W        W 9666   8.384   5.696   1.527 -0.0443  0.1065 -0.1326
 5467W        W 9667   8.588   1.610   1.533 -0.3062 -0.1267  0.1503
 5468W        W 9668  10.389   8.705   3.325  0.0118  0.0783  0.0556
 5469W        W 9669   3.759   3.239   2.955 -0.1522 -0.0287 -0.0284
 5470W        W 9670   7.246   1.707   2.226 -0.0331  0.1410 -0.4029
 5471W        W 9671   4.441   0.981   1.883 -0.1163 -0.4655  0.2410
 5472W        W 9672   4.938   7.197   9.429 -0.3624  0.0055  0.1361
 5473W        W 9673  10.151   5.001  10.853 -0.0551 -0.0283  0.2159
 5474W        W 9674   3.227   7.937   3.664 -0.4123 -0.1611 -0.3471
 5475W        W 9675   6.878   6.054  11.998  0.1687 -0.2459  0.0751
 5476W        W 9676   0.183   1.984  12.161 -0.0150  0.2006  0.1657
 5477W        W 9677   5.601   5.185  13.212  0.3146 -0.1079  0.2082
 5478W        W 9678   8.226   0.695  12.519 -0.2726 -0.2694 -0.1983
 5479W        W 9679   9.577  10.364   2.957  0.0193  0.1207  0.0280
 5480W        W 9680   1.937   1.318   3.371 -0.1669  0.3126  0.3552
 5481W        W 9681   9.452  10.166   3.416 -0.4287 -0.0869  0.1034
 5482W        W 9682   8.912   6.955   2.884 -0.1631  0.0682 -0.0255
 5483W        W 9683   2.070   5.708   2.738  0.1769  0.0464 -0.1830
 5484W        W 9684   5.639   3.926   1.926 -0.3606  0.2559  0.1322
 5485W        W 9685   3.881   0.772  11.381 -0.1740  0.1205  0.4295
 5486W        W 9686  10.126   5.557   2.091  0.2990 -0.0389 -0.3574
 5487W        W 9687   0.973   2.469   8.557  0.3277  0.2316 -0.2652
 5488W        W 9688   0.519   4.621   9.652 -0.0878  0.0621  0.0485
 5489W        W 9689   1.337   9.514   4.592 -0.1093 -0.0096  0.1807
 5490W        W 9690   4.411   0.417   1.726  0.3548  0.3027  0.1123
 5491W        W 9691   6.156   7.275   2.823  0.1015  0.0150 -0.0443
 5492W        W 9692   9.101   4.239   0.608  0.2638 -0.1351  0.0897
 5493W        W 9693   6.608   4.101   2.959  0.3781 -0.4928  0.0098
 5494W        W 9694   4.821   2.892  11.355  0.0288 -0.1312 -0.0527
 5495W        W 9695  10.247   8.654   2.003  0.2673  0.0198 -0.3543
 5496W        W 9696   7.529   6.682  10.824  0.0977  0.3831  0.0593
 5497W        W 9697   5.413   0.060   1.171  0.0809  0.2492 -0.0947
 5498W        W 9698   5.666   2.397   3.738  0.2853 -0.0301  0.3345
 5499W        W 9699   3.953   6.553   8.251  0.1270  0.1276  0.3380
 5500W        W 9700  10.108   0.177   0.903  0.0947  0.1877  0.0626
 5501W        W 9701   2.253   5.363  10.994 -0.2460  0.0349 -0.2437
 5502W        W 9702   2.178   5.771   2.244 -0.0846  0.1373  0.3819
 5503W        W 9703   3.779   3.354   1.016  0.0360 -0.0958  0.2290
 5504W        W 9704   6.722   5.674  10.044  0.1791 -0.1350  0.2913
 5505W        W 9705   6.583   3.312  11.546  0.1378 -0.2625 -0.2119
 5506W        W 9706   3.074   3.003   0.383 -0.2080  0.0188  0.1335
 5507W        W 9707   4.316   5.011   9.092  0.0674 -0.0237  0.0452
 5508W        W 9708   9.082   2.907  11.594  0.0133  0.1141 -0.0568
 5509W        W 9709  10.306   7.465  11.292 -0.0095  0.1127 -0.1796
 5510W        W 9710   5.371   0.019  11.950 -0.1165  0.0886  0.0356
 5511W        W 9711   8.115   8.679  10.497 -0.0990  0.2237  0.0729
 5512W        W 9712   7.976   4.262   1.500  0.0357  0.1541 -0.2000
 5513W        W 9713   2.074   7.115   9.853 -0.0687  0.1203 -0.2205
 5514W        W 9714   2.660   6.867   0.262 -0.0732 -0.2309 -0.0865
 5515W        W 9715   1.107   6.866   4.317 -0.3323 -0.2386  0.1781
 5516W        W 9716   4.748   6.513   2.229  0.1730 -0.1553 -0.0100
 5517W        W 9717   1.338   3.445   3.488  0.2036  0.0197  0.0546
 5518W        W 9718   6.494   0.088  11.766  0.1640  0.1404 -0.0608
 5519W        W 9719   4.996   4.104  11.813  0.0621  0.0654 -0.1313
 5520W        W 9720   7.157   3.872   2.810 -0.1365 -0.4125  0.0326
 5521W        W 9721   6.407   6.853  10.753 -0.1300  0.3393 -0.1334
 5522W        W 9722   1.171   3.740   4.347  0.0317  0.2782 -0.1448
 5523W        W 9723   9.918   6.613   3.162 -0.1423  0.0669 -0.0132
 5524W        W 9724   2.955   0.046   4.980 -0.0988  0.1668 -0.0136
 5525W        W 9725   5.926   3.674   1.587  0.2924  0.1176  0.0027
 5526W        W 9726   2.539   7.341   0.127 -0.0011  0.0346 -0.0727
 5527W        W 9727   7.697   9.920  11.018  0.0060 -0.1096  0.2237
 5528W        W 9728   2.480   1.937   1.253 -0.0124  0.1173  0.0521
 5529W        W 9729  10.324   1.759  10.225  0.2397  0.1549  0.0761
 5530W        W 9730   6.013   8.003  10.031  0.0081  0.1349 -0.0271
 5531W        W 9731   2.889   6.728   1.221  0.1180  0.0991  0.0935
 5532W        W 9732   0.641   7.642   0.481 -0.4713  0.0531 -0.2587
 5533W        W 9733   7.734   7.865   9.479  0.1322 -0.1395 -0.0601
 5534W        W 9734   6.465   3.593  12.897  0.2604  0.3261  0.1620
 5535W        W 9735   8.169   1.577  10.749 -0.0639 -0.0209  0.0677
 5536W        W 9736   9.188   1.829   0.586  0.2650 -0.0645 -0.5078
 5537W        W 9737   5.531   6.057   9.832  0.2188  0.1785 -0.0381
 5538W        W 9738   4.014   7.232  12.862  0.0652  0.0181 -0.2745
 5539W        W 9739   5.442   7.806  12.860  0.2385 -0.0344 -0.1333
 5540W        W 9740   1.722   8.219   2.029  0.1205 -0.1323  0.3605
 5541W        W 9741   5.078   4.392   4.767 -0.1964  0.2926  0.4833
 5542W        W 9742   7.462   2.742  10.854  0.1947  0.0644 -0.3288
 5543W        W 9743   9.765   4.990   0.370 -0.0210 -0.0730 -0.4469
 5544W        W 9744   8.803   9.598   4.866  0.1738  0.0300  0.2976
 5545W        W 9745   6.613   9.264  10.561  0.1240  0.0790  0.1462
 5546W        W 9746   9.649   5.608  12.975 -0.1040 -0.0286  0.0544
 5547W        W 9747   6.046   3.520  10.843  0.0720  0.0143 -0.0536
 5548W        W 9748   3.952   1.254  12.230 -0.2230 -0.1611 -0.1216
 5549W        W 9749  10.249   2.771  13.406 -0.0262 -0.2065 -0.1145
 5550W        W 9750   1.458   8.483  13.164 -0.0345 -0.3494  0.1104
 5551W        W 9751   6.616   2.491   1.127  0.1233  0.0027  0.0829
 5552W        W 9752   7.135  10.297   9.793 -0.1953  0.0259 -0.3488
 5553W        W 9753   9.547   3.127  12.317 -0.0636  0.2136 -0.2695
 5554W        W 9754   7.840   2.680   2.450  0.1864 -0.2665 -0.1149
 5555W        W 9755   5.106   7.815   1.929 -0.2589  0.2795  0.1949
 5556W        W 9756   9.813   0.860   9.995 -0.1464 -0.5420  0.0508
 5557W        W 9757   0.451   8.011   0.776 -0.3725 -0.1787 -0.3868
 5558W        W 9758   3.763   4.705  10.549 -0.3649  0.4303 -0.3489
 5559W        W 9759  10.347   7.364   0.707 -0.4892 -0.0997 -0.1080
 5560W        W 9760   0.153   5.525   9.726 -0.5104 -0.0129 -0.0292
 5561W        W 9761   9.140   8.448   4.006 -0.0936 -0.3994 -0.2919
 5562W        W 9762   7.726   1.910   3.038 -0.2006  0.1543 -0.2406
 5563W        W 9763   0.384   7.340   3.847  0.0046 -0.0236  0.1796
 5564W        W 9764   2.150   9.591   0.212  0.0070 -0.0804 -0.1248
 5565W        W 9765   2.694   1.644  10.167 -0.1564  0.2200 -0.1942
 5566W        W 9766   5.048   7.264   3.246  0.0747  0.1433  0.1447
 5567W        W 9767   3.581   3.004   9.929 -0.0746  0.1009 -0.2586
 5568W        W 9768   0.916   2.326   2.697  0.0570  0.1324 -0.1352
 5569W        W 9769   6.830   4.085  12.128 -0.0130  0.3264 -0.1411
 5570W        W 9770   5.982   0.308  12.115 -0.0067  0.1053  0.1242
 5571W        W 9771   5.628  10.271   2.381 -0.1778  0.0273  0.1737
 5572W        W 9772   5.744   9.869   0.868 -0.1999  0.2597 -0.0885
 5573W        W 9773   2.907   2.799  11.432  0.0953  0.2964 -0.0119
 5574W        W 9774   2.913   2.434  10.081  0.0726 -0.1743 -0.0422
 5575W        W 9775   8.521   6.624  12.307 -0.1393  0.1180 -0.5695
 5576W        W 9776   5.056   5.396   0.419 -0.1378 -0.0293 -0.1339
 5577W        W 9777   5.989   2.388  11.558 -0.4991  0.1739  0.1374
 5578W        W 9778   6.712   3.046  12.058  0.0178 -0.2394 -0.1172
 5579W        W 9779   2.350   0.641  10.185  0.2239  0.0333  0.2786
 5580W        W 9780   2.818   8.576   2.479 -0.1746 -0.1032 -0.0545
 5581W        W 9781   6.015   9.830   2.727  0.3102 -0.4498 -0.1135
 5582W        W 9782   4.202   1.199   1.397 -0.1760  0.1412 -0.2732
 5583W        W 9783   8.158   0.931   0.563 -0.1639  0.2345  0.1289
 5584W        W 9784   9.650   2.871   4.496 -0.0154 -0.0522  0.3893
 5585W        W 9785   3.577   5.151   0.075  0.1178  0.1096 -0.0744
 5586W        W 9786   5.133   4.622   2.674  0.2481  0.1910 -0.0039
 5587W        W 9787   6.440   6.797  12.387  0.0954 -0.3883  0.0503
 5588W        W 9788   7.909   1.959   1.399 -0.3229 -0.3311 -0.0781
 5589W        W 9789   6.405  10.140   2.574  0.3786 -0.1203 -0.0665
 5590W        W 9790   0.058   5.678  11.279  0.1584  0.1420  0.1202
 5591W        W 9791   0.693   5.945   0.041 -0.0165  0.1265 -0.0725
 5592W        W 9792   7.064   1.130   3.012 -0.1188 -0.1268 -0.4175
 5593W        W 9793   7.789   8.716   1.933  0.3997  0.3135  0.3024
 5594W        W 9794   1.605   4.445   9.161  0.0973 -0.1775 -0.0394
 5595W        W 9795   2.160   5.953  11.714  0.0444  0.2092  0.0552
 5596W        W 9796   5.806   9.006   2.926  0.0768 -0.0301  0.1331
 5597W        W 9797   4.308   0.902   4.448  0.0736 -0.0360  0.0105
 5598W        W 9798   4.015   9.328  11.519 -0.1451 -0.0498  0.2395
 5599W        W 9799   4.683   4.131  10.638 -0.0349  0.0344 -0.1373
 5600W        W 9800   2.517   9.278   8.316 -0.0778 -0.1032  0.1634
 5601W        W 9801   8.152   6.086   1.792 -0.0962 -0.0301 -0.3403
 5602W        W 9802   2.215   9.743  11.473  0.0365 -0.1438  0.0809
 5603W        W 9803  10.189  10.202   5.111 -0.1907  0.1582 -0.0636
 5604W        W 9804   1.538   1.812   3.296  0.1286 -0.0090  0.2171
 5605W        W 9805   2.363   4.384  11.408 -0.0747 -0.0662 -0.0427
 5606W        W 9806   1.166   0.085   3.580 -0.1254  0.1991 -0.1503
 5607W        W 9807   5.638   5.259   4.712 -0.0608 -0.2872  0.1451
 5608W        W 9808   2.093   0.599   2.225 -0.3686  0.0392 -0.1149
 5609W        W 9809   6.190   3.392  13.231  0.0478 -0.1576  0.4653
 5610W        W 9810   9.119   8.463   9.488  0.1352  0.2874 -0.0671
 5611W        W 9811   2.125   1.523   2.100 -0.3478 -0.0450  0.1110
 5612W        W 9812   9.894   7.127   4.229  0.0073  0.0710  0.0805
 5613W        W 9813   8.959  10.357  11.789 -0.3127 -0.1186 -0.1642
 5614W        W 9814   6.678   1.134   1.214 -0.0643  0.1587 -0.0192
 5615W        W 9815   6.752   1.913   1.733 -0.2741  0.2419 -0.1444
 5616W        W 9816   9.346   5.003   3.168  0.0011  0.2171 -0.0525
 5617W        W 9817   5.231   3.888  12.397 -0.2918  0.2428  0.1155
 5618W        W 9818   2.145   7.502  10.807  0.1566 -0.0435  0.0103
 5619W        W 9819   4.890   2.048  11.192  0.0144  0.0123 -0.2527
 5620W        W 9820   1.707   2.267   9.130 -0.0553  0.1237  0.0934
 5621W        W 9821   2.696   3.879   9.747  0.0045  0.1617 -0.2018
 5622W        W 9822   0.947   8.281  11.955  0.0487 -0.1408 -0.0353
 5623W        W 9823   6.198   7.511  10.098 -0.0209  0.0416 -0.1612
 5624W        W 9824   8.562   6.743   1.205  0.0175  0.1036  0.1098
 5625W        W 9825   5.051   3.091  12.182 -0.1161  0.1888  0.0473
 5626W        W 9826   3.813   6.840   7.821  0.1791  0.2709 -0.2384
 5627W        W 9827   9.382   1.905  11.768  0.0753 -0.3768 -0.3430
 5628W        W 9828   6.824   7.666   0.379  0.1045  0.0879  0.1249
 5629W        W 9829   1.439   0.924   9.881  0.2072 -0.1648 -0.0435
 5630W        W 9830   6.184   6.126  12.423 -0.2866 -0.2216 -0.0755
 5631W        W 9831   8.712   7.421   3.307  0.2290  0.1394  0.3163
 5632W        W 9832   3.881   2.034  10.903 -0.0841  0.0837  0.2275
 5633W        W 9833  10.409   7.968   8.862 -0.0029 -0.1795 -0.1994
 5634W        W 9834   2.341   0.491  12.038  0.1408  0.0451 -0.0434
 5635W        W 9835   9.410  10.298   9.718  0.1105 -0.0173  0.1170
 5636W        W 9836   0.126  10.203   9.046  0.0067  0.1630  0.0286
 5637W        W 9837   6.358   1.276  10.511 -0.0286  0.2409 -0.0419
 5638W        W 9838   3.243   2.239   3.204 -0.0424 -0.1454  0.0910
 5639W        W 9839   1.064   2.514   3.652 -0.1052 -0.1760 -0.0447
 5640W        W 9840   8.726   5.063  13.244 -0.0543  0.0570  0.1525
 5641W        W 9841   1.515   3.947   4.104 -0.0520  0.0317  0.1215
 5642W        W 9842   5.971   2.442  11.046  0.1279  0.0106  0.1327
 5643W        W 9843  10.063   4.640  11.569 -0.2324 -0.0003  0.0033
 5644W        W 9844   9.548   7.525   0.655 -0.2301 -0.1154 -0.0635
 5645W        W 9845   8.354   5.449   4.088 -0.2385 -0.0958 -0.1453
 5646W        W 9846   0.786   9.497  11.771 -0.0286 -0.0969 -0.0944
 5647W        W 9847   4.761   6.253   1.511  0.1664  0.0058  0.1295
 5648W        W 9848   8.298   4.533   2.317  0.1623  0.2180 -0.0460
 5649W        W 9849   3.821   1.184   0.200  0.1736  0.0701 -0.1229
 5650W        W 9850   6.135   6.216   9.340 -0.0361  0.0286 -0.0524
 5651W        W 9851   3.679   4.493   1.483  0.2879 -0.0058 -0.2194
 5652W        W 9852   5.186   6.749  10.325 -0.0868  0.0950  0.0753
 5653W        W 9853   3.497   1.937  13.321 -0.3406  0.1821 -0.2828
 5654W        W 9854   0.468   1.041   3.836  0.0721  0.0067 -0.3759
 5655W        W 9855   9.869   7.700   9.995 -0.0445  0.0748 -0.0900
 5656W        W 9856   6.776   7.523   1.488 -0.2854  0.0162 -0.0073
 5657W        W 9857   5.585   7.249  10.908 -0.1805 -0.3088 -0.3759
 5658W        W 9858   9.776   2.650  13.242 -0.0210 -0.1604  0.2104
 5659W        W 9859   0.932   6.333  10.709 -0.0551  0.0598 -0.0257
 5660W        W 9860   4.784   2.436   2.248  0.1588  0.0742  0.0533
 5661W        W 9861   1.383   9.116  13.004 -0.0055 -0.0438  0.3080
 5662W        W 9862   1.208   1.277   1.329 -0.1656  0.0446  0.0105
 5663W        W 9863   5.816   6.400  12.742 -0.0568 -0.0876  0.0248
 5664W        W 9864   7.217   2.744   0.363  0.2435  0.1469  0.1233
 5665W        W 9865   9.930   8.670   9.795 -0.1295  0.1522  0.1609
 5666W        W 9866   5.383   8.198   2.226 -0.2652 -0.3258  0.2272
 5667W        W 9867   6.178   4.462   1.421 -0.1103  0.2092 -0.1497
 5668W        W 9868  10.427   6.470   9.628  0.3201  0.1233 -0.1299
 5669W        W 9869   4.906   9.690   9.202  0.1216  0.0842  0.2224
 5670W        W 9870   8.239   0.333  11.196  0.0689 -0.2193  0.1062
 5671W        W 9871   3.651   3.460  11.725 -0.2849 -0.0241 -0.1562
 5672W        W 9872  10.002   9.526   8.213 -0.0245 -0.2572 -0.2101
 5673W        W 9873   0.596   3.569   2.262  0.1202  0.0874  0.0692
 5674W        W 9874   2.859   5.897  12.418 -0.1243 -0.2246 -0.1686
 5675W        W 9875   1.310   3.776   9.617 -0.2058  0.0335  0.2903
 5676W        W 9876   3.365   4.842   0.809 -0.0204  0.0199 -0.2239
 5677W        W 9877   5.664   9.668   4.115  0.0850  0.1032 -0.1600
 5678W        W 9878   6.418   3.946  12.527  0.1778 -0.2795  0.2080
 5679W        W 9879   0.858   4.770   9.316 -0.0865  0.1703  0.0943
 5680W        W 9880   6.360   6.949   3.477 -0.3842  0.0171 -0.4163
 5681W        W 9881   9.850   0.511  10.776 -0.0529  0.0253 -0.1356
 5682W        W 9882   9.204   5.083   1.857 -0.2641 -0.1218  0.1490
 5683W        W 9883   6.112   4.743   0.848  0.0394 -0.0804  0.1132
 5684W        W 9884   0.774   4.647   3.407  0.0950 -0.1242 -0.0121
 5685W        W 9885  10.183   2.115   0.528 -0.0196 -0.0946  0.0683
 5686W        W 9886   3.082   5.693   1.710  0.3270 -0.0928  0.1309
 5687W        W 9887   2.297   4.701   1.256 -0.0822  0.1234  0.1242
 5688W        W 9888   0.311   8.342  12.524 -0.0907 -0.0743  0.1049
 5689W        W 9889   2.131   2.055   0.309 -0.3507  0.0622 -0.1012
 5690W        W 9890   8.257   1.632   0.700 -0.3051  0.1300 -0.2780
 5691W        W 9891   6.026   9.004   9.162 -0.0200 -0.2393  0.1856
 5692W        W 9892   5.706   8.514   0.585 -0.1379 -0.0480 -0.3412
 5693W        W 9893   3.202   9.714  12.871 -0.0006  0.1912 -0.2118
 5694W        W 9894   6.967   6.929   4.748 -0.4462  0.0264  0.1400
 5695W        W 9895   5.711   7.857   9.612 -0.1511  0.2560  0.0676
 5696W        W 9896   6.342   0.808   1.143 -0.3047 -0.0300  0.1260
 5697W        W 9897   4.889   4.682   3.141 -0.0035  0.0074  0.0239
 5698W        W 9898   6.605   7.078  11.128  0.1053 -0.1183  0.2163
 5699W        W 9899   5.713   3.948   0.542 -0.2146  0.3702 -0.2317
 5700W        W 9900   6.585   3.241   1.999  0.2587 -0.2513  0.0148
 5701W        W 9901   7.389   4.992   1.469  0.1147  0.1226 -0.5558
 5702W        W 9902   1.301  10.369   8.166  0.1227  0.0319 -0.2392
 5703W        W 9903   7.998   6.230  10.931 -0.1309  0.0087 -0.0183
 5704W        W 9904   5.865   5.602   0.500  0.2734 -0.0124 -0.1919
 5705W        W 9905   1.205   7.799   9.392  0.0827  0.0463  0.1994
 5706W        W 9906   1.996  10.247  12.750 -0.1704 -0.1896 -0.1772
 5707W        W 9907   8.811   7.609   4.435 -0.0619 -0.0237 -0.1160
 5708W        W 9908   8.250   7.517   4.499  0.1811  0.0002  0.1483
 5709W        W 9909   0.269   9.087   0.097 -0.1502 -0.1619 -0.1863
 5710W        W 9910   2.881   3.544   4.601  0.0546  0.0872  0.2089
 5711W        W 9911   0.980   7.784   8.915 -0.1433 -0.0970  0.0833
 5712W        W 9912   0.707   7.950  11.620  0.1229 -0.1751  0.0301
 5713W        W 9913   5.860   5.281  10.670  0.0344 -0.0313  0.1416
 5714W        W 9914   1.412   1.315   3.224 -0.0435  0.2930  0.0655
 5715W        W 9915   8.595   1.448  11.068 -0.1659  0.1119  0.0157
 5716W        W 9916   4.080   4.958   1.217 -0.3892 -0.3013 -0.0453
 5717W        W 9917  10.457   5.940  11.745  0.0290 -0.1731  0.3237
 5718W        W 9918   3.989  10.412   2.825 -0.0163  0.0896  0.0893
 5719W        W 9919   2.987   3.206   2.516 -0.0537 -0.0485  0.0022
 5720W        W 9920   0.814   0.043   1.905 -0.1530 -0.1261  0.0849
 5721W        W 9921   6.129   2.538   3.514  0.1009 -0.0486 -0.0104
 5722W        W 9922   2.230   8.429   7.855  0.0607 -0.3086  0.3031
 5723W        W 9923   5.046   7.077  11.611  0.1464 -0.0977 -0.2386
 5724W        W 9924   3.615   6.689  11.678 -0.2017  0.2769 -0.0479
 5725W        W 9925   1.356   5.323   3.792 -0.1670  0.0043 -0.2371
 5726W        W 9926   7.124   0.078   0.113 -0.2601  0.1903 -0.1887
 5727W        W 9927   0.277   4.253   2.741  0.1127  0.3049 -0.2987
 5728W        W 9928   9.462   0.665  11.886  0.1424 -0.0939 -0.1287
 5729W        W 9929   4.395   9.102   1.065 -0.1946  0.4325 -0.2119
 5730W        W 9930   8.255   9.630  10.300  0.4582 -0.0750  0.1483
 5731W        W 9931   9.483   6.123  12.400  0.0907  0.1235  0.0071
 5732W        W 9932   9.384   7.203   4.223  0.0135 -0.0513  0.1467
 5733W        W 9933   2.844   1.035  12.625 -0.2379  0.1200  0.0641
 5734W        W 9934  10.099  10.324   2.768  0.0432  0.4170 -0.0017
 5735W        W 9935   4.869   3.826   4.402 -0.4736 -0.0687 -0.2578
 5736W        W 9936  10.312  10.039   2.224 -0.1797  0.4525 -0.1626
 5737W        W 9937   8.718   4.599  11.317 -0.1302  0.1942  0.0812
 5738W        W 9938   4.486   9.077   1.672  0.0197 -0.1228  0.3418
 5739W        W 9939   1.692   7.681  11.647 -0.1520 -0.1343 -0.2268
 5740W        W 9940   9.200   5.587   3.106 -0.4488 -0.4848 -0.2844
 5741W        W 9941   2.894   1.863   9.353 -0.0885  0.2401 -0.3478
 5742W        W 9942   2.041   1.745   3.078 -0.1355  0.0659 -0.1384
 5743W        W 9943   3.686   9.068   0.434 -0.2178  0.1883 -0.1309
 5744W        W 9944   6.963   5.173   9.864  0.1471 -0.0071 -0.0434
 5745W        W 9945   8.104   1.451   0.262  0.0888  0.0004 -0.1283
 5746W        W 9946   6.251   1.324  11.458  0.1140  0.0392 -0.0368
 5747W        W 9947   8.329   3.480   3.440  0.0908 -0.1729 -0.1109
 5748W        W 9948   4.781   9.804   3.879  0.1037  0.1296 -0.2404
 5749W        W 9949  10.463   7.835   0.775 -0.0334  0.1587 -0.2009
 5750W        W 9950   2.072   9.870   2.806 -0.2582  0.0949 -0.2819
 5751W        W 9951   0.884   4.476   0.333  0.1597  0.0264 -0.1011
 5752W        W 9952   3.755   1.676   2.816 -0.0183  0.0981  0.0729
 5753W        W 9953   3.554   0.604   1.154  0.1095 -0.1122  0.2312
 5754W        W 9954   5.103   1.741  13.112 -0.2365  0.3479  0.1731
 5755W        W 9955   4.730   3.003  12.542 -0.0333  0.2530  0.0950
 5756W        W 9956   8.425   5.698   0.971  0.3898 -0.2812 -0.0327
 5757W        W 9957   1.677   5.910   3.431  0.0323 -0.0150  0.1443
 5758W        W 9958   8.789   0.810   1.290  0.0926 -0.2453  0.2783
 5759W        W 9959   4.028   8.962  11.020 -0.0628  0.0825 -0.0922
 5760W        W 9960   6.190   4.364   0.377  0.4547 -0.3189 -0.1541
 5761W        W 9961  10.130   7.703   5.083 -0.3145  0.1001 -0.0361
 5762W        W 9962   4.905   9.468  12.588 -0.2556 -0.3533 -0.0678
 5763W        W 9963   4.241   1.398   4.016  0.2615 -0.1298  0.4250
 5764W        W 9964   5.285   3.117   1.951  0.2132 -0.0451 -0.0452
 5765W        W 9965   7.851   5.212   3.969 -0.0394 -0.2436 -0.2425
 5766W        W 9966   1.304   6.227   1.068  0.3203 -0.1429  0.1289
 5767W        W 9967   2.578  10.122   9.966  0.0193 -0.0501  0.0585
 5768W        W 9968   8.359   0.630   1.540 -0.0307 -0.2112 -0.3348
 5769W        W 9969   8.920   3.747   0.378 -0.2379 -0.0376 -0.1765
 5770W        W 9970   4.021   1.800  12.393  0.2632  0.1194 -0.0219
 5771W        W 9971   5.136   5.121   9.948  0.0401 -0.1005 -0.1839
 5772W        W 9972   3.013   7.574   0.768  0.0138 -0.2065  0.0229
 5773W        W 9973   4.980   4.126   1.340 -0.4718 -0.1833 -0.1904
 5774W        W 9974   6.494   2.558   2.801  0.1237 -0.0094  0.0353
 5775W        W 9975   0.476   0.307  12.898  0.0175 -0.1137  0.3893
 5776W        W 9976   6.517   8.819   3.456 -0.2619 -0.2423  0.1619
 5777W        W 9977   6.075   1.259   2.363 -0.2159 -0.0009 -0.1121
 5778W        W 9978  10.177   5.823   3.296  0.3036 -0.0789  0.0483
 5779W        W 9979   3.172   2.994  13.175  0.1068  0.1070  0.0453
 5780W        W 9980   2.337   8.281   8.742  0.1219  0.1264 -0.0228
 5781W        W 9981   8.310   5.102   9.446  0.0643 -0.1774 -0.0826
 5782W        W 9982   5.995   1.510  10.249 -0.0558 -0.2187  0.1498
 5783W        W 9983   1.855   9.265   8.921  0.0031 -0.0553 -0.0211
 5784W        W 9984   2.262   8.507   2.394 -0.0780  0.2252  0.1486
 5785W        W 9985   8.113   7.860   5.462  0.1540 -0.1535  0.2714
 5786W        W 9986   0.628   4.932   4.449 -0.0186  0.0823  0.1815
 5787W        W 9987   9.677   9.063   9.066  0.0736  0.6978  0.0760
 5788W        W 9988   3.231   6.196  12.669 -0.0602  0.0519  0.1468
 5789W        W 9989   7.115   5.771  12.346  0.0749 -0.3350  0.1530
 5790W        W 9990   0.655   9.058   8.457  0.0268 -0.2738 -0.0143
 5791W        W 9991   4.648  10.253   9.907  0.2702  0.0116  0.2159
 5792W        W 9992   4.346   3.845  12.696  0.0627  0.0827  0.0345
 5793W        W 9993   4.894   4.884   0.498  0.2226 -0.2922 -0.0186
 5794W        W 9994   2.257   1.299   2.925 -0.1459  0.0812 -0.1824
 5795W        W 9995  10.044   8.138  12.391  0.0110 -0.1920  0.0834
 5796W        W 9996   3.696   2.174  12.290 -0.1803 -0.2064  0.3901
 5797W        W 9997   3.926   0.481   3.606  0.0564  0.3015 -0.1379
 5798W        W 9998   3.023   6.276   1.093  0.0332 -0.1975 -0.0264
 5799W        W 9999   0.595   5.711   4.451  0.0086 -0.3202  0.2120
 5800W        W10000   8.418   3.362  10.662 -0.1198  0.0907  0.1180
 5801W        W10001   6.692  10.361   1.568 -0.2210 -0.0363 -0.2134
 5802W        W10002   1.949   8.456   4.326 -0.1159  0.2100  0.2190
 5803W        W10003   6.563   4.626   0.592 -0.0522  0.1589 -0.2302
 5804W        W10004   3.733   3.619  11.178 -0.0618 -0.0045  0.0434
 5805W        W10005   1.178   2.451   9.276 -0.2835 -0.0233  0.1440
 5806W        W10006   4.240   5.797  11.834 -0.2022  0.2120  0.1888
 5807W        W10007   9.902   8.552   0.677 -0.0669 -0.0828  0.0547
 5808W        W10008   0.478   3.972   1.436  0.3385 -0.1656  0.1797
 5809W        W10009   6.902   6.247  10.105 -0.1630 -0.0678  0.1971
 5810W        W10010   5.153   7.489   9.044 -0.1959 -0.1564 -0.0811
 5811W        W10011   2.935   5.892   4.418 -0.1046  0.2183  0.2168
 5812W        W10012  10.029   5.704  10.909  0.3304 -0.3771  0.1713
 5813W        W10013   2.982   7.250  11.879 -0.1141  0.1311  0.0220
 5814W        W10014   9.805   1.606  11.129 -0.3439  0.3626 -0.1328
 5815W        W10015   1.623   1.696   2.131 -0.0076  0.1629 -0.1715
 5816W        W10016   7.942  10.066   4.011  0.0135  0.0230 -0.2057
 5817W        W10017   8.767   1.902  12.019  0.2379  0.1073  0.0653
 5818W        W10018   4.177   6.948   0.460  0.0415  0.2079  0.0515
 5819W        W10019  10.167   0.453  12.693 -0.0294 -0.2068  0.0980
 5820W        W10020   3.977   2.261   9.859  0.0546  0.1766  0.2366
 5821W        W10021   4.476   9.741   1.932 -0.3544 -0.1298  0.0356
 5822W        W10022   5.206   6.674   2.439 -0.3354  0.1089 -0.2872
 5823W        W10023   2.976   6.456  12.284  0.2595  0.2180  0.3273
 5824W        W10024  10.319   0.371   3.475 -0.0278  0.0848  0.0561
 5825W        W10025   7.516   9.281  11.746 -0.3216 -0.0701  0.0631
 5826W        W10026   8.664   7.451  13.251 -0.0514  0.0456 -0.1107
 5827W        W10027   9.748   0.871  13.252  0.1520  0.0782  0.0180
 5828W        W10028   2.841   9.865  11.516  0.1233 -0.0418  0.1148
 5829W        W10029   6.695   8.629  11.026  0.1106  0.0938  0.0488
 5830W        W10030   0.535   7.363  10.890 -0.2674  0.2320 -0.1661
 5831W        W10031   3.562   3.164  13.432  0.3134  0.1049 -0.1955
 5832W        W10032   4.033   4.020   3.296  0.1780 -0.1165 -0.1542
 5833W        W10033   5.956   4.751  13.355  0.0830  0.2183  0.0920
 5834W        W10034  10.462   8.068   2.715 -0.2321 -0.0332 -0.0974
 5835W        W10035   6.625  10.319   1.065 -0.1242 -0.0240  0.0792
 5836W        W10036   4.080   5.239   0.123  0.2502  0.1933  0.0648
 5837W        W10037   0.608   7.179   9.156 -0.1444  0.2031 -0.1889
 5838W        W10038   6.926   7.092  11.531  0.0019  0.0570 -0.1840
 5839W        W10039   7.714   3.383   9.555 -0.0346  0.4386  0.1156
 5840W        W10040   5.892   9.494  12.074  0.3993  0.0553  0.1131
 5841W        W10041   4.635   2.214  12.505  0.0842 -0.0410 -0.0839
 5842W        W10042   1.584   1.876   0.080 -0.1877  0.3004 -0.0770
 5843W        W10043   4.113   8.099   1.467  0.0446 -0.0665  0.0010
 5844W        W10044   1.425   2.983   3.115 -0.1033 -0.2291  0.0643
 5845W        W10045   8.240   8.378   2.045  0.0671 -0.1838 -0.1385
 5846W        W10046   7.266   1.816  11.150 -0.1372 -0.1771  0.0834
 5847W        W10047   5.009   8.768   9.323  0.1227  0.2215 -0.2442
 5848W        W10048   5.949   0.099   1.028  0.0976 -0.1425  0.0537
 5849W        W10049   5.814   3.509   3.276  0.2430  0.0656 -0.0056
 5850W        W10050   2.237   6.489   4.223 -0.0981  0.0034 -0.2254
 5851W        W10051   4.692   5.998   1.996  0.2310 -0.1264  0.0059
 5852W        W10052   9.173   8.847   9.959  0.2133  0.2295 -0.0243
 5853W        W10053   5.432   2.572  11.325 -0.0983  0.2010  0.0774
 5854W        W10054   3.295   6.229   9.434  0.0576 -0.0541  0.0131
 5855W        W10055   3.829   4.591   0.962  0.1590  0.2527 -0.5149
 5856W        W10056   3.683   0.490  12.869  0.3522 -0.0951  0.2586
 5857W        W10057   7.951   3.666  10.688 -0.0317  0.0966 -0.1565
 5858W        W10058   2.083   6.938   1.535  0.1482 -0.0625 -0.2880
 5859W        W10059   3.364   5.329   0.510  0.1560 -0.1082 -0.0319
 5860W        W10060   2.231   5.926   1.250 -0.0478 -0.1656  0.3124
 5861W        W10061   8.384   4.797   1.408 -0.2216  0.0696 -0.1942
 5862W        W10062   9.485   3.771   1.535  0.0257 -0.0006  0.0493
 5863W        W10063   0.072   6.334   8.973 -0.0694  0.2277 -0.1967
 5864W        W10064   9.322   2.303   0.613  0.1162 -0.1103 -0.0367
 5865W        W10065   0.777   5.696   2.053  0.2677  0.1109  0.1323
 5866W        W10066   0.066   5.069  12.707  0.0609  0.3671  0.1248
 5867W        W10067  10.256   3.244  12.812  0.2090 -0.1128 -0.0810
 5868W        W10068   4.565   8.449   0.065  0.0449  0.3862  0.0078
 5869W        W10069   4.920   8.761  10.260  0.1133 -0.0455 -0.0427
 5870W        W10070   3.193   3.745   9.728  0.0948  0.0415  0.0689
 5871W        W10071   9.040   5.761   3.597 -0.1608 -0.2547 -0.1889
 5872W        W10072  10.125   7.391   3.558  0.0266 -0.2760 -0.4464
 5873W        W10073   5.256   9.094   0.360 -0.0169 -0.0226 -0.4144
 5874W        W10074   2.010   7.137   3.218 -0.3033  0.1775 -0.2103
 5875W        W10075   7.497   3.329  12.037 -0.0635  0.0083  0.2549
 5876W        W10076   2.294   3.629   0.725  0.2438  0.1309 -0.2378
 5877W        W10077   7.445   9.394   9.584 -0.2904 -0.1307  0.2613
 5878W        W10078   8.383   0.809  10.235  0.2770  0.1125 -0.0107
 5879W        W10079  10.379   1.894   3.689  0.0250  0.1288 -0.3328
 5880W        W10080   2.602   5.578   9.128 -0.0287  0.0278  0.5581
 5881W        W10081   3.211   9.249   3.080 -0.1094  0.0821 -0.3074
 5882W        W10082   6.519   1.411  10.051  0.0795 -0.2640  0.3109
 5883W        W10083   2.774   2.316  12.520 -0.2473 -0.2057 -0.2854
 5884W        W10084   3.544   1.903   1.155  0.2986  0.1486  0.3006
 5885W        W10085  10.284  10.358   8.606  0.1511 -0.1307 -0.1834
 5886W        W10086   7.547   8.834  12.174 -0.3290 -0.0154 -0.1831
 5887W        W10087   9.269   5.864   0.338 -0.2114  0.1478 -0.0261
 5888W        W10088   3.595   0.989   9.161 -0.0486  0.2795 -0.0890
 5889W        W10089   4.941   7.886  12.650  0.1535  0.0499  0.2828
 5890W        W10090   1.452   4.871   3.099 -0.1281 -0.0416  0.0065
 5891W        W10091   7.216   6.858   0.487  0.0077  0.2318 -0.0990
 5892W        W10092   8.872   7.910   3.071  0.2410  0.0630  0.4187
 5893W        W10093   6.828   2.206  11.687  0.1605  0.1315  0.3053
 5894W        W10094   8.346   6.921   1.579 -0.4451  0.0499  0.0275
 5895W        W10095   0.997   4.515  11.565 -0.1518 -0.0668  0.1457
 5896W        W10096   9.696   4.966   2.197  0.1447  0.2951  0.1876
 5897W        W10097   9.508   1.960   1.102 -0.0966 -0.0660  0.1195
 5898W        W10098  10.254   5.133  11.340  0.2265 -0.0922  0.0288
 5899W        W10099   2.207   6.479   1.372 -0.2792  0.1047 -0.0526
 5900W        W10100   3.789   5.532  11.307  0.0040 -0.2922  0.2000
 5901W        W10101   5.110   0.109   0.743  0.3979  0.2688 -0.0178
 5902W        W10102   0.411   8.275  10.447  0.2166 -0.0965 -0.1188
 5903W        W10103   2.457   9.702   1.080 -0.0224 -0.2216 -0.0016
 5904W        W10104   0.712   8.739   3.200 -0.2251 -0.1715  0.2762
 5905W        W10105   1.504   6.994  10.987 -0.1368  0.0067 -0.2318
 5906W        W10106   0.972   0.810   4.889 -0.4865 -0.0225 -0.2791
 5907W        W10107   6.921   4.369  11.516  0.1736  0.0716 -0.0698
 5908W        W10108   1.380  10.189   9.243  0.1034 -0.1065 -0.4073
 5909W        W10109   2.828   8.694   8.367 -0.1935 -0.1373  0.1848
 5910W        W10110   2.184   0.046  10.227 -0.1649  0.3307  0.1488
 5911W        W10111   2.289   9.575  12.443 -0.1775  0.5191 -0.2859
 5912W        W10112   2.604   8.681   2.033 -0.1868 -0.1316  0.1686
 5913W        W10113   8.684  10.091   4.153  0.1498  0.0415  0.2499
 5914W        W10114   6.273   6.403  13.447 -0.1132 -0.3636  0.0167
 5915W        W10115   0.166   4.016  11.703  0.3235  0.0434 -0.1310
 5916W        W10116   9.216   7.707   3.983  0.0065 -0.0486  0.0602
 5917W        W10117   2.016   8.887   2.774 -0.0769 -0.2075  0.0504
 5918W        W10118   4.969   9.049   1.794 -0.1398  0.1112  0.3012
 5919W        W10119   4.258   3.714  10.784  0.3396 -0.0860 -0.0628
 5920W        W10120   2.674   9.050  11.175 -0.0228 -0.1103  0.1969
 5921W        W10121   3.712   0.261   0.071  0.2495  0.1518 -0.1563
 5922W        W10122   7.721   2.350  11.971 -0.0250 -0.0059 -0.1969
 5923W        W10123   0.018  10.088   3.709  0.1539 -0.3188  0.4010
 5924W        W10124   1.408   6.925   2.456 -0.5421  0.0148 -0.0260
 5925W        W10125   7.868   0.226  10.258 -0.2373  0.1625  0.2262
 5926W        W10126   1.471   2.599  10.424 -0.1417 -0.2685  0.0732
 5927W        W10127   0.841   6.685   3.865 -0.2342 -0.0749  0.0147
 5928W        W10128   6.672   7.611  12.724 -0.5345  0.0213 -0.1045
 5929W        W10129  10.351   6.827   2.879  0.1779  0.0118 -0.1103
 5930W        W10130   4.984   2.505  10.973 -0.2541 -0.1420  0.1951
 5931W        W10131   9.173   6.343   1.998 -0.0981 -0.0350 -0.0758
 5932W        W10132   5.873   7.492  10.578 -0.2698 -0.1952  0.0962
 5933W        W10133   8.904   2.761   0.909 -0.0544  0.0131 -0.0410
 5934W        W10134   9.376   8.046   9.517  0.0221  0.2145  0.3827
 5935W        W10135   2.973   5.649  10.135  0.2294 -0.0541 -0.3371
 5936W        W10136   2.909   1.877   3.181  0.0765  0.0741 -0.2675
 5937W        W10137   0.435   7.365   0.073 -0.2830  0.1665  0.3086
 5938W        W10138   6.764   8.864   9.507 -0.1048  0.2356  0.0545
 5939W        W10139  10.165   7.131   2.543 -0.0299 -0.0352  0.1108
 5940W        W10140   2.499   2.952   4.374 -0.2405 -0.1084 -0.0282
 5941W        W10141   2.535   1.328   1.621  0.4774 -0.1302 -0.0588
 5942W        W10142   1.213   4.850   1.740  0.1736  0.3017  0.0396
 5943W        W10143   2.285   0.494  10.748 -0.0188 -0.2363  0.2669
 5944W        W10144   4.496   8.546   2.905 -0.0331  0.2774 -0.0845
 5945W        W10145   0.428   9.154   2.496 -0.1888 -0.0475  0.2351
 5946W        W10146   7.665   3.874   1.713 -0.0382  0.0633 -0.0308
 5947W        W10147   3.723   2.162   2.450 -0.2455 -0.0811  0.2653
 5948W        W10148   2.919   5.073  10.871  0.0735  0.1134 -0.3160
 5949W        W10149   4.633   9.717  10.894 -0.1515  0.1312  0.1034
 5950W        W10150   5.444   0.071   2.937  0.0172 -0.3781 -0.4303
 5951W        W10151   8.996   9.358   9.290 -0.1649 -0.0004 -0.0878
 5952W        W10152   6.852   4.552  10.220 -0.2561  0.0635  0.2035
 5953W        W10153   1.779   2.544   1.178  0.1218  0.0722 -0.2035
 5954W        W10154   3.404   8.345   4.586  0.0915  0.3502 -0.1572
 5955W        W10155   7.078   9.191   0.080 -0.0329 -0.0412  0.1405
 5956W        W10156   1.581   8.162  12.451 -0.0170  0.1582  0.3439
 5957W        W10157   8.181   0.888   3.734  0.1828 -0.2811  0.2726
 5958W        W10158   1.953  10.420   1.233 -0.2461 -0.0963  0.2484
 5959W        W10159   8.035   4.263  11.346  0.2080 -0.0877  0.0461
 5960W        W10160   7.585   3.986   0.674  0.2095 -0.1666  0.4127
 5961W        W10161   2.635   0.933   2.939  0.1236  0.0586 -0.0959
 5962W        W10162   0.107   7.071   3.447 -0.0928 -0.0443 -0.1913
 5963W        W10163   2.684   5.939   2.560 -0.2754 -0.0190 -0.0209
 5964W        W10164   3.294   7.277   0.209  0.0791 -0.0054  0.0984
 5965W        W10165   8.919   4.229   9.961 -0.3668 -0.0496 -0.2263
 5966W        W10166   6.293   5.434  11.188  0.0320  0.1424  0.2498
 5967W        W10167   4.879   0.039   1.639  0.0978  0.1073  0.2479
 5968W        W10168   6.551   5.456  12.822 -0.3427 -0.0938  0.0469
 5969W        W10169   9.987   9.060   3.835 -0.1394 -0.0831  0.0125
 5970W        W10170   1.409   2.221  11.562  0.0613 -0.0095 -0.0620
 5971W        W10171   8.014   0.664   9.442  0.3569 -0.2329  0.2209
 5972W        W10172   3.241   4.773  11.791  0.0918  0.2636 -0.1569
 5973W        W10173   7.589   0.646   9.694  0.0836 -0.2355  0.0648
 5974W        W10174   8.117   7.438   5.854 -0.0720  0.1421 -0.2133
 5975W        W10175   2.769   9.187   1.945  0.1112  0.1728 -0.0641
 5976W        W10176   6.346   5.176   2.612  0.0425 -0.0022  0.2018
 5977W        W10177   7.223   3.688  12.325 -0.0516  0.0896 -0.4050
 5978W        W10178   6.523   2.428  13.364 -0.0650 -0.7186  0.0187
 5979W        W10179   1.818   5.364  13.194  0.0218 -0.1227 -0.2038
 5980W        W10180   9.765   7.152   3.244 -0.0282 -0.1951  0.0471
 5981W        W10181   6.826   2.089  10.983 -0.2965 -0.3227 -0.0839
 5982W        W10182   9.138   3.341   9.737  0.0494  0.0007 -0.0273
 5983W        W10183   8.796   3.437  13.385  0.0567  0.3133 -0.1149
 5984W        W10184   0.052   5.986   8.467  0.0932 -0.4277  0.0414
 5985W        W10185   4.430   7.225   2.033 -0.0689  0.0290  0.0802
 5986W        W10186   2.058   7.396   9.257 -0.0162  0.1149  0.0113
 5987W        W10187   7.333   5.376   3.194  0.1040  0.1129  0.0214
 5988W        W10188   1.730   3.779  10.704  0.1657  0.0512  0.1196
 5989W        W10189   9.688   4.672   1.732  0.0697  0.1285  0.0070
 5990W        W10190   7.299   4.071  11.348 -0.3333 -0.1886 -0.0231
 5991W        W10191   9.861  10.408   9.968  0.0496 -0.0763 -0.0782
 5992W        W10192   2.716   9.556   4.097  0.0997  0.3279  0.1484
 5993W        W10193   4.407   1.125  12.047 -0.2624 -0.0862  0.1179
 5994W        W10194   1.552   1.224  11.164 -0.1888  0.1519 -0.1187
 5995W        W10195   7.991   5.447  12.680 -0.1425  0.1094  0.0429
 5996W        W10196   9.730   4.011   2.757  0.0308 -0.1777  0.0185
 5997W        W10197   5.784   4.480   1.902  0.0960  0.1078  0.0079
 5998W        W10198   7.929   0.886   1.442 -0.1408  0.2271  0.2670
 5999W        W10199   4.392   7.660  11.085  0.0754  0.1693 -0.0337
 6000W        W10200   6.375   4.484  12.207  0.1673  0.2339 -0.0615
 6001W        W10201   6.238   3.843   2.694 -0.0971 -0.3628  0.1305
 6002W        W10202   1.014   1.336  10.574  0.1034  0.3100  0.0572
 6003W        W10203  10.330   2.574   9.604 -0.1684  0.0094  0.4000
 6004W        W10204   9.376   7.757   1.599 -0.1799 -0.4040  0.4836
 6005W        W10205   2.959   3.029   0.846 -0.0524 -0.1410 -0.2334
 6006W        W10206   1.760   5.630   0.383  0.1346  0.1657  0.0592
 6007W        W10207   8.000   9.906   1.246 -0.2001 -0.0393  0.1396
 6008W        W10208   5.318   0.194   2.415 -0.2598  0.1675 -0.0736
 6009W        W10209   8.858   1.307   4.248 -0.1812  0.2287 -0.0147
 6010W        W10210   2.544   5.587   4.369  0.0334 -0.0480  0.0598
 6011W        W10211   0.158   5.511  12.933  0.2858  0.0771 -0.0498
 6012W        W10212   5.793   4.119   1.447 -0.1099 -0.3234  0.0709
 6013W        W10213   7.843   7.907  12.253 -0.3497  0.1026 -0.0744
 6014W        W10214   9.263   9.708  12.094 -0.0248  0.1897  0.0042
 6015W        W10215   5.471   6.711   9.900  0.1945  0.0613  0.0372
 6016W        W10216   1.576   0.688   1.833 -0.0855 -0.1234 -0.1008
 6017W        W10217   6.880   1.713   3.161  0.0660 -0.1141 -0.2241
 6018W        W10218   4.999   0.792  12.919  0.0657  0.1663  0.0433
 6019W        W10219   8.289   6.054  12.605  0.1045 -0.1513  0.0097
 6020W        W10220   4.301   2.757  12.405  0.4287  0.0309 -0.2746
 6021W        W10221   0.553   7.735   9.205 -0.1140 -0.0593 -0.0680
 6022W        W10222   4.224   7.367   0.938 -0.0611  0.0254 -0.2030
 6023W        W10223   9.750   8.525  13.167  0.1795 -0.0886  0.2005
 6024W        W10224   2.451   8.654   4.073  0.0502  0.0863 -0.1701
 6025W        W10225   3.303   9.915   9.723  0.1466  0.2053  0.2857
 6026W        W10226   1.868   9.186   0.493  0.2629  0.2371  0.0399
 6027W        W10227   6.970   6.214   2.879  0.3541  0.0317  0.3749
 6028W        W10228  10.094   7.624   9.082  0.0029  0.3937  0.2192
 6029W        W10229   6.082   7.224   8.322 -0.0219  0.2182  0.0335
 6030W        W10230   7.419   7.901  10.051  0.0981  0.1767  0.0492
 6031W        W10231   8.849   3.050   0.400  0.2150  0.0415 -0.0684
 6032W        W10232   2.262   7.071  12.598  0.1490  0.2082 -0.1550
 6033W        W10233   3.068   8.350  11.650 -0.0960 -0.1804  0.1418
 6034W        W10234   0.414   5.150   9.355 -0.2372  0.1993 -0.1596
 6035W        W10235   0.126   0.529  12.422  0.3225 -0.0232 -0.2794
 6036W        W10236   5.370   4.403  13.428 -0.0847 -0.0319  0.1894
 6037W        W10237   6.416   7.538   1.955 -0.0040  0.1894  0.0857
 6038W        W10238   7.685  10.056   2.024 -0.3114  0.1520 -0.0635
 6039W        W10239   9.123   3.837  13.429  0.0028  0.2046 -0.1522
 6040W        W10240   8.921   6.072   2.689  0.0157 -0.4049  0.0427
 6041W        W10241  10.071   9.970   8.878 -0.1030 -0.1071  0.2367
 6042W        W10242   7.201   5.654   2.583 -0.1690 -0.1733 -0.0004
 6043W        W10243   8.035   2.084  12.231 -0.2007 -0.1917  0.2219
 6044W        W10244   9.037   8.758   2.553 -0.2407  0.0791  0.1518
 6045W        W10245   3.736   6.455  13.158  0.1601 -0.2672 -0.0162
 6046W        W10246   3.728   0.963   2.606  0.0563 -0.0428 -0.0066
 6047W        W10247   5.189   8.314   9.061 -0.1027 -0.2374 -0.0158
 6048W        W10248   9.406   3.811  10.535 -0.0465 -0.0844  0.1495
 6049W        W10249   3.600   5.689  11.795 -0.1620  0.1843 -0.1661
 6050W        W10250   5.289   8.818  11.161  0.1508  0.2104  0.0063
 6051W        W10251   5.310   1.098   0.675  0.0901  0.3572 -0.0572
 6052W        W10252   5.827   5.170   0.902 -0.1393 -0.1951 -0.1090
 6053W        W10253   4.580   6.865  10.212  0.1396 -0.0509  0.1809
 6054W        W10254   4.540   9.338   4.538  0.2126 -0.1725 -0.2837
 6055W        W10255   9.032   5.207   2.781 -0.3010 -0.3108  0.1010
 6056W        W10256   4.778   7.470  12.899 -0.0774  0.0401 -0.0612
 6057W        W10257   3.902   9.499  11.036  0.1812  0.1759 -0.1860
 6058W        W10258   5.355   0.645   9.555  0.2779  0.2068  0.2173
 6059W        W10259   8.861   4.192   1.074 -0.1801  0.1905  0.0422
 6060W        W10260   1.398   1.695  11.486 -0.0149 -0.0281  0.0032
 6061W        W10261   9.962   0.400   4.386 -0.3169 -0.0517  0.1714
 6062W        W10262   3.489   5.894   2.159 -0.5147  0.0349 -0.2329
 6063W        W10263   1.472   4.265   8.710 -0.0547 -0.3184 -0.0380
 6064W        W10264   0.667   5.437   9.752 -0.0450 -0.3183  0.4717
 6065W        W10265   4.766   2.148  13.043  0.2391  0.2532  0.2776
 6066W        W10266   7.795   9.129   0.132  0.0375 -0.2698 -0.1873
 6067W        W10267   0.145   6.610  10.958  0.0806 -0.2695 -0.0199
 6068W        W10268   8.893   8.457   3.178 -0.0544 -0.0896 -0.1061
 6069W        W10269   0.199   1.109  11.219 -0.2227 -0.3974  0.0585
 6070W        W10270  10.254   7.863   1.325  0.1341 -0.1740  0.1854
 6071W        W10271   2.151   6.984   4.320  0.2638 -0.1156 -0.1260
 6072W        W10272   1.642   6.856   1.914 -0.3284 -0.0475 -0.0848
 6073W        W10273   5.572   3.363   1.344  0.3875 -0.2051 -0.1797
 6074W        W10274   3.704   5.225   0.892  0.0565  0.3430  0.1235
 6075W        W10275   1.284   1.690  10.140 -0.2680 -0.0089 -0.1222
 6076W        W10276   7.623   9.205   1.852 -0.0641  0.1462  0.0348
 6077W        W10277   8.248   6.035  13.267  0.0470  0.2212 -0.1162
 6078W        W10278   4.024   2.744   2.337 -0.1103  0.1382 -0.2750
 6079W        W10279   1.304   1.973   0.715  0.1700  0.1218  0.1283
 6080W        W10280   7.551   9.206   4.369  0.1591 -0.1916 -0.1676
 6081W        W10281   3.110   5.827   1.265  0.0507 -0.0410  0.0826
 6082W        W10282   1.518  10.364   2.137  0.1125 -0.0755  0.0241
 6083W        W10283   4.810   0.795  13.438 -0.0577  0.1275 -0.0019
 6084W        W10284   5.977   9.820  10.768  0.3619 -0.1742  0.0299
 6085W        W10285   8.563   2.318   4.097  0.0315  0.2434  0.0261
 6086W        W10286   4.969   8.500  12.121 -0.0972 -0.1132  0.1612
 6087W        W10287   5.971   4.443  11.967  0.1609  0.4219 -0.1246
 6088W        W10288   1.438   9.391   1.656  0.2001 -0.1929  0.0334
 6089W        W10289   8.709   6.187   3.488  0.2699  0.1329  0.0020
 6090W        W10290   5.115   8.384  13.329  0.2525  0.0951  0.1283
 6091W        W10291   9.301   1.753  12.306  0.4018  0.0798  0.1731
 6092W        W10292   0.413   2.251   4.020 -0.0514  0.0121  0.1596
 6093W        W10293   4.083   8.849   1.436 -0.3685 -0.3770  0.0771
 6094W        W10294   8.933   6.701   9.344  0.0447  0.5501 -0.1206
 6095W        W10295   8.544   9.807  11.141  0.1765  0.0371  0.0836
 6096W        W10296   3.179   6.817   0.336 -0.1520 -0.0572 -0.0891
 6097W        W10297   6.787   4.103   2.518 -0.0676 -0.0415  0.0559
 6098W        W10298   9.820   5.864  12.033  0.1923  0.0614 -0.0203
 6099W        W10299   9.812   1.305   2.965  0.5247  0.1400 -0.0752
 6100W        W10300   0.365   4.990   9.912  0.1688  0.2059 -0.0143
 6101W        W10301   9.432   8.582   1.595  0.2175  0.1592 -0.2068
 6102W        W10302   9.695   9.429   2.535  0.0961  0.0230  0.1024
 6103W        W10303   5.388   7.218   9.897  0.0164 -0.2207  0.0481
 6104W        W10304   0.938   4.725   2.968  0.0565 -0.1847 -0.2079
 6105W        W10305   1.657   4.867   0.827 -0.5429 -0.0075 -0.0984
 6106W        W10306   7.667   0.914  10.754 -0.1102 -0.0098  0.0658
 6107W        W10307   6.386   1.056   0.683  0.1373 -0.1168 -0.1332
 6108W        W10308   0.424   0.785   9.678 -0.1541  0.0797 -0.0742
 6109W        W10309   6.066   8.382   2.335 -0.0503 -0.0254 -0.2609
 6110W        W10310   0.960  10.280   0.710 -0.0633 -0.1321 -0.0793
 6111W        W10311   4.108   9.963   2.983 -0.3808 -0.1403 -0.1319
 6112W        W10312   5.746   7.479   2.597  0.1993  0.2124  0.5158
 6113W        W10313   3.203   6.338  11.080 -0.1517 -0.1565  0.1698
 6114W        W10314   6.411  10.398   2.999 -0.1982  0.2054  0.2228
 6115W        W10315   7.944   5.816   3.786  0.0215  0.0656 -0.3144
 6116W        W10316   6.491   1.037   9.747  0.4068  0.1581  0.0085
 6117W        W10317   9.251   6.444   2.846  0.0629  0.1687  0.1169
 6118W        W10318   9.741   0.394  12.328  0.0156 -0.0770  0.0681
 6119W        W10319   5.540   7.222   8.769  0.2901  0.0913  0.0927
 6120W        W10320   2.851   3.821   4.155  0.0551 -0.3175  0.1127
 6121W        W10321   3.641   7.735   4.076 -0.1844 -0.2040  0.0466
 6122W        W10322   1.794   0.722  12.033  0.1511  0.0350 -0.2856
 6123W        W10323   6.696   1.401  12.981  0.1684  0.0401 -0.1157
 6124W        W10324   6.339   0.199   2.559  0.0683  0.1708  0.3063
 6125W        W10325   4.295   6.001   2.821  0.1365  0.0323  0.0153
 6126W        W10326   9.720   4.668   3.458 -0.0476 -0.0279  0.0134
 6127W        W10327   5.510   1.476  13.091 -0.2648  0.1320 -0.0217
 6128W        W10328   8.061   8.245   3.578  0.1528  0.0751  0.1299
 6129W        W10329   7.715   5.709  11.658  0.2592  0.1982  0.4513
 6130W        W10330   0.047   5.096  10.439 -0.0246  0.0497 -0.2071
 6131W        W10331   5.898  10.216  10.445  0.2459 -0.0431  0.0858
 6132W        W10332   9.530   4.084  11.459 -0.2219  0.1767 -0.3192
 6133W        W10333   3.857   4.449  12.367 -0.1558 -0.2786  0.0402
 6134W        W10334   4.371   2.260   0.589  0.0303 -0.2232 -0.0803
 6135W        W10335   0.645   7.669  10.411  0.1588  0.0909 -0.0717
 6136W        W10336   8.759   5.764  12.598 -0.0976  0.0096 -0.0240
 6137W        W10337   6.773   0.920   2.657  0.1695  0.1508  0.3743
 6138W        W10338   9.691   9.633   1.449  0.5384 -0.2076 -0.0961
 6139W        W10339   5.175   0.536   3.030  0.1720  0.0863 -0.0873
 6140W        W10340   2.698   9.511  12.882  0.2514  0.0413  0.2937
 6141W        W10341   4.929   0.359   1.187 -0.4169 -0.1788  0.0549
 6142W        W10342   1.183   2.150  10.229 -0.1361 -0.1651  0.2957
 6143W        W10343   4.984   6.906   9.832 -0.0447 -0.1328  0.0739
 6144W        W10344   0.949   0.513  12.039  0.0829 -0.2819  0.0613
 6145W        W10345   3.419   6.653  12.428  0.0061  0.1400 -0.2191
 6146W        W10346   9.696   8.542  12.134 -0.1736 -0.2362 -0.2704
 6147W        W10347   4.463   8.367   5.421 -0.1077 -0.0258  0.0416
 6148W        W10348   7.714   9.379  11.068 -0.1461  0.0109 -0.2757
 6149W        W10349   1.486   4.392   0.179 -0.0907  0.3874 -0.0319
 6150W        W10350   3.551   1.216  11.364  0.0971  0.3402  0.0233
 6151W        W10351   2.776   3.403   9.612 -0.1541 -0.2231 -0.1112
 6152W        W10352   5.718   2.844   2.128  0.1470 -0.1123 -0.1685
 6153W        W10353   6.242   8.955  13.132  0.0434  0.1147  0.1555
 6154W        W10354  10.435   2.282   8.835  0.0876  0.1475  0.1522
 6155W        W10355   6.363   7.268   0.955 -0.1696 -0.0078  0.0051
 6156W        W10356   1.373   9.467   1.179  0.0773  0.2605 -0.0650
 6157W        W10357   1.081   7.432  11.720 -0.1279  0.1738  0.2695
 6158W        W10358   5.432   8.268   0.273  0.3821  0.1537  0.4224
 6159W        W10359   8.347   6.293   3.925  0.1863 -0.1941 -0.1069
 6160W        W10360   3.722   0.116   3.217 -0.0994  0.1494 -0.1315
 6161W        W10361   9.901   2.665   2.596 -0.0695  0.1164  0.0081
 6162W        W10362   4.327   1.520  11.368  0.1811  0.2864  0.0868
 6163W        W10363   7.761   5.002  12.881  0.0296  0.2341  0.0509
 6164W        W10364   8.787   1.916   2.499  0.1208 -0.0227  0.3576
 6165W        W10365   0.953   1.527  11.701 -0.0881 -0.1125 -0.2251
 6166W        W10366   6.402   6.122   1.981 -0.2304  0.0037 -0.0519
 6167W        W10367   8.211   8.867   3.730 -0.3104  0.0894 -0.2185
 6168W        W10368   9.712   3.929   9.892 -0.1008  0.2335  0.0118
 6169W        W10369   6.552   9.309   4.271  0.0200  0.0197  0.1628
 6170W        W10370   8.210   0.383   2.622  0.2411  0.1495 -0.0094
 6171W        W10371   6.170   5.663   9.383  0.0171  0.2421 -0.1214
 6172W        W10372   8.788   0.695   1.777 -0.1492 -0.2108  0.0051
 6173W        W10373   6.697  10.176  10.056  0.1129 -0.4221 -0.2470
 6174W        W10374   0.807   1.232   1.652 -0.1630  0.0209  0.2195
 6175W        W10375   2.325   8.050  11.203 -0.3448 -0.0151  0.0790
 6176W        W10376   0.774   3.531   2.737 -0.1545 -0.0339  0.0305
 6177W        W10377   4.545   3.556  11.595  0.1669 -0.1185  0.1819
 6178W        W10378   2.912  10.182   2.799 -0.1044 -0.0324 -0.0870
 6179W        W10379   3.273   5.293   4.331  0.0075 -0.1589  0.0324
 6180W        W10380   2.419   8.114   2.016  0.1588 -0.0346  0.2882
 6181W        W10381   6.908   7.122   3.294 -0.1566 -0.4489  0.0328
 6182W        W10382   5.252   7.029   2.858 -0.0714 -0.0318 -0.0903
 6183W        W10383   9.728   8.100   1.479  0.1702 -0.1375  0.0966
 6184W        W10384   6.076   9.266   2.033 -0.0104 -0.0749 -0.0764
 6185W        W10385   0.783   0.851  13.237 -0.2480  0.2289 -0.0705
 6186W        W10386   3.523   9.832   1.905 -0.1128 -0.0224 -0.0260
 6187W        W10387   0.333   9.001   3.534 -0.0891  0.0969 -0.0537
 6188W        W10388   1.648   6.289  12.451  0.2029 -0.1781 -0.0345
 6189W        W10389   4.767   8.985   4.776  0.0185 -0.1334 -0.1148
 6190W        W10390   3.162   7.359  11.058 -0.3217 -0.0745 -0.0521
 6191W        W10391   5.151   0.513  11.660 -0.0357  0.4664  0.2759
 6192W        W10392   5.759   5.965  13.066 -0.0423  0.1537 -0.2103
 6193W        W10393   2.817   9.399   4.557 -0.0104 -0.0573 -0.0706
 6194W        W10394   4.240   5.144   9.537  0.1359  0.0528 -0.2675
 6195W        W10395   9.559   1.431   4.198  0.2201 -0.1848  0.3836
 6196W        W10396   4.214   8.582   4.219  0.2624 -0.1923 -0.2372
 6197W        W10397   9.122   6.577  11.707 -0.2293  0.2254 -0.0511
 6198W        W10398   7.248   1.754  10.660 -0.1604  0.1734 -0.1206
 6199W        W10399   8.384   7.832   1.904  0.2490  0.1783 -0.0207
 6200W        W10400   2.945   1.173  13.114  0.0363  0.0480  0.0511
 6201W        W10401   4.939   5.911   3.544 -0.0513  0.1144 -0.0385
 6202W        W10402   2.327   4.767   4.616 -0.0195  0.2976  0.2121
 6203W        W10403   1.397   5.085   9.708  0.0284 -0.1855 -0.0039
 6204W        W10404   3.046   9.716   8.244  0.4634  0.2308 -0.1502
 6205W        W10405   1.490   8.422   2.984 -0.0194 -0.2516  0.1147
 6206W        W10406   4.182   3.858   2.429 -0.1314 -0.0410  0.1435
 6207W        W10407   6.278   2.781  12.337  0.1006  0.1435 -0.1913
 6208W        W10408   4.245  10.311   9.581  0.0667 -0.1027 -0.2714
 6209W        W10409   8.762   8.505  11.216 -0.0353 -0.0324 -0.1403
 6210W        W10410   2.368   1.722   0.616 -0.3536 -0.1913 -0.0431
 6211W        W10411   0.264   9.380  10.126  0.1114  0.0282  0.1363
 6212W        W10412   8.727   9.807  10.238  0.2331 -0.0997 -0.0505
 6213W        W10413   6.228   7.653  11.934  0.1800 -0.0397  0.2811
 6214W        W10414   6.687   9.215  11.916  0.1178 -0.0579 -0.0160
 6215W        W10415   3.016   5.989  11.935 -0.0452  0.2564  0.2318
 6216W        W10416   6.261   0.568  13.114  0.1681  0.3845 -0.2363
 6217W        W10417   5.031   4.416   0.900 -0.0428 -0.3032  0.0134
 6218W        W10418   9.495   9.092  10.390  0.0366 -0.3545  0.0706
 6219W        W10419   6.481   5.931  11.077  0.0317 -0.0581 -0.3853
 6220W        W10420   5.594   0.407   0.847  0.1186 -0.1173 -0.0517
 6221W        W10421   8.837   9.218   4.006 -0.0041 -0.2908 -0.0293
 6222W        W10422   2.250   9.670  10.018 -0.1237  0.2934 -0.4145
 6223W        W10423   0.352   4.529  10.184  0.6029  0.1321  0.0295
 6224W        W10424   3.843   6.874   2.505  0.2475  0.0958  0.0864
 6225W        W10425  10.136   7.888   3.641  0.4015 -0.1427 -0.1681
 6226W        W10426   0.930   7.886   0.894 -0.3987 -0.2200 -0.1042
 6227W        W10427   6.125   0.451   2.141 -0.0301  0.2591  0.0900
 6228W        W10428   7.140   2.607  12.513  0.0345  0.0785 -0.2266
 6229W        W10429   7.055   4.793   0.840  0.1811 -0.1401 -0.0919
 6230W        W10430   7.437   5.685   2.114  0.0364 -0.0908 -0.0209
 6231W        W10431   6.621   2.339   1.931 -0.2260 -0.0402 -0.0281
 6232W        W10432   0.576   2.360  12.027 -0.0202 -0.1624  0.0787
 6233W        W10433   7.747   0.464  11.482  0.2633 -0.1558 -0.0843
 6234W        W10434   8.491   2.120   2.842 -0.1928 -0.0370 -0.0366
 6235W        W10435   0.614   1.854  12.025  0.0409 -0.0990 -0.0457
 6236W        W10436   8.970   3.947   1.502 -0.1604 -0.0062 -0.2274
 6237W        W10437   4.825   4.121  12.336 -0.1092  0.2492  0.1779
 6238W        W10438   0.938   9.935   0.306  0.1473  0.1219  0.1823
 6239W        W10439   4.115   0.081   4.263  0.2563  0.2013  0.2319
 6240W        W10440   6.061  10.151   0.321  0.3306  0.3589 -0.0361
 6241W        W10441   9.593   6.504  10.635  0.1326  0.0537  0.1289
 6242W        W10442   8.903   2.293   3.751  0.3053  0.1282  0.0731
 6243W        W10443   2.776   6.797   3.603  0.0870  0.1094 -0.0136
 6244W        W10444   8.291   9.877   0.376  0.0139 -0.0365  0.0641
 6245W        W10445   2.641   0.203  10.290  0.0174 -0.2786  0.0628
 6246W        W10446   1.275   9.893   4.917 -0.2188  0.1361 -0.1941
 6247W        W10447   5.004   3.567   0.193  0.0002 -0.1905  0.1008
 6248W        W10448   4.917   2.791   3.138 -0.2108 -0.1403 -0.1800
 6249W        W10449   9.966   0.555   9.084  0.0328  0.0255 -0.2150
 6250W        W10450   4.727   7.313  11.279 -0.1012  0.3112 -0.1019
 6251W        W10451   6.685   1.871   2.251  0.0064 -0.2645  0.3069
 6252W        W10452   1.531   1.217   0.464  0.0442 -0.0599  0.2881
 6253W        W10453   7.132   3.683   2.350  0.0949  0.3991 -0.3139
 6254W        W10454   1.643   2.294   0.528 -0.3621 -0.2129  0.1070
 6255W        W10455   7.453   8.696  11.690 -0.3587 -0.0864  0.3524
 6256W        W10456   9.516   6.321  11.458  0.0941 -0.0391  0.1426
 6257W        W10457   4.535   9.814   4.368  0.2159  0.1068  0.3423
 6258W        W10458   4.701   3.625   3.935  0.1567 -0.1909 -0.1639
 6259W        W10459   0.660   8.486   9.299 -0.2503  0.2069  0.1088
 6260W        W10460   8.440   6.278   2.627 -0.2071  0.1486  0.2951
 6261W        W10461   7.210   5.251   2.126  0.3181  0.1294 -0.0210
 6262W        W10462   9.660   8.987   2.671  0.0840  0.0578  0.4221
 6263W        W10463   6.684   4.243   0.223 -0.0591  0.1436 -0.2295
 6264W        W10464   3.782   6.316  12.392 -0.3180  0.3399  0.1817
 6265W        W10465   5.123   8.723   1.439  0.1031 -0.0892 -0.1617
 6266W        W10466   5.270   8.430   0.907  0.1284 -0.1817  0.1572
 6267W        W10467   7.183   8.110  13.314  0.0230  0.0454 -0.1855
 6268W        W10468   7.400   0.166   3.710 -0.2332  0.0680 -0.4054
 6269W        W10469  10.255   5.379   8.320  0.0495  0.0207 -0.2048
 6270W        W10470   5.064   2.284  11.563 -0.0093 -0.0429 -0.2567
 6271W        W10471   8.330   5.044  10.081 -0.0590 -0.0733  0.0351
 6272W        W10472   2.371   5.281   2.087  0.0955  0.2946  0.2846
 6273W        W10473   4.315   8.180   4.990  0.0142  0.1262  0.3181
 6274W        W10474   1.960   2.088  11.695  0.1232 -0.3485 -0.1377
 6275W        W10475   5.412   6.982   1.027  0.1605 -0.1532 -0.0189
 6276W        W10476   4.610   6.309   3.679 -0.1112  0.0321  0.2882
 6277W        W10477   3.471   8.723   0.850 -0.0016 -0.3388  0.0852
 6278W        W10478   4.602   3.465   9.320  0.0179 -0.1500 -0.0510
 6279W        W10479   0.741   2.589  12.414 -0.1135 -0.4774  0.0240
 6280W        W10480   2.233   0.231   3.266 -0.1653 -0.0451 -0.1418
 6281W        W10481   1.637  10.443   8.514 -0.1456  0.0632 -0.1656
 6282W        W10482   5.346   6.830   3.317  0.0198 -0.0119 -0.1429
 6283W        W10483   4.203   2.318   2.493 -0.1362  0.0387 -0.0014
 6284W        W10484   0.266   0.417   1.339 -0.0374 -0.3688 -0.1791
 6285W        W10485   5.642   3.255  10.841  0.2840 -0.5008  0.0939
 6286W        W10486   6.587  10.244  11.024  0.0126  0.0811  0.0191
 6287W        W10487   1.517  10.299  11.818  0.2243 -0.1120  0.0708
 6288W        W10488   1.990   4.917  12.302  0.0958  0.0970 -0.2066
 6289W        W10489   2.223   2.240   2.783  0.1753 -0.0214  0.0639
 6290W        W10490   0.493   0.140   2.702 -0.1063 -0.1221  0.0107
 6291W        W10491   0.200  10.160  10.961 -0.0946 -0.3003  0.0424
 6292W        W10492   5.633   7.570   9.146  0.0142 -0.0884 -0.0096
 6293W        W10493   1.500   9.858   1.956 -0.0695 -0.5359  0.1876
 6294W        W10494   5.284   1.564  12.647  0.0797  0.0907 -0.1869
 6295W        W10495   1.696   6.609  12.850 -0.2454  0.1068  0.0948
 6296W        W10496   0.533   2.391   0.492  0.1114 -0.1035  0.4993
 6297W        W10497   3.454   4.599  11.342  0.1343 -0.1398 -0.3744
 6298W        W10498   0.219   5.689  13.443  0.2130 -0.1334  0.0317
 6299W        W10499   4.560   7.765   1.838 -0.2176 -0.3396  0.5330
 6300W        W10500   8.836   3.157   2.307  0.0746 -0.1060 -0.1381
 6301W        W10501   6.136   3.137  11.810  0.0267  0.0820  0.1029
 6302W        W10502   2.263   8.908   3.213 -0.2983 -0.2198  0.1641
 6303W        W10503   3.086   7.176   1.741 -0.2842 -0.2437 -0.1683
 6304W        W10504   7.881   3.938  13.084 -0.0291 -0.2914 -0.0724
 6305W        W10505   5.915   3.573  11.717 -0.1439 -0.0436 -0.5144
 6306W        W10506   9.425   2.294   9.342  0.1064  0.1539  0.0727
 6307W        W10507   8.616   6.717   4.825 -0.2099 -0.1731  0.0566
 6308W        W10508   1.297   6.933  12.944 -0.0202 -0.3317 -0.0395
 6309W        W10509   2.603   4.107  10.181  0.1642 -0.1702  0.1332
 6310W        W10510   4.258   4.476   2.457 -0.1767 -0.0097 -0.1719
 6311W        W10511   7.123   0.918  10.843 -0.2894  0.1422  0.1206
 6312W        W10512   8.731   0.837  11.672  0.1398  0.0776  0.5311
 6313W        W10513   8.831   9.590   0.782  0.0858 -0.4463 -0.0116
 6314W        W10514   6.289   6.848   3.981 -0.0145 -0.2357 -0.1208
 6315W        W10515   1.596   8.923  12.079 -0.0238  0.0318  0.1328
 6316W        W10516   8.103   2.067   0.454  0.0913 -0.2091  0.0709
 6317W        W10517   3.955   4.293  11.445 -0.0549 -0.0383 -0.1280
 6318W        W10518   5.708   9.874  11.242 -0.0422  0.1245  0.0375
 6319W        W10519  10.308   4.045   1.413  0.1559  0.0187 -0.1665
 6320W        W10520   2.370   3.126   0.687 -0.0646  0.0060  0.0692
 6321W        W10521   6.491   7.728   1.072 -0.0117 -0.2085  0.0455
 6322W        W10522   0.064   2.369  12.636 -0.1624 -0.1915 -0.0534
 6323W        W10523   9.212   4.566   0.954 -0.1464 -0.1084 -0.1850
 6324W        W10524   7.229   4.052   2.006  0.2075 -0.0473 -0.0981
 6325W        W10525   7.956   2.858   2.911 -0.0995  0.1853  0.1608
 6326W        W10526   6.480   3.296   0.143  0.2647 -0.1112 -0.1808
 6327W        W10527   0.087   4.166   9.318 -0.0334  0.0533 -0.0441
 6328W        W10528   9.384   5.507  13.370 -0.1353 -0.0361 -0.0132
 6329W        W10529   1.430   0.233  11.510  0.0050  0.0119  0.0856
 6330W        W10530   2.330   4.922   0.277  0.1161  0.0027 -0.0068
 6331W        W10531   1.109   3.935  12.889  0.1389  0.0781 -0.1365
 6332W        W10532   7.618   2.772  12.316  0.0665  0.1647  0.4946
 6333W        W10533   9.779   8.885   2.059 -0.0766  0.1218 -0.2349
 6334W        W10534   0.385   2.489  10.642 -0.2634 -0.0153 -0.1613
 6335W        W10535   4.695   6.386   0.910  0.0776  0.1939 -0.2573
 6336W        W10536   0.728  10.237  10.861  0.2734  0.0168 -0.0601
 6337W        W10537   1.719   5.471   4.124  0.0345 -0.1156  0.4035
 6338W        W10538   7.137   5.527   9.296  0.1516  0.0095  0.0901
 6339W        W10539   3.861   0.220   9.516  0.0340  0.0684 -0.0313
 6340W        W10540   1.499  10.118  12.828 -0.2026  0.0187 -0.1308
 6341W        W10541   1.068   0.381   8.008 -0.1758 -0.0312  0.0220
 6342W        W10542   3.239   0.254  11.538 -0.0903  0.0909  0.3428
 6343W        W10543   0.615   9.230  10.549  0.1067  0.0356  0.0069
 6344W        W10544   5.790   1.822   0.507  0.0867 -0.1988  0.3522
 6345W        W10545   0.850   1.152   3.460 -0.1726 -0.1850 -0.0313
 6346W        W10546   6.428   0.046  10.346  0.1085 -0.2587 -0.3109
 6347W        W10547   6.225   2.918  13.346 -0.1908  0.3444 -0.3504
 6348W        W10548   5.673  10.095   3.793  0.1800 -0.0087 -0.0545
 6349W        W10549   6.090   7.935   8.940 -0.3358 -0.4021 -0.1133
 6350W        W10550   3.216   5.577  12.707  0.2062  0.0114 -0.0443
 6351W        W10551   6.988   8.897  10.721  0.0165 -0.3836 -0.1368
 6352W        W10552   4.477   3.061   0.565  0.0672 -0.0369 -0.1527
 6353W        W10553   5.976   9.421   9.433  0.1498  0.0315 -0.0002
 6354W        W10554   0.998   2.918  11.430  0.2730 -0.0275 -0.3541
 6355W        W10555   9.254   8.183   1.880 -0.2618 -0.1709 -0.2552
 6356W        W10556   6.715   4.043  10.888  0.3389  0.0924 -0.0270
 6357W        W10557   0.519   5.019   3.663  0.1728 -0.1339  0.1350
 6358W        W10558   7.533   3.070   1.205  0.0901  0.1258  0.1043
 6359W        W10559   4.828   7.862  12.065 -0.2542 -0.1030  0.0058
 6360W        W10560   9.185   0.027   8.674  0.1738  0.0399  0.0280
 6361W        W10561   9.835   9.422   0.068  0.2397  0.0965 -0.4775
 6362W        W10562   7.808   4.863  10.197 -0.1427 -0.1671 -0.0539
 6363W        W10563   4.260   0.268   3.313 -0.1276  0.1288  0.2517
 6364W        W10564   2.348   6.519   8.935  0.2066 -0.1162 -0.0398
 6365W        W10565  10.111   9.169   1.816  0.0752  0.0609  0.1329
 6366W        W10566   3.408   2.502   9.883 -0.1257  0.0253 -0.1965
 6367W        W10567   4.740   0.237   3.118  0.2606  0.1726  0.3400
 6368W        W10568   7.764   7.448   3.105 -0.1800 -0.0594 -0.1463
 6369W        W10569   3.841   5.091   3.593 -0.2972 -0.0445 -0.1355
 6370W        W10570   5.263   9.563   0.111 -0.2392 -0.0480 -0.1160
 6371W        W10571   7.207   3.193  13.203  0.0156  0.3036  0.1339
 6372W        W10572   1.579   6.151   0.611 -0.1996  0.2026  0.4022
 6373W        W10573   7.796   0.104   2.491 -0.1780 -0.1058  0.0205
 6374W        W10574   6.808   0.122   9.567  0.1043  0.1031  0.1676
 6375W        W10575   3.936   4.617  13.321  0.1635  0.0728  0.0259
 6376W        W10576   4.304   0.963  12.552 -0.3944 -0.3895  0.1340
 6377W        W10577   0.091   9.869  10.129 -0.0863 -0.0335 -0.0593
 6378W        W10578   1.926  10.169   2.421  0.0650 -0.0525 -0.1121
 6379W        W10579   1.358   6.135   2.573 -0.0047  0.0709 -0.1406
 6380W        W10580   1.295   0.258   1.713 -0.0504  0.0473 -0.0358
 6381W        W10581   3.774   8.819   9.851 -0.0032  0.0070  0.3294
 6382W        W10582   8.568  10.057   4.905  0.0755 -0.2238 -0.1653
 6383W        W10583   9.005   9.224  13.301 -0.3942 -0.0556  0.0251
 6384W        W10584   6.808   1.713  11.337 -0.1688  0.2503  0.0611
 6385W        W10585   0.391   2.135   2.594 -0.1129 -0.1026  0.2586
 6386W        W10586   7.366   1.317  11.041 -0.1084 -0.1381  0.2046
 6387W        W10587   5.411   6.401   4.216 -0.0954 -0.0174 -0.0664
 6388W        W10588   3.000  10.346   4.448  0.0775  0.0014  0.4002
 6389W        W10589   2.323   7.951   3.609 -0.0447  0.2626 -0.0925
 6390W        W10590   0.696   6.476  11.570 -0.0342  0.0494  0.2548
 6391W        W10591   2.526   8.216   8.252  0.0651  0.0231 -0.1024
 6392W        W10592   4.279   7.025   1.499  0.1391  0.1339 -0.1118
 6393W        W10593   3.437   2.730   1.518 -0.0424 -0.2233  0.0467
 6394W        W10594   3.058   0.958  12.174  0.1005 -0.3032 -0.0493
 6395W        W10595   3.819  10.260   0.106 -0.0360 -0.0904 -0.1165
 6396W        W10596   0.222   4.880   1.927  0.0219 -0.0760  0.0675
 6397W        W10597   4.548   6.781   1.803 -0.0838 -0.3883 -0.0923
 6398W        W10598   7.339   6.326  11.136 -0.1535  0.1318  0.3007
 6399W        W10599   3.447   5.613   8.939 -0.3342  0.0381  0.2995
 6400W        W10600   3.077   3.635   1.811 -0.3175  0.0740  0.2203
 6401W        W10601   2.835   7.190   3.933  0.2366 -0.0096 -0.1332
 6402W        W10602   8.904   3.625   3.340 -0.1452 -0.0656 -0.0020
 6403W        W10603   0.436   0.769  11.559  0.0296  0.3837  0.0623
 6404W        W10604   4.960   9.534   0.501 -0.0866 -0.0921  0.0290
 6405W        W10605   1.218   2.304   1.131  0.0420 -0.0578  0.2205
 6406W        W10606   7.061   3.206   1.070  0.4117 -0.0518  0.1054
 6407W        W10607   5.114   2.748  11.714 -0.2505 -0.2560 -0.0903
 6408W        W10608   9.538  10.445   0.942 -0.3283  0.0807  0.1317
 6409W        W10609   4.745   9.789   2.874 -0.4551  0.0779  0.1072
 6410W        W10610   7.311   9.860   2.410  0.1296  0.0913 -0.0532
 6411W        W10611   9.447   5.351   0.754 -0.2197 -0.2055  0.0852
 6412W        W10612   4.185   2.373  11.570  0.0316  0.1730  0.0220
 6413W        W10613   4.860   1.475  11.393 -0.1460  0.1187  0.0251
 6414W        W10614   6.471   3.707   1.682 -0.1181  0.1339 -0.5069
 6415W        W10615   5.481   3.182   2.423  0.1124  0.1895  0.3967
 6416W        W10616   7.608   4.066  12.259 -0.1592  0.2317 -0.4398
 6417W        W10617  10.180   5.107   1.086 -0.3279  0.1050  0.3096
 6418W        W10618   8.333   6.163   1.252  0.3248  0.1462 -0.4052
 6419W        W10619   0.909   4.197   9.620  0.0452 -0.2952 -0.0671
 6420W        W10620   9.648   4.158   2.202 -0.2163 -0.3117  0.0684
 6421W        W10621   0.266   8.708  12.185  0.1519 -0.0992  0.1569
 6422W        W10622   1.673   3.899  10.065 -0.1924  0.1001 -0.1986
 6423W        W10623   2.841   3.591   2.926  0.2678  0.0567  0.3279
 6424W        W10624   3.424   0.818  11.629  0.4156  0.0202  0.1397
 6425W        W10625   0.548   2.725  11.635  0.3493  0.0054 -0.2330
 6426W        W10626   6.784   2.357  10.525 -0.1942  0.3823  0.0968
 6427W        W10627   7.412   5.979   1.214 -0.1890 -0.1416 -0.0586
 6428W        W10628   8.480   9.400   3.628 -0.1126  0.1282 -0.1103
 6429W        W10629   8.928   6.497   2.384  0.0679  0.0913  0.1943
 6430W        W10630   4.741   9.378   0.069 -0.1487 -0.1052 -0.0643
 6431W        W10631   4.383   2.814   0.032  0.2007 -0.0276 -0.0026
 6432W        W10632   2.591   9.275  10.663  0.2884  0.2771 -0.2737
 6433W        W10633   7.797   2.861  10.435 -0.0344  0.0311 -0.0689
 6434W        W10634   8.737   7.499   1.600  0.1173 -0.0204  0.2384
 6435W        W10635   2.901   9.993   4.024  0.2184 -0.1741 -0.2951
 6436W        W10636   2.557   9.381  11.596  0.1803  0.2725 -0.0535
 6437W        W10637   9.850   0.646   3.482  0.2214  0.3282  0.1817
 6438W        W10638   4.124   2.271  12.540  0.2822 -0.2661  0.2374
 6439W        W10639   0.707   7.386   9.563  0.0051 -0.2001 -0.1120
 6440W        W10640   2.094   7.554   4.476 -0.2443 -0.2350 -0.0989
 6441W        W10641   4.790   6.793  10.616 -0.0472  0.4641 -0.3604
 6442W        W10642   8.478   1.816   2.043 -0.1656 -0.3491  0.1994
 6443W        W10643   7.329   1.209   2.151 -0.1978 -0.0080  0.0057
 6444W        W10644   5.513  10.160  11.560  0.0867 -0.2686  0.0097
 6445W        W10645   9.605   7.287  10.264  0.1338  0.2087 -0.1227
 6446W        W10646   1.781   2.736  13.273 -0.0204  0.1030  0.1134
 6447W        W10647   7.456   1.328  11.967  0.1178  0.1550 -0.1873
 6448W        W10648   8.823   0.654  13.355  0.1312  0.1603  0.1435
 6449W        W10649   6.890   9.131   3.376 -0.4673 -0.0519  0.0417
 6450W        W10650   0.757  10.063   9.811 -0.0692 -0.0065 -0.2855
 6451W        W10651   1.191   5.751   1.166  0.0809 -0.0124  0.1441
 6452W        W10652   7.541   6.652   9.776 -0.1336 -0.0578  0.1351
 6453W        W10653   5.970   3.213  10.470 -0.0722 -0.0915 -0.0339
 6454W        W10654   5.577   6.707  10.715  0.1000  0.2805  0.0557
 6455W        W10655   7.979   4.915   3.538 -0.0526  0.1772  0.1452
 6456W        W10656   0.795   8.054   9.575  0.1184  0.1273 -0.1444
 6457W        W10657   9.289   3.647   4.209  0.0983  0.2900 -0.1864
 6458W        W10658   7.967   4.950   0.462 -0.1495 -0.1036  0.1082
 6459W        W10659   8.116   2.065   0.974 -0.3145  0.2680  0.2057
 6460W        W10660   4.780   1.829   2.051 -0.2316  0.0843  0.1879
 6461W        W10661   5.570   3.248  11.415 -0.3435  0.2267 -0.2723
 6462W        W10662   4.077  10.303  11.697  0.1267 -0.1302 -0.3535
 6463W        W10663   3.677   7.655   0.290  0.0877 -0.1273 -0.3404
 6464W        W10664   9.950   5.392   0.651 -0.3471  0.0820  0.3846
 6465W        W10665  10.390   2.471  10.091 -0.1139 -0.0905 -0.0133
 6466W        W10666   8.991   3.460  11.608  0.2386 -0.0924  0.0302
 6467W        W10667   7.731   3.440   0.847  0.2428  0.1482 -0.1740
 6468W        W10668   9.872   2.321   2.982  0.4986 -0.1447 -0.0973
 6469W        W10669   5.201   5.935   4.380 -0.0985 -0.0805 -0.0459
 6470W        W10670   1.875   0.115  11.928 -0.1418 -0.1935 -0.1092
 6471W        W10671   9.705   4.559  11.110 -0.1203  0.0649  0.1321
 6472W        W10672   4.188   6.312  12.745  0.2156 -0.1045 -0.1390
 6473W        W10673  10.455   4.440   4.909 -0.0008 -0.0092 -0.6184
 6474W        W10674   9.491   4.583   0.512  0.1000  0.0909 -0.2389
 6475W        W10675   7.510   4.976   0.894 -0.3343  0.3676 -0.0494
 6476W        W10676   6.976   3.650   3.634 -0.0382  0.0531 -0.1704
 6477W        W10677   1.930   2.317   4.712 -0.1940  0.0991  0.0339
 6478W        W10678   3.185   8.108   1.052  0.3642  0.0895  0.1711
 6479W        W10679   3.073   9.642   2.770  0.2452 -0.0381 -0.1739
 6480W        W10680   2.809   1.622   4.732  0.1875  0.1885  0.2475
 6481W        W10681  10.402   1.328  11.624 -0.2210 -0.0443  0.0357
 6482W        W10682   1.136   1.843  10.640  0.0814  0.0678 -0.3134
 6483W        W10683   2.453   3.721  11.512  0.2081  0.0066 -0.1573
 6484W        W10684   6.416   4.845  10.487  0.1178 -0.0686  0.0840
 6485W        W10685   0.864   5.301  12.051  0.0673  0.2309 -0.3912
 6486W        W10686   2.636   0.232   2.870 -0.0420  0.2530  0.1256
 6487W        W10687   2.521   9.508  11.112  0.2793 -0.0029 -0.0489
 6488W        W10688   1.785   6.133   2.886 -0.3250  0.1052  0.0341
 6489W        W10689   2.493   5.690   1.824 -0.3257  0.2485  0.2177
 6490W        W10690   2.992   2.909   4.315  0.0945 -0.3542 -0.1215
 6491W        W10691   2.064   7.501   2.474 -0.1764 -0.0708 -0.2472
 6492W        W10692   4.801   9.892   0.164  0.1433 -0.0874 -0.1142
 6493W        W10693   2.380   9.625  13.235  0.0574  0.1900 -0.0602
 6494W        W10694   3.113   2.824  10.963  0.0463 -0.2227  0.1520
 6495W        W10695   0.314   5.596   3.430 -0.1331 -0.1322 -0.0569
 6496W        W10696   1.068   5.190  12.562  0.0221  0.1040  0.1618
 6497W        W10697   9.638   0.515  10.326 -0.2759  0.2206 -0.0516
 6498W        W10698   3.295  10.208  11.253  0.1076 -0.1600 -0.2052
 6499W        W10699   7.191   6.573  12.819  0.1938  0.1258 -0.0474
 6500W        W10700   7.984   4.754  13.338  0.0475 -0.1987  0.1209
 6501W        W10701  10.175   5.817   0.583  0.2231  0.1471  0.0293
 6502W        W10702   2.299   4.862   9.517  0.1087  0.0268  0.0562
 6503W        W10703   5.454   8.932   0.848  0.3079  0.2327  0.0084
 6504W        W10704   6.519   8.111   9.258  0.0032  0.0496 -0.0168
 6505W        W10705   1.056   0.269   4.568  0.3627  0.2954 -0.0224
 6506W        W10706   1.609   3.219   0.001 -0.1296  0.1050  0.0575
 6507W        W10707   8.887   7.220   9.776 -0.1164  0.1050 -0.0730
 6508W        W10708  10.298   1.887  11.313 -0.0216  0.1275 -0.1603
 6509W        W10709   3.812   1.703   9.477 -0.0560 -0.0209  0.2935
 6510W        W10710   4.945   0.861  11.342 -0.0861  0.0299  0.0273
 6511W        W10711   3.726   8.650   3.397 -0.2125 -0.0732  0.1755
 6512W        W10712   8.187   6.163   3.463 -0.0505  0.2427 -0.1990
 6513W        W10713   7.823   0.520   3.485  0.1115 -0.1053 -0.1160
 6514W        W10714   8.771   7.648  10.799 -0.0145  0.3241 -0.0795
 6515W        W10715   9.954   3.101   1.853  0.0434  0.3490 -0.2123
 6516W        W10716   4.258   2.058   1.506 -0.0441  0.0159 -0.2009
 6517W        W10717   2.558   8.204   2.642 -0.1258  0.2307 -0.0642
 6518W        W10718   1.335   7.422   1.848  0.1969 -0.1568 -0.0585
 6519W        W10719   6.416   1.385  13.434  0.0075 -0.1069 -0.2063
 6520W        W10720   8.661   4.085  12.005  0.0088  0.2160  0.2390
 6521W        W10721   0.595   5.582   9.234 -0.1604 -0.2123  0.0173
 6522W        W10722   8.050   4.380   3.566  0.0105  0.0195  0.0810
 6523W        W10723   1.762   6.219  11.644 -0.2226 -0.0449  0.0840
 6524W        W10724   2.263   1.071   1.978  0.1871  0.2526 -0.3689
 6525W        W10725   8.007   3.733   2.733  0.0509  0.0779  0.5113
 6526W        W10726   0.138   6.003   0.386  0.0341  0.0452  0.0232
 6527W        W10727   3.734   4.935   2.608 -0.1890 -0.1962 -0.1939
 6528W        W10728   0.779   1.112   0.721 -0.1947  0.2903 -0.0938
 6529W        W10729   7.788   0.218   3.014 -0.3370  0.0340  0.1169
 6530W        W10730   8.204   4.522  10.184 -0.0397  0.2315 -0.1666
 6531W        W10731   6.303   0.135   0.026 -0.0367  0.2841 -0.1277
 6532W        W10732   9.650   3.908  12.833 -0.3106 -0.0776  0.1074
 6533W        W10733   9.425  10.085  11.708  0.1383 -0.1819  0.1776
 6534W        W10734   7.218   5.434   1.576  0.0508  0.1531 -0.3992
 6535W        W10735   1.397   8.218   2.447  0.0612  0.0921  0.0875
 6536W        W10736   9.476   5.717  10.916 -0.1235 -0.0594  0.1735
 6537W        W10737   2.503   7.057  11.114  0.2600  0.1421 -0.0593
 6538W        W10738   7.513   2.317   9.552  0.2586 -0.3749 -0.0627
 6539W        W10739   4.013   9.685   0.913  0.3654 -0.0067  0.0505
 6540W        W10740   4.699   7.114   8.187 -0.2562  0.2892  0.1990
 6541W        W10741   3.379   0.593   3.446  0.0728 -0.0843 -0.1391
 6542W        W10742   6.827   2.350   2.394 -0.0708  0.0612  0.1321
 6543W        W10743   8.366   0.455   4.050 -0.0730 -0.3516  0.1271
 6544W        W10744   4.810   8.969   8.900 -0.1109  0.4135 -0.0750
 6545W        W10745  10.162   3.798  10.076 -0.1529 -0.1864  0.1401
 6546W        W10746   8.381   7.629   4.036 -0.1645  0.2989  0.1237
 6547W        W10747   8.057  10.120   3.027 -0.2209 -0.1181  0.1921
 6548W        W10748   1.936  10.404  10.721  0.0463 -0.0645  0.0033
 6549W        W10749   3.209   2.494  11.656 -0.1178  0.0721 -0.0930
 6550W        W10750   1.948   1.388   1.688  0.0163 -0.1247 -0.1426
 6551W        W10751   2.579   1.600   3.905  0.2324  0.0711  0.3787
 6552W        W10752   0.901   2.658  10.402  0.0865  0.2678  0.0715
 6553W        W10753  10.278   9.518  10.300 -0.1219  0.0136 -0.1866
 6554W        W10754  10.343   2.404  10.732 -0.2236 -0.0181 -0.1118
 6555W        W10755   8.724   3.606   1.945  0.2504 -0.0435  0.0396
 6556W        W10756   6.164   6.292  10.610 -0.0978 -0.1421 -0.0412
 6557W        W10757   7.072   3.405   4.079  0.0364 -0.2992 -0.1569
 6558W        W10758   7.941   5.800   1.254  0.0067  0.0277 -0.1139
 6559W        W10759   0.293   1.620  10.555 -0.0120 -0.0067  0.1738
 6560W        W10760   7.874   0.472   1.707 -0.1288 -0.0958  0.1901
 6561W        W10761   2.750   5.553   2.243 -0.1845  0.0643 -0.2216
 6562W        W10762   9.013   5.913   4.613 -0.0803  0.1473 -0.0085
 6563W        W10763   3.980   4.848   2.180  0.1228 -0.0846  0.0643
 6564W        W10764   6.826   3.598  11.901 -0.1608 -0.1254  0.0043
 6565W        W10765   5.844   7.119  10.048  0.1885 -0.4487 -0.1430
 6566W        W10766  10.155   6.037  12.481 -0.0998 -0.3724 -0.2274
 6567W        W10767   1.152   9.012   3.852  0.0123  0.0173  0.0164
 6568W        W10768   5.456   8.181  11.107  0.2352  0.0400  0.3565
 6569W        W10769   6.194  10.047  13.326  0.0676  0.1267 -0.1262
 6570W        W10770   8.608   6.503  11.714  0.0836  0.1200  0.1752
 6571W        W10771   6.786   9.212  10.042  0.0269 -0.0803 -0.0453
 6572W        W10772   8.014   3.739   0.582  0.4104  0.0255  0.0911
 6573W        W10773   9.528   8.141   3.597  0.1335  0.0429  0.0317
 6574W        W10774   3.825   3.064  12.109 -0.1222 -0.0608 -0.2015
 6575W        W10775   1.625   0.111   9.891  0.1592 -0.1770 -0.0414
 6576W        W10776   2.016   1.298   0.725 -0.2314  0.2482  0.0131
 6577W        W10777   0.099   7.358   2.662 -0.5475  0.1654  0.1036
 6578W        W10778   2.985   4.961   9.910 -0.1012  0.0345 -0.2061
 6579W        W10779   9.265   4.944  12.569  0.2490  0.2704  0.1403
 6580W        W10780   7.877  10.380   0.895 -0.4755  0.3009  0.1915
 6581W        W10781   7.441   2.902   9.605 -0.1149 -0.0398 -0.3959
 6582W        W10782   4.029   9.361  12.205 -0.2740 -0.1438  0.2938
 6583W        W10783   3.810   1.995   8.851  0.2405  0.1202 -0.1972
 6584W        W10784   3.272   5.031   2.884 -0.1954  0.0737 -0.0701
 6585W        W10785   1.539   9.136   4.117  0.2184 -0.1915  0.1062
 6586W        W10786   5.361   5.538   9.788 -0.0622  0.0090 -0.3874
 6587W        W10787   8.145   2.320  13.442 -0.2874  0.1846  0.0505
 6588W        W10788   7.698   8.224   0.202 -0.1180  0.0363  0.1680
 6589W        W10789  10.403   6.295  10.415 -0.3755  0.1154 -0.1228
 6590W        W10790   9.289   3.453  10.234  0.2380 -0.1890  0.0104
 6591W        W10791   0.532   5.455   2.427 -0.3210 -0.1867 -0.1460
 6592W        W10792   2.603   5.211  13.351 -0.0759 -0.1437 -0.2537
 6593W        W10793   4.693   5.864   2.519 -0.0781  0.1095  0.4047
 6594W        W10794   9.993   9.198  10.510 -0.3198 -0.1238 -0.0643
 6595W        W10795   7.800   3.902   0.123  0.2491  0.0237  0.3000
 6596W        W10796   5.591   8.083   9.152 -0.0175 -0.1066 -0.0041
 6597W        W10797   0.015   9.257   3.897 -0.0115 -0.0376  0.0693
 6598W        W10798   4.588   1.986  11.637  0.0284 -0.0376  0.4327
 6599W        W10799   1.503   4.225  10.523 -0.3259 -0.3042 -0.1317
 6600W        W10800   0.395   3.233  12.962 -0.0834 -0.0736 -0.1775
 6601W        W10801   9.182   8.873   9.117 -0.1443 -0.1195 -0.2351
 6602W        W10802   0.359   0.881   0.441  0.2728  0.1427  0.3485
 6603W        W10803   4.397   8.399   3.816  0.0177 -0.1330  0.0767
 6604W        W10804   1.717   6.751  11.880 -0.1295 -0.1822  0.0096
 6605W        W10805   5.997   4.262  10.454 -0.0736 -0.1856  0.1550
 6606W        W10806   7.139   9.257  12.165 -0.1240  0.1660 -0.1605
 6607W        W10807   3.834   7.916   4.593 -0.3185  0.0647  0.0588
 6608W        W10808   8.890   0.580  10.273 -0.1578  0.0946  0.3332
 6609W        W10809   4.632   6.302  10.787  0.1597  0.2041  0.0184
 6610W        W10810   5.566   9.022   1.957 -0.1319 -0.0546 -0.1794
 6611W        W10811   2.138   1.027   4.515  0.2377 -0.0084 -0.1201
 6612W        W10812   3.671   7.393   1.535  0.5384  0.1915  0.0577
 6613W        W10813   5.568   2.419   1.794 -0.0577  0.0179 -0.1029
 6614W        W10814   5.293   1.850  12.185  0.0636 -0.2234  0.0733
 6615W        W10815   1.119   2.950   5.018  0.1155 -0.0501 -0.0204
 6616W        W10816   5.670   8.537   2.018 -0.1709 -0.0566 -0.3631
 6617W        W10817   8.485   8.389   0.698  0.1486 -0.2121  0.0966
 6618W        W10818   0.413   6.158   2.956 -0.0915  0.1456 -0.1988
 6619W        W10819   2.460   1.089   0.392  0.2327 -0.0730  0.1965
 6620W        W10820   2.492   7.685  10.453 -0.2251  0.2772  0.2899
 6621W        W10821   2.670   0.486   9.443 -0.4658 -0.0699  0.4360
 6622W        W10822   4.538   0.254  11.810  0.3778  0.0143  0.5264
 6623W        W10823   4.457   2.881  10.429  0.3755  0.1985  0.0947
 6624W        W10824   9.575   0.993   1.159  0.0101 -0.3228 -0.1785
 6625W        W10825   5.626   4.143   3.287 -0.0164 -0.0208 -0.1199
 6626W        W10826   8.471   7.101   9.954  0.1610  0.0548 -0.2011
 6627W        W10827   5.172   1.369   4.026 -0.0732 -0.2238  0.0120
 6628W        W10828   3.928   9.867  12.201  0.1256 -0.0913 -0.1881
 6629W        W10829   1.291   9.974  13.390 -0.2080  0.0107  0.3057
 6630W        W10830   8.008   8.078  13.254  0.2133  0.1375  0.0018
 6631W        W10831   4.684   3.997   0.118 -0.0111  0.2537  0.0212
 6632W        W10832   2.947   9.547  13.305 -0.2366  0.1439  0.1074
 6633W        W10833   6.604   6.954   4.406 -0.0349 -0.1116  0.1773
 6634W        W10834   8.781  10.270   2.547  0.1995 -0.2861  0.2196
 6635W        W10835   4.346   7.008  11.601 -0.1799  0.1385 -0.4530
 6636W        W10836   3.989   4.559   2.949 -0.0012 -0.2708  0.0581
 6637W        W10837   5.441   7.301   3.756  0.0343  0.3246  0.0373
 6638W        W10838   9.087   4.293   0.125  0.1505 -0.3445  0.0527
 6639W        W10839   0.070   1.160   9.662 -0.1318 -0.0337 -0.0337
 6640W        W10840   2.312   2.675   2.984 -0.3453 -0.3329  0.0186
 6641W        W10841   2.159   3.793  11.052 -0.0006  0.2132  0.0119
 6642W        W10842   9.086   6.377   0.242  0.0648 -0.0842  0.0444
 6643W        W10843   8.703   7.817  12.642  0.3016  0.2499  0.0324
 6644W        W10844   5.844   0.047   0.004 -0.0610 -0.1865  0.0348
 6645W        W10845   5.435   3.668  11.602 -0.0752  0.0401  0.2215
 6646W        W10846   9.652   4.878  11.489  0.3117 -0.1835  0.2373
 6647W        W10847   5.343   0.053  13.380  0.0164  0.1055  0.1807
 6648W        W10848   3.221   9.348   1.152 -0.0272 -0.0081 -0.1018
 6649W        W10849   0.868   9.255  13.183 -0.0980  0.1171 -0.0449
 6650W        W10850   5.990   9.423  11.075 -0.0240 -0.1639  0.4991
 6651W        W10851   7.287   5.200  12.455  0.1072  0.0608  0.0433
 6652W        W10852   8.956   1.995   1.518  0.1984  0.1072  0.0164
 6653W        W10853   7.277   8.375  12.298 -0.2704  0.0946  0.0182
 6654W        W10854   2.436   3.824   4.449 -0.0435 -0.1456 -0.0511
 6655W        W10855   8.316   6.255  11.317 -0.1668 -0.2281  0.0574
 6656W        W10856   1.835   0.375  10.963  0.5116  0.1378 -0.2411
 6657W        W10857   6.538   4.727   0.109  0.1693 -0.1688  0.0728
 6658W        W10858   7.310   4.700  11.625  0.3069 -0.0004  0.2047
 6659W        W10859   3.329   1.025  13.450 -0.1131 -0.0727  0.0871
 6660W        W10860   5.265   4.683   9.221 -0.1386  0.2088  0.2499
 6661W        W10861   9.210   5.970   1.502 -0.4723 -0.0561  0.3478
 6662W        W10862   3.669   4.466  12.865 -0.0382 -0.0869  0.2021
 6663W        W10863   8.145   0.676   8.936  0.1312 -0.1416 -0.4786
 6664W        W10864   8.214   7.110  13.100 -0.0799  0.0614 -0.3979
 6665W        W10865   2.091   7.164   0.675 -0.0465 -0.1822  0.0711
 6666W        W10866   2.430   7.733   2.761  0.2285 -0.2748 -0.2537
 6667W        W10867   5.896  10.346  11.331  0.0836  0.0330 -0.1179
 6668W        W10868  10.194   4.924  12.321 -0.0329 -0.4113  0.0693
 6669W        W10869   1.107   1.447  11.175 -0.1591  0.0399  0.0215
 6670W        W10870   4.175   8.897   4.690 -0.0409  0.2616  0.2813
 6671W        W10871   7.999   7.510   2.065 -0.1998 -0.0782 -0.0319
 6672W        W10872   6.938  10.349   3.600 -0.0124 -0.0802 -0.0005
 6673W        W10873   5.055   4.591  11.709  0.1329  0.2417  0.1264
 6674W        W10874   5.580   1.804   2.536  0.1032 -0.0602  0.2054
 6675W        W10875   7.577   2.684   0.792 -0.0281  0.2295  0.1858
 6676W        W10876   8.258   8.423  12.019  0.3322  0.0077 -0.2455
 6677W        W10877   0.428   5.412  11.407  0.3173 -0.1497  0.1785
 6678W        W10878   4.909   9.229   3.054  0.0525  0.1585  0.0675
 6679W        W10879   6.091   8.888  12.632 -0.1423 -0.1126 -0.0186
 6680W        W10880   7.194   9.273  10.462 -0.0293  0.2825  0.0386
 6681W        W10881   9.308   9.519   0.955  0.0298  0.2043  0.1371
 6682W        W10882   0.220   7.306  10.491 -0.1658 -0.0023  0.2285
 6683W        W10883   6.944  10.126   9.337  0.2289  0.1364  0.0315
 6684W        W10884   6.615   3.225   2.466 -0.0293  0.1829  0.0930
 6685W        W10885   8.954  10.125  11.332  0.0229 -0.0897 -0.0638
 6686W        W10886   8.140   4.217  13.442 -0.2534  0.0767 -0.3788
 6687W        W10887   8.771   4.501   2.157 -0.1503  0.3892 -0.0413
 6688W        W10888   4.875   6.877   5.344  0.3582 -0.3490  0.2632
 6689W        W10889   5.906   0.520   0.074  0.0499  0.0574 -0.2379
 6690W        W10890   3.424   5.903  12.332  0.0466  0.0091  0.3485
 6691W        W10891   9.712   0.678   1.561  0.1708  0.2574 -0.3355
 6692W        W10892   7.538   9.926  12.829  0.0832 -0.4037  0.0133
 6693W        W10893   5.680   4.758  12.800  0.3685  0.1446  0.0335
 6694W        W10894   3.835   2.106   4.337 -0.2104 -0.0067 -0.0094
 6695W        W10895   6.965   3.173   0.234  0.0484  0.0596  0.1369
 6696W        W10896   4.759   1.985   1.499  0.0009 -0.1563  0.0198
 6697W        W10897   0.924   4.928   3.953  0.0246 -0.0624  0.3118
 6698W        W10898   7.544   8.548  13.246  0.1764 -0.3326  0.0909
 6699W        W10899   6.735   0.464  10.517  0.2047 -0.0186 -0.0206
 6700W        W10900   9.191   3.018  10.498 -0.1456 -0.2705  0.0438
 6701W        W10901   6.711   2.771  12.644 -0.1167 -0.2705 -0.1131
 6702W        W10902   1.239   8.526  12.716 -0.2429  0.3932 -0.0917
 6703W        W10903   3.262   4.613   0.309  0.2052 -0.2759  0.2001
 6704W        W10904   4.988   6.039  13.085 -0.0876  0.0925  0.0640
 6705W        W10905   0.282   5.411  10.147 -0.3483  0.0813 -0.0060
 6706W        W10906   1.173   9.845   2.764 -0.2010 -0.0758 -0.0774
 6707W        W10907   2.995   0.554   3.766  0.0062  0.0434 -0.4820
 6708W        W10908   2.558   9.771   2.813  0.0862  0.0100  0.2199
 6709W        W10909   5.479   6.928   1.574  0.0073  0.1185  0.0938
 6710W        W10910   9.408   2.988  10.022  0.2876  0.0649  0.2385
 6711W        W10911  10.454   7.113   3.954 -0.1369  0.0098 -0.3319
 6712W        W10912   4.078   2.005  10.349  0.0350 -0.0369 -0.2962
 6713W        W10913   9.047   7.742   9.787 -0.2607 -0.4700  0.0129
 6714W        W10914   6.713   5.666   9.570  0.0333  0.3085 -0.1161
 6715W        W10915   1.133   0.993  10.927 -0.0655 -0.0441 -0.3893
 6716W        W10916   4.941   6.385   4.483 -0.1311  0.1093  0.1572
 6717W        W10917   6.462   1.545   0.973 -0.0927 -0.0732 -0.0009
 6718W        W10918   2.071   5.171   1.143 -0.4146  0.0120  0.1012
 6719W        W10919   3.953   9.956  10.299  0.0787  0.2694 -0.1020
 6720W        W10920   4.193   0.800   2.693 -0.0165 -0.1265  0.1694
 6721W        W10921   2.105   0.974  10.624  0.2779  0.1973 -0.1011
 6722W        W10922   4.659   7.699   0.671  0.0183 -0.0593 -0.0599
 6723W        W10923   8.430   8.398  13.248  0.1450  0.0256  0.4472
 6724W        W10924   0.750   8.929   0.166 -0.2319  0.1836 -0.0448
 6725W        W10925  10.213   8.825  13.118  0.3488 -0.0875  0.3241
 6726W        W10926   7.606   8.718   0.309 -0.2000  0.0544 -0.3643
 6727W        W10927   5.734   7.592   8.255 -0.0819 -0.1700 -0.6395
 6728W        W10928  10.434   0.848  11.918 -0.0494 -0.0816 -0.3594
 6729W        W10929   3.004   3.725  10.165  0.0477 -0.2293 -0.0729
 6730W        W10930   6.156   7.969   4.371 -0.0425 -0.1154 -0.2426
 6731W        W10931   4.568   6.665   0.504 -0.1710 -0.0693 -0.2436
 6732W        W10932   8.389   4.744  10.608  0.4170 -0.0967  0.0160
 6733W        W10933   4.046   1.087   5.190  0.0519 -0.1783  0.0370
 6734W        W10934   8.411   8.354  11.568 -0.1225 -0.3290 -0.5203
 6735W        W10935   7.760   6.603   2.288  0.1881  0.1243 -0.2338
 6736W        W10936   9.762   9.180  13.079 -0.1727  0.1464 -0.0290
 6737W        W10937   4.153   8.860   0.308  0.0059  0.0227 -0.2004
 6738W        W10938   9.131   7.828   0.150 -0.4349 -0.2533 -0.0259
 6739W        W10939   8.039   6.625   1.276 -0.1161  0.0548 -0.0076
 6740W        W10940  10.434   0.639   9.456 -0.0306  0.0720 -0.2210
 6741W        W10941   9.276   1.923   2.324  0.4018  0.0290  0.1803
 6742W        W10942   8.810   0.082   0.593  0.2446 -0.5115 -0.2085
 6743W        W10943   9.489   7.032  10.860 -0.1368 -0.2524  0.2799
 6744W        W10944   2.515   0.718   1.421 -0.4741  0.3450  0.2341
 6745W        W10945   5.682   3.864   2.879 -0.0319 -0.1372 -0.1182
 6746W        W10946   7.651   8.689   2.649  0.2055  0.0532 -0.3278
 6747W        W10947   1.019   5.586   2.506  0.0987  0.0635  0.1512
 6748W        W10948   6.362   2.217   2.346  0.0236 -0.0880  0.0774
 6749W        W10949   1.207   2.135   9.737 -0.1669 -0.1030  0.1885
 6750W        W10950   7.802   8.374   3.052  0.0607  0.1745  0.1614
 6751W        W10951   4.702   4.454  11.979 -0.2306  0.2670  0.0999
 6752W        W10952   5.096   3.581  11.919 -0.1976 -0.2031  0.0394
 6753W        W10953   9.785   6.753  11.153 -0.2511  0.1219  0.0876
 6754W        W10954   8.854   6.856  12.693 -0.3699 -0.1860  0.1561
 6755W        W10955   6.393   4.306   0.959 -0.2350 -0.0042 -0.3781
 6756W        W10956   4.366   5.722  11.315  0.2288 -0.4366 -0.1388
 6757W        W10957   9.902   3.604  11.220  0.0634 -0.0391  0.3690
 6758W        W10958   5.250   4.006   0.263  0.0799 -0.1235 -0.2249
 6759W        W10959   3.722   5.076   8.852 -0.4014  0.0405 -0.0364
 6760W        W10960   1.822   4.465   3.165 -0.0631 -0.2011  0.2294
 6761W        W10961   5.977   8.749   0.040 -0.1653 -0.1678  0.1222
 6762W        W10962   1.968   3.705   1.627 -0.1674  0.2732 -0.0324
 6763W        W10963   8.797   1.564  12.415  0.3351 -0.2270 -0.5290
 6764W        W10964   9.054  10.199   3.822 -0.6097 -0.2180  0.0303
 6765W        W10965   1.429   8.667   5.175  0.0053  0.4455  0.0148
 6766W        W10966   7.504   2.287   2.708  0.1120  0.1869 -0.3225
 6767W        W10967   0.731   8.774   3.740  0.2058 -0.0543 -0.5141
 6768W        W10968  10.055   2.345   3.897 -0.1254 -0.0589  0.0404
 6769W        W10969   9.865   8.206  10.132 -0.3869  0.0786  0.0805
 6770W        W10970   5.676   7.981  10.563 -0.0756  0.1367  0.1438
 6771W        W10971   8.381   3.416  12.697 -0.0277  0.1019 -0.1354
 6772W        W10972   8.289   3.610   4.011  0.3169 -0.2269 -0.0452
 6773W        W10973   2.690   6.977   2.120 -0.0448  0.0916  0.2387
 6774W        W10974   2.496   1.800   2.892 -0.0783  0.3958  0.2541
 6775W        W10975   2.480   8.359   4.534  0.1514  0.2259 -0.0828
 6776W        W10976   3.788   8.778   0.033  0.1832 -0.1265  0.0807
 6777W        W10977   4.197   6.582   9.297  0.1568 -0.1214  0.1084
 6778W        W10978   8.194   8.751   4.239 -0.1760 -0.1920  0.1618
 6779W        W10979   5.408   7.705  10.865  0.3670  0.1477 -0.1997
 6780W        W10980   8.167   0.241  11.735 -0.1951 -0.2385  0.3797
 6781W        W10981   4.484   3.183   2.292  0.0787 -0.0163 -0.3949
 6782W        W10982   0.718   3.068  10.017 -0.2776  0.1506 -0.0783
 6783W        W10983   3.703   3.749   0.788 -0.1766  0.2279  0.2350
 6784W        W10984   6.100   7.625  11.107  0.0086  0.2376 -0.1350
 6785W        W10985   7.345   4.675  13.351  0.0646  0.2047  0.0448
 6786W        W10986   6.748   3.773   9.863 -0.0931 -0.0971 -0.1074
 6787W        W10987   7.288   7.901   0.320 -0.0262 -0.2795  0.1886
 6788W        W10988   4.296   1.913  12.859 -0.0184 -0.0481 -0.1254
 6789W        W10989   4.322   6.564  10.494 -0.1250 -0.2829 -0.2644
 6790W        W10990   8.688   5.426   1.852 -0.0761 -0.1436 -0.0032
 6791W        W10991   8.221   1.865  11.282  0.2426  0.1077 -0.1457
 6792W        W10992   1.401   1.575   1.654  0.0986  0.1091  0.3795
 6793W        W10993   8.731   5.853   0.064 -0.2664  0.2312 -0.4446
 6794W        W10994   8.034  10.079  12.698 -0.0901  0.0745 -0.0508
 6795W        W10995   2.166   5.645   4.034  0.0299  0.0997 -0.0686
 6796W        W10996   2.261  10.270   3.602 -0.1148  0.2848 -0.1766
 6797W        W10997   8.324   6.658   3.031 -0.2331  0.1297 -0.2501
 6798W        W10998   7.603   5.512  12.202 -0.0044 -0.1063  0.2200
 6799W        W10999  10.473   9.425   2.175 -0.1131 -0.4258 -0.1234
 6800W        W11000   5.697   6.558   2.445  0.2236 -0.1440 -0.2866
 6801W        W11001   2.566   9.057   2.374 -0.1565 -0.1267  0.1592
 6802W        W11002   4.327  10.125  12.157  0.0217 -0.1252 -0.2294
 6803W        W11003   9.372   0.159  11.852  0.1104 -0.0477  0.1368
 6804W        W11004   4.228   3.409  11.245  0.1858 -0.2423  0.0776
 6805W        W11005   3.085   1.415   3.406  0.0173  0.0450 -0.1488
 6806W        W11006   5.698  10.071  12.615 -0.1589 -0.1873 -0.1913
 6807W        W11007   7.601   4.596   1.262  0.1041  0.0877 -0.1281
 6808W        W11008  10.047   2.124  10.427 -0.2473 -0.0765 -0.1228
 6809W        W11009   9.404   8.346  10.420 -0.2726  0.2995  0.1421
 6810W        W11010   3.134   9.769   0.363 -0.0490 -0.0627  0.0651
 6811W        W11011   7.284   7.534  12.860 -0.2008  0.1532  0.0114
 6812W        W11012   8.122   7.418  10.287  0.3530 -0.0856  0.4112
 6813W        W11013   1.218   3.450   2.960  0.0363  0.0185 -0.1345
 6814W        W11014  10.391   9.948   9.464 -0.3137  0.0146 -0.2305
 6815W        W11015   4.241   1.921   2.008 -0.0392  0.1593  0.1756
 6816W        W11016   4.989   6.408   0.287  0.0612 -0.1527  0.2106
 6817W        W11017   2.530   2.491   9.675  0.1467  0.4035  0.0388
 6818W        W11018   0.216   1.378  12.029 -0.2024  0.2083  0.3089
 6819W        W11019  10.306   0.615   2.126 -0.2464  0.1712  0.0355
 6820W        W11020  10.347   3.675   1.113 -0.0016 -0.0240  0.0936
 6821W        W11021   7.984   0.019   2.018 -0.1809 -0.1390 -0.0271
 6822W        W11022   3.534   0.420   4.593 -0.1072 -0.1831 -0.2324
 6823W        W11023   1.332   8.761  11.168 -0.0433  0.2305 -0.2490
 6824W        W11024   8.409   0.385  13.428  0.2304 -0.1479  0.4792
 6825W        W11025   5.329   7.198   2.400  0.3991  0.0063  0.0526
 6826W        W11026   8.154   4.230  10.859 -0.0486 -0.0552 -0.0328
 6827W        W11027   3.156   0.359   9.683 -0.3523  0.2350 -0.0949
 6828W        W11028   5.151   0.151   3.405  0.1920 -0.1577  0.1827
 6829W        W11029  10.427   9.484   0.134  0.0508  0.4302 -0.3127
 6830W        W11030   1.797   3.488   4.571 -0.1147  0.0878  0.0379
 6831W        W11031   7.987   8.447   0.631  0.2560 -0.1229 -0.0854
 6832W        W11032   6.690   2.925  11.263 -0.0223 -0.0043  0.3908
 6833W        W11033   2.083   1.546   0.212  0.0321 -0.2084 -0.0333
 6834W        W11034  10.332   2.657   4.267 -0.1145  0.2182  0.0215
 6835W        W11035   6.783   0.512  12.492 -0.1706 -0.0895 -0.2907
 6836W        W11036   0.655   9.290   3.996  0.2063  0.1147 -0.3506
 6837W        W11037   3.931   6.393  10.244  0.1311  0.0716 -0.2551
 6838W        W11038   0.132   9.732   0.573 -0.2684 -0.1609 -0.0826
 6839W        W11039   1.645   4.503  10.098  0.0427 -0.1451 -0.2121
 6840W        W11040   2.973   7.542  12.296  0.2252 -0.2324  0.0813
 6841W        W11041   2.712   6.977   8.769  0.2332 -0.0595  0.0705
 6842W        W11042   9.706   2.502   0.379  0.1386  0.0698 -0.0561
 6843W        W11043   5.532   6.155   2.692  0.0178 -0.0177  0.0905
 6844W        W11044   4.589   5.738   0.599  0.3188  0.0857  0.1068
 6845W        W11045   8.295   9.301  12.403  0.1299 -0.0866 -0.1211
 6846W        W11046   2.157   8.360  11.625  0.1303 -0.0933  0.0518
 6847W        W11047   6.996   8.614   8.698  0.0060 -0.1518  0.0166
 6848W        W11048   6.980   9.475   8.941 -0.0982  0.0830 -0.2516
 6849W        W11049   7.539   5.495   1.166  0.1125  0.1457 -0.2112
 6850W        W11050   0.298   1.908  13.292 -0.2606 -0.0926 -0.1843
 6851W        W11051   8.024   7.007   2.075 -0.2182  0.0138 -0.2701
 6852W        W11052   6.980   2.731   1.939 -0.0302 -0.0726 -0.1499
 6853W        W11053   4.618   9.262   2.093 -0.0300  0.2443 -0.4385
 6854W        W11054   4.824   6.363  10.280  0.0996  0.1757 -0.1507
 6855W        W11055   2.078   8.329   2.809 -0.0789 -0.2319  0.1357
 6856W        W11056   3.386   8.348   1.865  0.4163 -0.0577  0.0825
 6857W        W11057   2.264   3.719  12.078 -0.1196  0.0354 -0.0573
 6858W        W11058  10.388   2.705  11.581  0.0130  0.0486 -0.1838
 6859W        W11059   4.282   7.946   0.915 -0.1983 -0.2078 -0.1872
 6860W        W11060   6.065   5.706  12.616  0.1845  0.3159  0.0812
 6861W        W11061   6.383   5.639   0.348  0.1239 -0.2023 -0.0282
 6862W        W11062   3.398  10.166  13.027 -0.0198 -0.0758 -0.0799
 6863W        W11063   0.839   8.391   2.433 -0.0912  0.0209  0.0920
 6864W        W11064   1.262   3.523   9.180 -0.1399  0.4758 -0.0932
 6865W        W11065   7.631   5.261   1.807 -0.1225  0.1230  0.0605
 6866W        W11066  10.287   0.804  10.893 -0.2971  0.2674  0.0714
 6867W        W11067   9.080   1.517   0.207 -0.0924 -0.2004 -0.2202
 6868W        W11068   6.996   0.496  12.035  0.0713 -0.0910 -0.0214
 6869W        W11069   0.232   2.785  13.191  0.1563 -0.1366  0.0084
 6870W        W11070   0.089   7.323   4.926 -0.0001  0.3050  0.2629
 6871W        W11071   9.872   3.403   1.120  0.0919 -0.1060 -0.2167
 6872W        W11072   0.210   7.263   2.200  0.1662  0.1916  0.3438
 6873W        W11073   8.328   1.367   3.338 -0.0619 -0.0788 -0.4087
 6874W        W11074   8.730   9.792   9.194 -0.2065 -0.1618  0.2606
 6875W        W11075   0.328   2.805   3.041 -0.1329  0.0265  0.2094
 6876W        W11076   8.648   8.045   9.874 -0.1538 -0.1273  0.0176
 6877W        W11077   5.588   0.902  10.903 -0.0956 -0.0337 -0.0334
 6878W        W11078   1.975   0.696  13.142  0.0382  0.0683  0.0528
 6879W        W11079   7.981   3.215   2.533 -0.2245 -0.3287 -0.0521
 6880W        W11080   9.286   0.651   9.962  0.2887 -0.6208 -0.0886
 6881W        W11081   8.452   6.748  11.260 -0.2690  0.1110 -0.0896
 6882W        W11082   9.971   4.520  10.036 -0.0423 -0.2453  0.1290
 6883W        W11083   0.975   8.016   3.865 -0.0295 -0.1887  0.0243
 6884W        W11084   8.911   5.542  13.155  0.0850  0.2498 -0.0772
 6885W        W11085   1.764   9.776  13.373  0.3234  0.1681 -0.1892
 6886W        W11086   4.159   9.286  12.990 -0.2344  0.0319 -0.0116
 6887W        W11087   9.359   8.459   3.277  0.0626  0.0749 -0.1057
 6888W        W11088   9.932   6.085  10.559 -0.3833  0.0779 -0.2938
 6889W        W11089  10.428   3.805   9.618 -0.2258 -0.0707 -0.2401
 6890W        W11090   6.179   8.683  11.166  0.0601 -0.0572  0.1113
 6891W        W11091   6.783   1.342  11.641  0.3867  0.2218  0.1724
 6892W        W11092   0.007  10.324  10.539 -0.1932 -0.1963  0.2424
 6893W        W11093   5.586   7.602   0.730 -0.2229  0.3488 -0.0810
 6894W        W11094   6.543   9.468   3.323 -0.1583 -0.0727 -0.1083
 6895W        W11095   2.114   7.984  10.648 -0.1437  0.1043 -0.0841
 6896W        W11096   7.709   7.235   0.614  0.0675 -0.1231 -0.0309
 6897W        W11097   0.735   1.502  12.372  0.3285 -0.0036 -0.0539
 6898W        W11098   2.919   3.085   4.776 -0.1543  0.4409  0.0010
 6899W        W11099   7.375   2.099  12.853  0.0172  0.2606  0.0479
 6900W        W11100   4.160   1.948  11.377 -0.1382 -0.4458 -0.0001
 6901W        W11101   7.201   0.293  10.548 -0.2312 -0.2095 -0.0740
 6902W        W11102   9.289   9.736   2.356  0.0556 -0.1532  0.0818
 6903W        W11103  10.172   0.398   9.859  0.1262 -0.0876 -0.1385
 6904W        W11104   2.110   8.883   9.321 -0.1097 -0.0726 -0.3440
 6905W        W11105   5.985   1.511  10.745  0.0537 -0.0751 -0.1267
 6906W        W11106   7.839   6.752   0.298 -0.0178 -0.1473  0.0446
 6907W        W11107   5.254   9.807  10.214  0.1641 -0.0764 -0.0490
 6908W        W11108   5.164   8.015  10.609 -0.3101 -0.1453  0.1450
 6909W        W11109   7.406   5.289  11.525  0.3509  0.2598 -0.3110
 6910W        W11110   8.863   4.374  12.366 -0.1904 -0.3390  0.0684
 6911W        W11111   7.056   5.977   9.038  0.2919 -0.0891 -0.1039
 6912W        W11112   5.768   1.871  13.216 -0.1080 -0.0831 -0.1554
 6913W        W11113   1.312   0.749   0.730 -0.2372 -0.0569 -0.0427
 6914W        W11114   5.771   7.301   1.674  0.0944 -0.1121  0.0280
 6915W        W11115   1.635   9.847   0.911  0.1993  0.0129  0.1441
 6916W        W11116   9.153   9.820   3.462  0.0059 -0.1072  0.2212
 6917W        W11117   8.019   7.056   1.079 -0.1065  0.2715  0.1700
 6918W        W11118   6.400   9.112  11.043 -0.1219  0.0512  0.0254
 6919W        W11119   9.465   8.440   9.925  0.0545  0.2800 -0.0323
 6920W        W11120   1.096   8.830   1.706  0.2503 -0.2917  0.0163
 6921W        W11121   8.935   3.723   0.919 -0.2270 -0.0869 -0.0303
 6922W        W11122   7.203   6.111   2.447 -0.1904 -0.1457  0.0398
 6923W        W11123   0.037   4.863   4.564 -0.1824 -0.1826 -0.2001
 6924W        W11124   6.462   9.565   0.981 -0.2776  0.2022  0.0835
 6925W        W11125   2.009   1.201  12.197 -0.0286  0.1783 -0.0050
 6926W        W11126   6.742   0.226   0.457 -0.0080 -0.2267  0.2323
 6927W        W11127   5.163   6.671   9.445 -0.0926  0.0337  0.0408
 6928W        W11128   1.363   5.452  12.901 -0.0960 -0.1403  0.0198
 6929W        W11129   2.201   0.187   0.851  0.1721  0.2685 -0.2123
 6930W        W11130  10.379   6.903   1.972 -0.1703  0.3688  0.2615
 6931W        W11131   0.960   4.645   2.088  0.1668 -0.0095  0.1735
 6932W        W11132   3.708   0.264   4.021 -0.1111 -0.5457  0.3073
 6933W        W11133   9.504   5.896   2.047  0.0797  0.1320 -0.4139
 6934W        W11134   2.830   5.118   4.498  0.2559  0.2126  0.1743
 6935W        W11135   3.589   2.842   2.052 -0.2099 -0.0818  0.1359
 6936W        W11136  10.137   1.562   2.732  0.0232 -0.0341  0.1516
 6937W        W11137   7.419   4.751  10.729 -0.1721  0.2038 -0.0760
 6938W        W11138   4.591   3.341  10.646 -0.0102 -0.0162 -0.1250
 6939W        W11139   2.731   4.701   0.078  0.0813  0.0781  0.1235
 6940W        W11140   1.559  10.320  12.361  0.2715  0.3047 -0.3316
 6941W        W11141   3.660   8.281   2.783 -0.1562 -0.3197  0.0360
 6942W        W11142   8.100   7.984  11.246 -0.0884  0.0193  0.0276
 6943W        W11143   5.600   1.751   9.849  0.0709 -0.1553  0.0203
 6944W        W11144   6.731   0.772  13.032 -0.1791  0.0346 -0.0551
 6945W        W11145   4.714   5.380   2.465  0.0066  0.0137  0.2727
 6946W        W11146   6.828   6.998   0.732  0.0692 -0.0420  0.1317
 6947W        W11147   9.357   2.231   1.525  0.0066 -0.4480  0.1498
 6948W        W11148   3.055   3.600  11.511  0.5090 -0.0109  0.0877
 6949W        W11149   5.325   9.105   4.909  0.2730 -0.0928 -0.1013
 6950W        W11150   8.299   2.534   3.041  0.0647 -0.0785 -0.1634
 6951W        W11151   1.049   7.454   2.949 -0.1567  0.1553 -0.0421
 6952W        W11152   6.034   2.122  12.396 -0.0410 -0.2634 -0.0138
 6953W        W11153   5.218   5.232   3.046 -0.1357  0.3139  0.1437
 6954W        W11154   0.883   8.088  10.513  0.2757 -0.0340 -0.6029
 6955W        W11155   0.238   2.772   0.237  0.0388  0.3515 -0.3103
 6956W        W11156   2.954   3.270  11.901 -0.1391 -0.3193  0.1574
 6957W        W11157   8.832   5.447   2.387  0.3679 -0.0288 -0.3488
 6958W        W11158   6.766   7.171  12.513  0.2079  0.0803 -0.3411
 6959W        W11159   3.386   5.130  10.533 -0.1638 -0.0939 -0.0036
 6960W        W11160   5.233   4.090  11.069 -0.0520  0.1486 -0.2710
 6961W        W11161   0.858   3.780   9.939  0.3045  0.0483  0.1527
 6962W        W11162   8.138   8.656   1.497  0.2571  0.0809  0.4020
 6963W        W11163   9.337   4.761   3.836 -0.1572  0.1201  0.0633
 6964W        W11164   5.431   9.646  11.738  0.1638  0.0515 -0.1743
 6965W        W11165   3.001   5.247   0.803  0.3560 -0.1357  0.3028
 6966W        W11166   9.307   5.365   2.244 -0.1731 -0.0770  0.1362
 6967W        W11167   3.166   3.173   2.023 -0.0518  0.3181 -0.1625
 6968W        W11168   8.103   2.149   3.319 -0.0673 -0.1419  0.3149
 6969W        W11169   5.988   4.742   2.341 -0.2030  0.2307  0.0019
 6970W        W11170   2.362   8.498   3.502  0.0931  0.2181  0.0709
 6971W        W11171   1.664   9.645   0.381  0.0739  0.1226 -0.1688
 6972W        W11172   8.089   1.562   1.695  0.1844 -0.3805 -0.0684
 6973W        W11173   0.366   7.459   0.878 -0.3474  0.0185  0.3044
 6974W        W11174   7.417  10.127   0.863 -0.0430 -0.1252 -0.2873
 6975W        W11175   9.021   7.403   0.410  0.1757 -0.3385  0.3159
 6976W        W11176   8.005   4.872   1.046  0.0145  0.0019 -0.2281
 6977W        W11177   3.219   2.299   2.533  0.1055 -0.4706 -0.1592
 6978W        W11178   2.880  10.046   1.561  0.2498 -0.4518 -0.2341
 6979W        W11179   7.797  10.380  10.664 -0.1130  0.0731 -0.1296
 6980W        W11180   2.085   5.936   0.485 -0.3585  0.0804 -0.1090
 6981W        W11181   5.530   4.470   0.671  0.0356  0.0844 -0.1352
 6982W        W11182   4.213   0.122  13.439  0.0698 -0.0179  0.0621
 6983W        W11183   3.188   2.707   2.229 -0.0113  0.1338  0.1385
 6984W        W11184   3.961   8.192  11.860 -0.2010 -0.2102  0.0777
 6985W        W11185   8.735   7.945   0.417  0.4352 -0.0010  0.2641
 6986W        W11186   9.979   2.627  10.521 -0.1413  0.0335  0.1991
 6987W        W11187   9.023   2.080  10.573  0.0104 -0.1692  0.1704
 6988W        W11188   0.145   2.148  10.404  0.2310 -0.2824 -0.5495
 6989W        W11189   0.454   8.796  12.649 -0.1058 -0.0442  0.3493
 6990W        W11190   9.326   0.801   0.781 -0.1998 -0.1941 -0.3269
 6991W        W11191   2.308   8.120   4.134  0.2840  0.0164  0.1669
 6992W        W11192   5.300   2.509   3.148 -0.0836  0.0193  0.2953
 6993W        W11193   0.144   1.582   9.401  0.0891 -0.3385 -0.1634
 6994W        W11194   1.048   5.290   1.560  0.0267 -0.1483  0.3238
 6995W        W11195  10.205   4.343   3.605  0.0622 -0.0792 -0.3537
 6996W        W11196   9.194   3.501   8.795  0.0430  0.0088 -0.1202
 6997W        W11197   8.875   6.836   1.708 -0.3161  0.2420 -0.0142
 6998W        W11198   0.660   0.583   0.171 -0.2702 -0.1215  0.2034
 6999W        W11199   9.126   3.400  13.045 -0.2596 -0.0353  0.0457
 7000W        W11200   2.995  10.426   0.255  0.0373  0.0752  0.1195
 7001W        W11201   5.387   1.154  11.293  0.1363 -0.2370 -0.1584
 7002W        W11202   3.554   7.154  10.154  0.1097  0.1220 -0.1761
 7003W        W11203   5.778   7.979   8.608  0.1502 -0.2888 -0.2298
 7004W        W11204   0.436   0.656  12.071  0.2578 -0.0713 -0.1169
 7005W        W11205  10.158   3.683  12.520  0.0392  0.0705  0.3755
 7006W        W11206   7.885   9.641   3.830  0.0390  0.0889  0.2998
 7007W        W11207   8.309   9.978   1.737 -0.2216 -0.2590 -0.1789
 7008W        W11208   3.199   1.672  11.925 -0.0327 -0.0022 -0.0975
 7009W        W11209   7.714   7.529   9.911 -0.1050 -0.0232  0.2369
 7010W        W11210   4.120   1.786   9.893 -0.0834  0.2247 -0.3909
 7011W        W11211   4.846   7.049   4.405 -0.1688  0.1657 -0.3211
 7012W        W11212   4.485   6.181   0.464 -0.1127  0.1170 -0.2772
 7013W        W11213   2.656   2.425   4.485  0.2851 -0.0275  0.0370
 7014W        W11214   0.866   8.825   2.197  0.3340  0.0760 -0.0831
 7015W        W11215   5.041   7.073  13.036 -0.1693  0.1444 -0.1390
 7016W        W11216   3.081   9.527   1.594 -0.3214  0.0331 -0.1435
 7017W        W11217   8.422   1.874   0.164 -0.3885 -0.0944 -0.1823
 7018W        W11218   0.018   8.492  11.360  0.3290  0.0885 -0.0101
 7019W        W11219   2.759   2.510   2.404  0.0866 -0.2439  0.3607
 7020W        W11220   4.222   9.031   2.423 -0.1160  0.1149 -0.1241
 7021W        W11221   6.946   4.765  12.455 -0.0271  0.0564  0.3138
 7022W        W11222   8.429   7.200   2.980 -0.2731  0.3099  0.0471
 7023W        W11223   6.051   9.463   3.068 -0.0586 -0.0939 -0.2964
 7024W        W11224   4.033   2.989   0.798 -0.0259  0.0878  0.1273
 7025W        W11225   7.878   8.892   3.038 -0.3315  0.1205  0.0134
 7026W        W11226   0.581   3.606   4.493  0.2816  0.0323 -0.0503
 7027W        W11227   4.659   5.204  10.063  0.3029 -0.0215 -0.0625
 7028W        W11228   6.344   0.884  12.213  0.1748  0.0035  0.2921
 7029W        W11229   8.681   3.179   1.713 -0.0174 -0.1191 -0.4519
 7030W        W11230   9.571   3.282   1.591 -0.0519 -0.2252  0.0433
 7031W        W11231   1.621   9.747   2.517  0.2106 -0.0547  0.2890
 7032W        W11232   6.210   4.007  10.874 -0.1506 -0.0270  0.1237
 7033W        W11233   4.924   1.438   0.725 -0.0005  0.0861 -0.0598
 7034W        W11234   5.901  10.389  12.971  0.2766 -0.0932 -0.0585
 7035W        W11235   9.801   2.248   0.812  0.0955 -0.1320  0.2103
 7036W        W11236   3.077   0.626   1.223 -0.1376 -0.1527  0.0927
 7037W        W11237   2.037   0.481   0.120  0.0877 -0.1114 -0.1093
 7038W        W11238   3.662  10.147   0.985  0.0458  0.2321 -0.0564
 7039W        W11239   1.596   5.443   1.022 -0.0614  0.0360 -0.1495
 7040W        W11240   9.013   1.409   0.682  0.2440  0.0984 -0.1811
 7041W        W11241   0.902   2.449  11.396 -0.1041 -0.2632 -0.2663
 7042W        W11242   5.581   1.579   3.167 -0.1833  0.1070 -0.2727
 7043W        W11243   6.796   7.812  13.152 -0.1106 -0.0555 -0.1182
 7044W        W11244   8.815   5.022  10.503  0.0624  0.3521 -0.0792
 7045W        W11245   5.971   8.113  11.358 -0.3379 -0.1552  0.4632
 7046W        W11246   8.465   3.654  10.295  0.4580  0.1683 -0.0151
 7047W        W11247   2.246   8.086   0.379 -0.0357 -0.1439  0.0399
 7048W        W11248   9.200   0.448   1.241  0.1379  0.0374  0.2193
 7049W        W11249   5.519   6.097   9.015  0.0795  0.0343  0.2357
 7050W        W11250   6.136   0.662   9.657 -0.1417 -0.1411  0.1372
 7051W        W11251   3.879   5.915   8.979 -0.0638  0.2137 -0.0467
 7052W        W11252   8.114   7.863   8.537 -0.1663  0.1412  0.2007
 7053W        W11253   7.068   5.913  10.437  0.0266 -0.0513 -0.3529
 7054W        W11254   7.653   1.994  11.554  0.0739  0.0165 -0.4360
 7055W        W11255   9.847   2.393  10.002 -0.1056  0.0851  0.1547
 7056W        W11256   8.089   2.391  10.418 -0.0386 -0.0975 -0.2336
 7057W        W11257   0.665   4.495  12.495  0.0375 -0.0044 -0.0217
 7058W        W11258   6.923   7.280  13.089  0.0928 -0.2471  0.1975
 7059W        W11259   4.002   4.261   2.075  0.1510 -0.2406 -0.3872
 7060W        W11260   2.800   6.976   0.741  0.3098  0.3809 -0.2543
 7061W        W11261   2.664   7.576  10.935  0.4625 -0.2608 -0.1020
 7062W        W11262   4.853   2.249   3.018  0.3300  0.0725 -0.1825
 7063W        W11263   0.991   6.214   4.575 -0.3730 -0.1470  0.3610
 7064W        W11264   0.879   5.037   0.384  0.0891 -0.1194 -0.1400
 7065W        W11265   8.090   6.098   2.348 -0.4280 -0.2537 -0.1935
 7066W        W11266   3.797   0.998  10.023  0.1155  0.0250  0.0518
 7067W        W11267   8.988   2.027  10.098  0.0668 -0.1381 -0.0878
 7068W        W11268   2.613   9.039   9.206  0.0063 -0.0844 -0.0469
 7069W        W11269   4.203   2.017   2.905 -0.0113  0.1387 -0.0704
 7070W        W11270   3.676   2.352  12.903  0.1134  0.3066  0.0236
 7071W        W11271   1.554   5.329   3.277 -0.0113 -0.2413 -0.1905
 7072W        W11272   1.597   4.266  11.666  0.0353 -0.0282  0.2631
 7073W        W11273   6.540   1.154   3.273  0.1274  0.0672 -0.0594
 7074W        W11274   3.115   8.859   1.158 -0.2230 -0.1445 -0.0947
 7075W        W11275  10.055   1.307   4.289 -0.0317 -0.1165  0.0856
 7076W        W11276   0.966   6.158  10.185 -0.2328 -0.2035 -0.0378
 7077W        W11277   0.806   6.102   1.093  0.0314 -0.2860  0.0276
 7078W        W11278   5.457   6.529   0.277 -0.1248  0.1416  0.1420
 7079W        W11279   4.002   8.658   9.355 -0.1725 -0.0481 -0.3207
 7080W        W11280   6.038   0.882   3.912 -0.1978  0.0299  0.0760
 7081W        W11281   6.458   2.846   1.728 -0.0156  0.1190 -0.1020
 7082W        W11282   3.410   0.982   3.777  0.0616 -0.4199 -0.1298
 7083W        W11283   5.501   6.413  11.101  0.1419  0.0027 -0.0185
 7084W        W11284   0.614   6.874  10.889 -0.2995 -0.1200 -0.3051
 7085W        W11285   0.855   4.753  13.356  0.2276 -0.2798  0.0771
 7086W        W11286   6.054   8.148   2.931 -0.0204 -0.2927  0.2996
 7087W        W11287   9.181   5.972   9.471 -0.1628  0.2323 -0.0306
 7088W        W11288   8.543   3.520   2.634  0.3136 -0.1649 -0.1460
 7089W        W11289   8.390   8.481  12.593  0.1602  0.2470 -0.2920
 7090W        W11290   4.550   1.537   2.458 -0.1178  0.2235  0.2051
 7091W        W11291   6.929   9.924   0.874  0.2145 -0.3979  0.0081
 7092W        W11292   3.726   9.658  13.042  0.0017  0.4665  0.0014
 7093W        W11293   8.458   7.314   1.161  0.0745 -0.0736 -0.0499
 7094W        W11294  10.208   4.582   2.728 -0.0813 -0.1920 -0.0154
 7095W        W11295   4.608   5.408  11.625  0.1156  0.4532  0.2059
 7096W        W11296   2.684   5.463  12.354 -0.3016  0.2009  0.0181
 7097W        W11297   4.853  10.370  12.133  0.4279  0.1645  0.2259
 7098W        W11298   4.906   3.484  12.368  0.2084  0.0519 -0.0704
 7099W        W11299   7.808   7.498  10.662  0.2740 -0.0189 -0.0245
 7100W        W11300   7.460   0.512   0.104  0.1394  0.2235  0.4129
 7101W        W11301   9.766   0.206   9.420 -0.1328  0.1223  0.2271
 7102W        W11302  10.248   5.207   4.156  0.1392  0.1116 -0.0422
 7103W        W11303   6.306   9.651   9.807  0.1337 -0.1112  0.1432
 7104W        W11304   0.459   2.432  12.875  0.0873  0.1247  0.3478
 7105W        W11305   0.588   2.970   2.252 -0.2347 -0.0940 -0.0136
 7106W        W11306   3.145   3.896  13.309 -0.4046 -0.0702 -0.0483
 7107W        W11307   1.155   8.864  13.362 -0.1013 -0.1596 -0.0357
 7108W        W11308   9.318   9.597   4.744 -0.0440 -0.0900 -0.0014
 7109W        W11309   4.811   4.924   1.894  0.1404  0.2607  0.3802
 7110W        W11310   1.736  10.051   8.805 -0.2466  0.2017  0.3985
 7111W        W11311   6.984   5.726   1.262  0.2572 -0.1228 -0.0967
 7112W        W11312   8.640   9.792  12.541 -0.2708 -0.1532  0.1350
 7113W        W11313   0.114   8.389   4.751 -0.0361 -0.4959  0.2869
 7114W        W11314   7.324   3.732   9.713 -0.2248  0.2196 -0.2127
 7115W        W11315   3.661   4.151   2.945  0.2163  0.0462 -0.4345
 7116W        W11316   8.501   3.954   0.772  0.0793  0.4726  0.2434
 7117W        W11317   7.328   7.911  12.080  0.0802 -0.2928  0.1672
 7118W        W11318   1.110  10.420   9.660 -0.2071 -0.2485 -0.1455
 7119W        W11319   7.975   7.245  11.519 -0.2514 -0.1011 -0.1055
 7120W        W11320   0.906   2.123   3.369 -0.4460  0.1692  0.2299
 7121W        W11321   7.889   9.365  10.600  0.1777 -0.5816 -0.3266
 7122W        W11322   5.995   8.423   8.821 -0.1273 -0.0660 -0.0193
 7123W        W11323   4.627   0.301   0.777  0.0050 -0.0822  0.0631
 7124W        W11324   9.276   1.472   3.061 -0.1229 -0.2878  0.0254
 7125W        W11325   3.182   9.745   3.263 -0.1922 -0.1561 -0.0088
 7126W        W11326   1.138   3.242   3.910  0.1622  0.0903 -0.3339
 7127W        W11327   9.512   9.136   4.611 -0.0085  0.0335  0.0803
 7128W        W11328   3.222   7.881   1.978 -0.2287 -0.3139  0.0220
 7129W        W11329   7.432   5.229   9.987  0.2066 -0.0055  0.2631
 7130W        W11330   8.693   0.329  11.571 -0.0501  0.0696  0.1027
 7131W        W11331   1.851   4.641   9.650 -0.1128 -0.0431 -0.2541
 7132W        W11332   5.320   3.742   3.269 -0.0639  0.1107  0.0191
 7133W        W11333   7.254   0.716  12.564 -0.2679  0.2238  0.0021
 7134W        W11334   9.115   1.125  11.021  0.0828  0.1818  0.1304
 7135W        W11335   0.625   7.941  12.598  0.0228  0.1507  0.0231
 7136W        W11336   3.604   2.679   0.771  0.4612  0.0530 -0.1419
 7137W        W11337   6.316   4.169   2.340 -0.0590 -0.0748 -0.0976
 7138W        W11338   1.781   6.191   9.840  0.0927  0.2932  0.0622
 7139W        W11339   0.320   8.870   4.596 -0.1179 -0.0420  0.1800
 7140W        W11340   2.748   1.473   9.676 -0.1820  0.2133 -0.0676
 7141W        W11341   8.248   1.620   1.197  0.2069 -0.2222  0.1572
 7142W        W11342   4.599   4.554   2.767  0.1503  0.0932  0.1819
 7143W        W11343  10.070   5.789   4.207 -0.3955 -0.0354 -0.3426
 7144W        W11344   4.060   3.438   4.597 -0.0675 -0.3039 -0.0507
 7145W        W11345   0.126   8.990   1.925 -0.1956  0.2425  0.1829
 7146W        W11346   6.669   6.941   9.837  0.0239 -0.0842  0.0560
 7147W        W11347   0.411   0.206   4.197 -0.0210 -0.1282 -0.0134
 7148W        W11348   4.327   6.700  12.516 -0.3005 -0.0742  0.0250
 7149W        W11349   8.480   5.008   0.736  0.0331 -0.1893  0.1699
 7150W        W11350   2.954   4.509  12.184  0.0674 -0.3166 -0.0338
 7151W        W11351   0.885   8.292   3.417 -0.2108 -0.0938 -0.2284
 7152W        W11352   1.272   8.469   2.022  0.0879  0.2845 -0.1180
 7153W        W11353   4.833   4.494   2.338 -0.0539 -0.0340 -0.3906
 7154W        W11354   6.878   2.870   1.470  0.0418 -0.1537 -0.1682
 7155W        W11355   2.821   4.090   1.782  0.2916  0.0429  0.0307
 7156W        W11356   6.123   6.008   8.803  0.0122 -0.2788 -0.1227
 7157W        W11357   9.262   1.118   9.332  0.2969 -0.0286  0.0378
 7158W        W11358   2.044  10.073   4.519 -0.0488 -0.3458 -0.1969
 7159W        W11359   5.792   7.379   9.634 -0.3017  0.1565 -0.2151
 7160W        W11360   3.261   7.691   2.677 -0.2216  0.0717  0.0068
 7161W        W11361   7.252   0.766   0.901  0.0375  0.0266  0.0511
 7162W        W11362   0.435   0.839   0.947 -0.0562 -0.0995  0.0499
 7163W        W11363   6.250   0.494  10.146  0.1459 -0.1398  0.2562
 7164W        W11364   9.551   3.510   3.471 -0.0004  0.2545  0.0383
 7165W        W11365  10.416   4.288  10.271 -0.1059  0.0681 -0.0401
 7166W        W11366   2.039   1.385  10.378  0.2327 -0.1118 -0.1664
 7167W        W11367   7.826   8.958   9.822  0.2101 -0.1481 -0.0422
 7168W        W11368  10.136   6.564  10.785 -0.2513 -0.1582 -0.1584
 7169W        W11369   2.839   1.439  12.201 -0.0769 -0.2785 -0.1492
 7170W        W11370   9.912  10.402   4.098  0.2139 -0.3042  0.1046
 7171W        W11371   7.633   6.173   2.045  0.3457  0.1860 -0.2483
 7172W        W11372   6.392   7.166  12.955 -0.0143  0.5550 -0.0782
 7173W        W11373   3.633   3.719  10.604 -0.1956 -0.1159  0.3531
 7174W        W11374   2.439   4.788  11.741  0.1943 -0.1258  0.0570
 7175W        W11375   0.441   7.418  10.030 -0.0419 -0.0506 -0.0420
 7176W        W11376   3.472   3.424  10.246  0.2575  0.0404  0.1336
 7177W        W11377   6.037   5.929   0.807 -0.2471  0.4548 -0.3833
 7178W        W11378   5.361   9.877   0.570  0.0296 -0.0729  0.2787
 7179W        W11379   7.987   1.913   2.040 -0.0006  0.3549 -0.1031
 7180W        W11380   5.922   8.074  12.928  0.1104 -0.0326  0.1736
 7181W        W11381   7.964   3.382   0.118 -0.4090 -0.0324 -0.1969
 7182W        W11382   1.897   6.782   3.834  0.1456 -0.1395 -0.0705
 7183W        W11383   9.387   6.509   4.142 -0.1836 -0.1044  0.0203
 7184W        W11384   0.086   6.128   1.344 -0.0131  0.0621 -0.1971
 7185W        W11385   3.332   6.383   2.342  0.0665 -0.1549  0.0719
 7186W        W11386   0.067   6.217   2.035 -0.1537  0.1605  0.2849
 7187W        W11387   2.514   7.570   0.596  0.1396 -0.1432 -0.0241
 7188W        W11388   6.491   2.594  10.850 -0.1082 -0.2414 -0.0148
 7189W        W11389   8.508   0.141   2.955  0.1108 -0.1871 -0.1225
 7190W        W11390   5.367   3.661  12.820 -0.1767  0.1037  0.1390
 7191W        W11391   9.410   9.315   3.084 -0.1623 -0.0858 -0.1981
 7192W        W11392   4.470   6.275   4.228  0.2360  0.0914 -0.2980
 7193W        W11393   6.935   6.591  11.294  0.1211  0.1138 -0.0860
 7194W        W11394   4.097   0.059   2.343 -0.1125  0.1003 -0.0358
 7195W        W11395   6.391   0.711  11.219  0.0710  0.0969  0.2745
 7196W        W11396   3.512   4.374   9.801 -0.2674  0.4239 -0.0604
 7197W        W11397   8.989   9.968   9.816  0.1595  0.2768 -0.1060
 7198W        W11398   4.623   8.018   2.352 -0.1708  0.0465  0.2104
 7199W        W11399   6.886   7.345  10.777  0.2435 -0.1128  0.2393
 7200W        W11400   3.288   4.466   1.111  0.0612 -0.0206 -0.1414
 7201W        W11401   5.664   6.927   4.705 -0.0216  0.4427 -0.0645
 7202W        W11402   3.232   7.553   9.496  0.1190  0.1639 -0.0402
 7203W        W11403   1.466   1.858   9.360 -0.3033 -0.0330  0.3260
 7204W        W11404   3.905   7.923   8.963  0.0092 -0.0313 -0.1497
 7205W        W11405   2.015   7.604   2.997  0.3646 -0.1842  0.0637
 7206W        W11406   8.367   1.785  12.548 -0.1409 -0.0818  0.2160
 7207W        W11407   0.653   4.850   0.837  0.1047  0.1363 -0.4430
 7208W        W11408   9.377   2.577   2.463  0.0896  0.0492  0.0934
 7209W        W11409   9.255   3.279  11.976  0.1563 -0.2109 -0.0432
 7210W        W11410   2.736   3.727  12.127 -0.2865  0.1429  0.2017
 7211W        W11411   0.971   9.231   1.466  0.0376 -0.0328 -0.0159
 7212W        W11412   2.183   7.876  12.660  0.4199 -0.1490  0.0492
 7213W        W11413   5.532  10.160   0.173 -0.2640  0.3131  0.1208
 7214W        W11414  10.448   0.551   4.129  0.0410 -0.1575 -0.0598
 7215W        W11415   8.578   6.336   0.058 -0.0309 -0.0924  0.3486
 7216W        W11416   0.847   6.172   2.491  0.1469  0.1931 -0.2235
 7217W        W11417   1.478   7.622   0.761  0.4142  0.2385 -0.0550
 7218W        W11418   4.726   9.504   0.968 -0.3920 -0.4747  0.1709
 7219W        W11419   0.995   3.620   1.291  0.0041 -0.1958  0.0190
 7220W        W11420   8.656   9.612   9.685 -0.1941 -0.1139  0.0580
 7221W        W11421   8.173   8.486  11.108  0.0002  0.1448  0.0411
 7222W        W11422   0.347   0.841   4.265  0.1578  0.1319 -0.3708
 7223W        W11423   4.136   0.461   0.765  0.5889  0.2656  0.1838
 7224W        W11424   4.882   9.564   3.439 -0.1002  0.0250 -0.2639
 7225W        W11425   9.711   7.960   9.112  0.1104  0.0313 -0.0234
 7226W        W11426   3.619   8.383   9.127 -0.0169 -0.4573  0.1899
 7227W        W11427   1.120   0.272   1.045 -0.1504  0.4492  0.0860
 7228W        W11428   4.449   1.251   0.953  0.1636  0.0965 -0.0212
 7229W        W11429  10.339   4.969   2.410 -0.1394  0.0704 -0.0402
 7230W        W11430   3.938   0.880   0.991  0.1344  0.1476  0.0224
 7231W        W11431   1.933   4.596   0.454  0.1441 -0.0368 -0.2406
 7232W        W11432   3.822   4.537   3.474  0.0451  0.2955 -0.1185
 7233W        W11433  10.110   4.954  12.984 -0.2982  0.3452 -0.3298
 7234W        W11434   7.196   9.037   4.652  0.4354  0.2747  0.1882
 7235W        W11435   7.700   1.859  10.796  0.1169  0.0992 -0.0861
 7236W        W11436   6.710   7.054   5.240 -0.0656 -0.2479  0.2203
 7237W        W11437   1.906   9.401   0.951  0.1090 -0.0363  0.0866
 7238W        W11438   3.215   7.639   1.510  0.3627 -0.2267 -0.1777
 7239W        W11439   4.608   5.157   8.629  0.3237 -0.0843  0.1920
 7240W        W11440   1.473   1.045  10.402  0.1901 -0.0262  0.1188
 7241W        W11441   9.740   5.593   0.285 -0.2496 -0.0461 -0.0451
 7242W        W11442   2.487   9.222  10.059 -0.1095 -0.0685  0.1831
 7243W        W11443   1.126   2.323  10.707 -0.0739 -0.0007  0.1977
 7244W        W11444   2.280   9.044   0.237 -0.2876  0.3280 -0.1114
 7245W        W11445   8.956   3.654   2.387 -0.5499  0.2342  0.1338
 7246W        W11446   5.589   1.964   1.994 -0.0918  0.0111 -0.4531
 7247W        W11447   9.411   6.549   9.609  0.1580  0.0108  0.2552
 7248W        W11448   1.724   1.559  12.510 -0.0540 -0.3317 -0.0171
 7249W        W11449   5.177   2.711   9.999  0.3012 -0.3303 -0.1455
 7250W        W11450   5.410   2.971  10.519 -0.0504  0.1479  0.0681
 7251W        W11451   7.573   4.958   2.297  0.3089  0.2722  0.0840
 7252W        W11452   0.404   8.830   9.699 -0.2351 -0.1731  0.1090
 7253W        W11453   9.539   7.494  10.772 -0.0414  0.2590  0.3429
 7254W        W11454   1.521   0.939  13.291  0.1999  0.1864 -0.3180
 7255W        W11455   7.124   1.181  13.384 -0.0378  0.1011  0.0800
 7256W        W11456   8.840   1.560   3.493  0.2061 -0.1446 -0.1816
 7257W        W11457   4.018   4.429   4.024 -0.1160  0.1759  0.0377
 7258W        W11458   5.577   8.981   9.827  0.1031  0.0867 -0.1920
 7259W        W11459   9.688   6.560  12.450  0.0346 -0.1354  0.2637
 7260W        W11460  10.112   4.183   9.696  0.0290 -0.1461 -0.1955
 7261W        W11461   0.532   5.377   1.710  0.1357  0.6494  0.0958
 7262W        W11462   3.216   1.412   9.411 -0.2868 -0.0465 -0.0706
 7263W        W11463   9.203   7.167   0.819  0.2052 -0.2036  0.1937
 7264W        W11464   0.006   6.259   0.778 -0.0100  0.0134 -0.2865
 7265W        W11465   0.617   1.909   2.998  0.2439 -0.0796  0.0315
 7266W        W11466   7.497   7.094   0.153 -0.0987  0.0154 -0.1124
 7267W        W11467   4.772   9.796  10.075 -0.0761 -0.1310 -0.1311
 7268W        W11468  10.313   0.048   4.380  0.0625  0.0410 -0.3429
 7269W        W11469   3.416   7.018   9.677  0.0912 -0.2970  0.2352
 7270W        W11470   2.669   9.445  12.118 -0.1086 -0.2346 -0.1304
 7271W        W11471   2.877   8.322   0.221 -0.0079 -0.1405  0.0643
 7272W        W11472   9.049  10.231   3.160 -0.2758 -0.0691 -0.2090
 7273W        W11473   2.911   0.151   1.416 -0.1069 -0.2759 -0.1149
 7274W        W11474   2.413   4.426   0.331  0.1051  0.2000  0.0233
 7275W        W11475   5.170   3.481   3.817  0.0580  0.0051  0.0998
 7276W        W11476   6.535   2.328  12.546 -0.3450 -0.2125 -0.0693
 7277W        W11477   2.569   7.125   1.645  0.2139 -0.2330  0.2141
 7278W        W11478   3.022   8.119   1.534  0.2005 -0.2357 -0.0026
 7279W        W11479   5.879   6.611  10.155 -0.0053  0.0672 -0.2121
 7280W        W11480   2.855   1.461   2.909  0.2201  0.2155 -0.0748
 7281W        W11481   8.538   0.217  12.914  0.5110 -0.0752 -0.0790
 7282W        W11482   5.873   7.244   1.003 -0.0858  0.1830  0.2432
 7283W        W11483   0.488   3.833   9.570  0.0665 -0.1912 -0.1640
 7284W        W11484   5.139   4.850   2.251  0.2153 -0.4016 -0.1577
 7285W        W11485   8.752   5.166  12.722  0.2303  0.0411 -0.3865
 7286W        W11486   8.851   7.897  10.280  0.0663  0.0650  0.2281
 7287W        W11487   1.187   0.035  12.613  0.1854  0.0027  0.2674
 7288W        W11488   6.397   8.674   9.236 -0.1710  0.2583  0.3010
 7289W        W11489   6.372   7.870   0.597  0.2920  0.1505  0.2330
 7290W        W11490   8.626   7.263  11.124  0.0994  0.0025  0.3312
 7291W        W11491   7.335   6.756  11.515 -0.3109 -0.0951 -0.0101
 7292W        W11492   0.132   8.670   9.162  0.3799 -0.2342  0.0430
 7293W        W11493   6.373   9.669   2.288  0.0215 -0.0010  0.0565
 7294W        W11494   9.532   2.381   3.402 -0.1434  0.2746 -0.0450
 7295W        W11495   1.926  10.053  11.067 -0.2009 -0.0114  0.0507
 7296W        W11496   5.632   2.062  11.458  0.0316  0.1776 -0.1735
 7297W        W11497   3.625   9.675   4.729  0.0772 -0.3157  0.2049
 7298W        W11498   4.685   3.274  11.130 -0.2113 -0.3530 -0.2589
 7299W        W11499   9.612   7.621   2.448  0.1639 -0.1960 -0.2149
 7300W        W11500   3.556   3.207   0.572  0.2617 -0.0988  0.2418
 7301W        W11501   6.978   7.904   1.926  0.1317  0.3882  0.0314
 7302W        W11502   7.175   8.393   0.318 -0.2636 -0.1044  0.0123
 7303W        W11503   6.502   3.016   1.029  0.0498 -0.0223  0.0353
 7304W        W11504   5.003   1.247  10.907  0.1263  0.0856  0.1243
 7305W        W11505   7.601   6.854   2.716 -0.2111 -0.0110 -0.1615
 7306W        W11506   7.678   8.257  12.003 -0.0393  0.0213  0.7134
 7307W        W11507   4.494   3.300  12.178 -0.1378 -0.0980  0.0882
 7308W        W11508   4.258   5.299   3.366 -0.1052  0.3464 -0.0253
 7309W        W11509   1.917   1.111   9.745 -0.2207  0.3425 -0.2820
 7310W        W11510   2.257   6.520  12.828  0.1856 -0.1271  0.1460
 7311W        W11511   7.896   0.853  13.404  0.4787 -0.0889  0.0079
 7312W        W11512   0.712   2.291   4.466  0.0247  0.1730 -0.1515
 7313W        W11513   4.290   5.822   0.164  0.1694  0.0672  0.3241
 7314W        W11514   6.625   6.105   2.472 -0.2405  0.0157 -0.3916
 7315W        W11515   9.448   7.976   3.088  0.1662 -0.3893  0.1656
 7316W        W11516   3.740   5.610   0.274  0.0456  0.2412  0.1935
 7317W        W11517   3.851   4.959  12.053 -0.0883  0.3603 -0.2400
 7318W        W11518   0.859   8.767   4.225  0.1886  0.0436 -0.1932
 7319W        W11519   0.337   5.911   2.548  0.0230  0.1853  0.0508
 7320W        W11520   9.084   8.089  11.235  0.1755  0.2833  0.0068
 7321W        W11521   4.939   0.306  11.225  0.0302 -0.3640  0.2736
 7322W        W11522   9.392   5.049  12.089  0.1502  0.1143 -0.0989
 7323W        W11523   0.581   5.651   2.957  0.3224  0.0527 -0.3665
 7324W        W11524   0.659   9.772   0.708  0.0285  0.1160  0.1588
 7325W        W11525   1.548   4.760  12.481  0.2268 -0.1387 -0.0070
 7326W        W11526   1.071   7.796   2.544 -0.1298  0.0285 -0.2192
 7327W        W11527   4.093   8.029   3.925  0.1390 -0.1060 -0.1331
 7328W        W11528   0.701   8.264   0.403 -0.0614  0.0247  0.2129
 7329W        W11529   6.913   2.812   2.585  0.0317  0.2420  0.0013
 7330W        W11530   0.754  10.332   4.315 -0.0486  0.2071 -0.0930
 7331W        W11531   0.559   3.804   3.240  0.2605 -0.0509 -0.4186
 7332W        W11532   2.870   1.060   4.636 -0.0373 -0.2305 -0.1314
 7333W        W11533   5.726   6.814   4.110 -0.1197  0.3256 -0.0355
 7334W        W11534  10.163   4.501   1.501  0.0756 -0.2379 -0.0378
 7335W        W11535   2.741   6.830  12.721 -0.0117 -0.0862 -0.1015
 7336W        W11536   4.809   1.224  12.761  0.0570 -0.2715  0.5260
 7337W        W11537   5.878   2.638  12.548 -0.0784 -0.1586  0.2327
 7338W        W11538   8.495   2.338  12.376 -0.2833 -0.0857 -0.1648
 7339W        W11539  10.129   6.650   9.261 -0.1146 -0.0579  0.1519
 7340W        W11540   3.508   8.774   4.047  0.1505  0.3127 -0.0564
 7341W        W11541  10.050   1.227  13.089 -0.0886 -0.2639 -0.2470
 7342W        W11542   1.564   8.581   9.873  0.0232 -0.0085 -0.0861
 7343W        W11543  10.083   2.243  11.710  0.0244  0.2748  0.4958
 7344W        W11544   2.247   8.501  10.620 -0.0071 -0.0777  0.0233
 7345W        W11545   3.899   4.046   9.775 -0.1041  0.1468  0.3836
 7346W        W11546   0.868   7.514   3.752 -0.1087  0.0912 -0.4445
 7347W        W11547   0.666   0.761   2.471  0.0267 -0.2747  0.2698
 7348W        W11548  10.065   9.634   2.356 -0.0170  0.0858  0.0083
 7349W        W11549   0.768   3.940   0.448 -0.0392 -0.0508 -0.1318
 7350W        W11550  10.331   1.598  12.278  0.0252  0.0463 -0.1425
 7351W        W11551   7.280  10.107   3.374  0.3584  0.0141  0.3372
 7352W        W11552   8.213   3.289   1.489 -0.3759  0.1378 -0.0197
 7353W        W11553   8.207   5.385   3.644 -0.1367 -0.2378  0.0574
 7354W        W11554   9.817   0.043   3.551 -0.1746 -0.2273  0.1338
 7355W        W11555   1.952   8.349  12.945 -0.0031  0.2345  0.1828
 7356W        W11556   9.764   7.415  12.892 -0.1060 -0.2083  0.0306
 7357W        W11557   9.757   5.816  10.148  0.0555 -0.4484  0.1004
 7358W        W11558   5.043   7.915   4.148  0.2499  0.0347  0.3956
 7359W        W11559   6.472   7.258   0.364 -0.0699 -0.2007 -0.1341
 7360W        W11560   6.371   7.404  11.489 -0.1950  0.1141 -0.1225
 7361W        W11561   3.600   6.227  10.657  0.0104 -0.0338 -0.1929
 7362W        W11562   7.370   5.856  11.229 -0.0807  0.0555 -0.3162
 7363W        W11563  10.211   2.086   9.840 -0.0003  0.2394  0.3814
 7364W        W11564   8.439  10.316  11.553 -0.0393 -0.2250  0.0703
 7365W        W11565   3.632   4.042   1.747 -0.0319  0.3311  0.3024
 7366W        W11566   5.474   2.935   1.047  0.1963 -0.0882  0.1611
 7367W        W11567   9.090   1.483   2.575  0.0295  0.0752  0.1152
 7368W        W11568   3.004   4.038   9.409  0.0645  0.2126 -0.2211
 7369W        W11569   2.096   0.096  13.191  0.1892  0.0714  0.0814
 7370W        W11570   3.877   7.094   1.196  0.0180  0.0337  0.3338
 7371W        W11571   5.339   6.207  10.285  0.1235  0.1311  0.2097
 7372W        W11572   7.159   7.828   1.247  0.2791  0.0885  0.0260
 7373W        W11573   2.383   8.513   9.162  0.1876  0.0946  0.3485
 7374W        W11574   9.334   6.466  12.748 -0.1899  0.4952  0.0572
 7375W        W11575   1.554   1.449  10.591  0.1924  0.0093  0.1227
 7376W        W11576   2.349   4.441  10.473 -0.2200  0.1012  0.3078
 7377W        W11577   5.551   1.312   0.343  0.1129  0.2837  0.0089
 7378W        W11578   3.408   4.718  12.270  0.3069 -0.2017 -0.0346
 7379W        W11579   5.752   2.896  11.152  0.0230  0.1651 -0.0283
 7380W        W11580   5.440   6.619  12.499 -0.3835  0.1535  0.4153
 7381W        W11581   8.786   3.774   3.812  0.3898 -0.1589 -0.0304
 7382W        W11582   3.600   8.960   1.318  0.1927  0.1282  0.2639
 7383W        W11583   8.682   0.696  12.832 -0.0297  0.0378  0.0187
 7384W        W11584   9.080   4.935   0.677 -0.1407 -0.1524  0.4494
 7385W        W11585   9.780   6.229   0.276 -0.3164  0.0728 -0.0285
 7386W        W11586   9.471   3.753  11.887 -0.1298 -0.1679 -0.0973
 7387W        W11587   8.022   5.700   8.967  0.1262 -0.1534 -0.1077
 7388W        W11588   3.249   6.231   4.159 -0.1950 -0.1546  0.1165
 7389W        W11589   2.255   7.125   8.912  0.2077  0.2787  0.1756
 7390W        W11590   7.839   8.659   3.511 -0.0452 -0.0247 -0.1000
 7391W        W11591   8.745   6.343   0.640  0.2049 -0.5134  0.1573
 7392W        W11592   0.638   8.456   0.937  0.1527  0.0706  0.2138
 7393W        W11593   7.113   9.257   2.047 -0.1788  0.1201  0.1213
 7394W        W11594   5.397   5.761   0.417  0.1776  0.0999  0.2344
 7395W        W11595   3.539   8.011   1.389  0.0710 -0.0727 -0.0466
 7396W        W11596   5.095   9.674  12.193  0.0625  0.3455 -0.1164
 7397W        W11597   1.273   0.748   2.741  0.2735 -0.4063  0.1511
 7398W        W11598   0.017   3.693  13.141 -0.1187 -0.0289 -0.1536
 7399W        W11599   2.938   0.295  12.744  0.1714  0.0778 -0.4740
 7400W        W11600   9.300   7.862   5.218  0.1029 -0.1261 -0.2393
 7401W        W11601   1.877   1.460   9.385  0.4917 -0.2616 -0.1497
 7402W        W11602  10.031   4.523   0.433  0.5194 -0.0291 -0.1303
 7403W        W11603   6.816  10.345  10.599 -0.3052 -0.0455  0.2175
 7404W        W11604   0.357   6.522  13.138  0.0040  0.2029 -0.1672
 7405W        W11605   6.501   4.307  10.544 -0.1228 -0.1415  0.0632
 7406W        W11606   4.906   2.446   9.643 -0.3343 -0.1330  0.0250
 7407W        W11607   6.010   5.966   1.537 -0.1009 -0.0308  0.1098
 7408W        W11608   7.953   0.033   3.801  0.1312 -0.4107  0.2799
 7409W        W11609   1.890   4.172   2.616 -0.2050  0.1478  0.3404
 7410W        W11610   8.608   7.959  11.321 -0.2950  0.4405 -0.0570
 7411W        W11611   7.115   7.160   9.729 -0.4967 -0.1239  0.1749
 7412W        W11612   2.680   3.030  10.936 -0.3027 -0.2621  0.1143
 7413W        W11613   3.075   4.112   0.777 -0.1902 -0.1804  0.0905
 7414W        W11614   8.472   4.076  11.300 -0.3279  0.1909 -0.1043
 7415W        W11615   9.709   0.551  12.787  0.4108 -0.0339  0.2346
 7416W        W11616   9.787   5.086   1.363 -0.0508 -0.0027  0.2002
 7417W        W11617   7.079   9.921   3.823  0.1399  0.1378  0.1086
 7418W        W11618   7.780   8.267   2.362  0.1772  0.0809 -0.0991
 7419W        W11619   8.726   9.344  12.808 -0.1981 -0.1909  0.0659
 7420W        W11620   1.389   7.406  11.297  0.0772 -0.1168  0.0678
 7421W        W11621   5.985   8.763  10.172 -0.0373  0.0211  0.0325
 7422W        W11622   1.382   5.249   2.761  0.1165 -0.1504  0.1784
 7423W        W11623   8.998   7.114  11.588 -0.4107  0.0447 -0.1659
 7424W        W11624   0.356   9.851   0.127  0.2093 -0.2656  0.0173
 7425W        W11625   1.724   9.224   9.434 -0.2208 -0.3468 -0.0238
 7426W        W11626   1.137   9.228  10.607 -0.1093 -0.4653  0.1356
 7427W        W11627   1.143   8.477   3.838 -0.1079 -0.0657 -0.0656
 7428W        W11628   2.773   0.610   9.931 -0.2483  0.1501  0.1360
 7429W        W11629   6.015   0.037   3.952  0.4637 -0.4151  0.0130
 7430W        W11630   0.076   4.570   0.992 -0.3584 -0.0081 -0.0506
 7431W        W11631   6.995   1.165  10.016  0.1711 -0.2301  0.1385
 7432W        W11632   4.979   8.386   2.431 -0.2161 -0.2172  0.0814
 7433W        W11633   9.003   9.797  10.863 -0.2748 -0.0853  0.0786
 7434W        W11634   5.892   6.024  10.259 -0.0541 -0.1446  0.4085
 7435W        W11635   6.633   4.688   1.194 -0.0940 -0.1397  0.0728
 7436W        W11636   7.537  10.008   0.377  0.0822 -0.1081 -0.0199
 7437W        W11637   1.469   4.735   8.794  0.0649 -0.1186  0.0813
 7438W        W11638   5.437   2.600  12.849 -0.0325 -0.2221  0.0189
 7439W        W11639   4.908   9.593  10.536  0.0120 -0.2124  0.0307
 7440W        W11640   8.883   2.404  11.210  0.0225  0.3763  0.1525
 7441W        W11641   9.630   2.374  10.828 -0.0375  0.0400 -0.4107
 7442W        W11642   3.605   8.142   5.034 -0.2862 -0.0000 -0.0311
 7443W        W11643   7.654   2.054   3.999  0.2312 -0.2337 -0.3576
 7444W        W11644   3.047   1.100  11.187 -0.3609 -0.0782 -0.0199
 7445W        W11645   1.414   4.413   2.833 -0.1267  0.2673  0.1214
 7446W        W11646  10.260   6.236   4.027 -0.3074 -0.0753  0.1127
 7447W        W11647   5.510   2.598  13.405  0.1977  0.0415 -0.1192
 7448W        W11648   0.424   4.545   0.020  0.3145 -0.0499 -0.3194
 7449W        W11649   8.852   0.516   0.840  0.0343  0.3037 -0.0330
 7450W        W11650   1.584   4.674   3.631  0.0861  0.1134 -0.2239
 7451W        W11651   4.637   8.248   3.282 -0.0206  0.1312 -0.1849
 7452W        W11652   1.424   6.557   0.289 -0.0245  0.2993 -0.3232
 7453W        W11653   3.855   9.237   4.578 -0.0294  0.0001 -0.3499
 7454W        W11654   2.995   3.335   1.326  0.0718  0.0406  0.1014
 7455W        W11655   0.256   7.110   0.418  0.1378  0.2162 -0.1264
 7456W        W11656   5.634   6.891  11.217 -0.1240 -0.2075  0.0015
 7457W        W11657   8.920   0.046   1.875 -0.0640 -0.4270 -0.0636
 7458W        W11658   1.216   2.924  10.716 -0.0973  0.1938 -0.0465
 7459W        W11659   1.776   7.619   8.350  0.0659 -0.2457 -0.0293
 7460W        W11660   0.968   6.124  13.092 -0.1524  0.0480 -0.1309
 7461W        W11661   7.755   6.472  11.860  0.1900  0.1204 -0.1392
 7462W        W11662   5.122   3.382  10.693  0.2194  0.2293  0.3978
 7463W        W11663   0.589   5.358   4.062 -0.1654 -0.0166 -0.2569
 7464W        W11664   1.876   4.741  11.841 -0.0990 -0.2161  0.0719
 7465W        W11665   8.495   7.042  11.726  0.0165  0.1377  0.2225
 7466W        W11666   1.455   3.032   4.209  0.2694 -0.3077  0.0928
 7467W        W11667   4.472   4.725   9.830  0.0223 -0.1442 -0.1023
 7468W        W11668   0.207   6.763  12.720  0.0529 -0.0491  0.0493
 7469W        W11669   1.062   9.239   2.487 -0.1734 -0.1530 -0.3201
 7470W        W11670   1.833   2.631   2.707  0.0379 -0.0028 -0.0701
 7471W        W11671   8.175   7.748   9.827  0.1413  0.0542  0.2450
 7472W        W11672   5.539   0.821  12.895 -0.0183 -0.0537  0.0474
 7473W        W11673   3.011   8.532   0.724  0.3060 -0.3923 -0.2793
 7474W        W11674   4.309   4.308  11.029 -0.2066 -0.1995  0.0522
 7475W        W11675   5.105   1.640   1.582 -0.0684  0.1840 -0.2029
 7476W        W11676  10.311   4.994   9.135 -0.0045  0.1467 -0.0385
 7477W        W11677   2.545   0.130  12.379  0.1099  0.0412  0.2931
 7478W        W11678   4.661   6.805  11.235  0.0909  0.1519 -0.2674
 7479W        W11679   2.779   7.837   4.110 -0.1900  0.0104  0.0164
 7480W        W11680   4.436   9.233  11.907 -0.1058 -0.0517 -0.1319
 7481W        W11681   9.965   6.696   0.070  0.2031 -0.1931 -0.3683
 7482W        W11682   0.824   9.731  13.259  0.0775 -0.2057 -0.0918
 7483W        W11683   6.668  10.472  12.219  0.0019  0.2262  0.3066
 7484W        W11684   1.220   3.327   8.749 -0.0029  0.1000  0.3428
 7485W        W11685   2.781   5.002   0.430  0.1374 -0.1153 -0.1777
 7486W        W11686  10.069   1.589   3.340  0.0961 -0.2042 -0.2176
 7487W        W11687   1.284   0.853   2.246  0.0693 -0.2693  0.1246
 7488W        W11688   0.595   6.212   2.068  0.0300  0.2815 -0.1156
 7489W        W11689   2.550   0.244   3.714 -0.0891  0.2927 -0.2503
 7490W        W11690   8.852   4.477   1.642  0.0168  0.2358 -0.4461
 7491W        W11691   1.046   9.401  10.037 -0.0509  0.1755 -0.0973
 7492W        W11692  10.055   4.431   2.041 -0.1189 -0.2364 -0.0338
 7493W        W11693   6.501   6.213   1.349  0.1128  0.1902  0.5035
 7494W        W11694   6.918   9.495   1.113 -0.1647  0.1733  0.3454
 7495W        W11695   9.464   3.397  10.826  0.1762 -0.2426 -0.0006
 7496W        W11696   9.201   6.571   3.381  0.1255  0.0973 -0.0699
 7497W        W11697   7.289   0.241   3.215  0.1626  0.1438  0.1274
 7498W        W11698   5.836   1.258  12.657  0.1334  0.3845  0.3479
 7499W        W11699   3.256   1.931   0.324  0.0115 -0.1523  0.1086
 7500W        W11700   2.177   6.962  11.954 -0.1986  0.4859  0.0013
 7501W        W11701   8.379   3.274   2.096 -0.0047  0.1913  0.2048
 7502W        W11702   5.846   9.816   2.273  0.1491  0.2991  0.2908
 7503W        W11703  10.176   0.003  11.586 -0.0250  0.1083 -0.0691
 7504W        W11704   9.119   4.706   2.825 -0.2556 -0.0537 -0.2421
 7505W        W11705   5.996  10.378  11.827  0.2187 -0.0339 -0.2308
 7506W        W11706   4.446   6.280  11.860 -0.0412  0.1709  0.1057
 7507W        W11707   6.840   0.481  11.017  0.0354 -0.0891  0.2589
 7508W        W11708   9.015   2.160   4.243  0.1085 -0.0949 -0.0407
 7509W        W11709   1.353   3.431   0.378 -0.1338 -0.1844 -0.1911
 7510W        W11710   6.271   5.439  12.289 -0.1814  0.2666 -0.0233
 7511W        W11711   0.251   6.296   4.064 -0.2215  0.3602  0.2091
 7512W        W11712   6.577   2.477  11.335  0.2650 -0.1586  0.0145
 7513W        W11713   6.868  10.470  12.696  0.2405 -0.6000 -0.0440
 7514W        W11714   8.369   5.998   9.893  0.0774 -0.2265 -0.2358
 7515W        W11715   8.030   7.808   1.515 -0.0773 -0.3018 -0.0860
 7516W        W11716   4.530   1.224   2.828  0.1895 -0.1872 -0.2792
 7517W        W11717   9.012   5.498  11.783  0.0055  0.2170  0.3494
 7518W        W11718   7.284   8.235  11.614  0.1623  0.0411 -0.2068
 7519W        W11719   0.215   8.106   0.391  0.0333  0.1108 -0.0913
 7520W        W11720  10.394   1.349   2.350  0.0972 -0.2359 -0.3980
 7521W        W11721   2.031   4.649   4.233 -0.1546  0.0062  0.0915
 7522W        W11722  10.122   7.117   9.188 -0.1623 -0.2175  0.2330
 7523W        W11723   0.264   4.379  10.986 -0.1294  0.0443 -0.0769
 7524W        W11724   2.774   1.089   1.242 -0.1427 -0.1350 -0.0008
 7525W        W11725   5.704   7.592  10.089  0.1928  0.0086 -0.1344
 7526W        W11726   3.084   1.280   5.461  0.2372  0.0080 -0.0491
 7527W        W11727   6.210  10.245   1.430  0.1577 -0.0091 -0.2247
 7528W        W11728   1.473   1.775  13.012 -0.0635  0.2967  0.1252
 7529W        W11729   7.044   6.678  10.735  0.0274 -0.3743 -0.0804
 7530W        W11730  10.049   5.646   9.725  0.2513 -0.1099  0.1134
 7531W        W11731   1.304   3.288   0.958  0.0435 -0.2753 -0.1763
 7532W        W11732   1.741   9.761  10.113 -0.1248 -0.1042 -0.4033
 7533W        W11733   6.778   6.912   3.797 -0.0946  0.1305 -0.2539
 7534W        W11734   2.540   2.169  10.263  0.1019  0.1982 -0.1323
 7535W        W11735   4.335   2.412  12.998  0.1156  0.0269  0.3088
 7536W        W11736   7.601   2.169   2.240  0.0796  0.0410  0.3140
 7537W        W11737   3.233   6.696   0.862  0.1249 -0.1706 -0.0568
 7538W        W11738   4.535   6.346   5.376 -0.1097 -0.1647 -0.0276
 7539W        W11739   6.806   4.111   0.734 -0.2334 -0.5344 -0.0311
 7540W        W11740   4.295   8.125   4.422  0.2578 -0.1185  0.0219
 7541W        W11741   3.161   0.276  10.216 -0.1826 -0.0842 -0.1765
 7542W        W11742   4.510   4.184   2.166 -0.1908 -0.1162 -0.0989
 7543W        W11743   4.774   8.232  10.218 -0.5675 -0.1898 -0.2620
 7544W        W11744   3.184   1.819  12.398  0.1110 -0.1988  0.2283
 7545W        W11745   5.954   9.384  12.580 -0.2361 -0.2050  0.0255
 7546W        W11746   1.820   5.393   4.936 -0.0550 -0.1185 -0.1283
 7547W        W11747   4.645   6.848   9.260 -0.2261 -0.0565  0.0957
 7548W        W11748   7.830   9.866   9.071 -0.3030  0.2176 -0.2639
 7549W        W11749   0.591   0.559   2.936  0.1992 -0.1313  0.0541
 7550W        W11750   0.322   9.658   1.076  0.3977 -0.1774  0.0426
 7551W        W11751   5.236  10.073   4.768  0.0909 -0.0010  0.0546
 7552W        W11752   2.125   9.676   8.065 -0.3077  0.3529 -0.1946
 7553W        W11753   0.884   0.896   3.996 -0.0727 -0.3130  0.0371
 7554W        W11754   2.798  10.364   1.017 -0.0051  0.0273 -0.0910
 7555W        W11755   6.177   0.720   2.640  0.2071  0.3302  0.1339
 7556W        W11756   6.663   7.235  12.003  0.0233  0.0849  0.1311
 7557W        W11757   4.752   3.933   0.602  0.1236 -0.2133  0.2192
 7558W        W11758   7.804   4.487  10.579  0.0962 -0.0121  0.1177
 7559W        W11759   1.770   3.210   1.749  0.0089 -0.0790  0.5499
 7560W        W11760   1.374   5.957  12.141 -0.1615 -0.1866 -0.2331
 7561W        W11761   4.975   7.593   3.663 -0.1299  0.1149 -0.1059
 7562W        W11762   3.292   3.263   9.523 -0.1158 -0.2317 -0.0452
 7563W        W11763   4.674   7.337   1.634  0.3484  0.2499 -0.0861
 7564W        W11764   4.174   5.694  10.462  0.0326 -0.0036 -0.0021
 7565W        W11765   7.697   6.709   0.896 -0.0142  0.3321  0.0761
 7566W        W11766   4.548   5.488  13.347 -0.0085 -0.0501 -0.2538
 7567W        W11767   6.215   2.760   1.299  0.3477 -0.0603  0.0442
 7568W        W11768   3.849   8.711   2.571 -0.1066  0.2036 -0.0603
 7569W        W11769   4.514   2.523  11.145  0.2013 -0.4128  0.1236
 7570W        W11770   1.233   0.546  13.309  0.1872 -0.1409  0.1559
 7571W        W11771   4.228   0.970   0.544 -0.0924 -0.1760 -0.1088
 7572W        W11772   7.253   2.037   3.131  0.2709 -0.1138 -0.0708
 7573W        W11773   0.550   4.955   2.309 -0.1583  0.0036  0.1150
 7574W        W11774   0.115   7.851  12.566 -0.2149  0.1004 -0.3737
 7575W        W11775   0.983   1.276   4.345 -0.1922  0.0206 -0.0281
 7576W        W11776   8.477   5.188   2.743 -0.0888  0.0050 -0.0737
 7577W        W11777   2.577   2.787   3.408 -0.0298  0.2171 -0.1081
 7578W        W11778   6.294   8.204   8.473 -0.2951 -0.1631 -0.2721
 7579W        W11779   2.874   4.556   2.741 -0.1304 -0.3858  0.1785
 7580W        W11780   5.697   6.209  10.725  0.1955  0.1839 -0.0373
 7581W        W11781   8.359   1.764   4.195  0.0273  0.2872 -0.1311
 7582W        W11782   2.102  10.110  12.330 -0.0211  0.1232 -0.0528
 7583W        W11783   2.874   7.525  11.497 -0.2395  0.0178  0.4096
 7584W        W11784   1.891   3.105   0.878  0.0859 -0.2126 -0.2317
 7585W        W11785   4.366   8.944   3.820  0.1813 -0.1096  0.1191
 7586W        W11786   4.086   1.286   2.523 -0.1846  0.1851 -0.2415
 7587W        W11787   7.464   4.218   3.001  0.0151 -0.4429 -0.0085
 7588W        W11788   3.257   5.361   9.557 -0.0294  0.1218  0.0836
 7589W        W11789   7.010   8.595   3.630  0.2198  0.0035  0.0439
 7590W        W11790   2.137   5.819  10.776  0.1830  0.1418 -0.0206
 7591W        W11791   4.628   2.397  10.617 -0.0489 -0.0528  0.1929
 7592W        W11792   8.244  10.344   2.539  0.1132 -0.0853 -0.0548
 7593W        W11793   0.012  10.015  12.691 -0.0425  0.2312  0.0327
 7594W        W11794   8.282   0.724   1.068  0.0204 -0.2239  0.0228
 7595W        W11795   1.926   3.598   2.119 -0.0010 -0.3070 -0.1452
 7596W        W11796   5.641   7.508   0.192  0.0564  0.1485 -0.0537
 7597W        W11797  10.296   9.021  10.085 -0.1607  0.0362 -0.0044
 7598W        W11798   9.397   1.755  13.287 -0.1482 -0.0115  0.0113
 7599W        W11799  10.454   7.007   8.843 -0.2047  0.0546  0.0871
 7600W        W11800   2.919   0.346   0.620  0.1350 -0.0629 -0.1135
 7601W        W11801   1.400   0.517  10.261 -0.0305  0.1152  0.1078
 7602W        W11802   6.768   3.917  10.342 -0.1477  0.2932  0.2190
 7603W        W11803   1.391   4.418   4.960  0.2410 -0.2611 -0.1497
 7604W        W11804   0.412   0.162   0.935  0.0312 -0.0536 -0.0384
 7605W        W11805   3.909   6.223  11.846  0.0803  0.1383  0.1910
 7606W        W11806   2.525   1.156  10.426 -0.3135  0.0422  0.2137
 7607W        W11807   3.750   5.735  10.754 -0.3484  0.0267  0.0352
 7608W        W11808   1.271   4.305   4.425  0.0724  0.1468 -0.1256
 7609W        W11809   0.309  10.406   3.445  0.2633  0.3468 -0.1070
 7610W        W11810   0.724   5.969   9.624  0.0804 -0.1884  0.1526
 7611W        W11811   2.814   0.953   8.782 -0.1677 -0.1555  0.0876
 7612W        W11812   1.123   4.124   0.001 -0.1076  0.3394  0.1253
 7613W        W11813   3.363  10.093  12.245 -0.1275 -0.0791  0.0946
 7614W        W11814   4.259   5.114  11.262  0.1808  0.1673  0.0474
 7615W        W11815   9.593   3.430   2.936 -0.2273 -0.0763  0.0324
 7616W        W11816   7.117   9.735   1.477 -0.0962  0.2697 -0.1386
 7617W        W11817   7.332   4.227   0.207 -0.1420 -0.2616 -0.1672
 7618W        W11818   9.466   3.037  13.128  0.0329  0.0164 -0.1085
 7619W        W11819   3.402   9.024  13.303 -0.1589 -0.2446 -0.0667
 7620W        W11820   7.711   7.403   1.219 -0.0322  0.0204  0.1377
 7621W        W11821   4.675   0.893  10.570 -0.0602 -0.1021  0.0140
 7622W        W11822   9.152   8.676   2.004  0.1891  0.3016 -0.0722
 7623W        W11823   2.103   2.345  13.162  0.2266  0.0434  0.2295
 7624W        W11824   3.208   4.957   2.136 -0.1009  0.0475 -0.3043
 7625W        W11825   1.962   0.959   9.254  0.3392  0.1141  0.1737
 7626W        W11826   5.890   0.581   1.266  0.1336  0.1099 -0.1241
 7627W        W11827   9.762   2.905  12.726  0.1198 -0.1204  0.2224
 7628W        W11828   3.729   9.676   2.706 -0.3757 -0.0825 -0.1457
 7629W        W11829   4.959   7.822  11.371 -0.2284 -0.0440 -0.1288
 7630W        W11830   3.557   1.020   0.615  0.1811 -0.0000 -0.1495
 7631W        W11831   4.325   6.859   3.775  0.1044 -0.1031 -0.3468
 7632W        W11832   3.289   9.344   4.351 -0.1353  0.0445  0.0271
 7633W        W11833   3.201   5.853   9.737  0.3736 -0.2927 -0.1099
 7634W        W11834   7.313   8.185   1.668  0.2308 -0.2574  0.1805
 7635W        W11835   3.336  10.104   0.042 -0.2613  0.0218  0.1608
 7636W        W11836   0.350   4.508   4.363 -0.0140 -0.0978 -0.2186
 7637W        W11837   0.830   7.561  11.319  0.2450  0.1361 -0.0775
 7638W        W11838   0.854   4.377  12.023 -0.0522  0.1514  0.2109
 7639W        W11839   7.273   5.608   4.430  0.0358  0.1535 -0.0881
 7640W        W11840   0.277   3.770  10.112 -0.1032 -0.2545 -0.0945
 7641W        W11841   2.111   0.649   0.643  0.1375 -0.0929  0.2267
 7642W        W11842   9.696   1.691  12.891  0.1784 -0.0949 -0.0400
 7643W        W11843   2.342   3.962   1.081 -0.1472 -0.1502  0.4309
 7644W        W11844   7.201   7.383   0.514 -0.0407  0.0584 -0.0150
 7645W        W11845   0.857   7.844  13.021 -0.1053  0.0274 -0.0501
 7646W        W11846   6.416   7.390   4.304 -0.1911 -0.0650 -0.3221
 7647W        W11847   3.980   0.947   2.165 -0.1895 -0.1079 -0.0154
 7648W        W11848   4.646   1.738   2.975  0.2547  0.0333 -0.0679
 7649W        W11849   5.743   4.281   9.179 -0.1370  0.0029  0.0311
 7650W        W11850  10.213   7.081  13.019 -0.2219 -0.0599 -0.2989
 7651W        W11851   2.874   1.336   0.787 -0.0368 -0.0846 -0.1707
 7652W        W11852   6.119   5.171   3.927 -0.3516  0.3182 -0.0143
 7653W        W11853   8.369   8.000  12.256 -0.0613  0.1027 -0.0922
 7654W        W11854   8.270   5.216  12.363 -0.3246  0.0215 -0.0381
 7655W        W11855  10.260  10.058   0.899  0.1873 -0.1903 -0.0619
 7656W        W11856   2.724   9.644   9.772 -0.2044  0.2119  0.0922
 7657W        W11857   3.239   5.881   2.579  0.0229  0.1163 -0.3089
 7658W        W11858   7.034  10.010  11.673 -0.0679  0.0345  0.4053
 7659W        W11859   5.294   0.567  12.539  0.1064  0.0139 -0.1519
 7660W        W11860   0.066   1.360   3.584 -0.1803 -0.1322 -0.1737
 7661W        W11861   0.068   9.129  10.554 -0.6536  0.1331  0.1738
 7662W        W11862   7.944   7.218  12.588 -0.2587 -0.3049  0.2197
 7663W        W11863   2.529   9.507   1.568  0.0011  0.0432  0.1815
 7664W        W11864   6.665   5.134  11.103  0.0721  0.0901 -0.0307
 7665W        W11865   1.975   9.205  13.370 -0.0374 -0.0494  0.0693
 7666W        W11866   1.410   9.368   2.929 -0.1239 -0.2630 -0.0313
 7667W        W11867   8.739   6.213   9.439  0.0376  0.0203 -0.1064
 7668W        W11868   2.426   4.560  13.140  0.2041  0.2323  0.0956
 7669W        W11869   3.880   0.873   3.892 -0.0510  0.3225  0.0309
 7670W        W11870   2.590  10.432   0.009  0.2539 -0.0199  0.1932
 7671W        W11871   8.658   9.243   8.886 -0.2651  0.0315 -0.0785
 7672W        W11872   7.760   6.124   9.581  0.3166  0.0825  0.0686
 7673W        W11873   7.968   6.944   9.962  0.0263 -0.0204  0.0457
 7674W        W11874   3.820   9.312  13.379  0.1263  0.0665  0.1688
 7675W        W11875   3.468   0.420   2.079 -0.1204 -0.0105  0.0849
 7676W        W11876   6.966   7.177   0.173  0.5848  0.1091 -0.0018
 7677W        W11877   0.062   9.501   1.602 -0.0485 -0.0187  0.4111
 7678W        W11878  10.465   3.444   3.524  0.2080 -0.1244  0.1285
 7679W        W11879   5.593   7.536   2.089 -0.0864 -0.0965  0.0481
 7680W        W11880   7.500   9.010   2.295 -0.2346 -0.0287 -0.0472
 7681W        W11881  10.454   9.831   3.237 -0.0252  0.1007 -0.0470
 7682W        W11882   9.886   7.026   0.523 -0.0597  0.0082  0.1126
 7683W        W11883   1.213   9.286   9.263  0.0379  0.0565  0.1562
 7684W        W11884   0.385   2.743   9.711  0.0329  0.1250  0.1372
 7685W        W11885   8.934   6.991  12.070  0.0188 -0.0518 -0.0576
 7686W        W11886  10.101   7.372   2.070  0.0800 -0.2384  0.2154
 7687W        W11887   1.029   5.161  13.083 -0.0562  0.0881  0.0031
 7688W        W11888   5.830   6.100   1.997 -0.3787 -0.1972 -0.1658
 7689W        W11889   9.622   1.925   1.956 -0.2143  0.0844  0.1632
 7690W        W11890   0.817   2.672   5.296 -0.0264  0.2383 -0.0922
 7691W        W11891   0.522   7.998   3.580 -0.1673 -0.1091  0.0945
 7692W        W11892   8.609   8.938   4.343  0.1892  0.0491 -0.1866
 7693W        W11893   6.398   0.331  10.901 -0.0542 -0.0760 -0.0225
 7694W        W11894   9.142   5.552   9.263 -0.2821  0.2604 -0.1861
 7695W        W11895   0.814   9.732  12.225 -0.1432 -0.0806  0.0929
 7696W        W11896   5.716   8.478  10.430  0.0401  0.1391 -0.0091
 7697W        W11897   8.464   0.500   0.486  0.1103  0.0379  0.2400
 7698W        W11898   2.018   6.169  11.248  0.1338 -0.0544  0.4202
 7699W        W11899   1.737   0.341   1.411 -0.1254 -0.0339 -0.0900
 7700W        W11900   3.333   6.111   8.960  0.1626 -0.0726 -0.1257
 7701W        W11901   8.755   2.795   2.663  0.1109  0.3317 -0.0336
 7702W        W11902   8.944   7.623  11.600 -0.1608 -0.4702  0.1945
 7703W        W11903   5.162   3.737  10.022  0.0785  0.1143  0.1463
 7704W        W11904   0.238   5.692  10.612  0.1828  0.0854 -0.4081
 7705W        W11905   5.517   9.234  10.875  0.0069  0.1614  0.0257
 7706W        W11906  10.413   5.802  10.210 -0.0381 -0.0259 -0.0072
 7707W        W11907   8.215   9.337   0.387  0.1471 -0.4885 -0.1093
 7708W        W11908   1.545   3.254  10.956  0.0893 -0.2093  0.4161
 7709W        W11909   8.512   7.122   1.972 -0.0001  0.2375 -0.0001
 7710W        W11910   3.699   0.341  11.700 -0.2427  0.3393 -0.3375
 7711W        W11911  10.274   0.841   4.465 -0.0230  0.3961  0.2624
 7712W        W11912   6.902   7.594   3.082  0.0155 -0.2312  0.4724
 7713W        W11913   2.104   2.553   9.279 -0.2565  0.0531  0.2816
 7714W        W11914   2.595   2.801   1.499 -0.0967 -0.0679  0.0200
 7715W        W11915   9.261   0.314   0.659 -0.2167  0.3165  0.0951
 7716W        W11916   1.141   2.008  11.179 -0.2044 -0.1487  0.4302
 7717W        W11917   9.672   5.141   3.589  0.3555 -0.2640 -0.2396
 7718W        W11918   0.260   9.367  11.501  0.1628 -0.4105 -0.2145
 7719W        W11919   5.947   2.739   0.391  0.0062  0.1812  0.1164
 7720W        W11920   3.607   1.432   2.205  0.0819  0.3696  0.1692
 7721W        W11921   9.461   6.957  11.870 -0.1403 -0.0144 -0.0235
 7722W        W11922   2.766   6.514  10.528  0.1301  0.3022 -0.1351
 7723W        W11923   0.170   6.998  10.043  0.3852 -0.2929 -0.1324
 7724W        W11924   6.140   0.138   1.776  0.0681 -0.2279 -0.2508
 7725W        W11925   3.708   7.447   9.477  0.3582 -0.2116  0.4250
 7726W        W11926   8.015   5.602   1.948  0.3980 -0.3756 -0.1792
 7727W        W11927   0.851   9.190   0.661  0.0069  0.0174  0.0693
 7728W        W11928   4.670   1.635   1.185  0.0145  0.0202 -0.0708
 7729W        W11929   1.265   1.129   3.765  0.1686  0.2357 -0.0538
 7730W        W11930   0.958   2.082  11.777  0.0886 -0.0081  0.1364
 7731W        W11931   1.283   5.637  11.310 -0.1383  0.1294  0.3618
 7732W        W11932   3.238   3.663   2.415  0.1259 -0.3915 -0.0181
 7733W        W11933   5.648   5.118   3.239 -0.2285 -0.2388 -0.1896
 7734W        W11934   7.584   2.533  12.829  0.0352 -0.0864  0.0684
 7735W        W11935   6.438   3.236   3.885  0.0115 -0.1746 -0.0964
 7736W        W11936   9.404   0.990  11.497  0.1957  0.1561 -0.3864
 7737W        W11937   5.453   5.494   4.306  0.0299 -0.1666 -0.1570
 7738W        W11938  10.006  10.020  11.257  0.0791 -0.1643  0.1339
 7739W        W11939   8.766   4.564   0.634 -0.0017  0.1296  0.3373
 7740W        W11940   1.227   4.577   9.657 -0.1898 -0.0062 -0.2236
 7741W        W11941   8.375   5.614  12.928 -0.0834  0.1466 -0.0381
 7742W        W11942   5.444   0.131   9.270 -0.1112  0.1275 -0.0279
 7743W        W11943  10.422  10.129   0.267 -0.1652  0.0539 -0.0259
 7744W        W11944   9.917   1.694  13.331 -0.0775 -0.0251 -0.0621
 7745W        W11945   2.710   2.064   0.378 -0.0149  0.0644 -0.5546
 7746W        W11946  10.215   6.457   1.755  0.2296  0.0769  0.0805
 7747W        W11947   8.297   1.823  13.148  0.2883  0.2725  0.3604
 7748W        W11948   6.839   1.301  10.454 -0.0366 -0.1723 -0.0932
 7749W        W11949   1.302   5.449  10.827 -0.1369  0.1372  0.2466
 7750W        W11950   6.723   8.303  13.127  0.0124 -0.2647 -0.2172
 7751W        W11951   0.930   2.794   9.612  0.0364 -0.0912  0.2630
 7752W        W11952   8.164   8.939  10.877 -0.1603 -0.4214 -0.1638
 7753W        W11953   4.146   0.494  12.594  0.4030 -0.2042 -0.2253
 7754W        W11954   7.073   3.500   3.119 -0.2365 -0.1411  0.2482
 7755W        W11955   9.861   2.418  12.598  0.0473  0.1690 -0.2286
 7756W        W11956   7.390   0.293  12.820 -0.0990  0.1214  0.0686
 7757W        W11957   1.135   7.043   1.110 -0.0306  0.2184 -0.1943
 7758W        W11958   6.960   8.140   8.890 -0.2495  0.2227  0.1308
 7759W        W11959   9.571   3.322   0.645  0.0236 -0.0798 -0.0364
 7760W        W11960   0.801   4.085   3.614  0.1052  0.3010  0.0772
 7761W        W11961   2.982   2.538  12.992  0.1171  0.3228 -0.2434
 7762W        W11962   0.515   1.419   3.015  0.1374  0.1005  0.3058
 7763W        W11963   9.378   9.760   1.844 -0.0184 -0.2621 -0.0050
 7764W        W11964   2.935   2.835   9.687 -0.0108  0.3092 -0.2380
 7765W        W11965   2.598   6.459   3.202 -0.2167 -0.2625  0.1242
 7766W        W11966   0.050   8.072  13.345  0.2563  0.2654 -0.0517
 7767W        W11967  10.386   4.809  10.066  0.0925  0.0655 -0.0309
 7768W        W11968   4.717   6.464  12.249  0.1317  0.0769  0.1155
 7769W        W11969   2.353   8.029   0.946 -0.1719 -0.0492 -0.2525
 7770W        W11970   5.879   4.651  11.493  0.1079 -0.1887  0.0640
 7771W        W11971   8.209   3.311   9.765  0.0516  0.2962  0.0441
 7772W        W11972   1.451   3.957  12.474 -0.0355 -0.6212  0.2511
 7773W        W11973   8.597  10.006  13.335  0.1036 -0.0234 -0.1904
 7774W        W11974   6.466   1.021   1.751  0.2640  0.0555  0.1105
 7775W        W11975   4.431   5.763   3.401 -0.1323 -0.0370  0.0845
 7776W        W11976   4.936   9.165  11.304  0.1134 -0.2395 -0.3420
 7777W        W11977   7.188   0.917   1.443  0.2407 -0.2520 -0.0864
 7778W        W11978   3.356   3.684   0.294 -0.1521 -0.1798 -0.3327
 7779W        W11979   2.103   4.314   9.859  0.2390  0.0324 -0.2127
 7780W        W11980  10.417   9.696  11.190 -0.3066 -0.0537  0.1584
 7781W        W11981   4.840   5.441   3.685  0.3855  0.0133  0.2299
 7782W        W11982   2.146   2.259   1.759  0.2128 -0.1365 -0.2156
 7783W        W11983   2.072   2.393  11.008 -0.0589  0.2584 -0.3409
 7784W        W11984   3.692   3.838   2.485  0.0589 -0.1446 -0.3379
 7785W        W11985   1.812   7.043   2.768 -0.2151 -0.4040  0.2812
 7786W        W11986   7.728   8.589   0.995  0.0738 -0.1587 -0.0377
 7787W        W11987   7.968   2.962   2.064 -0.0658  0.1664  0.1198
 7788W        W11988   0.316   6.772  10.496 -0.0790 -0.1659 -0.1487
 7789W        W11989   3.105   0.858   9.259  0.0596 -0.0643  0.3300
 7790W        W11990   1.327   2.901   1.903 -0.0889 -0.5074  0.1012
 7791W        W11991  10.268   2.688  12.938  0.0463  0.2265  0.1534
 7792W        W11992   8.620   4.037  13.332  0.0103 -0.1467 -0.1645
 7793W        W11993   1.964   9.730   2.114  0.2777 -0.1799  0.3102
 7794W        W11994   9.606   1.511   0.169  0.0187 -0.5055 -0.2102
 7795W        W11995   5.005   9.042  12.190 -0.2918 -0.1528 -0.1450
 7796W        W11996   0.925   3.401   9.530  0.2328  0.0096 -0.2332
 7797W        W11997   6.625   4.637  11.151  0.1182  0.2766 -0.1380
 7798W        W11998   1.625   5.468  10.105 -0.0340  0.0798  0.0554
 7799W        W11999  10.247   4.199  10.756 -0.0482 -0.1701  0.0896
 7800W        W12000   6.029   8.331   4.051  0.1363  0.1588 -0.0341
 7801W        W12001  10.012   3.535   1.588 -0.2190  0.0650  0.3390
 7802W        W12002   9.722   3.576   2.009  0.3412 -0.2326 -0.0229
 7803W        W12003   0.405   9.172   1.324  0.0718  0.1630  0.0243
 7804W        W12004   3.272   3.540   0.898  0.3037  0.1121 -0.1962
 7805W        W12005   2.546   8.767  10.835 -0.0695 -0.0212 -0.0730
 7806W        W12006   7.910   2.821   1.538 -0.2775 -0.1492  0.1385
 7807W        W12007   4.131   1.821   2.465 -0.1342  0.4024  0.1361
 7808W        W12008   4.278   7.706   4.758 -0.3014  0.1014 -0.1983
 7809W        W12009  10.364   4.957   0.538 -0.2313 -0.0924  0.2699
 7810W        W12010   1.401  10.267  10.298  0.0065 -0.1734  0.1522
 7811W        W12011   5.187   3.352   1.015 -0.0522  0.0890 -0.0398
 7812W        W12012   3.496   9.222  12.851 -0.2484 -0.1019 -0.1916
 7813W        W12013   9.880   6.921   2.180 -0.2573 -0.3449  0.2981
 7814W        W12014   6.246   3.030   2.702 -0.1517  0.2824 -0.2916
 7815W        W12015   5.813   2.378   0.713  0.1059  0.0211  0.1873
 7816W        W12016   0.751   7.145  10.486 -0.0693 -0.0276  0.3373
 7817W        W12017   2.734   1.305   9.159  0.2044 -0.0995 -0.2155
 7818W        W12018  10.406   7.965  11.270  0.0998  0.3458 -0.0800
 7819W        W12019   7.186   9.605   0.613  0.3974  0.3404  0.1038
 7820W        W12020   1.702   4.990   4.012 -0.0780 -0.0136 -0.1227
 7821W        W12021   9.713   5.677   9.246  0.2400  0.1897 -0.1939
 7822W        W12022   0.132   1.772   3.208  0.1326  0.0928 -0.4814
 7823W        W12023   7.301   1.236  12.415  0.2189  0.0563 -0.3390
 7824W        W12024   0.447   3.751  11.379 -0.1043  0.1615 -0.3990
 7825W        W12025   4.673   1.668  10.955 -0.3222  0.2151  0.2410
 7826W        W12026   0.876   5.583  11.641  0.0839  0.2974 -0.0222
 7827W        W12027   8.259   9.408  11.013  0.1989  0.1234 -0.1622
 7828W        W12028   7.898   2.449   1.150  0.2760 -0.1722  0.1199
 7829W        W12029   6.201   9.889  11.222 -0.4612 -0.0732  0.2951
 7830W        W12030   2.167   0.847  12.479 -0.1693  0.0633 -0.0997
 7831W        W12031   0.060   1.349   5.041  0.2582  0.0232 -0.1446
 7832W        W12032   2.931   8.927  13.416  0.1687  0.1366 -0.0199
 7833W        W12033   9.526   6.653   0.341  0.1757  0.1750 -0.4232
 7834W        W12034   9.424   2.542   1.055 -0.0280 -0.1961  0.2171
 7835W        W12035   9.240   5.689   2.608  0.1829 -0.0582  0.2160
 7836W        W12036  10.116   4.949   1.833  0.4223  0.1775 -0.0123
 7837W        W12037   5.141   5.727  12.546  0.1521 -0.0410 -0.0909
 7838W        W12038   7.926   1.121  10.337 -0.3421 -0.0550 -0.3757
 7839W        W12039   1.264   2.980  12.741  0.0501 -0.0167  0.3909
 7840W        W12040   5.838   8.954  11.855 -0.1084  0.2436 -0.1670
 7841W        W12041   1.063  10.299   2.960 -0.1942 -0.2294 -0.1182
 7842W        W12042   9.228   3.396   0.266 -0.0126  0.4369 -0.0129
 7843W        W12043   5.147   2.140  12.661  0.1266 -0.2535  0.0542
 7844W        W12044  10.459   0.803   3.665  0.2566 -0.0885 -0.1958
 7845W        W12045   7.532  10.454   1.239 -0.0147 -0.1125 -0.0050
 7846W        W12046   6.467   5.180   0.348 -0.0405 -0.2033  0.1244
 7847W        W12047   0.879   0.415   4.134 -0.1413 -0.0516 -0.2737
 7848W        W12048   4.548   8.594   9.461  0.2618 -0.0929 -0.0028
 7849W        W12049   6.433   0.671   3.570  0.2432 -0.2424  0.0663
 7850W        W12050   2.477   5.511   3.594  0.0768 -0.1706  0.1595
 7851W        W12051   0.593   7.485   2.795  0.1051  0.0521 -0.1444
 7852W        W12052   0.587   1.999  12.510  0.3940  0.2067 -0.2349
 7853W        W12053   4.081   8.862  11.875 -0.4978 -0.1926  0.0861
 7854W        W12054   0.404   6.343   9.576  0.0767  0.0600  0.0414
 7855W        W12055  10.328   9.114  11.935  0.0330 -0.0722  0.1874
 7856W        W12056   0.753   6.494  12.172 -0.0512  0.1108  0.2049
 7857W        W12057   9.223   4.196  11.917  0.2884  0.0981  0.0111
 7858W        W12058   3.230   9.161   2.146 -0.3407  0.0426  0.0338
 7859W        W12059   2.263   3.357   4.578 -0.0739  0.2814 -0.0998
 7860W        W12060   0.959   5.033  10.841 -0.1203  0.4908  0.1291
 7861W        W12061   8.129   3.088  11.618  0.1555 -0.0633 -0.0258
 7862W        W12062   7.480   3.516   0.278 -0.0036 -0.0387 -0.0020
 7863W        W12063   3.774   2.349   3.898  0.3520 -0.0779  0.1539
 7864W        W12064   5.213   7.674   9.480 -0.3506 -0.3650  0.2097
 7865W        W12065   2.163   3.211  13.259  0.0401  0.1768 -0.0724
 7866W        W12066   4.348   0.381   9.647  0.2561 -0.0884  0.1142
 7867W        W12067   3.452   1.834   9.124 -0.1641  0.1968  0.1082
 7868W        W12068   0.395   6.487   1.020  0.0924 -0.1088 -0.0276
 7869W        W12069  10.416   9.658   9.003 -0.3268  0.1956 -0.0974
 7870W        W12070   5.179   9.449   2.184  0.0774  0.1433 -0.0543
 7871W        W12071   5.677   8.053  12.423  0.0180 -0.4870  0.2517
 7872W        W12072   2.035   4.088   0.619  0.1019  0.2734 -0.2372
 7873W        W12073   1.924   4.537   5.120  0.3938  0.0001  0.2233
 7874W        W12074   9.704   8.541   2.926  0.3007 -0.1410  0.0726
 7875W        W12075  10.442   5.405   0.265  0.3653  0.0422 -0.2082
 7876W        W12076   1.210   0.408   0.348  0.1984  0.2674 -0.0260
 7877W        W12077   6.742   9.040   0.828  0.1242 -0.1640  0.2364
 7878W        W12078   8.745  10.380   9.938 -0.0058  0.2088 -0.1695
 7879W        W12079   8.294   0.924   2.927 -0.0421 -0.0119  0.1064
 7880W        W12080   1.474   9.374   0.026  0.0136 -0.1208  0.1861
 7881W        W12081   7.176   4.965  11.202 -0.1175 -0.1245 -0.2862
 7882W        W12082   4.560   2.920   1.504 -0.2099  0.2881  0.0039
 7883W        W12083   2.335   2.118  12.097 -0.0872  0.0991  0.2260
 7884W        W12084   4.414   6.525  13.096 -0.0748 -0.2348 -0.0186
 7885W        W12085   2.998   2.181  12.091 -0.1218 -0.1439 -0.2521
 7886W        W12086   2.994   6.089  10.674 -0.5514  0.1978  0.1074
 7887W        W12087   2.957   8.296  12.827 -0.0042  0.0803  0.1224
 7888W        W12088   3.536   6.313   3.409 -0.0180 -0.2659  0.1900
 7889W        W12089   0.713   3.878   0.993  0.0146 -0.4060  0.3450
 7890W        W12090   1.350   1.365   9.087  0.0433  0.1672 -0.1663
 7891W        W12091   8.129   0.285  12.228 -0.0967  0.1521  0.4027
 7892W        W12092   7.350   0.693   3.696 -0.0982  0.1071  0.0433
 7893W        W12093   8.857   9.683   3.841  0.1694 -0.1237 -0.0296
 7894W        W12094   3.137   1.535   1.186  0.1472 -0.0705  0.0570
 7895W        W12095   9.533   1.903  10.800  0.1998 -0.1966  0.0812
 7896W        W12096   8.044   6.354  12.909  0.1252  0.0549 -0.2725
 7897W        W12097   8.221   0.149  10.689 -0.1236  0.1138  0.0678
 7898W        W12098   0.830   1.951   9.956  0.0270 -0.2186 -0.0389
 7899W        W12099   9.065   3.033  13.406 -0.2304  0.4853  0.4464
 7900W        W12100  10.426   2.980   2.685 -0.1774  0.2104 -0.0121
 7901W        W12101   2.901   3.086   9.165 -0.1864 -0.3583 -0.1767
 7902W        W12102   7.764   1.651   2.508 -0.0275  0.5066  0.2721
 7903W        W12103   4.689   8.276   0.749 -0.1161 -0.0119  0.1049
 7904W        W12104   0.727   5.713  10.138  0.4059 -0.1972 -0.1547
 7905W        W12105   3.618   6.664   8.916 -0.3858  0.1608 -0.0148
 7906W        W12106   7.442   9.657  11.476  0.1208  0.2058 -0.2822
 7907W        W12107   0.133   7.803   2.257  0.4290  0.0533 -0.1128
 7908W        W12108   7.583   1.188   0.185  0.0536 -0.0013  0.0029
 7909W        W12109   9.774   8.370   9.422  0.0661 -0.0870 -0.1718
 7910W        W12110   7.155   5.795   9.887  0.2255 -0.0450  0.0202
 7911W        W12111   1.619   7.763   0.272  0.0629 -0.3692  0.1467
 7912W        W12112   7.868   5.893  12.899  0.1283  0.1915 -0.1592
 7913W        W12113   2.450   6.454   3.765  0.1390 -0.3219  0.2659
 7914W        W12114   7.094   3.276   2.671  0.0356  0.0074  0.1977
 7915W        W12115   8.125   8.283   4.498  0.3309  0.0043 -0.1776
 7916W        W12116   4.471   4.901   1.511 -0.0491 -0.0565  0.0593
 7917W        W12117   7.644   6.947   3.972 -0.0317  0.0705  0.0781
 7918W        W12118   6.465   8.157  11.000  0.1196 -0.5209 -0.0099
 7919W        W12119   0.984   5.262   9.393  0.1042 -0.0086 -0.1096
 7920W        W12120   6.420   6.578  11.241 -0.0351  0.1154 -0.2253
 7921W        W12121   9.863   0.773   2.931 -0.5296 -0.2501 -0.1930
 7922W        W12122   0.703   1.721  11.275 -0.3767 -0.0466 -0.0594
 7923W        W12123   4.320   3.564   0.789 -0.2520  0.1324  0.0040
 7924W        W12124   0.778   3.584  12.607 -0.0915  0.0368  0.0681
 7925W        W12125   0.109   7.583   3.551  0.0307 -0.1558  0.1484
 7926W        W12126   6.923   0.201  10.101  0.1530  0.2159  0.6076
 7927W        W12127   9.420   7.904  11.797 -0.0871  0.1913 -0.0000
 7928W        W12128   3.317   8.124   0.579 -0.1742 -0.1131  0.2772
 7929W        W12129   6.620   0.260   3.315 -0.2365  0.1005  0.1983
 7930W        W12130   1.178   9.226  11.940 -0.0926 -0.2982 -0.2187
 7931W        W12131   5.691  10.135   9.994  0.0082 -0.0437 -0.0937
 7932W        W12132   5.158   2.073   2.399  0.0869 -0.2679 -0.1010
 7933W        W12133   2.085   5.039  11.434  0.0110 -0.0931 -0.1153
 7934W        W12134   1.306   2.838  13.237 -0.1004 -0.0221  0.2838
 7935W        W12135   5.960   8.498  12.112 -0.0395  0.3905 -0.0481
 7936W        W12136   2.697   5.732  10.866 -0.1266  0.1619 -0.1074
 7937W        W12137   2.433   0.848   4.945  0.0144 -0.1347 -0.2234
 7938W        W12138  10.139   1.258  10.106  0.0468 -0.4547 -0.0199
 7939W        W12139   1.693   1.219   2.103  0.3062 -0.1740 -0.2676
 7940W        W12140   1.803   7.405   1.633  0.0269  0.3487 -0.0825
 7941W        W12141   5.941   1.976  11.110 -0.1442  0.1014 -0.0602
 7942W        W12142   8.930   4.982   4.729  0.1980 -0.2743 -0.3162
 7943W        W12143   7.698   6.228   0.385 -0.2315 -0.0414  0.3444
 7944W        W12144   5.304   8.792   8.964  0.1139 -0.2238 -0.0202
 7945W        W12145   2.721   3.563  10.991  0.0451 -0.1068 -0.0750
 7946W        W12146  10.109   9.055   0.091 -0.1410  0.3235  0.0666
 7947W        W12147   4.177   0.468  10.359 -0.0584 -0.0857 -0.3539
 7948W        W12148   4.842   8.695   3.800 -0.2160  0.0783 -0.0256
 7949W        W12149   1.719   3.139  12.918  0.0691  0.1096  0.0893
 7950W        W12150   1.640   6.878   9.855  0.1097  0.0137 -0.0306
 7951W        W12151   9.778   2.175   2.385 -0.0294  0.1027 -0.0081
 7952W        W12152   1.637   0.814  10.859 -0.5393  0.0729 -0.1372
 7953W        W12153   6.459   9.023   2.528 -0.2976  0.0902  0.0766
 7954W        W12154   3.797   6.820  10.815  0.0118 -0.2184 -0.1900
 7955W        W12155   3.434   4.300  10.557  0.1695 -0.2559  0.0347
 7956W        W12156   3.844   5.157   8.049 -0.0436  0.1504  0.0235
 7957W        W12157   9.814  10.461   0.061  0.1673 -0.0963  0.2728
 7958W        W12158   5.221   4.451   3.473  0.0776 -0.1721 -0.2232
 7959W        W12159   5.103  10.179   2.434  0.4395  0.0696  0.0288
 7960W        W12160   0.436   5.632   0.471 -0.1414  0.0476 -0.2593
 7961W        W12161   8.625   7.256  12.762  0.2380 -0.1524 -0.1528
 7962W        W12162   6.135   6.407   1.630 -0.0656  0.1512 -0.1301
 7963W        W12163   5.261   4.103   9.259  0.1400  0.3343  0.0335
 7964W        W12164   0.590   6.608   4.309  0.3122  0.1433 -0.2052
 7965W        W12165   8.940   8.878   8.654  0.0186 -0.0499  0.2408
 7966W        W12166   8.873   1.839  13.310  0.2502 -0.1130 -0.1125
 7967W        W12167   3.878  10.306   9.216  0.0086  0.2287  0.0677
 7968W        W12168   7.242   9.557   3.395 -0.1613  0.2119  0.0329
 7969W        W12169   2.719   9.945   0.683  0.3128 -0.1566 -0.1837
 7970W        W12170   2.568   0.944  11.381  0.0052 -0.2171 -0.1846
 7971W        W12171   1.739   4.749   1.345 -0.1347 -0.0407 -0.0243
 7972W        W12172   7.234   7.150   3.675 -0.2480 -0.4392 -0.1423
 7973W        W12173   2.910   2.492  10.607 -0.0642  0.0191 -0.2659
 7974W        W12174   4.890   5.024   3.970 -0.3064  0.2094  0.0945
 7975W        W12175   5.377   6.602  11.573  0.2712  0.2006  0.1557
 7976W        W12176   1.714   0.952   3.055  0.0706 -0.0189 -0.1550
 7977W        W12177   8.272   8.211   0.284 -0.0920 -0.0743  0.0584
 7978W        W12178   5.939   2.822   0.889  0.0087  0.0147 -0.0093
 7979W        W12179   6.189   0.763  10.648 -0.1732  0.0726  0.1032
 7980W        W12180   4.555   4.388   1.405  0.1592 -0.1781 -0.3026
 7981W        W12181   4.941   4.714   1.431  0.2670  0.1150 -0.0080
 7982W        W12182   5.753  10.141   1.265  0.1548 -0.0212  0.0832
 7983W        W12183   7.683   2.754   4.199  0.0577 -0.0398 -0.1195
 7984W        W12184   3.503   1.659   0.717 -0.1923 -0.1427  0.0552
 7985W        W12185   7.920   6.365   2.694  0.1357 -0.1564 -0.0730
 7986W        W12186   5.327   3.593   0.613 -0.3707  0.2913 -0.0725
 7987W        W12187   6.178   8.505  13.001 -0.1357  0.0654 -0.1035
 7988W        W12188   9.373   4.174   4.121  0.1073  0.0050 -0.1054
 7989W        W12189   4.945   2.912   1.119 -0.2448  0.1594 -0.1573
 7990W        W12190   5.683   5.493  10.161 -0.1016  0.1927  0.0684
 7991W        W12191   3.533   4.605   1.949  0.5381  0.0295  0.0004
 7992W        W12192   0.131   5.266  10.930  0.1216  0.0163 -0.1241
 7993W        W12193   4.542   9.914   3.324 -0.0298  0.1368  0.0508
 7994W        W12194   0.668   0.152   3.685  0.0854  0.2028  0.1704
 7995W        W12195   0.421   3.553  10.753 -0.1473  0.0196  0.1507
 7996W        W12196   1.756   7.974   2.704 -0.0981  0.1957  0.0374
 7997W        W12197   4.521   3.805   8.895  0.0572  0.0386 -0.3419
 7998W        W12198   5.821   9.702   0.128 -0.0186 -0.0872  0.0180
 7999W        W12199   4.637   0.406  12.708  0.0323 -0.3011  0.1045
 8000W        W12200   1.267   4.372   1.673  0.5106 -0.0831  0.2512
 8001W        W12201   5.420  10.353  12.888  0.2105 -0.4148  0.0249
 8002W        W12202   6.449   2.023  11.388 -0.0660  0.0229  0.1933
 8003W        W12203   5.958   6.325   9.762 -0.1598 -0.2650  0.0922
 8004W        W12204   4.850   4.964   9.508  0.1154 -0.0587 -0.0884
 8005W        W12205   7.306   8.224   5.139  0.1234  0.4516  0.0190
 8006W        W12206   6.555   8.268   4.449 -0.3187 -0.0563 -0.2331
 8007W        W12207   0.333  10.410   8.656  0.1323  0.1397 -0.0474
 8008W        W12208   2.899   1.555   2.056  0.0661  0.4424 -0.1630
 8009W        W12209   1.900   5.505   3.642 -0.0022  0.1379  0.0294
 8010W        W12210   7.379   9.678  11.969  0.3601 -0.1985  0.2699
 8011W        W12211   9.099   7.463   9.382  0.3278  0.0358  0.1362
 8012W        W12212   9.075   8.433  11.653 -0.1351 -0.1521 -0.1965
 8013W        W12213   2.357   6.233   0.214  0.4021 -0.3088  0.0376
 8014W        W12214   3.491   6.146  11.543 -0.1199 -0.0105 -0.1737
 8015W        W12215   7.080   6.093   4.335  0.1167  0.2902  0.0897
 8016W        W12216   8.050   5.923   0.255  0.0791  0.2048 -0.1732
 8017W        W12217   5.862   2.022  10.172 -0.0266  0.1223 -0.1978
 8018W        W12218   8.972   5.913   2.234  0.0032  0.0137  0.0990
 8019W        W12219   1.642   0.342  13.318 -0.0230  0.0140  0.4913
 8020W        W12220   8.166   7.933  11.827 -0.2047  0.0185  0.2066
 8021W        W12221   2.996   7.410   2.237 -0.0973 -0.2480  0.1185
 8022W        W12222   8.112   4.110  11.980  0.1458 -0.0555  0.1378
 8023W        W12223   9.786   3.337   9.946  0.2660  0.4088  0.3298
 8024W        W12224   1.321   8.421  10.278 -0.0122  0.0598 -0.3425
 8025W        W12225   5.492   7.066   9.385 -0.1403  0.0890  0.0734
 8026W        W12226   6.631   7.537  10.363 -0.1793  0.0729 -0.0119
 8027W        W12227   2.623   5.673   3.075 -0.1365 -0.0290  0.1107
 8028W        W12228   3.746   5.352   4.078  0.5101  0.0065 -0.2529
 8029W        W12229   5.471   9.935  10.678 -0.0006 -0.1267 -0.2533
 8030W        W12230   2.060   6.580   2.919  0.2401  0.0004 -0.0777
 8031W        W12231   1.206   0.528   9.023 -0.0725 -0.4109  0.3268
 8032W        W12232   2.855   1.376   4.265  0.1726  0.1817 -0.2222
 8033W        W12233   7.467   7.705   0.767 -0.0458 -0.0752 -0.1736
 8034W        W12234   8.000   1.252  11.953  0.0617 -0.1943  0.0606
 8035W        W12235   4.795   7.722  10.313 -0.1625  0.2433  0.0335
 8036W        W12236   9.443   8.882  13.330 -0.1301 -0.1098 -0.0001
 8037W        W12237   7.379   9.306   1.439  0.0773 -0.0661  0.1765
 8038W        W12238   8.013   8.721   8.493  0.0700  0.0166  0.3443
 8039W        W12239   8.537   4.947   8.957 -0.2112 -0.1791  0.0401
 8040W        W12240   3.366   7.673  10.384 -0.2912 -0.1419  0.2821
 8041W        W12241   4.476   5.476   2.875  0.0473 -0.0874 -0.1133
 8042W        W12242   5.339   5.002   0.694  0.3223  0.0136  0.0386
 8043W        W12243   0.740   8.391   1.791  0.3135 -0.0491  0.0851
 8044W        W12244   1.369   1.066   4.700  0.1787  0.2183  0.1567
 8045W        W12245   4.811   2.619  13.304 -0.2434 -0.2413 -0.2247
 8046W        W12246   6.259   3.084   0.616  0.1352  0.2691  0.1698
 8047W        W12247  10.454   3.034   9.306  0.1663  0.0488 -0.0875
 8048W        W12248   6.055   8.568   5.888 -0.2377  0.1442 -0.0706
 8049W        W12249   2.867   7.543  13.305 -0.1729  0.2109 -0.0890
 8050W        W12250   0.546   5.165  12.953  0.1596 -0.0822 -0.3274
 8051W        W12251   5.156   0.610   0.664 -0.4541 -0.0741 -0.3020
 8052W        W12252   6.040   3.174  12.827  0.1197 -0.3084 -0.3784
 8053W        W12253   2.483   6.492   9.438 -0.2382 -0.1698 -0.0979
 8054W        W12254   5.118   6.752  12.064 -0.2047  0.0078 -0.1148
 8055W        W12255   5.589   1.781  10.538 -0.1467 -0.3331 -0.0448
 8056W        W12256   9.238   3.920   3.680  0.0130  0.1014 -0.1446
 8057W        W12257   1.530  10.136   4.583 -0.0915  0.3037 -0.2112
 8058W        W12258   1.643   8.817   0.106 -0.0374  0.0693 -0.1916
 8059W        W12259   9.838  10.014   3.766 -0.1397 -0.2442 -0.1259
 8060W        W12260   7.082   5.451  11.181  0.1175 -0.0968  0.1430
 8061W        W12261   2.154   9.502  11.931  0.0526 -0.0934 -0.0412
 8062W        W12262   6.220   2.865  11.391 -0.3142  0.1954  0.4207
 8063W        W12263   2.635   4.867   4.076 -0.0918 -0.0843 -0.1100
 8064W        W12264   0.540   0.285  11.722  0.2381  0.3281  0.3245
 8065W        W12265   0.918   5.972  11.260 -0.0620  0.1781  0.2901
 8066W        W12266   3.474   7.449   1.988  0.3927  0.0331 -0.0443
 8067W        W12267   3.358   8.781  11.607 -0.1655 -0.0651  0.0237
 8068W        W12268   1.290   6.826   9.130 -0.1280  0.2011  0.3657
 8069W        W12269  10.101   6.894   8.397 -0.0387 -0.1529  0.1815
 8070W        W12270   1.411   5.267   0.502  0.3715  0.0207  0.2416
 8071W        W12271   3.248   1.336   4.969 -0.0334 -0.0285 -0.1031
 8072W        W12272   1.001   7.802   8.267  0.4545  0.2363 -0.2941
 8073W        W12273   2.258   3.021   3.813  0.0248 -0.0569 -0.3385
 8074W        W12274   2.435   1.280  12.521 -0.1344  0.2766  0.1026
 8075W        W12275   7.585   3.884  10.127 -0.1005  0.2753 -0.1451
 8076W        W12276   0.711   4.466   2.577 -0.2996  0.1056 -0.0355
 8077W        W12277   1.786   5.013   0.167 -0.0512  0.2444 -0.0288
 8078W        W12278   5.497   3.219  11.920  0.1858  0.0153 -0.0513
 8079W        W12279   3.033   9.868   2.019  0.0329 -0.1038  0.0928
 8080W        W12280   2.995   4.532   2.143  0.0335  0.0571 -0.0303
 8081W        W12281   8.961   7.398  12.457  0.0850  0.0153  0.0913
 8082W        W12282   1.664   1.397  10.040  0.1602  0.3325  0.0173
 8083W        W12283  10.059   7.425  10.500  0.1858  0.0980  0.3444
 8084W        W12284   1.580   6.561   9.401  0.1887  0.1790 -0.1384
 8085W        W12285   0.525   7.851  12.083  0.1974 -0.5326 -0.3132
 8086W        W12286   4.470   9.953   1.015 -0.1011 -0.1607 -0.1991
 8087W        W12287   6.909   9.636  10.631  0.0157 -0.0700 -0.0907
 8088W        W12288   5.263   7.985   0.618 -0.2146  0.2179 -0.1366
 8089W        W12289   1.997   0.965   0.221 -0.1798  0.0824 -0.3777
 8090W        W12290   5.752   8.314   8.240 -0.2024 -0.0901  0.2840
 8091W        W12291   1.226   5.980   9.731 -0.1235 -0.0685  0.2042
 8092W        W12292   2.474   5.118   1.435 -0.2771  0.2439  0.0337
 8093W        W12293   2.999   5.085  12.619  0.0153 -0.0950  0.0081
 8094W        W12294   9.310   7.860  12.636  0.0858  0.3530 -0.0329
 8095W        W12295   7.227   8.346  10.759  0.0978 -0.1060 -0.1243
 8096W        W12296   7.999   3.032   0.527 -0.1927 -0.2489 -0.3349
 8097W        W12297   1.534   9.207   5.006  0.2882  0.1094 -0.1747
 8098W        W12298   9.465   1.032   2.621 -0.0507  0.0597  0.0528
 8099W        W12299   3.082   4.204   9.951  0.3636  0.2909  0.1109
 8100W        W12300  10.406   7.363   1.208  0.1219 -0.2226 -0.1780
 8101W        W12301   2.234   8.035  13.214  0.2565 -0.2342  0.0209
 8102W        W12302   7.050   4.060   3.227  0.4373 -0.3455  0.3753
 8103W        W12303   1.917   8.422   9.593 -0.3087 -0.1602 -0.1398
 8104W        W12304   5.182   5.268   1.969 -0.0635  0.0226  0.3090
 8105W        W12305   1.560   3.475   4.088 -0.2741  0.3252  0.2975
 8106W        W12306   4.925   2.569   0.799  0.2988  0.0780 -0.2201
 8107W        W12307   7.904   3.470   2.110  0.0421 -0.0550 -0.2699
 8108W        W12308   2.274   2.409   1.213  0.3833  0.5516  0.1328
 8109W        W12309   0.586   4.556   3.866  0.0145 -0.0354  0.0949
 8110W        W12310  10.185   0.473   1.312  0.1423  0.1380 -0.1985
 8111W        W12311   2.911   6.911  10.867  0.1486 -0.1606 -0.0009
 8112W        W12312   4.422   2.058   3.343  0.1373  0.0974  0.0597
 8113W        W12313   5.523   3.485  10.415 -0.1103 -0.0603  0.2742
 8114W        W12314   9.071   2.729   9.471 -0.1928 -0.2177 -0.1268
 8115W        W12315   0.511  10.434   1.411  0.3506  0.2217 -0.1259
 8116W        W12316   6.095   6.205   2.452 -0.1182  0.1842  0.0703
 8117W        W12317   2.434   0.456  11.534  0.0905 -0.0067 -0.0038
 8118W        W12318   3.560   4.141   3.439 -0.0535  0.1427  0.0463
 8119W        W12319   8.267   7.393   1.672  0.1075 -0.1310  0.1047
 8120W        W12320   7.335   7.506   2.051 -0.0265 -0.1847  0.0686
 8121W        W12321  10.057   7.080   4.906 -0.2015  0.0629  0.2143
 8122W        W12322   8.910   8.863  12.830  0.2463 -0.0037  0.0459
 8123W        W12323   4.591   1.571   9.793  0.0264  0.2927  0.1110
 8124W        W12324   7.670   7.087  11.883  0.0038 -0.0441 -0.0524
 8125W        W12325   7.039   5.040   9.059  0.1590  0.1030 -0.0036
 8126W        W12326   1.625   6.925  10.506 -0.0830 -0.2340 -0.1243
 8127W        W12327   8.157   0.430   4.482 -0.0166 -0.0230  0.1399
 8128W        W12328   6.204   3.943   0.692 -0.3775 -0.0535 -0.0049
 8129W        W12329   0.962   4.130   1.366  0.1481  0.3528  0.2421
 8130W        W12330   1.112   8.589   1.265 -0.1108 -0.3501 -0.0288
 8131W        W12331   8.706   5.078   9.795 -0.2271 -0.0606  0.3553
 8132W        W12332   4.259   7.745  10.541  0.1506 -0.2343  0.0149
 8133W        W12333   8.394   0.603   2.071 -0.0742  0.2350  0.1653
 8134W        W12334   5.742   7.444  11.407 -0.1651 -0.0639 -0.2130
 8135W        W12335   3.332   2.073   8.687  0.2561 -0.1725  0.2442
 8136W        W12336   1.851   3.499  11.222  0.3658 -0.1845 -0.2571
 8137W        W12337   2.644   1.434   8.653 -0.2191  0.0445 -0.0006
 8138W        W12338   6.228   4.636  12.953 -0.0483  0.0721  0.1370
 8139W        W12339   7.877   8.980   0.619  0.0818 -0.2540 -0.1236
 8140W        W12340   1.196   5.090  11.237 -0.2294 -0.1534  0.2041
 8141W        W12341   9.597   8.705  10.741 -0.5269  0.2975  0.0667
 8142W        W12342   0.776   5.771  10.627 -0.0162  0.1156 -0.1966
 8143W        W12343   0.101   4.631   9.348 -0.0758  0.1824 -0.2680
 8144W        W12344   5.815   9.800   9.680 -0.3157 -0.0256  0.0478
 8145W        W12345   1.520   7.271  11.853  0.2959  0.0307  0.4729
 8146W        W12346   1.059   5.900   2.910 -0.0359 -0.1481  0.1421
 8147W        W12347   0.216   4.913   4.114 -0.0078 -0.1413  0.0025
 8148W        W12348   5.998   1.041   1.897  0.2496 -0.1600 -0.1764
 8149W        W12349   0.796   0.650   3.503  0.0157 -0.0816  0.0345
 8150W        W12350   1.348   7.036   3.004 -0.0751 -0.1852 -0.3618
 8151W        W12351   2.387   8.102  12.086  0.2348  0.2213 -0.2685
 8152W        W12352   0.311   3.332  10.337 -0.0620 -0.0488  0.2960
 8153W        W12353   4.844   4.402  13.388 -0.4240  0.1663 -0.0295
 8154W        W12354   2.150   2.757   4.595 -0.2720  0.2776 -0.5062
 8155W        W12355   3.464   7.089  12.667 -0.2401 -0.1740 -0.0249
 8156W        W12356   7.773   2.473   3.092 -0.1616  0.1800 -0.0142
 8157W        W12357   2.596   5.993  10.386  0.1693 -0.0307  0.0474
 8158W        W12358   5.685  10.001  13.184  0.1259 -0.2692  0.0572
 8159W        W12359   2.524   0.680   4.506 -0.0955 -0.0266  0.0119
 8160W        W12360   3.940   4.344  10.211  0.1682  0.0142 -0.4557
 8161W        W12361   1.067   8.646   8.552 -0.1172  0.1644  0.1505
 8162W        W12362   1.450   8.998   8.948  0.0549 -0.0177 -0.2470
 8163W        W12363   7.866   7.572  11.158  0.1052 -0.0922  0.0554
 8164W        W12364   9.954   3.596   2.590 -0.1876  0.2754 -0.2108
 8165W        W12365   3.512   3.670   1.990 -0.1299  0.0958 -0.0366
 8166W        W12366   5.282   4.864   0.175 -0.1310 -0.1938 -0.1943
 8167W        W12367   1.892   5.170   9.657  0.1697  0.0072 -0.2180
 8168W        W12368   8.786   8.352  12.208 -0.0580  0.0759 -0.0281
 8169W        W12369   8.763   0.301   1.421  0.2020  0.0681 -0.1758
 8170W        W12370   3.602   7.746   3.101  0.0150  0.0298  0.0325
 8171W        W12371   0.971   7.111   1.633  0.1672 -0.1582  0.0649
 8172W        W12372   1.712   9.385  12.682 -0.1047  0.1371 -0.3498
 8173W        W12373   6.639   6.415  13.118 -0.0297 -0.1565 -0.1412
 8174W        W12374   2.351   2.256   3.228 -0.1779 -0.2738  0.0021
 8175W        W12375   0.012   1.302   3.086  0.0769  0.1804 -0.1774
 8176W        W12376   4.218   4.862  10.206 -0.1152  0.0102  0.5488
 8177W        W12377   3.382   6.852  11.150 -0.1997  0.1337 -0.0313
 8178W        W12378   8.032   3.724   9.978  0.0880  0.1324  0.1231
 8179W        W12379   8.583   1.287   0.972  0.2808 -0.1487  0.3591
 8180W        W12380   5.788   2.284   2.335  0.1351 -0.0113  0.1602
 8181W        W12381   0.904   9.958  11.692 -0.0817  0.0987 -0.5159
 8182W        W12382   7.409   5.727   3.578 -0.0127 -0.2741 -0.0509
 8183W        W12383   1.429   0.143   2.657  0.1968 -0.2761 -0.0346
 8184W        W12384   2.009   4.206   0.113 -0.1987  0.0968 -0.1138
 8185W        W12385   2.733   8.251   3.899 -0.1499 -0.3876  0.3487
 8186W        W12386   8.437   2.554   0.366  0.2016 -0.0493 -0.2832
 8187W        W12387   8.858   5.713   4.061 -0.2887 -0.0704 -0.1302
 8188W        W12388   6.905   9.850  11.170  0.2945 -0.1915 -0.2143
 8189W        W12389   9.827   5.252  12.245 -0.0514  0.0236 -0.1087
 8190W        W12390   9.316   2.557  13.403  0.1088  0.1295 -0.1494
 8191W        W12391   2.782   9.564   2.389 -0.1159 -0.0060  0.1419
 8192W        W12392   1.232   4.868   2.499  0.0870  0.2817  0.0448
 8193W        W12393   1.238   4.012   0.501 -0.0738 -0.0345 -0.0469
 8194W        W12394   5.175   1.269   1.182  0.0749  0.1142  0.1075
 8195W        W12395   7.844   5.608  10.644 -0.3511 -0.2392  0.0590
 8196W        W12396   7.771   0.001  12.432 -0.0585 -0.5039  0.0139
 8197W        W12397   0.876   8.563  12.397  0.3424  0.1207 -0.1940
 8198W        W12398   9.940  10.191   4.614 -0.2997 -0.0248  0.2777
 8199W        W12399   0.238   3.050  11.389 -0.4376  0.2786 -0.0497
 8200W        W12400   7.024   9.415   4.243 -0.4039 -0.0118 -0.0901
 8201W        W12401   5.113   1.409   0.128  0.0271  0.0421  0.0121
 8202W        W12402   1.137   9.342  11.111 -0.2172  0.2076 -0.1371
 8203W        W12403   2.236   1.707   8.506  0.0006  0.1865 -0.0461
 8204W        W12404   8.840   4.329   2.853 -0.1585 -0.0896  0.2364
 8205W        W12405   7.706   1.748   0.422  0.3007 -0.1471  0.4945
 8206W        W12406   4.977   1.387  12.239 -0.1846  0.3558  0.1111
 8207W        W12407  10.308   1.457   8.482 -0.0263  0.1749 -0.2488
 8208W        W12408   3.361   8.521   1.382  0.0121 -0.1292  0.0800
 8209W        W12409   7.569   6.512   9.254  0.3848 -0.1711  0.2395
 8210W        W12410   6.359   6.112  11.507  0.2667  0.2762  0.2048
 8211W        W12411   4.230   1.459   0.344  0.0667  0.0026 -0.2193
 8212W        W12412   2.628   7.505  12.732  0.2329 -0.0821 -0.1868
 8213W        W12413   5.304   3.438  13.242  0.0257 -0.3416  0.1660
 8214W        W12414   4.139   7.636   2.132  0.0060  0.1024 -0.3002
 8215W        W12415   8.786   4.891   0.247 -0.1655  0.0824 -0.1116
 8216W        W12416   0.700   2.151  10.968 -0.1885  0.3021  0.2744
 8217W        W12417   0.819   1.016   2.097  0.0491  0.2103 -0.1412
 8218W        W12418   9.093   8.773  10.530  0.2390  0.0220 -0.1985
 8219W        W12419   0.535   2.501   0.952 -0.1085  0.0559 -0.2140
 8220W        W12420   7.397   2.623   1.447  0.0491  0.0782 -0.0350
 8221W        W12421   2.828   6.414   0.151  0.1061 -0.0380 -0.0763
 8222W        W12422   3.505   1.549   8.615  0.1187 -0.2086 -0.2702
 8223W        W12423   2.637   1.526  12.927  0.1891 -0.2254 -0.3823
 8224W        W12424   9.727   5.403  11.162 -0.1093  0.6040  0.0509
 8225W        W12425   4.492   1.150  11.001 -0.1751  0.2285  0.0545
 8226W        W12426   9.498   0.398   3.162 -0.1046 -0.1077  0.3231
 8227W        W12427   2.176   1.268   5.009 -0.0256 -0.1053  0.1658
 8228W        W12428   3.665   6.552   0.300  0.2240 -0.1732  0.2443
 8229W        W12429   6.531   3.078  12.969 -0.1943  0.1001 -0.0228
 8230W        W12430   5.525   6.614   2.921 -0.1440  0.0197 -0.1238
 8231W        W12431   6.934   4.882   1.594  0.0591  0.0731  0.1082
 8232W        W12432   1.866  10.057   3.330  0.1041  0.1428  0.1569
 8233W        W12433   9.979   8.074  13.346  0.1334  0.1823  0.0411
 8234W        W12434   4.586   4.269  10.162  0.0126 -0.0225  0.3054
 8235W        W12435   1.595   1.393   0.004  0.1010 -0.0683  0.0226
 8236W        W12436   0.636   0.878  11.026 -0.0238  0.2343 -0.0522
 8237W        W12437   1.780   8.198  10.957 -0.4481  0.2613  0.1141
 8238W        W12438   2.980   4.100   3.646  0.2021  0.1138  0.0532
 8239W        W12439   0.268   1.307   0.943 -0.2470  0.0425  0.4263
 8240W        W12440   6.504   7.978  11.511  0.0599  0.3502  0.1163
 8241W        W12441   7.397   6.539   1.750  0.1622  0.3911 -0.2655
 8242W        W12442   1.688   8.706   1.871 -0.2947 -0.0366 -0.2586
 8243W        W12443   7.183   5.898   4.921 -0.0408 -0.3425 -0.0261
 8244W        W12444   3.489   3.477   1.477  0.2350  0.2182  0.2338
 8245W        W12445   4.722   8.733  11.130  0.2663 -0.0004 -0.1210
 8246W        W12446   5.441   0.889  11.712  0.0542 -0.1366  0.3624
 8247W        W12447   7.241   1.583   0.368  0.0410  0.2412 -0.1973
 8248W        W12448   0.806   1.418   3.874 -0.4200  0.0542  0.4432
 8249W        W12449   4.765   6.271   9.430 -0.2022 -0.1676  0.1868
 8250W        W12450   0.837   3.491   3.554 -0.0829 -0.1578 -0.1447
 8251W        W12451   0.302   0.460   3.381 -0.0589  0.3740 -0.0867
 8252W        W12452   6.396   9.986   1.840  0.0172 -0.0615  0.0580
 8253W        W12453   9.597   5.431  10.499  0.0504  0.2755 -0.1891
 8254W        W12454  10.325   6.956  11.270  0.0163 -0.2948 -0.2120
 8255W        W12455   2.932   8.216   9.881 -0.3507 -0.2321  0.1611
 8256W        W12456   9.579   1.320   0.611  0.0689 -0.2566 -0.0087
 8257W        W12457   5.066   9.496  13.052 -0.4646  0.2734 -0.1535
 8258W        W12458   3.949   2.009  11.833  0.4304 -0.0238  0.0398
 8259W        W12459   8.423   8.630   3.083  0.2758 -0.0158  0.2401
 8260W        W12460   6.391   8.189   1.027  0.3167  0.0264  0.0321
 8261W        W12461   2.712   9.918   0.064  0.2114 -0.0790  0.0228
 8262W        W12462   0.819   0.189  13.315 -0.2405 -0.1664  0.0057
 8263W        W12463   5.483   9.451   9.825  0.0523 -0.2077 -0.2632
 8264W        W12464   3.871   7.068  11.855 -0.1638 -0.1236  0.1375
 8265W        W12465   0.423   0.386   2.291  0.2791  0.0738 -0.0467
 8266W        W12466   0.987   0.378   2.557 -0.0142 -0.4067  0.0964
 8267W        W12467   7.387   3.382   3.458  0.1310 -0.1702 -0.4409
 8268W        W12468   7.741   4.512  12.978  0.3218 -0.2929 -0.2116
 8269W        W12469   2.523   3.669  13.220  0.0621  0.4331 -0.0646
 8270W        W12470   0.539   9.221   3.040 -0.1475 -0.4503 -0.1338
 8271W        W12471   8.600   6.270   2.152 -0.0678 -0.2297  0.1597
 8272W        W12472   8.242   6.165   9.411  0.0997  0.2002 -0.1462
 8273W        W12473   0.397   3.526   1.290  0.1753 -0.0443 -0.0260
 8274W        W12474   7.533   7.746   1.622 -0.2741 -0.0597  0.0641
 8275W        W12475   0.566   6.885   1.259 -0.2457 -0.0737 -0.2874
 8276W        W12476   1.752   8.872  10.305  0.2487  0.0524  0.0469
 8277W        W12477   0.547   6.223   0.629  0.2294  0.1364 -0.2304
 8278W        W12478   9.410   5.983   4.222 -0.0188  0.0233 -0.0270
 8279W        W12479   9.794   9.973   2.619  0.0968  0.3004  0.0348
 8280W        W12480   5.184   0.914   0.256  0.3544 -0.3817  0.3802
 8281W        W12481   0.117   5.229  12.250 -0.2412  0.0925 -0.0288
 8282W        W12482   2.180   1.769  12.678 -0.1525 -0.1155  0.1736
 8283W        W12483   3.002   3.976  10.658 -0.0818 -0.0729 -0.3298
 8284W        W12484   2.784   8.429   1.125 -0.3715  0.1245 -0.1948
 8285W        W12485   5.302  10.074   1.547  0.0239  0.3978  0.2049
 8286W        W12486   2.012   7.782   1.947  0.2041 -0.0987  0.0543
 8287W        W12487   1.437   5.449   4.602 -0.0840  0.0072  0.1890
 8288W        W12488   2.370  10.071   0.365 -0.2039 -0.0315  0.1416
 8289W        W12489   3.540   0.505   0.656  0.2216 -0.0191  0.1713
 8290W        W12490   1.273   5.947   0.115 -0.2251  0.2898  0.0025
 8291W        W12491   4.055   5.527  13.194 -0.0506  0.2514  0.0600
 8292W        W12492   3.659   1.722  10.523  0.0784  0.2546 -0.1492
 8293W        W12493   4.110   8.281   3.456 -0.0209 -0.0995 -0.0500
 8294W        W12494   2.544   0.606  12.631  0.3811  0.1026  0.0979
 8295W        W12495   0.225   7.342   9.569 -0.3076  0.0078  0.0286
 8296W        W12496   8.939   9.179   1.135  0.2310  0.1508  0.0163
 8297W        W12497   6.235   5.425   0.741 -0.3092 -0.2699 -0.0042
 8298W        W12498   3.220   8.114  12.386  0.0228  0.2587  0.1801
 8299W        W12499   2.552   7.016   9.691  0.1524 -0.0862 -0.2527
 8300W        W12500  10.315  10.451   9.489 -0.0769 -0.1035  0.0803
 8301W        W12501   7.894   1.364  13.252 -0.1490  0.2101 -0.0515
 8302W        W12502  10.012   8.021   0.887 -0.0137 -0.2399 -0.0595
 8303W        W12503   1.303   5.593   2.023 -0.0108 -0.0904  0.1368
 8304W        W12504   2.430   4.958  12.822 -0.1679 -0.2188  0.1122
 8305W        W12505   3.379   0.294   9.169 -0.1833 -0.0008 -0.1048
 8306W        W12506   0.795   2.013   0.932  0.0423 -0.0674 -0.0650
 8307W        W12507   3.838   8.659  10.626  0.3275 -0.4476  0.0786
 8308W        W12508   2.952   7.288   1.227  0.1357  0.1777  0.2335
 8309W        W12509   5.405   8.622  12.001 -0.2667 -0.2022  0.0330
 8310W        W12510   0.578   8.949   9.161 -0.1813 -0.1373 -0.0570
 8311W        W12511   7.710   7.582   0.203 -0.1161 -0.0140 -0.3999
 8312W        W12512   7.150   4.219  13.153  0.1425  0.0394  0.1766
 8313W        W12513   4.877   0.741   2.023  0.1787  0.0243 -0.4950
 8314W        W12514   9.734   4.965   4.071  0.1573  0.0675  0.0644
 8315W        W12515   2.568   0.350   4.872 -0.1385 -0.0458 -0.1166
 8316W        W12516   5.512   6.372   8.345 -0.0245  0.0452  0.0930
 8317W        W12517  10.430   6.689   4.205 -0.1539  0.2948  0.0621
 8318W        W12518   9.643   9.042   9.917  0.1547 -0.2549  0.3629
 8319W        W12519   4.047   4.941   4.176  0.0520  0.1576 -0.0526
 8320W        W12520   9.107   1.150   1.078 -0.0209 -0.0680 -0.0961
 8321W        W12521   6.343   7.384  10.751  0.3390 -0.0391  0.0521
 8322W        W12522   5.120   3.729   9.547  0.1974  0.2780  0.0811
 8323W        W12523   7.439   3.635  13.223 -0.1195 -0.0071 -0.0846
 8324W        W12524   4.984   7.845   1.004 -0.3704 -0.1365 -0.2127
 8325W        W12525   6.665   4.110   1.941  0.0666 -0.0356  0.1523
 8326W        W12526   0.244   9.224   0.633  0.2338 -0.0680 -0.4387
 8327W        W12527   1.355   0.817   5.234  0.0974  0.0973 -0.4737
 8328W        W12528   2.933   2.104   2.073 -0.0703  0.2941 -0.0633
 8329W        W12529   0.234   1.347  10.125  0.4560 -0.5905  0.0433
 8330W        W12530   6.898   4.553  12.031 -0.2460 -0.5313 -0.0005
 8331W        W12531   2.998   0.815   1.665  0.1558  0.3759 -0.1314
 8332W        W12532  10.361   9.612  12.158 -0.4365 -0.1065  0.1444
 8333W        W12533   6.886   7.421   4.564 -0.0350 -0.2124 -0.2154
 8334W        W12534   6.518   7.415  13.386 -0.1731  0.0673  0.0569
 8335W        W12535   9.764  10.420   4.992 -0.2449 -0.0769 -0.0897
 8336W        W12536   2.492   0.967  12.985  0.1514 -0.1846  0.1695
 8337W        W12537   2.671   5.246  11.805  0.1007  0.5774  0.2694
 8338W        W12538   8.350   9.612   4.677  0.3190 -0.3327  0.0386
 8339W        W12539   7.772   0.098  11.114 -0.1565  0.0913 -0.0000
 8340W        W12540   0.893   8.842  12.858  0.2318 -0.0943 -0.1944
 8341W        W12541   2.596   3.624  12.593 -0.3460  0.4978  0.0675
 8342W        W12542   8.459   0.765   9.672  0.0504 -0.0297  0.0398
 8343W        W12543   8.288   9.264   0.900 -0.0641 -0.0515  0.1503
 8344W        W12544   1.111   4.991   3.485 -0.2012  0.1885  0.1558
 8345W        W12545   4.958   9.551   9.678 -0.1429  0.1783 -0.2957
 8346W        W12546   6.894   5.141   3.452  0.4183 -0.0150 -0.0128
 8347W        W12547   6.457   9.576  10.909 -0.1835  0.1705  0.1219
 8348W        W12548   4.158   8.080   2.592 -0.2138 -0.0071  0.3227
 8349W        W12549   5.314   2.936   2.872  0.2364  0.3946 -0.0699
 8350W        W12550   8.290   9.702   3.249 -0.1921  0.0742  0.1335
 8351W        W12551   4.161   5.628   3.834  0.3068 -0.0694 -0.0084
 8352W        W12552   5.714   2.746   3.376  0.3577 -0.1683  0.0980
 8353W        W12553   9.755   0.418   2.129  0.1536 -0.1061  0.1419
 8354W        W12554   4.290  10.113  12.696  0.2694  0.1258  0.2708
 8355W        W12555   2.528   2.966  11.846  0.2075  0.0170 -0.0790
 8356W        W12556  10.412  10.202  12.239  0.2696 -0.2365 -0.4106
 8357W        W12557  10.402   6.485   3.270 -0.3036  0.1044  0.1040
 8358W        W12558   6.903   3.290  12.731  0.1798 -0.2005 -0.1211
 8359W        W12559   1.701   7.666  12.723 -0.1418  0.0106 -0.2669
 8360W        W12560   4.839   5.019   2.786 -0.0599  0.1412 -0.0272
 8361W        W12561   2.362   9.368   0.668 -0.0259  0.1309 -0.0435
 8362W        W12562   5.141   6.842  11.021  0.0166  0.2211 -0.1557
 8363W        W12563   4.871   3.131   3.672  0.2617 -0.0329  0.1779
 8364W        W12564   7.997   8.508  12.960 -0.0373 -0.0296 -0.2492
 8365W        W12565   1.478   4.932  13.032  0.1182 -0.0939 -0.4163
 8366W        W12566   4.093   5.570   1.140  0.2170  0.0183 -0.1603
 8367W        W12567   9.990   7.628   0.488 -0.0225 -0.3369 -0.5066
 8368W        W12568   5.129   1.291  11.734  0.1172 -0.1800 -0.1660
 8369W        W12569   9.548   6.431  11.986  0.1576 -0.2860 -0.1010
 8370W        W12570   0.051   3.948  11.085 -0.1159 -0.1069  0.0971
 8371W        W12571   4.145   3.870  11.319  0.0440  0.1019 -0.2381
 8372W        W12572   8.034   3.354   3.045  0.0294 -0.2434  0.2000
 8373W        W12573   5.645   6.497   3.432 -0.0928 -0.0071  0.2292
 8374W        W12574   5.025   6.399   3.418 -0.0686 -0.2620  0.2632
 8375W        W12575   4.158  10.046   0.572 -0.1446  0.0339  0.2377
 8376W        W12576   2.029   6.168   4.732 -0.1701 -0.2669  0.0334
 8377W        W12577   4.483   2.271   0.019  0.2668  0.0091 -0.1430
 8378W        W12578   2.379  10.219   1.406  0.1630 -0.0500 -0.5519
 8379W        W12579   1.083   1.176  10.103 -0.2728  0.0495  0.3019
 8380W        W12580   9.633   4.172   4.884 -0.4656 -0.4212  0.1089
 8381W        W12581   3.073   8.590   3.799 -0.1828  0.2119 -0.0661
 8382W        W12582   3.136   5.511  11.625 -0.0063 -0.0298  0.0481
 8383W        W12583   9.911   7.816  11.566  0.0312  0.3291 -0.1291
 8384W        W12584  10.044   1.041   1.985 -0.3949 -0.0540 -0.0696
 8385W        W12585   1.995   6.761   2.366 -0.2917  0.0905  0.1961
 8386W        W12586   3.803   2.543   8.860  0.0222  0.3061 -0.1711
 8387W        W12587   4.826   4.319   1.829 -0.0511  0.2377 -0.1281
 8388W        W12588   2.452   3.390   4.127 -0.3767 -0.0407  0.0813
 8389W        W12589   1.108   9.127   4.379 -0.2745 -0.0389  0.1784
 8390W        W12590   9.756   7.297  11.218 -0.0772 -0.0417  0.0420
 8391W        W12591   7.558   7.464  12.421  0.3264 -0.2466  0.3345
 8392W        W12592   0.418   5.865   3.848  0.0053 -0.2705  0.2051
 8393W        W12593   8.387   2.768   1.847 -0.0341  0.3176  0.0649
 8394W        W12594   8.427   5.442   0.508 -0.1910 -0.2435 -0.3540
 8395W        W12595   2.447   9.233   2.844 -0.0655 -0.2487  0.2240
 8396W        W12596   5.503   2.797  12.160  0.0118 -0.2885 -0.1574
 8397W        W12597   4.095  10.293   3.382  0.1944  0.0896 -0.2157
 8398W        W12598   7.081   6.656   1.001  0.0279  0.3234 -0.0529
 8399W        W12599   3.999   6.047   0.974  0.0725 -0.3714 -0.2343
 8400W        W12600   4.580   3.495   2.740 -0.0646  0.3255  0.1323
 8401W        W12601   8.294   8.977  10.007 -0.0719 -0.2428 -0.3613
 8402W        W12602   7.450   7.975   9.068  0.2366 -0.2133  0.0161
 8403W        W12603   2.416   2.459   8.855 -0.1530 -0.2926  0.0836
 8404W        W12604   6.780   6.815  12.886  0.1030 -0.0374  0.2498
 8405W        W12605   1.170   1.636   2.441 -0.0082  0.0116  0.0733
 8406W        W12606   7.182   3.861  10.895 -0.3795  0.1087 -0.0316
 8407W        W12607   9.974   2.688   3.523 -0.3244 -0.1696  0.0270
 8408W        W12608   8.474   7.153  12.264 -0.1169  0.2768 -0.2405
 8409W        W12609   3.482   2.722  12.082  0.3945 -0.0622  0.1189
 8410W        W12610   7.969  10.264  12.035 -0.5574 -0.3888  0.1354
 8411W        W12611   2.154   3.175  12.142 -0.0292  0.0685 -0.1667
 8412W        W12612  10.052   5.305   9.398  0.0875 -0.0695  0.1618
 8413W        W12613   6.679  10.047  12.557  0.0651 -0.0307  0.1290
 8414W        W12614   0.144   2.230   2.129  0.3776  0.1337  0.0051
 8415W        W12615   0.006   8.574   1.588 -0.2209  0.1168  0.0141
 8416W        W12616   5.161   7.272  12.112  0.2332  0.2865  0.2987
 8417W        W12617   3.831   4.910   9.325 -0.3128  0.2936  0.0358
 8418W        W12618   4.797   2.368   3.517 -0.1164 -0.0537  0.3835
 8419W        W12619   9.008   6.869  11.074  0.0689 -0.3852  0.0870
 8420W        W12620   6.490   0.882   2.215 -0.0471  0.0410 -0.1865
 8421W        W12621   1.229   8.680   2.589  0.1032  0.1909  0.1887
 8422W        W12622   4.034   0.375   1.274  0.1796  0.0531 -0.0354
 8423W        W12623   9.063   3.211   0.859  0.1411  0.0486 -0.1109
 8424W        W12624   3.092   3.783   3.297  0.0495 -0.0148 -0.0592
 8425W        W12625   2.128   7.504   3.573 -0.0860 -0.0880  0.0732
 8426W        W12626   0.385   2.170   3.512 -0.0238  0.0695 -0.0043
 8427W        W12627   5.445   9.239  12.084  0.0861  0.0320  0.0776
 8428W        W12628   2.478  10.021   5.292  0.0806 -0.3374 -0.1348
 8429W        W12629   2.534   9.429   3.662 -0.1359  0.1388  0.1453
 8430W        W12630   0.644   1.287   9.785 -0.1544  0.0857 -0.1351
 8431W        W12631   2.039   9.617   1.664 -0.1193  0.0189  0.3340
 8432W        W12632   8.192   8.296   4.995  0.0769  0.1070  0.0735
 8433W        W12633   8.834   9.020   2.129  0.1467 -0.1136 -0.0890
 8434W        W12634   6.839   6.638  11.822 -0.1266 -0.0594  0.1189
 8435W        W12635   8.128   6.687  10.840  0.0504 -0.0590  0.0322
 8436W        W12636  10.393   2.846   1.803  0.4613 -0.4299 -0.2402
 8437W        W12637   1.010   4.624   4.724 -0.0211 -0.0699  0.2915
 8438W        W12638   9.444   5.541  12.192 -0.0996  0.1218 -0.1222
 8439W        W12639   9.855   3.894   1.186 -0.3825 -0.0815  0.1316
 8440W        W12640   2.135   7.978   2.381 -0.0419 -0.0147 -0.1341
 8441W        W12641   1.796   2.645   3.253  0.1283 -0.0248 -0.0456
 8442W        W12642   1.366   8.684   4.278 -0.1854  0.1186  0.1573
 8443W        W12643   1.498   3.321   2.182 -0.0850  0.0120  0.2390
 8444W        W12644   8.698   4.880   2.416  0.2395 -0.2019  0.1145
 8445W        W12645   6.827   4.242   9.683 -0.0784 -0.2102  0.2570
 8446W        W12646   9.034   7.158   2.057 -0.1071 -0.1947  0.2392
 8447W        W12647   7.480   7.097  10.049 -0.0998 -0.1375 -0.1070
 8448W        W12648   9.328   6.871  12.376 -0.1385  0.0283 -0.2512
 8449W        W12649   0.118   0.542   2.659 -0.1268 -0.1005  0.4087
 8450W        W12650   0.932   7.022   2.544 -0.0371  0.1605 -0.0733
 8451W        W12651   1.950   9.375   2.933  0.1685  0.0304 -0.0393
 8452W        W12652   7.558   0.876   1.808  0.0421  0.0568 -0.0325
 8453W        W12653   3.380   5.290   1.732 -0.1801  0.2902  0.0893
 8454W        W12654   2.434   9.359   8.806  0.5819  0.0702  0.0806
 8455W        W12655   9.468  10.003  10.612 -0.2883 -0.1692 -0.2086
 8456W        W12656   5.060   3.169   1.531 -0.1248  0.0116  0.0406
 8457W        W12657   3.672   8.500   0.462  0.1404 -0.2335 -0.1327
 8458W        W12658   7.182   2.317   0.653 -0.0929 -0.1182  0.2957
 8459W        W12659   2.069   1.682   1.246  0.0471 -0.0372 -0.1092
 8460W        W12660   1.561   1.265   4.153  0.0745  0.1354  0.1044
 8461W        W12661   1.873   6.662   4.547 -0.1187 -0.1148 -0.3016
 8462W        W12662   1.463   0.702  11.371 -0.2585  0.2937 -0.1669
 8463W        W12663   5.374   3.072   0.173 -0.1160 -0.0129 -0.1804
 8464W        W12664   3.085   5.101   0.065  0.0822  0.0367  0.4090
 8465W        W12665   1.528   3.191  11.519  0.1125 -0.0194  0.3007
 8466W        W12666   4.386   7.854  12.697 -0.0094 -0.0299 -0.2352
 8467W        W12667   8.596   2.817  12.373 -0.0179  0.0978 -0.1558
 8468W        W12668   9.331   4.784   1.418 -0.3139 -0.2785 -0.0144
 8469W        W12669   0.295   1.195  13.318 -0.0313  0.0371  0.0411
 8470W        W12670   3.102   4.188  11.544  0.0626  0.0924 -0.0084
 8471W        W12671   8.205   0.246   9.489 -0.1981  0.2282 -0.1630
 8472W        W12672   5.546   9.320   3.243  0.0431 -0.0299 -0.1920
 8473W        W12673  10.084   4.449  13.401 -0.1331 -0.0827 -0.4444
 8474W        W12674   7.390   6.529   0.048 -0.1633 -0.1468 -0.0875
 8475W        W12675   8.948   3.406  10.735  0.2081  0.1395 -0.1363
 8476W        W12676   9.391   9.473  10.804  0.0200 -0.1958 -0.3110
 8477W        W12677   6.214   5.534   3.572  0.1955  0.0584  0.0336
 8478W        W12678   8.755   5.225   3.758  0.1414 -0.2816  0.0819
 8479W        W12679   6.726   8.337  10.481 -0.1694  0.0094  0.0435
 8480W        W12680   0.754   8.287  10.113 -0.1753  0.1054  0.2026
 8481W        W12681   4.237   6.731   2.236 -0.0325 -0.1047 -0.1726
 8482W        W12682   7.909   1.845  13.444  0.0426  0.4381 -0.2465
 8483W        W12683   5.740   9.849   3.210 -0.1234  0.0757 -0.2711
 8484W        W12684   3.321   2.263   3.694  0.0502  0.0601 -0.1172
 8485W        W12685   4.358   3.107   9.593  0.1856 -0.2001  0.0523
 8486W        W12686   3.333   3.700   3.757 -0.2741 -0.0743  0.0485
 8487W        W12687   6.253   9.106  11.624  0.2572  0.1293 -0.0112
 8488W        W12688   8.823   6.033   1.129 -0.0031 -0.2519 -0.0243
 8489W        W12689   0.145   6.587   1.441 -0.0468  0.1162 -0.1447
 8490W        W12690   4.506   2.841   3.981  0.0930  0.1549  0.0889
 8491W        W12691   0.662   4.640   8.905  0.0231 -0.2252 -0.0623
 8492W        W12692   2.714  10.180   2.225  0.0047  0.2090  0.1573
 8493W        W12693   1.993   0.315   8.320  0.2381 -0.1651  0.2386
 8494W        W12694   4.756   2.685  12.168  0.1853 -0.1486 -0.1230
 8495W        W12695   6.955   2.134  12.578 -0.1118  0.0699  0.0533
 8496W        W12696   0.711   4.917   1.703 -0.0592 -0.2101 -0.1059
 8497W        W12697   0.902   6.914   8.846 -0.4294  0.0539 -0.0023
 8498W        W12698   8.678   6.026  13.069 -0.0207  0.1099  0.1843
 8499W        W12699   9.373   3.856   3.141 -0.2432 -0.1365 -0.4048
 8500W        W12700   2.191   4.769  10.121  0.0556  0.1735 -0.1154
 8501W        W12701   6.194   2.993  10.925 -0.1452 -0.3375  0.1246
 8502W        W12702   5.129   0.519   4.086  0.0144 -0.2420  0.0312
 8503W        W12703   2.200   4.755   3.035  0.1260 -0.0168  0.2151
 8504W        W12704   5.196   2.910  13.195  0.3524 -0.3896  0.0721
 8505W        W12705   8.540   7.402   2.409 -0.0723  0.1311  0.2422
 8506W        W12706   1.103   7.835   0.425 -0.0726 -0.2582 -0.2899
 8507W        W12707   2.064   2.647  12.774 -0.1150 -0.2505  0.0915
 8508W        W12708   2.312   1.188   3.756 -0.1160 -0.0439  0.5008
 8509W        W12709   8.978   2.279   9.676  0.0946  0.0470 -0.3839
 8510W        W12710   0.329   0.691  13.139 -0.1371 -0.2057  0.1697
 8511W        W12711   7.188   0.514   1.768  0.0932  0.0878 -0.0217
 8512W        W12712   5.525   0.159   4.279 -0.3468  0.2108 -0.1248
 8513W        W12713   9.462   8.111   2.372  0.0612  0.0621 -0.1253
 8514W        W12714  10.159   6.072   9.390  0.1263 -0.1022  0.0048
 8515W        W12715   2.797   9.005   3.114  0.0543  0.0828 -0.3575
 8516W        W12716   4.002   6.849  13.371 -0.0730  0.3606  0.2032
 8517W        W12717   0.611   1.601   3.446 -0.2143 -0.0132  0.2378
 8518W        W12718   9.642   9.968   0.285  0.0318  0.2035  0.1021
 8519W        W12719   4.708   1.213   0.311  0.1793  0.0006 -0.1199
 8520W        W12720   8.750   8.250   1.930  0.2450 -0.2528  0.0751
 8521W        W12721   9.847   6.643   1.329 -0.1407 -0.0405 -0.0278
 8522W        W12722   2.448   9.965  12.718 -0.2089  0.4502 -0.2008
 8523W        W12723   4.782   6.890   3.319  0.1334  0.2894  0.0395
 8524W        W12724   0.997   6.645  11.189  0.0013  0.1592  0.2578
 8525W        W12725   6.215   1.904   0.751  0.1597 -0.2821  0.1122
 8526W        W12726   4.163   7.573   1.601  0.0240 -0.0097  0.0795
 8527W        W12727   9.857   7.570   1.500 -0.0203 -0.1990 -0.0989
 8528W        W12728   4.282   4.295   0.040 -0.2321 -0.1038  0.1450
 8529W        W12729   5.288   1.640   3.600 -0.1832  0.1867 -0.1928
 8530W        W12730   3.597   9.657   1.322  0.0244  0.2138  0.0499
 8531W        W12731  10.063   0.160  10.392 -0.0748  0.0547  0.0211
 8532W        W12732   2.356   9.406   2.078 -0.1801  0.0962  0.2415
 8533W        W12733   6.487   1.788  12.662 -0.1734 -0.3093 -0.1896
 8534W        W12734   0.728   2.009   0.156 -0.1319 -0.0302  0.1945
 8535ION    NA+12735   5.856   0.316  11.018 -0.3280  0.0819  0.2193
 8536ION    NA+12736   3.474   9.116   4.963  0.3665 -0.0881 -0.1100
 8537ION    NA+12737   7.273   7.811   5.505  0.1759 -0.2091  0.1446
 8538ION    NA+12738   6.139   8.355   1.842 -0.1776 -0.1427  0.1476
 8539ION    NA+12739   1.227   4.991   1.121  0.0560 -0.1310  0.3165
 8540ION    NA+12740   4.412   2.339  10.195  0.1820 -0.0012 -0.1414
 8541ION    NA+12741   2.720   4.535  12.683  0.2318  0.1333  0.2049
 8542ION    NA+12742   1.237   7.280  12.272  0.1007 -0.1201  0.0173
 8543ION    NA+12743   2.334   7.646   4.020  0.2544 -0.1578 -0.2350
 8544ION    NA+12744   0.667   1.617   0.569  0.4053 -0.1161 -0.2848
 8545ION    NA+12745   8.868   6.239   9.974  0.0467 -0.1828  0.1372
 8546ION    NA+12746   8.745   9.510   3.165  0.1703 -0.0736 -0.1862
 8547ION    NA+12747   8.729   0.013   3.440  0.2421 -0.0958 -0.3319
 8548ION    NA+12748   4.091   9.209   1.910 -0.0879 -0.1862 -0.1605
 8549ION    NA+12749   0.075   2.280   0.244  0.1842 -0.1798  0.2021
 8550ION    NA+12750   1.571   3.761   8.770  0.1692  0.2447 -0.1847
 8551ION    NA+12751   1.036   2.960  12.221 -0.0094  0.0039 -0.0515
 8552ION    NA+12752   7.033   1.453   3.528  0.1420 -0.1457  0.2345
 8553ION    NA+12753   7.192   2.012   9.739 -0.1833 -0.0964  0.2062
 8554ION    NA+12754   6.719   9.409   0.530 -0.1729 -0.1079 -0.2285
 8555ION    NA+12755   2.611   8.093  11.622 -0.2635  0.1494 -0.1209
 8556ION    NA+12756   5.787   1.996  11.962  0.3950 -0.0211 -0.4070
 8557ION    NA+12757   3.239   1.232   1.675  0.0536  0.0107 -0.0346
 8558ION    NA+12758   2.190   6.780  11.454  0.0078  0.0960 -0.0975
 8559ION    NA+12759   1.254   2.210   0.228 -0.2141 -0.0909  0.1848
 8560ION    NA+12760   3.300   1.883  10.930 -0.2037  0.5105 -0.4074
 8561ION    NA+12761   4.247   3.786  13.390  0.2039  0.1154 -0.0709
 8562ION    NA+12762   2.143   7.451  12.998  0.0451  0.0471 -0.0572
 8563ION    NA+12763   2.457   5.749   9.913 -0.0287  0.0234  0.0996
 8564ION    NA+12764   5.563   6.671   5.159 -0.0307 -0.1287  0.0607
 8565ION    NA+12765   3.204   3.924   4.912  0.0182  0.0466 -0.3024
 8566ION    NA+12766   9.163   7.533  10.255 -0.0605  0.1218 -0.1684
 8567ION    NA+12767  10.056   9.892   9.854 -0.1873 -0.0565 -0.1395
 8568ION    NA+12768   1.178   2.997  10.162 -0.2290 -0.0051  0.0305
 8569ION    NA+12769   6.201   5.913   3.060 -0.0636 -0.3672  0.0241
 8570ION    NA+12770   0.184   4.277  12.549 -0.3255 -0.0088 -0.0477
 8571ION    NA+12771   1.920   5.670  12.768  0.3626 -0.0387 -0.0226
 8572ION    NA+12772   2.587   2.955   8.757  0.2688  0.0846  0.0797
 8573ION    NA+12773  10.047   9.775  12.539  0.0161  0.0591 -0.0254
 8574ION    NA+12774   3.168   6.802   8.807  0.1907  0.0077 -0.0731
 8575ION    NA+12775   2.503   0.136   5.279 -0.0398  0.0171  0.0045
 8576ION    NA+12776   8.089   4.795   8.736 -0.1780  0.2766 -0.1524
 8577ION    NA+12777  10.329   5.844   1.736 -0.1071 -0.0328 -0.0194
 8578ION    NA+12778   5.256   0.484  10.016  0.1620 -0.1355 -0.1181
 8579ION    NA+12779   1.565   7.633   4.889  0.2551  0.2032  0.1476
 8580ION    NA+12780   3.739   7.091   5.085 -0.4701  0.1419  0.0587
 8581ION    NA+12781   6.763   0.505  11.582  0.2013  0.2063 -0.2127
 8582ION    NA+12782   3.179   1.477   9.938  0.0958 -0.0250  0.3627
 8583ION    NA+12783   1.411   2.732  11.645 -0.2642  0.1833 -0.1408
 8584ION    NA+12784   0.591   3.119  13.391  0.1219 -0.0171 -0.1133
 8585ION    NA+12785   2.430   5.873  11.277  0.0096 -0.0659 -0.0524
 8586ION    NA+12786   0.473   0.725   8.439  0.2345 -0.2822 -0.0505
 8587ION    NA+12787   3.764   7.844   1.872 -0.0377  0.0115 -0.1034
 8588ION    NA+12788   2.970   0.933   3.396  0.1104 -0.3037 -0.1842
 8589ION    NA+12789   7.866   2.999   9.903 -0.1059  0.0831  0.2479
 8590ION    NA+12790   7.216   4.404   4.028  0.2739 -0.3083  0.1713
 8591ION    NA+12791   8.978   3.982  10.816 -0.0819 -0.0681  0.2779
 8592ION    NA+12792   6.858   1.309   2.265  0.1137  0.0671 -0.1642
 8593ION    NA+12793   1.143   1.862   1.988  0.1207  0.4158  0.1903
 8594ION    NA+12794   9.302   2.825   0.621 -0.2984 -0.2391 -0.0684
 8595ION    NA+12795   5.157   6.953   0.478  0.1693 -0.2447 -0.0387
 8596ION    NA+12796   6.089   9.776   5.040  0.2344 -0.0096  0.0015
 8597ION    NA+12797   5.226   7.380  12.628  0.0529  0.4134 -0.1137
 8598ION    NA+12798   1.744   9.179   2.492  0.1801 -0.0782 -0.0106
 8599ION    NA+12799   0.113   2.764   0.747 -0.3819 -0.0848  0.2049
 8600ION    NA+12800   8.170   9.252   5.033  0.1290  0.1459 -0.1820
 8601ION    NA+12801   8.255   3.533  11.190  0.0980 -0.0998  0.3797
 8602ION    NA+12802   7.966   9.557   1.731 -0.0290 -0.0065 -0.4574
 8603ION    NA+12803   7.152   2.010   3.620 -0.0208 -0.2451  0.0195
 8604ION    NA+12804   5.014   0.072   4.044  0.2086 -0.0935 -0.1314
 8605ION    NA+12805   3.334   1.414   4.491 -0.2536  0.0768 -0.1278
 8606ION    NA+12806   5.656   4.426  10.094 -0.0000 -0.1461 -0.0107
 8607ION    NA+12807   9.209   5.648  10.210 -0.2400  0.1950 -0.2281
 8608ION    NA+12808   0.452   2.631   2.601  0.0272 -0.1518 -0.0403
 8609ION    NA+12809   7.206   5.216  11.975  0.0945 -0.0763  0.2815
 8610ION    NA+12810   2.038   1.268  12.797  0.1130  0.0141 -0.1799
 8611ION    NA+12811   9.857   8.629   3.409 -0.0436  0.0475 -0.1798
 8612ION    NA+12812   0.581   9.602   1.591  0.0913  0.0435  0.0044
 8613ION    NA+12813   0.789   4.303  13.098  0.2004  0.2396 -0.0424
 8614ION    NA+12814   1.680   2.152   2.894 -0.2611  0.0549  0.0404
 8615ION    NA+12815   4.916   4.247   8.935 -0.2493 -0.2252  0.0697
 8616ION    NA+12816   2.006   9.307  10.245 -0.0292 -0.3179 -0.1721
 8617ION    NA+12817   2.995   5.463   2.715 -0.1913 -0.0018 -0.0887
 8618ION    NA+12818   2.366   2.020   4.706  0.0520 -0.1921  0.0232
 8619ION    NA+12819   3.977   7.546   8.574 -0.2637  0.1618  0.1719
 8620ION    NA+12820   9.923   7.906   9.549  0.0636  0.1103  0.1654
 8621ION    NA+12821   2.226   7.539  12.289  0.0816 -0.1962  0.2524
 8622ION    NA+12822   3.926   1.946   3.417  0.3153 -0.0530 -0.2762
 8623ION    NA+12823   1.690   0.976   3.576  0.2306 -0.0850 -0.2432
 8624ION    NA+12824   8.467   7.963   4.444 -0.4111 -0.1714  0.0499
 8625ION    CL-12825  10.027  10.108  12.935  0.0209 -0.0093 -0.0276
 8626ION    CL-12826   1.785   2.919  12.497  0.1846 -0.2548 -0.1583
 8627ION    CL-12827  10.188   2.261  12.217 -0.2403 -0.0709 -0.1020
 8628ION    CL-12828   2.329   5.397   9.534  0.1446 -0.0241 -0.1498
 8629ION    CL-12829   8.463   3.808  10.793  0.0677  0.2074  0.0624
 8630ION    CL-12830   8.100   9.137   1.991 -0.1066 -0.2150 -0.1468
 8631ION    CL-12831   4.920   6.807   0.873  0.1585 -0.0677 -0.1031
 8632ION    CL-12832   2.671   5.012   2.881  0.1450  0.2845 -0.1214
 8633ION    CL-12833   7.437   4.944   3.607  0.0257 -0.3003  0.3374
 8634ION    CL-12834  10.100   7.413   9.608  0.0495  0.1903  0.1032
 8635ION    CL-12835   3.698   6.631   2.105  0.3178 -0.4732 -0.2392
 8636ION    CL-12836   7.676   5.051  11.881 -0.1557 -0.0720  0.1675
 8637ION    CL-12837   2.632   6.258  11.546  0.1123 -0.0503  0.2598
 8638ION    CL-12838   7.766   6.815  13.274 -0.1590 -0.0546 -0.1342
 8639ION    CL-12839   8.969   9.330   2.507  0.0176 -0.0862  0.1416
 8640ION    CL-12840   7.975   0.981   3.290 -0.0181 -0.1051  0.0779
 8641ION    CL-12841   3.132   3.417   4.158 -0.1045  0.0758  0.1262
 8642ION    CL-12842   3.878   7.150   2.067 -0.0852  0.0970  0.2058
 8643ION    CL-12843   5.993   8.788   1.701 -0.1749 -0.1326 -0.0536
 8644ION    CL-12844   5.484   0.074  10.273  0.0241  0.0204  0.2779
 8645ION    CL-12845   8.604   7.571  10.058  0.0296 -0.0003  0.0642
 8646ION    CL-12846  10.433   3.959  12.220  0.2311 -0.1720  0.1242
 8647ION    CL-12847   1.152   7.763   3.426 -0.0142  0.0963  0.2609
 8648ION    CL-12848   4.333   0.605   3.926 -0.2348  0.1289 -0.0504
 8649ION    CL-12849   0.876   5.478  11.052  0.0420  0.3352  0.0659
 8650ION    CL-12850   1.616   9.394  10.577  0.0215  0.3617  0.1243
 8651ION    CL-12851   3.796   0.039  13.084  0.1050 -0.0381  0.1955
 8652ION    CL-12852   8.861   9.665   0.233 -0.4043 -0.0662 -0.2869
 8653ION    CL-12853   3.277   7.174   9.176 -0.2823 -0.1957 -0.0554
 8654ION    CL-12854   5.770   0.178   1.504 -0.1398 -0.0312  0.1277
 8655ION    CL-12855   5.267   0.979   9.999 -0.3880  0.1160  0.0341
 8656ION    CL-12856  10.284   3.881   3.861  0.0508  0.1293 -0.1299
 8657ION    CL-12857  10.343   2.858  11.082 -0.4541 -0.2815  0.0452
 8658ION    CL-12858   8.322   9.233   4.051  0.0095 -0.0547 -0.0313
 8659ION    CL-12859   2.921   8.056  11.994  0.0682  0.2576  0.2244
 8660ION    CL-12860   1.071   9.870   1.009 -0.0951  0.0696 -0.0546
 8661ION    CL-12861   0.526   5.329   0.833 -0.2702  0.0617  0.0819
 8662ION    CL-12862   6.054   1.823  11.568  0.1091  0.0965 -0.0414
 8663ION    CL-12863   1.475   0.543   4.812  0.2452 -0.0885  0.3647
 8664ION    CL-12864   5.750   7.509  12.442 -0.0956  0.2075  0.3494
 8665ION    CL-12865   1.485   6.843  12.428 -0.0642 -0.4740  0.1840
 8666ION    CL-12866   8.107   1.357   2.684  0.3201  0.0350  0.0046
 8667ION    CL-12867   9.849   1.995   1.547  0.0970  0.0092 -0.2573
 8668ION    CL-12868   2.093   8.932   2.207  0.0911 -0.0340  0.0384
 8669ION    CL-12869   8.100   3.805  11.561 -0.0142  0.1570 -0.1436
 8670ION    CL-12870   7.650   9.426  10.110 -0.1651  0.2502  0.0398
 8671ION    CL-12871   2.588   1.247   3.314  0.2178 -0.2628 -0.0422
 8672ION    CL-12872   8.520   3.221   3.913  0.3024 -0.2378  0.1508
 8673ION    CL-12873   1.370   2.161   2.442  0.1552  0.1546  0.1319
 8674ION    CL-12874   0.049   2.280   0.824 -0.0407 -0.2324  0.2435
 8675ION    CL-12875   1.924   0.966   3.982 -0.1318  0.2034  0.1040
 8676ION    CL-12876   6.740   3.095   2.940 -0.0984 -0.0337  0.0040
 8677ION    CL-12877   4.301   0.318   2.747  0.1004 -0.2663 -0.3463
 8678ION    CL-12878   6.483   9.628   0.075 -0.6647 -0.0443 -0.1449
 8679ION    CL-12879   8.859   5.756   9.807 -0.1057 -0.3854 -0.2633
 8680ION    CL-12880   9.636   5.935  13.363 -0.0597 -0.1671 -0.1589
 8681ION    CL-12881   4.052   6.455   8.787 -0.0836  0.1774  0.1352
 8682ION    CL-12882   0.483   2.413  13.399 -0.1728  0.1815 -0.1165
 8683ION    CL-12883   8.609   6.650   4.303  0.2147 -0.0756 -0.0521
 8684ION    CL-12884   1.410   3.182   9.562 -0.1774 -0.1121 -0.1244
 8685ION    CL-12885   3.041   4.377   4.100  0.0851 -0.0687 -0.0080
 8686ION    CL-12886   0.072   1.265   4.512  0.0573 -0.2139 -0.2203
 8687ION    CL-12887   8.531  10.227   2.092  0.1442 -0.0575  0.2506
 8688ION    CL-12888   2.662   8.486  11.267  0.0684 -0.2004  0.1165
 8689ION    CL-12889   8.637   9.914   3.485  0.0122 -0.3868 -0.1469
 8690ION    CL-12890   1.034   2.550  11.920 -0.0829 -0.0412  0.0203
 8691ION    CL-12891   1.165   1.573   0.292  0.0577  0.0660 -0.1749
 8692ION    CL-12892   1.908   5.730   9.745  0.0698  0.1892 -0.1938
 8693ION    CL-12893   2.836   4.088   4.563 -0.3343 -0.1426  0.0023
 8694ION    CL-12894   3.744   1.472   3.381 -0.1409  0.0404 -0.2734
 8695ION    CL-12895   0.271  10.180   9.787  0.3224 -0.1700  0.1054
 8696ION    CL-12896   3.946   4.643   9.777 -0.1049  0.1184  0.3745
 8697ION    CL-12897   8.667   3.221   1.187 -0.0073 -0.1189  0.2945
 8698ION    CL-12898   8.939   2.668  13.058 -0.2304  0.0937 -0.2404
 8699ION    CL-12899   4.264   7.263   9.332  0.0000 -0.0966  0.3460
 8700ION    CL-12900   0.610   4.046  12.661  0.0883  0.0216 -0.1488
 8701ION    CL-12901   9.585   9.757   9.807  0.0845 -0.0898 -0.0775
 8702ION    CL-12902   4.392   9.576   1.416  0.1305  0.2716  0.0087
 8703ION    CL-12903   0.331   1.814   9.983 -0.0818 -0.1502 -0.1230
 8704ION    CL-12904   5.073   1.816  11.731 -0.0152 -0.1318 -0.1043
 8705ION    CL-12905   1.001   2.473   0.639  0.2547  0.0125 -0.1871
 8706ION    CL-12906   9.208   6.020  11.256 -0.1410 -0.0655 -0.0703
 8707ION    CL-12907   6.016   5.403   3.008 -0.1028  0.0294  0.3865
 8708ION    CL-12908   5.162  10.084   3.827 -0.3340 -0.1537  0.0725
 8709ION    CL-12909   9.958   6.831  12.115 -0.0464  0.1130  0.1275
 8710ION    CL-12910   7.618   3.729   3.033  0.0942  0.2125 -0.2392
 8711ION    CL-12911   7.226   0.550  11.552  0.2214 -0.0187 -0.1697
 8712ION    CL-12912   5.639   4.915  10.008  0.3575 -0.0769 -0.1676
 8713ION    CL-12913   8.038   7.928   4.184  0.0039  0.0678 -0.0547
 8714ION    CL-12914   3.095   9.061   9.347 -0.0996 -0.1088 -0.1706
  10.47574  10.47574  13.45748
