Protein in INSANE! Membrane UpperLeaflet>POPC=1.0 LowerLeaflet>POPC=1.0
12914
    1AU     AUC    1   8.684   0.493   6.773  0.0279  0.0401 -0.0043
    1AU     AUC    2   8.699   0.577   7.118  0.0073 -0.0354  0.0403
    1AU     AUC    3   8.696   0.242   6.953 -0.0554 -0.0637  0.0054
    1AU     AUC    4   8.674   0.737   6.558 -0.0438 -0.0937 -0.0627
    1AU     AUC    5   8.617   0.407   6.447 -0.0778  0.0057  0.0695
    1AU     AUC    6   8.395   0.592   6.617 -0.0616 -0.0580  0.0121
    1AU     AUC    7   8.421   0.461   6.936 -0.0001 -0.0423 -0.0002
    1AU     AUC    8   8.944   0.529   6.590  0.0013  0.0437 -0.0268
    1AU     AUC    9   8.984   0.418   6.945 -0.0112 -0.0711  0.0079
    1AU     AUC   10   8.836   0.226   6.656  0.0637  0.0029  0.0226
    1AU     AUC   11   8.489   0.264   6.671 -0.0117  0.0058  0.0262
    1AU     AUC   12   8.844   0.758   6.858  0.0085  0.0371 -0.0146
    1AU     AUC   13   8.531   0.778   6.903 -0.0101  0.0302 -0.0199
    1AU     AUC   14   8.701   0.616   7.462  0.0040 -0.0439 -0.0381
    1AU     AUC   15   8.733   0.292   7.350  0.1185 -0.0346  0.0143
    1AU     AUC   16   8.719  -0.041   7.158  0.0555  0.0391  0.0307
    1AU     AUC   17   8.698   0.992   6.339  0.0399  0.0205  0.0748
    1AU     AUC   18   8.621   0.672   6.174 -0.0603 -0.0268 -0.0436
    1AU     AUC   19   8.562   0.343   6.118  0.0737  0.0062  0.0538
    1AU     AUC   20   8.089   0.682   6.485  0.0186 -0.0103  0.0614
    1AU     AUC   21   8.054   0.587   6.834  0.0298 -0.0625  0.1386
    1AU     AUC   22   8.134   0.420   7.135  0.0235  0.0168  0.0995
    1AU     AUC   23   9.215   0.563   6.390  0.0792  0.0840  0.0340
    1AU     AUC   24   9.272   0.454   6.735 -0.0469  0.0578 -0.0346
    1AU     AUC   25   9.274   0.343   7.085  0.0448 -0.0200  0.0435
    1AU     AUC   26   8.977  -0.047   6.522  0.0091  0.0031 -0.0463
    1AU     AUC   27   8.626  -0.052   6.534 -0.0062  0.0463  0.0050
    1AU     AUC   28   8.271   0.002   6.606 -0.0201  0.1075  0.0978
    1AU     AUC   29   9.062   1.008   6.986  0.0789  0.0448 -0.0897
    1AU     AUC   30   8.723   1.105   7.011  0.0047  0.1366  0.0500
    1AU     AUC   31   8.408   1.066   6.998  0.0701 -0.0285 -0.0505
    1AU     AUC   32   8.911  -0.051   6.849 -0.0027 -0.0356 -0.0017
    1AU     AUC   33   8.513  -0.073   6.898  0.0500 -0.0278 -0.0487
    1AU     AUC   34   8.865   0.862   7.254 -0.0101  0.0045 -0.0020
    1AU     AUC   35   8.509   0.861   7.270  0.0247  0.0060 -0.0144
    1AU     AUC   36   8.748   0.115   6.305 -0.0172 -0.0180 -0.0483
    1AU     AUC   37   8.379   0.157   6.327 -0.0222 -0.0014 -0.0933
    1AU     AUC   38   8.917   1.013   6.631  0.0367 -0.0319  0.0005
    1AU     AUC   39   8.578   1.086   6.654  0.0010  0.0241 -0.0594
    1AU     AUC   40   8.415   0.517   7.354 -0.0029 -0.0015 -0.0213
    1AU     AUC   41   8.412   0.207   7.161 -0.0280 -0.0084 -0.0885
    1AU     AUC   42   8.406   0.865   6.374 -0.0188 -0.1079 -0.0050
    1AU     AUC   43   8.305   0.512   6.253 -0.0646  0.0046 -0.0452
    1AU     AUC   44   9.006   0.479   7.287  0.1377 -0.0743 -0.1286
    1AU     AUC   45   9.025   0.167   7.129 -0.0368 -0.0150  0.0125
    1AU     AUC   46   8.976   0.770   6.341 -0.0182  0.0423  0.0116
    1AU     AUC   47   8.928   0.440   6.246 -0.0325 -0.0772  0.0228
    1AU     AUC   48   8.139   0.351   6.562 -0.0151  0.0478 -0.0520
    1AU     AUC   49   8.202   0.209   6.879  0.0295  0.0722  0.0536
    1AU     AUC   50   9.113   0.235   6.472  0.0371  0.0375 -0.0022
    1AU     AUC   51   9.190   0.173   6.782 -0.0130 -0.0193  0.0408
    1AU     AUC   52   8.256   0.888   6.705 -0.0169 -0.0939  0.1133
    1AU     AUC   53   8.244   0.799   7.096 -0.0463 -0.0393 -0.0409
    1AU     AUC   54   9.181   0.830   6.689  0.0496 -0.0054 -0.0940
    1AU     AUC   55   9.174   0.675   7.041  0.1168 -0.0896  0.0552
    1AU    AUSL   56   8.762  -0.401   6.999 -0.1288 -0.0754 -0.0143
    1AU    AUSL   57   9.164  -0.275   6.826 -0.0078 -0.0532 -0.0186
    1AU     AUL   58   9.047  -0.546   7.123  0.0218 -0.0892 -0.0521
    1AU       S   59   9.535  -0.423   7.048  0.0247 -0.2932  0.0432
    1AU     LIG   60   9.753  -0.585   6.812 -0.1479 -0.1665  0.1576
    1AU     LIG   61  10.110  -0.772   6.779 -0.0711  0.2121  0.1984
    1AU     LIG   62  10.497  -0.757   6.898  0.2667  0.1132  0.0442
    1AU     LIG   63  10.709  -0.632   7.272  0.2507  0.2538 -0.2343
    1AU     LIG   64  10.811  -0.248   7.314  0.3965 -0.1486 -0.1098
    1AU       S   65   8.824  -0.784   6.783 -0.0504  0.0135  0.5024
    1AU     LIG   66   8.873  -0.989   7.254 -0.0623  0.0407 -0.2948
    1AU     LIG   67   9.113  -1.302   7.296 -0.3522  0.0447  0.4629
    1AU     LIG   68   9.623  -1.453   7.286  0.0544  0.1016 -0.0491
    1AU     LIG   69   9.720  -1.545   7.692 -0.1122 -0.0946 -0.3471
    1AU     LIG   70   9.971  -1.780   7.925 -0.0145  0.0096 -0.3058
    1AU    AUSL   71   8.840  -0.378   6.567  0.0464 -0.1033  0.0080
    1AU    AUSL   72   8.382  -0.306   6.349  0.0022  0.0519 -0.1176
    1AU     AUL   73   8.574  -0.605   6.400 -0.0641 -0.0372 -0.1110
    1AU       S   74   9.041  -0.618   6.505 -0.2847  0.1050  0.2095
    1AU     LIG   75   9.328  -0.786   6.784 -0.1973  0.0415  0.3912
    1AU     LIG   76   9.604  -1.022   6.599  0.3782 -0.0847  0.1965
    1AU     LIG   77   9.660  -1.318   6.369  0.0479 -0.3602  0.0598
    1AU     LIG   78  10.034  -1.628   6.334  0.3782  0.1422 -0.2729
    1AU     LIG   79  10.096  -2.035   6.293  0.0752 -0.0910 -0.0170
    1AU       S   80   8.560  -0.445   5.961 -0.2996  0.2816  0.3062
    1AU     LIG   81   8.215  -0.734   5.983  0.1506  0.0909 -0.3778
    1AU     LIG   82   8.265  -0.999   6.285 -0.2751  0.0489 -0.0614
    1AU     LIG   83   8.088  -1.315   6.453  0.1927 -0.1691 -0.2578
    1AU     LIG   84   7.898  -1.088   6.637 -0.1266  0.0011 -0.1840
    1AU     LIG   85   7.628  -0.807   6.806  0.0686 -0.0204  0.2210
    1AU    AUSL   86   8.488  -0.194   6.735 -0.0188  0.0585  0.0996
    1AU    AUSL   87   8.396  -0.265   7.186  0.0119 -0.0862  0.0167
    1AU     AUL   88   8.470  -0.508   6.939 -0.0100  0.0237  0.1062
    1AU       S   89   8.103  -0.598   6.573  0.0549 -0.1232  0.0010
    1AU     LIG   90   7.820  -0.705   6.305  0.2386  0.0973  0.0639
    1AU     LIG   91   7.576  -0.983   6.261 -0.2055 -0.2483 -0.1351
    1AU     LIG   92   7.296  -1.439   6.132 -0.1910 -0.1305  0.0107
    1AU     LIG   93   7.013  -1.561   6.306  0.3958  0.1705 -0.0643
    1AU     LIG   94   7.044  -1.520   6.718  0.2388  0.0712 -0.1485
    1AU       S   95   8.219  -0.562   7.304 -0.3060  0.0008  0.2172
    1AU     LIG   96   8.618  -0.594   7.429  0.1038 -0.3238  0.0951
    1AU     LIG   97   9.078  -0.718   7.589  0.2106  0.3906  0.1427
    1AU     LIG   98   9.403  -0.914   7.310 -0.1403  0.1445  0.2246
    1AU     LIG   99   9.775  -1.046   7.076 -0.2436 -0.3255  0.1481
    1AU     LIG  100   9.865  -1.359   6.819  0.1315  0.4328  0.3002
    1AU    AUSL  101   8.633   0.919   7.480 -0.0035 -0.0110 -0.0431
    1AU    AUSL  102   8.225   1.017   7.381  0.0564  0.0197 -0.0269
    1AU     AUL  103   8.371   1.125   7.714 -0.0090 -0.0852  0.0291
    1AU       S  104   8.542   1.471   7.522 -0.4771 -0.1896  0.1408
    1AU     LIG  105   8.390   1.976   7.303 -0.2100 -0.1045  0.0805
    1AU     LIG  106   8.628   2.342   7.014  0.5464 -0.2845 -0.1406
    1AU     LIG  107   8.465   2.565   6.697  0.0075  0.0879  0.0439
    1AU     LIG  108   7.957   2.504   6.594  0.2125 -0.0523  0.1429
    1AU     LIG  109   7.588   2.607   6.530  0.2558 -0.0805  0.1793
    1AU       S  110   7.908   0.927   7.715  0.1331  0.2429  0.0591
    1AU     LIG  111   7.468   0.830   7.497 -0.1516 -0.2035 -0.0777
    1AU     LIG  112   7.212   0.480   7.451 -0.2241  0.0945 -0.3505
    1AU     LIG  113   6.904   0.420   7.744  0.2205 -0.1906 -0.1198
    1AU     LIG  114   6.661   0.696   7.899 -0.1022  0.1368 -0.1804
    1AU     LIG  115   6.252   0.962   7.936  0.4578 -0.2255 -0.0618
    1AU    AUSL  116   8.910   1.227   7.374 -0.0916  0.0841  0.0450
    1AU    AUSL  117   9.013   0.821   7.617 -0.0481 -0.0477 -0.0329
    1AU     AUL  118   8.833   1.102   7.746  0.0223  0.0058  0.0103
    1AU       S  119   9.296   0.975   7.760 -0.0280 -0.2857  0.5355
    1AU     LIG  120   9.243   0.736   8.140  0.0863  0.1878  0.1780
    1AU     LIG  121   9.443   0.288   8.348 -0.2835  0.2923 -0.3315
    1AU     LIG  122   9.337   0.108   8.672  0.1887 -0.0373  0.1311
    1AU     LIG  123   9.277  -0.217   8.981 -0.1699 -0.4979 -0.1347
    1AU     LIG  124   9.445  -0.610   9.104 -0.0665  0.2115  0.0264
    1AU       S  125   8.669   1.501   7.570 -0.2819  0.1049  0.4423
    1AU     LIG  126   9.053   1.561   7.705  0.0106 -0.0008  0.1817
    1AU     LIG  127   9.385   1.825   7.596 -0.5973  0.2121  0.1019
    1AU     LIG  128   9.578   2.272   7.372  0.1835 -0.0539  0.2822
    1AU     LIG  129   9.737   2.499   7.121  0.1635 -0.2894  0.1582
    1AU     LIG  130  10.200   2.685   7.077  0.2273  0.2679  0.0637
    1AU    AUSL  131   8.541   1.193   7.160 -0.0989 -0.1438 -0.0561
    1AU    AUSL  132   8.911   1.250   6.939  0.0490 -0.0713 -0.0103
    1AU     AUL  133   8.919   1.487   7.173  0.0988 -0.0516 -0.0346
    1AU       S  134   8.914   1.785   6.815 -0.0100  0.5119  0.1910
    1AU     LIG  135   9.269   1.878   7.012 -0.0486 -0.0471 -0.1691
    1AU     LIG  136   9.584   1.985   6.945 -0.2829 -0.0450  0.0513
    1AU     LIG  137   9.599   2.241   6.660 -0.1233 -0.2801 -0.3957
    1AU     LIG  138  10.022   2.339   6.669  0.3690  0.2750 -0.0534
    1AU     LIG  139  10.380   2.123   6.335 -0.3365 -0.1318  0.0261
    1AU       S  140   8.456   1.455   7.319 -0.2344  0.4032  0.2845
    1AU     LIG  141   8.033   1.462   7.508  0.1251  0.2290 -0.1497
    1AU     LIG  142   7.595   1.342   7.476 -0.3365  0.0392 -0.0795
    1AU     LIG  143   7.154   1.321   7.577 -0.3378 -0.1452  0.1153
    1AU     LIG  144   6.846   1.469   7.375  0.0550 -0.3863  0.0027
    1AU     LIG  145   6.468   1.467   7.247  0.0376  0.1467  0.0484
    1AU    AUSL  146   8.454  -0.010   6.015 -0.1778 -0.0644  0.0543
    1AU    AUSL  147   8.128   0.026   6.316  0.0416  0.0875 -0.0759
    1AU     AUL  148   8.122  -0.251   6.070  0.0103  0.0674  0.0855
    1AU       S  149   8.700  -0.409   5.931  0.1188 -0.3180 -0.2578
    1AU     LIG  150   8.690  -0.872   6.012 -0.0479 -0.0848 -0.1031
    1AU     LIG  151   8.862  -1.101   6.279 -0.0136  0.1145 -0.3107
    1AU     LIG  152   9.056  -1.181   6.631 -0.2188 -0.2243  0.0186
    1AU     LIG  153   9.343  -1.358   6.867  0.0660 -0.0895 -0.0855
    1AU     LIG  154   9.521  -1.734   6.919 -0.0254 -0.0193 -0.3133
    1AU       S  155   7.789   0.067   5.963 -0.1063  0.3444 -0.0316
    1AU     LIG  156   7.634  -0.287   6.027  0.1352  0.3429 -0.0302
    1AU     LIG  157   7.336  -0.480   6.192  0.3234 -0.0944 -0.0219
    1AU     LIG  158   6.871  -0.621   6.251 -0.0038 -0.2068  0.1261
    1AU     LIG  159   6.542  -0.715   6.483  0.2047  0.2067 -0.0429
    1AU     LIG  160   6.358  -1.075   6.747 -0.0375  0.0483  0.0148
    1AU    AUSL  161   8.769  -0.055   6.277 -0.0119  0.0268 -0.0857
    1AU    AUSL  162   8.889   0.102   5.903  0.0346  0.0426 -0.0140
    1AU     AUL  163   8.603   0.047   5.760 -0.0199 -0.0552 -0.0056
    1AU       S  164   9.100  -0.099   5.743 -0.5730 -0.0255 -0.4465
    1AU     LIG  165   8.844  -0.240   5.436 -0.2772 -0.2052  0.0638
    1AU     LIG  166   8.735  -0.623   5.388  0.1981  0.4809 -0.0240
    1AU     LIG  167   8.506  -0.982   5.571 -0.1377  0.4066 -0.4144
    1AU     LIG  168   8.398  -1.352   5.942 -0.0545 -0.0201 -0.3884
    1AU     LIG  169   8.440  -1.594   6.276  0.4213 -0.1521 -0.1337
    1AU       S  170   8.821  -0.390   6.054  0.4887 -0.7771 -0.1474
    1AU     LIG  171   9.179  -0.696   5.987  0.0687  0.0609  0.0544
    1AU     LIG  172   9.308  -0.998   6.210  0.3120 -0.0506 -0.5469
    1AU     LIG  173   9.219  -1.461   6.259 -0.2287 -0.3287 -0.1529
    1AU     LIG  174   8.869  -1.783   6.227 -0.1784 -0.1044  0.0386
    1AU     LIG  175   8.656  -2.016   6.484  0.0172 -0.3410  0.2000
    1AU    AUSL  176   8.840   1.355   6.538 -0.0306  0.0123 -0.0026
    1AU    AUSL  177   9.194   1.123   6.657 -0.1666 -0.0073 -0.0478
    1AU     AUL  178   9.221   1.416   6.769  0.0064 -0.0486  0.0486
    1AU       S  179   8.874   1.779   6.696  0.1386 -0.0610 -0.5565
    1AU     LIG  180   8.623   2.076   6.539  0.3604  0.1733 -0.1573
    1AU     LIG  181   8.243   2.097   6.724  0.0957  0.0046  0.0320
    1AU     LIG  182   7.998   2.201   7.016  0.1325 -0.2734 -0.0129
    1AU     LIG  183   7.698   2.616   7.084  0.0712 -0.0152  0.4443
    1AU     LIG  184   7.268   2.766   7.024 -0.1009  0.2562 -0.0484
    1AU       S  185   9.320   1.409   6.309 -0.0486 -0.0300 -0.6423
    1AU     LIG  186   9.261   1.867   6.290  0.3526 -0.0833  0.3472
    1AU     LIG  187   9.140   2.251   6.472  0.0424  0.1865 -0.0532
    1AU     LIG  188   9.033   2.335   6.806 -0.2774  0.1036  0.1436
    1AU     LIG  189   9.120   2.379   7.202  0.0022  0.1172 -0.0076
    1AU     LIG  190   8.898   1.982   7.361  0.0321  0.4004  0.0996
    1AU    AUSL  191   8.548   1.466   6.844  0.0047  0.0206  0.0005
    1AU    AUSL  192   8.485   1.277   6.313  0.0460 -0.1021  0.0900
    1AU     AUL  193   8.573   1.563   6.453 -0.0140  0.0235 -0.0067
    1AU       S  194   8.285   1.564   6.083  0.2482 -0.1441 -0.4450
    1AU     LIG  195   8.288   2.005   6.084  0.0961 -0.2250 -0.4074
    1AU     LIG  196   8.637   2.276   6.064 -0.1489 -0.0226  0.4260
    1AU     LIG  197   8.817   2.578   6.212 -0.2707  0.3731 -0.0816
    1AU     LIG  198   9.259   2.649   6.252 -0.1282  0.1370 -0.0246
    1AU     LIG  199   9.574   2.382   6.051 -0.0835 -0.3176 -0.1170
    1AU       S  200   8.614   1.736   6.925  0.4824  0.4429  0.1752
    1AU     LIG  201   8.158   1.712   7.017  0.3348 -0.0792 -0.2044
    1AU     LIG  202   7.741   1.771   7.234  0.3225 -0.1828 -0.1813
    1AU     LIG  203   7.431   2.110   7.191  0.0956 -0.1430 -0.1031
    1AU     LIG  204   7.157   2.450   7.382  0.2341 -0.1190  0.1031
    1AU     LIG  205   6.751   2.508   7.605  0.3547  0.0551 -0.1422
    1AU    AUSL  206   8.174   0.248   7.521  0.0439 -0.0801  0.0682
    1AU    AUSL  207   8.355   0.669   7.643 -0.0330 -0.0107 -0.0325
    1AU     AUL  208   8.154   0.423   7.881 -0.0332  0.0787  0.0447
    1AU       S  209   7.932   0.794   7.759 -0.3569  0.1147 -0.0231
    1AU     LIG  210   7.521   0.660   7.967  0.2905 -0.1051 -0.3987
    1AU     LIG  211   7.204   0.883   7.879  0.1320  0.1903  0.1076
    1AU     LIG  212   6.968   0.872   7.423  0.1124  0.0625 -0.0241
    1AU     LIG  213   6.895   0.702   7.057  0.2216  0.3109 -0.1182
    1AU     LIG  214   6.929   0.457   6.705 -0.0667  0.0480  0.4118
    1AU       S  215   8.216  -0.049   7.836 -0.2531 -0.0240 -0.2830
    1AU     LIG  216   7.760  -0.168   7.788 -0.1214 -0.1956 -0.2444
    1AU     LIG  217   7.562  -0.450   7.621  0.1623  0.2470 -0.0191
    1AU     LIG  218   7.156  -0.555   7.579 -0.0641 -0.1872  0.3241
    1AU     LIG  219   6.704  -0.548   7.650  0.3499 -0.0406 -0.0496
    1AU     LIG  220   6.396  -0.526   7.839 -0.2873  0.2373  0.0497
    1AU    AUSL  221   8.571   0.317   7.709 -0.0121  0.0474 -0.0163
    1AU    AUSL  222   8.899   0.002   7.562  0.0349  0.0419  0.0548
    1AU     AUL  223   8.796   0.182   7.881 -0.0398  0.0434 -0.0677
    1AU       S  224   8.372  -0.025   7.861  0.0660  0.0372 -0.2747
    1AU     LIG  225   8.611  -0.038   8.297  0.4734  0.0877  0.0932
    1AU     LIG  226   8.990  -0.184   8.505 -0.0639 -0.1139  0.1539
    1AU     LIG  227   9.469  -0.193   8.326 -0.0496 -0.0752 -0.1708
    1AU     LIG  228   9.727  -0.387   8.134  0.0396 -0.2207 -0.0368
    1AU     LIG  229   9.967  -0.629   7.802  0.0634 -0.0092 -0.2294
    1AU       S  230   9.195  -0.036   7.890  0.0356  0.1394  0.2563
    1AU     LIG  231   9.437  -0.335   7.782  0.2556  0.2234 -0.5252
    1AU     LIG  232   9.526  -0.773   7.842  0.2987 -0.0265  0.0517
    1AU     LIG  233   9.353  -1.162   7.724 -0.3104  0.0207  0.0983
    1AU     LIG  234   9.237  -1.443   7.801  0.2382 -0.0966  0.3371
    1AU     LIG  235   8.913  -1.646   7.612 -0.0750 -0.2377 -0.2107
    1AU    AUSL  236   8.540   0.084   7.344 -0.0412 -0.0911  0.0645
    1AU    AUSL  237   8.177   0.119   7.094 -0.0359  0.0758 -0.0131
    1AU     AUL  238   8.132  -0.039   7.387  0.0075  0.0046  0.0306
    1AU       S  239   7.942  -0.427   7.279  0.1882  0.0774  0.2262
    1AU     LIG  240   7.763  -0.870   7.252  0.3050 -0.0174  0.0821
    1AU     LIG  241   7.563  -1.252   7.093  0.0308  0.0597  0.1126
    1AU     LIG  242   7.669  -1.655   6.950  0.1859  0.1675  0.1321
    1AU     LIG  243   7.748  -2.052   6.972 -0.1395 -0.4281  0.0892
    1AU     LIG  244   7.788  -2.395   7.082  0.2006 -0.3261  0.2819
    1AU       S  245   8.470  -0.169   7.670 -0.4206 -0.1925  0.3012
    1AU     LIG  246   8.214  -0.579   7.807 -0.0116 -0.0139  0.1077
    1AU     LIG  247   8.332  -1.026   7.661 -0.2443 -0.4042 -0.1813
    1AU     LIG  248   8.498  -1.288   7.349 -0.2676  0.0076  0.0574
    1AU     LIG  249   8.584  -1.589   7.067 -0.4860 -0.0938  0.0601
    1AU     LIG  250   9.009  -1.752   7.124 -0.1643 -0.1254 -0.6726
    1AU    AUSL  251   8.099   0.754   6.151  0.0861  0.0536  0.0450
    1AU    AUSL  252   8.211   0.326   5.998 -0.0435 -0.0366  0.0070
    1AU     AUL  253   7.945   0.642   5.825 -0.0488 -0.0632  0.0469
    1AU       S  254   8.069   0.215   5.851  0.2612  0.1715 -0.0870
    1AU     LIG  255   8.179  -0.145   5.604  0.3719  0.1352 -0.1523
    1AU     LIG  256   8.277  -0.504   5.546  0.0547  0.4173 -0.0940
    1AU     LIG  257   8.036  -0.962   5.441 -0.2356 -0.0605  0.0527
    1AU     LIG  258   7.870  -1.327   5.643  0.0877  0.1188  0.0745
    1AU     LIG  259   7.825  -1.368   6.020  0.1326 -0.2404 -0.1282
    1AU       S  260   7.758   0.843   6.211  0.2759 -0.1493  0.1109
    1AU     LIG  261   7.699   1.126   5.870  0.4371 -0.4145  0.3235
    1AU     LIG  262   7.445   1.400   5.534 -0.1363  0.0861  0.1787
    1AU     LIG  263   6.933   1.276   5.548  0.3905 -0.1486 -0.0341
    1AU     LIG  264   6.519   1.026   5.592 -0.1655  0.2222 -0.0599
    1AU     LIG  265   6.544   0.712   5.842  0.0564 -0.0609  0.0517
    1AU    AUSL  266   8.511   0.900   6.148 -0.1054 -0.0189 -0.0361
    1AU    AUSL  267   8.099   1.116   6.361  0.0406  0.1601 -0.0333
    1AU     AUL  268   8.213   1.096   6.018 -0.0204 -0.1948  0.0254
    1AU       S  269   8.714   1.355   5.928 -0.0948  0.0983 -0.2701
    1AU     LIG  270   8.825   1.838   6.094 -0.0612  0.1025  0.0523
    1AU     LIG  271   9.118   2.116   5.856 -0.2866  0.1183 -0.0924
    1AU     LIG  272   9.251   2.469   5.704 -0.3670 -0.1734  0.6823
    1AU     LIG  273   9.071   2.870   5.869  0.0858 -0.1415 -0.3669
    1AU     LIG  274   8.682   3.193   5.825 -0.1959 -0.2990  0.0841
    1AU       S  275   7.874   1.341   6.268  0.2482 -0.1809 -0.0488
    1AU     LIG  276   7.514   1.607   6.024 -0.1067  0.0514 -0.1416
    1AU     LIG  277   7.134   1.465   6.028 -0.0611  0.2984 -0.0321
    1AU     LIG  278   6.855   1.152   5.998 -0.0670 -0.5848  0.3027
    1AU     LIG  279   6.404   1.181   6.127 -0.1278  0.1856 -0.0286
    1AU     LIG  280   5.990   1.239   6.293 -0.2072  0.3171  0.0916
    1AU    AUSL  281   8.431   0.636   5.825  0.0326  0.0272 -0.0104
    1AU    AUSL  282   8.841   0.911   5.908 -0.0004 -0.0583 -0.1317
    1AU     AUL  283   8.524   0.951   5.727 -0.0024  0.0017  0.0830
    1AU       S  284   8.938   0.712   5.573 -0.1813  0.2033  0.0678
    1AU     LIG  285   9.336   0.316   5.391 -0.0665  0.0185 -0.0431
    1AU     LIG  286   9.363  -0.193   5.301  0.2881  0.2333  0.0452
    1AU     LIG  287   9.266  -0.526   5.480  0.1993 -0.0484 -0.1183
    1AU     LIG  288   9.080  -0.995   5.620 -0.4227  0.0552 -0.2262
    1AU     LIG  289   8.930  -1.392   5.868 -0.0529 -0.1782 -0.2622
    1AU       S  290   8.395   0.472   5.575  0.3491 -0.3472 -0.2533
    1AU     LIG  291   7.968   0.393   5.362 -0.0460  0.0422 -0.2435
    1AU     LIG  292   7.566   0.455   5.561 -0.0442  0.2307 -0.2276
    1AU     LIG  293   7.283   0.145   5.711 -0.3977 -0.0882  0.0886
    1AU     LIG  294   7.255  -0.293   5.609 -0.2822 -0.0784 -0.4654
    1AU     LIG  295   6.930  -0.522   5.711 -0.1682 -0.2775  0.3482
    1AU    AUSL  296   9.250   0.180   7.390 -0.1819  0.0199  0.0405
    1AU    AUSL  297   8.976  -0.056   7.148  0.0198  0.0475  0.0535
    1AU     AUL  298   9.096  -0.242   7.436 -0.0116  0.0827  0.0226
    1AU       S  299   9.400   0.124   7.578  0.1111 -0.2999  0.0205
    1AU     LIG  300   9.716   0.280   7.477 -0.2996  0.0546  0.3911
    1AU     LIG  301   9.896   0.699   7.485 -0.3131 -0.1040  0.1184
    1AU     LIG  302   9.926   1.150   7.479 -0.1204  0.5770 -0.4575
    1AU     LIG  303   9.877   1.660   7.429  0.6013 -0.2376 -0.1369
    1AU     LIG  304   9.827   2.000   7.752 -0.2136  0.3743  0.0186
    1AU       S  305   9.487  -0.324   7.252 -0.1610 -0.0620  0.1325
    1AU     LIG  306   9.823  -0.593   7.374 -0.1897 -0.2292  0.1891
    1AU     LIG  307  10.151  -0.888   7.310 -0.0114  0.0205  0.0073
    1AU     LIG  308  10.351  -1.238   7.046  0.0933 -0.2035 -0.1810
    1AU     LIG  309  10.283  -1.682   7.064  0.1820 -0.1109 -0.3296
    1AU     LIG  310  10.012  -1.908   6.785 -0.0167  0.2287 -0.1710
    1AU    AUSL  311   8.916   0.428   7.500  0.0060  0.0237 -0.1332
    1AU    AUSL  312   9.342   0.607   7.438 -0.0058 -0.0638 -0.0251
    1AU     AUL  313   9.151   0.526   7.715  0.0246  0.0844  0.0257
    1AU       S  314   9.262   0.153   7.894 -0.3014  0.1101 -0.1678
    1AU     LIG  315   9.715   0.087   7.976  0.2601  0.1067 -0.0552
    1AU     LIG  316  10.094   0.320   7.791  0.0371 -0.3780 -0.0390
    1AU     LIG  317  10.513   0.105   7.632 -0.1253 -0.0284  0.0254
    1AU     LIG  318  10.932   0.189   7.426  0.0762 -0.1566 -0.1051
    1AU     LIG  319  11.329   0.163   7.240 -0.1900 -0.0687  0.2288
    1AU       S  320   9.471   0.864   7.742  0.1211  0.0234 -0.0034
    1AU     LIG  321   9.704   0.641   7.974  0.5651  0.2650 -0.2669
    1AU     LIG  322   9.848   0.674   8.467  0.0773  0.0154  0.0694
    1AU     LIG  323  10.273   0.647   8.709  0.0963 -0.0743  0.1190
    1AU     LIG  324  10.585   0.315   8.544  0.3138  0.2217 -0.1371
    1AU     LIG  325  10.948   0.163   8.335 -0.1241 -0.4017 -0.0439
    1AU    AUSL  326   9.178   0.665   6.029  0.0128 -0.0453 -0.0312
    1AU    AUSL  327   8.951   1.026   6.306 -0.0616 -0.0462 -0.0147
    1AU     AUL  328   9.080   1.049   5.926  0.0189  0.0540  0.0210
    1AU       S  329   9.210   1.344   6.209  0.0187 -0.2846 -0.3223
    1AU     LIG  330   9.179   1.550   5.832  0.0589  0.1150 -0.2418
    1AU     LIG  331   9.172   1.809   5.422 -0.2537 -0.5713  0.0395
    1AU     LIG  332   9.283   2.217   5.234 -0.0602 -0.2861  0.3072
    1AU     LIG  333   9.290   2.644   5.056  0.1529  0.0111 -0.0302
    1AU     LIG  334   8.852   2.902   4.834  0.0076 -0.3798  0.2561
    1AU       S  335   9.154   0.698   5.616  0.0073  0.4732  0.0144
    1AU     LIG  336   9.548   0.800   5.762  0.0320 -0.1114  0.0414
    1AU     LIG  337   9.870   0.896   6.083 -0.1207  0.0693  0.1429
    1AU     LIG  338  10.339   1.058   6.156 -0.0124 -0.1614 -0.0956
    1AU     LIG  339  10.759   1.054   6.294 -0.3069 -0.2152 -0.0343
    1AU     LIG  340  11.156   1.024   6.134 -0.0083  0.0231  0.1762
    1AU    AUSL  341   8.781   0.489   6.031  0.0522  0.0062  0.0357
    1AU    AUSL  342   9.145   0.287   6.227 -0.0392  0.0130 -0.0126
    1AU     AUL  343   9.204   0.347   5.911  0.0121  0.0259 -0.0131
    1AU       S  344   9.378  -0.041   5.789  0.2432 -0.1073 -0.1360
    1AU     LIG  345   9.770  -0.160   5.781  0.2785 -0.0319 -0.1214
    1AU     LIG  346  10.104  -0.363   6.007 -0.3695  0.2214  0.2547
    1AU     LIG  347  10.522  -0.123   6.274  0.3328  0.1840  0.0673
    1AU     LIG  348  10.853   0.082   6.355 -0.3232 -0.2101  0.2770
    1AU     LIG  349  11.181  -0.035   6.366 -0.1549 -0.1324 -0.2562
    1AU       S  350   8.903   0.495   5.614 -0.0586  0.0443  0.0552
    1AU     LIG  351   8.797   0.225   5.339 -0.0384 -0.1720 -0.0483
    1AU     LIG  352   8.413   0.074   5.238  0.4216  0.2650 -0.0665
    1AU     LIG  353   8.226  -0.325   5.115 -0.3741 -0.0210 -0.0526
    1AU     LIG  354   7.848  -0.484   5.246  0.0618  0.1306 -0.2285
    1AU     LIG  355   7.684  -0.663   5.654 -0.0038  0.1890 -0.0875
    1AU    AUSL  356   7.968   0.166   6.694 -0.1123  0.0037 -0.1168
    1AU    AUSL  357   7.943   0.416   6.346  0.0470  0.0015 -0.0005
    1AU     AUL  358   7.818  -0.018   6.412 -0.0302  0.0113  0.0092
    1AU       S  359   7.738   0.359   6.151  0.3227 -0.3564 -0.2479
    1AU     LIG  360   7.317   0.087   6.257  0.0490 -0.1822  0.0700
    1AU     LIG  361   7.121  -0.136   6.646 -0.1862 -0.0586 -0.0003
    1AU     LIG  362   6.779  -0.405   6.710 -0.1479  0.2739  0.0002
    1AU     LIG  363   6.625  -0.802   7.020 -0.3429 -0.2270  0.0390
    1AU     LIG  364   6.405  -0.739   7.299  0.2118  0.0559  0.3904
    1AU       S  365   7.504   0.114   6.728  0.1464 -0.3736 -0.0233
    1AU     LIG  366   7.551  -0.341   6.691 -0.4906  0.1144 -0.3115
    1AU     LIG  367   7.208  -0.682   6.624 -0.2571 -0.1205  0.1274
    1AU     LIG  368   7.116  -1.111   6.465  0.4121  0.1261  0.3778
    1AU     LIG  369   7.506  -1.389   6.585  0.2085 -0.3675 -0.4137
    1AU     LIG  370   7.722  -1.714   6.420 -0.1755 -0.0468 -0.6072
    1AU    AUSL  371   7.734   0.548   6.694 -0.0989  0.0733 -0.0039
    1AU    AUSL  372   7.822   0.783   7.066  0.0366 -0.0926  0.0667
    1AU     AUL  373   7.455   0.715   7.008  0.0648 -0.0018  0.0975
    1AU       S  374   7.530   0.322   6.666 -0.1182 -0.3782  0.1860
    1AU     LIG  375   7.284   0.790   6.537  0.1364 -0.2909 -0.3680
    1AU     LIG  376   6.761   0.895   6.491 -0.3817 -0.4227  0.2159
    1AU     LIG  377   6.365   0.731   6.373 -0.1756  0.0196 -0.1257
    1AU     LIG  378   6.285   0.416   6.634  0.0200  0.0318  0.2662
    1AU     LIG  379   5.791   0.505   6.856 -0.1550  0.2188 -0.0939
    1AU       S  380   7.611   1.113   6.873  0.0420  0.1503  0.0290
    1AU     LIG  381   7.195   1.124   7.008 -0.3456  0.0722  0.0464
    1AU     LIG  382   6.786   1.161   6.949 -0.1265 -0.1574 -0.0565
    1AU     LIG  383   6.408   1.266   6.652  0.0809 -0.1656  0.1436
    1AU     LIG  384   6.000   0.990   6.714 -0.0493  0.1347  0.0576
    1AU     LIG  385   5.565   1.290   6.633  0.1239 -0.1053  0.2073
    1AU    AUSL  386   7.834   0.350   7.063  0.0119 -0.0425 -0.0332
    1AU    AUSL  387   8.095  -0.207   6.836  0.1316 -0.0013 -0.1205
    1AU     AUL  388   7.836  -0.069   6.997 -0.1184  0.0351  0.1113
    1AU       S  389   8.006  -0.496   7.078  0.4446 -0.0975  0.0376
    1AU     LIG  390   8.266  -0.927   6.945  0.2714  0.1965  0.0619
    1AU     LIG  391   8.560  -1.235   6.686 -0.2120 -0.1142  0.0416
    1AU     LIG  392   8.818  -1.590   6.658  0.4112 -0.3691 -0.0152
    1AU     LIG  393   9.126  -1.895   6.707 -0.1229 -0.2436  0.2774
    1AU     LIG  394   8.893  -2.225   6.860 -0.0660 -0.0865 -0.3812
    1AU       S  395   7.518   0.262   7.019 -0.1768 -0.0372 -0.2207
    1AU     LIG  396   7.062   0.121   7.052  0.0522 -0.1771 -0.4064
    1AU     LIG  397   6.587   0.042   7.059 -0.0910  0.0751  0.1671
    1AU     LIG  398   6.238  -0.250   6.985  0.0902  0.0756  0.0629
    1AU     LIG  399   6.160  -0.623   6.776 -0.4309  0.1455 -0.1207
    1AU     LIG  400   5.882  -0.940   6.567  0.1627  0.0060 -0.2419
    1AU    AUSL  401   9.322   0.049   6.557  0.0450 -0.0033 -0.0243
    1AU    AUSL  402   9.369   0.058   7.010 -0.0072 -0.0304 -0.0144
    1AU     AUL  403   9.426  -0.222   6.641  0.0135 -0.0383 -0.0380
    1AU       S  404   9.863  -0.029   6.484  0.1463  0.4012 -0.1265
    1AU     LIG  405  10.087  -0.325   6.525  0.0477  0.3281 -0.0908
    1AU     LIG  406  10.388  -0.610   6.329  0.1046 -0.3861  0.1208
    1AU     LIG  407  10.661  -1.011   6.474 -0.3225 -0.1242 -0.0077
    1AU     LIG  408  10.837  -1.252   6.853  0.1243  0.0612  0.0191
    1AU     LIG  409  10.770  -1.640   6.990  0.2520 -0.1803  0.1399
    1AU       S  410   9.547  -0.055   7.090 -0.5271 -0.3744 -0.2168
    1AU     LIG  411   9.958  -0.179   7.029 -0.1346 -0.0539 -0.4923
    1AU     LIG  412  10.246  -0.428   7.265 -0.0502  0.0589 -0.1338
    1AU     LIG  413  10.423  -0.390   7.629  0.0487  0.1932  0.1678
    1AU     LIG  414  10.501  -0.618   8.023 -0.0712 -0.3708 -0.1961
    1AU     LIG  415  10.591  -0.696   8.485 -0.2462  0.1874 -0.0991
    1AU    AUSL  416   9.523   0.427   6.344  0.0056  0.0711 -0.0062
    1AU    AUSL  417   9.168  -0.148   6.235  0.0113 -0.0274 -0.0659
    1AU     AUL  418   9.465   0.076   6.228  0.0441  0.1014  0.0147
    1AU       S  419   9.919   0.205   6.364 -0.1219  0.3543 -0.0047
    1AU     LIG  420  10.131   0.333   6.103  0.0308  0.0196 -0.3579
    1AU     LIG  421  10.185   0.611   5.828  0.3219 -0.0372 -0.0261
    1AU     LIG  422  10.358   0.616   5.453  0.1028 -0.2797 -0.0927
    1AU     LIG  423  10.283   0.400   5.129  0.1518 -0.0502  0.4309
    1AU     LIG  424  10.237   0.509   4.677 -0.2959 -0.2984 -0.2858
    1AU       S  425   9.263  -0.208   5.913  0.2492  0.1880 -0.0072
    1AU     LIG  426   9.512  -0.454   6.247 -0.2131  0.1024 -0.1063
    1AU     LIG  427   9.888  -0.723   6.313 -0.4452 -0.0599  0.1954
    1AU     LIG  428  10.161  -1.117   6.405  0.0081  0.0321  0.2873
    1AU     LIG  429  10.425  -1.517   6.584 -0.2292 -0.0812 -0.4272
    1AU     LIG  430  10.861  -1.599   6.479  0.2230 -0.2453  0.2052
    1AU    AUSL  431   9.604   0.307   6.757 -0.0217  0.0489 -0.0143
    1AU    AUSL  432   9.382   0.682   6.654  0.1041  0.0383  0.0320
    1AU     AUL  433   9.719   0.626   6.492  0.0316 -0.0271  0.0724
    1AU       S  434   9.855   0.705   6.930 -0.1535  0.3713 -0.1617
    1AU     LIG  435  10.174   0.760   6.631 -0.0703  0.3367 -0.1511
    1AU     LIG  436  10.473   0.573   6.392  0.1241  0.1930  0.0211
    1AU     LIG  437  10.992   0.667   6.521  0.0775  0.3594 -0.2345
    1AU     LIG  438  11.314   0.363   6.677  0.0747 -0.1436 -0.0915
    1AU     LIG  439  11.527   0.154   6.767  0.1727  0.3023  0.0520
    1AU       S  440   9.814   0.194   6.693 -0.0595  0.3605 -0.0430
    1AU     LIG  441  10.209   0.274   6.759  0.1047  0.0279  0.0546
    1AU     LIG  442  10.653   0.209   6.800  0.1664  0.1717 -0.1113
    1AU     LIG  443  10.998   0.049   6.875 -0.0387  0.2825 -0.1954
    1AU     LIG  444  11.275  -0.295   6.909  0.1769  0.0664 -0.1088
    1AU     LIG  445  11.771  -0.264   7.092 -0.0492  0.0878 -0.1586
    1AU    AUSL  446   8.072   1.152   7.006 -0.0758  0.0657  0.0857
    1AU    AUSL  447   8.120   0.603   7.284 -0.0054 -0.0190 -0.0178
    1AU     AUL  448   7.898   0.991   7.263 -0.0976  0.1100  0.0071
    1AU       S  449   7.693   1.297   6.992 -0.3210  0.1862  0.0203
    1AU     LIG  450   7.401   1.557   6.848 -0.4668 -0.2961  0.1631
    1AU     LIG  451   7.065   1.841   6.995  0.1144  0.4826  0.0380
    1AU     LIG  452   6.660   1.704   6.800  0.0308 -0.0531 -0.4154
    1AU     LIG  453   6.560   2.077   6.616  0.2976  0.2152  0.0900
    1AU     LIG  454   6.824   2.428   6.413 -0.2527 -0.3292 -0.1326
    1AU       S  455   7.864   0.601   7.573 -0.1819 -0.2963  0.3325
    1AU     LIG  456   7.691   0.293   7.650  0.0381  0.2239  0.0578
    1AU     LIG  457   7.402   0.034   7.426 -0.3401  0.2148  0.0408
    1AU     LIG  458   7.418  -0.408   7.142 -0.0030  0.1118 -0.0507
    1AU     LIG  459   7.251  -0.809   7.145  0.1826 -0.1317 -0.1249
    1AU     LIG  460   7.067  -1.136   7.005  0.0584  0.1795 -0.1751
    1AU    AUSL  461   8.028   0.853   6.680  0.0552  0.0321 -0.0128
    1AU    AUSL  462   8.362   1.139   6.702  0.0176 -0.0140  0.0383
    1AU     AUL  463   8.074   1.340   6.705  0.0250  0.0163  0.0213
    1AU       S  464   7.719   1.047   6.653 -0.0880  0.4772 -0.2518
    1AU     LIG  465   7.419   1.261   6.398  0.3637 -0.2819  0.1272
    1AU     LIG  466   7.286   0.981   6.121 -0.1591  0.0310  0.2713
    1AU     LIG  467   7.026   0.597   5.935  0.3954  0.2731  0.0579
    1AU     LIG  468   6.746   0.346   6.215  0.0478 -0.2908  0.1159
    1AU     LIG  469   6.651   0.070   6.488 -0.2864 -0.0268 -0.4562
    1AU       S  470   8.126   1.579   6.337 -0.0301  0.5462  0.0252
    1AU     LIG  471   7.859   1.725   6.604 -0.3141 -0.3990  0.0158
    1AU     LIG  472   7.593   2.102   6.711  0.1654  0.0960 -0.0797
    1AU     LIG  473   7.217   2.292   6.725 -0.1327 -0.3680 -0.1752
    1AU     LIG  474   6.793   2.385   7.001  0.1985  0.2093 -0.1096
    1AU     LIG  475   6.412   2.695   7.163 -0.2149 -0.4015 -0.5041
    1AU    AUSL  476   9.460   0.973   6.957  0.0423 -0.0107  0.0077
    1AU    AUSL  477   9.363   0.917   6.311  0.0343  0.0514  0.0363
    1AU     AUL  478   9.585   1.070   6.615 -0.0229 -0.1193 -0.0000
    1AU       S  479   9.461   1.176   6.177  0.0908 -0.2211  0.2074
    1AU     LIG  480   9.908   1.278   6.341  0.0560 -0.2498 -0.3888
    1AU     LIG  481  10.113   1.281   6.702  0.2592  0.2646 -0.2729
    1AU     LIG  482  10.517   1.303   6.716 -0.2370  0.1696  0.0029
    1AU     LIG  483  10.953   1.120   6.785  0.0508 -0.1386 -0.2830
    1AU     LIG  484  11.367   0.951   6.689  0.2276 -0.2600 -0.0409
    1AU       S  485   9.809   0.887   6.958  0.0695 -0.3579  0.1207
    1AU     LIG  486  10.222   1.003   7.096 -0.1014 -0.1337 -0.1973
    1AU     LIG  487  10.637   0.800   6.921 -0.3152 -0.0885 -0.1011
    1AU     LIG  488  11.090   0.601   7.143  0.3601 -0.2524  0.1274
    1AU     LIG  489  11.607   0.589   7.039  0.5796 -0.2445 -0.0663
    1AU     LIG  490  11.850   0.561   6.704 -0.2542 -0.3371 -0.3453
    1AU    AUSL  491   9.415   0.546   7.054 -0.0740  0.1432  0.0745
    1AU    AUSL  492   9.110   0.896   7.190 -0.1730  0.0504  0.0452
    1AU     AUL  493   9.494   0.891   7.279 -0.0490  0.0366  0.0626
    1AU       S  494   9.746   0.600   7.072  0.0118 -0.0515  0.2111
    1AU     LIG  495  10.159   0.365   7.240  0.1261  0.1230  0.1532
    1AU     LIG  496  10.413   0.061   7.171  0.0598  0.0291  0.0507
    1AU     LIG  497  10.519  -0.243   6.883  0.3353  0.1383  0.2498
    1AU     LIG  498  10.811  -0.396   6.598 -0.4165  0.1629  0.1750
    1AU     LIG  499  11.120  -0.535   6.465  0.2228  0.0154 -0.0533
    1AU       S  500   9.322   1.178   7.590 -0.1965 -0.1491  0.0388
    1AU     LIG  501   9.390   1.445   7.255 -0.3110 -0.2308  0.1778
    1AU     LIG  502   9.718   1.411   6.978 -0.1947  0.1606  0.0869
    1AU     LIG  503  10.080   1.782   6.914 -0.1798 -0.1705  0.1689
    1AU     LIG  504  10.430   2.106   6.995 -0.0494  0.1393  0.3250
    1AU     LIG  505  10.679   2.337   7.077 -0.1835  0.2822 -0.0867
    2POPC   NC3  506   3.433   4.927   8.494  0.3504  0.0163 -0.2343
    2POPC   PO4  507   3.581   4.530   8.587  0.0519  0.2378 -0.1619
    2POPC   GL1  508   3.605   4.234   8.332  0.1408 -0.1484  0.0149
    2POPC   GL2  509   3.323   4.313   8.198 -0.1438 -0.0040  0.0236
    2POPC   C1A  510   3.565   3.850   8.114  0.4332 -0.1821 -0.0696
    2POPC   D2A  511   3.634   3.652   7.676 -0.1573 -0.0016  0.2003
    2POPC   C3A  512   3.664   3.302   7.369  0.0266  0.0122 -0.2389
    2POPC   C4A  513   3.605   3.155   7.013 -0.1542  0.1199 -0.3948
    2POPC   C1B  514   3.367   4.240   7.808  0.3096 -0.2309 -0.2714
    2POPC   C2B  515   3.497   4.144   7.475  0.1324  0.3258 -0.1182
    2POPC   C3B  516   3.537   4.207   7.050 -0.0758 -0.1547  0.0565
    2POPC   C4B  517   3.403   4.403   6.679  0.1493  0.3841  0.2589
    3POPC   NC3  518   4.205   6.235   8.746 -0.0011  0.1182  0.0964
    3POPC   PO4  519   3.747   6.163   8.562  0.1842 -0.3422  0.1045
    3POPC   GL1  520   3.549   6.289   8.086  0.1103 -0.3755  0.0916
    3POPC   GL2  521   3.613   6.172   7.887 -0.2114  0.1843  0.2458
    3POPC   C1A  522   3.275   6.531   7.837  0.1947  0.0794 -0.4214
    3POPC   D2A  523   3.226   6.652   7.464 -0.0660 -0.0302 -0.4758
    3POPC   C3A  524   3.025   6.973   7.173  0.3091  0.0997 -0.0590
    3POPC   C4A  525   2.955   6.868   6.637 -0.1182  0.1132 -0.1803
    3POPC   C1B  526   3.780   5.831   7.647 -0.1664  0.1117 -0.1016
    3POPC   C2B  527   4.159   5.871   7.463 -0.1791 -0.1445  0.2398
    3POPC   C3B  528   4.450   5.828   7.065  0.0915  0.1415 -0.1385
    3POPC   C4B  529   4.585   5.859   6.744 -0.4031 -0.3273 -0.1162
    4POPC   NC3  530   1.125   2.228   9.512  0.1387  0.4052 -0.1198
    4POPC   PO4  531   0.989   2.175   9.156 -0.1015  0.1103  0.0363
    4POPC   GL1  532   0.769   1.975   8.906 -0.0888  0.1628 -0.3132
    4POPC   GL2  533   0.581   1.781   9.091 -0.2343 -0.0280 -0.0892
    4POPC   C1A  534   0.337   1.963   8.617 -0.1961 -0.1796 -0.0203
    4POPC   D2A  535  -0.098   1.903   8.828  0.1607 -0.0155 -0.1777
    4POPC   C3A  536  -0.498   1.717   8.573 -0.1834  0.0900  0.1064
    4POPC   C4A  537  -0.728   1.927   8.353 -0.0280  0.4886 -0.0551
    4POPC   C1B  538   0.307   1.529   8.862 -0.3199  0.2804  0.1046
    4POPC   C2B  539   0.035   1.460   8.570  0.1031 -0.3396 -0.0073
    4POPC   C3B  540  -0.259   1.518   8.223  0.2171 -0.0254  0.1422
    4POPC   C4B  541  -0.228   1.494   7.710 -0.0995 -0.1585  0.2199
    5POPC   NC3  542   3.741   4.025   8.742  0.0028 -0.1024 -0.1066
    5POPC   PO4  543   4.110   4.007   8.564 -0.1079  0.1349  0.1144
    5POPC   GL1  544   4.179   4.071   8.108  0.0850  0.4301 -0.1274
    5POPC   GL2  545   3.997   4.221   7.862 -0.1006 -0.2077 -0.1184
    5POPC   C1A  546   4.409   3.866   7.698 -0.3237  0.0432 -0.1494
    5POPC   D2A  547   4.459   4.010   7.310  0.2913 -0.0339  0.1227
    5POPC   C3A  548   4.227   3.719   6.972 -0.0631 -0.3585  0.0374
    5POPC   C4A  549   4.280   3.734   6.526  0.2092  0.0167 -0.1700
    5POPC   C1B  550   3.967   3.966   7.543  0.2547 -0.2161  0.1044
    5POPC   C2B  551   3.762   3.755   7.079  0.4401  0.2055 -0.2149
    5POPC   C3B  552   3.401   3.611   7.172 -0.3046  0.2439  0.2824
    5POPC   C4B  553   3.006   3.497   7.049 -0.0188  0.1252 -0.1840
    6POPC   NC3  554   4.431   8.754   8.802  0.1270 -0.2951 -0.0608
    6POPC   PO4  555   4.725   8.321   8.842  0.0013  0.0872 -0.1820
    6POPC   GL1  556   4.726   8.309   8.390 -0.2040  0.0595 -0.1503
    6POPC   GL2  557   4.553   8.289   8.196 -0.2329 -0.1204  0.0043
    6POPC   C1A  558   5.016   8.412   8.180  0.0110  0.3279  0.0457
    6POPC   D2A  559   5.219   8.560   8.048  0.0885 -0.0326 -0.3480
    6POPC   C3A  560   5.145   8.844   7.709  0.2475 -0.1150  0.0727
    6POPC   C4A  561   5.269   8.923   7.255  0.2134 -0.2370 -0.1453
    6POPC   C1B  562   4.706   8.386   7.767  0.1048  0.0849 -0.0199
    6POPC   C2B  563   4.905   8.523   7.455 -0.4808  0.1256  0.2142
    6POPC   C3B  564   5.344   8.434   7.397 -0.0088 -0.1051  0.1447
    6POPC   C4B  565   5.685   8.159   7.587 -0.1329  0.0877  0.2991
    7POPC   NC3  566   2.987   8.033   9.135 -0.1167  0.3178 -0.3996
    7POPC   PO4  567   3.363   7.958   8.723  0.0272  0.2492  0.0731
    7POPC   GL1  568   3.496   7.827   8.299  0.0696 -0.1710  0.1383
    7POPC   GL2  569   3.315   8.105   8.150 -0.0739 -0.0030  0.0104
    7POPC   C1A  570   3.238   7.571   8.061  0.1589 -0.1589  0.0788
    7POPC   D2A  571   3.171   7.684   7.602 -0.1414  0.0968 -0.4405
    7POPC   C3A  572   3.044   7.531   7.246  0.0281 -0.0391 -0.2165
    7POPC   C4A  573   3.022   7.357   6.847 -0.1697 -0.0567  0.1604
    7POPC   C1B  574   2.879   7.994   8.044  0.0008  0.0151  0.1516
    7POPC   C2B  575   2.726   8.084   7.629 -0.0805  0.1101 -0.1085
    7POPC   C3B  576   3.004   8.046   7.281 -0.1503  0.0931  0.0051
    7POPC   C4B  577   2.917   8.019   6.884  0.2942 -0.3216  0.3456
    8POPC   NC3  578   5.555   1.952   8.813  0.2017 -0.2555 -0.1372
    8POPC   PO4  579   5.140   2.217   8.898 -0.1810  0.1751  0.1286
    8POPC   GL1  580   4.907   2.140   8.446 -0.3502  0.1406  0.0809
    8POPC   GL2  581   4.870   2.334   8.241  0.3681  0.1122 -0.1632
    8POPC   C1A  582   4.529   1.841   8.263 -0.0726  0.1883  0.0354
    8POPC   D2A  583   4.413   1.719   7.848 -0.2531  0.2810  0.0633
    8POPC   C3A  584   4.607   1.482   7.595  0.2416 -0.2344 -0.0817
    8POPC   C4A  585   4.664   1.403   7.145 -0.1905  0.2432 -0.3266
    8POPC   C1B  586   4.860   2.011   7.948  0.3221  0.4056  0.3473
    8POPC   C2B  587   4.689   1.973   7.432 -0.1171  0.0332 -0.1845
    8POPC   C3B  588   4.791   1.873   7.042 -0.1178 -0.0150  0.1126
    8POPC   C4B  589   4.794   1.628   6.602 -0.0491  0.0827 -0.1265
    9POPC   NC3  590   7.189   4.057   8.859  0.2764 -0.0795  0.0502
    9POPC   PO4  591   7.530   3.862   9.131 -0.0398 -0.4318  0.0785
    9POPC   GL1  592   7.495   3.680   8.713 -0.2767 -0.2595 -0.2682
    9POPC   GL2  593   7.814   3.715   8.505 -0.1662 -0.1337  0.2072
    9POPC   C1A  594   7.415   3.692   8.224 -0.5209  0.0625 -0.4609
    9POPC   D2A  595   7.529   3.889   7.813  0.0473 -0.1664  0.3435
    9POPC   C3A  596   7.285   4.264   7.619  0.0402  0.3692 -0.0408
    9POPC   C4A  597   7.298   4.693   7.679  0.2245 -0.0975 -0.0835
    9POPC   C1B  598   7.931   3.767   8.091  0.0219  0.0428  0.1909
    9POPC   C2B  599   8.019   3.782   7.668  0.2138 -0.2061 -0.1547
    9POPC   C3B  600   7.853   3.831   7.329  0.2658 -0.0332  0.0654
    9POPC   C4B  601   7.389   3.959   7.244 -0.0161  0.4184 -0.1251
   10POPC   NC3  602   9.925   5.970   8.646  0.1450 -0.1001  0.0280
   10POPC   PO4  603   9.764   5.546   8.570  0.0911 -0.4313 -0.1543
   10POPC   GL1  604   9.905   5.496   8.231  0.0338  0.4172 -0.1737
   10POPC   GL2  605  10.237   5.457   8.205  0.1841  0.2632 -0.1061
   10POPC   C1A  606  10.034   5.201   7.906  0.1790  0.0974  0.1976
   10POPC   D2A  607   9.940   5.015   7.491 -0.0471  0.0296 -0.2229
   10POPC   C3A  608   9.761   5.324   7.157 -0.1602 -0.0817 -0.4282
   10POPC   C4A  609   9.691   5.324   6.628 -0.1348  0.1205  0.1704
   10POPC   C1B  610  10.237   5.699   7.764 -0.0303  0.2661  0.0106
   10POPC   C2B  611  10.380   5.973   7.426 -0.0709 -0.3760  0.0571
   10POPC   C3B  612  10.432   6.261   7.191 -0.3533  0.2568 -0.0268
   10POPC   C4B  613  10.538   6.347   6.826  0.2869  0.0986  0.0433
   11POPC   NC3  614   8.251   0.425  10.116  0.0610 -0.1067  0.2723
   11POPC   PO4  615   8.054   0.790   9.917  0.0383 -0.0718 -0.0043
   11POPC   GL1  616   8.000   1.070   9.682  0.0221  0.0003  0.2274
   11POPC   GL2  617   8.244   1.242   9.637 -0.0146  0.4652 -0.1705
   11POPC   C1A  618   7.666   1.091   9.234 -0.3158  0.1557 -0.0566
   11POPC   D2A  619   7.653   1.352   8.926  0.0014 -0.0098 -0.3204
   11POPC   C3A  620   7.853   1.240   8.472  0.1641 -0.1548  0.0181
   11POPC   C4A  621   8.076   1.358   8.036  0.1960  0.0544 -0.3750
   11POPC   C1B  622   8.219   0.883   9.225  0.4522  0.0109 -0.2510
   11POPC   C2B  623   8.072   0.514   9.285  0.2380  0.2463 -0.0363
   11POPC   C3B  624   8.046   0.059   9.109 -0.2125  0.2197 -0.1978
   11POPC   C4B  625   7.889  -0.203   8.732 -0.1856 -0.4361 -0.0764
   12POPC   NC3  626   1.029   3.631   9.377  0.0258 -0.1419  0.1199
   12POPC   PO4  627   0.937   3.546   8.932 -0.0997 -0.0025  0.0270
   12POPC   GL1  628   1.176   3.564   8.517 -0.0145 -0.3562  0.1825
   12POPC   GL2  629   1.104   3.929   8.299  0.0533  0.2316  0.5061
   12POPC   C1A  630   1.181   3.342   8.117 -0.3404  0.0165  0.1244
   12POPC   D2A  631   1.577   3.191   7.777 -0.2168  0.1480  0.3679
   12POPC   C3A  632   1.569   2.877   7.575  0.0481  0.3941 -0.0117
   12POPC   C4A  633   1.487   2.457   7.385  0.1139  0.0569  0.3139
   12POPC   C1B  634   0.746   4.138   8.055  0.0350 -0.0641 -0.0259
   12POPC   C2B  635   0.766   4.332   7.699 -0.3462 -0.1318  0.0207
   12POPC   C3B  636   0.519   4.124   7.341  0.1363  0.1692  0.2328
   12POPC   C4B  637   0.591   4.363   6.963  0.3700  0.1159 -0.2456
   13POPC   NC3  638   3.986   3.117   9.077 -0.1099  0.0210 -0.0110
   13POPC   PO4  639   4.139   3.213   8.588  0.2988 -0.0582 -0.2297
   13POPC   GL1  640   4.159   3.302   8.144  0.3045  0.2857  0.1914
   13POPC   GL2  641   4.056   3.608   7.932  0.0914  0.1985 -0.3164
   13POPC   C1A  642   4.522   3.318   7.874  0.0611 -0.3708 -0.1142
   13POPC   D2A  643   4.984   3.194   7.806  0.1217  0.3704  0.1227
   13POPC   C3A  644   5.235   3.366   7.477  0.0115 -0.2445  0.2766
   13POPC   C4A  645   5.322   3.756   7.394  0.1228  0.1728  0.0484
   13POPC   C1B  646   4.129   3.416   7.610  0.1856 -0.2364  0.1220
   13POPC   C2B  647   4.157   3.336   7.179  0.0679  0.0282  0.3396
   13POPC   C3B  648   4.121   3.068   6.835  0.0351  0.0672 -0.1235
   13POPC   C4B  649   3.943   2.651   6.722 -0.3159  0.1248 -0.0549
   14POPC   NC3  650   6.090   6.663   8.905 -0.1199  0.0327  0.0619
   14POPC   PO4  651   5.602   6.542   9.049 -0.1627  0.2492 -0.4228
   14POPC   GL1  652   5.364   6.478   8.644  0.2270 -0.1634  0.1795
   14POPC   GL2  653   5.230   6.827   8.609 -0.0014 -0.2471 -0.2455
   14POPC   C1A  654   5.346   6.295   8.150 -0.0861  0.2247 -0.0167
   14POPC   D2A  655   5.556   5.923   8.012  0.2657  0.1056  0.1737
   14POPC   C3A  656   5.212   5.602   7.925  0.1227 -0.2535 -0.0565
   14POPC   C4A  657   4.797   5.454   8.016 -0.0786  0.1690  0.1392
   14POPC   C1B  658   5.409   6.769   8.184 -0.0479 -0.1479 -0.1458
   14POPC   C2B  659   5.095   6.657   7.799  0.1156  0.1724  0.0514
   14POPC   C3B  660   4.966   6.714   7.339  0.0688 -0.1776  0.3255
   14POPC   C4B  661   4.615   6.827   7.042 -0.0774 -0.1353 -0.3088
   15POPC   NC3  662   7.316   5.471   8.692  0.3948 -0.1565  0.1013
   15POPC   PO4  663   7.019   5.795   8.584 -0.2990 -0.0168  0.2630
   15POPC   GL1  664   6.959   5.829   8.119 -0.1723  0.1346 -0.0160
   15POPC   GL2  665   7.031   6.181   8.024  0.0109  0.0953 -0.1719
   15POPC   C1A  666   7.121   5.649   7.738  0.1450  0.2559  0.0504
   15POPC   D2A  667   7.207   5.220   7.591  0.2804 -0.4455  0.3539
   15POPC   C3A  668   7.483   5.007   7.324  0.1022 -0.0427 -0.3227
   15POPC   C4A  669   7.744   4.893   6.944 -0.0935 -0.0583 -0.1140
   15POPC   C1B  670   7.298   6.077   7.672 -0.1948  0.0981  0.0874
   15POPC   C2B  671   7.114   5.874   7.247  0.4539  0.3465  0.3591
   15POPC   C3B  672   7.122   5.688   6.800  0.1428 -0.3553  0.3676
   15POPC   C4B  673   7.115   5.563   6.383  0.1788 -0.1900  0.1704
   16POPC   NC3  674   7.778   9.209   9.521 -0.1676  0.0630 -0.1117
   16POPC   PO4  675   8.069   9.061   9.285 -0.0731  0.0835  0.2173
   16POPC   GL1  676   7.996   8.904   8.866  0.2339 -0.1624  0.1526
   16POPC   GL2  677   8.281   8.940   8.810 -0.2887  0.0679 -0.0246
   16POPC   C1A  678   7.764   8.947   8.605 -0.3142  0.0173  0.1759
   16POPC   D2A  679   7.520   8.672   8.266  0.0758  0.2033 -0.1726
   16POPC   C3A  680   7.438   8.611   7.835 -0.5327  0.0201 -0.0955
   16POPC   C4A  681   7.665   8.738   7.467  0.2666  0.0672  0.0632
   16POPC   C1B  682   8.488   9.041   8.388 -0.2824  0.2778  0.5427
   16POPC   C2B  683   8.530   8.975   7.955 -0.1376 -0.1330 -0.0521
   16POPC   C3B  684   8.460   8.682   7.660  0.3121  0.1238  0.0227
   16POPC   C4B  685   8.128   8.648   7.266 -0.1490  0.2227 -0.0082
   17POPC   NC3  686   5.689   7.777   8.868 -0.1418 -0.2670 -0.4163
   17POPC   PO4  687   5.603   8.245   9.175  0.0774 -0.4364  0.1993
   17POPC   GL1  688   5.631   8.245   8.757  0.1597 -0.3144 -0.2009
   17POPC   GL2  689   5.423   8.103   8.573  0.3969  0.0725  0.2141
   17POPC   C1A  690   5.893   8.391   8.414  0.0546  0.3704 -0.1139
   17POPC   D2A  691   5.797   8.440   8.016 -0.2916 -0.3816 -0.1267
   17POPC   C3A  692   6.057   8.570   7.714  0.0339 -0.4028 -0.0797
   17POPC   C4A  693   6.302   8.677   7.320  0.1525 -0.2271 -0.0187
   17POPC   C1B  694   5.346   8.057   8.105 -0.0398 -0.0015 -0.0560
   17POPC   C2B  695   5.203   8.116   7.771  0.0027  0.1066  0.0598
   17POPC   C3B  696   4.949   8.044   7.309 -0.0380 -0.2048  0.5037
   17POPC   C4B  697   4.622   8.013   6.922 -0.1640 -0.1526  0.0704
   18POPC   NC3  698   9.172   4.555   9.153  0.1332 -0.1387  0.1567
   18POPC   PO4  699   8.855   4.750   8.885 -0.2494 -0.0820  0.2355
   18POPC   GL1  700   9.040   5.019   8.523  0.0547  0.1137  0.0055
   18POPC   GL2  701   8.694   5.000   8.425 -0.2458  0.1768 -0.2955
   18POPC   C1A  702   9.147   4.949   8.167  0.1039  0.3819  0.1573
   18POPC   D2A  703   9.040   4.926   7.702  0.1394 -0.1947 -0.0234
   18POPC   C3A  704   8.809   4.561   7.431  0.1746  0.2135  0.0376
   18POPC   C4A  705   8.586   4.497   7.092  0.0506  0.1921  0.1998
   18POPC   C1B  706   8.739   4.669   8.107  0.1134  0.0538  0.2460
   18POPC   C2B  707   8.862   4.396   7.933  0.1151 -0.1208 -0.0110
   18POPC   C3B  708   9.175   4.331   7.685 -0.1389 -0.3579  0.1204
   18POPC   C4B  709   9.664   4.244   7.570 -0.2570 -0.4084 -0.2286
   19POPC   NC3  710   0.295   6.631   8.942  0.0282 -0.1363 -0.2607
   19POPC   PO4  711   0.235   7.095   8.783  0.2679 -0.2993 -0.0351
   19POPC   GL1  712   0.098   7.333   8.399 -0.0663  0.1808  0.1732
   19POPC   GL2  713  -0.188   7.239   8.333  0.1087 -0.0269 -0.2874
   19POPC   C1A  714   0.341   7.562   8.071 -0.1177  0.0344  0.3947
   19POPC   D2A  715   0.469   7.844   7.768  0.1854 -0.2577  0.0388
   19POPC   C3A  716   0.425   7.853   7.314  0.3840  0.0379 -0.0361
   19POPC   C4A  717   0.117   7.929   6.990  0.4679  0.1072 -0.0797
   19POPC   C1B  718  -0.378   7.179   8.023  0.0294 -0.1676 -0.0209
   19POPC   C2B  719  -0.385   7.504   7.674  0.2273 -0.0651 -0.2682
   19POPC   C3B  720  -0.404   7.908   7.429 -0.0709  0.2709 -0.3647
   19POPC   C4B  721  -0.418   8.082   7.120 -0.1273  0.1565  0.1629
   20POPC   NC3  722   7.326   2.529   9.538 -0.0086  0.1692  0.2839
   20POPC   PO4  723   7.143   2.689   9.224 -0.1510 -0.3528  0.0525
   20POPC   GL1  724   7.071   2.561   8.919 -0.1855  0.3723 -0.1598
   20POPC   GL2  725   6.860   2.898   8.844  0.3582  0.0671  0.3386
   20POPC   C1A  726   7.104   2.242   8.540 -0.3291 -0.1340 -0.0060
   20POPC   D2A  727   7.075   1.941   8.156  0.1593 -0.0190 -0.1596
   20POPC   C3A  728   6.788   1.575   7.841 -0.1271  0.0079  0.0355
   20POPC   C4A  729   6.736   1.196   7.802  0.0345  0.0549 -0.0213
   20POPC   C1B  730   7.072   2.786   8.408  0.3092  0.1692  0.0852
   20POPC   C2B  731   7.461   2.883   8.224 -0.0915  0.0094 -0.2288
   20POPC   C3B  732   7.771   3.190   8.072  0.0928 -0.1253 -0.1603
   20POPC   C4B  733   8.164   3.369   8.014  0.2238  0.2966  0.1440
   21POPC   NC3  734   1.525   7.421   8.960  0.0355 -0.1470  0.2766
   21POPC   PO4  735   1.154   7.395   8.809 -0.2548  0.0825  0.0890
   21POPC   GL1  736   1.290   7.082   8.563 -0.0036 -0.0486 -0.3143
   21POPC   GL2  737   1.059   6.927   8.376 -0.1445  0.1932 -0.1134
   21POPC   C1A  738   1.460   7.089   8.111 -0.0028 -0.2588 -0.5495
   21POPC   D2A  739   1.662   7.019   7.690  0.0585  0.1370  0.0309
   21POPC   C3A  740   1.548   7.051   7.256 -0.0342  0.0794  0.2443
   21POPC   C4A  741   1.883   7.007   6.927 -0.0553 -0.0935 -0.1146
   21POPC   C1B  742   1.010   6.935   8.000  0.2019  0.0949 -0.0136
   21POPC   C2B  743   1.074   6.804   7.560 -0.1620 -0.0775 -0.2532
   21POPC   C3B  744   1.223   6.577   7.176  0.2988  0.0407  0.1473
   21POPC   C4B  745   1.370   6.171   7.056 -0.0644  0.0082 -0.0500
   22POPC   NC3  746   8.042   4.378   9.139  0.4648  0.0464  0.1211
   22POPC   PO4  747   7.996   4.088   8.774 -0.1480 -0.0630  0.1425
   22POPC   GL1  748   8.221   3.973   8.437 -0.2542 -0.1916 -0.0507
   22POPC   GL2  749   8.266   4.198   8.199  0.1416  0.2793 -0.1097
   22POPC   C1A  750   8.536   3.752   8.122 -0.0576  0.2291  0.2783
   22POPC   D2A  751   8.505   3.612   7.633 -0.2718 -0.0751  0.3292
   22POPC   C3A  752   8.455   3.123   7.427  0.0469  0.2841 -0.2209
   22POPC   C4A  753   8.774   2.991   7.141  0.6054 -0.1389 -0.0732
   22POPC   C1B  754   8.449   4.077   7.806 -0.1749 -0.0018 -0.0836
   22POPC   C2B  755   8.575   4.058   7.416 -0.1748 -0.1532 -0.2890
   22POPC   C3B  756   8.505   3.957   7.011 -0.1363 -0.1295  0.2229
   22POPC   C4B  757   8.242   4.147   6.771  0.2456  0.3618  0.0367
   23POPC   NC3  758   6.557   5.531   8.717  0.1930  0.0697  0.1571
   23POPC   PO4  759   6.849   5.256   8.724  0.0223  0.2489  0.0340
   23POPC   GL1  760   6.804   5.376   8.354  0.1145  0.1776  0.1004
   23POPC   GL2  761   7.109   5.383   8.246 -0.0052 -0.1535  0.0723
   23POPC   C1A  762   6.707   5.346   7.907 -0.0499  0.0075  0.2440
   23POPC   D2A  763   6.747   5.538   7.457  0.2857 -0.3530 -0.0530
   23POPC   C3A  764   6.963   5.323   7.174  0.3116  0.0921  0.0911
   23POPC   C4A  765   7.059   4.849   7.015 -0.0060  0.0094  0.2190
   23POPC   C1B  766   7.519   5.414   8.054 -0.2862  0.2890  0.0205
   23POPC   C2B  767   7.812   5.216   7.716  0.2026 -0.3818  0.2441
   23POPC   C3B  768   8.235   5.106   7.676 -0.1541  0.4512 -0.0768
   23POPC   C4B  769   8.576   5.137   8.022 -0.1928  0.3010  0.2524
   24POPC   NC3  770   5.517   9.647   8.934 -0.4417  0.4446  0.1571
   24POPC   PO4  771   5.473  10.045   9.073  0.0273 -0.1930 -0.0477
   24POPC   GL1  772   5.358  10.139   8.624 -0.1610 -0.1953 -0.0368
   24POPC   GL2  773   5.459  10.442   8.438  0.1442 -0.2233  0.3205
   24POPC   C1A  774   5.263  10.043   8.186  0.1102  0.4430 -0.0161
   24POPC   D2A  775   5.120  10.235   7.823 -0.0617  0.2507  0.3523
   24POPC   C3A  776   4.984  10.604   7.736  0.3187  0.0185 -0.3668
   24POPC   C4A  777   4.927  10.930   7.990  0.0666 -0.2951 -0.0589
   24POPC   C1B  778   5.530  10.390   8.020 -0.2674 -0.0206 -0.2873
   24POPC   C2B  779   5.601  10.388   7.610 -0.2915 -0.0497  0.0196
   24POPC   C3B  780   5.641  10.350   7.271  0.3512  0.0282  0.1185
   24POPC   C4B  781   5.850  10.437   6.846  0.1744  0.1018  0.2444
   25POPC   NC3  782   0.337  10.129   9.231  0.0387  0.2715  0.2545
   25POPC   PO4  783   0.782   9.891   9.248  0.1206  0.1799  0.0941
   25POPC   GL1  784   0.541   9.591   8.965  0.2186  0.1414  0.0065
   25POPC   GL2  785   0.232   9.400   9.097  0.2280  0.0451 -0.2842
   25POPC   C1A  786   0.621   9.463   8.609 -0.1509  0.4618  0.2797
   25POPC   D2A  787   0.672   9.617   8.236  0.0767  0.0054 -0.1530
   25POPC   C3A  788   0.482  10.070   8.220 -0.0514  0.4414  0.1875
   25POPC   C4A  789   0.370  10.227   7.803 -0.0013 -0.2374 -0.3017
   25POPC   C1B  790   0.117   9.306   8.713  0.1288 -0.2120 -0.1014
   25POPC   C2B  791  -0.112   9.266   8.265  0.1112 -0.0062 -0.0033
   25POPC   C3B  792  -0.426   9.231   7.995  0.4624  0.4696  0.0327
   25POPC   C4B  793  -0.676   9.414   7.575  0.2024 -0.0565  0.2685
   26POPC   NC3  794   3.617   1.884   8.547 -0.3734 -0.0632 -0.0174
   26POPC   PO4  795   3.652   1.490   8.690  0.0936 -0.1017  0.1432
   26POPC   GL1  796   3.543   1.398   8.274 -0.0263 -0.2910 -0.1527
   26POPC   GL2  797   3.564   1.825   8.091  0.2681  0.5656 -0.0599
   26POPC   C1A  798   3.262   1.303   8.043 -0.1310 -0.0216  0.1467
   26POPC   D2A  799   3.231   1.384   7.593 -0.0012  0.0257  0.0569
   26POPC   C3A  800   3.351   1.203   7.209  0.2115 -0.2116  0.2879
   26POPC   C4A  801   3.246   0.920   6.903  0.1515 -0.1283  0.2102
   26POPC   C1B  802   3.683   1.518   7.789  0.0205 -0.1405  0.1302
   26POPC   C2B  803   3.766   1.551   7.419 -0.0896  0.1567  0.0103
   26POPC   C3B  804   3.713   1.427   6.948 -0.2918 -0.0850 -0.1206
   26POPC   C4B  805   3.943   1.521   6.593 -0.0502 -0.0357  0.0158
   27POPC   NC3  806   5.831   3.669   8.429 -0.0688 -0.1155 -0.1075
   27POPC   PO4  807   5.657   3.292   8.396  0.0396 -0.2573 -0.0579
   27POPC   GL1  808   5.521   3.271   7.977 -0.0063 -0.0951  0.2471
   27POPC   GL2  809   5.750   3.508   7.818  0.1127  0.0401  0.0316
   27POPC   C1A  810   5.552   2.826   7.780  0.0385  0.2814  0.1162
   27POPC   D2A  811   5.532   2.446   7.495 -0.0719 -0.1455  0.1654
   27POPC   C3A  812   5.412   2.484   7.117  0.0211  0.2290 -0.0019
   27POPC   C4A  813   4.980   2.442   6.986  0.0413 -0.0578 -0.1759
   27POPC   C1B  814   5.854   3.268   7.356 -0.1475  0.1712 -0.2098
   27POPC   C2B  815   6.055   3.061   7.021 -0.1449  0.1184  0.2120
   27POPC   C3B  816   6.180   2.725   6.679  0.1068  0.1853 -0.3381
   27POPC   C4B  817   6.681   2.844   6.639 -0.2207 -0.0749 -0.0837
   28POPC   NC3  818   5.879   6.930   9.281  0.1833 -0.2111  0.0356
   28POPC   PO4  819   5.671   7.072   8.962 -0.0622  0.2011 -0.0894
   28POPC   GL1  820   5.837   6.983   8.563 -0.2111  0.0906 -0.0780
   28POPC   GL2  821   6.065   6.822   8.471 -0.0517  0.0657 -0.4139
   28POPC   C1A  822   5.826   7.082   8.128 -0.0050 -0.0065 -0.0786
   28POPC   D2A  823   6.159   7.340   8.015  0.2313  0.0943 -0.1378
   28POPC   C3A  824   6.386   7.629   7.803  0.3237 -0.0071 -0.1738
   28POPC   C4A  825   6.696   7.895   7.741  0.2841 -0.0517 -0.0492
   28POPC   C1B  826   5.787   6.463   8.285 -0.0096 -0.3080 -0.0467
   28POPC   C2B  827   5.638   6.514   7.881  0.2880  0.3195  0.2042
   28POPC   C3B  828   5.497   6.551   7.410  0.1171  0.0763  0.0813
   28POPC   C4B  829   5.710   6.357   7.022  0.3024 -0.1319 -0.3761
   29POPC   NC3  830   0.962   8.141   9.099  0.1970  0.1256  0.2043
   29POPC   PO4  831   1.344   7.862   9.047  0.1077  0.0981  0.0467
   29POPC   GL1  832   1.287   7.823   8.569  0.1195 -0.1497 -0.1781
   29POPC   GL2  833   1.494   7.494   8.442  0.0318 -0.1148 -0.1453
   29POPC   C1A  834   1.143   8.127   8.121 -0.2282 -0.1619 -0.1676
   29POPC   D2A  835   0.786   8.196   7.892  0.0010 -0.0907  0.0592
   29POPC   C3A  836   0.853   8.227   7.403 -0.2511  0.0928  0.0664
   29POPC   C4A  837   0.966   8.121   6.994  0.2575 -0.0128 -0.1137
   29POPC   C1B  838   1.293   7.562   8.046 -0.0567 -0.0255  0.0114
   29POPC   C2B  839   1.029   7.718   7.738 -0.0923  0.2112  0.1756
   29POPC   C3B  840   0.896   7.691   7.248  0.0814 -0.0148 -0.0395
   29POPC   C4B  841   1.085   7.437   6.962 -0.2016  0.1817  0.0158
   30POPC   NC3  842  10.030   2.366   9.719  0.2068  0.1421 -0.0228
   30POPC   PO4  843   9.937   2.764   9.576  0.0534 -0.0810  0.0196
   30POPC   GL1  844   9.819   2.476   9.161 -0.0509 -0.4314 -0.1150
   30POPC   GL2  845   9.791   2.821   8.940 -0.1418 -0.0359  0.3474
   30POPC   C1A  846  10.002   2.389   8.782 -0.2227  0.1914 -0.1676
   30POPC   D2A  847  10.331   2.183   8.464 -0.0024  0.1457  0.2975
   30POPC   C3A  848  10.391   2.430   8.047  0.1195 -0.0508 -0.2416
   30POPC   C4A  849  10.548   2.403   7.544  0.2114  0.1102 -0.1394
   30POPC   C1B  850   9.596   2.647   8.519  0.0734  0.0001 -0.1223
   30POPC   C2B  851   9.259   2.710   8.199  0.2575  0.1568  0.2979
   30POPC   C3B  852   9.090   2.829   7.822  0.1786 -0.0181 -0.3273
   30POPC   C4B  853   8.827   2.707   7.507  0.1197  0.2245 -0.0770
   31POPC   NC3  854   1.848   3.462   8.765  0.0914 -0.2396 -0.0963
   31POPC   PO4  855   1.714   3.139   8.573 -0.1031  0.1147 -0.0515
   31POPC   GL1  856   1.510   2.942   8.204 -0.1613  0.1414 -0.0736
   31POPC   GL2  857   1.591   2.652   8.096  0.2024  0.1087 -0.1454
   31POPC   C1A  858   1.142   2.877   7.892 -0.2722  0.0132  0.1287
   31POPC   D2A  859   1.140   2.948   7.336  0.0939  0.0196 -0.0132
   31POPC   C3A  860   0.776   2.863   7.150  0.2167  0.2099 -0.1854
   31POPC   C4A  861   0.365   2.849   7.257  0.0127  0.0405  0.0795
   31POPC   C1B  862   1.839   2.456   7.779  0.0852  0.1769  0.4389
   31POPC   C2B  863   1.985   2.598   7.384 -0.0207  0.2665  0.3659
   31POPC   C3B  864   2.048   2.850   6.958  0.4009 -0.1534  0.4552
   31POPC   C4B  865   1.887   2.896   6.471  0.2793 -0.0393  0.0317
   32POPC   NC3  866   2.905   1.839   9.298 -0.7067 -0.5629  0.1845
   32POPC   PO4  867   2.902   1.848   8.800  0.3276  0.1156 -0.1764
   32POPC   GL1  868   2.967   1.900   8.331 -0.1192 -0.5143 -0.2371
   32POPC   GL2  869   2.924   1.656   8.134  0.0610  0.2509  0.1651
   32POPC   C1A  870   3.038   2.253   8.018  0.1044 -0.0414  0.1573
   32POPC   D2A  871   3.222   2.315   7.542  0.4111  0.0183  0.2380
   32POPC   C3A  872   3.250   2.276   7.078 -0.0780 -0.0431  0.1994
   32POPC   C4A  873   3.168   2.150   6.687  0.0740 -0.0937 -0.2247
   32POPC   C1B  874   3.211   1.851   7.802  0.1735 -0.2151 -0.0136
   32POPC   C2B  875   3.138   1.826   7.437 -0.0427  0.3455 -0.1108
   32POPC   C3B  876   3.006   1.615   6.994  0.2017  0.0229  0.2519
   32POPC   C4B  877   2.910   1.647   6.577  0.2634 -0.2363 -0.1207
   33POPC   NC3  878   8.819   1.271   9.879 -0.1489 -0.0680 -0.0990
   33POPC   PO4  879   8.967   1.575   9.816 -0.1467  0.2083 -0.4172
   33POPC   GL1  880   9.259   1.576   9.404  0.0084  0.0091 -0.0575
   33POPC   GL2  881   9.598   1.791   9.393  0.0685  0.0602 -0.1693
   33POPC   C1A  882   9.102   1.591   8.982  0.0453 -0.1328 -0.0939
   33POPC   D2A  883   8.876   1.470   8.621 -0.1372  0.0330 -0.2202
   33POPC   C3A  884   8.762   1.052   8.352 -0.0989 -0.0012  0.1138
   33POPC   C4A  885   8.726   0.658   8.017 -0.1308  0.0687  0.0069
   33POPC   C1B  886   9.560   1.782   8.885 -0.1344 -0.1679  0.2140
   33POPC   C2B  887   9.406   1.607   8.538  0.1860  0.1446 -0.1007
   33POPC   C3B  888   9.450   1.612   8.094  0.0041 -0.3711  0.0635
   33POPC   C4B  889   9.748   1.345   7.877  0.2870  0.0006  0.1105
   34POPC   NC3  890   9.203   3.730   8.766  0.2062  0.0097 -0.2972
   34POPC   PO4  891   9.306   4.238   8.841 -0.0360  0.2068 -0.0961
   34POPC   GL1  892   9.427   4.188   8.431 -0.0760 -0.1648 -0.2845
   34POPC   GL2  893   9.333   3.905   8.365  0.1542  0.0954 -0.1265
   34POPC   C1A  894   9.388   4.435   8.151 -0.1737  0.0614  0.3996
   34POPC   D2A  895   9.565   4.808   7.877  0.2162  0.2549 -0.2638
   34POPC   C3A  896   9.380   4.706   7.399  0.1475 -0.1589  0.1494
   34POPC   C4A  897   9.575   4.896   7.001  0.2987 -0.1358 -0.2962
   34POPC   C1B  898   9.047   3.837   8.016 -0.1602  0.1343 -0.0360
   34POPC   C2B  899   8.964   3.814   7.569  0.0499  0.3498 -0.1095
   34POPC   C3B  900   8.890   3.668   7.189  0.5234 -0.0996  0.0472
   34POPC   C4B  901   9.151   3.513   6.821 -0.1114  0.1497 -0.0260
   35POPC   NC3  902   2.402   5.158   8.750 -0.1925  0.2209  0.3315
   35POPC   PO4  903   2.696   5.455   8.678  0.1276 -0.1125 -0.4063
   35POPC   GL1  904   2.527   5.554   8.303 -0.3635 -0.0653  0.2666
   35POPC   GL2  905   2.297   5.285   8.291  0.2210 -0.0205  0.1735
   35POPC   C1A  906   2.632   5.613   7.865 -0.0039  0.1881  0.0032
   35POPC   D2A  907   2.397   5.419   7.508 -0.0159 -0.3932  0.0424
   35POPC   C3A  908   2.632   5.339   7.124  0.0223  0.1409  0.1199
   35POPC   C4A  909   2.841   5.260   6.696  0.0101  0.0302  0.3943
   35POPC   C1B  910   2.101   5.180   7.858  0.2821 -0.2752 -0.1080
   35POPC   C2B  911   2.144   5.035   7.461  0.2391  0.0492  0.1323
   35POPC   C3B  912   2.340   4.953   7.124  0.0194 -0.0689  0.1665
   35POPC   C4B  913   2.508   4.735   6.732  0.0345 -0.3735 -0.0019
   36POPC   NC3  914   3.910   2.628   9.154 -0.2412  0.3018 -0.0299
   36POPC   PO4  915   3.664   2.357   8.827  0.0570 -0.0176  0.3216
   36POPC   GL1  916   3.721   2.427   8.416  0.0380 -0.0192  0.0635
   36POPC   GL2  917   3.485   2.292   8.206  0.1003  0.3182  0.2723
   36POPC   C1A  918   3.904   2.400   7.982 -0.0939 -0.2755  0.2859
   36POPC   D2A  919   3.660   2.110   7.613  0.0080 -0.2154 -0.1255
   36POPC   C3A  920   3.853   2.145   7.268 -0.0527 -0.1338  0.1170
   36POPC   C4A  921   4.233   2.172   7.081 -0.2618  0.0791  0.0481
   36POPC   C1B  922   3.373   2.605   7.990  0.1523  0.1100 -0.0819
   36POPC   C2B  923   3.080   2.881   7.957  0.2420  0.2350  0.1104
   36POPC   C3B  924   2.983   2.775   7.596  0.0619  0.0449 -0.1492
   36POPC   C4B  925   3.103   2.738   7.221  0.1510 -0.3259 -0.0045
   37POPC   NC3  926   4.998   6.541   9.034 -0.1285 -0.0515 -0.1695
   37POPC   PO4  927   4.701   6.336   8.658  0.1298 -0.2985  0.1058
   37POPC   GL1  928   4.737   6.055   8.328 -0.0200 -0.0238  0.0918
   37POPC   GL2  929   4.399   6.108   8.265 -0.1765  0.4427 -0.0423
   37POPC   C1A  930   4.959   6.050   7.988  0.2901 -0.1904  0.0832
   37POPC   D2A  931   5.232   6.083   7.621  0.0361  0.0049 -0.0913
   37POPC   C3A  932   5.636   5.979   7.401  0.0027  0.0587  0.1207
   37POPC   C4A  933   5.726   5.649   7.134 -0.2779 -0.1442  0.2015
   37POPC   C1B  934   4.169   6.319   7.861 -0.0566 -0.5299 -0.1678
   37POPC   C2B  935   3.958   6.374   7.500 -0.1361  0.0493  0.1992
   37POPC   C3B  936   3.545   6.305   7.442 -0.0889 -0.1606  0.1816
   37POPC   C4B  937   3.539   6.008   7.213 -0.0420  0.1724 -0.4082
   38POPC   NC3  938   1.646  10.243   9.216 -0.3223  0.1025 -0.1445
   38POPC   PO4  939   2.101  10.045   9.099 -0.2110  0.2043  0.2162
   38POPC   GL1  940   2.149  10.237   8.637  0.2167 -0.2580  0.0543
   38POPC   GL2  941   1.929   9.968   8.417  0.2608  0.1720 -0.2643
   38POPC   C1A  942   2.363  10.199   8.188  0.2393  0.0130 -0.2739
   38POPC   D2A  943   2.507  10.223   7.825 -0.2132  0.0894 -0.1921
   38POPC   C3A  944   2.389   9.939   7.485 -0.1706  0.0090 -0.1233
   38POPC   C4A  945   2.406   9.630   7.282  0.3289  0.3328  0.1546
   38POPC   C1B  946   1.695  10.344   8.352 -0.3954 -0.0737  0.0391
   38POPC   C2B  947   1.466  10.496   8.110  0.0765 -0.0040  0.3126
   38POPC   C3B  948   1.119  10.712   7.852  0.0849  0.0219 -0.0969
   38POPC   C4B  949   1.015  11.137   7.553 -0.1808  0.2675  0.5096
   39POPC   NC3  950   5.301   0.762   8.749 -0.1199 -0.2349 -0.0791
   39POPC   PO4  951   4.886   0.651   8.912 -0.1294 -0.1713 -0.1241
   39POPC   GL1  952   4.574   0.495   8.478 -0.0665 -0.0857 -0.0198
   39POPC   GL2  953   4.374   0.695   8.216  0.2579 -0.1301 -0.1741
   39POPC   C1A  954   4.475   0.269   8.072 -0.3639  0.1834  0.0692
   39POPC   D2A  955   4.433   0.245   7.666 -0.4197  0.2119  0.1223
   39POPC   C3A  956   4.739   0.389   7.430  0.0036 -0.1761 -0.1226
   39POPC   C4A  957   5.131   0.681   7.393  0.1144 -0.0179  0.0993
   39POPC   C1B  958   4.172   0.741   7.828 -0.0334 -0.5838  0.0286
   39POPC   C2B  959   4.420   0.859   7.419 -0.3685  0.2610 -0.0633
   39POPC   C3B  960   4.756   0.848   7.098  0.0381  0.5314  0.1817
   39POPC   C4B  961   4.847   0.810   6.756 -0.0959  0.0356  0.0637
   40POPC   NC3  962   6.829   9.109   9.561  0.0466 -0.1918 -0.2457
   40POPC   PO4  963   6.679   8.845   9.244 -0.0942 -0.2974  0.1497
   40POPC   GL1  964   6.550   8.734   8.765 -0.1538  0.0930  0.0292
   40POPC   GL2  965   6.495   8.406   8.566  0.2133  0.0448  0.2332
   40POPC   C1A  966   6.659   8.900   8.352 -0.0477 -0.3858 -0.0751
   40POPC   D2A  967   6.609   9.316   8.113 -0.1966  0.0043  0.0129
   40POPC   C3A  968   6.405   9.392   7.683 -0.0484  0.0044  0.0452
   40POPC   C4A  969   6.230   9.159   7.387 -0.0573  0.4149 -0.1627
   40POPC   C1B  970   6.332   8.594   8.142 -0.1029 -0.2527  0.2939
   40POPC   C2B  971   6.509   8.885   7.840 -0.0772 -0.1392 -0.1861
   40POPC   C3B  972   6.704   9.003   7.509 -0.0771 -0.1512  0.2040
   40POPC   C4B  973   6.612   9.103   7.040 -0.1247 -0.1678 -0.0677
   41POPC   NC3  974   5.896   5.977   9.112 -0.2024  0.3227 -0.0747
   41POPC   PO4  975   6.314   6.257   9.010  0.1518  0.0008 -0.2245
   41POPC   GL1  976   6.332   6.335   8.559  0.2186 -0.3105 -0.3903
   41POPC   GL2  977   6.323   6.414   8.377 -0.3525  0.2339  0.1754
   41POPC   C1A  978   6.058   6.022   8.197 -0.1938 -0.1069  0.1903
   41POPC   D2A  979   6.009   6.114   7.728  0.0522 -0.1784 -0.0415
   41POPC   C3A  980   6.020   6.508   7.528  0.2919  0.4069 -0.0857
   41POPC   C4A  981   5.943   6.760   7.157  0.0600 -0.0886 -0.1692
   41POPC   C1B  982   6.165   6.683   7.992 -0.3285  0.0645 -0.0058
   41POPC   C2B  983   6.015   6.979   7.692 -0.0105  0.1399 -0.0123
   41POPC   C3B  984   6.054   7.355   7.485  0.1204  0.1681 -0.0293
   41POPC   C4B  985   5.955   7.594   7.215  0.2328 -0.4143 -0.0604
   42POPC   NC3  986   3.277   6.410   8.531 -0.1268  0.2834  0.3710
   42POPC   PO4  987   3.070   6.748   8.495  0.1250  0.0431  0.1035
   42POPC   GL1  988   3.028   6.793   8.133 -0.2851  0.1822  0.0612
   42POPC   GL2  989   2.887   6.415   8.138 -0.0216  0.0314  0.2392
   42POPC   C1A  990   3.210   7.060   7.828 -0.1859  0.1471  0.0287
   42POPC   D2A  991   3.494   7.240   7.499  0.0531  0.1809  0.0878
   42POPC   C3A  992   3.449   7.163   7.064  0.1597 -0.2334  0.0815
   42POPC   C4A  993   3.499   6.997   6.653  0.2262 -0.0114 -0.1394
   42POPC   C1B  994   2.703   6.320   7.781 -0.1946 -0.1160 -0.0153
   42POPC   C2B  995   2.725   6.279   7.414 -0.0416 -0.0394  0.0915
   42POPC   C3B  996   2.355   6.311   7.173 -0.0629  0.1245  0.4765
   42POPC   C4B  997   1.977   6.553   7.229  0.2174  0.0659 -0.1225
   43POPC   NC3  998  10.184   8.291   9.443  0.1814  0.0588  0.0548
   43POPC   PO4  999  10.596   8.427   9.366 -0.0009  0.0290 -0.0029
   43POPC   GL1 1000  10.366   8.500   8.996 -0.0166  0.4706 -0.3449
   43POPC   GL2 1001  10.160   8.782   8.959 -0.0301 -0.0117 -0.1765
   43POPC   C1A 1002  10.195   8.320   8.529 -0.1119 -0.0012 -0.3086
   43POPC   D2A 1003  10.291   8.275   8.118 -0.0634 -0.0996 -0.2255
   43POPC   C3A 1004  10.171   8.244   7.776  0.0663  0.1784 -0.2557
   43POPC   C4A 1005  10.419   8.235   7.378  0.1081 -0.1157 -0.0992
   43POPC   C1B 1006  10.302   8.826   8.494 -0.2928 -0.3751 -0.1166
   43POPC   C2B 1007  10.458   8.774   8.050  0.0796 -0.3316  0.1277
   43POPC   C3B 1008  10.622   8.888   7.576  0.0810 -0.2741  0.0016
   43POPC   C4B 1009  10.780   9.307   7.377 -0.3051  0.0353 -0.0022
   44POPC   NC3 1010   3.922   1.850   9.019  0.0568  0.2746 -0.1542
   44POPC   PO4 1011   4.217   1.481   8.847 -0.1448 -0.0615  0.1808
   44POPC   GL1 1012   4.339   1.341   8.497  0.1975  0.0434  0.2257
   44POPC   GL2 1013   4.760   1.428   8.434  0.0823  0.2004 -0.0947
   44POPC   C1A 1014   4.477   1.153   8.078 -0.1937 -0.1265  0.1078
   44POPC   D2A 1015   4.801   0.964   7.797 -0.0566  0.2652 -0.2678
   44POPC   C3A 1016   4.927   1.129   7.488 -0.0249 -0.1792 -0.0472
   44POPC   C4A 1017   5.117   1.212   7.010  0.0594  0.2075  0.2171
   44POPC   C1B 1018   4.927   1.309   8.040  0.0870  0.3502 -0.0790
   44POPC   C2B 1019   5.068   1.562   7.776 -0.1717  0.0681  0.2143
   44POPC   C3B 1020   5.092   1.629   7.380  0.1461 -0.1188  0.0209
   44POPC   C4B 1021   5.273   1.872   7.251 -0.1022 -0.0071 -0.1606
   45POPC   NC3 1022   9.925   3.246   9.193 -0.0025  0.1135 -0.2637
   45POPC   PO4 1023   9.956   3.279   8.827  0.0494 -0.2019  0.1463
   45POPC   GL1 1024  10.108   3.029   8.531 -0.3356 -0.0717 -0.3312
   45POPC   GL2 1025  10.465   2.930   8.523  0.1109 -0.2556 -0.0003
   45POPC   C1A 1026  10.073   2.640   8.375  0.0273 -0.2826  0.3090
   45POPC   D2A 1027   9.849   2.391   8.061  0.0751 -0.0217 -0.2132
   45POPC   C3A 1028   9.545   2.548   7.803  0.0319 -0.0703 -0.0711
   45POPC   C4A 1029   9.418   2.759   7.382 -0.4175  0.4339 -0.1103
   45POPC   C1B 1030  10.431   2.978   8.099  0.0902 -0.1434 -0.0744
   45POPC   C2B 1031  10.415   2.885   7.590 -0.3226  0.1043 -0.1785
   45POPC   C3B 1032  10.381   3.119   7.156  0.2227 -0.3206 -0.0488
   45POPC   C4B 1033  10.610   3.153   6.790  0.2591  0.1151 -0.0262
   46POPC   NC3 1034   1.175   6.432   9.211  0.1310  0.2423  0.2389
   46POPC   PO4 1035   1.167   6.115   8.837  0.0078  0.0635  0.0928
   46POPC   GL1 1036   1.040   6.089   8.328  0.0606 -0.2325  0.0394
   46POPC   GL2 1037   0.806   6.305   8.358 -0.2035 -0.1558 -0.1148
   46POPC   C1A 1038   1.401   6.039   8.022  0.2794 -0.1376 -0.0301
   46POPC   D2A 1039   1.760   5.991   7.750  0.0161  0.2471 -0.0162
   46POPC   C3A 1040   1.828   6.015   7.323 -0.2758  0.1166 -0.2370
   46POPC   C4A 1041   1.853   6.164   6.845 -0.1567  0.2395 -0.0485
   46POPC   C1B 1042   0.643   6.464   8.088  0.2611 -0.0941 -0.4711
   46POPC   C2B 1043   0.618   6.796   7.755  0.0837  0.4118  0.0431
   46POPC   C3B 1044   0.397   6.949   7.379  0.1917  0.1866 -0.1352
   46POPC   C4B 1045   0.072   6.999   7.062 -0.0551  0.3077 -0.1046
   47POPC   NC3 1046   3.105   4.528   9.009  0.0590  0.2182 -0.1132
   47POPC   PO4 1047   3.073   4.612   8.572 -0.1434  0.0364  0.0066
   47POPC   GL1 1048   2.993   4.718   8.218 -0.0366  0.0216 -0.0892
   47POPC   GL2 1049   2.811   5.075   8.319 -0.2023  0.2969 -0.0233
   47POPC   C1A 1050   3.146   4.969   7.890 -0.1588  0.0891 -0.2126
   47POPC   D2A 1051   3.413   4.928   7.628  0.0320  0.0990  0.0095
   47POPC   C3A 1052   3.365   5.120   7.115 -0.0103  0.0119 -0.0001
   47POPC   C4A 1053   3.372   5.173   6.622 -0.2103  0.4042 -0.0244
   47POPC   C1B 1054   2.576   5.052   7.860  0.1250  0.0695  0.2025
   47POPC   C2B 1055   2.754   5.023   7.505  0.0561 -0.2428  0.2716
   47POPC   C3B 1056   2.883   4.882   7.081 -0.0212 -0.0940  0.1837
   47POPC   C4B 1057   3.085   4.736   6.886  0.1972 -0.0169  0.2065
   48POPC   NC3 1058   2.264   3.446   9.143 -0.1123 -0.2417  0.0567
   48POPC   PO4 1059   2.483   3.448   8.794 -0.0783  0.1543  0.3258
   48POPC   GL1 1060   2.334   3.239   8.415 -0.1853  0.2350 -0.0255
   48POPC   GL2 1061   1.964   3.288   8.166  0.0845  0.1067 -0.1119
   48POPC   C1A 1062   2.324   3.632   8.077  0.1393 -0.0464  0.2273
   48POPC   D2A 1063   2.049   3.698   7.608  0.0649  0.2587 -0.0338
   48POPC   C3A 1064   1.689   3.667   7.595  0.3145 -0.1279  0.1730
   48POPC   C4A 1065   1.469   3.398   7.251 -0.1494 -0.0939  0.1665
   48POPC   C1B 1066   2.004   2.987   7.753 -0.0211  0.1382 -0.0347
   48POPC   C2B 1067   1.899   3.123   7.344 -0.3883  0.1895  0.0847
   48POPC   C3B 1068   2.084   3.341   7.127  0.1020 -0.0237  0.0035
   48POPC   C4B 1069   2.486   3.586   7.225  0.0667 -0.0573  0.2413
   49POPC   NC3 1070   5.064   8.874   8.949  0.1093  0.1872  0.1250
   49POPC   PO4 1071   4.717   9.121   8.867  0.0949  0.2829 -0.3734
   49POPC   GL1 1072   4.821   9.114   8.489 -0.1141  0.0098  0.3072
   49POPC   GL2 1073   4.895   8.767   8.517  0.5010 -0.3153  0.0035
   49POPC   C1A 1074   5.211   9.032   8.272  0.3321 -0.1171 -0.1071
   49POPC   D2A 1075   5.555   8.898   7.969 -0.0315  0.1151  0.2267
   49POPC   C3A 1076   5.500   9.213   7.620 -0.0128  0.1460  0.2493
   49POPC   C4A 1077   5.639   9.287   7.168 -0.0006  0.2096 -0.0534
   49POPC   C1B 1078   4.795   8.822   8.042  0.0511  0.0781 -0.3150
   49POPC   C2B 1079   4.581   8.904   7.614 -0.2448 -0.0261  0.2978
   49POPC   C3B 1080   4.471   8.879   7.239 -0.1126 -0.0000  0.0916
   49POPC   C4B 1081   4.456   8.838   6.756  0.1838  0.2679 -0.0993
   50POPC   NC3 1082   9.111   8.103   9.576 -0.1484 -0.0854  0.0108
   50POPC   PO4 1083   9.404   7.916   9.268  0.1196 -0.2936 -0.1782
   50POPC   GL1 1084   9.325   8.063   8.863 -0.1647 -0.2488  0.1394
   50POPC   GL2 1085   9.094   8.267   8.686 -0.4143 -0.1764 -0.0873
   50POPC   C1A 1086   9.558   8.415   8.592  0.1348  0.2581 -0.1187
   50POPC   D2A 1087   9.815   8.338   8.196 -0.1156  0.2554 -0.3833
   50POPC   C3A 1088   9.463   8.437   7.862 -0.2424 -0.0799 -0.1429
   50POPC   C4A 1089   9.367   8.594   7.518 -0.2464  0.1730 -0.0672
   50POPC   C1B 1090   9.190   8.498   8.228 -0.2003  0.4118 -0.3496
   50POPC   C2B 1091   9.457   8.810   8.196 -0.2259 -0.2721  0.2043
   50POPC   C3B 1092   9.509   9.113   8.196 -0.0856  0.0477  0.2829
   50POPC   C4B 1093   9.611   9.565   8.296 -0.2003  0.2013 -0.1046
   51POPC   NC3 1094   2.468   9.128   8.815  0.1707 -0.1580 -0.1734
   51POPC   PO4 1095   2.925   9.071   8.972 -0.2391 -0.0481  0.0378
   51POPC   GL1 1096   3.078   8.940   8.606 -0.2706  0.1471 -0.0518
   51POPC   GL2 1097   3.328   8.791   8.402  0.1022 -0.1840 -0.0816
   51POPC   C1A 1098   2.891   9.023   8.252  0.1107 -0.1221  0.2608
   51POPC   D2A 1099   2.883   9.233   7.918 -0.0065  0.1066  0.1707
   51POPC   C3A 1100   2.776   8.973   7.651 -0.1853  0.1806  0.0675
   51POPC   C4A 1101   2.884   8.687   7.305  0.0377  0.0731 -0.3858
   51POPC   C1B 1102   3.477   8.593   7.992 -0.1465  0.2382 -0.1392
   51POPC   C2B 1103   3.787   8.342   7.871 -0.0922  0.0849 -0.1689
   51POPC   C3B 1104   3.989   8.148   7.469 -0.1443  0.0621 -0.0789
   51POPC   C4B 1105   4.274   7.885   7.404 -0.7867 -0.1048 -0.2227
   52POPC   NC3 1106   4.802   3.029   9.400 -0.0112  0.0628  0.0673
   52POPC   PO4 1107   4.821   2.975   8.908 -0.4119 -0.2583 -0.1802
   52POPC   GL1 1108   4.580   2.864   8.519 -0.1333 -0.0018 -0.3117
   52POPC   GL2 1109   4.277   2.803   8.418  0.0312  0.2696 -0.1016
   52POPC   C1A 1110   4.640   2.903   8.078 -0.2189  0.0975 -0.1623
   52POPC   D2A 1111   4.871   2.589   7.850 -0.1771  0.1988  0.0831
   52POPC   C3A 1112   5.097   2.819   7.475  0.1255 -0.1428 -0.0921
   52POPC   C4A 1113   5.473   2.943   7.255 -0.2401  0.3613 -0.0762
   52POPC   C1B 1114   4.416   2.454   8.177 -0.1519 -0.3926  0.3396
   52POPC   C2B 1115   4.423   2.325   7.767 -0.3960 -0.0029  0.0627
   52POPC   C3B 1116   4.123   2.478   7.461 -0.3918 -0.1841 -0.2293
   52POPC   C4B 1117   4.037   2.894   7.311  0.1238 -0.2084 -0.4285
   53POPC   NC3 1118   4.887   3.808   8.627 -0.0684  0.0249  0.1264
   53POPC   PO4 1119   5.247   3.642   8.584  0.0447 -0.1057 -0.1613
   53POPC   GL1 1120   5.294   3.714   8.114 -0.0063 -0.0223  0.3549
   53POPC   GL2 1121   4.950   3.667   8.064 -0.0575  0.0987 -0.1783
   53POPC   C1A 1122   5.198   4.012   7.823 -0.0036 -0.2829  0.2565
   53POPC   D2A 1123   5.457   4.291   7.602  0.2420 -0.0522 -0.1988
   53POPC   C3A 1124   5.448   4.532   7.173  0.0437 -0.3009 -0.0858
   53POPC   C4A 1125   5.706   4.723   6.958  0.0728 -0.2900 -0.2208
   53POPC   C1B 1126   4.907   3.689   7.678  0.1334  0.1509  0.1001
   53POPC   C2B 1127   4.552   3.478   7.396  0.1525 -0.0196  0.1091
   53POPC   C3B 1128   4.665   3.115   7.189  0.0804 -0.0549 -0.4212
   53POPC   C4B 1129   5.046   3.148   7.024  0.1197 -0.0095 -0.1028
   54POPC   NC3 1130   9.517   6.615   8.526  0.0058 -0.0178 -0.1443
   54POPC   PO4 1131   9.926   6.451   8.683 -0.2116  0.2760 -0.1571
   54POPC   GL1 1132  10.003   6.285   8.292  0.0573 -0.0108 -0.1513
   54POPC   GL2 1133   9.780   6.406   8.187  0.0008 -0.1764  0.0834
   54POPC   C1A 1134   9.928   5.957   7.962  0.1147  0.1186  0.0948
   54POPC   D2A 1135   9.728   5.628   7.742 -0.0428 -0.3460  0.4722
   54POPC   C3A 1136   9.530   5.798   7.363  0.1434  0.0869 -0.0675
   54POPC   C4A 1137   9.633   5.740   6.912  0.1840 -0.0702 -0.2418
   54POPC   C1B 1138   9.847   6.415   7.734 -0.1514 -0.2374 -0.0901
   54POPC   C2B 1139   9.949   6.223   7.343  0.0000 -0.1437  0.0973
   54POPC   C3B 1140  10.070   6.032   6.935 -0.0097  0.1156  0.1363
   54POPC   C4B 1141  10.506   5.789   6.854  0.4398  0.1040  0.0474
   55POPC   NC3 1142   8.651   7.345   8.448  0.0514  0.0921 -0.0295
   55POPC   PO4 1143   8.548   7.554   8.777 -0.2221 -0.1311 -0.0243
   55POPC   GL1 1144   8.227   7.658   8.469 -0.1797 -0.3459  0.2449
   55POPC   GL2 1145   8.386   7.567   8.149  0.2568  0.0918 -0.0273
   55POPC   C1A 1146   7.959   7.719   8.047  0.0405 -0.2187 -0.1606
   55POPC   D2A 1147   7.538   7.586   7.916 -0.2534  0.0476 -0.2806
   55POPC   C3A 1148   7.254   7.838   7.715  0.0518  0.0311  0.1147
   55POPC   C4A 1149   7.138   8.201   7.817  0.2723 -0.1749  0.4228
   55POPC   C1B 1150   8.546   7.248   7.820 -0.1443 -0.0735  0.1713
   55POPC   C2B 1151   8.477   6.911   7.422 -0.1305  0.0606 -0.0159
   55POPC   C3B 1152   8.695   6.859   7.066  0.2919  0.3816  0.0758
   55POPC   C4B 1153   8.903   7.155   6.785  0.1476  0.1484  0.1631
   56POPC   NC3 1154   7.269   0.576  10.074  0.1140  0.3274  0.0242
   56POPC   PO4 1155   6.895   0.626   9.718 -0.1614  0.3258 -0.2092
   56POPC   GL1 1156   7.204   0.473   9.394  0.2536 -0.0146  0.0626
   56POPC   GL2 1157   7.167   0.308   9.116 -0.1276 -0.0919  0.3850
   56POPC   C1A 1158   7.536   0.651   9.130  0.0733  0.1173 -0.1132
   56POPC   D2A 1159   7.804   0.852   8.749 -0.2004 -0.0036 -0.1440
   56POPC   C3A 1160   8.312   0.834   8.582 -0.0206  0.3404 -0.2816
   56POPC   C4A 1161   8.466   0.416   8.378  0.4215 -0.0839  0.0958
   56POPC   C1B 1162   7.218   0.528   8.706  0.2088 -0.3699 -0.0115
   56POPC   C2B 1163   7.523   0.484   8.436 -0.0106  0.0436  0.4287
   56POPC   C3B 1164   7.917   0.718   8.265 -0.1595  0.0129  0.1463
   56POPC   C4B 1165   8.238   0.896   8.098 -0.0529  0.0732  0.2446
   57POPC   NC3 1166   4.851  10.330   8.727  0.0027 -0.0403 -0.1496
   57POPC   PO4 1167   4.475  10.043   8.546 -0.1435  0.2576  0.2053
   57POPC   GL1 1168   4.480  10.260   8.211  0.1034 -0.1214  0.0835
   57POPC   GL2 1169   4.174  10.332   8.114  0.3201  0.0963 -0.1301
   57POPC   C1A 1170   4.608  10.295   7.757 -0.0217  0.1113 -0.1965
   57POPC   D2A 1171   4.828  10.285   7.380  0.2183  0.2177 -0.0211
   57POPC   C3A 1172   5.166  10.520   7.293 -0.0139 -0.2266 -0.0428
   57POPC   C4A 1173   5.394  10.738   7.007 -0.2851  0.0281  0.2122
   57POPC   C1B 1174   4.079  10.380   7.732  0.0116 -0.2600  0.0200
   57POPC   C2B 1175   4.293  10.293   7.319 -0.0551 -0.3115 -0.3895
   57POPC   C3B 1176   4.385  10.632   7.038 -0.1835  0.2517  0.0144
   57POPC   C4B 1177   4.382  11.104   6.910  0.0349 -0.0084  0.0500
   58POPC   NC3 1178   8.278   5.676   8.811  0.3307  0.1555 -0.1277
   58POPC   PO4 1179   7.796   5.537   8.755 -0.0025 -0.1017  0.4224
   58POPC   GL1 1180   7.929   5.566   8.400 -0.1781  0.0265 -0.0895
   58POPC   GL2 1181   8.053   5.877   8.378  0.0324 -0.0459 -0.0986
   58POPC   C1A 1182   8.079   5.287   8.183 -0.3841  0.0681 -0.2854
   58POPC   D2A 1183   8.258   4.781   8.130  0.3472  0.1337  0.0718
   58POPC   C3A 1184   8.361   4.627   7.686  0.0319  0.2261  0.2766
   58POPC   C4A 1185   8.154   4.765   7.265  0.1301 -0.1818  0.0717
   58POPC   C1B 1186   8.006   5.878   8.015 -0.0033 -0.0729 -0.1742
   58POPC   C2B 1187   7.697   5.742   7.580  0.3791 -0.0330  0.0072
   58POPC   C3B 1188   7.461   5.549   7.404 -0.1625  0.0773  0.1198
   58POPC   C4B 1189   7.472   5.397   6.992  0.0855 -0.1835  0.0037
   59POPC   NC3 1190  10.383   4.303   8.828 -0.3905  0.1258 -0.0456
   59POPC   PO4 1191  10.665   3.952   8.793  0.1585  0.0782 -0.0589
   59POPC   GL1 1192  10.816   3.608   8.432 -0.1503 -0.0054 -0.2293
   59POPC   GL2 1193  10.564   3.477   8.228  0.2679  0.1557  0.0845
   59POPC   C1A 1194  11.151   3.638   8.176  0.1923  0.1480 -0.1645
   59POPC   D2A 1195  11.089   3.649   7.693 -0.4287 -0.0992  0.1960
   59POPC   C3A 1196  11.364   3.831   7.385 -0.0257  0.2027 -0.3107
   59POPC   C4A 1197  11.755   3.894   7.271  0.0703 -0.0066  0.1214
   59POPC   C1B 1198  10.672   3.838   7.994  0.1725 -0.2845  0.2342
   59POPC   C2B 1199  10.572   3.839   7.509 -0.1831 -0.0639  0.1232
   59POPC   C3B 1200  10.399   3.673   7.124  0.0687 -0.4164  0.0826
   59POPC   C4B 1201  10.192   3.431   6.770 -0.2930 -0.1141  0.0357
   60POPC   NC3 1202   4.951   7.266   8.615  0.0299 -0.0592  0.1357
   60POPC   PO4 1203   4.768   6.853   8.689  0.3167 -0.0790 -0.2074
   60POPC   GL1 1204   4.777   6.864   8.265 -0.2032 -0.0707  0.0575
   60POPC   GL2 1205   4.934   6.560   8.289  0.0505  0.0308 -0.1109
   60POPC   C1A 1206   5.090   7.124   8.005  0.0934 -0.0923  0.0247
   60POPC   D2A 1207   5.449   7.000   7.716 -0.0089 -0.0918  0.2519
   60POPC   C3A 1208   5.534   7.120   7.356 -0.1756  0.2083  0.1452
   60POPC   C4A 1209   5.691   7.268   6.927 -0.3111  0.1206 -0.1109
   60POPC   C1B 1210   4.645   6.481   7.957  0.1014 -0.1443 -0.1133
   60POPC   C2B 1211   4.762   6.316   7.579 -0.0919  0.0117 -0.0157
   60POPC   C3B 1212   4.385   6.261   7.252  0.0534 -0.1816  0.1643
   60POPC   C4B 1213   4.060   6.099   6.931  0.2091  0.1262  0.0334
   61POPC   NC3 1214   5.256   5.176   8.560 -0.2599  0.1711  0.1895
   61POPC   PO4 1215   5.294   4.733   8.283  0.0640  0.3597 -0.0748
   61POPC   GL1 1216   5.142   5.045   7.978  0.1066  0.0986  0.0081
   61POPC   GL2 1217   4.744   4.970   7.876 -0.0209 -0.1167 -0.2310
   61POPC   C1A 1218   5.266   5.107   7.587  0.2359  0.1320 -0.0433
   61POPC   D2A 1219   5.257   5.234   7.138 -0.3550  0.0424  0.2071
   61POPC   C3A 1220   5.618   5.323   6.870 -0.1757  0.1286  0.2717
   61POPC   C4A 1221   5.627   5.713   6.650  0.3336 -0.2149  0.3770
   61POPC   C1B 1222   4.661   5.000   7.519  0.1123 -0.1528  0.2845
   61POPC   C2B 1223   4.346   4.947   7.135  0.3837 -0.0360 -0.2662
   61POPC   C3B 1224   4.089   4.731   6.934 -0.1563 -0.0630 -0.3018
   61POPC   C4B 1225   3.688   4.671   6.945 -0.3472 -0.0925 -0.0055
   62POPC   NC3 1226   5.547   2.514   8.830  0.0113 -0.2448 -0.2703
   62POPC   PO4 1227   5.828   2.795   8.536 -0.0578 -0.1638  0.1741
   62POPC   GL1 1228   5.872   2.596   8.197 -0.1815 -0.2028 -0.4251
   62POPC   GL2 1229   6.189   2.541   8.278  0.2533  0.0243 -0.2190
   62POPC   C1A 1230   5.753   2.368   7.908 -0.0873  0.3036 -0.1634
   62POPC   D2A 1231   6.024   2.019   7.840  0.1370 -0.0099  0.1621
   62POPC   C3A 1232   6.526   1.989   7.776 -0.0738  0.3132  0.0100
   62POPC   C4A 1233   6.741   1.971   7.380 -0.0268 -0.0793  0.1678
   62POPC   C1B 1234   6.253   2.472   7.812  0.0149  0.0018  0.3546
   62POPC   C2B 1235   6.323   2.310   7.417 -0.2275 -0.2145 -0.1023
   62POPC   C3B 1236   6.367   2.048   7.090  0.0236 -0.0402  0.0527
   62POPC   C4B 1237   6.075   2.166   6.716 -0.1403 -0.2337  0.0944
   63POPC   NC3 1238   1.357   1.298   9.208  0.0697  0.6234  0.0635
   63POPC   PO4 1239   1.450   1.410   8.805  0.0462 -0.0983 -0.1415
   63POPC   GL1 1240   1.159   1.384   8.477  0.3101 -0.1656  0.3347
   63POPC   GL2 1241   1.281   1.492   8.202 -0.1298  0.0522  0.3062
   63POPC   C1A 1242   0.872   1.150   8.162  0.0448  0.2870  0.0536
   63POPC   D2A 1243   0.625   1.234   7.772  0.1049 -0.0797  0.1293
   63POPC   C3A 1244   0.279   1.470   7.596 -0.0724  0.0986 -0.1857
   63POPC   C4A 1245   0.337   1.588   7.008 -0.4532  0.0376 -0.0475
   63POPC   C1B 1246   1.130   1.591   7.772 -0.0947 -0.1605 -0.1154
   63POPC   C2B 1247   1.084   1.584   7.405  0.0219 -0.1180  0.1223
   63POPC   C3B 1248   0.820   1.508   7.053 -0.1827 -0.0307 -0.1066
   63POPC   C4B 1249   0.813   1.443   6.619  0.4349 -0.1163 -0.1413
   64POPC   NC3 1250   1.518   8.821   8.924  0.1053  0.0462 -0.0375
   64POPC   PO4 1251   1.949   9.004   8.816  0.0382  0.1831  0.0240
   64POPC   GL1 1252   1.688   8.939   8.456 -0.3086  0.1388  0.1124
   64POPC   GL2 1253   1.277   8.881   8.415 -0.2379  0.1999  0.1310
   64POPC   C1A 1254   1.464   8.872   7.956 -0.0098 -0.1914  0.3594
   64POPC   D2A 1255   1.121   9.005   7.675  0.0156  0.3349  0.1850
   64POPC   C3A 1256   1.226   9.262   7.251 -0.4981  0.2389  0.0801
   64POPC   C4A 1257   1.409   9.432   6.882 -0.3322  0.1319 -0.0116
   64POPC   C1B 1258   1.049   8.601   8.123 -0.2692  0.1570 -0.0353
   64POPC   C2B 1259   1.153   8.506   7.732  0.2679 -0.0728  0.1495
   64POPC   C3B 1260   1.196   8.652   7.311  0.1213 -0.2052 -0.2655
   64POPC   C4B 1261   1.471   8.743   6.926  0.2289  0.1342  0.0759
   65POPC   NC3 1262   2.072   8.502   8.833 -0.2859 -0.0574  0.2724
   65POPC   PO4 1263   1.780   8.287   8.919  0.0911  0.0637  0.1072
   65POPC   GL1 1264   1.721   8.378   8.552 -0.0055  0.0884  0.0096
   65POPC   GL2 1265   2.002   8.420   8.385  0.0570 -0.3318  0.1988
   65POPC   C1A 1266   1.564   8.441   8.087  0.1911  0.2010 -0.2420
   65POPC   D2A 1267   1.656   8.568   7.573  0.1378  0.0714  0.2528
   65POPC   C3A 1268   1.684   9.009   7.371  0.0551  0.2983 -0.1763
   65POPC   C4A 1269   1.574   9.342   7.641 -0.2240 -0.1535 -0.2693
   65POPC   C1B 1270   2.017   8.621   7.977 -0.0546 -0.2198  0.0217
   65POPC   C2B 1271   2.085   8.849   7.623 -0.2719 -0.0802  0.1991
   65POPC   C3B 1272   2.264   8.989   7.286 -0.1264 -0.0169  0.0975
   65POPC   C4B 1273   2.352   9.254   6.887  0.1967  0.0122  0.2378
   66POPC   NC3 1274   5.827   4.491   8.774 -0.0479  0.4791 -0.0900
   66POPC   PO4 1275   6.057   4.161   8.559 -0.0989  0.1357 -0.2119
   66POPC   GL1 1276   6.405   4.131   8.380 -0.2300 -0.1723  0.0581
   66POPC   GL2 1277   6.215   4.226   8.092  0.1160  0.0234  0.1251
   66POPC   C1A 1278   6.581   3.779   8.298  0.2329  0.1872 -0.0743
   66POPC   D2A 1279   6.539   3.443   7.997  0.2011  0.3068  0.1206
   66POPC   C3A 1280   6.781   3.496   7.567 -0.2862  0.4457  0.3580
   66POPC   C4A 1281   7.083   3.623   7.312  0.2555  0.3732  0.0622
   66POPC   C1B 1282   6.244   3.830   7.887 -0.0800 -0.0381  0.1807
   66POPC   C2B 1283   6.213   3.569   7.584  0.0479  0.2033  0.0050
   66POPC   C3B 1284   6.368   3.395   7.285  0.0977  0.1281 -0.0107
   66POPC   C4B 1285   6.553   3.219   6.975  0.0147 -0.0910  0.1650
   67POPC   NC3 1286   8.947   6.686   8.793  0.0277  0.0311  0.0632
   67POPC   PO4 1287   8.941   6.360   8.631  0.3302  0.1861 -0.1263
   67POPC   GL1 1288   8.936   6.287   8.252 -0.3375  0.2998 -0.1342
   67POPC   GL2 1289   9.192   6.481   8.202  0.1546  0.0374  0.0573
   67POPC   C1A 1290   8.836   6.259   7.827 -0.1278 -0.0905  0.0771
   67POPC   D2A 1291   8.621   6.323   7.430 -0.5533 -0.6666  0.0360
   67POPC   C3A 1292   8.969   6.425   7.195 -0.0222 -0.4817 -0.1436
   67POPC   C4A 1293   9.120   6.557   6.769 -0.0098  0.1019 -0.0056
   67POPC   C1B 1294   9.390   6.535   7.863 -0.1116  0.2737  0.3695
   67POPC   C2B 1295   9.479   6.299   7.340  0.0539  0.0633  0.2517
   67POPC   C3B 1296   9.237   5.996   6.999  0.1741  0.2760 -0.2024
   67POPC   C4B 1297   9.286   5.418   6.847  0.0151 -0.1325  0.3510
   68POPC   NC3 1298   1.853   1.583   8.953  0.1844  0.3253  0.1966
   68POPC   PO4 1299   1.924   1.235   8.697 -0.1487  0.3484  0.2577
   68POPC   GL1 1300   1.853   1.114   8.311 -0.2247 -0.0128  0.0819
   68POPC   GL2 1301   1.586   1.116   8.310  0.0031  0.0616  0.0806
   68POPC   C1A 1302   1.888   1.115   7.822  0.1086  0.2621  0.2884
   68POPC   D2A 1303   2.077   1.020   7.385  0.0744  0.2034 -0.0270
   68POPC   C3A 1304   2.428   1.127   7.292 -0.0915 -0.1983 -0.0238
   68POPC   C4A 1305   2.846   1.224   7.265 -0.3612 -0.0670 -0.1423
   68POPC   C1B 1306   1.339   1.020   7.898 -0.1126 -0.1298  0.2575
   68POPC   C2B 1307   1.115   1.125   7.645  0.0899  0.0473  0.1411
   68POPC   C3B 1308   0.811   1.024   7.324  0.0214  0.1233 -0.1585
   68POPC   C4B 1309   0.369   1.111   7.286 -0.0467 -0.0755  0.0026
   69POPC   NC3 1310   7.110   1.613  10.308  0.1019  0.0554 -0.2037
   69POPC   PO4 1311   7.404   1.443  10.009  0.0827  0.0916 -0.3640
   69POPC   GL1 1312   7.451   1.688   9.607 -0.0099 -0.4198  0.2107
   69POPC   GL2 1313   7.721   1.561   9.557 -0.1035 -0.0277 -0.0867
   69POPC   C1A 1314   7.270   1.945   9.281  0.2935  0.0691 -0.0053
   69POPC   D2A 1315   7.209   1.685   8.869  0.2481 -0.0530 -0.0643
   69POPC   C3A 1316   6.932   1.369   8.692  0.3208 -0.1238 -0.0980
   69POPC   C4A 1317   6.805   0.910   8.790 -0.2227  0.1362  0.3032
   69POPC   C1B 1318   8.076   1.444   9.264 -0.1318  0.1997  0.1048
   69POPC   C2B 1319   8.211   1.312   8.853  0.1421 -0.1505 -0.0060
   69POPC   C3B 1320   8.397   1.436   8.486 -0.0399 -0.1512  0.0417
   69POPC   C4B 1321   8.656   1.527   8.089  0.2619  0.0255 -0.1200
   70POPC   NC3 1322   8.562   9.265   9.459 -0.2305 -0.1137  0.1117
   70POPC   PO4 1323   8.498   9.628   9.765  0.3591  0.1200 -0.1777
   70POPC   GL1 1324   8.589   9.853   9.355 -0.2632 -0.0035  0.0370
   70POPC   GL2 1325   8.447  10.203   9.192  0.3657  0.0317 -0.3430
   70POPC   C1A 1326   8.352   9.697   9.022  0.3431 -0.3464 -0.0836
   70POPC   D2A 1327   8.222   9.450   8.609 -0.0025  0.1478  0.0912
   70POPC   C3A 1328   8.220   9.708   8.273  0.0004  0.2387  0.3584
   70POPC   C4A 1329   7.752   9.894   8.132 -0.1385  0.1238  0.0687
   70POPC   C1B 1330   8.827  10.144   8.969  0.0132  0.3911 -0.0112
   70POPC   C2B 1331   8.541  10.059   8.696 -0.2048 -0.0228 -0.2984
   70POPC   C3B 1332   8.658   9.960   8.224 -0.2554  0.0661 -0.1419
   70POPC   C4B 1333   8.828  10.068   7.860  0.3418  0.1801 -0.0160
   71POPC   NC3 1334   6.523   0.949   9.557  0.0025  0.1497 -0.0332
   71POPC   PO4 1335   6.230   1.081   9.286 -0.1948  0.3054 -0.2552
   71POPC   GL1 1336   6.332   0.814   8.950 -0.1233 -0.2438 -0.1714
   71POPC   GL2 1337   6.295   0.401   8.975 -0.3761 -0.1926 -0.2332
   71POPC   C1A 1338   6.520   0.645   8.547  0.3617  0.1493  0.1370
   71POPC   D2A 1339   6.272   0.551   8.274  0.1913  0.1587  0.1517
   71POPC   C3A 1340   6.433   0.249   7.910  0.3028  0.0629  0.1691
   71POPC   C4A 1341   6.352  -0.046   7.520  0.0448 -0.0564 -0.1622
   71POPC   C1B 1342   6.317   0.040   8.693  0.0553 -0.1140 -0.3920
   71POPC   C2B 1343   6.264  -0.104   8.257 -0.0256  0.1714 -0.0144
   71POPC   C3B 1344   6.017  -0.145   7.878 -0.1724 -0.1064 -0.0265
   71POPC   C4B 1345   5.974  -0.432   7.510  0.0291 -0.0289 -0.2230
   72POPC   NC3 1346   4.532   4.249   8.416 -0.2331 -0.0235 -0.2347
   72POPC   PO4 1347   4.814   4.655   8.439  0.1989  0.0650  0.4152
   72POPC   GL1 1348   4.897   4.471   8.007 -0.0017  0.0968 -0.0611
   72POPC   GL2 1349   4.712   4.218   7.877  0.0730 -0.3099 -0.0672
   72POPC   C1A 1350   5.075   4.617   7.604  0.2581 -0.1742 -0.0606
   72POPC   D2A 1351   4.931   4.695   7.167 -0.0109 -0.4994  0.0106
   72POPC   C3A 1352   4.843   5.039   7.004  0.2696  0.0641 -0.0877
   72POPC   C4A 1353   4.500   5.352   6.877 -0.0809  0.1854 -0.0139
   72POPC   C1B 1354   4.843   4.185   7.496  0.1874  0.1481 -0.1732
   72POPC   C2B 1355   5.061   4.118   7.146  0.2602 -0.0082 -0.1032
   72POPC   C3B 1356   5.145   4.399   6.781 -0.0484  0.1657  0.0598
   72POPC   C4B 1357   5.390   4.420   6.483 -0.2417 -0.1178 -0.1356
   73POPC   NC3 1358   2.578   7.808   8.854  0.0138  0.2441 -0.0340
   73POPC   PO4 1359   2.591   8.233   8.811 -0.3317 -0.0846 -0.2363
   73POPC   GL1 1360   2.656   8.135   8.398 -0.3287 -0.0804 -0.2088
   73POPC   GL2 1361   2.542   7.792   8.370 -0.3242  0.2922 -0.0685
   73POPC   C1A 1362   2.429   8.328   8.109  0.0697  0.3051 -0.1171
   73POPC   D2A 1363   2.575   8.551   7.753 -0.0064  0.3700  0.0984
   73POPC   C3A 1364   2.221   8.409   7.447 -0.0091  0.0198  0.0115
   73POPC   C4A 1365   2.091   8.200   7.137  0.3044 -0.0602 -0.1653
   73POPC   C1B 1366   2.384   7.748   7.934 -0.1669  0.0567  0.1956
   73POPC   C2B 1367   2.346   7.804   7.528  0.1961  0.0411  0.0854
   73POPC   C3B 1368   2.500   7.852   7.130  0.4354 -0.0912  0.1064
   73POPC   C4B 1369   2.577   8.304   7.046  0.1667 -0.4125  0.3452
   74POPC   NC3 1370   2.067   0.767   8.703 -0.0804 -0.0699  0.0979
   74POPC   PO4 1371   1.836   0.489   9.019 -0.2150  0.0130  0.2567
   74POPC   GL1 1372   1.598   0.488   8.570 -0.1165  0.1064 -0.2358
   74POPC   GL2 1373   1.370   0.339   8.456 -0.1826  0.1946  0.0472
   74POPC   C1A 1374   1.685   0.644   8.085  0.1449 -0.0309 -0.1579
   74POPC   D2A 1375   1.543   0.469   7.694  0.0825  0.1134 -0.1032
   74POPC   C3A 1376   1.443   0.858   7.372  0.2417  0.0416  0.3540
   74POPC   C4A 1377   1.264   1.018   6.986  0.2576 -0.0567  0.1063
   74POPC   C1B 1378   0.924   0.381   8.478 -0.0444 -0.1430 -0.0390
   74POPC   C2B 1379   0.573   0.728   8.346  0.4390  0.0615  0.0785
   74POPC   C3B 1380   0.457   0.831   8.047 -0.1181 -0.3346 -0.3140
   74POPC   C4B 1381   0.319   0.682   7.584 -0.0550  0.2210  0.0520
   75POPC   NC3 1382   9.834   4.188   8.806  0.2229 -0.2530 -0.0336
   75POPC   PO4 1383   9.747   3.777   8.792  0.0481 -0.2043 -0.1452
   75POPC   GL1 1384   9.920   3.645   8.464  0.2435  0.3581 -0.0356
   75POPC   GL2 1385  10.257   3.800   8.437 -0.2069  0.3218 -0.1785
   75POPC   C1A 1386  10.120   3.370   8.169  0.1735  0.3310 -0.4274
   75POPC   D2A 1387  10.236   3.451   7.695 -0.0062  0.2174 -0.0803
   75POPC   C3A 1388   9.927   3.725   7.525 -0.2843 -0.1806 -0.0018
   75POPC   C4A 1389   9.866   4.007   7.197  0.3073  0.1600 -0.3427
   75POPC   C1B 1390  10.175   3.815   7.959  0.4010 -0.2850  0.2715
   75POPC   C2B 1391  10.188   4.151   7.673  0.0658  0.0493  0.3143
   75POPC   C3B 1392  10.292   4.177   7.246 -0.2878 -0.2430  0.4862
   75POPC   C4B 1393  10.614   4.101   6.956 -0.0784  0.1663 -0.0131
   76POPC   NC3 1394   2.022   6.759   9.348 -0.0711  0.0519  0.3329
   76POPC   PO4 1395   1.982   7.199   9.136 -0.5098  0.0238 -0.0226
   76POPC   GL1 1396   2.076   7.339   8.671  0.2175 -0.0544 -0.0591
   76POPC   GL2 1397   1.853   7.107   8.534 -0.2320 -0.2869  0.1047
   76POPC   C1A 1398   2.345   7.346   8.277  0.3687 -0.1341 -0.0635
   76POPC   D2A 1399   2.351   7.130   7.808 -0.1703 -0.2289  0.0474
   76POPC   C3A 1400   2.056   7.283   7.416 -0.0372 -0.1862  0.1206
   76POPC   C4A 1401   2.115   7.491   7.116  0.0153 -0.0521  0.0500
   76POPC   C1B 1402   1.645   6.763   8.424 -0.0718  0.0985  0.1490
   76POPC   C2B 1403   1.338   6.576   8.135  0.2136 -0.0379 -0.1076
   76POPC   C3B 1404   1.056   6.360   7.841 -0.3366 -0.3393 -0.0444
   76POPC   C4B 1405   0.874   6.308   7.394  0.2510  0.1779 -0.2479
   77POPC   NC3 1406   3.048   0.414   8.542  0.1988  0.1674 -0.1571
   77POPC   PO4 1407   3.471   0.471   8.521  0.0610  0.0009 -0.1957
   77POPC   GL1 1408   3.439   0.113   8.305 -0.1270  0.1251  0.0725
   77POPC   GL2 1409   3.119   0.042   8.225  0.3242  0.0001 -0.1499
   77POPC   C1A 1410   3.538  -0.016   7.966 -0.2952 -0.3097 -0.3117
   77POPC   D2A 1411   3.506  -0.220   7.682  0.1702  0.2418  0.0145
   77POPC   C3A 1412   3.391  -0.608   7.611 -0.0669  0.1485  0.0463
   77POPC   C4A 1413   3.551  -0.973   7.607 -0.0409  0.0599 -0.0662
   77POPC   C1B 1414   3.115  -0.281   7.968  0.2447 -0.1520  0.0686
   77POPC   C2B 1415   2.900  -0.386   7.613  0.4759  0.1747 -0.4270
   77POPC   C3B 1416   2.780  -0.547   7.164 -0.0564  0.0557  0.1192
   77POPC   C4B 1417   3.036  -0.894   6.948 -0.0153  0.0716 -0.1220
   78POPC   NC3 1418   1.078   5.000   8.686 -0.1556 -0.1594  0.0443
   78POPC   PO4 1419   0.676   4.914   8.607  0.2328  0.5102 -0.3249
   78POPC   GL1 1420   0.931   4.714   8.309  0.2007 -0.2871  0.1164
   78POPC   GL2 1421   0.849   5.029   8.124 -0.0825  0.0301 -0.1264
   78POPC   C1A 1422   1.099   4.633   7.932  0.0660  0.0395 -0.0516
   78POPC   D2A 1423   1.252   4.776   7.568 -0.0670 -0.2781 -0.2863
   78POPC   C3A 1424   1.056   4.932   7.247 -0.3449 -0.2406  0.1184
   78POPC   C4A 1425   0.754   5.038   7.018  0.2743 -0.1564  0.0882
   78POPC   C1B 1426   1.063   5.220   7.734 -0.0180  0.0649  0.1612
   78POPC   C2B 1427   0.666   5.327   7.413 -0.0393  0.1272  0.0909
   78POPC   C3B 1428   0.351   5.049   7.350  0.1968  0.1416 -0.0082
   78POPC   C4B 1429   0.235   4.719   6.961 -0.1344  0.1026 -0.0149
   79POPC   NC3 1430   2.289   6.888   8.854  0.1459  0.0799  0.0639
   79POPC   PO4 1431   2.504   7.290   8.972 -0.0637  0.0639 -0.0824
   79POPC   GL1 1432   2.704   7.062   8.630 -0.2003 -0.2211 -0.1342
   79POPC   GL2 1433   2.794   7.362   8.507 -0.1572 -0.0685  0.2669
   79POPC   C1A 1434   2.562   6.889   8.215 -0.1712  0.2958 -0.0757
   79POPC   D2A 1435   2.150   6.832   8.142  0.0248  0.1800  0.1287
   79POPC   C3A 1436   1.958   7.110   8.068 -0.2855 -0.0806 -0.2380
   79POPC   C4A 1437   1.925   7.485   7.861  0.0473 -0.0435  0.0883
   79POPC   C1B 1438   2.772   7.241   8.046  0.0372  0.0250 -0.0675
   79POPC   C2B 1439   2.711   7.492   7.672 -0.1405 -0.0908 -0.0870
   79POPC   C3B 1440   2.543   7.324   7.308 -0.2383 -0.4529  0.2538
   79POPC   C4B 1441   2.541   7.464   6.845 -0.2207 -0.0443  0.1786
   80POPC   NC3 1442   8.102   5.175   9.105  0.0586  0.1592 -0.3265
   80POPC   PO4 1443   7.692   4.898   8.862  0.1396 -0.1479 -0.2973
   80POPC   GL1 1444   7.621   5.077   8.466 -0.3519  0.1290 -0.0695
   80POPC   GL2 1445   7.262   4.870   8.447 -0.0904  0.0134  0.1341
   80POPC   C1A 1446   7.637   4.851   8.109  0.1281 -0.3079 -0.0851
   80POPC   D2A 1447   7.891   4.745   7.700  0.1293 -0.0274 -0.3091
   80POPC   C3A 1448   7.684   4.547   7.406 -0.0793 -0.1417 -0.2461
   80POPC   C4A 1449   7.747   4.291   7.088  0.1793  0.0838  0.0173
   80POPC   C1B 1450   7.057   4.928   8.028  0.1112 -0.2523  0.2576
   80POPC   C2B 1451   6.872   4.921   7.551  0.2832 -0.1636  0.1565
   80POPC   C3B 1452   6.538   4.529   7.546  0.3310 -0.0071  0.0527
   80POPC   C4B 1453   6.285   4.279   7.629 -0.0167  0.3067  0.0036
   81POPC   NC3 1454   6.725   4.841   8.960  0.0606 -0.1398 -0.3618
   81POPC   PO4 1455   7.011   4.552   8.848 -0.1265  0.0688  0.1608
   81POPC   GL1 1456   6.898   4.457   8.464 -0.0188  0.3388 -0.2444
   81POPC   GL2 1457   6.758   4.805   8.385 -0.0140  0.0798 -0.0645
   81POPC   C1A 1458   7.080   4.290   8.092 -0.0701 -0.0401  0.2005
   81POPC   D2A 1459   7.636   4.366   8.057  0.0385  0.1351 -0.1538
   81POPC   C3A 1460   7.854   4.222   7.724  0.2847  0.0929 -0.0209
   81POPC   C4A 1461   8.094   4.280   7.436  0.3843 -0.2095  0.0673
   81POPC   C1B 1462   6.594   4.566   8.047  0.1659  0.2526  0.2027
   81POPC   C2B 1463   6.668   4.078   7.925  0.0786 -0.1695 -0.0429
   81POPC   C3B 1464   6.777   4.077   7.541  0.2266 -0.2209 -0.1435
   81POPC   C4B 1465   6.460   3.953   7.331  0.0891  0.0762  0.0624
   82POPC   NC3 1466   6.758   6.475   9.003  0.1060 -0.1518 -0.0412
   82POPC   PO4 1467   6.549   6.783   8.652 -0.0641 -0.1151 -0.2075
   82POPC   GL1 1468   6.564   6.861   8.257 -0.0271  0.2660  0.0380
   82POPC   GL2 1469   6.732   6.686   8.105 -0.1221  0.0449  0.1339
   82POPC   C1A 1470   6.549   7.049   7.803  0.0150 -0.1394 -0.0039
   82POPC   D2A 1471   6.518   7.326   7.441 -0.0598 -0.0800 -0.2619
   82POPC   C3A 1472   6.510   7.682   7.315 -0.2319  0.0755 -0.0708
   82POPC   C4A 1473   6.411   7.957   7.046 -0.1744  0.0005  0.1158
   82POPC   C1B 1474   6.568   6.531   7.665 -0.1284 -0.1287 -0.3500
   82POPC   C2B 1475   6.414   6.830   7.345 -0.0417  0.3162 -0.1126
   82POPC   C3B 1476   6.203   7.185   7.070 -0.1223  0.1035 -0.3013
   82POPC   C4B 1477   6.155   7.542   6.785  0.2091 -0.2505 -0.0810
   83POPC   NC3 1478   6.112   1.824   9.734  0.0066 -0.0112  0.0763
   83POPC   PO4 1479   6.357   1.421   9.710 -0.2704  0.2203  0.0978
   83POPC   GL1 1480   6.782   1.571   9.571  0.0780  0.1928  0.2960
   83POPC   GL2 1481   7.056   1.455   9.735  0.0708  0.1999  0.4441
   83POPC   C1A 1482   6.724   1.606   9.138 -0.1944 -0.1420  0.0947
   83POPC   D2A 1483   6.481   1.368   8.929  0.2162 -0.1154 -0.0944
   83POPC   C3A 1484   6.216   1.647   8.562 -0.1092 -0.0008 -0.0753
   83POPC   C4A 1485   6.304   1.994   8.240  0.0026 -0.0976 -0.2659
   83POPC   C1B 1486   7.250   1.409   9.246  0.0962 -0.3545  0.0500
   83POPC   C2B 1487   7.216   1.039   8.903 -0.3903 -0.1173  0.2475
   83POPC   C3B 1488   7.319   1.000   8.468 -0.2996 -0.3388 -0.1260
   83POPC   C4B 1489   7.577   1.113   8.058 -0.4567  0.0715 -0.0666
   84POPC   NC3 1490   3.779   0.509   8.966 -0.1265  0.1808  0.1279
   84POPC   PO4 1491   4.128   0.549   8.671 -0.0451  0.2273 -0.0072
   84POPC   GL1 1492   3.880   0.763   8.304  0.1317  0.1245 -0.1468
   84POPC   GL2 1493   3.683   0.487   8.104 -0.1351 -0.2174  0.2016
   84POPC   C1A 1494   3.830   1.018   8.025  0.0323  0.0708 -0.0730
   84POPC   D2A 1495   3.568   1.018   7.788  0.0459 -0.0681  0.0206
   84POPC   C3A 1496   3.448   0.773   7.531 -0.1248 -0.1007  0.0579
   84POPC   C4A 1497   3.505   0.417   7.242 -0.0350  0.1929 -0.1060
   84POPC   C1B 1498   3.820   0.343   7.705  0.2408 -0.0037  0.1519
   84POPC   C2B 1499   3.972   0.488   7.314 -0.1710 -0.2716 -0.0688
   84POPC   C3B 1500   3.873   0.462   6.869 -0.1134  0.2455 -0.1805
   84POPC   C4B 1501   3.562   0.630   6.535  0.0553 -0.2467 -0.1860
   85POPC   NC3 1502   6.775  10.077   9.518 -0.2877 -0.1209  0.0811
   85POPC   PO4 1503   6.377   9.838   9.412  0.3590  0.2564  0.1003
   85POPC   GL1 1504   6.629   9.882   9.048 -0.1324  0.1232  0.0837
   85POPC   GL2 1505   6.553  10.122   8.839  0.0463 -0.2912  0.0748
   85POPC   C1A 1506   6.966   9.932   8.690 -0.1009 -0.0579  0.2655
   85POPC   D2A 1507   7.174  10.376   8.579  0.0704 -0.3526  0.0036
   85POPC   C3A 1508   7.593  10.325   8.381  0.2586 -0.2199 -0.1507
   85POPC   C4A 1509   7.826  10.644   8.147 -0.0516  0.1119  0.1578
   85POPC   C1B 1510   6.688  10.260   8.430 -0.1160 -0.2857 -0.2799
   85POPC   C2B 1511   6.798  10.418   8.088  0.0529  0.1406 -0.1763
   85POPC   C3B 1512   6.954  10.420   7.637  0.1173 -0.2599 -0.0115
   85POPC   C4B 1513   6.866  10.140   7.243 -0.0847  0.0472 -0.0794
   86POPC   NC3 1514   9.238   5.084   8.944 -0.0463  0.1291 -0.0669
   86POPC   PO4 1515   9.255   5.430   8.629 -0.3958 -0.1781 -0.0567
   86POPC   GL1 1516   8.824   5.462   8.333 -0.0576 -0.2412 -0.1363
   86POPC   GL2 1517   8.465   5.525   8.320  0.2795 -0.0860 -0.1613
   86POPC   C1A 1518   8.874   5.767   7.942  0.0370 -0.1001  0.0694
   86POPC   D2A 1519   8.653   5.862   7.584  0.2929  0.0971 -0.1237
   86POPC   C3A 1520   8.783   5.873   7.159  0.0902  0.2508  0.0287
   86POPC   C4A 1521   8.792   5.985   6.751 -0.1005 -0.1234  0.1060
   86POPC   C1B 1522   8.378   5.560   7.914  0.2552 -0.0436  0.3244
   86POPC   C2B 1523   8.165   5.601   7.497 -0.2473 -0.1091 -0.1059
   86POPC   C3B 1524   8.375   5.561   7.186  0.1831  0.0178  0.0991
   86POPC   C4B 1525   8.760   5.353   7.078 -0.1417  0.1665 -0.1278
   87POPC   NC3 1526   3.069  10.423   8.716 -0.1691 -0.1588 -0.5846
   87POPC   PO4 1527   3.462  10.336   8.734 -0.0047 -0.1061  0.0279
   87POPC   GL1 1528   3.223  10.043   8.391 -0.1968 -0.1306  0.2117
   87POPC   GL2 1529   3.185   9.701   8.422  0.4298  0.0641  0.2102
   87POPC   C1A 1530   2.973   9.693   7.898  0.1239 -0.0642 -0.2621
   87POPC   D2A 1531   2.961   9.511   7.446 -0.0155 -0.0586 -0.1935
   87POPC   C3A 1532   3.372   9.267   7.244 -0.1081 -0.1095  0.3694
   87POPC   C4A 1533   3.796   9.422   7.147 -0.2189  0.1872 -0.1885
   87POPC   C1B 1534   3.462   9.797   8.058  0.0002  0.1409 -0.1921
   87POPC   C2B 1535   3.854   9.921   7.915  0.0120  0.1421  0.1202
   87POPC   C3B 1536   4.255   9.953   7.801 -0.2700  0.1976 -0.2064
   87POPC   C4B 1537   4.475   9.835   7.400  0.0805 -0.2070  0.1614
   88POPC   NC3 1538   7.733   3.208   8.876  0.0095  0.2093 -0.0798
   88POPC   PO4 1539   8.159   2.909   9.002  0.1471 -0.1649 -0.2800
   88POPC   GL1 1540   7.862   2.710   8.661  0.2109  0.0182  0.0093
   88POPC   GL2 1541   7.535   2.744   8.737  0.1507  0.1909  0.3175
   88POPC   C1A 1542   7.934   2.691   8.133  0.2002  0.2625 -0.0142
   88POPC   D2A 1543   8.056   2.414   7.830 -0.3105  0.2283 -0.0655
   88POPC   C3A 1544   8.006   2.507   7.449 -0.0296 -0.0995 -0.3872
   88POPC   C4A 1545   8.194   2.615   7.113 -0.0991 -0.3042  0.0620
   88POPC   C1B 1546   7.677   2.229   8.651  0.0061  0.1363  0.0229
   88POPC   C2B 1547   7.478   1.908   8.544 -0.0494 -0.1300  0.0965
   88POPC   C3B 1548   7.440   1.492   8.472 -0.1592 -0.2406  0.0012
   88POPC   C4B 1549   7.104   1.351   8.208  0.2407  0.3217 -0.0148
   89POPC   NC3 1550   0.891  10.291   9.012  0.3651 -0.2154 -0.0777
   89POPC   PO4 1551   1.295  10.287   8.896  0.2351  0.0799 -0.1784
   89POPC   GL1 1552   1.130  10.264   8.508 -0.1080  0.2646 -0.2497
   89POPC   GL2 1553   0.862  10.308   8.506 -0.2958 -0.1077  0.0636
   89POPC   C1A 1554   1.004  10.004   8.103  0.1192 -0.2420  0.0958
   89POPC   D2A 1555   1.082   9.638   7.862  0.0273  0.2318  0.1645
   89POPC   C3A 1556   1.163   9.749   7.447 -0.0928 -0.1677 -0.3111
   89POPC   C4A 1557   1.052   9.792   6.955  0.2843 -0.3770  0.0535
   89POPC   C1B 1558   0.801  10.445   8.051 -0.0931 -0.2213 -0.2037
   89POPC   C2B 1559   0.862  10.331   7.660 -0.3736 -0.0167 -0.0793
   89POPC   C3B 1560   0.711   9.946   7.458  0.1279 -0.4297 -0.1292
   89POPC   C4B 1561   0.427   9.730   7.722  0.1536 -0.2272 -0.2478
   90POPC   NC3 1562   6.310   7.241   8.541  0.1721 -0.0472 -0.1533
   90POPC   PO4 1563   6.000   7.462   8.640  0.1429 -0.0897  0.1604
   90POPC   GL1 1564   5.927   7.740   8.279  0.1898  0.1019 -0.0111
   90POPC   GL2 1565   5.688   7.792   8.322  0.2064  0.2638 -0.1591
   90POPC   C1A 1566   5.776   7.564   7.847 -0.0536 -0.1116 -0.1569
   90POPC   D2A 1567   5.490   7.664   7.481  0.0671  0.3356 -0.2341
   90POPC   C3A 1568   5.467   7.928   7.173  0.3649 -0.2269  0.0331
   90POPC   C4A 1569   5.285   8.234   6.868 -0.4905 -0.0228  0.0110
   90POPC   C1B 1570   5.278   7.570   8.074  0.1861 -0.0254  0.0110
   90POPC   C2B 1571   4.951   7.808   8.065 -0.0492  0.3373  0.1205
   90POPC   C3B 1572   4.564   7.904   7.887 -0.2966 -0.1740 -0.4678
   90POPC   C4B 1573   4.170   8.059   7.888  0.1460  0.2534 -0.1385
   91POPC   NC3 1574   0.662   2.447   9.484 -0.0946  0.0887  0.1259
   91POPC   PO4 1575   0.330   2.182   9.212 -0.0770 -0.4221  0.3073
   91POPC   GL1 1576   0.122   1.745   9.274  0.0017 -0.1668  0.0106
   91POPC   GL2 1577   0.194   1.501   9.619 -0.0323  0.3312  0.0789
   91POPC   C1A 1578  -0.273   1.575   9.134 -0.2206 -0.1382  0.0168
   91POPC   D2A 1579  -0.483   1.167   9.285 -0.1011  0.0294 -0.1138
   91POPC   C3A 1580  -0.893   1.055   9.307  0.2233 -0.1367  0.0587
   91POPC   C4A 1581  -1.382   0.948   9.262  0.1242 -0.2611  0.1827
   91POPC   C1B 1582   0.099   1.254   9.247  0.0804 -0.1414  0.0196
   91POPC   C2B 1583  -0.146   1.104   8.962 -0.0815 -0.0493  0.3614
   91POPC   C3B 1584  -0.289   1.116   8.494 -0.3507 -0.2325 -0.0743
   91POPC   C4B 1585  -0.729   1.154   8.333  0.1298 -0.2897 -0.0366
   92POPC   NC3 1586   1.214   3.142   8.711  0.1294 -0.0530 -0.4127
   92POPC   PO4 1587   1.109   2.722   8.692 -0.2439  0.2007 -0.2302
   92POPC   GL1 1588   1.063   2.471   8.250  0.1733  0.0522 -0.2693
   92POPC   GL2 1589   0.715   2.346   8.466  0.0531  0.0064 -0.4221
   92POPC   C1A 1590   1.037   2.192   7.811 -0.2638 -0.0132 -0.2506
   92POPC   D2A 1591   0.847   1.970   7.618 -0.0266  0.1896  0.1522
   92POPC   C3A 1592   0.649   2.043   7.144 -0.1213  0.2140  0.0590
   92POPC   C4A 1593   0.953   1.947   6.770  0.2095  0.1489  0.2470
   92POPC   C1B 1594   0.589   2.315   7.956 -0.4108 -0.0500 -0.3177
   92POPC   C2B 1595   0.315   1.958   7.635 -0.0440 -0.2345 -0.1110
   92POPC   C3B 1596   0.024   1.830   7.351 -0.1118 -0.0193 -0.3580
   92POPC   C4B 1597  -0.124   1.495   7.220 -0.2287 -0.2083  0.0087
   93POPC   NC3 1598   7.711   6.987   8.813  0.1032 -0.0702 -0.3090
   93POPC   PO4 1599   7.583   6.772   8.474 -0.0106 -0.1353  0.2999
   93POPC   GL1 1600   7.542   6.873   8.095  0.0647  0.4047 -0.1878
   93POPC   GL2 1601   7.321   6.661   7.962  0.1432 -0.0377  0.1932
   93POPC   C1A 1602   7.596   7.104   7.762 -0.0900  0.1221  0.0801
   93POPC   D2A 1603   7.475   7.073   7.356  0.0020  0.1799 -0.1064
   93POPC   C3A 1604   7.447   6.714   7.059  0.2669 -0.0852 -0.0519
   93POPC   C4A 1605   7.779   6.710   6.693 -0.0112 -0.0256 -0.1747
   93POPC   C1B 1606   7.065   6.553   7.689 -0.0165 -0.0196 -0.3684
   93POPC   C2B 1607   6.905   6.374   7.256  0.0171 -0.1448  0.2071
   93POPC   C3B 1608   6.715   6.056   6.976 -0.0898 -0.0924  0.1091
   93POPC   C4B 1609   6.638   5.646   6.938 -0.1767 -0.4062 -0.0860
   94POPC   NC3 1610   3.633   9.190   9.112  0.0812  0.1896  0.0658
   94POPC   PO4 1611   3.820   9.410   8.878 -0.0514 -0.0997 -0.2853
   94POPC   GL1 1612   3.750   9.366   8.388 -0.1343  0.0022  0.1544
   94POPC   GL2 1613   3.950   9.389   8.233 -0.0483 -0.3690 -0.3298
   94POPC   C1A 1614   3.328   9.337   8.138  0.0135 -0.0548  0.2520
   94POPC   D2A 1615   3.301   9.087   7.676  0.3076 -0.2060  0.1651
   94POPC   C3A 1616   3.366   8.638   7.419  0.4642  0.0485 -0.1267
   94POPC   C4A 1617   3.444   8.295   7.135  0.0465 -0.0133  0.1478
   94POPC   C1B 1618   3.829   9.190   7.869 -0.1100  0.1319  0.2926
   94POPC   C2B 1619   3.842   8.782   7.598  0.0169 -0.0624 -0.0064
   94POPC   C3B 1620   3.919   8.568   7.218  0.1019 -0.1997  0.2099
   94POPC   C4B 1621   3.886   8.576   6.766  0.0097  0.1492  0.0751
   95POPC   NC3 1622   6.089   3.220   8.790  0.0806 -0.2587  0.1866
   95POPC   PO4 1623   6.549   3.300   8.807 -0.0672  0.1051 -0.3628
   95POPC   GL1 1624   6.579   3.126   8.409 -0.3094  0.0107 -0.1857
   95POPC   GL2 1625   6.188   3.096   8.318  0.2570 -0.4301  0.4535
   95POPC   C1A 1626   6.543   2.864   8.028  0.0632  0.1529  0.2151
   95POPC   D2A 1627   6.487   2.986   7.605  0.2326  0.1558 -0.1265
   95POPC   C3A 1628   6.885   2.877   7.359 -0.4236 -0.2821  0.0604
   95POPC   C4A 1629   7.310   3.034   7.408  0.3015 -0.0738  0.0441
   95POPC   C1B 1630   5.999   3.031   7.862  0.4672 -0.0767  0.0064
   95POPC   C2B 1631   5.969   2.777   7.522  0.2355  0.0367  0.3732
   95POPC   C3B 1632   5.884   2.482   7.174  0.0317 -0.3590  0.0624
   95POPC   C4B 1633   5.724   2.082   7.147 -0.1995  0.0895  0.0780
   96POPC   NC3 1634   7.974   7.858   8.846  0.0057  0.2339  0.0401
   96POPC   PO4 1635   7.654   7.583   8.668 -0.0049  0.0525 -0.1053
   96POPC   GL1 1636   7.478   7.819   8.299 -0.1177  0.1685 -0.2734
   96POPC   GL2 1637   7.186   8.095   8.257 -0.3205 -0.0445 -0.2806
   96POPC   C1A 1638   7.658   8.104   7.933  0.2590 -0.0783 -0.1711
   96POPC   D2A 1639   7.669   8.256   7.537 -0.1702 -0.2154 -0.2392
   96POPC   C3A 1640   7.337   8.204   7.346 -0.0256 -0.1364  0.0129
   96POPC   C4A 1641   6.970   8.004   7.300 -0.3827 -0.0081 -0.0472
   96POPC   C1B 1642   6.995   8.540   8.229  0.4866 -0.0199 -0.2388
   96POPC   C2B 1643   7.025   8.937   7.954  0.0357  0.3762  0.1015
   96POPC   C3B 1644   6.975   9.360   7.779  0.1722  0.1065  0.0346
   96POPC   C4B 1645   6.812   9.481   7.423 -0.1504 -0.0837  0.0337
   97POPC   NC3 1646   7.349  10.225  10.084  0.1412  0.1756  0.6388
   97POPC   PO4 1647   7.369  10.094   9.585 -0.4013 -0.1621 -0.2945
   97POPC   GL1 1648   7.167  10.022   9.182 -0.2319  0.0365  0.0250
   97POPC   GL2 1649   6.974  10.260   9.073  0.1215 -0.1847 -0.0998
   97POPC   C1A 1650   7.439   9.984   8.810 -0.0533  0.0444 -0.1294
   97POPC   D2A 1651   7.802   9.762   8.800  0.1602 -0.0356  0.3364
   97POPC   C3A 1652   7.757   9.408   8.435  0.2325 -0.0838 -0.2454
   97POPC   C4A 1653   8.004   9.178   8.074  0.0312  0.0801 -0.2995
   97POPC   C1B 1654   6.760  10.663   8.918  0.0325  0.6415 -0.3222
   97POPC   C2B 1655   6.761  10.720   8.568 -0.3475  0.1118 -0.5324
   97POPC   C3B 1656   7.007  10.917   8.212  0.0871  0.2550  0.3314
   97POPC   C4B 1657   7.326  10.674   7.999  0.0019  0.0201 -0.1910
   98POPC   NC3 1658   9.601   0.936  10.596 -0.0028 -0.2409  0.0771
   98POPC   PO4 1659   9.645   0.966  10.149  0.4630 -0.0619  0.1948
   98POPC   GL1 1660   9.637   0.699   9.713  0.0097  0.1723  0.2760
   98POPC   GL2 1661   9.441   0.420   9.643  0.1938  0.0680  0.3159
   98POPC   C1A 1662   9.887   0.555   9.335 -0.1702  0.1373 -0.0646
   98POPC   D2A 1663  10.324   0.719   9.229 -0.0650 -0.3277 -0.0201
   98POPC   C3A 1664  10.636   0.522   9.048  0.3697  0.1020  0.1229
   98POPC   C4A 1665  11.092   0.539   8.829  0.0753  0.0141 -0.0868
   98POPC   C1B 1666   9.332   0.508   9.184 -0.1180  0.0211 -0.1598
   98POPC   C2B 1667   9.409   0.699   8.741  0.3725 -0.1046  0.0207
   98POPC   C3B 1668   9.216   1.115   8.469  0.2730 -0.0871  0.0326
   98POPC   C4B 1669   9.079   1.339   8.130 -0.1342 -0.0221 -0.0235
   99POPC   NC3 1670   0.810   4.415   8.623  0.2220 -0.0479  0.2335
   99POPC   PO4 1671   1.189   4.529   8.781  0.3540 -0.2164 -0.1839
   99POPC   GL1 1672   1.334   4.382   8.479  0.0870 -0.0531  0.2462
   99POPC   GL2 1673   1.451   4.635   8.344 -0.0465  0.2697 -0.1746
   99POPC   C1A 1674   1.361   4.226   7.986  0.0334 -0.3424 -0.0116
   99POPC   D2A 1675   1.235   4.307   7.575 -0.2396  0.3433 -0.3527
   99POPC   C3A 1676   1.013   4.369   7.258 -0.3118 -0.0882  0.0192
   99POPC   C4A 1677   1.094   4.535   6.872  0.2390 -0.2136 -0.2664
   99POPC   C1B 1678   1.703   4.567   7.910  0.4013  0.1117 -0.1723
   99POPC   C2B 1679   1.796   4.715   7.480  0.4390 -0.0162  0.0119
   99POPC   C3B 1680   1.555   4.857   7.140  0.0221 -0.0660  0.2400
   99POPC   C4B 1681   1.353   5.223   6.922  0.1461  0.2831 -0.2215
  100POPC   NC3 1682   6.165   9.077   9.173 -0.0024 -0.0771  0.0657
  100POPC   PO4 1683   5.692   9.203   9.108  0.0556  0.0804 -0.0080
  100POPC   GL1 1684   5.988   9.037   8.731 -0.0317 -0.0920  0.1472
  100POPC   GL2 1685   6.139   8.846   8.479  0.0697  0.0942 -0.2467
  100POPC   C1A 1686   6.346   9.284   8.610  0.0220  0.1000  0.2087
  100POPC   D2A 1687   6.761   9.498   8.590 -0.1996  0.0379 -0.2525
  100POPC   C3A 1688   6.847   9.819   8.165  0.2086 -0.1241 -0.1880
  100POPC   C4A 1689   7.239  10.160   8.035 -0.2771 -0.2328  0.2217
  100POPC   C1B 1690   6.011   9.130   8.150  0.1152 -0.0474  0.0475
  100POPC   C2B 1691   5.986   9.048   7.782  0.0146  0.1915 -0.0873
  100POPC   C3B 1692   5.789   8.834   7.379  0.1281  0.3341 -0.2134
  100POPC   C4B 1693   5.733   8.557   6.994  0.5538 -0.1630  0.0366
  101POPC   NC3 1694   9.413   7.052   9.197  0.0364  0.0283  0.0160
  101POPC   PO4 1695   9.601   7.098   8.778 -0.2494 -0.0648 -0.0691
  101POPC   GL1 1696   9.840   6.965   8.477 -0.1923 -0.0748  0.4642
  101POPC   GL2 1697  10.090   6.773   8.293 -0.0365  0.1432 -0.2574
  101POPC   C1A 1698   9.636   6.958   8.040  0.2573 -0.0499 -0.0816
  101POPC   D2A 1699   9.801   7.015   7.673  0.2937  0.1842 -0.2396
  101POPC   C3A 1700   9.697   6.758   7.329 -0.2155 -0.1188 -0.4788
  101POPC   C4A 1701   9.625   6.397   6.861 -0.0513 -0.2566 -0.3390
  101POPC   C1B 1702  10.214   6.702   7.889 -0.1996  0.2451 -0.0299
  101POPC   C2B 1703  10.216   6.620   7.444 -0.2930 -0.0420 -0.2643
  101POPC   C3B 1704  10.174   6.646   7.000 -0.1024 -0.0535  0.1462
  101POPC   C4B 1705  10.050   6.524   6.605 -0.1659 -0.2664 -0.0932
  102POPC   NC3 1706   0.978   9.413   9.267  0.3575  0.2615  0.0554
  102POPC   PO4 1707   1.172   9.149   9.093  0.1048  0.1243 -0.2524
  102POPC   GL1 1708   1.122   9.392   8.642  0.2151 -0.0559 -0.0139
  102POPC   GL2 1709   1.414   9.580   8.629 -0.0077 -0.0783 -0.1727
  102POPC   C1A 1710   1.231   9.349   8.215  0.0882  0.0343  0.0392
  102POPC   D2A 1711   1.717   9.476   8.149  0.2311  0.1558 -0.2773
  102POPC   C3A 1712   2.018   9.149   8.181 -0.2813 -0.4351  0.0136
  102POPC   C4A 1713   2.358   9.065   8.056  0.0647  0.1365  0.3384
  102POPC   C1B 1714   1.406   9.845   8.391 -0.1758  0.0372 -0.0924
  102POPC   C2B 1715   1.561   9.988   7.990  0.0394  0.1387 -0.3986
  102POPC   C3B 1716   1.418  10.170   7.617 -0.2477  0.2248 -0.0045
  102POPC   C4B 1717   1.312  10.605   7.389  0.2397 -0.0091  0.1156
  103POPC   NC3 1718   1.634   6.311   8.810 -0.0676  0.1693 -0.0416
  103POPC   PO4 1719   1.993   6.501   8.890  0.2896 -0.0413 -0.0189
  103POPC   GL1 1720   2.077   6.478   8.452 -0.0531  0.2134 -0.0725
  103POPC   GL2 1721   1.775   6.300   8.297  0.1027  0.2656  0.1163
  103POPC   C1A 1722   2.393   6.353   8.236  0.0508  0.1160 -0.1165
  103POPC   D2A 1723   2.227   6.173   7.961 -0.2548  0.0583  0.0129
  103POPC   C3A 1724   2.377   5.905   7.605  0.0346  0.1294  0.0040
  103POPC   C4A 1725   2.223   5.760   7.141 -0.0070  0.0201 -0.1934
  103POPC   C1B 1726   1.832   6.520   7.967  0.1148  0.1057 -0.0323
  103POPC   C2B 1727   2.144   6.550   7.687 -0.4243 -0.2869  0.3458
  103POPC   C3B 1728   2.430   6.749   7.535 -0.1837 -0.0025 -0.1536
  103POPC   C4B 1729   2.811   6.847   7.620  0.0693  0.0765 -0.1435
  104POPC   NC3 1730   0.289   7.615   8.803  0.0717 -0.2322  0.4623
  104POPC   PO4 1731  -0.102   7.458   8.952  0.4734 -0.0585  0.1320
  104POPC   GL1 1732  -0.146   7.789   8.575 -0.0341  0.1449  0.1619
  104POPC   GL2 1733   0.115   7.986   8.571  0.1647 -0.3079  0.1119
  104POPC   C1A 1734  -0.134   7.740   8.133 -0.2694  0.0041 -0.0591
  104POPC   D2A 1735  -0.038   7.840   7.770 -0.2567  0.0987 -0.1174
  104POPC   C3A 1736  -0.004   7.583   7.403 -0.2110 -0.2187 -0.2259
  104POPC   C4A 1737   0.300   7.398   7.489  0.3068  0.0389  0.0850
  104POPC   C1B 1738   0.284   8.060   8.221 -0.4378 -0.1097  0.0981
  104POPC   C2B 1739   0.246   8.325   7.813 -0.3186 -0.2217  0.1646
  104POPC   C3B 1740   0.411   8.422   7.442  0.1409  0.1746 -0.1581
  104POPC   C4B 1741   0.515   8.411   6.994 -0.0581 -0.2118  0.1360
  105POPC   NC3 1742   4.671   9.605   8.655 -0.2803 -0.1390  0.0130
  105POPC   PO4 1743   5.035   9.820   8.883 -0.3698  0.4074 -0.0817
  105POPC   GL1 1744   5.132   9.628   8.573 -0.0806  0.1172 -0.2673
  105POPC   GL2 1745   4.994   9.544   8.288 -0.1390  0.1688 -0.0745
  105POPC   C1A 1746   5.453   9.521   8.289  0.2710  0.1749 -0.0402
  105POPC   D2A 1747   5.609   9.406   8.043  0.0662 -0.4329 -0.0810
  105POPC   C3A 1748   6.138   9.629   8.127  0.3193  0.1061  0.2158
  105POPC   C4A 1749   6.361   9.771   8.432  0.0955  0.1759 -0.0563
  105POPC   C1B 1750   4.929   9.276   7.805 -0.0934 -0.0438  0.4011
  105POPC   C2B 1751   4.991   9.316   7.402 -0.1467 -0.0771 -0.1129
  105POPC   C3B 1752   4.975   9.809   7.301  0.0588 -0.0550 -0.0844
  105POPC   C4B 1753   5.211  10.035   7.083 -0.1088 -0.1828 -0.1532
  106POPC   NC3 1754   1.139   0.868  10.000 -0.0860 -0.1659 -0.1895
  106POPC   PO4 1755   1.055   1.000   9.551  0.0418 -0.2361  0.0069
  106POPC   GL1 1756   0.931   0.857   9.140 -0.1961 -0.0414  0.0158
  106POPC   GL2 1757   0.637   0.676   9.316  0.1221  0.0308  0.0052
  106POPC   C1A 1758   1.057   0.928   8.716 -0.1206  0.0854  0.1493
  106POPC   D2A 1759   1.188   0.792   8.399  0.0154  0.0660  0.0409
  106POPC   C3A 1760   0.939   0.694   8.007  0.0192 -0.2864  0.1212
  106POPC   C4A 1761   0.581   0.378   7.870  0.0210  0.0888 -0.1600
  106POPC   C1B 1762   0.444   1.004   8.983  0.1620 -0.0916 -0.1010
  106POPC   C2B 1763   0.226   0.945   8.670 -0.2125 -0.0141 -0.0257
  106POPC   C3B 1764  -0.002   0.785   8.306 -0.2161  0.3348 -0.3033
  106POPC   C4B 1765  -0.382   0.924   7.995 -0.1212 -0.0913  0.2656
  107POPC   NC3 1766   3.249   7.073   8.788  0.0983  0.0315 -0.1260
  107POPC   PO4 1767   3.602   6.840   8.537  0.1630  0.0986  0.0605
  107POPC   GL1 1768   3.602   6.894   8.082 -0.0112 -0.1488  0.2617
  107POPC   GL2 1769   3.916   6.897   8.015  0.1269  0.0007  0.0966
  107POPC   C1A 1770   3.665   6.713   7.659  0.2289 -0.3700 -0.1254
  107POPC   D2A 1771   3.681   6.781   7.253 -0.2993 -0.0004  0.1057
  107POPC   C3A 1772   3.834   6.527   6.927 -0.1693 -0.0440 -0.0719
  107POPC   C4A 1773   4.044   6.605   6.599  0.2226  0.1594 -0.2390
  107POPC   C1B 1774   3.994   7.110   7.639 -0.0361 -0.3142  0.1709
  107POPC   C2B 1775   3.930   7.476   7.288  0.0358  0.0666  0.0115
  107POPC   C3B 1776   3.642   7.716   7.204  0.2908 -0.3401  0.0207
  107POPC   C4B 1777   3.402   7.869   6.889 -0.4096  0.0777  0.4452
  108POPC   NC3 1778   6.581   3.861   9.194  0.1286  0.2498 -0.0367
  108POPC   PO4 1779   6.985   3.601   8.962 -0.0748  0.2313 -0.1191
  108POPC   GL1 1780   6.926   3.569   8.519  0.1238  0.1690  0.1093
  108POPC   GL2 1781   7.015   3.917   8.375  0.1265 -0.0074 -0.0153
  108POPC   C1A 1782   7.019   3.302   8.217 -0.1430 -0.0938  0.3517
  108POPC   D2A 1783   6.934   3.178   7.899 -0.1068 -0.2357  0.1462
  108POPC   C3A 1784   7.170   2.685   7.841 -0.2436  0.0234 -0.2593
  108POPC   C4A 1785   7.362   2.379   8.145  0.0429 -0.0328  0.2273
  108POPC   C1B 1786   7.058   3.708   7.924 -0.1998  0.0147 -0.1183
  108POPC   C2B 1787   7.301   3.486   7.744 -0.1293  0.1708 -0.1002
  108POPC   C3B 1788   7.661   3.360   7.526 -0.3501 -0.2151  0.1118
  108POPC   C4B 1789   7.892   3.022   7.261  0.1338  0.2057  0.1959
  109POPC   NC3 1790   3.442   3.614   8.654  0.3202  0.1320  0.1486
  109POPC   PO4 1791   3.554   3.220   8.695 -0.1939  0.0362 -0.2063
  109POPC   GL1 1792   3.704   3.106   8.265 -0.3219  0.0588 -0.2597
  109POPC   GL2 1793   3.841   2.858   8.129  0.0962  0.1192  0.0179
  109POPC   C1A 1794   3.552   3.050   7.794 -0.0728  0.0203 -0.1249
  109POPC   D2A 1795   3.703   2.723   7.609  0.0836  0.0867 -0.5113
  109POPC   C3A 1796   3.622   2.594   7.205  0.0286  0.1282 -0.2416
  109POPC   C4A 1797   3.368   2.629   6.799  0.0358  0.2302 -0.0576
  109POPC   C1B 1798   4.186   2.895   7.827  0.1416  0.0496 -0.0441
  109POPC   C2B 1799   4.464   2.834   7.594  0.1161  0.0718 -0.1946
  109POPC   C3B 1800   4.685   2.599   7.372  0.0202  0.1121  0.0001
  109POPC   C4B 1801   5.030   2.316   7.473 -0.0977  0.3938  0.0309
  110POPC   NC3 1802   4.073  10.163   8.867 -0.0582 -0.1582 -0.3339
  110POPC   PO4 1803   4.051   9.788   8.532 -0.0114 -0.4705  0.0968
  110POPC   GL1 1804   4.348   9.701   8.190  0.0907  0.0125  0.0267
  110POPC   GL2 1805   4.541   9.428   8.125  0.0226 -0.0735 -0.0447
  110POPC   C1A 1806   4.787   9.843   7.894 -0.0313 -0.0972  0.1435
  110POPC   D2A 1807   5.226   9.659   7.780 -0.0960  0.3948  0.0244
  110POPC   C3A 1808   5.484   9.756   7.372 -0.1079 -0.0903 -0.1482
  110POPC   C4A 1809   5.733   9.732   7.019 -0.2045 -0.1107 -0.0636
  110POPC   C1B 1810   4.405   9.495   7.772  0.0947 -0.0872  0.2053
  110POPC   C2B 1811   3.982   9.640   7.543  0.2739  0.2018  0.1553
  110POPC   C3B 1812   3.868   9.991   7.421 -0.0114 -0.0918  0.1127
  110POPC   C4B 1813   3.794  10.408   7.290  0.2397 -0.1201 -0.1572
  111POPC   NC3 1814   7.996   3.664   9.033 -0.1556  0.0467  0.4727
  111POPC   PO4 1815   8.132   3.410   8.691 -0.1669  0.0876 -0.0820
  111POPC   GL1 1816   8.276   3.104   8.379 -0.2636 -0.0216 -0.2912
  111POPC   GL2 1817   8.729   3.077   8.254 -0.0949 -0.0363 -0.0897
  111POPC   C1A 1818   8.333   2.900   8.024 -0.3847 -0.4358  0.0935
  111POPC   D2A 1819   8.020   2.979   7.723  0.2435 -0.0368  0.0485
  111POPC   C3A 1820   7.622   2.607   7.738 -0.1789 -0.1884 -0.2890
  111POPC   C4A 1821   7.575   2.220   7.654  0.1790 -0.0179 -0.0081
  111POPC   C1B 1822   8.822   3.264   7.847 -0.1585  0.0048  0.1788
  111POPC   C2B 1823   9.089   3.339   7.513  0.0830  0.1680 -0.0405
  111POPC   C3B 1824   9.418   3.263   7.209  0.2178  0.0030 -0.1930
  111POPC   C4B 1825   9.803   3.552   7.098 -0.1746  0.1152  0.1354
  112POPC   NC3 1826   8.590   2.992   8.732 -0.1093  0.2370  0.2927
  112POPC   PO4 1827   8.974   3.277   8.748  0.1329 -0.0003  0.0241
  112POPC   GL1 1828   9.320   3.140   8.509  0.0268 -0.0847 -0.0132
  112POPC   GL2 1829   9.200   3.354   8.259 -0.0934 -0.2287 -0.0947
  112POPC   C1A 1830   9.724   2.983   8.198  0.2173 -0.0672  0.0822
  112POPC   D2A 1831   9.942   2.851   7.942  0.0336  0.3484 -0.2318
  112POPC   C3A 1832   9.978   2.651   7.516 -0.0431  0.2162 -0.3267
  112POPC   C4A 1833  10.066   2.229   7.346  0.3429 -0.1095  0.2556
  112POPC   C1B 1834   9.625   3.476   8.093  0.0460  0.0886  0.0857
  112POPC   C2B 1835   9.614   3.217   7.794 -0.0153 -0.5928 -0.1872
  112POPC   C3B 1836   9.894   3.129   7.487 -0.2496  0.0785  0.2939
  112POPC   C4B 1837   9.889   3.082   6.986 -0.1682 -0.1550  0.0609
  113POPC   NC3 1838   3.831   8.038   8.808  0.0233  0.1123  0.0606
  113POPC   PO4 1839   4.023   7.695   8.569  0.0570  0.0798 -0.1823
  113POPC   GL1 1840   4.047   7.593   8.140  0.1658  0.2126 -0.3377
  113POPC   GL2 1841   3.770   7.435   8.078 -0.0244  0.0253 -0.1142
  113POPC   C1A 1842   4.222   7.544   7.731 -0.2310 -0.0933 -0.0260
  113POPC   D2A 1843   4.364   7.298   7.343 -0.1873 -0.0020  0.1354
  113POPC   C3A 1844   4.624   7.568   7.287  0.0209 -0.0016  0.2024
  113POPC   C4A 1845   5.000   7.551   7.595 -0.0052 -0.1509 -0.1306
  113POPC   C1B 1846   3.652   7.754   7.721 -0.0819  0.1740  0.2285
  113POPC   C2B 1847   3.410   8.193   7.608  0.1051  0.1217 -0.1492
  113POPC   C3B 1848   3.082   8.480   7.741 -0.0302  0.0218 -0.0026
  113POPC   C4B 1849   2.941   8.531   8.168 -0.2571 -0.1058 -0.2187
  114POPC   NC3 1850  10.437   9.187   9.489  0.0998 -0.1906  0.0627
  114POPC   PO4 1851   9.891   9.191   9.401 -0.1350 -0.0185  0.0307
  114POPC   GL1 1852   9.461   9.097   9.342  0.0702  0.2637  0.0609
  114POPC   GL2 1853   9.376   8.998   9.084  0.0467 -0.1732 -0.2698
  114POPC   C1A 1854   9.169   9.445   9.152 -0.3994 -0.2300  0.1029
  114POPC   D2A 1855   8.984   9.696   8.936 -0.2885 -0.2126 -0.0545
  114POPC   C3A 1856   9.262   9.885   8.664  0.0148  0.0395  0.1160
  114POPC   C4A 1857   9.669   9.952   8.648  0.0127 -0.1078  0.0296
  114POPC   C1B 1858   9.556   8.896   8.721 -0.1091  0.1221  0.0698
  114POPC   C2B 1859   9.852   9.128   8.501  0.0105 -0.0961  0.2875
  114POPC   C3B 1860  10.090   9.531   8.581  0.0107 -0.0694  0.5008
  114POPC   C4B 1861  10.139   9.981   8.395  0.1080 -0.4128 -0.0349
  115POPC   NC3 1862   1.770   7.795   8.702 -0.1722 -0.0553  0.1608
  115POPC   PO4 1863   2.149   8.015   8.633 -0.2116 -0.1711  0.0896
  115POPC   GL1 1864   1.984   7.993   8.215 -0.2943  0.0543  0.1529
  115POPC   GL2 1865   1.633   7.930   8.262  0.1420 -0.1806  0.3542
  115POPC   C1A 1866   1.949   8.159   7.784 -0.2007 -0.1136 -0.3143
  115POPC   D2A 1867   1.861   7.796   7.389 -0.0624 -0.1432 -0.3018
  115POPC   C3A 1868   1.542   7.510   7.567  0.3832 -0.1671  0.1167
  115POPC   C4A 1869   1.243   7.249   7.642 -0.4542 -0.2184  0.1629
  115POPC   C1B 1870   1.462   8.007   7.762  0.0648  0.0527 -0.0187
  115POPC   C2B 1871   1.363   7.955   7.373  0.0292  0.0484 -0.1933
  115POPC   C3B 1872   1.407   7.874   6.917  0.1163  0.2105 -0.2922
  115POPC   C4B 1873   1.276   7.696   6.534  0.2691 -0.2190 -0.2319
  116POPC   NC3 1874   2.761   4.237   8.849  0.0242 -0.0876  0.1593
  116POPC   PO4 1875   3.217   4.066   8.795  0.1653  0.2056 -0.0836
  116POPC   GL1 1876   3.053   3.819   8.392  0.0819  0.2144  0.1341
  116POPC   GL2 1877   2.762   3.668   8.394 -0.1330 -0.0269  0.2537
  116POPC   C1A 1878   3.153   3.667   7.884 -0.0303  0.0009  0.2784
  116POPC   D2A 1879   3.176   3.408   7.545  0.0937 -0.0678  0.0457
  116POPC   C3A 1880   2.788   3.198   7.394  0.2119 -0.1720 -0.1486
  116POPC   C4A 1881   2.368   3.244   7.579  0.1442  0.0326 -0.0026
  116POPC   C1B 1882   2.755   3.984   7.998  0.3035  0.2329 -0.3361
  116POPC   C2B 1883   2.388   4.125   7.704  0.1165  0.0874  0.0359
  116POPC   C3B 1884   2.235   4.042   7.315 -0.1532  0.1215 -0.1469
  116POPC   C4B 1885   2.340   4.163   6.989  0.0869  0.0475 -0.1231
  117POPC   NC3 1886   7.831   1.694  10.018  0.1918  0.1341  0.2484
  117POPC   PO4 1887   8.270   1.791   9.773 -0.2647 -0.0365  0.1078
  117POPC   GL1 1888   8.450   1.703   9.452  0.0958 -0.1635  0.1847
  117POPC   GL2 1889   8.751   1.733   9.386  0.2611  0.0153 -0.0232
  117POPC   C1A 1890   8.433   1.791   8.952  0.1766 -0.0412  0.0222
  117POPC   D2A 1891   8.367   1.931   8.589  0.0089  0.3298  0.1853
  117POPC   C3A 1892   8.663   2.204   8.363 -0.1979  0.0239  0.1213
  117POPC   C4A 1893   8.775   2.556   8.029 -0.1403 -0.0580 -0.3232
  117POPC   C1B 1894   8.750   1.330   9.170  0.4761 -0.0316 -0.1755
  117POPC   C2B 1895   8.693   0.921   8.953  0.0329  0.0889  0.1395
  117POPC   C3B 1896   8.918   0.571   8.654  0.1741  0.0147 -0.1617
  117POPC   C4B 1897   8.958   0.362   8.325  0.2124 -0.0300 -0.1394
  118POPC   NC3 1898   3.791   5.332   8.880 -0.2271 -0.3317  0.2105
  118POPC   PO4 1899   3.738   5.312   8.439 -0.0017  0.0161 -0.0322
  118POPC   GL1 1900   3.882   4.938   8.244 -0.2710 -0.4217 -0.2078
  118POPC   GL2 1901   3.712   4.738   8.079  0.0827 -0.0192 -0.1433
  118POPC   C1A 1902   3.844   5.137   7.829  0.1397  0.0247  0.5378
  118POPC   D2A 1903   3.486   5.455   7.792 -0.0019  0.1832  0.1750
  118POPC   C3A 1904   3.478   5.537   7.384  0.1022  0.4171 -0.2151
  118POPC   C4A 1905   3.109   5.564   7.091 -0.0215  0.0619 -0.0286
  118POPC   C1B 1906   3.733   4.584   7.624 -0.1753  0.0121 -0.5666
  118POPC   C2B 1907   3.916   4.448   7.298  0.1488 -0.2433  0.1095
  118POPC   C3B 1908   4.111   4.255   6.939 -0.0233  0.1506  0.0319
  118POPC   C4B 1909   3.850   4.022   6.584 -0.0890 -0.3584 -0.0232
  119POPC   NC3 1910   2.463   1.064   8.592 -0.2589 -0.1600 -0.1417
  119POPC   PO4 1911   2.575   0.587   8.651  0.0035  0.6319  0.2299
  119POPC   GL1 1912   2.577   0.382   8.114 -0.0870 -0.0920 -0.0503
  119POPC   GL2 1913   2.391   0.169   8.143 -0.2905  0.0193  0.1757
  119POPC   C1A 1914   2.780   0.100   7.836 -0.1475 -0.1878  0.1569
  119POPC   D2A 1915   2.731  -0.024   7.341  0.1227  0.1094 -0.6877
  119POPC   C3A 1916   2.532   0.258   7.137 -0.0049  0.0070  0.0179
  119POPC   C4A 1917   2.359   0.580   7.394  0.0706 -0.2280 -0.1243
  119POPC   C1B 1918   2.356   0.211   7.687 -0.2088 -0.1183 -0.2597
  119POPC   C2B 1919   2.186  -0.064   7.344  0.1303  0.0892 -0.3648
  119POPC   C3B 1920   2.134  -0.441   7.049 -0.0175  0.2967  0.0210
  119POPC   C4B 1921   2.133  -0.554   6.610  0.3371 -0.0162  0.1930
  120POPC   NC3 1922   4.687   2.404   8.808  0.0549 -0.1510 -0.0150
  120POPC   PO4 1923   4.151   2.266   8.678  0.1789 -0.0746 -0.0255
  120POPC   GL1 1924   4.044   2.015   8.325  0.0985  0.0648 -0.2888
  120POPC   GL2 1925   4.029   1.703   8.359  0.0486  0.1425 -0.2178
  120POPC   C1A 1926   4.008   1.964   7.877 -0.1462  0.2445 -0.0763
  120POPC   D2A 1927   4.179   1.784   7.405  0.2335 -0.1806 -0.0670
  120POPC   C3A 1928   4.166   1.347   7.246  0.1370  0.3143  0.1447
  120POPC   C4A 1929   4.202   1.074   6.980 -0.0577 -0.1265 -0.0587
  120POPC   C1B 1930   4.119   1.452   8.073  0.0825  0.2151  0.1759
  120POPC   C2B 1931   4.134   1.247   7.720  0.1462 -0.0237 -0.1439
  120POPC   C3B 1932   3.842   1.026   7.341  0.1909 -0.0338  0.0639
  120POPC   C4B 1933   3.739   0.945   7.011  0.0933  0.0706  0.2401
  121POPC   NC3 1934   1.893   4.046   9.317  0.0554  0.1387 -0.0926
  121POPC   PO4 1935   1.921   3.908   8.946  0.0104 -0.2936 -0.0890
  121POPC   GL1 1936   1.606   3.861   8.575  0.5283 -0.0011 -0.2771
  121POPC   GL2 1937   1.693   4.071   8.346  0.1017  0.4217 -0.2533
  121POPC   C1A 1938   1.507   3.705   8.105  0.0125  0.0455 -0.1001
  121POPC   D2A 1939   1.096   3.751   7.836  0.2366  0.1076 -0.4124
  121POPC   C3A 1940   1.029   3.400   7.638  0.1396  0.0642  0.1951
  121POPC   C4A 1941   0.738   3.022   7.647  0.0552  0.3309 -0.0212
  121POPC   C1B 1942   1.860   4.018   7.932  0.2531  0.0996  0.0372
  121POPC   C2B 1943   1.743   4.158   7.502  0.1831 -0.1617 -0.0586
  121POPC   C3B 1944   1.592   4.340   7.111  0.1613  0.0256  0.0778
  121POPC   C4B 1945   1.551   4.407   6.691 -0.1935  0.0036  0.1717
  122POPC   NC3 1946   0.296   5.766   8.736 -0.1232 -0.5017 -0.1174
  122POPC   PO4 1947   0.728   5.912   8.677 -0.1137 -0.3044 -0.1650
  122POPC   GL1 1948   0.637   5.780   8.334  0.0410  0.1368 -0.0384
  122POPC   GL2 1949   0.490   5.969   8.129 -0.0515 -0.0975  0.2876
  122POPC   C1A 1950   0.610   5.449   7.983 -0.0230  0.3123 -0.1499
  122POPC   D2A 1951   0.203   5.276   7.850  0.0199  0.1439 -0.2655
  122POPC   C3A 1952  -0.091   5.236   7.579 -0.4189  0.1527 -0.0952
  122POPC   C4A 1953  -0.374   5.655   7.285 -0.1343  0.3724  0.2165
  122POPC   C1B 1954   0.469   6.179   7.724 -0.0885  0.0804  0.0049
  122POPC   C2B 1955   0.256   6.507   7.528  0.0925  0.0122  0.1804
  122POPC   C3B 1956   0.430   6.534   7.146  0.3933  0.2486  0.0940
  122POPC   C4B 1957   0.790   6.451   6.916 -0.0740  0.0356 -0.0255
  123POPC   NC3 1958   5.934   1.281   8.931 -0.1191 -0.1302 -0.1996
  123POPC   PO4 1959   5.596   1.471   8.808  0.0405  0.2051  0.0023
  123POPC   GL1 1960   5.577   1.552   8.369 -0.1350 -0.1026 -0.0982
  123POPC   GL2 1961   5.627   1.828   8.310 -0.1517  0.2808 -0.0054
  123POPC   C1A 1962   5.514   1.457   7.963  0.1396 -0.1686  0.0192
  123POPC   D2A 1963   5.790   1.519   7.610 -0.0758 -0.3473  0.2583
  123POPC   C3A 1964   5.569   1.540   7.233  0.0798 -0.0721 -0.1781
  123POPC   C4A 1965   5.427   1.699   6.844 -0.2336  0.2113  0.2295
  123POPC   C1B 1966   6.037   1.523   8.142 -0.0274 -0.0112  0.1030
  123POPC   C2B 1967   6.328   1.467   7.717  0.2409  0.1050 -0.1433
  123POPC   C3B 1968   6.438   1.043   7.397  0.0818 -0.0504 -0.1666
  123POPC   C4B 1969   6.364   0.758   6.979  0.0632  0.1043 -0.0308
  124POPC   NC3 1970   1.645   1.705   8.474  0.2008  0.0313  0.3938
  124POPC   PO4 1971   2.075   1.746   8.393 -0.2005 -0.0370 -0.1023
  124POPC   GL1 1972   2.084   1.454   8.066 -0.0069  0.3109  0.3419
  124POPC   GL2 1973   2.471   1.351   8.044 -0.0626  0.4834  0.0377
  124POPC   C1A 1974   2.178   1.492   7.629 -0.2746 -0.0231  0.1421
  124POPC   D2A 1975   2.125   1.531   7.180 -0.0693 -0.0565  0.2027
  124POPC   C3A 1976   2.195   1.871   6.910  0.1384  0.0836 -0.1285
  124POPC   C4A 1977   2.286   2.274   7.127  0.0070  0.0676  0.2693
  124POPC   C1B 1978   2.411   0.979   7.759 -0.3462 -0.1258  0.0232
  124POPC   C2B 1979   2.734   0.687   7.712  0.1487  0.1526  0.2148
  124POPC   C3B 1980   2.938   0.464   7.344  0.0944  0.3561 -0.1645
  124POPC   C4B 1981   3.101   0.439   6.909 -0.0535 -0.0507 -0.5645
  125POPC   NC3 1982   0.751   6.422   8.930  0.2359  0.3028  0.1240
  125POPC   PO4 1983   0.673   6.790   8.633  0.3871 -0.3838 -0.2186
  125POPC   GL1 1984   0.293   6.759   8.389  0.0250 -0.0470  0.0272
  125POPC   GL2 1985   0.509   7.095   8.218  0.1780 -0.1069  0.0218
  125POPC   C1A 1986   0.156   6.436   8.135  0.0675 -0.0738  0.0456
  125POPC   D2A 1987  -0.075   6.185   7.855 -0.1293  0.1023  0.2438
  125POPC   C3A 1988   0.268   5.745   7.773 -0.2093  0.0285  0.2855
  125POPC   C4A 1989   0.270   5.567   7.396 -0.1084  0.0825  0.0060
  125POPC   C1B 1990   0.225   7.052   7.940  0.2233  0.0480 -0.2005
  125POPC   C2B 1991  -0.097   7.048   7.581 -0.0989 -0.3493 -0.0407
  125POPC   C3B 1992  -0.439   7.211   7.294 -0.2291  0.4625  0.1978
  125POPC   C4B 1993  -0.579   7.439   7.063  0.2208 -0.0718  0.4050
  126POPC   NC3 1994   9.726   5.092   8.786 -0.2561 -0.2254  0.1100
  126POPC   PO4 1995  10.055   4.682   8.791 -0.2095 -0.2362 -0.1187
  126POPC   GL1 1996  10.130   4.501   8.460  0.0162 -0.0284  0.1834
  126POPC   GL2 1997   9.851   4.382   8.296 -0.2199 -0.0450  0.1139
  126POPC   C1A 1998  10.405   4.290   8.142  0.0964  0.1368 -0.0530
  126POPC   D2A 1999  10.696   4.292   7.844 -0.1276  0.1205 -0.1988
  126POPC   C3A 2000  10.639   4.499   7.428  0.1624 -0.2233  0.0559
  126POPC   C4A 2001  10.315   4.661   7.312  0.3389 -0.4289 -0.0051
  126POPC   C1B 2002   9.690   4.007   8.035  0.1311  0.0360 -0.2483
  126POPC   C2B 2003   9.431   3.753   7.705 -0.0338  0.0835 -0.0707
  126POPC   C3B 2004   9.419   3.848   7.268  0.2523  0.1036 -0.0092
  126POPC   C4B 2005   9.045   4.148   7.190 -0.1249  0.1239 -0.1378
  127POPC   NC3 2006   0.605   8.418   9.301 -0.1398 -0.1601 -0.1123
  127POPC   PO4 2007   0.433   8.061   9.078  0.2433  0.2832  0.0679
  127POPC   GL1 2008   0.357   8.356   8.854  0.0386 -0.1473 -0.0695
  127POPC   GL2 2009   0.700   8.411   8.753 -0.0111  0.0465  0.1049
  127POPC   C1A 2010   0.194   8.499   8.436 -0.3438 -0.1820 -0.0817
  127POPC   D2A 2011   0.525   8.531   8.159  0.0425  0.2540 -0.1737
  127POPC   C3A 2012   0.615   8.758   7.802  0.2231 -0.1224 -0.1384
  127POPC   C4A 2013   0.702   8.826   7.362  0.0426  0.5139 -0.1104
  127POPC   C1B 2014   0.744   8.096   8.490 -0.0808  0.1315 -0.2233
  127POPC   C2B 2015   0.850   7.750   8.229  0.0446  0.1555  0.1327
  127POPC   C3B 2016   0.768   7.351   7.879  0.1110 -0.4252  0.2869
  127POPC   C4B 2017   0.813   7.246   7.417 -0.0682  0.0399 -0.4543
  128POPC   NC3 2018   1.052   5.631   8.944 -0.1458 -0.1726 -0.1733
  128POPC   PO4 2019   1.353   5.281   8.982 -0.0955 -0.0482  0.1495
  128POPC   GL1 2020   1.446   5.437   8.605  0.1083 -0.0136 -0.0683
  128POPC   GL2 2021   1.387   5.145   8.362  0.0218 -0.1763 -0.1634
  128POPC   C1A 2022   1.141   5.603   8.227  0.0432 -0.1797  0.1099
  128POPC   D2A 2023   0.942   5.762   7.935 -0.3721 -0.2866  0.2477
  128POPC   C3A 2024   0.723   5.808   7.512 -0.0223 -0.0139 -0.1192
  128POPC   C4A 2025   0.402   6.053   7.217  0.2812 -0.1160 -0.0645
  128POPC   C1B 2026   1.554   5.029   7.940  0.2325  0.2019 -0.1563
  128POPC   C2B 2027   1.619   5.135   7.541 -0.0253 -0.1154  0.0721
  128POPC   C3B 2028   1.864   5.294   7.010  0.4065  0.2074  0.1114
  128POPC   C4B 2029   1.776   5.086   6.677  0.2842  0.0628 -0.2751
  129POPC   NC3 2030   0.369   2.838   9.312  0.1283 -0.0117  0.3550
  129POPC   PO4 2031   0.322   2.965   8.922  0.1235  0.1548 -0.2082
  129POPC   GL1 2032   0.555   2.801   8.627  0.0017  0.1603  0.1266
  129POPC   GL2 2033   0.767   2.875   8.285 -0.2600 -0.2039 -0.0663
  129POPC   C1A 2034   0.319   2.659   8.274 -0.1952  0.4360 -0.0825
  129POPC   D2A 2035   0.361   2.695   7.816  0.2231  0.0354 -0.1469
  129POPC   C3A 2036   0.596   2.432   7.441 -0.1386  0.3035 -0.1447
  129POPC   C4A 2037   0.927   2.394   7.318  0.1582 -0.0689  0.1914
  129POPC   C1B 2038   0.469   3.129   8.158 -0.1336  0.0175 -0.1603
  129POPC   C2B 2039   0.222   3.306   7.773 -0.1859  0.1459 -0.2591
  129POPC   C3B 2040   0.278   3.366   7.445  0.2941  0.0474  0.3058
  129POPC   C4B 2041   0.387   3.643   7.064  0.1136 -0.3375  0.0709
  130POPC   NC3 2042   8.301  10.059   9.666 -0.1235  0.2613 -0.0229
  130POPC   PO4 2043   8.367  10.426  10.014 -0.0859 -0.0863 -0.0598
  130POPC   GL1 2044   8.590  10.486   9.634  0.1504 -0.0636 -0.0343
  130POPC   GL2 2045   8.768  10.322   9.571 -0.3893  0.0286  0.0570
  130POPC   C1A 2046   8.493  10.692   9.239 -0.0361  0.3280  0.0381
  130POPC   D2A 2047   8.417  10.951   8.957 -0.3260  0.2295  0.1028
  130POPC   C3A 2048   8.010  10.852   8.648 -0.0032 -0.0137  0.3197
  130POPC   C4A 2049   7.634  10.646   8.878 -0.0157 -0.0375  0.4539
  130POPC   C1B 2050   9.007  10.617   9.232  0.0263  0.1804  0.0167
  130POPC   C2B 2051   8.768  10.627   8.842 -0.0796 -0.2930 -0.0976
  130POPC   C3B 2052   8.325  10.506   8.712  0.1011 -0.0108  0.1551
  130POPC   C4B 2053   8.170  10.262   8.329 -0.0743 -0.0953 -0.0728
  131POPC   NC3 2054   7.061   7.694   8.661 -0.4151 -0.3413 -0.1560
  131POPC   PO4 2055   6.931   8.015   8.823 -0.0202 -0.0898 -0.0416
  131POPC   GL1 2056   6.686   7.985   8.462  0.4430 -0.1836  0.3072
  131POPC   GL2 2057   6.423   7.839   8.239  0.1719  0.1762 -0.0432
  131POPC   C1A 2058   6.645   8.220   8.109  0.2862 -0.0312 -0.0807
  131POPC   D2A 2059   6.670   8.462   7.694  0.2579  0.2961  0.0416
  131POPC   C3A 2060   6.983   8.617   7.525 -0.2991  0.0558 -0.1050
  131POPC   C4A 2061   7.235   8.697   7.106 -0.0100 -0.3626 -0.1182
  131POPC   C1B 2062   6.125   8.077   7.921  0.1194  0.0237  0.3111
  131POPC   C2B 2063   6.134   7.954   7.515 -0.2442 -0.0605  0.1993
  131POPC   C3B 2064   6.052   8.214   7.209  0.0107  0.0536 -0.0647
  131POPC   C4B 2065   5.897   8.036   6.828  0.0772  0.0169 -0.1822
  132POPC   NC3 2066   8.585   7.193   9.132 -0.1164 -0.0375  0.2096
  132POPC   PO4 2067   8.549   6.973   8.716 -0.1172  0.0773 -0.4256
  132POPC   GL1 2068   8.144   6.913   8.440 -0.1031 -0.0845  0.0764
  132POPC   GL2 2069   8.302   7.071   8.255 -0.0906  0.1365 -0.0601
  132POPC   C1A 2070   8.012   6.823   7.965  0.0464  0.1648  0.2181
  132POPC   D2A 2071   8.136   6.562   7.623  0.1298 -0.3204 -0.2567
  132POPC   C3A 2072   8.048   6.147   7.595  0.1029 -0.2605 -0.0090
  132POPC   C4A 2073   7.926   5.905   7.194  0.2553 -0.1574  0.0705
  132POPC   C1B 2074   8.089   7.287   7.890  0.0273 -0.0907 -0.1740
  132POPC   C2B 2075   8.020   7.246   7.453  0.0265  0.4171  0.1152
  132POPC   C3B 2076   8.012   6.839   7.130 -0.0807 -0.1407 -0.0176
  132POPC   C4B 2077   7.989   6.394   6.987 -0.0648 -0.0156  0.0273
  133POPC   NC3 2078   2.922   2.699   8.855  0.1026 -0.2366 -0.2735
  133POPC   PO4 2079   2.751   2.301   8.873 -0.0638 -0.3112  0.0474
  133POPC   GL1 2080   2.868   2.563   8.415  0.4327  0.0127  0.0898
  133POPC   GL2 2081   2.865   2.992   8.456  0.2636 -0.0419 -0.0100
  133POPC   C1A 2082   2.676   2.596   7.971  0.0821 -0.0729 -0.1781
  133POPC   D2A 2083   2.458   2.544   7.631  0.0259 -0.0836  0.2400
  133POPC   C3A 2084   2.507   2.797   7.277  0.2565  0.1091  0.1664
  133POPC   C4A 2085   2.542   3.183   6.927  0.2801 -0.6400 -0.0701
  133POPC   C1B 2086   2.764   3.240   8.063 -0.1579  0.0621  0.1640
  133POPC   C2B 2087   2.665   3.591   7.729  0.0592  0.3473  0.3888
  133POPC   C3B 2088   2.731   3.884   7.480 -0.2563  0.0052 -0.2125
  133POPC   C4B 2089   3.081   4.046   7.176  0.1440 -0.2558 -0.1256
  134POPC   NC3 2090   5.678   4.452   8.280 -0.0857 -0.0267  0.1758
  134POPC   PO4 2091   5.709   4.851   8.483  0.0522  0.3387 -0.0882
  134POPC   GL1 2092   6.094   4.787   8.258  0.0687  0.0640  0.0443
  134POPC   GL2 2093   6.284   5.045   8.087 -0.2716 -0.0944 -0.2161
  134POPC   C1A 2094   6.097   4.721   7.733  0.1834 -0.3624  0.2067
  134POPC   D2A 2095   6.109   4.638   7.217  0.2022  0.0066 -0.2401
  134POPC   C3A 2096   6.011   4.204   7.208  0.0624  0.1539  0.4035
  134POPC   C4A 2097   5.942   3.969   7.449  0.0885  0.0417  0.1952
  134POPC   C1B 2098   5.984   5.324   7.877  0.3306 -0.0497  0.1206
  134POPC   C2B 2099   5.641   5.549   7.650 -0.1110  0.2346  0.1751
  134POPC   C3B 2100   5.216   5.633   7.408  0.1378 -0.1568 -0.2265
  134POPC   C4B 2101   4.854   5.481   7.273  0.1845 -0.3598  0.1577
  135POPC   NC3 2102   9.271   8.887   9.756 -0.0519  0.2129  0.3225
  135POPC   PO4 2103   8.922   8.872   9.479  0.0022  0.1488 -0.0160
  135POPC   GL1 2104   8.719   8.967   9.076  0.2239 -0.2820 -0.0160
  135POPC   GL2 2105   8.978   8.824   8.885  0.0398  0.1763  0.3212
  135POPC   C1A 2106   8.760   9.317   8.799 -0.1238  0.3117 -0.0868
  135POPC   D2A 2107   8.690   9.529   8.515 -0.3621 -0.2240  0.1736
  135POPC   C3A 2108   8.622   9.479   8.074  0.2099  0.1782 -0.0389
  135POPC   C4A 2109   8.867   9.349   7.744  0.1267 -0.3494  0.0886
  135POPC   C1B 2110   9.050   8.888   8.508 -0.2115 -0.0602 -0.2305
  135POPC   C2B 2111   8.969   9.186   8.248  0.2034 -0.1412 -0.2040
  135POPC   C3B 2112   9.090   9.615   8.131 -0.1013  0.1893 -0.0169
  135POPC   C4B 2113   9.165   9.934   8.166 -0.2840 -0.2121 -0.0844
  136POPC   NC3 2114   5.590   1.026   9.244  0.0414 -0.0618 -0.1862
  136POPC   PO4 2115   5.793   0.839   8.812 -0.1480  0.2778 -0.2101
  136POPC   GL1 2116   5.753   0.739   8.419 -0.3227  0.0731 -0.1335
  136POPC   GL2 2117   5.855   0.971   8.225  0.0988 -0.0425 -0.0690
  136POPC   C1A 2118   5.407   0.583   8.126 -0.1106 -0.1323 -0.2542
  136POPC   D2A 2119   5.393   0.416   7.732 -0.0060  0.0676  0.1054
  136POPC   C3A 2120   5.758   0.430   7.372 -0.0045 -0.2653 -0.0214
  136POPC   C4A 2121   6.106   0.279   7.191  0.1098 -0.0337 -0.0876
  136POPC   C1B 2122   5.761   0.787   7.699  0.2900  0.2493  0.0008
  136POPC   C2B 2123   5.983   0.915   7.342 -0.1140 -0.4046  0.2218
  136POPC   C3B 2124   6.046   1.323   7.090  0.1232  0.2422 -0.1961
  136POPC   C4B 2125   5.958   1.692   6.916 -0.3494 -0.2672  0.1671
  137POPC   NC3 2126   4.620   7.130   9.130  0.5317  0.0417 -0.2137
  137POPC   PO4 2127   4.223   7.058   8.906 -0.0275 -0.4917 -0.0183
  137POPC   GL1 2128   4.448   7.198   8.393  0.1750  0.0069  0.2144
  137POPC   GL2 2129   4.521   7.430   8.319  0.4920 -0.0111 -0.0170
  137POPC   C1A 2130   4.402   6.940   7.964  0.2063 -0.0573  0.3180
  137POPC   D2A 2131   4.323   6.726   7.627 -0.3509 -0.1023  0.0285
  137POPC   C3A 2132   4.174   6.826   7.254 -0.0926  0.0609 -0.1206
  137POPC   C4A 2133   4.016   7.079   6.979 -0.1450 -0.1369  0.0573
  137POPC   C1B 2134   4.665   7.421   7.966  0.1555  0.2734 -0.5253
  137POPC   C2B 2135   4.720   7.180   7.630  0.0483 -0.3312  0.1695
  137POPC   C3B 2136   4.994   7.217   7.202  0.2133 -0.0473  0.0828
  137POPC   C4B 2137   5.165   7.191   6.701  0.0196 -0.0604  0.1043
  138POPC   NC3 2138   7.349   8.245   9.158  0.0531 -0.0678 -0.1468
  138POPC   PO4 2139   7.780   8.304   8.985 -0.0349 -0.0410  0.0788
  138POPC   GL1 2140   7.958   8.358   8.587 -0.2266  0.0245  0.4753
  138POPC   GL2 2141   7.944   8.098   8.401  0.0883 -0.1970  0.0136
  138POPC   C1A 2142   8.095   8.645   8.319 -0.2606  0.0874  0.1676
  138POPC   D2A 2143   7.943   8.624   7.887  0.2907 -0.1766  0.1956
  138POPC   C3A 2144   8.120   8.983   7.605 -0.1331 -0.1192  0.0127
  138POPC   C4A 2145   8.016   9.147   7.166  0.1502  0.2008  0.0730
  138POPC   C1B 2146   8.227   8.151   8.186 -0.2537 -0.2835 -0.0470
  138POPC   C2B 2147   8.264   8.239   7.690 -0.2214  0.4098 -0.0844
  138POPC   C3B 2148   8.183   8.087   7.376  0.0524  0.0065 -0.0884
  138POPC   C4B 2149   8.170   7.765   6.985 -0.1193 -0.0638 -0.0883
  139POPC   NC3 2150   6.854   6.363   8.479 -0.1368  0.1620  0.0650
  139POPC   PO4 2151   6.690   5.998   8.848 -0.0167  0.2143  0.2898
  139POPC   GL1 2152   6.561   5.886   8.399  0.2544 -0.0300  0.0644
  139POPC   GL2 2153   6.407   5.636   8.204 -0.6114 -0.1947 -0.0800
  139POPC   C1A 2154   6.520   6.151   7.984 -0.3066 -0.2404 -0.2160
  139POPC   D2A 2155   6.730   6.042   7.595 -0.4698 -0.0297  0.2527
  139POPC   C3A 2156   6.426   5.927   7.387  0.1476 -0.0726 -0.0358
  139POPC   C4A 2157   6.071   6.011   7.138 -0.1934 -0.0791  0.0048
  139POPC   C1B 2158   6.329   5.729   7.823 -0.0469  0.2340  0.0038
  139POPC   C2B 2159   6.116   5.577   7.479 -0.2079  0.2423  0.0516
  139POPC   C3B 2160   5.912   5.267   7.264  0.0765 -0.0924 -0.0502
  139POPC   C4B 2161   5.672   5.027   7.339 -0.1603  0.0482  0.0237
  140POPC   NC3 2162   4.479   4.755   8.763 -0.0858 -0.0638  0.1868
  140POPC   PO4 2163   4.359   4.883   8.321 -0.0723  0.3394 -0.3295
  140POPC   GL1 2164   4.355   4.559   7.978  0.3346  0.0026 -0.1094
  140POPC   GL2 2165   4.144   4.754   7.749  0.1725 -0.3091 -0.0140
  140POPC   C1A 2166   4.409   4.505   7.443  0.1213 -0.3275  0.2441
  140POPC   D2A 2167   4.591   4.395   7.038  0.0416  0.2523 -0.1684
  140POPC   C3A 2168   4.507   4.694   6.685 -0.0741  0.1356 -0.2331
  140POPC   C4A 2169   4.278   5.040   6.610  0.0054  0.1595 -0.1520
  140POPC   C1B 2170   3.867   4.965   7.351  0.1673 -0.0186  0.3028
  140POPC   C2B 2171   3.857   5.177   6.910  0.0493  0.2591  0.2848
  140POPC   C3B 2172   3.851   5.139   6.400  0.4181  0.2137  0.1231
  140POPC   C4B 2173   3.608   5.216   6.081 -0.0590 -0.0243 -0.2787
  141POPC   NC3 2174   3.512   1.038   8.595  0.0338  0.0042 -0.2415
  141POPC   PO4 2175   3.078   0.851   8.801  0.2098 -0.2728 -0.2996
  141POPC   GL1 2176   3.058   0.905   8.362  0.1663 -0.2004 -0.1042
  141POPC   GL2 2177   2.726   0.864   8.236  0.0282 -0.0546  0.2147
  141POPC   C1A 2178   3.219   0.759   7.981  0.0256  0.0704  0.1789
  141POPC   D2A 2179   3.326   0.371   7.723 -0.1701  0.0670 -0.1748
  141POPC   C3A 2180   3.166   0.053   7.522  0.2807 -0.0184 -0.0576
  141POPC   C4A 2181   3.189  -0.291   7.262 -0.1920  0.1739 -0.0485
  141POPC   C1B 2182   2.885   1.126   7.877  0.2441 -0.2095  0.2308
  141POPC   C2B 2183   2.769   1.527   7.647  0.3752 -0.0599 -0.0800
  141POPC   C3B 2184   2.612   1.759   7.247  0.1892 -0.0131 -0.1150
  141POPC   C4B 2185   2.535   1.416   6.904 -0.2056  0.0625  0.0780
  142POPC   NC3 2186   0.874   9.118   9.670  0.0159 -0.2167  0.3335
  142POPC   PO4 2187   0.471   9.231   9.530  0.0150  0.2491  0.0182
  142POPC   GL1 2188   0.399   8.940   9.213 -0.1724 -0.1090 -0.0923
  142POPC   GL2 2189   0.693   9.102   8.958  0.0042  0.3050  0.2938
  142POPC   C1A 2190   0.215   8.819   8.814  0.2548  0.0966 -0.1279
  142POPC   D2A 2191   0.290   8.967   8.409 -0.1707 -0.0527  0.0032
  142POPC   C3A 2192   0.297   9.215   8.033  0.0320  0.1761 -0.1846
  142POPC   C4A 2193  -0.059   9.456   7.720 -0.0165  0.1679 -0.1779
  142POPC   C1B 2194   0.786   8.940   8.530  0.1302 -0.1042  0.0782
  142POPC   C2B 2195   0.827   9.094   8.100 -0.2045  0.1175  0.2590
  142POPC   C3B 2196   0.730   9.273   7.749 -0.0113  0.0566 -0.1348
  142POPC   C4B 2197   0.727   9.455   7.275 -0.0648  0.0473 -0.0875
  143POPC   NC3 2198   2.456   9.765   8.866  0.0264  0.2331  0.1027
  143POPC   PO4 2199   2.754   9.541   8.621 -0.0046 -0.0887 -0.2169
  143POPC   GL1 2200   2.641   9.590   8.253 -0.2345 -0.0201  0.1705
  143POPC   GL2 2201   2.319   9.636   8.343  0.1407 -0.1218  0.2507
  143POPC   C1A 2202   2.506   9.590   7.863 -0.0992  0.1429 -0.0685
  143POPC   D2A 2203   2.172   9.333   7.680 -0.1595  0.3774 -0.1105
  143POPC   C3A 2204   1.954   9.461   7.183  0.2479 -0.1109  0.0316
  143POPC   C4A 2205   1.841   9.115   6.930 -0.2400 -0.1689 -0.1245
  143POPC   C1B 2206   2.063   9.821   7.959 -0.0847 -0.2174  0.1140
  143POPC   C2B 2207   1.865   9.871   7.555  0.0339 -0.1325  0.4851
  143POPC   C3B 2208   1.651   9.821   7.197 -0.1041 -0.1540  0.0325
  143POPC   C4B 2209   1.635  10.009   6.788 -0.2463 -0.2121  0.1688
  144POPC   NC3 2210   9.967   4.913   9.403 -0.3762  0.2436  0.1325
  144POPC   PO4 2211  10.215   5.140   9.085 -0.0975  0.1656  0.1233
  144POPC   GL1 2212  10.431   5.082   8.696  0.1341 -0.1540 -0.3203
  144POPC   GL2 2213  10.133   5.074   8.470 -0.1293  0.1663 -0.0370
  144POPC   C1A 2214  10.527   4.805   8.303  0.3642  0.4148 -0.2406
  144POPC   D2A 2215  10.898   4.619   8.125 -0.1019  0.0905 -0.1727
  144POPC   C3A 2216  11.121   4.814   7.728  0.2596 -0.0025  0.1820
  144POPC   C4A 2217  11.131   4.673   7.334 -0.2536  0.2681 -0.1681
  144POPC   C1B 2218  10.059   4.738   8.028  0.2662  0.0719  0.0567
  144POPC   C2B 2219   9.985   4.573   7.700 -0.0772  0.0060  0.0746
  144POPC   C3B 2220   9.861   4.514   7.189 -0.0130 -0.0231 -0.1766
  144POPC   C4B 2221   9.498   4.349   7.033  0.0024  0.2101 -0.1867
  145POPC   NC3 2222   9.101   5.909   8.558 -0.0316  0.0077  0.1657
  145POPC   PO4 2223   9.442   6.184   8.732  0.1405  0.0891  0.0696
  145POPC   GL1 2224   9.518   5.982   8.260 -0.0678 -0.1716  0.0927
  145POPC   GL2 2225   9.421   5.719   8.222 -0.1110  0.1204  0.1783
  145POPC   C1A 2226   9.377   6.069   7.787 -0.4059 -0.0856 -0.2072
  145POPC   D2A 2227   9.128   5.972   7.544  0.1143  0.0182  0.0343
  145POPC   C3A 2228   9.069   5.565   7.470 -0.0312  0.1040 -0.0123
  145POPC   C4A 2229   8.724   5.364   7.600  0.1117  0.0823 -0.0348
  145POPC   C1B 2230   9.348   5.332   7.896  0.0141 -0.2793 -0.0725
  145POPC   C2B 2231   9.400   5.164   7.496 -0.0284  0.0969 -0.2080
  145POPC   C3B 2232   9.041   4.972   7.221 -0.0900  0.3729  0.1801
  145POPC   C4B 2233   8.592   4.965   7.309  0.2533 -0.3436  0.0047
  146POPC   NC3 2234   0.875   1.493   9.483  0.0986  0.1208 -0.2918
  146POPC   PO4 2235   1.243   1.766   9.321  0.0300 -0.1303 -0.0505
  146POPC   GL1 2236   0.993   1.552   8.938 -0.1219  0.1791  0.0170
  146POPC   GL2 2237   0.781   1.333   9.017  0.1970  0.1581  0.3283
  146POPC   C1A 2238   0.721   1.666   8.502 -0.2177  0.0326  0.0341
  146POPC   D2A 2239   0.586   1.826   8.163  0.0084 -0.5399 -0.0896
  146POPC   C3A 2240   0.124   1.843   8.196  0.0680  0.1155 -0.1037
  146POPC   C4A 2241  -0.160   1.971   7.835  0.0407  0.6569 -0.5578
  146POPC   C1B 2242   0.703   1.236   8.630  0.0009  0.2279  0.1166
  146POPC   C2B 2243   0.411   1.384   8.214 -0.1627 -0.0220 -0.1558
  146POPC   C3B 2244   0.119   1.175   7.938 -0.1743 -0.2398 -0.1593
  146POPC   C4B 2245  -0.095   0.966   7.599  0.0406  0.2587 -0.0538
  147POPC   NC3 2246   1.137   2.198   8.712  0.1204 -0.0576  0.1932
  147POPC   PO4 2247   1.549   2.223   8.431 -0.1270 -0.3561 -0.1348
  147POPC   GL1 2248   1.576   2.035   7.985 -0.0148  0.0876  0.0327
  147POPC   GL2 2249   1.842   1.853   7.898  0.4079  0.2036 -0.1862
  147POPC   C1A 2250   1.419   2.011   7.562 -0.3231 -0.0007 -0.1927
  147POPC   D2A 2251   1.280   2.098   7.087 -0.4349  0.0310 -0.0409
  147POPC   C3A 2252   1.769   2.231   6.928  0.1443  0.0917 -0.0329
  147POPC   C4A 2253   1.792   2.438   6.571  0.0407  0.0428 -0.4419
  147POPC   C1B 2254   1.697   1.606   7.689  0.2666 -0.1546  0.1309
  147POPC   C2B 2255   1.626   1.341   7.408  0.0752  0.0527 -0.1012
  147POPC   C3B 2256   1.742   1.279   6.993 -0.1462 -0.4451 -0.2405
  147POPC   C4B 2257   1.959   1.469   6.618  0.1888 -0.1257 -0.3475
  148POPC   NC3 2258   1.812   4.598   9.160  0.1745  0.0583 -0.0149
  148POPC   PO4 2259   2.203   4.378   9.026 -0.1528 -0.0003 -0.4192
  148POPC   GL1 2260   2.253   4.280   8.516 -0.0105  0.0622 -0.0205
  148POPC   GL2 2261   2.057   4.399   8.295 -0.0246  0.1440 -0.0141
  148POPC   C1A 2262   2.639   4.370   8.165 -0.2161 -0.2846  0.2981
  148POPC   D2A 2263   2.716   4.488   7.789  0.1103  0.4724  0.0489
  148POPC   C3A 2264   3.054   4.544   7.584 -0.2567  0.1636 -0.0277
  148POPC   C4A 2265   3.349   4.572   7.280 -0.2104 -0.0081  0.0301
  148POPC   C1B 2266   2.251   4.626   7.894 -0.0181 -0.2185 -0.0461
  148POPC   C2B 2267   2.286   4.568   7.549 -0.0649 -0.0070  0.0121
  148POPC   C3B 2268   2.697   4.476   7.264 -0.0697 -0.1569 -0.1098
  148POPC   C4B 2269   2.849   4.214   6.775 -0.0241  0.2100  0.0567
  149POPC   NC3 2270   2.457   2.002   8.612  0.2659 -0.3960  0.1193
  149POPC   PO4 2271   2.387   2.437   8.534 -0.1200  0.1983  0.1031
  149POPC   GL1 2272   2.503   2.157   8.141  0.1971 -0.3522 -0.1366
  149POPC   GL2 2273   2.410   1.841   8.033  0.0584 -0.2741  0.0474
  149POPC   C1A 2274   2.719   2.117   7.603 -0.1866 -0.0609 -0.1100
  149POPC   D2A 2275   2.766   2.323   7.267  0.2315 -0.1947  0.1239
  149POPC   C3A 2276   2.755   2.062   6.862  0.2155 -0.0575  0.4150
  149POPC   C4A 2277   2.691   2.094   6.450  0.0916  0.1000 -0.2334
  149POPC   C1B 2278   2.240   2.083   7.646 -0.2467  0.1964  0.1689
  149POPC   C2B 2279   1.883   1.983   7.386 -0.1196 -0.1404 -0.2760
  149POPC   C3B 2280   1.688   1.774   7.168 -0.3129  0.1653  0.0878
  149POPC   C4B 2281   1.309   1.544   6.926  0.1830 -0.0740 -0.2254
  150POPC   NC3 2282   4.703   1.419   8.913 -0.2503  0.0872 -0.0609
  150POPC   PO4 2283   5.125   1.164   9.045  0.0666 -0.1633  0.1777
  150POPC   GL1 2284   5.190   1.267   8.542 -0.0039 -0.0703 -0.0996
  150POPC   GL2 2285   5.373   1.055   8.323 -0.0705 -0.0240 -0.0360
  150POPC   C1A 2286   5.118   1.699   8.244  0.0815 -0.1019 -0.2369
  150POPC   D2A 2287   5.325   2.023   7.967  0.2444 -0.1363  0.1063
  150POPC   C3A 2288   5.556   1.965   7.634  0.2538 -0.0210  0.0605
  150POPC   C4A 2289   6.092   1.819   7.401 -0.0203 -0.1381 -0.1556
  150POPC   C1B 2290   5.341   1.005   7.822  0.1796  0.5005 -0.1018
  150POPC   C2B 2291   5.466   1.096   7.433  0.1950  0.1918  0.0891
  150POPC   C3B 2292   5.540   0.934   7.045  0.0339 -0.1686 -0.0389
  150POPC   C4B 2293   5.372   0.850   6.744  0.1599 -0.2447  0.1451
  151POPC   NC3 2294   5.502  10.407   9.392  0.1015  0.0067  0.0668
  151POPC   PO4 2295   5.939  10.578   9.416 -0.1217  0.2497  0.1298
  151POPC   GL1 2296   5.869  10.503   9.001 -0.0159 -0.2438 -0.2902
  151POPC   GL2 2297   5.784  10.731   8.740 -0.0797  0.2756  0.0941
  151POPC   C1A 2298   5.891  10.246   8.651 -0.0270  0.1068 -0.1753
  151POPC   D2A 2299   5.869  10.026   8.301  0.2423  0.1884  0.0385
  151POPC   C3A 2300   5.646   9.880   7.960 -0.0729 -0.1051  0.3793
  151POPC   C4A 2301   5.927   9.565   7.621  0.2170 -0.2200  0.0890
  151POPC   C1B 2302   5.879  10.673   8.303  0.3206  0.0374 -0.1830
  151POPC   C2B 2303   5.868  10.818   7.829 -0.1429  0.0158 -0.0376
  151POPC   C3B 2304   6.224  11.012   7.576  0.2293  0.0875 -0.3638
  151POPC   C4B 2305   6.609  11.006   7.382 -0.0522  0.0371 -0.1642
  152POPC   NC3 2306   2.944   6.250   8.969  0.2365 -0.1697  0.1496
  152POPC   PO4 2307   2.930   5.881   8.842 -0.1493  0.1375  0.0090
  152POPC   GL1 2308   2.999   5.866   8.441  0.1216 -0.0313  0.0206
  152POPC   GL2 2309   3.250   5.955   8.382  0.3429 -0.4596  0.2865
  152POPC   C1A 2310   3.046   5.531   8.127 -0.1505 -0.1142 -0.0495
  152POPC   D2A 2311   3.035   5.436   7.638 -0.0474  0.2406 -0.0929
  152POPC   C3A 2312   2.778   5.732   7.372 -0.2173 -0.0445  0.0712
  152POPC   C4A 2313   2.695   5.900   6.988 -0.1710 -0.1809  0.1438
  152POPC   C1B 2314   3.096   5.986   7.941  0.2240 -0.1118  0.0410
  152POPC   C2B 2315   3.175   5.993   7.503 -0.1437  0.1421  0.1282
  152POPC   C3B 2316   3.106   6.246   7.142 -0.0835 -0.0348  0.0069
  152POPC   C4B 2317   3.343   6.490   6.880  0.2061 -0.1593  0.2916
  153POPC   NC3 2318   4.396   8.016   8.586 -0.1740  0.0587  0.2314
  153POPC   PO4 2319   4.185   8.367   8.816 -0.0803  0.1794 -0.2358
  153POPC   GL1 2320   4.143   8.518   8.319 -0.4340 -0.0468  0.2333
  153POPC   GL2 2321   4.344   8.795   8.313  0.2712 -0.0086  0.2239
  153POPC   C1A 2322   4.219   8.585   7.819 -0.4933 -0.0322 -0.0599
  153POPC   D2A 2323   4.416   8.432   7.384  0.0349  0.0258  0.0934
  153POPC   C3A 2324   4.317   8.387   6.932  0.1356  0.0777 -0.1680
  153POPC   C4A 2325   4.272   8.233   6.510 -0.0698  0.0001  0.2166
  153POPC   C1B 2326   4.329   9.040   7.997  0.0847  0.0820 -0.1698
  153POPC   C2B 2327   4.135   9.133   7.518  0.0792 -0.0581 -0.2394
  153POPC   C3B 2328   4.346   9.410   7.179  0.0120 -0.1579  0.0298
  153POPC   C4B 2329   4.692   9.550   7.005  0.3561 -0.0787  0.1217
  154POPC   NC3 2330   2.137   0.063   9.144 -0.4049  0.2164  0.1269
  154POPC   PO4 2331   2.188   0.286   8.725  0.1419  0.3170 -0.2124
  154POPC   GL1 2332   2.071   0.477   8.333  0.0745 -0.0312  0.2827
  154POPC   GL2 2333   2.216   0.812   8.208  0.3036  0.0384 -0.2201
  154POPC   C1A 2334   1.912   0.214   7.981  0.0975  0.0966  0.2516
  154POPC   D2A 2335   1.925  -0.136   7.745  0.1535 -0.0195  0.1903
  154POPC   C3A 2336   1.724  -0.062   7.230 -0.0418 -0.0565 -0.0648
  154POPC   C4A 2337   1.529   0.120   6.935  0.0585 -0.2219  0.1030
  154POPC   C1B 2338   2.068   0.620   7.759 -0.0772  0.1477  0.0915
  154POPC   C2B 2339   1.864   0.475   7.350 -0.1044 -0.2531 -0.1133
  154POPC   C3B 2340   1.770   0.673   7.046  0.1191  0.2883 -0.1966
  154POPC   C4B 2341   1.686   0.945   6.659 -0.0890 -0.0398  0.3444
  155POPC   NC3 2342   6.322   2.347   9.426  0.3479 -0.1289  0.1817
  155POPC   PO4 2343   6.166   2.108   9.053 -0.0952  0.1782 -0.0563
  155POPC   GL1 2344   6.421   2.128   8.773 -0.1676  0.1222 -0.2175
  155POPC   GL2 2345   6.627   2.308   8.493  0.2687  0.1035  0.0358
  155POPC   C1A 2346   6.681   1.773   8.668  0.2232 -0.1247 -0.1328
  155POPC   D2A 2347   6.599   1.600   8.253 -0.2530  0.1771 -0.2223
  155POPC   C3A 2348   6.568   1.332   8.247 -0.0927  0.0024 -0.1249
  155POPC   C4A 2349   6.878   0.932   8.264 -0.0279  0.1232  0.0820
  155POPC   C1B 2350   6.699   2.422   8.066 -0.0667 -0.1557  0.0695
  155POPC   C2B 2351   7.040   2.158   7.724  0.1109  0.2441 -0.0423
  155POPC   C3B 2352   7.338   1.815   7.654  0.0627 -0.3353 -0.2861
  155POPC   C4B 2353   7.660   1.637   7.877  0.0219  0.0871  0.3435
  156POPC   NC3 2354   9.868   7.836   9.315 -0.1571  0.1522 -0.0072
  156POPC   PO4 2355   9.988   7.798   8.986 -0.0165  0.1593 -0.0973
  156POPC   GL1 2356   9.748   7.932   8.534 -0.1909  0.0216  0.1525
  156POPC   GL2 2357   9.879   7.808   8.229  0.2633 -0.0782  0.1222
  156POPC   C1A 2358   9.443   7.962   8.266  0.1604  0.0196  0.0629
  156POPC   D2A 2359   9.246   7.936   7.844 -0.1336  0.0993 -0.1606
  156POPC   C3A 2360   9.112   7.737   7.484 -0.2175 -0.0977 -0.1416
  156POPC   C4A 2361   9.255   7.363   7.237 -0.4158 -0.0421  0.0007
  156POPC   C1B 2362   9.785   7.945   7.869  0.1218 -0.1288 -0.3095
  156POPC   C2B 2363   9.771   8.227   7.532  0.4993  0.1217 -0.1088
  156POPC   C3B 2364   9.916   8.604   7.363 -0.0421  0.0746  0.1115
  156POPC   C4B 2365  10.189   9.041   7.523 -0.1562  0.1124  0.0880
  157POPC   NC3 2366   8.294   8.423   8.931  0.1067  0.1499  0.0026
  157POPC   PO4 2367   8.524   8.068   8.820 -0.1083  0.2643 -0.0332
  157POPC   GL1 2368   8.611   7.971   8.406 -0.0294 -0.0328 -0.1343
  157POPC   GL2 2369   8.865   7.775   8.231  0.0343 -0.0716 -0.0641
  157POPC   C1A 2370   8.755   8.246   8.134 -0.1118  0.0673 -0.0285
  157POPC   D2A 2371   8.989   8.353   7.769  0.0362  0.1577  0.1559
  157POPC   C3A 2372   8.917   8.323   7.441 -0.0868 -0.0094  0.2642
  157POPC   C4A 2373   8.616   8.448   7.273  0.0886  0.1284 -0.1585
  157POPC   C1B 2374   8.729   7.769   7.805 -0.1840 -0.0542  0.1794
  157POPC   C2B 2375   8.314   7.637   7.640  0.3200 -0.0519 -0.2761
  157POPC   C3B 2376   7.874   7.711   7.504  0.3071  0.2557  0.2564
  157POPC   C4B 2377   7.524   7.712   7.192 -0.0614  0.2902 -0.0084
  158POPC   NC3 2378   4.149   5.752   8.506  0.1315 -0.0163 -0.4031
  158POPC   PO4 2379   4.252   5.339   8.674 -0.5478  0.1991  0.0400
  158POPC   GL1 2380   4.351   5.358   8.245  0.5327  0.0476 -0.2452
  158POPC   GL2 2381   4.141   5.459   8.084  0.0893  0.0788  0.2261
  158POPC   C1A 2382   4.320   5.335   7.674 -0.0841  0.0654 -0.4327
  158POPC   D2A 2383   4.201   5.418   7.248  0.3280 -0.1906  0.1931
  158POPC   C3A 2384   3.939   5.630   7.072  0.0612 -0.1537 -0.3240
  158POPC   C4A 2385   3.557   5.543   6.862 -0.4299  0.1902  0.0546
  158POPC   C1B 2386   4.459   5.773   7.915 -0.2876  0.2080 -0.1555
  158POPC   C2B 2387   4.756   5.799   7.612 -0.0339  0.1204 -0.3430
  158POPC   C3B 2388   4.880   5.998   7.176 -0.1129  0.0378 -0.1412
  158POPC   C4B 2389   5.344   6.043   6.947  0.2169  0.1033 -0.0852
  159POPC   NC3 2390   0.168   0.092   9.894  0.0295 -0.2528  0.2041
  159POPC   PO4 2391  -0.011  -0.256   9.544 -0.0684  0.0701 -0.2491
  159POPC   GL1 2392  -0.117  -0.292   9.097 -0.0196  0.1705 -0.1611
  159POPC   GL2 2393  -0.035  -0.625   8.958 -0.1623  0.0678 -0.1129
  159POPC   C1A 2394  -0.433  -0.187   8.873  0.1435  0.0332 -0.1083
  159POPC   D2A 2395  -0.592  -0.019   8.471 -0.0731  0.3315  0.0447
  159POPC   C3A 2396  -0.320   0.321   8.316 -0.1756  0.0533  0.1625
  159POPC   C4A 2397   0.067   0.411   8.064 -0.1900  0.3019  0.1175
  159POPC   C1B 2398   0.042  -0.264   8.633  0.3209  0.0288 -0.0372
  159POPC   C2B 2399   0.014  -0.159   8.261  0.1166 -0.2185  0.1363
  159POPC   C3B 2400  -0.331  -0.177   7.958  0.1735  0.1224  0.1357
  159POPC   C4B 2401  -0.564  -0.137   7.617  0.1575 -0.0549 -0.0266
  160POPC   NC3 2402   7.567   8.775   9.263 -0.3845  0.0861 -0.0053
  160POPC   PO4 2403   7.316   9.018   9.661 -0.1019 -0.1690 -0.0203
  160POPC   GL1 2404   7.237   9.222   9.304  0.2009 -0.3300 -0.2902
  160POPC   GL2 2405   7.176   8.987   9.102  0.0698 -0.4761 -0.0144
  160POPC   C1A 2406   7.124   9.527   8.994  0.1778 -0.0262 -0.2826
  160POPC   D2A 2407   7.312   9.622   8.484 -0.0460  0.0604 -0.0728
  160POPC   C3A 2408   7.288   9.605   8.076  0.0295 -0.1911  0.0674
  160POPC   C4A 2409   7.737   9.518   7.826  0.1056 -0.1941 -0.0376
  160POPC   C1B 2410   7.074   9.031   8.725  0.1116 -0.1274  0.0371
  160POPC   C2B 2411   7.268   9.076   8.357  0.2761 -0.1768 -0.0298
  160POPC   C3B 2412   7.512   9.119   7.984  0.0642  0.0704  0.0599
  160POPC   C4B 2413   7.259   9.021   7.505  0.1362  0.0325 -0.3169
  161POPC   NC3 2414   7.334   7.331   8.320 -0.1227 -0.2055 -0.4270
  161POPC   PO4 2415   6.852   7.268   8.514 -0.0995  0.0597 -0.1148
  161POPC   GL1 2416   6.961   7.204   8.073  0.0201  0.0576 -0.5279
  161POPC   GL2 2417   7.027   7.016   7.859 -0.1977 -0.0152 -0.1325
  161POPC   C1A 2418   6.900   7.440   7.731  0.0187 -0.0405  0.0244
  161POPC   D2A 2419   7.091   7.443   7.339  0.3935 -0.0322 -0.2376
  161POPC   C3A 2420   6.714   7.261   7.013 -0.2172 -0.1063  0.0971
  161POPC   C4A 2421   6.671   7.366   6.604 -0.1035  0.0851  0.1259
  161POPC   C1B 2422   6.954   6.951   7.425 -0.1021  0.2371  0.0430
  161POPC   C2B 2423   6.787   6.800   7.046  0.2850  0.1673 -0.0032
  161POPC   C3B 2424   6.774   6.432   6.715 -0.0636 -0.1116 -0.4516
  161POPC   C4B 2425   6.909   6.129   6.535 -0.0268  0.1732 -0.3916
  162POPC   NC3 2426   7.757   2.575   9.809  0.1588  0.2005  0.2427
  162POPC   PO4 2427   7.685   2.155   9.835  0.3036 -0.0418  0.2509
  162POPC   GL1 2428   7.755   2.130   9.479  0.3557 -0.2554 -0.1153
  162POPC   GL2 2429   8.005   1.947   9.359  0.1335  0.1490  0.0217
  162POPC   C1A 2430   7.684   1.902   9.020 -0.0866  0.0161  0.0039
  162POPC   D2A 2431   7.931   1.728   8.795  0.3664  0.2818 -0.2783
  162POPC   C3A 2432   7.897   1.756   8.310 -0.1612  0.0382  0.4249
  162POPC   C4A 2433   7.767   2.066   8.131  0.1772 -0.2155  0.0233
  162POPC   C1B 2434   8.116   2.234   8.902  0.4160  0.2026 -0.0407
  162POPC   C2B 2435   8.116   2.299   8.426  0.2166 -0.0089  0.1738
  162POPC   C3B 2436   8.306   2.022   8.082 -0.2761  0.2196  0.5809
  162POPC   C4B 2437   8.200   1.819   7.761  0.3172 -0.0454  0.1551
  163POPC   NC3 2438   8.716   2.096   9.838  0.2412 -0.1219  0.0818
  163POPC   PO4 2439   9.154   2.021   9.608 -0.0303 -0.4200 -0.0363
  163POPC   GL1 2440   9.187   2.068   9.204  0.0398 -0.0656  0.0396
  163POPC   GL2 2441   8.845   2.127   8.972  0.0385 -0.0868 -0.0963
  163POPC   C1A 2442   9.277   2.313   8.820 -0.3270  0.2038 -0.2961
  163POPC   D2A 2443   9.352   2.183   8.457  0.0123 -0.0152 -0.2518
  163POPC   C3A 2444   9.375   2.108   8.025  0.0174 -0.0683 -0.2228
  163POPC   C4A 2445   9.096   2.312   7.723  0.1695  0.2469  0.1206
  163POPC   C1B 2446   8.907   1.996   8.679  0.0515 -0.2182 -0.1785
  163POPC   C2B 2447   9.004   1.861   8.198  0.1356  0.0128 -0.0736
  163POPC   C3B 2448   8.728   1.938   7.827 -0.1850  0.0002 -0.0399
  163POPC   C4B 2449   8.587   2.270   7.677  0.3257 -0.2592 -0.2237
  164POPC   NC3 2450   9.835   9.824   9.944 -0.2421  0.0379  0.1275
  164POPC   PO4 2451   9.566  10.318  10.047  0.2208 -0.0235  0.3828
  164POPC   GL1 2452   9.715  10.325   9.647  0.0646 -0.0607 -0.2503
  164POPC   GL2 2453   9.422  10.355   9.474  0.3328  0.4833 -0.0691
  164POPC   C1A 2454   9.793  10.086   9.314 -0.2023  0.3786  0.0520
  164POPC   D2A 2455   9.931   9.743   9.090  0.1820  0.2023  0.0311
  164POPC   C3A 2456   9.633   9.444   8.850  0.0421  0.0236  0.0598
  164POPC   C4A 2457   9.260   9.391   8.636 -0.1482  0.3818  0.1027
  164POPC   C1B 2458   9.736  10.526   9.166 -0.2156  0.0817 -0.3181
  164POPC   C2B 2459   9.770  10.891   8.884  0.0662  0.0043 -0.1499
  164POPC   C3B 2460   9.884  11.391   8.894 -0.2104 -0.2772 -0.1014
  164POPC   C4B 2461   9.822  11.826   8.852  0.1154 -0.0336 -0.5109
  165POPC   NC3 2462   9.032   7.685   8.717  0.1614  0.1282  0.0205
  165POPC   PO4 2463   9.030   7.211   8.784 -0.0812 -0.2554 -0.0037
  165POPC   GL1 2464   9.302   7.304   8.449  0.1351 -0.3807 -0.4370
  165POPC   GL2 2465   9.235   6.986   8.352 -0.1838  0.1738 -0.0765
  165POPC   C1A 2466   9.410   7.470   8.048 -0.0346  0.5305 -0.3180
  165POPC   D2A 2467   9.550   7.436   7.675 -0.0570  0.0744  0.0356
  165POPC   C3A 2468   9.605   7.755   7.347 -0.3271  0.1246  0.1677
  165POPC   C4A 2469   9.367   8.142   7.175 -0.1292  0.2069  0.1956
  165POPC   C1B 2470   9.051   7.054   7.979  0.0859  0.1112 -0.2868
  165POPC   C2B 2471   9.056   7.276   7.666  0.2865 -0.1613  0.0458
  165POPC   C3B 2472   8.764   7.419   7.354 -0.1744  0.1057 -0.4595
  165POPC   C4B 2473   8.487   7.358   7.194  0.0641  0.0342 -0.1246
  166POPC   NC3 2474   2.168   5.605   8.734 -0.2366 -0.1785  0.1061
  166POPC   PO4 2475   1.933   5.230   8.666  0.4616  0.0937 -0.0801
  166POPC   GL1 2476   1.831   5.545   8.368  0.0966  0.0811  0.0652
  166POPC   GL2 2477   2.001   5.872   8.364 -0.3123 -0.0132  0.5813
  166POPC   C1A 2478   1.595   5.532   8.012  0.1073  0.1451 -0.1123
  166POPC   D2A 2479   1.433   5.554   7.708 -0.1979  0.0317  0.0951
  166POPC   C3A 2480   1.264   6.001   7.578 -0.3076  0.1314  0.2137
  166POPC   C4A 2481   1.527   6.424   7.518  0.1060 -0.3173 -0.0540
  166POPC   C1B 2482   2.103   5.638   7.975 -0.1253 -0.3599 -0.0332
  166POPC   C2B 2483   1.885   5.562   7.542 -0.1271 -0.3005  0.3453
  166POPC   C3B 2484   1.574   5.581   7.194  0.0936 -0.0725 -0.0099
  166POPC   C4B 2485   1.121   5.568   7.228 -0.0147  0.0856 -0.0777
  167POPC   NC3 2486   7.631   6.045   8.655 -0.0184 -0.3597 -0.3478
  167POPC   PO4 2487   7.991   6.143   8.805  0.1823 -0.1911 -0.1245
  167POPC   GL1 2488   7.942   6.375   8.423  0.3712 -0.2545  0.1339
  167POPC   GL2 2489   8.220   6.373   8.124 -0.0172  0.0601  0.1124
  167POPC   C1A 2490   7.745   6.334   7.969  0.4050  0.0646 -0.0888
  167POPC   D2A 2491   7.636   6.611   7.608 -0.1901 -0.0119  0.0218
  167POPC   C3A 2492   7.474   6.263   7.273  0.0753 -0.0705  0.0736
  167POPC   C4A 2493   7.307   6.282   6.829  0.3083 -0.3499 -0.1112
  167POPC   C1B 2494   8.550   6.729   7.882  0.2496 -0.4758 -0.1339
  167POPC   C2B 2495   8.884   6.809   7.592  0.0193 -0.2257  0.1778
  167POPC   C3B 2496   9.240   6.911   7.343 -0.1830 -0.0253 -0.2614
  167POPC   C4B 2497   9.369   7.042   6.807  0.1062  0.1513  0.0059
  168POPC   NC3 2498   9.531   2.948   4.106  0.0525 -0.1238  0.0478
  168POPC   PO4 2499   9.310   3.206   4.459 -0.0315  0.4595  0.0568
  168POPC   GL1 2500   9.389   3.202   4.919  0.1490  0.3042 -0.2789
  168POPC   GL2 2501   9.526   3.479   5.216  0.2223  0.0525 -0.1176
  168POPC   C1A 2502   9.484   2.994   5.309  0.1599  0.3672  0.0417
  168POPC   D2A 2503   9.681   2.775   5.610 -0.0006  0.1305  0.1404
  168POPC   C3A 2504   9.562   3.052   6.016  0.2099 -0.0378 -0.0402
  168POPC   C4A 2505   9.388   3.167   6.438  0.2215 -0.0890  0.1478
  168POPC   C1B 2506   9.695   3.641   5.638  0.1723  0.2018  0.0237
  168POPC   C2B 2507   9.858   3.449   5.968 -0.3348 -0.0006 -0.5031
  168POPC   C3B 2508   9.939   3.209   6.397  0.2651 -0.0908  0.0038
  168POPC   C4B 2509  10.214   2.960   6.558 -0.0761  0.1077 -0.0275
  169POPC   NC3 2510   9.003   7.915   3.765 -0.0478 -0.2136 -0.0101
  169POPC   PO4 2511   8.951   8.031   4.201 -0.1801 -0.0731 -0.0125
  169POPC   GL1 2512   8.853   8.221   4.689  0.2313  0.1679  0.0645
  169POPC   GL2 2513   8.643   8.419   4.552 -0.1306 -0.0774 -0.1151
  169POPC   C1A 2514   8.943   8.228   5.177 -0.2529  0.3537  0.1532
  169POPC   D2A 2515   9.204   8.343   5.572  0.0551  0.0614 -0.0246
  169POPC   C3A 2516   9.287   8.664   5.878  0.2417  0.0970 -0.0061
  169POPC   C4A 2517   9.421   9.016   5.780 -0.2168  0.1108  0.0428
  169POPC   C1B 2518   8.737   8.729   4.660 -0.4327  0.0370  0.1930
  169POPC   C2B 2519   8.716   8.803   5.090  0.1533 -0.5409  0.0562
  169POPC   C3B 2520   8.799   8.698   5.602  0.1954 -0.1388  0.2036
  169POPC   C4B 2521   8.596   8.456   5.941 -0.0057  0.0313 -0.1305
  170POPC   NC3 2522   4.479   6.849   4.777  0.1816 -0.0150 -0.0085
  170POPC   PO4 2523   4.175   7.056   5.047  0.2779 -0.0040  0.0018
  170POPC   GL1 2524   4.011   7.016   5.395  0.2423 -0.1558 -0.0758
  170POPC   GL2 2525   4.224   6.866   5.558 -0.3551  0.2985 -0.0758
  170POPC   C1A 2526   3.749   6.860   5.788  0.0601 -0.1035  0.2508
  170POPC   D2A 2527   3.549   6.911   6.181 -0.4235  0.0861 -0.0357
  170POPC   C3A 2528   3.955   7.043   6.435  0.0478 -0.2411 -0.0450
  170POPC   C4A 2529   4.384   7.024   6.485 -0.2460 -0.1865 -0.1030
  170POPC   C1B 2530   4.492   6.532   5.705  0.2211  0.0781 -0.1232
  170POPC   C2B 2531   4.767   6.135   5.622  0.0986  0.1912 -0.0393
  170POPC   C3B 2532   4.888   5.888   5.786 -0.1769 -0.2914  0.1381
  170POPC   C4B 2533   4.950   5.707   6.188 -0.3283 -0.1203 -0.0120
  171POPC   NC3 2534   2.054   6.635   4.205  0.1439 -0.0398 -0.1759
  171POPC   PO4 2535   1.972   6.533   4.645 -0.1324 -0.0444  0.2879
  171POPC   GL1 2536   1.890   6.369   5.071  0.1998  0.0137 -0.1112
  171POPC   GL2 2537   1.692   6.582   5.150  0.2114  0.5097 -0.4387
  171POPC   C1A 2538   2.022   6.019   5.289 -0.0883 -0.1354 -0.1949
  171POPC   D2A 2539   1.882   5.766   5.628 -0.1435 -0.1693 -0.0223
  171POPC   C3A 2540   1.989   5.427   5.847  0.1578  0.0141  0.1484
  171POPC   C4A 2541   1.855   5.134   6.137 -0.3220 -0.1334 -0.0751
  171POPC   C1B 2542   2.054   6.647   5.546  0.3060  0.1632  0.2292
  171POPC   C2B 2543   2.207   6.692   5.977  0.0784  0.1204 -0.1973
  171POPC   C3B 2544   2.072   6.563   6.311 -0.2385  0.1883 -0.0199
  171POPC   C4B 2545   2.126   6.667   6.678 -0.1869  0.2360 -0.0728
  172POPC   NC3 2546   5.741   1.336   4.694  0.0397 -0.0052  0.2825
  172POPC   PO4 2547   5.822   1.821   4.626 -0.0926 -0.1522  0.3550
  172POPC   GL1 2548   6.013   1.747   4.962 -0.2249  0.1774  0.2622
  172POPC   GL2 2549   6.209   2.073   4.953  0.2721 -0.2525  0.1512
  172POPC   C1A 2550   5.820   1.631   5.401  0.1215 -0.0557 -0.1176
  172POPC   D2A 2551   5.911   1.551   5.870  0.1834  0.0430  0.0152
  172POPC   C3A 2552   5.594   1.293   6.002 -0.3242 -0.0068  0.2808
  172POPC   C4A 2553   5.252   1.062   6.277  0.0705  0.5362  0.1483
  172POPC   C1B 2554   6.529   2.017   5.252 -0.1075 -0.0181  0.1805
  172POPC   C2B 2555   6.580   2.051   5.652  0.2901  0.1956 -0.2669
  172POPC   C3B 2556   6.539   2.160   6.107  0.0559  0.2237 -0.2163
  172POPC   C4B 2557   6.294   2.431   6.329 -0.0384  0.2932  0.0708
  173POPC   NC3 2558   3.404  10.180   4.865 -0.3614  0.0947  0.1335
  173POPC   PO4 2559   3.827  10.238   4.814  0.1133  0.0356  0.1672
  173POPC   GL1 2560   3.708  10.246   5.276 -0.1326 -0.0374 -0.1114
  173POPC   GL2 2561   3.875   9.866   5.409 -0.1305  0.0263 -0.2107
  173POPC   C1A 2562   3.680  10.270   5.739  0.0763  0.0668 -0.0246
  173POPC   D2A 2563   3.569  10.291   6.190 -0.0791 -0.3307 -0.1753
  173POPC   C3A 2564   3.764  10.669   6.371 -0.0336 -0.6221 -0.4352
  173POPC   C4A 2565   4.242  10.730   6.458  0.3190  0.1082  0.0174
  173POPC   C1B 2566   3.789   9.753   5.850  0.0946  0.1313  0.2843
  173POPC   C2B 2567   3.896   9.877   6.220 -0.2792 -0.0218 -0.0002
  173POPC   C3B 2568   3.982   9.662   6.576 -0.1420  0.0926 -0.0515
  173POPC   C4B 2569   4.398   9.429   6.649 -0.2887  0.0620  0.1615
  174POPC   NC3 2570   0.678   9.060   4.578  0.0084  0.0949 -0.1514
  174POPC   PO4 2571   1.122   8.924   4.621 -0.2628 -0.2440  0.0531
  174POPC   GL1 2572   0.906   9.091   5.032 -0.1444  0.0348 -0.2465
  174POPC   GL2 2573   0.826   8.883   5.286  0.0208 -0.0799  0.0179
  174POPC   C1A 2574   0.812   9.446   5.171 -0.0710  0.1314  0.0364
  174POPC   D2A 2575   0.999   9.693   5.437  0.0932  0.1328 -0.0864
  174POPC   C3A 2576   0.755   9.779   5.757 -0.2890  0.0389 -0.3858
  174POPC   C4A 2577   0.578  10.077   5.986  0.0329  0.0052 -0.2558
  174POPC   C1B 2578   0.888   8.856   5.693 -0.0703 -0.0168  0.0021
  174POPC   C2B 2579   0.669   9.038   6.028  0.0757 -0.0774  0.0786
  174POPC   C3B 2580   0.665   9.317   6.473  0.0417 -0.1507 -0.1201
  174POPC   C4B 2581   0.529   9.650   6.879 -0.0069 -0.1274 -0.1405
  175POPC   NC3 2582   4.115   1.625   4.522 -0.1145  0.2697 -0.4283
  175POPC   PO4 2583   4.081   1.505   4.902 -0.1089  0.0147 -0.0545
  175POPC   GL1 2584   3.986   1.614   5.391  0.0927 -0.0189 -0.0695
  175POPC   GL2 2585   3.719   1.825   5.431  0.0277  0.0557 -0.0108
  175POPC   C1A 2586   4.047   1.513   5.785  0.1187  0.2130  0.2944
  175POPC   D2A 2587   4.475   1.503   5.944  0.0432  0.0655 -0.1988
  175POPC   C3A 2588   4.796   1.819   6.123 -0.0922 -0.4300  0.1637
  175POPC   C4A 2589   5.186   1.791   6.259 -0.1461  0.5986 -0.0674
  175POPC   C1B 2590   3.743   2.009   5.844  0.0965  0.4276 -0.3041
  175POPC   C2B 2591   3.962   1.853   6.201 -0.3071 -0.1075  0.1980
  175POPC   C3B 2592   4.337   1.771   6.381  0.3675  0.1261  0.1220
  175POPC   C4B 2593   4.330   1.654   6.799 -0.1707 -0.0650 -0.4304
  176POPC   NC3 2594   0.496   1.910   4.028  0.0165  0.0973 -0.1657
  176POPC   PO4 2595   0.623   1.550   4.208 -0.3330  0.3574 -0.1978
  176POPC   GL1 2596   0.302   1.612   4.515 -0.3444  0.4559 -0.1910
  176POPC   GL2 2597   0.002   1.853   4.411 -0.2869  0.3629 -0.2589
  176POPC   C1A 2598  -0.019   1.716   4.869 -0.3013 -0.0558 -0.0985
  176POPC   D2A 2599  -0.451   1.586   5.034 -0.1306  0.0110  0.1651
  176POPC   C3A 2600  -0.414   1.242   5.312 -0.0828  0.0482  0.1895
  176POPC   C4A 2601  -0.565   0.817   5.438 -0.0919 -0.0661  0.2522
  176POPC   C1B 2602  -0.181   1.414   4.455  0.2083  0.2176  0.0279
  176POPC   C2B 2603  -0.028   1.220   4.813  0.1149 -0.0399  0.3169
  176POPC   C3B 2604  -0.011   0.946   5.100 -0.2332 -0.4559  0.1216
  176POPC   C4B 2605   0.316   0.868   5.384 -0.1711 -0.2324  0.0616
  177POPC   NC3 2606   4.349  10.407   4.744  0.1231  0.3125 -0.0981
  177POPC   PO4 2607   4.686  10.084   4.911 -0.0528  0.2244  0.0772
  177POPC   GL1 2608   4.535  10.418   5.204 -0.6977  0.3211  0.2087
  177POPC   GL2 2609   4.571  10.149   5.433  0.0361  0.1450 -0.1551
  177POPC   C1A 2610   4.570  10.864   5.305  0.1278 -0.1435  0.1294
  177POPC   D2A 2611   4.737  11.137   5.621  0.2358 -0.0006 -0.0195
  177POPC   C3A 2612   4.762  11.557   5.619  0.3240  0.0877  0.0540
  177POPC   C4A 2613   4.974  11.919   5.469  0.0562 -0.1084  0.2052
  177POPC   C1B 2614   4.241  10.040   5.767 -0.2160  0.0959 -0.0961
  177POPC   C2B 2615   4.366   9.879   6.062  0.1221  0.2347  0.3127
  177POPC   C3B 2616   4.570   9.832   6.507  0.1559  0.0221  0.2318
  177POPC   C4B 2617   4.795   9.980   6.803 -0.0240  0.0316  0.0192
  178POPC   NC3 2618  10.467   5.602   4.918  0.0535  0.0189  0.3600
  178POPC   PO4 2619  10.110   5.262   4.981 -0.1424 -0.1944  0.1389
  178POPC   GL1 2620  10.342   5.377   5.369  0.0695  0.0943 -0.0668
  178POPC   GL2 2621  10.285   5.613   5.446 -0.0490 -0.0894 -0.0579
  178POPC   C1A 2622  10.515   5.315   5.860 -0.2988  0.0593  0.2051
  178POPC   D2A 2623  10.658   5.086   6.237 -0.1142  0.0813 -0.0228
  178POPC   C3A 2624  10.470   4.890   6.596 -0.2238  0.0742  0.0602
  178POPC   C4A 2625  10.269   4.539   6.823 -0.0009  0.1287 -0.0572
  178POPC   C1B 2626  10.211   5.692   5.860  0.3499  0.3601 -0.0549
  178POPC   C2B 2627  10.268   5.479   6.208  0.0188  0.0209  0.1734
  178POPC   C3B 2628  10.141   5.397   6.746 -0.0659  0.0814  0.2669
  178POPC   C4B 2629  10.433   5.206   7.077  0.1639 -0.1994  0.1139
  179POPC   NC3 2630   6.304   1.420   3.883  0.1875  0.2028  0.0149
  179POPC   PO4 2631   6.266   1.571   4.408 -0.0920 -0.0048  0.4493
  179POPC   GL1 2632   6.453   1.488   4.790 -0.3572  0.1928 -0.1391
  179POPC   GL2 2633   6.187   1.292   4.960  0.0812 -0.1720  0.0317
  179POPC   C1A 2634   6.756   1.555   5.151  0.0942  0.1608 -0.2229
  179POPC   D2A 2635   7.026   1.828   5.457  0.1243 -0.1468 -0.0084
  179POPC   C3A 2636   7.005   1.908   5.887 -0.2466 -0.4249  0.2068
  179POPC   C4A 2637   7.066   1.912   6.334  0.2426  0.0899  0.0405
  179POPC   C1B 2638   6.298   1.552   5.422  0.0228  0.0143 -0.1535
  179POPC   C2B 2639   6.533   1.603   5.898  0.0451  0.0624 -0.0288
  179POPC   C3B 2640   6.608   1.616   6.263  0.0299  0.2644 -0.1872
  179POPC   C4B 2641   6.994   1.455   6.556  0.2332 -0.1422  0.1420
  180POPC   NC3 2642   6.624   9.176   3.812  0.1669 -0.0687  0.0415
  180POPC   PO4 2643   6.426   9.384   4.177  0.4328  0.2799 -0.1158
  180POPC   GL1 2644   6.768   9.379   4.357  0.1498  0.1439  0.1526
  180POPC   GL2 2645   7.077   9.295   4.407 -0.1287  0.2330  0.0012
  180POPC   C1A 2646   6.826   9.575   4.682  0.1857  0.4308 -0.3207
  180POPC   D2A 2647   6.836   9.660   5.102  0.0409  0.3579  0.2804
  180POPC   C3A 2648   7.071   9.389   5.343 -0.2691  0.1017  0.1391
  180POPC   C4A 2649   7.325   9.361   5.701  0.1839  0.0449 -0.0960
  180POPC   C1B 2650   7.505   9.207   4.310  0.1453  0.3879  0.0422
  180POPC   C2B 2651   7.804   9.566   4.204  0.0550  0.2262  0.1481
  180POPC   C3B 2652   7.980   9.911   4.323  0.2039 -0.0112 -0.3278
  180POPC   C4B 2653   8.263  10.231   4.680 -0.2664 -0.6114  0.3097
  181POPC   NC3 2654   8.407   9.157   3.312 -0.0594  0.2024 -0.2494
  181POPC   PO4 2655   8.625   8.999   3.692 -0.2645 -0.1599  0.3028
  181POPC   GL1 2656   8.806   9.237   4.104 -0.1873 -0.1936  0.0964
  181POPC   GL2 2657   9.001   9.057   4.339  0.1238  0.2027  0.1952
  181POPC   C1A 2658   8.754   9.630   4.334 -0.0608  0.1751  0.0883
  181POPC   D2A 2659   8.728   9.642   4.723  0.0485 -0.0623  0.5796
  181POPC   C3A 2660   8.756  10.107   4.871  0.2393 -0.0312  0.2119
  181POPC   C4A 2661   8.968  10.461   4.970 -0.1546 -0.0491  0.0041
  181POPC   C1B 2662   8.506   9.197   4.521  0.2631 -0.0503  0.0524
  181POPC   C2B 2663   8.329   8.894   4.744 -0.4119 -0.0367  0.2148
  181POPC   C3B 2664   8.137   8.676   5.066  0.2962  0.2383 -0.1365
  181POPC   C4B 2665   7.909   8.457   5.391 -0.2553  0.0733 -0.2304
  182POPC   NC3 2666   0.032   0.977   3.849 -0.3668 -0.2395  0.2024
  182POPC   PO4 2667  -0.284   0.660   3.680 -0.1561  0.0942 -0.3979
  182POPC   GL1 2668  -0.101   0.548   4.106  0.0646  0.2191  0.2615
  182POPC   GL2 2669  -0.239   0.197   4.138  0.1754  0.0132 -0.0434
  182POPC   C1A 2670   0.088   0.854   4.475  0.2723  0.3206 -0.1111
  182POPC   D2A 2671   0.369   0.710   4.809 -0.2353 -0.0942  0.1347
  182POPC   C3A 2672   0.362   0.396   5.105 -0.2665  0.1385 -0.0732
  182POPC   C4A 2673   0.320   0.347   5.524 -0.2132 -0.0404  0.3436
  182POPC   C1B 2674  -0.398   0.033   4.473  0.1406  0.0525 -0.0973
  182POPC   C2B 2675  -0.562   0.157   4.878  0.0946  0.4265  0.0276
  182POPC   C3B 2676  -0.664   0.182   5.317 -0.3257  0.2296  0.1255
  182POPC   C4B 2677  -0.731   0.324   5.776 -0.0146  0.0701  0.0214
  183POPC   NC3 2678   0.185   8.125   4.635  0.2119 -0.2680  0.3916
  183POPC   PO4 2679   0.278   8.518   4.631 -0.0480 -0.2022  0.0659
  183POPC   GL1 2680   0.315   8.710   4.983 -0.2948  0.2090 -0.0424
  183POPC   GL2 2681   0.129   8.982   4.952 -0.0067 -0.0403 -0.0152
  183POPC   C1A 2682   0.299   8.755   5.424 -0.0181  0.0111 -0.0463
  183POPC   D2A 2683   0.080   8.730   5.742 -0.0315 -0.1915  0.0181
  183POPC   C3A 2684  -0.308   8.669   5.877  0.2149 -0.3130  0.0889
  183POPC   C4A 2685  -0.721   8.643   5.948  0.3320  0.2079  0.1291
  183POPC   C1B 2686   0.420   9.136   5.206 -0.4344 -0.1779 -0.1729
  183POPC   C2B 2687   0.576   9.338   5.647 -0.0677 -0.1790  0.2295
  183POPC   C3B 2688   0.264   9.552   5.939 -0.2927  0.1559 -0.1121
  183POPC   C4B 2689  -0.259   9.615   5.883  0.0043 -0.0031 -0.3088
  184POPC   NC3 2690   6.585   4.730   5.435  0.1441  0.0147  0.0310
  184POPC   PO4 2691   6.882   5.015   5.331 -0.1764 -0.1115  0.1022
  184POPC   GL1 2692   7.123   5.076   5.610  0.0155  0.0969  0.2523
  184POPC   GL2 2693   7.351   4.788   5.656  0.1998  0.1254  0.0122
  184POPC   C1A 2694   7.460   5.139   5.930 -0.0217  0.0135 -0.0358
  184POPC   D2A 2695   7.658   5.359   6.154  0.2643  0.0850  0.0758
  184POPC   C3A 2696   7.546   5.686   6.518  0.4461 -0.0005 -0.1643
  184POPC   C4A 2697   7.621   5.908   6.831  0.2745 -0.3338 -0.0966
  184POPC   C1B 2698   7.265   4.675   6.069  0.2014  0.1962  0.1733
  184POPC   C2B 2699   7.267   4.332   6.442 -0.2311 -0.0568  0.0768
  184POPC   C3B 2700   7.316   4.471   6.923  0.0597 -0.1423 -0.0710
  184POPC   C4B 2701   6.944   4.469   7.249  0.1059 -0.0829 -0.3666
  185POPC   NC3 2702   9.328   3.687   4.713  0.0504  0.3915 -0.1323
  185POPC   PO4 2703   9.199   4.122   4.937 -0.0598 -0.2458  0.0018
  185POPC   GL1 2704   9.146   3.791   5.244 -0.2754  0.1586 -0.1574
  185POPC   GL2 2705   9.197   3.978   5.591  0.1349  0.0940  0.3219
  185POPC   C1A 2706   9.021   3.533   5.485 -0.0745  0.4023 -0.0172
  185POPC   D2A 2707   9.222   3.338   5.737  0.0019  0.3404  0.3511
  185POPC   C3A 2708   9.400   3.550   6.158  0.2147  0.1484 -0.0350
  185POPC   C4A 2709   9.656   3.586   6.594 -0.0553  0.4610  0.1463
  185POPC   C1B 2710   9.036   3.830   5.918  0.2053  0.0809 -0.0301
  185POPC   C2B 2711   8.835   3.963   6.263 -0.0915 -0.1553  0.0786
  185POPC   C3B 2712   8.983   4.246   6.647 -0.1781 -0.2212  0.0212
  185POPC   C4B 2713   9.080   4.551   6.832  0.0648  0.0888  0.1171
  186POPC   NC3 2714   4.078   3.072   4.629  0.0229 -0.3122  0.0540
  186POPC   PO4 2715   3.598   3.014   4.867 -0.0084  0.0975 -0.0186
  186POPC   GL1 2716   3.401   3.255   5.200  0.0581  0.2146 -0.0558
  186POPC   GL2 2717   3.089   3.441   5.147  0.0536  0.2133  0.0544
  186POPC   C1A 2718   3.352   3.382   5.620  0.0862  0.0815 -0.0544
  186POPC   D2A 2719   3.539   3.728   5.888 -0.0168 -0.1467 -0.0627
  186POPC   C3A 2720   3.667   3.590   6.364  0.2547  0.2683  0.3610
  186POPC   C4A 2721   3.848   3.489   6.697 -0.0017  0.1975  0.3000
  186POPC   C1B 2722   2.859   3.352   5.593 -0.0456 -0.0486  0.0112
  186POPC   C2B 2723   2.676   3.350   5.955 -0.0582 -0.1290  0.1015
  186POPC   C3B 2724   2.650   3.553   6.416 -0.2356  0.1175  0.0838
  186POPC   C4B 2725   2.638   3.692   6.770 -0.1523  0.0389 -0.0299
  187POPC   NC3 2726   5.247   0.656   4.609 -0.0880  0.0113  0.1668
  187POPC   PO4 2727   5.282   1.090   4.604  0.0100 -0.2295  0.2202
  187POPC   GL1 2728   5.424   0.984   4.972 -0.1577 -0.1933 -0.0263
  187POPC   GL2 2729   5.492   1.296   5.102 -0.0751 -0.4027 -0.0391
  187POPC   C1A 2730   5.911   1.018   5.240 -0.3209  0.1455  0.1514
  187POPC   D2A 2731   6.010   1.142   5.626  0.2452  0.2371  0.2308
  187POPC   C3A 2732   5.989   0.840   5.942 -0.0203  0.1149 -0.1943
  187POPC   C4A 2733   5.981   0.471   6.073  0.1747  0.0574 -0.3584
  187POPC   C1B 2734   5.531   1.209   5.491 -0.3017 -0.5935  0.0178
  187POPC   C2B 2735   5.263   0.944   5.752  0.0253  0.0237 -0.1148
  187POPC   C3B 2736   4.995   0.614   6.037  0.1156  0.1021  0.1618
  187POPC   C4B 2737   5.080   0.530   6.448 -0.0103 -0.0210  0.2798
  188POPC   NC3 2738   2.529   7.188   4.996 -0.0026  0.0760 -0.0002
  188POPC   PO4 2739   2.645   7.481   5.069 -0.0289  0.0058 -0.3120
  188POPC   GL1 2740   2.626   7.593   5.407  0.0377 -0.1006  0.0227
  188POPC   GL2 2741   2.717   7.836   5.621 -0.0361 -0.0982  0.0056
  188POPC   C1A 2742   2.276   7.507   5.717 -0.3431  0.2096 -0.1334
  188POPC   D2A 2743   1.971   7.347   6.003  0.3485 -0.2060 -0.1297
  188POPC   C3A 2744   1.875   6.994   6.164 -0.1730  0.0602  0.1949
  188POPC   C4A 2745   1.607   6.841   6.447 -0.0191 -0.6884  0.1180
  188POPC   C1B 2746   2.543   7.785   6.024 -0.2233  0.0362  0.2894
  188POPC   C2B 2747   2.330   7.624   6.383 -0.0657  0.1963 -0.0620
  188POPC   C3B 2748   1.970   7.383   6.542  0.1327  0.0312  0.0450
  188POPC   C4B 2749   1.628   7.480   6.857 -0.0408  0.1491  0.1093
  189POPC   NC3 2750   4.366   8.184   4.755 -0.0970 -0.0903 -0.2338
  189POPC   PO4 2751   4.495   7.820   4.885 -0.1470 -0.1269  0.5437
  189POPC   GL1 2752   4.601   7.752   5.270  0.1630  0.1120  0.0010
  189POPC   GL2 2753   4.414   7.766   5.488 -0.0929  0.1195  0.0093
  189POPC   C1A 2754   4.831   7.653   5.646  0.1365 -0.0130 -0.3484
  189POPC   D2A 2755   4.944   7.662   6.038  0.2847 -0.2551 -0.0112
  189POPC   C3A 2756   5.334   7.346   6.227 -0.0056 -0.0109  0.3296
  189POPC   C4A 2757   5.429   6.890   6.327 -0.2451 -0.2100 -0.0899
  189POPC   C1B 2758   4.246   7.453   5.687  0.1197 -0.1076  0.5793
  189POPC   C2B 2759   4.156   7.181   5.976  0.0926 -0.1194  0.2098
  189POPC   C3B 2760   4.083   6.741   6.066 -0.2999 -0.0194 -0.2496
  189POPC   C4B 2761   4.129   6.375   6.190  0.3134  0.0949 -0.0336
  190POPC   NC3 2762   2.404   3.054   4.844  0.1125 -0.0753  0.3027
  190POPC   PO4 2763   1.980   2.949   4.889 -0.1265 -0.0711  0.2031
  190POPC   GL1 2764   1.934   3.275   5.216 -0.0236 -0.4728  0.0773
  190POPC   GL2 2765   1.758   3.521   5.191 -0.0729 -0.1489 -0.0095
  190POPC   C1A 2766   2.204   3.395   5.499  0.4108  0.0015 -0.2847
  190POPC   D2A 2767   2.222   3.451   5.910 -0.1387  0.0342 -0.0095
  190POPC   C3A 2768   2.226   3.863   6.324 -0.0872 -0.1864 -0.1254
  190POPC   C4A 2769   1.958   4.162   6.554  0.1993  0.0453 -0.0445
  190POPC   C1B 2770   1.690   3.378   5.664  0.2576  0.0505  0.1857
  190POPC   C2B 2771   1.381   3.346   6.006 -0.1086 -0.0941  0.0084
  190POPC   C3B 2772   1.179   3.414   6.448 -0.3704  0.1057  0.0011
  190POPC   C4B 2773   1.103   3.597   6.864  0.2888  0.2013  0.3069
  191POPC   NC3 2774   0.321   6.890   4.873 -0.1781 -0.0970 -0.1566
  191POPC   PO4 2775   0.435   7.156   5.050 -0.1512  0.1464 -0.5455
  191POPC   GL1 2776   0.167   7.279   5.343 -0.0781 -0.0920  0.1314
  191POPC   GL2 2777  -0.021   7.583   5.294 -0.1853  0.0059  0.0283
  191POPC   C1A 2778   0.083   7.226   5.769 -0.2494 -0.0551  0.1418
  191POPC   D2A 2779   0.007   7.325   6.273  0.1402  0.2470  0.1665
  191POPC   C3A 2780   0.270   7.231   6.653 -0.1420 -0.2254 -0.0192
  191POPC   C4A 2781   0.455   7.391   7.027 -0.0517 -0.1095  0.1640
  191POPC   C1B 2782  -0.022   7.744   5.723 -0.0361  0.2080 -0.0317
  191POPC   C2B 2783   0.266   7.662   6.042  0.2609  0.1020  0.2787
  191POPC   C3B 2784   0.185   7.854   6.514  0.3613  0.4216  0.1471
  191POPC   C4B 2785   0.071   8.360   6.660  0.4509  0.1639  0.2832
  192POPC   NC3 2786   2.157   0.220   4.540 -0.0477 -0.0227 -0.2333
  192POPC   PO4 2787   2.536   0.004   4.509 -0.0597 -0.0972 -0.1662
  192POPC   GL1 2788   2.563   0.014   5.018  0.0080  0.0318 -0.1242
  192POPC   GL2 2789   2.892   0.037   5.174 -0.3388  0.1307  0.1005
  192POPC   C1A 2790   2.411   0.262   5.401 -0.3044  0.2968  0.2385
  192POPC   D2A 2791   2.065   0.386   5.617  0.0304 -0.0787 -0.1292
  192POPC   C3A 2792   1.908   0.279   6.069 -0.0543 -0.2452 -0.0496
  192POPC   C4A 2793   1.793   0.307   6.519  0.0854  0.0084  0.0136
  192POPC   C1B 2794   2.778  -0.084   5.580  0.3210 -0.2526  0.0526
  192POPC   C2B 2795   2.693   0.006   6.056  0.0629 -0.0916 -0.1591
  192POPC   C3B 2796   2.789   0.198   6.348  0.2287  0.2976 -0.0049
  192POPC   C4B 2797   2.599   0.509   6.598  0.1308 -0.3070 -0.2000
  193POPC   NC3 2798   8.849   6.457   5.426 -0.0852 -0.0014 -0.0310
  193POPC   PO4 2799   9.247   6.326   5.344 -0.0406 -0.1308  0.0831
  193POPC   GL1 2800   9.327   6.698   5.513  0.2171  0.0293  0.0523
  193POPC   GL2 2801   9.560   6.836   5.409  0.0069 -0.2669  0.0040
  193POPC   C1A 2802   9.223   6.914   5.802 -0.2881 -0.0459  0.2741
  193POPC   D2A 2803   9.173   7.182   6.179  0.0685 -0.0372 -0.3221
  193POPC   C3A 2804   9.468   7.410   6.307 -0.0395 -0.2986  0.0238
  193POPC   C4A 2805   9.659   7.653   6.684  0.2051 -0.2738 -0.1421
  193POPC   C1B 2806   9.764   6.859   5.784 -0.0486  0.1494 -0.2760
  193POPC   C2B 2807   9.759   6.537   6.102  0.4652  0.0841 -0.0441
  193POPC   C3B 2808   9.506   6.228   6.393 -0.2399  0.0939 -0.0022
  193POPC   C4B 2809   9.439   5.774   6.464  0.2361 -0.0328 -0.0783
  194POPC   NC3 2810   5.294   5.511   4.540 -0.0517  0.0936  0.0219
  194POPC   PO4 2811   4.906   5.225   4.474  0.0375  0.3685  0.2302
  194POPC   GL1 2812   4.552   5.327   4.824 -0.1041 -0.2951 -0.1593
  194POPC   GL2 2813   4.680   5.226   5.158  0.0602  0.1222 -0.0403
  194POPC   C1A 2814   4.192   5.464   5.138 -0.0811  0.1763  0.0608
  194POPC   D2A 2815   4.372   5.883   5.374 -0.6570 -0.2131 -0.1020
  194POPC   C3A 2816   4.287   6.052   5.777 -0.0168 -0.4628 -0.1828
  194POPC   C4A 2817   4.601   6.075   6.192 -0.3628  0.3197 -0.0409
  194POPC   C1B 2818   4.596   5.430   5.480  0.1809 -0.0294 -0.0497
  194POPC   C2B 2819   4.462   5.578   5.902 -0.0803  0.1537 -0.1459
  194POPC   C3B 2820   4.522   5.520   6.372 -0.1434 -0.2612 -0.0098
  194POPC   C4B 2821   4.830   5.230   6.570 -0.3366 -0.0904 -0.1329
  195POPC   NC3 2822   1.968   3.460   4.761 -0.1911  0.4307 -0.0512
  195POPC   PO4 2823   1.905   3.868   4.602  0.3908 -0.0284  0.2235
  195POPC   GL1 2824   1.893   3.939   5.026  0.0928  0.1372  0.2555
  195POPC   GL2 2825   2.000   4.157   5.142 -0.1226 -0.1816 -0.0235
  195POPC   C1A 2826   1.674   3.904   5.486  0.0997 -0.2340 -0.2276
  195POPC   D2A 2827   1.799   3.780   5.950 -0.0783 -0.1261  0.0232
  195POPC   C3A 2828   1.742   3.478   6.314 -0.2522  0.4169 -0.0334
  195POPC   C4A 2829   1.646   3.322   6.673 -0.0398  0.1426 -0.0189
  195POPC   C1B 2830   2.072   4.328   5.475  0.1322  0.2902 -0.0130
  195POPC   C2B 2831   1.776   4.309   5.829  0.0615  0.1815 -0.1590
  195POPC   C3B 2832   1.655   4.497   6.198  0.3729  0.0809  0.1496
  195POPC   C4B 2833   1.225   4.424   6.253  0.0426  0.0410 -0.4009
  196POPC   NC3 2834  10.435   1.753   3.334  0.4324  0.1378  0.0863
  196POPC   PO4 2835  10.359   1.430   3.616 -0.0855 -0.0188 -0.2529
  196POPC   GL1 2836  10.078   1.549   4.044 -0.1762 -0.2007 -0.1293
  196POPC   GL2 2837  10.048   1.899   4.150  0.0867  0.0768 -0.2616
  196POPC   C1A 2838   9.806   1.505   4.423 -0.1131  0.0159 -0.2821
  196POPC   D2A 2839   9.757   1.279   4.760 -0.2654  0.2440 -0.0095
  196POPC   C3A 2840   9.356   1.340   5.036 -0.0981 -0.4701  0.2941
  196POPC   C4A 2841   9.058   1.262   5.406 -0.1824  0.0345 -0.2155
  196POPC   C1B 2842   9.928   1.931   4.586 -0.1471 -0.2765 -0.0474
  196POPC   C2B 2843   9.598   1.770   4.868 -0.4466 -0.3266 -0.0752
  196POPC   C3B 2844   9.598   1.622   5.356  0.0120 -0.0661 -0.2173
  196POPC   C4B 2845   9.607   1.266   5.551 -0.0780  0.2551  0.1575
  197POPC   NC3 2846   6.521   6.410   5.229  0.0096 -0.2702  0.2409
  197POPC   PO4 2847   6.514   6.079   5.111 -0.0601 -0.1078  0.1021
  197POPC   GL1 2848   6.505   6.059   5.554  0.2353 -0.2753 -0.2163
  197POPC   GL2 2849   6.266   6.336   5.592 -0.0925  0.3038  0.1131
  197POPC   C1A 2850   6.788   5.778   5.782  0.0820 -0.0292  0.4818
  197POPC   D2A 2851   7.108   5.494   5.853  0.1162 -0.1483 -0.1844
  197POPC   C3A 2852   7.058   5.105   6.144 -0.1659 -0.5109 -0.1135
  197POPC   C4A 2853   7.085   4.836   6.487 -0.1646  0.1145  0.1338
  197POPC   C1B 2854   5.980   6.523   5.865 -0.3452 -0.0938 -0.0128
  197POPC   C2B 2855   5.665   6.415   6.191 -0.0159  0.0522  0.0463
  197POPC   C3B 2856   5.422   6.435   6.591  0.0081  0.4939 -0.3167
  197POPC   C4B 2857   5.415   6.814   6.881  0.3105  0.3948  0.2074
  198POPC   NC3 2858   2.544   4.214   4.493  0.3019  0.2341  0.0737
  198POPC   PO4 2859   2.902   4.340   4.800 -0.1365 -0.2452 -0.0712
  198POPC   GL1 2860   3.102   4.145   5.227  0.0827  0.1442  0.2747
  198POPC   GL2 2861   3.356   4.341   5.308 -0.1791 -0.0398  0.2243
  198POPC   C1A 2862   3.189   4.009   5.662 -0.1655 -0.2095  0.1304
  198POPC   D2A 2863   3.057   3.704   5.972  0.0332 -0.1218  0.0053
  198POPC   C3A 2864   3.169   3.412   6.278  0.4308 -0.1888  0.0082
  198POPC   C4A 2865   3.354   3.247   6.606  0.2477  0.1190 -0.4537
  198POPC   C1B 2866   3.210   4.756   5.403  0.1448  0.2669 -0.0883
  198POPC   C2B 2867   2.958   5.075   5.318 -0.0654 -0.1829  0.0991
  198POPC   C3B 2868   2.652   5.345   5.371 -0.1606  0.3761  0.3047
  198POPC   C4B 2869   2.329   5.188   5.608 -0.0989 -0.1800 -0.2701
  199POPC   NC3 2870   2.853   3.848   4.710 -0.1285  0.0964 -0.1313
  199POPC   PO4 2871   2.785   3.445   4.676  0.1409 -0.1101 -0.0081
  199POPC   GL1 2872   2.490   3.525   5.071 -0.0112 -0.1417  0.1181
  199POPC   GL2 2873   2.702   3.734   5.233 -0.2651 -0.0506 -0.2277
  199POPC   C1A 2874   2.215   3.849   5.375 -0.0895  0.1219  0.2864
  199POPC   D2A 2875   2.164   4.008   5.819 -0.2319  0.0408 -0.0544
  199POPC   C3A 2876   2.194   4.355   6.125  0.3175  0.3759 -0.1102
  199POPC   C4A 2877   2.441   4.266   6.480 -0.1340 -0.3663 -0.0625
  199POPC   C1B 2878   2.632   3.770   5.681 -0.3045  0.1739  0.0594
  199POPC   C2B 2879   2.674   4.057   5.996 -0.1204  0.0695  0.1148
  199POPC   C3B 2880   2.936   3.933   6.395 -0.1390 -0.0248 -0.0541
  199POPC   C4B 2881   3.295   3.743   6.677  0.1863  0.0597 -0.0691
  200POPC   NC3 2882   2.198   8.379   5.046  0.2209 -0.0659 -0.2208
  200POPC   PO4 2883   2.245   8.805   5.209 -0.2687  0.0084  0.1170
  200POPC   GL1 2884   2.369   9.108   5.593 -0.2394 -0.0005  0.3223
  200POPC   GL2 2885   2.673   8.940   5.542 -0.3022  0.1216  0.1284
  200POPC   C1A 2886   2.180   9.224   5.956  0.2651  0.1292 -0.0067
  200POPC   D2A 2887   2.184   8.951   6.382  0.1583 -0.1371 -0.1389
  200POPC   C3A 2888   1.952   8.737   6.627 -0.1489 -0.1506 -0.1324
  200POPC   C4A 2889   2.011   8.658   6.944  0.2392  0.1024  0.0993
  200POPC   C1B 2890   2.993   8.826   5.790 -0.0290  0.0589  0.1318
  200POPC   C2B 2891   2.932   8.661   6.181 -0.0199 -0.0210 -0.0580
  200POPC   C3B 2892   2.603   8.693   6.457  0.0822  0.1681 -0.2780
  200POPC   C4B 2893   2.488   8.782   6.844  0.0740  0.0600  0.3710
  201POPC   NC3 2894   5.957   4.795   5.147  0.1550  0.1197  0.2560
  201POPC   PO4 2895   5.628   4.668   5.353  0.0013  0.0352 -0.1130
  201POPC   GL1 2896   5.850   4.774   5.665  0.0484  0.0205 -0.2025
  201POPC   GL2 2897   6.140   4.844   5.605 -0.2172 -0.0009  0.1414
  201POPC   C1A 2898   5.806   4.949   6.032  0.0758 -0.1487  0.1083
  201POPC   D2A 2899   5.567   4.882   6.367 -0.1542 -0.0311 -0.0411
  201POPC   C3A 2900   5.267   5.345   6.441  0.0804  0.0936  0.0999
  201POPC   C4A 2901   5.142   5.649   6.627  0.0704  0.0287  0.2646
  201POPC   C1B 2902   6.181   4.656   5.979  0.0290 -0.0105 -0.1611
  201POPC   C2B 2903   6.160   4.723   6.496  0.1211 -0.2305 -0.1201
  201POPC   C3B 2904   6.295   4.408   6.700  0.1188  0.0234 -0.2685
  201POPC   C4B 2905   6.482   4.394   6.997  0.0788  0.0789 -0.2315
  202POPC   NC3 2906   0.317   5.550   4.525  0.2116 -0.0314 -0.1485
  202POPC   PO4 2907   0.360   5.903   4.767 -0.1216  0.2216  0.3047
  202POPC   GL1 2908   0.522   5.844   5.173 -0.0340  0.1748 -0.1479
  202POPC   GL2 2909   0.296   5.703   5.344  0.1078  0.2222 -0.3569
  202POPC   C1A 2910   0.670   5.716   5.640 -0.0462 -0.3438 -0.1635
  202POPC   D2A 2911   0.575   5.524   6.005  0.0608  0.1776  0.1652
  202POPC   C3A 2912   0.791   5.733   6.243 -0.3283  0.3389  0.3186
  202POPC   C4A 2913   0.600   5.961   6.603 -0.1093  0.0330 -0.3970
  202POPC   C1B 2914   0.191   5.779   5.805  0.0589 -0.2458  0.0880
  202POPC   C2B 2915  -0.116   6.022   6.145  0.2144 -0.0056  0.1111
  202POPC   C3B 2916  -0.196   6.070   6.479 -0.0003  0.5044 -0.0801
  202POPC   C4B 2917  -0.539   5.789   6.534 -0.0069 -0.1627  0.1862
  203POPC   NC3 2918   2.967   8.732   5.154  0.0019 -0.0393 -0.2361
  203POPC   PO4 2919   3.077   8.433   4.882 -0.2182  0.0961  0.0139
  203POPC   GL1 2920   3.298   8.404   5.281  0.0410  0.0141 -0.0798
  203POPC   GL2 2921   3.490   8.089   5.287  0.1828 -0.3247 -0.1787
  203POPC   C1A 2922   3.342   8.438   5.678  0.1136 -0.0096 -0.0297
  203POPC   D2A 2923   3.402   8.436   6.104  0.0510  0.2124  0.1101
  203POPC   C3A 2924   3.774   8.605   6.268 -0.2480 -0.1804  0.0248
  203POPC   C4A 2925   4.051   8.856   6.025  0.2294 -0.2630  0.1470
  203POPC   C1B 2926   3.337   7.918   5.749  0.6997 -0.1471 -0.3336
  203POPC   C2B 2927   3.228   7.604   6.039  0.0415  0.0683 -0.0035
  203POPC   C3B 2928   3.383   7.545   6.524  0.0791 -0.1813 -0.2196
  203POPC   C4B 2929   3.693   7.482   6.775  0.2260 -0.1880 -0.0021
  204POPC   NC3 2930   3.439   7.013   4.596 -0.1431 -0.1189 -0.1941
  204POPC   PO4 2931   3.243   6.972   5.042 -0.2658 -0.2409  0.1425
  204POPC   GL1 2932   3.394   6.517   5.288 -0.1525 -0.2098 -0.3935
  204POPC   GL2 2933   3.433   6.760   5.461  0.0329 -0.2185 -0.0574
  204POPC   C1A 2934   3.490   6.165   5.489 -0.1440 -0.1740 -0.0735
  204POPC   D2A 2935   3.595   5.781   5.785 -0.1678 -0.7090 -0.0627
  204POPC   C3A 2936   3.880   5.947   6.064 -0.2008  0.0656 -0.0051
  204POPC   C4A 2937   4.181   5.922   6.392  0.1435  0.1760  0.0500
  204POPC   C1B 2938   3.223   6.504   5.762  0.2034 -0.0959 -0.1705
  204POPC   C2B 2939   3.024   6.523   6.069 -0.3700  0.1062  0.0111
  204POPC   C3B 2940   3.075   6.399   6.459  0.0400 -0.2564  0.0670
  204POPC   C4B 2941   2.965   6.099   6.566 -0.3213 -0.3060  0.2075
  205POPC   NC3 2942   1.219   8.581   5.001 -0.0938 -0.0001 -0.1994
  205POPC   PO4 2943   1.627   8.243   5.108 -0.1117  0.0084 -0.2001
  205POPC   GL1 2944   1.422   8.254   5.446 -0.0766  0.2025  0.4110
  205POPC   GL2 2945   1.233   8.426   5.563 -0.2100 -0.1934  0.1200
  205POPC   C1A 2946   1.579   8.168   5.795 -0.1341 -0.2014 -0.1028
  205POPC   D2A 2947   1.402   8.109   6.210  0.0917  0.1750  0.2525
  205POPC   C3A 2948   1.078   8.229   6.471 -0.4196  0.2049 -0.0124
  205POPC   C4A 2949   0.568   8.166   6.551  0.0951 -0.2429  0.1364
  205POPC   C1B 2950   1.017   8.247   5.869 -0.3043 -0.0575  0.1705
  205POPC   C2B 2951   0.710   8.027   5.940  0.1155  0.0245  0.0284
  205POPC   C3B 2952   0.679   7.750   6.308  0.1313 -0.0541 -0.0303
  205POPC   C4B 2953   0.674   7.737   6.769  0.1041 -0.0386  0.0165
  206POPC   NC3 2954   0.276   6.348   5.000 -0.0011 -0.1994 -0.0508
  206POPC   PO4 2955   0.425   6.309   5.309 -0.0139  0.2827 -0.3785
  206POPC   GL1 2956   0.482   6.175   5.714 -0.1628  0.0008  0.1138
  206POPC   GL2 2957   0.131   6.283   5.748  0.0760 -0.2715 -0.1552
  206POPC   C1A 2958   0.476   6.084   6.080  0.2325 -0.1398  0.0083
  206POPC   D2A 2959   0.271   6.290   6.354 -0.2740 -0.0396 -0.0954
  206POPC   C3A 2960   0.245   6.877   6.296  0.1053 -0.2610 -0.1251
  206POPC   C4A 2961   0.543   7.256   6.166 -0.1279 -0.0103 -0.2612
  206POPC   C1B 2962   0.172   6.699   5.860 -0.2817  0.1899  0.0358
  206POPC   C2B 2963   0.506   7.004   5.750 -0.0519 -0.1678 -0.4394
  206POPC   C3B 2964   0.519   7.494   5.689  0.0446  0.1207 -0.1008
  206POPC   C4B 2965   0.418   7.848   5.439  0.1146 -0.1590  0.2613
  207POPC   NC3 2966   7.910   7.958   4.566  0.1115 -0.0346  0.0540
  207POPC   PO4 2967   7.485   7.670   4.745  0.0297  0.0340  0.2469
  207POPC   GL1 2968   7.704   7.982   5.055 -0.1097  0.4846 -0.0509
  207POPC   GL2 2969   7.837   8.243   4.998 -0.0922 -0.3338  0.1534
  207POPC   C1A 2970   7.681   8.009   5.430 -0.1236  0.1587 -0.4969
  207POPC   D2A 2971   7.661   8.244   5.866  0.1067 -0.0040 -0.0880
  207POPC   C3A 2972   7.689   8.286   6.321  0.0422  0.0521 -0.1424
  207POPC   C4A 2973   7.357   8.552   6.640 -0.0053 -0.3131 -0.1746
  207POPC   C1B 2974   7.467   8.438   5.075  0.1416 -0.0372  0.3090
  207POPC   C2B 2975   7.474   8.791   5.377  0.2618  0.1121 -0.0833
  207POPC   C3B 2976   7.587   8.723   5.745 -0.1802 -0.0130 -0.2856
  207POPC   C4B 2977   7.343   8.554   6.103 -0.0444 -0.5661 -0.0379
  208POPC   NC3 2978   3.716   6.781   5.041  0.0050 -0.0030  0.1147
  208POPC   PO4 2979   4.095   6.470   4.824  0.0894  0.0882 -0.1003
  208POPC   GL1 2980   4.092   6.285   5.309  0.0328 -0.1963  0.0790
  208POPC   GL2 2981   3.905   6.486   5.408  0.0850 -0.1119  0.0189
  208POPC   C1A 2982   3.929   5.938   5.481 -0.2001  0.0733  0.0760
  208POPC   D2A 2983   4.029   5.546   5.675 -0.2211  0.1688 -0.0566
  208POPC   C3A 2984   4.028   5.481   6.125  0.0855  0.1450 -0.1499
  208POPC   C4A 2985   4.040   5.533   6.627 -0.1310  0.2012  0.2114
  208POPC   C1B 2986   3.755   6.349   5.868  0.2813 -0.2202  0.1399
  208POPC   C2B 2987   3.619   6.424   6.271 -0.1115  0.3019  0.2057
  208POPC   C3B 2988   3.749   6.194   6.501 -0.0564  0.0305  0.1996
  208POPC   C4B 2989   3.431   5.954   6.727 -0.0741 -0.3169 -0.1426
  209POPC   NC3 2990   8.350   9.915   3.565 -0.0092  0.1007  0.0371
  209POPC   PO4 2991   8.614   9.599   3.419  0.1227 -0.0315  0.0791
  209POPC   GL1 2992   8.654   9.639   3.874 -0.3668 -0.1678  0.0203
  209POPC   GL2 2993   8.791   9.913   3.840  0.1156  0.1438 -0.4417
  209POPC   C1A 2994   8.302   9.472   4.218 -0.1425 -0.2012 -0.1947
  209POPC   D2A 2995   8.038   9.152   4.460 -0.0976  0.0114  0.0325
  209POPC   C3A 2996   7.796   9.365   4.754  0.1998  0.2342 -0.0351
  209POPC   C4A 2997   7.629   9.406   5.212 -0.0477 -0.1040  0.0145
  209POPC   C1B 2998   8.983  10.165   4.083 -0.0515  0.1609 -0.2033
  209POPC   C2B 2999   9.060  10.035   4.455 -0.0135 -0.0441  0.0450
  209POPC   C3B 3000   9.201   9.877   4.914  0.1347  0.0821 -0.0949
  209POPC   C4B 3001   9.079   9.580   5.115  0.0817 -0.3180  0.4319
  210POPC   NC3 3002   3.532   1.518   5.051 -0.1339 -0.2163 -0.0334
  210POPC   PO4 3003   3.250   1.245   4.728  0.1321 -0.0976  0.0853
  210POPC   GL1 3004   3.395   0.982   5.137 -0.2523  0.0298  0.1748
  210POPC   GL2 3005   3.152   1.039   5.227 -0.1159  0.2321  0.1334
  210POPC   C1A 3006   3.528   0.816   5.556 -0.2296  0.0462  0.1005
  210POPC   D2A 3007   3.799   0.982   5.807  0.3602 -0.1993  0.0780
  210POPC   C3A 3008   3.759   1.235   6.174 -0.0442  0.0132  0.2599
  210POPC   C4A 3009   3.525   1.247   6.566 -0.5528  0.0154  0.2097
  210POPC   C1B 3010   2.988   0.913   5.569  0.2158  0.0298 -0.1451
  210POPC   C2B 3011   2.832   0.526   5.886  0.1190  0.0686  0.3412
  210POPC   C3B 3012   2.411   0.460   6.065  0.1979  0.1205 -0.1686
  210POPC   C4B 3013   2.306   0.125   6.365  0.0006  0.1075  0.2743
  211POPC   NC3 3014   9.026   2.194   3.702  0.3365  0.0043  0.1692
  211POPC   PO4 3015   9.486   2.217   3.754  0.0271 -0.1154  0.0872
  211POPC   GL1 3016   9.364   1.905   4.012 -0.3778 -0.0805 -0.1906
  211POPC   GL2 3017   9.592   1.707   3.874  0.1690  0.0781  0.0660
  211POPC   C1A 3018   9.337   1.533   4.462 -0.0445 -0.1170 -0.1388
  211POPC   D2A 3019   9.175   1.171   4.393  0.0306 -0.3004 -0.4851
  211POPC   C3A 3020   9.288   0.900   4.764 -0.0953  0.1321 -0.0850
  211POPC   C4A 3021   9.408   0.868   5.270  0.0131  0.4326  0.0804
  211POPC   C1B 3022   9.363   1.384   3.979  0.3168 -0.0144 -0.1124
  211POPC   C2B 3023   9.611   1.040   4.274 -0.2203  0.3663  0.1050
  211POPC   C3B 3024   9.853   0.856   4.548  0.3348  0.2282 -0.0227
  211POPC   C4B 3025   9.854   0.803   4.976  0.0606 -0.0687 -0.1332
  212POPC   NC3 3026   0.470  10.445   3.867 -0.3242 -0.2136  0.1401
  212POPC   PO4 3027   0.117  10.249   4.000 -0.1095 -0.1161 -0.0659
  212POPC   GL1 3028  -0.003  10.124   4.414  0.0703 -0.1167  0.0829
  212POPC   GL2 3029  -0.142   9.788   4.549 -0.0328 -0.1038 -0.1307
  212POPC   C1A 3030   0.189  10.088   4.799  0.5394 -0.1360  0.1438
  212POPC   D2A 3031   0.301  10.253   5.055  0.0944 -0.0415  0.0647
  212POPC   C3A 3032   0.054  10.493   5.308  0.3826 -0.0495 -0.2087
  212POPC   C4A 3033  -0.269  10.559   5.630 -0.2034  0.0714 -0.1484
  212POPC   C1B 3034  -0.571   9.958   4.506 -0.0988  0.0220  0.3341
  212POPC   C2B 3035  -0.964   9.784   4.553 -0.1496 -0.1766 -0.3140
  212POPC   C3B 3036  -1.258   9.419   4.584  0.1943  0.0002  0.1683
  212POPC   C4B 3037  -1.531   9.193   4.811 -0.1105 -0.2261 -0.1998
  213POPC   NC3 3038   5.148   0.153   4.415  0.2710 -0.2666 -0.1506
  213POPC   PO4 3039   5.180  -0.296   4.411 -0.1614  0.0536 -0.0921
  213POPC   GL1 3040   5.255  -0.263   4.917  0.0103  0.0131 -0.1525
  213POPC   GL2 3041   5.491  -0.435   5.126 -0.4232 -0.2328  0.2396
  213POPC   C1A 3042   5.099  -0.009   5.247  0.0387 -0.2787  0.0198
  213POPC   D2A 3043   4.705   0.034   5.700 -0.1550  0.0145 -0.0684
  213POPC   C3A 3044   4.652   0.318   6.051 -0.0040  0.1060 -0.2064
  213POPC   C4A 3045   4.515   0.683   6.342 -0.0347 -0.1860 -0.1419
  213POPC   C1B 3046   5.450  -0.359   5.534  0.0388  0.5089 -0.1672
  213POPC   C2B 3047   5.462  -0.375   6.027 -0.0084  0.0209 -0.0333
  213POPC   C3B 3048   5.689  -0.078   6.302 -0.3249 -0.0443 -0.0286
  213POPC   C4B 3049   5.512   0.238   6.518 -0.0782 -0.4175  0.1334
  214POPC   NC3 3050   5.624   6.587   4.957  0.1450  0.0973 -0.1333
  214POPC   PO4 3051   5.859   6.963   4.963 -0.0117  0.0167 -0.1634
  214POPC   GL1 3052   5.643   6.913   5.356 -0.1829 -0.2223 -0.1211
  214POPC   GL2 3053   5.458   6.614   5.472  0.3482 -0.0813  0.1846
  214POPC   C1A 3054   5.677   6.895   5.809  0.0383 -0.0637 -0.1541
  214POPC   D2A 3055   6.003   6.879   6.195 -0.2558  0.0292  0.2216
  214POPC   C3A 3056   5.872   6.661   6.623 -0.1849 -0.2430  0.1531
  214POPC   C4A 3057   6.258   6.558   6.835  0.0657  0.2049 -0.0607
  214POPC   C1B 3058   5.314   6.275   5.813  0.2737 -0.0275 -0.2782
  214POPC   C2B 3059   4.914   6.429   6.026 -0.1142  0.2105  0.1552
  214POPC   C3B 3060   4.574   6.505   6.298  0.1467 -0.2631 -0.6582
  214POPC   C4B 3061   4.599   6.384   6.750  0.1267  0.4163 -0.0393
  215POPC   NC3 3062   1.824   1.198   4.770 -0.0084 -0.2954  0.2004
  215POPC   PO4 3063   2.155   0.939   4.823  0.0390 -0.1786  0.2719
  215POPC   GL1 3064   2.102   0.998   5.239  0.1151  0.5267 -0.1444
  215POPC   GL2 3065   1.819   1.102   5.312  0.2062 -0.0767 -0.2072
  215POPC   C1A 3066   2.207   0.887   5.573  0.0087 -0.2322 -0.0366
  215POPC   D2A 3067   2.549   0.934   5.849 -0.0944  0.1971  0.0517
  215POPC   C3A 3068   2.724   0.843   6.227  0.0432  0.0620 -0.1627
  215POPC   C4A 3069   3.091   0.612   6.368 -0.0888  0.3953  0.0700
  215POPC   C1B 3070   1.737   0.767   5.689  0.0951 -0.1440  0.1200
  215POPC   C2B 3071   2.039   0.841   6.061 -0.3612 -0.0262 -0.1679
  215POPC   C3B 3072   2.103   0.649   6.434 -0.1245 -0.0943 -0.5234
  215POPC   C4B 3073   2.207   0.547   6.896  0.0941  0.2293 -0.0622
  216POPC   NC3 3074  10.201   7.716   4.504 -0.2930  0.2580  0.2800
  216POPC   PO4 3075  10.307   7.886   4.901 -0.0237 -0.1771  0.1146
  216POPC   GL1 3076  10.294   8.067   5.393 -0.0184 -0.1709  0.0767
  216POPC   GL2 3077  10.033   7.843   5.427  0.2957  0.0429  0.3309
  216POPC   C1A 3078  10.623   8.245   5.680 -0.4106 -0.5377 -0.2637
  216POPC   D2A 3079  10.751   8.221   6.078 -0.3129 -0.3503 -0.4427
  216POPC   C3A 3080  10.571   8.600   6.227  0.0893  0.1589 -0.0194
  216POPC   C4A 3081  10.589   9.093   6.102 -0.0169 -0.0161  0.1010
  216POPC   C1B 3082   9.978   7.641   5.809 -0.3698  0.2895 -0.0047
  216POPC   C2B 3083   9.941   7.658   6.301  0.2010 -0.0768 -0.0659
  216POPC   C3B 3084  10.171   7.518   6.607  0.0728  0.2826  0.2543
  216POPC   C4B 3085  10.356   7.401   6.892  0.2668 -0.3541 -0.0568
  217POPC   NC3 3086   7.520   2.433   3.319  0.0812  0.1025 -0.0597
  217POPC   PO4 3087   7.875   2.326   3.626  0.1399 -0.3356  0.0392
  217POPC   GL1 3088   8.111   2.163   4.022 -0.1984 -0.2565  0.0550
  217POPC   GL2 3089   8.269   1.774   4.121 -0.0725  0.1527  0.1434
  217POPC   C1A 3090   8.558   2.164   4.205  0.0081  0.1190 -0.1261
  217POPC   D2A 3091   8.848   2.448   4.486 -0.2362  0.2305  0.0860
  217POPC   C3A 3092   8.979   2.178   4.819  0.1294  0.0106  0.1943
  217POPC   C4A 3093   9.067   1.829   4.965 -0.0279 -0.2441  0.1002
  217POPC   C1B 3094   8.488   1.803   4.583  0.0273 -0.1653  0.0672
  217POPC   C2B 3095   8.540   1.896   5.099  0.1237  0.2301 -0.0341
  217POPC   C3B 3096   8.616   1.466   5.181  0.0960 -0.1880  0.0590
  217POPC   C4B 3097   8.650   1.051   5.232 -0.1944 -0.0942  0.1585
  218POPC   NC3 3098   5.758   8.172   4.496  0.1145  0.1319 -0.1983
  218POPC   PO4 3099   5.517   7.819   4.548  0.0131  0.2139  0.1057
  218POPC   GL1 3100   5.590   7.762   5.021  0.0443 -0.1787 -0.1174
  218POPC   GL2 3101   5.665   7.486   5.205  0.1155 -0.0542 -0.1485
  218POPC   C1A 3102   5.489   7.840   5.465 -0.0729  0.0310 -0.0131
  218POPC   D2A 3103   5.539   7.844   5.940  0.0800 -0.2729  0.1063
  218POPC   C3A 3104   5.689   7.730   6.301  0.0308  0.0203 -0.1309
  218POPC   C4A 3105   5.521   7.644   6.715 -0.0263  0.0517  0.0701
  218POPC   C1B 3106   5.922   7.367   5.482 -0.1648  0.1624  0.2725
  218POPC   C2B 3107   6.164   7.013   5.567  0.2071  0.0383  0.1813
  218POPC   C3B 3108   6.428   6.813   5.940  0.2570  0.1181  0.0514
  218POPC   C4B 3109   6.391   6.562   6.315  0.0010  0.0407 -0.0392
  219POPC   NC3 3110  10.001   2.406   3.899  0.1202 -0.0322  0.3638
  219POPC   PO4 3111   9.967   2.694   4.281 -0.0943  0.3568  0.2915
  219POPC   GL1 3112  10.057   2.522   4.789  0.2991 -0.1387 -0.0482
  219POPC   GL2 3113   9.780   2.606   5.116 -0.4847  0.1133 -0.1208
  219POPC   C1A 3114   9.998   2.130   5.105 -0.1311  0.1540 -0.1696
  219POPC   D2A 3115  10.110   1.821   5.465  0.0564  0.1480 -0.1133
  219POPC   C3A 3116  10.255   1.816   5.934 -0.0978 -0.0406  0.0763
  219POPC   C4A 3117  10.284   1.603   6.357 -0.3816 -0.0262  0.2173
  219POPC   C1B 3118   9.690   2.279   5.516 -0.0508 -0.1509 -0.1456
  219POPC   C2B 3119   9.581   1.954   5.786 -0.0555  0.0594 -0.1110
  219POPC   C3B 3120   9.681   1.573   5.941  0.1233  0.1449  0.0224
  219POPC   C4B 3121   9.994   1.393   5.848  0.1215  0.1177 -0.1610
  220POPC   NC3 3122   8.777   4.118   5.231  0.3269  0.1771  0.1778
  220POPC   PO4 3123   8.484   4.368   4.993  0.1523  0.2670 -0.2685
  220POPC   GL1 3124   8.371   4.300   5.457 -0.1670  0.0313  0.1445
  220POPC   GL2 3125   8.648   4.146   5.703 -0.1583  0.4457  0.1462
  220POPC   C1A 3126   8.205   4.226   5.866  0.0708  0.0526 -0.2880
  220POPC   D2A 3127   8.339   4.086   6.271 -0.1092  0.0808 -0.0973
  220POPC   C3A 3128   8.475   3.674   6.583 -0.1627  0.1679  0.0063
  220POPC   C4A 3129   8.685   3.368   6.800  0.0002  0.1242 -0.2938
  220POPC   C1B 3130   8.742   4.385   6.082  0.1288 -0.3454 -0.1140
  220POPC   C2B 3131   8.567   4.489   6.537 -0.1077  0.5362 -0.0717
  220POPC   C3B 3132   8.103   4.649   6.735 -0.2043 -0.1742 -0.1904
  220POPC   C4B 3133   7.805   4.517   6.536 -0.1111 -0.0938 -0.1296
  221POPC   NC3 3134   3.731   0.256   4.251 -0.2765  0.1686 -0.3140
  221POPC   PO4 3135   3.426   0.115   4.546  0.0423  0.0311  0.0377
  221POPC   GL1 3136   3.388   0.168   5.036  0.1834 -0.2671  0.0974
  221POPC   GL2 3137   3.251   0.530   5.228 -0.0077 -0.1409  0.2359
  221POPC   C1A 3138   3.638   0.291   5.364  0.0547 -0.1045 -0.0419
  221POPC   D2A 3139   3.771   0.392   5.756 -0.1294 -0.0210  0.1635
  221POPC   C3A 3140   3.571   0.548   6.059 -0.0944  0.3216 -0.1120
  221POPC   C4A 3141   3.377   0.892   6.023  0.3067  0.1836 -0.2289
  221POPC   C1B 3142   3.274   0.387   5.678 -0.0250  0.0739  0.2278
  221POPC   C2B 3143   3.212   0.197   6.117 -0.0041 -0.0533 -0.2566
  221POPC   C3B 3144   3.241   0.128   6.557 -0.0915 -0.0802  0.1087
  221POPC   C4B 3145   3.545   0.057   6.853 -0.2229 -0.0446 -0.3120
  222POPC   NC3 3146   0.166   3.848   4.911 -0.0146 -0.2025 -0.0282
  222POPC   PO4 3147   0.666   3.668   5.032  0.0562  0.1541  0.1309
  222POPC   GL1 3148   0.699   3.450   5.349  0.1001  0.2751  0.2934
  222POPC   GL2 3149   0.737   3.693   5.660 -0.0558 -0.3741  0.1843
  222POPC   C1A 3150   0.665   3.200   5.643 -0.0101 -0.2092  0.2267
  222POPC   D2A 3151   0.407   3.185   6.068 -0.0339  0.0243  0.4379
  222POPC   C3A 3152   0.431   3.018   6.441  0.2643  0.1264 -0.2739
  222POPC   C4A 3153   0.499   2.625   6.745  0.1272  0.1755 -0.0100
  222POPC   C1B 3154   0.859   3.541   6.034 -0.0534  0.0089  0.1882
  222POPC   C2B 3155   0.656   3.425   6.433 -0.0189  0.3889  0.3786
  222POPC   C3B 3156   0.582   3.248   6.845  0.0734 -0.0693  0.1598
  222POPC   C4B 3157   0.830   3.371   7.189 -0.0991 -0.1607  0.3538
  223POPC   NC3 3158   6.531   5.597   5.265  0.0122 -0.2320 -0.0058
  223POPC   PO4 3159   6.325   5.130   5.215 -0.0862  0.0218 -0.1967
  223POPC   GL1 3160   6.349   5.287   5.661 -0.0249  0.3305  0.0558
  223POPC   GL2 3161   6.696   5.234   5.789  0.1658 -0.0271  0.2387
  223POPC   C1A 3162   6.262   5.141   6.059  0.0952 -0.0041 -0.1840
  223POPC   D2A 3163   6.444   5.271   6.580  0.1736  0.3412 -0.0326
  223POPC   C3A 3164   6.950   5.284   6.707  0.0749 -0.0312 -0.0533
  223POPC   C4A 3165   7.458   5.214   6.540  0.1157  0.1834 -0.0249
  223POPC   C1B 3166   6.669   5.438   6.152  0.0651 -0.2307 -0.0654
  223POPC   C2B 3167   6.621   5.722   6.455  0.5120 -0.4133 -0.2257
  223POPC   C3B 3168   6.375   6.142   6.609  0.0606  0.2204  0.0291
  223POPC   C4B 3169   5.902   6.096   6.637  0.1788  0.0708  0.0000
  224POPC   NC3 3170   8.394   7.375   4.690 -0.1917 -0.0953 -0.0289
  224POPC   PO4 3171   8.218   7.702   4.941  0.0070  0.0773 -0.0375
  224POPC   GL1 3172   8.201   8.001   5.257 -0.0566  0.1153  0.1241
  224POPC   GL2 3173   8.185   7.761   5.513 -0.3081 -0.0227  0.0753
  224POPC   C1A 3174   8.239   8.221   5.662  0.3352 -0.0361  0.1800
  224POPC   D2A 3175   8.205   8.163   6.163  0.0118  0.0631 -0.1194
  224POPC   C3A 3176   8.114   8.433   6.517 -0.0065  0.2472  0.1335
  224POPC   C4A 3177   8.107   8.805   6.801 -0.0588  0.0308 -0.1494
  224POPC   C1B 3178   7.847   7.746   5.817 -0.4759 -0.0361 -0.1702
  224POPC   C2B 3179   7.740   7.773   6.223 -0.1793 -0.0619 -0.4036
  224POPC   C3B 3180   7.770   7.626   6.677  0.2368  0.2048  0.0269
  224POPC   C4B 3181   7.715   7.241   6.954  0.0995 -0.0042  0.1537
  225POPC   NC3 3182   1.472   2.377   4.066  0.2757  0.0637 -0.1167
  225POPC   PO4 3183   1.059   2.019   4.167 -0.2569 -0.4390  0.0591
  225POPC   GL1 3184   0.928   2.056   4.580 -0.0776  0.1871  0.0805
  225POPC   GL2 3185   0.707   1.875   4.625 -0.3299 -0.0076  0.1283
  225POPC   C1A 3186   1.024   1.738   4.940  0.0925  0.0844 -0.0770
  225POPC   D2A 3187   0.910   1.763   5.327 -0.1501  0.2828  0.4399
  225POPC   C3A 3188   1.132   1.776   5.670  0.2068 -0.2224 -0.1078
  225POPC   C4A 3189   1.375   1.551   5.829  0.0614 -0.1129 -0.1569
  225POPC   C1B 3190   0.615   1.496   4.990  0.1741 -0.1281  0.0627
  225POPC   C2B 3191   0.334   1.321   5.106  0.0033 -0.0676 -0.0928
  225POPC   C3B 3192   0.033   1.505   5.341 -0.1252 -0.0820 -0.0063
  225POPC   C4B 3193  -0.070   1.098   5.650  0.1715 -0.1271  0.0704
  226POPC   NC3 3194   4.842   6.382   4.729 -0.3155  0.2253 -0.0623
  226POPC   PO4 3195   5.218   6.464   4.674 -0.5059 -0.1220  0.1283
  226POPC   GL1 3196   5.216   6.238   5.157 -0.0786 -0.0769  0.0930
  226POPC   GL2 3197   5.513   6.111   5.220 -0.0861 -0.1460  0.3001
  226POPC   C1A 3198   5.096   5.805   5.358  0.4512  0.0983 -0.0744
  226POPC   D2A 3199   5.113   5.328   5.325  0.2508 -0.0139 -0.0981
  226POPC   C3A 3200   4.854   5.068   5.658  0.1854 -0.2786 -0.1005
  226POPC   C4A 3201   4.730   5.043   6.097 -0.0555 -0.1533  0.0605
  226POPC   C1B 3202   5.730   6.124   5.631 -0.2826 -0.0863 -0.0397
  226POPC   C2B 3203   5.692   5.973   5.989  0.3772  0.2311 -0.2766
  226POPC   C3B 3204   5.349   6.048   6.277  0.2144 -0.1206 -0.1924
  226POPC   C4B 3205   5.006   6.075   6.532 -0.2072 -0.2058  0.0848
  227POPC   NC3 3206   4.796   7.668   4.547 -0.0148 -0.0190 -0.0378
  227POPC   PO4 3207   5.070   7.900   4.780  0.1055 -0.2506  0.4378
  227POPC   GL1 3208   5.071   8.064   5.275  0.3542 -0.0910  0.0147
  227POPC   GL2 3209   5.212   8.378   5.315  0.0091 -0.3019 -0.1352
  227POPC   C1A 3210   5.112   8.101   5.764 -0.0979 -0.0196 -0.1593
  227POPC   D2A 3211   5.197   8.013   6.228 -0.3110  0.3796  0.1053
  227POPC   C3A 3212   5.067   7.672   6.583 -0.0055 -0.1990  0.6748
  227POPC   C4A 3213   5.079   7.620   7.010 -0.3398  0.1030  0.0885
  227POPC   C1B 3214   5.017   8.595   5.674 -0.2081 -0.0438 -0.0705
  227POPC   C2B 3215   5.006   8.490   6.130  0.0595 -0.1738  0.1988
  227POPC   C3B 3216   4.780   8.391   6.553  0.1955  0.3312  0.0547
  227POPC   C4B 3217   4.864   8.505   6.973 -0.0612 -0.1383 -0.0864
  228POPC   NC3 3218   2.725   1.224   4.897 -0.0185  0.2695 -0.2594
  228POPC   PO4 3219   3.012   1.492   5.150  0.1180  0.1584 -0.1126
  228POPC   GL1 3220   3.198   1.473   5.529 -0.2123  0.1201 -0.2187
  228POPC   GL2 3221   3.467   1.302   5.570 -0.0109  0.2267  0.3340
  228POPC   C1A 3222   3.051   1.268   5.957  0.0064  0.2482 -0.3744
  228POPC   D2A 3223   3.086   1.194   6.370  0.2899  0.2070 -0.3286
  228POPC   C3A 3224   2.721   1.003   6.723  0.1795  0.0249  0.0889
  228POPC   C4A 3225   2.707   0.757   7.049  0.0937 -0.0256  0.2091
  228POPC   C1B 3226   3.510   1.542   5.907 -0.1018 -0.0077  0.0142
  228POPC   C2B 3227   3.480   1.726   6.314  0.1608  0.5785 -0.1388
  228POPC   C3B 3228   3.406   1.727   6.683 -0.2010 -0.0141 -0.1397
  228POPC   C4B 3229   3.464   1.813   7.094 -0.1407 -0.0556 -0.1229
  229POPC   NC3 3230   1.602   4.228   4.644 -0.2506 -0.0694 -0.3381
  229POPC   PO4 3231   1.466   3.672   4.776 -0.0324  0.0910 -0.0964
  229POPC   GL1 3232   1.232   3.535   5.218  0.0205  0.2952 -0.3710
  229POPC   GL2 3233   1.138   3.841   5.305  0.1848 -0.1831 -0.1159
  229POPC   C1A 3234   1.129   3.313   5.558  0.1506 -0.2614  0.0181
  229POPC   D2A 3235   0.997   2.967   5.902  0.0634 -0.2026 -0.1054
  229POPC   C3A 3236   0.964   3.006   6.358  0.2375  0.1530 -0.0977
  229POPC   C4A 3237   1.087   3.091   6.843 -0.0485 -0.0130  0.2301
  229POPC   C1B 3238   1.220   3.765   5.768 -0.0135  0.0407 -0.1919
  229POPC   C2B 3239   1.416   3.884   6.190  0.0380 -0.0115 -0.1254
  229POPC   C3B 3240   1.500   3.862   6.613  0.1187 -0.1180 -0.1310
  229POPC   C4B 3241   1.730   3.835   7.097  0.2651 -0.4549 -0.1522
  230POPC   NC3 3242   0.788   6.785   5.169  0.3011  0.0395  0.2256
  230POPC   PO4 3243   1.027   7.136   4.943  0.2777  0.0603  0.2385
  230POPC   GL1 3244   1.138   7.055   5.378  0.1814  0.0300  0.0461
  230POPC   GL2 3245   1.446   6.968   5.320 -0.1102  0.1037  0.0861
  230POPC   C1A 3246   1.043   7.257   5.770 -0.0772 -0.1517  0.0904
  230POPC   D2A 3247   1.028   7.401   6.259 -0.0224 -0.3739 -0.0571
  230POPC   C3A 3248   0.790   7.141   6.605 -0.0044 -0.1332  0.1128
  230POPC   C4A 3249   0.795   6.960   7.020  0.0287  0.1702  0.1009
  230POPC   C1B 3250   1.563   6.669   5.646  0.0728  0.0005  0.2178
  230POPC   C2B 3251   1.810   6.377   5.956  0.0318  0.1373 -0.0463
  230POPC   C3B 3252   1.608   6.018   6.171 -0.3316  0.1468 -0.0939
  230POPC   C4B 3253   1.272   5.943   6.303 -0.0760  0.0241  0.2094
  231POPC   NC3 3254   2.071   7.532   5.016 -0.1234  0.0636 -0.4302
  231POPC   PO4 3255   1.948   7.062   4.881  0.1621 -0.1137 -0.3387
  231POPC   GL1 3256   1.946   7.056   5.293 -0.0221  0.2795  0.1727
  231POPC   GL2 3257   1.957   7.255   5.385  0.0590  0.2363 -0.4914
  231POPC   C1A 3258   2.308   7.023   5.650  0.0812 -0.0857 -0.2321
  231POPC   D2A 3259   2.650   6.820   5.866 -0.3341  0.0594 -0.0222
  231POPC   C3A 3260   2.622   6.658   6.301  0.2468  0.0191 -0.0193
  231POPC   C4A 3261   2.665   6.498   6.800 -0.1147  0.1635  0.0497
  231POPC   C1B 3262   1.627   7.259   5.670 -0.1491  0.1660 -0.3260
  231POPC   C2B 3263   1.443   7.021   5.946 -0.1519 -0.0133 -0.2633
  231POPC   C3B 3264   1.147   6.927   6.272 -0.0846 -0.2912 -0.0270
  231POPC   C4B 3265   1.144   6.805   6.691  0.3375 -0.0805  0.1342
  232POPC   NC3 3266   2.823   9.599   5.067 -0.2554  0.0975 -0.0591
  232POPC   PO4 3267   3.075   9.276   5.194 -0.1478  0.0243 -0.0156
  232POPC   GL1 3268   2.957   9.365   5.550  0.1844 -0.2320 -0.0479
  232POPC   GL2 3269   3.201   9.326   5.782 -0.4083  0.1312 -0.1970
  232POPC   C1A 3270   2.618   9.477   5.840  0.0913 -0.1714  0.0301
  232POPC   D2A 3271   2.353   9.652   6.222 -0.0151  0.2171  0.3517
  232POPC   C3A 3272   2.052   9.428   6.425  0.0824 -0.2220 -0.0970
  232POPC   C4A 3273   1.718   9.099   6.412  0.0312  0.2703 -0.2858
  232POPC   C1B 3274   3.095   9.339   6.124 -0.1436  0.0239  0.0255
  232POPC   C2B 3275   3.233   9.233   6.554 -0.0992 -0.3921  0.1402
  232POPC   C3B 3276   3.489   9.514   6.732  0.3629 -0.0063  0.0634
  232POPC   C4B 3277   3.544   9.809   7.007  0.1676 -0.1548  0.1049
  233POPC   NC3 3278   2.039   5.223   4.387  0.2401 -0.3785 -0.1471
  233POPC   PO4 3279   2.114   5.509   4.674 -0.0985  0.1210 -0.1257
  233POPC   GL1 3280   2.384   5.702   5.061  0.2310 -0.2029 -0.0647
  233POPC   GL2 3281   2.750   5.778   5.135 -0.0704 -0.0614 -0.4031
  233POPC   C1A 3282   2.364   5.738   5.481  0.1968  0.3080 -0.0410
  233POPC   D2A 3283   2.485   5.610   5.873  0.2333 -0.2283 -0.1373
  233POPC   C3A 3284   2.938   5.707   6.135  0.2399 -0.1514  0.0427
  233POPC   C4A 3285   3.106   5.658   6.561 -0.1261  0.1280  0.2264
  233POPC   C1B 3286   2.825   5.871   5.506  0.0254  0.1647 -0.4304
  233POPC   C2B 3287   3.102   6.027   5.827  0.0363  0.1516  0.1930
  233POPC   C3B 3288   3.379   6.018   6.111 -0.1740  0.3802  0.1635
  233POPC   C4B 3289   3.527   5.684   6.317  0.1496 -0.2765 -0.3185
  234POPC   NC3 3290   4.679   4.434   4.708  0.0387  0.1529 -0.1796
  234POPC   PO4 3291   4.961   4.352   5.067  0.0712 -0.1961 -0.0143
  234POPC   GL1 3292   4.962   4.326   5.438  0.2142 -0.0145 -0.1913
  234POPC   GL2 3293   4.942   3.987   5.483 -0.5028  0.0283 -0.0053
  234POPC   C1A 3294   5.051   4.560   5.694 -0.1331  0.2657 -0.0839
  234POPC   D2A 3295   5.319   4.827   5.900 -0.0334  0.2907 -0.1553
  234POPC   C3A 3296   5.228   5.290   5.811 -0.1975  0.0917 -0.0569
  234POPC   C4A 3297   5.351   5.693   5.836 -0.0429 -0.5470 -0.0647
  234POPC   C1B 3298   4.822   4.058   5.899 -0.3002  0.0260 -0.1864
  234POPC   C2B 3299   4.684   3.878   6.283 -0.1828  0.1145  0.1513
  234POPC   C3B 3300   4.709   3.806   6.762  0.3198  0.1762 -0.3171
  234POPC   C4B 3301   4.889   3.649   7.122  0.1179 -0.0231  0.0525
  235POPC   NC3 3302   5.673   3.749   4.605  0.2383  0.2104 -0.0465
  235POPC   PO4 3303   5.869   3.751   4.991 -0.2606  0.0416 -0.1344
  235POPC   GL1 3304   5.797   3.740   5.467  0.2567  0.4641 -0.0869
  235POPC   GL2 3305   5.408   3.665   5.501 -0.2321 -0.0881  0.0870
  235POPC   C1A 3306   5.997   3.949   5.864 -0.1153  0.0800 -0.1136
  235POPC   D2A 3307   6.309   3.976   6.168  0.4245  0.1048 -0.3103
  235POPC   C3A 3308   6.316   3.955   6.630  0.4351 -0.0269 -0.1039
  235POPC   C4A 3309   6.572   3.776   6.904  0.0280 -0.0641  0.0154
  235POPC   C1B 3310   5.555   3.810   5.922 -0.3155  0.1779  0.2062
  235POPC   C2B 3311   5.638   3.943   6.322 -0.0521 -0.0571  0.3077
  235POPC   C3B 3312   5.826   3.805   6.680  0.1817  0.2655  0.1133
  235POPC   C4B 3313   6.037   3.634   7.051 -0.2956  0.1700  0.0491
  236POPC   NC3 3314   6.686   8.421   4.231  0.0748 -0.0947 -0.0233
  236POPC   PO4 3315   6.606   8.210   4.680 -0.1037  0.1717  0.2634
  236POPC   GL1 3316   6.453   8.167   5.054 -0.0640 -0.0120  0.0573
  236POPC   GL2 3317   6.494   7.854   5.147 -0.1983  0.2744  0.0821
  236POPC   C1A 3318   6.319   8.413   5.385  0.0386  0.1014 -0.2828
  236POPC   D2A 3319   6.428   8.732   5.685  0.2014 -0.0230  0.1470
  236POPC   C3A 3320   6.583   8.919   6.023  0.2665  0.0681 -0.1563
  236POPC   C4A 3321   6.545   9.311   6.278  0.0821  0.1541 -0.0072
  236POPC   C1B 3322   6.155   7.814   5.407 -0.2335 -0.1159 -0.1538
  236POPC   C2B 3323   5.984   7.968   5.796  0.0678  0.0466 -0.1384
  236POPC   C3B 3324   5.949   8.183   6.264 -0.1795  0.1771  0.0679
  236POPC   C4B 3325   6.110   8.471   6.692  0.1008 -0.1511 -0.1419
  237POPC   NC3 3326   1.069   3.990   4.858  0.1649 -0.2399  0.2456
  237POPC   PO4 3327   0.674   4.267   4.859 -0.0098 -0.0105 -0.0757
  237POPC   GL1 3328   0.560   4.156   5.217 -0.2092 -0.2195 -0.0750
  237POPC   GL2 3329   0.759   4.370   5.496  0.0561  0.0290  0.0043
  237POPC   C1A 3330   0.284   3.923   5.576 -0.4001  0.0362 -0.0018
  237POPC   D2A 3331  -0.198   3.791   5.674 -0.0058 -0.0427 -0.2452
  237POPC   C3A 3332  -0.528   3.931   5.964 -0.0577  0.1144 -0.1546
  237POPC   C4A 3333  -0.649   3.963   6.321 -0.1154 -0.0743 -0.0086
  237POPC   C1B 3334   0.500   4.326   5.733 -0.0091  0.2688 -0.3809
  237POPC   C2B 3335   0.508   3.918   6.027 -0.0416  0.1001 -0.1528
  237POPC   C3B 3336   0.232   3.679   6.156 -0.3182  0.0455 -0.4096
  237POPC   C4B 3337  -0.193   3.753   6.309  0.0135 -0.3660 -0.1727
  238POPC   NC3 3338   7.551   3.030   3.990  0.0958  0.0582 -0.2125
  238POPC   PO4 3339   7.494   3.011   4.378 -0.2759 -0.1966 -0.0044
  238POPC   GL1 3340   7.684   2.840   4.726 -0.2040 -0.2387  0.0819
  238POPC   GL2 3341   7.591   2.908   5.014 -0.0645  0.0941  0.1237
  238POPC   C1A 3342   8.000   2.590   4.928 -0.0622  0.0325  0.4542
  238POPC   D2A 3343   8.201   2.300   5.179 -0.0189  0.0923  0.0499
  238POPC   C3A 3344   7.984   1.959   5.466 -0.1206  0.3057 -0.2656
  238POPC   C4A 3345   7.928   1.823   5.865  0.0631 -0.3641 -0.1627
  238POPC   C1B 3346   7.366   2.727   5.319 -0.3507 -0.1132 -0.1019
  238POPC   C2B 3347   7.480   2.652   5.746  0.1924  0.0259 -0.4990
  238POPC   C3B 3348   7.286   2.770   6.184  0.2498 -0.0022 -0.0390
  238POPC   C4B 3349   7.127   2.895   6.551  0.0579  0.5347 -0.1072
  239POPC   NC3 3350   6.193   9.061   4.504  0.1390  0.1545  0.0825
  239POPC   PO4 3351   6.613   8.901   4.298  0.0246  0.0531  0.0305
  239POPC   GL1 3352   6.730   8.952   4.705  0.0179  0.0653 -0.1296
  239POPC   GL2 3353   6.461   8.736   4.821  0.1568 -0.4052 -0.1146
  239POPC   C1A 3354   6.733   9.169   5.033 -0.1938  0.0644  0.0052
  239POPC   D2A 3355   6.753   9.089   5.503 -0.2446 -0.0620 -0.0335
  239POPC   C3A 3356   7.044   8.810   5.596 -0.1185 -0.1091 -0.0126
  239POPC   C4A 3357   7.304   8.347   5.552 -0.1682 -0.1020  0.0424
  239POPC   C1B 3358   6.347   8.963   5.220 -0.3707 -0.2981  0.1161
  239POPC   C2B 3359   6.126   9.106   5.549  0.3671  0.0348 -0.0231
  239POPC   C3B 3360   6.010   9.260   6.018 -0.2224  0.0831  0.1190
  239POPC   C4B 3361   5.693   9.478   6.109 -0.2752 -0.0792  0.2558
  240POPC   NC3 3362   6.789   0.210   3.680 -0.3885 -0.1672 -0.1299
  240POPC   PO4 3363   6.472   0.575   3.974  0.1754  0.3301 -0.0460
  240POPC   GL1 3364   6.435   0.721   4.367  0.2738 -0.0613  0.0803
  240POPC   GL2 3365   6.256   1.041   4.483  0.1941  0.0995 -0.2505
  240POPC   C1A 3366   6.727   1.006   4.631 -0.1392  0.0801 -0.4807
  240POPC   D2A 3367   6.983   1.304   4.800 -0.1481 -0.0482 -0.1987
  240POPC   C3A 3368   6.940   1.717   4.740  0.0898  0.2831  0.4826
  240POPC   C4A 3369   7.111   2.102   4.990  0.0288  0.1324  0.0839
  240POPC   C1B 3370   6.305   0.820   4.879 -0.0842  0.0662 -0.0334
  240POPC   C2B 3371   6.272   0.658   5.373  0.2322 -0.0200 -0.0473
  240POPC   C3B 3372   6.277   0.320   5.653 -0.2463  0.2144 -0.1137
  240POPC   C4B 3373   6.379   0.109   6.025 -0.0535 -0.1484 -0.2892
  241POPC   NC3 3374  10.176   3.893   4.794  0.1579 -0.0710 -0.0044
  241POPC   PO4 3375  10.098   3.654   5.130 -0.0181  0.3010 -0.0464
  241POPC   GL1 3376  10.233   3.348   5.452  0.2240 -0.3296 -0.3524
  241POPC   GL2 3377  10.081   3.031   5.459 -0.0710  0.0005 -0.0658
  241POPC   C1A 3378  10.468   3.353   5.825  0.1023 -0.0509 -0.1576
  241POPC   D2A 3379  10.426   3.290   6.283 -0.3289 -0.5575  0.2952
  241POPC   C3A 3380  10.676   3.621   6.614  0.1588  0.2506  0.1265
  241POPC   C4A 3381  11.046   3.917   6.631 -0.0897 -0.2829  0.1023
  241POPC   C1B 3382  10.061   2.917   5.883  0.0166 -0.0467 -0.1653
  241POPC   C2B 3383   9.963   2.612   6.187 -0.0377 -0.1425 -0.1768
  241POPC   C3B 3384   9.727   2.733   6.603  0.5129  0.3735  0.1694
  241POPC   C4B 3385   9.325   2.720   6.802  0.2643  0.2367  0.2229
  242POPC   NC3 3386   9.208   7.493   4.818  0.0151 -0.1629 -0.1100
  242POPC   PO4 3387   8.909   7.305   4.897  0.0703  0.0653  0.0077
  242POPC   GL1 3388   9.003   7.461   5.335 -0.0724  0.1500 -0.1531
  242POPC   GL2 3389   9.215   7.169   5.399  0.0068 -0.0990 -0.1413
  242POPC   C1A 3390   8.986   7.730   5.404  0.1179 -0.0136  0.0351
  242POPC   D2A 3391   8.669   7.941   5.486  0.1593 -0.1711  0.2543
  242POPC   C3A 3392   8.690   7.977   5.971  0.1510  0.1069 -0.2302
  242POPC   C4A 3393   8.771   7.927   6.429  0.0174 -0.0612 -0.1312
  242POPC   C1B 3394   9.213   7.465   5.771  0.3922  0.0676 -0.0032
  242POPC   C2B 3395   9.144   7.806   6.034 -0.0592 -0.1752 -0.3302
  242POPC   C3B 3396   9.095   8.248   6.099  0.1288  0.0510 -0.0317
  242POPC   C4B 3397   9.464   8.604   6.371 -0.1933 -0.2068  0.0001
  243POPC   NC3 3398   6.006   0.794   4.111 -0.1575 -0.1470 -0.1632
  243POPC   PO4 3399   5.737   0.903   4.435  0.0718 -0.0046 -0.1374
  243POPC   GL1 3400   5.870   0.666   4.721 -0.2217 -0.0035  0.1428
  243POPC   GL2 3401   6.043   0.406   4.675  0.0636 -0.1192 -0.1578
  243POPC   C1A 3402   5.742   0.522   5.081 -0.0011 -0.3815  0.1721
  243POPC   D2A 3403   5.647   0.688   5.566 -0.2234  0.0863  0.3391
  243POPC   C3A 3404   5.508   0.582   5.969  0.1972  0.0237  0.1088
  243POPC   C4A 3405   5.619   0.733   6.338 -0.0861  0.0734 -0.0214
  243POPC   C1B 3406   6.505   0.258   4.600  0.0235  0.2225  0.3088
  243POPC   C2B 3407   6.719  -0.183   4.557  0.1050  0.1787 -0.0116
  243POPC   C3B 3408   7.082  -0.505   4.813  0.1683 -0.1402  0.2232
  243POPC   C4B 3409   7.283  -0.585   5.199  0.1158  0.0174 -0.1363
  244POPC   NC3 3410  10.185   3.266   4.554 -0.1176  0.1208  0.3607
  244POPC   PO4 3411  10.475   3.380   4.904 -0.0292 -0.3715  0.5457
  244POPC   GL1 3412  10.532   3.085   5.113 -0.1030 -0.0025 -0.1751
  244POPC   GL2 3413  10.298   2.801   5.136 -0.1774  0.0812  0.1813
  244POPC   C1A 3414  10.711   3.023   5.526  0.1478  0.4895 -0.1973
  244POPC   D2A 3415  10.553   2.748   5.839  0.1660 -0.1114  0.1695
  244POPC   C3A 3416  10.528   2.747   6.191 -0.0464  0.0244 -0.4978
  244POPC   C4A 3417  10.476   2.549   6.613  0.0180  0.0330  0.0795
  244POPC   C1B 3418  10.223   2.483   5.475 -0.0257  0.0631  0.1742
  244POPC   C2B 3419  10.087   2.271   5.818  0.2398 -0.1518 -0.0108
  244POPC   C3B 3420   9.894   2.025   6.182 -0.5976 -0.2029 -0.1070
  244POPC   C4B 3421   9.667   1.745   6.474 -0.3798 -0.2034 -0.0707
  245POPC   NC3 3422   2.111   2.505   5.172 -0.3555 -0.0137  0.0128
  245POPC   PO4 3423   1.764   2.508   4.902  0.0809 -0.1827 -0.0157
  245POPC   GL1 3424   1.704   2.423   5.347  0.3460  0.2732  0.2774
  245POPC   GL2 3425   1.561   2.689   5.358 -0.0775 -0.0129  0.0594
  245POPC   C1A 3426   1.775   2.369   5.756 -0.1325 -0.0466  0.1675
  245POPC   D2A 3427   1.736   2.370   6.131  0.0705  0.3444  0.0650
  245POPC   C3A 3428   1.666   2.006   6.407  0.2325  0.2087  0.3012
  245POPC   C4A 3429   1.340   1.732   6.435 -0.0625  0.0072 -0.0852
  245POPC   C1B 3430   1.507   2.886   5.730  0.0437 -0.0314  0.1693
  245POPC   C2B 3431   1.452   2.915   6.177  0.3159 -0.2359 -0.0016
  245POPC   C3B 3432   1.407   2.827   6.593 -0.3443  0.2864  0.1452
  245POPC   C4B 3433   1.540   2.889   6.962 -0.0502  0.0030  0.0754
  246POPC   NC3 3434   9.205   9.495   3.609  0.1655 -0.2060 -0.1873
  246POPC   PO4 3435   9.011   9.934   3.419 -0.1401  0.1330  0.3259
  246POPC   GL1 3436   8.699  10.290   3.530  0.1820  0.0448  0.0201
  246POPC   GL2 3437   8.401  10.393   3.722  0.3366 -0.0668  0.1465
  246POPC   C1A 3438   8.839  10.606   3.824  0.0671  0.1976 -0.1375
  246POPC   D2A 3439   8.732  10.824   4.152  0.0068 -0.1818 -0.1677
  246POPC   C3A 3440   8.476  11.197   4.247 -0.1018 -0.4511 -0.2463
  246POPC   C4A 3441   8.704  11.339   4.706  0.0070 -0.2139  0.1717
  246POPC   C1B 3442   8.506  10.313   4.065 -0.1288 -0.0824  0.0468
  246POPC   C2B 3443   8.435  10.006   4.233 -0.0322  0.0493 -0.2611
  246POPC   C3B 3444   8.213   9.705   4.688 -0.1749  0.2465 -0.2358
  246POPC   C4B 3445   8.349   9.627   5.089  0.0489  0.2133 -0.0646
  247POPC   NC3 3446   2.027   1.096   4.347  0.2855 -0.0626  0.2707
  247POPC   PO4 3447   2.119   0.701   4.376  0.2469 -0.1254  0.0484
  247POPC   GL1 3448   1.782   0.604   4.699 -0.2807 -0.1911  0.1719
  247POPC   GL2 3449   1.718   0.344   4.721  0.0198  0.1758  0.2300
  247POPC   C1A 3450   1.375   0.687   5.075  0.0142  0.2377  0.1452
  247POPC   D2A 3451   1.187   0.695   5.498  0.2050 -0.3178  0.0496
  247POPC   C3A 3452   0.879   0.269   5.614  0.0727  0.0947 -0.0587
  247POPC   C4A 3453   0.706   0.107   5.889 -0.0020 -0.1109 -0.2208
  247POPC   C1B 3454   1.788   0.460   5.196  0.2429  0.0918  0.0888
  247POPC   C2B 3455   1.483   0.306   5.478 -0.3723  0.0995 -0.2037
  247POPC   C3B 3456   1.315   0.319   5.854  0.0563  0.4728 -0.1657
  247POPC   C4B 3457   1.484   0.700   6.188  0.1497 -0.1381 -0.2696
  248POPC   NC3 3458   2.277   1.930   4.630 -0.2161  0.1098  0.0713
  248POPC   PO4 3459   2.416   2.150   4.955  0.1391  0.1214  0.1889
  248POPC   GL1 3460   2.570   2.274   5.289 -0.1027  0.2180  0.0532
  248POPC   GL2 3461   2.281   2.322   5.564 -0.2848 -0.0740  0.0402
  248POPC   C1A 3462   2.765   2.378   5.711  0.4174  0.1268 -0.1506
  248POPC   D2A 3463   2.988   2.757   5.942  0.0986 -0.0151 -0.1672
  248POPC   C3A 3464   2.848   2.947   6.285  0.2452 -0.2281  0.2311
  248POPC   C4A 3465   3.009   3.010   6.825  0.0267 -0.1294 -0.1266
  248POPC   C1B 3466   2.310   2.120   6.088 -0.0567  0.1129  0.0653
  248POPC   C2B 3467   2.146   2.105   6.457  0.0287 -0.5530 -0.2077
  248POPC   C3B 3468   2.357   2.486   6.699 -0.2319 -0.0276  0.1565
  248POPC   C4B 3469   2.801   2.588   6.801 -0.4478  0.0455  0.0429
  249POPC   NC3 3470  10.123   4.710   4.458 -0.0488 -0.1881 -0.2215
  249POPC   PO4 3471  10.260   4.755   4.799  0.1451  0.1342 -0.1423
  249POPC   GL1 3472  10.186   4.813   5.239  0.0581  0.1328  0.0422
  249POPC   GL2 3473   9.872   4.915   5.329 -0.0516  0.0875  0.2231
  249POPC   C1A 3474  10.227   4.852   5.726 -0.0304  0.1801 -0.2307
  249POPC   D2A 3475  10.304   4.708   6.194  0.2041 -0.2364  0.0271
  249POPC   C3A 3476  10.155   4.348   6.369 -0.0596 -0.0065 -0.0569
  249POPC   C4A 3477  10.195   3.988   6.769  0.3688 -0.2328 -0.0554
  249POPC   C1B 3478   9.716   4.835   5.674 -0.1730 -0.3301 -0.3375
  249POPC   C2B 3479   9.458   4.777   5.880 -0.2970  0.1642 -0.0093
  249POPC   C3B 3480   9.481   5.020   6.275 -0.3190  0.2818  0.2607
  249POPC   C4B 3481   9.268   5.027   6.620 -0.2644  0.3056 -0.2268
  250POPC   NC3 3482   8.727   5.152   4.711 -0.0532 -0.0988  0.1163
  250POPC   PO4 3483   8.787   5.400   5.034  0.1404 -0.2905  0.1052
  250POPC   GL1 3484   8.973   5.326   5.472  0.0022  0.0622 -0.1307
  250POPC   GL2 3485   8.705   5.492   5.727  0.1602  0.0867  0.0849
  250POPC   C1A 3486   9.041   5.206   5.893 -0.2026 -0.2324  0.0004
  250POPC   D2A 3487   9.096   5.377   6.299 -0.0604  0.0247  0.0534
  250POPC   C3A 3488   8.858   5.507   6.542  0.2315 -0.1345  0.0352
  250POPC   C4A 3489   8.442   5.570   6.666 -0.0896  0.1185 -0.0291
  250POPC   C1B 3490   8.569   5.736   6.120  0.3557  0.2861 -0.1978
  250POPC   C2B 3491   8.408   6.023   6.300  0.0261 -0.1594 -0.2357
  250POPC   C3B 3492   8.319   6.123   6.689  0.4092  0.1748  0.0047
  250POPC   C4B 3493   8.325   6.080   7.087  0.0174 -0.2209  0.2612
  251POPC   NC3 3494   1.606   4.690   4.816  0.1857 -0.0844 -0.3107
  251POPC   PO4 3495   1.142   4.674   4.757 -0.2820 -0.0190 -0.3625
  251POPC   GL1 3496   1.165   4.613   5.187 -0.2920  0.0534 -0.2123
  251POPC   GL2 3497   1.140   4.774   5.445  0.0308  0.1882  0.0395
  251POPC   C1A 3498   1.275   4.337   5.672 -0.2234  0.0420  0.2027
  251POPC   D2A 3499   0.907   4.158   5.941  0.0551 -0.1629 -0.2963
  251POPC   C3A 3500   0.969   3.924   6.303 -0.1544  0.0544  0.0729
  251POPC   C4A 3501   1.009   4.059   6.803  0.2230 -0.0216 -0.1560
  251POPC   C1B 3502   0.955   4.681   5.862 -0.1307  0.0673 -0.1116
  251POPC   C2B 3503   0.836   4.857   6.196 -0.1322 -0.1566 -0.1507
  251POPC   C3B 3504   0.608   5.241   6.401 -0.0334 -0.2167 -0.0161
  251POPC   C4B 3505   0.267   5.504   6.502 -0.2332 -0.0538 -0.1420
  252POPC   NC3 3506   7.950   6.815   4.890  0.2217  0.0360 -0.0965
  252POPC   PO4 3507   8.180   7.006   5.118 -0.2614 -0.0508  0.0285
  252POPC   GL1 3508   8.197   6.925   5.496  0.1552 -0.1500 -0.0415
  252POPC   GL2 3509   8.127   7.276   5.635 -0.0539 -0.0849  0.0487
  252POPC   C1A 3510   8.157   6.832   5.991 -0.1523  0.2814 -0.1012
  252POPC   D2A 3511   8.162   6.556   6.325  0.2150 -0.0695 -0.0478
  252POPC   C3A 3512   7.875   6.166   6.465 -0.0242  0.2075 -0.2639
  252POPC   C4A 3513   7.506   6.230   6.378 -0.3455  0.2998  0.0052
  252POPC   C1B 3514   8.235   7.363   6.040  0.1664  0.0142 -0.2270
  252POPC   C2B 3515   8.242   7.684   6.386  0.0853 -0.0088 -0.0162
  252POPC   C3B 3516   8.355   8.044   6.649 -0.1020 -0.0496 -0.2241
  252POPC   C4B 3517   8.335   8.273   6.923  0.2415  0.3041 -0.1146
  253POPC   NC3 3518   7.149   3.665   4.986 -0.0893 -0.0988 -0.0238
  253POPC   PO4 3519   7.098   4.020   5.290 -0.0170 -0.1399 -0.1686
  253POPC   GL1 3520   7.230   3.568   5.545 -0.0749  0.4892  0.1317
  253POPC   GL2 3521   7.331   3.285   5.285  0.1280  0.2159 -0.3280
  253POPC   C1A 3522   7.206   3.172   5.897 -0.2947  0.0177  0.4166
  253POPC   D2A 3523   6.811   3.159   6.222  0.2212  0.3388  0.0660
  253POPC   C3A 3524   6.596   2.827   6.135 -0.0061 -0.1175  0.1355
  253POPC   C4A 3525   6.484   2.565   5.785 -0.0033  0.1540  0.1691
  253POPC   C1B 3526   6.939   3.042   5.334 -0.2645  0.0738  0.0694
  253POPC   C2B 3527   6.934   2.796   5.641  0.0714  0.4231  0.2267
  253POPC   C3B 3528   6.947   2.393   5.938 -0.0141 -0.2707 -0.0090
  253POPC   C4B 3529   7.393   2.252   6.174  0.0177 -0.0192 -0.4552
  254POPC   NC3 3530   9.142   2.012   3.039 -0.0036 -0.0971  0.3470
  254POPC   PO4 3531   8.896   1.872   3.324  0.1104  0.0815  0.0040
  254POPC   GL1 3532   8.964   1.640   3.598 -0.2887  0.0007 -0.1911
  254POPC   GL2 3533   8.700   1.448   3.683 -0.0051 -0.1999 -0.2974
  254POPC   C1A 3534   8.946   1.626   4.101  0.0716 -0.1249 -0.0451
  254POPC   D2A 3535   8.939   1.869   4.420  0.1587  0.3304  0.4251
  254POPC   C3A 3536   9.309   2.058   4.541 -0.3446 -0.1185 -0.2173
  254POPC   C4A 3537   9.571   2.240   4.780  0.0294  0.1779  0.0118
  254POPC   C1B 3538   8.353   1.277   3.923  0.1450 -0.1646  0.0683
  254POPC   C2B 3539   7.976   1.416   4.062  0.0298  0.2836 -0.0005
  254POPC   C3B 3540   7.556   1.364   4.461  0.0123  0.2375  0.1036
  254POPC   C4B 3541   7.207   1.096   4.353 -0.0817  0.0578  0.6777
  255POPC   NC3 3542   3.721   9.692   4.965  0.1065 -0.1304  0.1228
  255POPC   PO4 3543   3.235   9.699   4.842  0.1601  0.5980 -0.2045
  255POPC   GL1 3544   3.231   9.777   5.245 -0.2569  0.0591  0.3056
  255POPC   GL2 3545   3.116  10.064   5.306 -0.2984  0.1072  0.4093
  255POPC   C1A 3546   3.357   9.866   5.679 -0.1250  0.3173  0.2743
  255POPC   D2A 3547   3.321   9.781   6.050  0.2341 -0.0007 -0.0685
  255POPC   C3A 3548   3.440   9.933   6.513 -0.1371  0.0808 -0.0282
  255POPC   C4A 3549   3.846  10.196   6.613  0.0242  0.0529 -0.0458
  255POPC   C1B 3550   3.186  10.288   5.758 -0.0722  0.1086  0.1536
  255POPC   C2B 3551   3.080  10.189   6.232 -0.3569  0.0102  0.2026
  255POPC   C3B 3552   2.873   9.953   6.597 -0.3231 -0.2039 -0.0235
  255POPC   C4B 3553   2.622   9.640   6.716 -0.0164  0.0411 -0.1290
  256POPC   NC3 3554   4.303   9.073   4.695 -0.1369 -0.2365  0.0794
  256POPC   PO4 3555   4.242   8.658   4.879  0.2803 -0.2203 -0.0309
  256POPC   GL1 3556   4.120   8.568   5.230  0.1215  0.0173 -0.2414
  256POPC   GL2 3557   3.806   8.489   5.289  0.3337 -0.0450 -0.0553
  256POPC   C1A 3558   4.146   8.241   5.660  0.1072 -0.1250  0.2015
  256POPC   D2A 3559   4.198   8.129   5.983  0.2375 -0.1088  0.0277
  256POPC   C3A 3560   4.314   7.752   6.087  0.2331 -0.1736  0.1991
  256POPC   C4A 3561   4.587   7.357   6.225 -0.0480 -0.1763  0.1896
  256POPC   C1B 3562   3.784   8.664   5.669 -0.2918  0.1697  0.1426
  256POPC   C2B 3563   3.409   8.880   5.989 -0.0925 -0.1393 -0.3334
  256POPC   C3B 3564   3.354   8.767   6.469  0.3129 -0.0008  0.2112
  256POPC   C4B 3565   3.410   8.889   6.874 -0.1505 -0.1337 -0.1454
  257POPC   NC3 3566   5.740   3.235   4.811 -0.0632 -0.2499  0.1438
  257POPC   PO4 3567   5.433   3.284   5.079 -0.1538  0.0810  0.3101
  257POPC   GL1 3568   5.471   3.045   5.444 -0.2119 -0.1526  0.0478
  257POPC   GL2 3569   5.677   3.197   5.578 -0.0050  0.0573 -0.1174
  257POPC   C1A 3570   5.275   3.210   5.922 -0.0409  0.0627  0.3237
  257POPC   D2A 3571   5.090   3.629   6.098  0.0610  0.2532  0.0543
  257POPC   C3A 3572   4.921   3.407   6.396 -0.1072 -0.0621 -0.5279
  257POPC   C4A 3573   4.514   3.327   6.692 -0.0832 -0.0802 -0.3452
  257POPC   C1B 3574   5.773   3.390   5.978  0.1136 -0.0604 -0.0997
  257POPC   C2B 3575   5.498   3.434   6.342 -0.0939  0.3119  0.6007
  257POPC   C3B 3576   5.231   3.078   6.533  0.1142 -0.1086 -0.1502
  257POPC   C4B 3577   5.252   2.685   6.606 -0.0330  0.0457  0.2329
  258POPC   NC3 3578   8.640   3.329   3.822  0.2449 -0.0850 -0.2954
  258POPC   PO4 3579   8.510   2.983   4.044 -0.1540  0.0440 -0.1158
  258POPC   GL1 3580   8.441   2.647   4.344  0.1432  0.1407  0.0176
  258POPC   GL2 3581   8.159   2.477   4.410 -0.2606  0.1434 -0.3342
  258POPC   C1A 3582   8.452   2.557   4.758 -0.0927 -0.3903  0.3497
  258POPC   D2A 3583   8.764   2.492   5.125  0.0355  0.2780  0.0697
  258POPC   C3A 3584   8.696   2.215   5.499  0.1372 -0.0280 -0.1519
  258POPC   C4A 3585   8.482   1.894   5.653 -0.0583 -0.0516  0.1509
  258POPC   C1B 3586   8.094   2.123   4.580 -0.1874 -0.1811  0.3026
  258POPC   C2B 3587   8.006   1.843   5.002 -0.0258 -0.0333 -0.1078
  258POPC   C3B 3588   8.023   1.492   5.472 -0.0497  0.1569 -0.3721
  258POPC   C4B 3589   8.346   1.410   5.606 -0.2692 -0.0130 -0.0193
  259POPC   NC3 3590   1.529   9.532   4.994 -0.1707 -0.0915  0.2347
  259POPC   PO4 3591   1.409   9.148   4.976 -0.2582 -0.1284  0.1061
  259POPC   GL1 3592   1.205   9.247   5.408 -0.1534  0.1830  0.0061
  259POPC   GL2 3593   1.328   8.954   5.458  0.0961 -0.0500 -0.5907
  259POPC   C1A 3594   1.062   9.384   5.854 -0.1609 -0.0576  0.4141
  259POPC   D2A 3595   1.125   9.089   6.204 -0.0088 -0.1971  0.0747
  259POPC   C3A 3596   1.115   9.082   6.520  0.2524  0.0453 -0.3041
  259POPC   C4A 3597   0.879   9.070   6.888  0.2003  0.3200  0.0215
  259POPC   C1B 3598   1.382   8.775   5.965 -0.0145 -0.2923  0.1581
  259POPC   C2B 3599   1.501   8.636   6.338 -0.0017  0.3118 -0.1760
  259POPC   C3B 3600   1.688   8.328   6.685 -0.1192  0.0241  0.2622
  259POPC   C4B 3601   1.608   8.310   7.151 -0.0020 -0.0894  0.0342
  260POPC   NC3 3602   5.693   9.091   5.152 -0.1752 -0.2142 -0.1791
  260POPC   PO4 3603   5.385   8.733   5.036 -0.4977  0.0815  0.0181
  260POPC   GL1 3604   5.393   8.839   5.475  0.0802  0.1339 -0.1444
  260POPC   GL2 3605   5.149   9.032   5.637 -0.5020 -0.0870 -0.0187
  260POPC   C1A 3606   5.625   8.898   5.824  0.0158  0.2713  0.3488
  260POPC   D2A 3607   5.592   9.030   6.283 -0.1135  0.0034 -0.1897
  260POPC   C3A 3608   5.383   9.218   6.688  0.0039  0.0570 -0.1289
  260POPC   C4A 3609   5.222   9.454   6.993  0.0330  0.0375  0.2145
  260POPC   C1B 3610   5.391   9.346   5.761 -0.1756 -0.2516  0.0967
  260POPC   C2B 3611   5.241   9.651   6.143  0.0626 -0.3772  0.0025
  260POPC   C3B 3612   5.090   9.969   6.417 -0.1721  0.0515 -0.0406
  260POPC   C4B 3613   5.144  10.331   6.670  0.0728  0.2926  0.0793
  261POPC   NC3 3614   6.059   3.348   5.176  0.1038 -0.0466  0.0097
  261POPC   PO4 3615   6.461   3.564   5.128  0.1526 -0.0166 -0.0107
  261POPC   GL1 3616   6.651   3.717   5.417 -0.0943  0.3239 -0.2375
  261POPC   GL2 3617   6.470   3.963   5.627  0.0186 -0.0465  0.0283
  261POPC   C1A 3618   6.847   3.569   5.789  0.0025 -0.2634  0.0703
  261POPC   D2A 3619   6.757   3.797   6.196 -0.1368  0.0398 -0.0560
  261POPC   C3A 3620   6.973   3.767   6.499  0.2344  0.0299  0.2485
  261POPC   C4A 3621   7.022   3.425   6.814 -0.1236  0.2239  0.0519
  261POPC   C1B 3622   6.571   4.252   5.850 -0.2364 -0.0759  0.1019
  261POPC   C2B 3623   6.696   4.347   6.272 -0.0845  0.0732 -0.1914
  261POPC   C3B 3624   6.839   4.305   6.695 -0.1334 -0.0879  0.4354
  261POPC   C4B 3625   6.997   4.019   6.997  0.0807 -0.0649  0.1762
  262POPC   NC3 3626   7.371   4.281   4.954 -0.1164 -0.0692 -0.1554
  262POPC   PO4 3627   7.564   3.904   4.779 -0.1114  0.1217 -0.3214
  262POPC   GL1 3628   7.588   3.852   5.178  0.2165 -0.3424  0.1731
  262POPC   GL2 3629   7.601   4.064   5.404  0.0293 -0.3856  0.0951
  262POPC   C1A 3630   7.792   3.466   5.454  0.0375  0.0834 -0.0434
  262POPC   D2A 3631   7.712   3.087   5.540  0.0160  0.2660  0.0916
  262POPC   C3A 3632   8.004   2.890   5.354 -0.3375  0.0182 -0.2176
  262POPC   C4A 3633   8.426   2.829   5.219 -0.0020 -0.2061  0.3771
  262POPC   C1B 3634   7.630   3.782   5.767  0.0197 -0.0843  0.0145
  262POPC   C2B 3635   7.668   3.486   6.009  0.1332 -0.1134  0.1529
  262POPC   C3B 3636   7.734   3.087   6.238 -0.4718  0.3364  0.0756
  262POPC   C4B 3637   7.886   2.868   5.931  0.0585 -0.0461 -0.3465
  263POPC   NC3 3638   7.413   4.920   5.194 -0.0442 -0.1224 -0.0077
  263POPC   PO4 3639   7.107   4.528   5.244  0.0437 -0.2387  0.1146
  263POPC   GL1 3640   7.006   4.391   5.670 -0.0042  0.1273 -0.0683
  263POPC   GL2 3641   6.843   4.645   5.839 -0.1343 -0.3332 -0.0658
  263POPC   C1A 3642   7.182   4.168   5.992 -0.0171 -0.0295 -0.0410
  263POPC   D2A 3643   7.436   3.799   6.251 -0.1171  0.1518  0.1398
  263POPC   C3A 3644   7.436   3.396   6.448  0.4229 -0.3070 -0.1675
  263POPC   C4A 3645   7.645   3.085   6.745  0.0567  0.2186  0.1418
  263POPC   C1B 3646   6.625   4.832   6.211  0.1045  0.0537  0.0616
  263POPC   C2B 3647   6.629   4.776   6.674 -0.2896 -0.0174 -0.0670
  263POPC   C3B 3648   6.518   4.824   7.115 -0.2738  0.3600 -0.1097
  263POPC   C4B 3649   6.385   5.131   7.589 -0.0267  0.1889  0.1033
  264POPC   NC3 3650   3.892   3.889   4.652 -0.0666 -0.1665 -0.0891
  264POPC   PO4 3651   3.459   3.597   4.858 -0.3113 -0.2289 -0.2814
  264POPC   GL1 3652   3.503   3.725   5.292  0.1995  0.0300  0.0640
  264POPC   GL2 3653   3.740   3.964   5.365  0.1306 -0.0712  0.3218
  264POPC   C1A 3654   3.855   3.498   5.532 -0.1383 -0.1655  0.0336
  264POPC   D2A 3655   3.875   3.047   5.532  0.0083  0.2742  0.2151
  264POPC   C3A 3656   3.898   2.797   5.896 -0.3038 -0.0221 -0.2733
  264POPC   C4A 3657   3.995   2.365   6.043  0.2839  0.1871  0.0298
  264POPC   C1B 3658   3.953   4.191   5.669  0.1310  0.2802 -0.0698
  264POPC   C2B 3659   4.021   4.243   6.122 -0.1156  0.1204  0.2470
  264POPC   C3B 3660   4.356   4.257   6.409  0.0130 -0.0584  0.0077
  264POPC   C4B 3661   4.724   4.300   6.549  0.0677  0.0642  0.0344
  265POPC   NC3 3662   5.149   3.332   4.677 -0.1260  0.2569 -0.3380
  265POPC   PO4 3663   4.801   3.525   4.833 -0.1661  0.3658  0.0998
  265POPC   GL1 3664   4.755   3.440   5.271 -0.1372 -0.0230 -0.1058
  265POPC   GL2 3665   5.027   3.358   5.334  0.2684 -0.1131  0.2360
  265POPC   C1A 3666   4.739   3.587   5.770 -0.4716 -0.1129  0.1156
  265POPC   D2A 3667   4.498   3.399   6.162  0.0235  0.3822 -0.0177
  265POPC   C3A 3668   4.119   3.223   6.253 -0.1109 -0.0431  0.0350
  265POPC   C4A 3669   3.794   3.019   6.413 -0.1803 -0.0140 -0.0457
  265POPC   C1B 3670   4.832   3.150   5.781  0.2305 -0.3668 -0.1981
  265POPC   C2B 3671   4.810   2.950   6.276  0.0985 -0.2108  0.0113
  265POPC   C3B 3672   4.718   2.882   6.719  0.0035  0.1422 -0.1152
  265POPC   C4B 3673   4.369   2.707   7.004  0.1531  0.0006 -0.1755
  266POPC   NC3 3674   0.262   4.631   4.813  0.3673  0.0881 -0.0566
  266POPC   PO4 3675   0.068   4.330   4.667  0.2357  0.2002 -0.0424
  266POPC   GL1 3676   0.056   4.294   5.158 -0.0267  0.0561  0.2690
  266POPC   GL2 3677  -0.115   4.061   5.271  0.4787 -0.3963  0.4072
  266POPC   C1A 3678   0.063   4.378   5.656  0.3257  0.2471 -0.0931
  266POPC   D2A 3679  -0.009   4.127   5.989 -0.1090 -0.0482  0.0118
  266POPC   C3A 3680   0.171   4.081   6.405  0.0389 -0.1445  0.0391
  266POPC   C4A 3681   0.239   4.398   6.591  0.2892  0.1211  0.0960
  266POPC   C1B 3682  -0.477   4.400   5.396 -0.1047  0.1303 -0.1749
  266POPC   C2B 3683  -0.466   4.401   5.820  0.1744  0.1760  0.1796
  266POPC   C3B 3684  -0.733   4.519   6.154 -0.1204 -0.1253  0.2191
  266POPC   C4B 3685  -0.962   4.539   6.581  0.1347  0.1062  0.0570
  267POPC   NC3 3686   7.268   2.576   4.276 -0.2715  0.1691 -0.1092
  267POPC   PO4 3687   7.097   2.169   4.155  0.1765  0.0158  0.0696
  267POPC   GL1 3688   7.390   2.161   4.504  0.1234 -0.4373 -0.0670
  267POPC   GL2 3689   7.633   2.371   4.552  0.3478  0.0158 -0.3128
  267POPC   C1A 3690   7.482   1.863   4.764  0.0255 -0.1480  0.2770
  267POPC   D2A 3691   7.268   1.565   5.053  0.0468 -0.3714 -0.6837
  267POPC   C3A 3692   7.286   1.114   5.141 -0.0208 -0.2749  0.2089
  267POPC   C4A 3693   7.299   0.758   4.808  0.0059 -0.0302 -0.2872
  267POPC   C1B 3694   7.516   2.376   5.000  0.0954  0.0921  0.0821
  267POPC   C2B 3695   7.760   2.421   5.437  0.2670  0.1440  0.2748
  267POPC   C3B 3696   7.919   2.375   5.867  0.2813 -0.0749 -0.1666
  267POPC   C4B 3697   7.846   2.092   6.292  0.1383  0.0356 -0.1266
  268POPC   NC3 3698   0.998   5.269   5.201 -0.1731 -0.2377  0.0633
  268POPC   PO4 3699   1.424   5.144   5.078  0.1024  0.1430 -0.0777
  268POPC   GL1 3700   1.770   4.801   5.346  0.3355 -0.3277 -0.3104
  268POPC   GL2 3701   1.569   4.743   5.778 -0.1116 -0.0964 -0.0162
  268POPC   C1A 3702   2.100   4.826   5.756 -0.0063  0.0640  0.0452
  268POPC   D2A 3703   2.348   4.815   6.085 -0.0346  0.1392  0.5110
  268POPC   C3A 3704   2.024   4.699   6.477 -0.2815  0.0679 -0.0790
  268POPC   C4A 3705   2.043   4.613   6.942  0.2350  0.1467  0.0210
  268POPC   C1B 3706   1.423   4.935   6.056 -0.0222  0.1545  0.1308
  268POPC   C2B 3707   1.412   4.859   6.442  0.0247  0.1804 -0.0505
  268POPC   C3B 3708   1.055   4.983   6.649  0.2263  0.2216  0.4495
  268POPC   C4B 3709   0.587   4.800   6.615  0.1507  0.2944 -0.1103
  269POPC   NC3 3710   3.560   5.467   4.477  0.1472 -0.4139 -0.0155
  269POPC   PO4 3711   3.459   5.216   4.872 -0.0053  0.0630 -0.2351
  269POPC   GL1 3712   3.651   5.338   5.235 -0.3696  0.0575  0.1422
  269POPC   GL2 3713   3.340   5.540   5.458  0.2795 -0.0888  0.0425
  269POPC   C1A 3714   3.621   5.149   5.527  0.1100 -0.2213  0.0045
  269POPC   D2A 3715   3.833   4.793   5.848 -0.0721 -0.0989 -0.1879
  269POPC   C3A 3716   3.537   4.369   5.791  0.2125  0.3538  0.3978
  269POPC   C4A 3717   3.340   4.065   6.139  0.3471  0.0148  0.1721
  269POPC   C1B 3718   3.141   5.345   5.738 -0.0461 -0.0556  0.0291
  269POPC   C2B 3719   3.104   5.267   6.226  0.1555 -0.2650  0.0132
  269POPC   C3B 3720   3.004   4.873   6.373  0.2463 -0.0285  0.0864
  269POPC   C4B 3721   2.916   4.423   6.218 -0.2649  0.1098 -0.3201
  270POPC   NC3 3722   9.705   7.670   4.778 -0.0016  0.2876 -0.1643
  270POPC   PO4 3723   9.385   7.790   4.483  0.0610 -0.3721 -0.1120
  270POPC   GL1 3724   9.333   8.109   4.882 -0.0346 -0.1286  0.0711
  270POPC   GL2 3725   9.441   8.076   5.246 -0.0541  0.0116  0.1792
  270POPC   C1A 3726   9.185   8.584   4.932 -0.2955  0.1776  0.1080
  270POPC   D2A 3727   9.407   8.973   4.764  0.0364  0.0334  0.1941
  270POPC   C3A 3728   9.602   9.256   5.036  0.0865  0.0987 -0.0935
  270POPC   C4A 3729   9.556   9.287   5.390  0.0279  0.0175 -0.0330
  270POPC   C1B 3730   9.868   8.287   5.444  0.2380 -0.0935  0.1276
  270POPC   C2B 3731  10.089   8.184   5.848 -0.0029  0.1282 -0.1360
  270POPC   C3B 3732  10.247   8.009   6.179  0.0586  0.0304 -0.0644
  270POPC   C4B 3733  10.143   8.068   6.652 -0.1202  0.1980  0.0910
  271POPC   NC3 3734   4.780   2.316   4.404  0.0809 -0.0573  0.2973
  271POPC   PO4 3735   5.043   1.973   4.648  0.0593  0.1117  0.1031
  271POPC   GL1 3736   4.879   1.884   5.131 -0.1671  0.0862 -0.2912
  271POPC   GL2 3737   4.753   2.205   5.275 -0.2924  0.0698 -0.0160
  271POPC   C1A 3738   4.649   1.826   5.600 -0.1179  0.0094  0.0632
  271POPC   D2A 3739   4.360   2.057   5.951 -0.1056  0.0094  0.0054
  271POPC   C3A 3740   4.337   2.306   6.380 -0.0774  0.3267  0.1612
  271POPC   C4A 3741   4.492   2.286   6.712 -0.1844  0.0064 -0.1768
  271POPC   C1B 3742   4.967   2.220   5.668  0.0084 -0.1782 -0.0204
  271POPC   C2B 3743   5.328   2.199   5.875 -0.0843 -0.0072  0.0308
  271POPC   C3B 3744   5.673   1.971   6.031  0.2180 -0.1507  0.0295
  271POPC   C4B 3745   5.680   1.704   6.400 -0.2905  0.3227  0.1430
  272POPC   NC3 3746   1.465   6.926   4.871  0.1184  0.0060  0.0529
  272POPC   PO4 3747   1.199   6.549   4.935 -0.2482 -0.1324  0.1150
  272POPC   GL1 3748   1.221   6.468   5.364  0.4309 -0.2252 -0.2491
  272POPC   GL2 3749   0.957   6.223   5.417  0.0123 -0.1876  0.3290
  272POPC   C1A 3750   1.051   6.647   5.774  0.2463  0.0176  0.2493
  272POPC   D2A 3751   0.711   6.644   6.051  0.0649 -0.2621  0.0703
  272POPC   C3A 3752   0.685   6.697   6.402 -0.0162 -0.1673 -0.0069
  272POPC   C4A 3753   0.397   6.773   6.743  0.0021 -0.0032 -0.3688
  272POPC   C1B 3754   0.941   6.059   5.890  0.0868  0.0298 -0.0009
  272POPC   C2B 3755   0.891   6.275   6.306 -0.0803  0.1337  0.2114
  272POPC   C3B 3756   1.057   6.100   6.669  0.0217 -0.0808 -0.1938
  272POPC   C4B 3757   0.886   5.938   6.999  0.1317 -0.4032 -0.1785
  273POPC   NC3 3758   9.530   6.838   4.466 -0.1054  0.0074 -0.1956
  273POPC   PO4 3759   9.726   7.179   4.688  0.1237  0.1699 -0.0110
  273POPC   GL1 3760   9.652   7.313   5.146  0.0632  0.1427  0.0901
  273POPC   GL2 3761   9.480   7.581   5.230  0.0323  0.1620  0.0361
  273POPC   C1A 3762   9.658   7.308   5.629 -0.1369 -0.2030 -0.0421
  273POPC   D2A 3763   9.836   7.181   6.092  0.0761 -0.2008 -0.2010
  273POPC   C3A 3764  10.236   6.908   6.102  0.2344 -0.2315 -0.0426
  273POPC   C4A 3765  10.298   6.537   6.192  0.0128 -0.0235  0.0270
  273POPC   C1B 3766   9.494   7.811   5.642 -0.2912  0.3797 -0.2803
  273POPC   C2B 3767   9.595   8.174   5.860  0.0663 -0.1962 -0.0408
  273POPC   C3B 3768   9.688   8.101   6.223  0.0107 -0.1383 -0.4262
  273POPC   C4B 3769   9.325   8.163   6.542  0.2302 -0.1834  0.1006
  274POPC   NC3 3770   8.912   0.210   2.713  0.3571  0.0407  0.1562
  274POPC   PO4 3771   8.836   0.163   3.179 -0.3806  0.1053 -0.1254
  274POPC   GL1 3772   8.413   0.352   3.449  0.2578  0.1322  0.0901
  274POPC   GL2 3773   8.103   0.150   3.400 -0.1507 -0.1838 -0.0158
  274POPC   C1A 3774   8.312   0.418   3.890 -0.0557 -0.0310  0.1542
  274POPC   D2A 3775   8.245   0.219   4.305 -0.3035 -0.1531  0.1643
  274POPC   C3A 3776   8.169   0.279   4.678  0.3454 -0.2937  0.1370
  274POPC   C4A 3777   7.932   0.088   4.999  0.1600  0.0456 -0.1054
  274POPC   C1B 3778   7.949   0.043   3.915 -0.1607 -0.0224  0.2944
  274POPC   C2B 3779   7.668  -0.113   4.201  0.2927 -0.1550  0.3372
  274POPC   C3B 3780   7.701  -0.218   4.676 -0.4450 -0.1344  0.0531
  274POPC   C4B 3781   7.667  -0.607   4.802 -0.1892 -0.0128  0.1694
  275POPC   NC3 3782   4.585   9.664   5.174  0.1723  0.1521  0.5129
  275POPC   PO4 3783   4.846   9.376   5.325 -0.0001 -0.0837 -0.1385
  275POPC   GL1 3784   4.816   9.519   5.761  0.0628 -0.1890 -0.1706
  275POPC   GL2 3785   4.658   9.724   5.690  0.1057  0.3077 -0.1603
  275POPC   C1A 3786   4.763   9.453   6.191 -0.2801  0.0729  0.0761
  275POPC   D2A 3787   5.001   9.496   6.531  0.1899 -0.1556 -0.0257
  275POPC   C3A 3788   5.422   9.702   6.665 -0.0885 -0.0240  0.2274
  275POPC   C4A 3789   5.628  10.027   6.643  0.1333  0.1980 -0.0024
  275POPC   C1B 3790   4.913  10.018   5.902  0.2096  0.2344  0.1547
  275POPC   C2B 3791   4.674  10.306   6.325 -0.0259 -0.3247  0.0567
  275POPC   C3B 3792   4.712  10.661   6.622 -0.0034 -0.0165 -0.0784
  275POPC   C4B 3793   4.881  10.859   6.990  0.0580 -0.3340  0.0556
  276POPC   NC3 3794   1.565   7.838   4.821  0.3310  0.0052 -0.0127
  276POPC   PO4 3795   2.001   7.996   4.919 -0.1035 -0.1490 -0.0866
  276POPC   GL1 3796   1.961   7.913   5.366  0.1369  0.2356 -0.2490
  276POPC   GL2 3797   2.292   7.952   5.306  0.2488 -0.1251  0.1293
  276POPC   C1A 3798   1.832   7.707   5.735 -0.0095  0.1197  0.1832
  276POPC   D2A 3799   1.964   7.850   6.134 -0.0453 -0.0914  0.0821
  276POPC   C3A 3800   1.750   7.825   6.468  0.1079  0.2734  0.1568
  276POPC   C4A 3801   1.969   7.826   6.753  0.0851 -0.3528  0.0077
  276POPC   C1B 3802   2.214   8.102   5.774  0.0525 -0.1471 -0.0270
  276POPC   C2B 3803   2.408   8.216   6.175 -0.1320  0.0784 -0.1151
  276POPC   C3B 3804   2.789   8.270   6.477 -0.0589  0.1255 -0.3125
  276POPC   C4B 3805   2.948   8.598   6.771 -0.2955 -0.1465  0.1642
  277POPC   NC3 3806   9.589   5.809   4.655  0.3309 -0.0143 -0.1949
  277POPC   PO4 3807   9.983   5.786   4.685 -0.0664 -0.4600  0.0627
  277POPC   GL1 3808   9.962   5.755   5.056  0.0952  0.2045  0.0956
  277POPC   GL2 3809   9.823   5.412   5.317 -0.0128 -0.2469 -0.1422
  277POPC   C1A 3810   9.794   5.850   5.465 -0.0771 -0.1657  0.0976
  277POPC   D2A 3811   9.457   5.776   5.622 -0.1213 -0.0709  0.0541
  277POPC   C3A 3812   9.273   5.838   5.985 -0.4339 -0.0679 -0.2162
  277POPC   C4A 3813   9.023   6.050   6.337  0.0637 -0.0981 -0.0138
  277POPC   C1B 3814   9.978   5.289   5.677  0.2182 -0.0850 -0.1628
  277POPC   C2B 3815   9.969   5.048   6.147 -0.2238 -0.0474  0.1713
  277POPC   C3B 3816   9.958   4.835   6.572  0.2209 -0.3625 -0.0892
  277POPC   C4B 3817  10.046   4.969   6.956 -0.0357  0.0040 -0.0700
  278POPC   NC3 3818   3.485   0.641   4.699  0.0219 -0.2684 -0.1333
  278POPC   PO4 3819   3.889   0.266   4.735 -0.0769 -0.4369 -0.0368
  278POPC   GL1 3820   4.087   0.145   5.125  0.2713  0.1063 -0.1925
  278POPC   GL2 3821   4.090  -0.004   5.481  0.1726 -0.3187  0.1750
  278POPC   C1A 3822   4.119   0.507   5.475 -0.0480 -0.1396 -0.0749
  278POPC   D2A 3823   4.227   0.581   5.867  0.1553  0.1529  0.0573
  278POPC   C3A 3824   4.008   0.635   6.175 -0.2578  0.1048 -0.2318
  278POPC   C4A 3825   3.985   0.961   6.507  0.3636 -0.0797 -0.0340
  278POPC   C1B 3826   4.240   0.041   5.919  0.0119 -0.2671  0.1743
  278POPC   C2B 3827   4.218  -0.217   6.276  0.2048 -0.2709 -0.2124
  278POPC   C3B 3828   4.396  -0.290   6.760 -0.0250  0.0611  0.0663
  278POPC   C4B 3829   4.113  -0.602   7.059  0.2427 -0.2267  0.1735
  279POPC   NC3 3830   5.073   1.521   4.736  0.2807  0.0137 -0.0431
  279POPC   PO4 3831   4.617   1.513   4.604  0.0321 -0.0962  0.0598
  279POPC   GL1 3832   4.638   1.414   5.040  0.2077 -0.0850 -0.0419
  279POPC   GL2 3833   4.918   1.124   5.130  0.0600  0.2684  0.0024
  279POPC   C1A 3834   4.455   1.373   5.403  0.0885 -0.0499  0.0243
  279POPC   D2A 3835   4.308   1.070   5.679  0.1732  0.0665  0.0542
  279POPC   C3A 3836   4.219   1.090   6.121  0.0409 -0.0610 -0.0513
  279POPC   C4A 3837   4.449   1.237   6.517 -0.0369 -0.1042  0.0028
  279POPC   C1B 3838   5.176   0.766   5.338 -0.2333  0.0519 -0.0052
  279POPC   C2B 3839   5.212   0.461   5.593 -0.1271 -0.1174  0.0246
  279POPC   C3B 3840   5.243   0.057   5.762  0.2042  0.0983 -0.2326
  279POPC   C4B 3841   5.163   0.014   6.204  0.0829  0.1814 -0.1273
  280POPC   NC3 3842   9.247  10.318   3.392 -0.0313  0.1514  0.1703
  280POPC   PO4 3843   9.302  10.769   3.154 -0.2672  0.3487 -0.0277
  280POPC   GL1 3844   9.225  10.822   3.536  0.0073 -0.0060 -0.0996
  280POPC   GL2 3845   8.956  10.967   3.510  0.1985 -0.3981 -0.1784
  280POPC   C1A 3846   9.251  10.995   3.884  0.0555  0.1508  0.0820
  280POPC   D2A 3847   9.196  11.166   4.279 -0.1097  0.1766 -0.2326
  280POPC   C3A 3848   9.065  10.845   4.547  0.1197  0.1324 -0.0451
  280POPC   C4A 3849   8.740  10.470   4.475  0.1107  0.1587  0.3014
  280POPC   C1B 3850   8.751  11.248   3.831 -0.0385 -0.2468 -0.1639
  280POPC   C2B 3851   8.807  11.624   4.099 -0.1004 -0.4698 -0.0138
  280POPC   C3B 3852   8.664  11.836   4.374  0.1364 -0.0037 -0.0990
  280POPC   C4B 3853   8.871  11.841   4.778  0.1398  0.0172 -0.1277
  281POPC   NC3 3854   6.003  10.264   4.091 -0.1076  0.1573  0.2459
  281POPC   PO4 3855   5.790   9.888   4.196  0.1368 -0.2531  0.1205
  281POPC   GL1 3856   6.110   9.792   4.504  0.4709  0.2474  0.1654
  281POPC   GL2 3857   6.061   9.460   4.751 -0.2990  0.0487  0.1379
  281POPC   C1A 3858   6.481   9.881   4.741  0.0038 -0.0363 -0.1514
  281POPC   D2A 3859   6.700  10.130   5.107  0.4900  0.2844  0.3922
  281POPC   C3A 3860   6.978  10.443   5.214 -0.1786  0.0099 -0.1476
  281POPC   C4A 3861   7.314  10.804   5.179  0.0467 -0.1344 -0.0347
  281POPC   C1B 3862   6.348   9.615   5.150  0.2982  0.0593 -0.3029
  281POPC   C2B 3863   6.494   9.824   5.486  0.0066 -0.0606 -0.1602
  281POPC   C3B 3864   6.575   9.642   5.897  0.5102  0.1698  0.0083
  281POPC   C4B 3865   6.925   9.271   5.953  0.4548  0.0466  0.0308
  282POPC   NC3 3866   6.753   6.689   4.875 -0.3256 -0.1337  0.1487
  282POPC   PO4 3867   6.985   6.416   5.089  0.4332 -0.1195 -0.0323
  282POPC   GL1 3868   6.940   6.643   5.526  0.0489  0.1063  0.3410
  282POPC   GL2 3869   6.700   6.909   5.554 -0.0863  0.1525 -0.2866
  282POPC   C1A 3870   6.813   6.508   5.883  0.2041 -0.0828 -0.2019
  282POPC   D2A 3871   6.853   6.633   6.227  0.0376 -0.0849 -0.0061
  282POPC   C3A 3872   6.651   6.957   6.350  0.1431 -0.0808 -0.0104
  282POPC   C4A 3873   6.233   7.015   6.593 -0.3161  0.0037 -0.1308
  282POPC   C1B 3874   6.915   7.104   5.922  0.1224  0.3602  0.1790
  282POPC   C2B 3875   7.064   7.177   6.340 -0.0831  0.1389 -0.0344
  282POPC   C3B 3876   7.149   7.591   6.526 -0.2593  0.1239  0.3033
  282POPC   C4B 3877   6.810   7.819   6.757  0.3566  0.2732 -0.2653
  283POPC   NC3 3878   7.490   5.396   5.354 -0.1501  0.0741  0.0783
  283POPC   PO4 3879   7.794   5.651   5.256 -0.0850  0.2064  0.0774
  283POPC   GL1 3880   8.029   5.983   5.533 -0.1103 -0.3424 -0.1060
  283POPC   GL2 3881   8.210   5.818   5.691 -0.0147  0.2293  0.1482
  283POPC   C1A 3882   7.778   6.191   5.834  0.0103 -0.4470 -0.0997
  283POPC   D2A 3883   7.610   6.651   5.947  0.0868 -0.1193  0.1594
  283POPC   C3A 3884   7.331   6.747   6.220  0.2232  0.1625 -0.3213
  283POPC   C4A 3885   7.146   6.748   6.662  0.1539  0.1891  0.1218
  283POPC   C1B 3886   7.992   5.824   6.055 -0.1732  0.3699 -0.4040
  283POPC   C2B 3887   8.004   5.710   6.416  0.0624  0.0918 -0.3279
  283POPC   C3B 3888   7.928   5.504   6.906 -0.0005 -0.1343  0.1221
  283POPC   C4B 3889   7.969   5.194   7.231 -0.1357 -0.1063  0.0608
  284POPC   NC3 3890   0.632   9.572   3.855 -0.2397  0.1591 -0.4201
  284POPC   PO4 3891   0.514   9.424   4.293  0.1754  0.0085  0.2127
  284POPC   GL1 3892   0.530   9.708   4.621  0.0755 -0.2258  0.0744
  284POPC   GL2 3893   0.450   9.476   4.822 -0.1877  0.2359  0.2112
  284POPC   C1A 3894   0.642   9.859   4.985  0.0925 -0.1044 -0.3981
  284POPC   D2A 3895   0.432   9.790   5.366 -0.1222  0.0037 -0.1321
  284POPC   C3A 3896   0.121   9.527   5.457 -0.2030 -0.1215 -0.0579
  284POPC   C4A 3897  -0.041   9.132   5.429  0.3587 -0.3371  0.2832
  284POPC   C1B 3898   0.075   9.620   4.930 -0.3269  0.0634  0.0513
  284POPC   C2B 3899  -0.015   9.944   5.252  0.1905  0.3582 -0.3068
  284POPC   C3B 3900   0.048  10.013   5.709  0.0110 -0.1970 -0.1963
  284POPC   C4B 3901   0.167  10.474   5.796  0.1629 -0.0769 -0.2195
  285POPC   NC3 3902   6.712   7.310   4.402  0.0005  0.1480 -0.0328
  285POPC   PO4 3903   6.664   7.243   4.882 -0.0703  0.0701 -0.4081
  285POPC   GL1 3904   6.537   7.381   5.312  0.2216 -0.1914 -0.2184
  285POPC   GL2 3905   6.822   7.517   5.505  0.1907  0.1379 -0.1656
  285POPC   C1A 3906   6.375   7.412   5.695 -0.2047 -0.0132 -0.3071
  285POPC   D2A 3907   6.275   7.402   6.203 -0.1642 -0.2154  0.0109
  285POPC   C3A 3908   6.247   7.739   6.351 -0.0727  0.2404 -0.0318
  285POPC   C4A 3909   6.351   8.083   6.540 -0.1383 -0.2094 -0.0318
  285POPC   C1B 3910   6.626   7.856   5.716  0.2361  0.3352 -0.1771
  285POPC   C2B 3911   6.432   8.185   5.838  0.1557 -0.0068  0.2093
  285POPC   C3B 3912   6.434   8.445   6.206 -0.0764 -0.3001  0.1214
  285POPC   C4B 3913   6.572   8.757   6.583  0.2408  0.0140  0.0999
  286POPC   NC3 3914   3.833   8.764   4.572 -0.2058  0.1603  0.0561
  286POPC   PO4 3915   3.861   9.005   4.986 -0.1319  0.2756 -0.1722
  286POPC   GL1 3916   3.945   9.077   5.396 -0.0999 -0.0408 -0.0914
  286POPC   GL2 3917   4.131   9.328   5.493  0.2575  0.0719  0.2148
  286POPC   C1A 3918   3.751   9.227   5.799 -0.3787  0.2001 -0.0561
  286POPC   D2A 3919   3.629   9.351   6.224 -0.2919 -0.1336  0.0858
  286POPC   C3A 3920   3.786   9.072   6.527 -0.0261  0.1301 -0.1569
  286POPC   C4A 3921   4.048   9.055   6.924 -0.0151  0.0289  0.0737
  286POPC   C1B 3922   4.379   9.196   5.793  0.1118  0.0333 -0.1537
  286POPC   C2B 3923   4.761   9.044   5.960  0.1845 -0.0774  0.0942
  286POPC   C3B 3924   4.928   8.963   6.421  0.0192  0.1264 -0.1012
  286POPC   C4B 3925   4.875   9.128   6.900  0.2572 -0.1234  0.0878
  287POPC   NC3 3926   4.675   3.973   5.064 -0.0530 -0.0326  0.2511
  287POPC   PO4 3927   4.248   4.167   4.835 -0.1049  0.2063  0.0926
  287POPC   GL1 3928   4.248   3.964   5.295  0.2282  0.0362  0.1184
  287POPC   GL2 3929   4.479   4.049   5.517  0.3219 -0.0068  0.3432
  287POPC   C1A 3930   4.313   3.549   5.368 -0.1983  0.2983 -0.2192
  287POPC   D2A 3931   4.321   3.269   5.710 -0.1785  0.1254  0.1560
  287POPC   C3A 3932   4.357   2.926   5.927  0.1971  0.0479  0.1542
  287POPC   C4A 3933   4.319   2.790   6.348  0.0070  0.0495 -0.2043
  287POPC   C1B 3934   4.296   3.817   5.859 -0.3739  0.2576 -0.1160
  287POPC   C2B 3935   4.029   3.638   6.013  0.0169  0.1993  0.2559
  287POPC   C3B 3936   3.720   3.231   5.963 -0.1220  0.0725  0.2053
  287POPC   C4B 3937   3.321   2.909   6.268 -0.3770 -0.2333  0.1031
  288POPC   NC3 3938   4.204   2.805   5.225  0.0437 -0.0446  0.0134
  288POPC   PO4 3939   4.453   3.047   4.999 -0.1500 -0.2821  0.0208
  288POPC   GL1 3940   4.694   2.860   5.395 -0.2713  0.0542 -0.0242
  288POPC   GL2 3941   4.513   2.549   5.569  0.0158  0.2976  0.0719
  288POPC   C1A 3942   5.091   2.769   5.697 -0.3066  0.0287 -0.3580
  288POPC   D2A 3943   5.242   2.745   6.124 -0.1465  0.2080 -0.0876
  288POPC   C3A 3944   5.632   2.947   6.103  0.2130 -0.4157 -0.0909
  288POPC   C4A 3945   5.805   3.074   6.433  0.3441  0.2561  0.0750
  288POPC   C1B 3946   4.594   2.504   6.001 -0.0277  0.2951 -0.0380
  288POPC   C2B 3947   4.951   2.339   6.205 -0.0327 -0.2587  0.2836
  288POPC   C3B 3948   5.065   2.162   6.583 -0.0313  0.0760 -0.1584
  288POPC   C4B 3949   5.468   2.201   6.746  0.3121 -0.1331 -0.0810
  289POPC   NC3 3950   0.455   3.240   4.859 -0.0701  0.1207 -0.4864
  289POPC   PO4 3951   0.823   2.963   4.920 -0.0431  0.0282  0.0411
  289POPC   GL1 3952   0.571   2.870   5.146  0.2458  0.0921  0.2998
  289POPC   GL2 3953   0.301   2.741   4.950 -0.2460  0.2270  0.0326
  289POPC   C1A 3954   0.630   2.663   5.558  0.0093 -0.1570 -0.3340
  289POPC   D2A 3955   0.596   2.701   6.023 -0.2444 -0.0738 -0.2040
  289POPC   C3A 3956   0.405   2.336   6.337  0.2629  0.1176  0.2819
  289POPC   C4A 3957   0.492   2.044   6.655  0.3293  0.1176  0.0694
  289POPC   C1B 3958   0.241   2.445   5.369  0.2089  0.1028  0.0650
  289POPC   C2B 3959   0.272   2.291   5.759 -0.1273 -0.0939  0.0311
  289POPC   C3B 3960   0.272   1.901   6.072  0.0111 -0.2343 -0.2132
  289POPC   C4B 3961   0.353   1.570   6.406 -0.0070 -0.1521 -0.1822
  290POPC   NC3 3962   4.412   5.196   4.363  0.0080 -0.2047  0.1823
  290POPC   PO4 3963   4.360   4.852   4.656 -0.0427 -0.2742 -0.1629
  290POPC   GL1 3964   4.304   4.914   5.101  0.0298 -0.1384  0.3110
  290POPC   GL2 3965   4.428   4.586   5.168  0.0408 -0.0035  0.0688
  290POPC   C1A 3966   4.247   5.082   5.550  0.1974 -0.0175  0.3472
  290POPC   D2A 3967   4.237   5.074   5.939  0.1146  0.1938  0.3499
  290POPC   C3A 3968   4.231   4.706   6.196 -0.2151  0.0863  0.0075
  290POPC   C4A 3969   4.020   4.601   6.470 -0.1881 -0.0041 -0.2093
  290POPC   C1B 3970   4.494   4.517   5.625  0.3221  0.0200 -0.2393
  290POPC   C2B 3971   4.709   4.488   6.097  0.0321  0.1121 -0.0192
  290POPC   C3B 3972   5.041   4.712   6.341  0.0469  0.1054  0.1239
  290POPC   C4B 3973   5.288   4.897   6.756 -0.3259  0.2710  0.1701
  291POPC   NC3 3974   6.403   9.980   4.130 -0.2128 -0.1205  0.4123
  291POPC   PO4 3975   6.666  10.152   3.769 -0.4989 -0.1713  0.1082
  291POPC   GL1 3976   7.133  10.299   4.019  0.0246 -0.1936  0.0780
  291POPC   GL2 3977   7.211  10.528   3.847  0.1568  0.0953  0.1694
  291POPC   C1A 3978   7.211  10.351   4.423  0.3503  0.0136 -0.0672
  291POPC   D2A 3979   7.267  10.573   4.752 -0.0179 -0.1159 -0.1780
  291POPC   C3A 3980   7.450  10.346   5.120 -0.1307  0.2567  0.0878
  291POPC   C4A 3981   7.679  10.410   5.522  0.0227  0.1717  0.1821
  291POPC   C1B 3982   7.202  10.960   4.113  0.3284  0.0801  0.1345
  291POPC   C2B 3983   6.963  10.962   4.552  0.1536  0.1939  0.0822
  291POPC   C3B 3984   6.840  11.057   4.991 -0.0556  0.0191  0.0549
  291POPC   C4B 3985   6.689  11.522   5.109 -0.0322 -0.2368  0.1063
  292POPC   NC3 3986   9.058   6.600   4.985  0.0077  0.0979  0.0608
  292POPC   PO4 3987   8.742   6.879   5.255 -0.1520 -0.1669 -0.1598
  292POPC   GL1 3988   8.691   7.118   5.609 -0.3342 -0.0621 -0.0917
  292POPC   GL2 3989   8.650   7.479   5.746 -0.0039  0.0364 -0.1113
  292POPC   C1A 3990   8.758   7.017   5.925  0.0371 -0.0315  0.1720
  292POPC   D2A 3991   8.643   6.939   6.318 -0.0960 -0.2279 -0.3781
  292POPC   C3A 3992   8.452   7.278   6.589  0.2348 -0.2066  0.0643
  292POPC   C4A 3993   8.593   7.585   6.740  0.0867  0.1678  0.1606
  292POPC   C1B 3994   8.677   7.477   6.183 -0.0134 -0.1996  0.0562
  292POPC   C2B 3995   9.050   7.552   6.559  0.1565 -0.0894 -0.1446
  292POPC   C3B 3996   9.030   7.763   6.925  0.1503 -0.2322 -0.1115
  292POPC   C4B 3997   8.648   7.886   7.219 -0.1696 -0.1123  0.1879
  293POPC   NC3 3998   1.395   1.814   4.417 -0.3178  0.0286 -0.0512
  293POPC   PO4 3999   1.829   1.640   4.527  0.0394  0.1949  0.0192
  293POPC   GL1 4000   1.557   1.676   4.895 -0.3054  0.1674 -0.0264
  293POPC   GL2 4001   1.719   1.565   5.143 -0.0218  0.0355  0.1119
  293POPC   C1A 4002   1.284   1.470   5.284  0.2024  0.1434  0.0216
  293POPC   D2A 4003   1.318   1.174   5.538  0.2372  0.0066  0.2187
  293POPC   C3A 4004   1.188   1.030   5.910 -0.0375  0.2036 -0.0058
  293POPC   C4A 4005   1.039   0.670   6.214 -0.1069  0.1963 -0.0971
  293POPC   C1B 4006   1.912   1.517   5.529  0.1704  0.1029  0.2176
  293POPC   C2B 4007   1.827   1.239   5.816 -0.0644 -0.2108  0.3976
  293POPC   C3B 4008   1.617   1.251   6.209  0.0289  0.0467 -0.1459
  293POPC   C4B 4009   1.267   1.145   6.429 -0.0033 -0.2686 -0.0476
  294POPC   NC3 4010   8.426   5.650   5.289  0.2156  0.0113 -0.3031
  294POPC   PO4 4011   8.504   6.115   5.394  0.2755 -0.3808  0.0360
  294POPC   GL1 4012   8.688   6.086   5.804 -0.1847 -0.0356  0.1796
  294POPC   GL2 4013   8.963   6.232   5.823 -0.3385  0.1112  0.1426
  294POPC   C1A 4014   8.647   6.444   6.122  0.2664  0.1543  0.2175
  294POPC   D2A 4015   8.652   6.481   6.584 -0.0281 -0.2844  0.0399
  294POPC   C3A 4016   8.321   6.772   6.752 -0.2369  0.0168  0.0897
  294POPC   C4A 4017   8.021   7.118   6.439 -0.2108 -0.0827 -0.0841
  294POPC   C1B 4018   9.163   6.547   6.128 -0.0013  0.0431 -0.1584
  294POPC   C2B 4019   9.458   6.808   6.411  0.2651 -0.1416  0.0231
  294POPC   C3B 4020   9.839   7.039   6.574  0.0532  0.0235  0.1112
  294POPC   C4B 4021  10.273   6.959   6.624 -0.1700 -0.1556 -0.0653
  295POPC   NC3 4022   2.997  10.382   4.739 -0.1010 -0.0767 -0.0443
  295POPC   PO4 4023   2.856  10.033   4.851  0.2186  0.2628  0.1499
  295POPC   GL1 4024   2.609  10.034   5.312 -0.1738 -0.0760  0.1044
  295POPC   GL2 4025   2.774   9.857   5.557 -0.2600  0.0398 -0.1719
  295POPC   C1A 4026   2.301  10.197   5.559  0.3193  0.3367  0.0794
  295POPC   D2A 4027   2.181  10.407   5.898  0.1500  0.3297 -0.1131
  295POPC   C3A 4028   1.910  10.322   6.330 -0.1073 -0.0782 -0.1510
  295POPC   C4A 4029   2.054  10.477   6.840  0.1101  0.2000  0.2484
  295POPC   C1B 4030   2.729   9.983   5.943 -0.0148  0.0149 -0.2023
  295POPC   C2B 4031   2.462  10.108   6.322  0.1170 -0.0285 -0.1876
  295POPC   C3B 4032   2.513  10.306   6.750  0.1970 -0.0728  0.2091
  295POPC   C4B 4033   2.871  10.353   6.920 -0.0852 -0.1365  0.5332
  296POPC   NC3 4034   6.575   2.425   4.178  0.3498  0.0205  0.0758
  296POPC   PO4 4035   6.346   2.558   4.588 -0.1055 -0.0577 -0.2591
  296POPC   GL1 4036   6.580   2.514   4.964  0.0486 -0.2560  0.2154
  296POPC   GL2 4037   6.296   2.474   5.245  0.0128  0.0088  0.2871
  296POPC   C1A 4038   6.821   2.408   5.260 -0.0787 -0.1914 -0.2310
  296POPC   D2A 4039   7.195   2.302   5.519 -0.1415  0.1390  0.1755
  296POPC   C3A 4040   7.464   2.033   5.736  0.0757 -0.0577 -0.1689
  296POPC   C4A 4041   7.540   1.929   5.358  0.5386 -0.1234  0.1741
  296POPC   C1B 4042   6.487   2.845   5.376  0.2442 -0.1378 -0.0105
  296POPC   C2B 4043   6.522   3.192   5.712 -0.1248  0.0632  0.2140
  296POPC   C3B 4044   6.395   3.520   5.966 -0.2973  0.2079  0.1715
  296POPC   C4B 4045   6.084   3.595   6.304 -0.1315 -0.0547 -0.0219
  297POPC   NC3 4046   5.724   8.987   4.573  0.0042 -0.1190  0.1000
  297POPC   PO4 4047   5.834   8.719   4.709  0.1256  0.1275  0.1237
  297POPC   GL1 4048   5.878   8.582   5.190  0.0958  0.3902 -0.0197
  297POPC   GL2 4049   5.857   8.196   5.280 -0.2395  0.1325  0.3624
  297POPC   C1A 4050   5.992   8.540   5.726 -0.2558  0.2595 -0.1291
  297POPC   D2A 4051   5.971   8.717   6.139 -0.0316 -0.2978  0.0267
  297POPC   C3A 4052   6.048   9.018   6.588 -0.3701 -0.1611  0.2213
  297POPC   C4A 4053   6.081   8.911   6.950  0.3495 -0.1759  0.3538
  297POPC   C1B 4054   5.588   8.301   5.662  0.1169  0.1539  0.1173
  297POPC   C2B 4055   5.516   8.426   6.071  0.0275  0.2396  0.3003
  297POPC   C3B 4056   5.578   8.563   6.476 -0.2611  0.2386 -0.2209
  297POPC   C4B 4057   5.289   8.745   6.816 -0.2163 -0.1720  0.1276
  298POPC   NC3 4058   2.357   6.635   4.997 -0.1753 -0.0598  0.1759
  298POPC   PO4 4059   2.777   6.783   5.080 -0.0773 -0.1143  0.0441
  298POPC   GL1 4060   2.952   6.913   5.459 -0.2250 -0.0338 -0.1074
  298POPC   GL2 4061   2.886   7.209   5.361  0.2238  0.3882 -0.2932
  298POPC   C1A 4062   3.188   7.031   5.793  0.0437 -0.1961  0.2132
  298POPC   D2A 4063   3.065   7.032   6.199  0.3347 -0.0769  0.2308
  298POPC   C3A 4064   2.871   7.359   6.360 -0.0500 -0.1757 -0.0961
  298POPC   C4A 4065   2.807   7.733   6.464 -0.2376  0.1770  0.0727
  298POPC   C1B 4066   2.727   7.307   5.823  0.1055  0.0134  0.0292
  298POPC   C2B 4067   2.457   7.185   6.185  0.1354  0.1059 -0.0328
  298POPC   C3B 4068   2.516   7.049   6.586  0.4597 -0.0083  0.1617
  298POPC   C4B 4069   2.483   6.959   6.932  0.1643  0.1917  0.1120
  299POPC   NC3 4070   5.376   7.155   5.012  0.0154  0.1901  0.1118
  299POPC   PO4 4071   5.159   6.732   5.051 -0.2727 -0.1149 -0.2367
  299POPC   GL1 4072   4.865   6.945   5.390 -0.1521 -0.3128  0.2979
  299POPC   GL2 4073   4.959   6.665   5.557  0.0443  0.1794 -0.1011
  299POPC   C1A 4074   4.711   7.015   5.802 -0.0044 -0.2012 -0.2774
  299POPC   D2A 4075   4.811   6.972   6.223 -0.0761  0.0130 -0.4051
  299POPC   C3A 4076   4.995   6.666   6.559 -0.2843  0.2852 -0.1481
  299POPC   C4A 4077   5.050   6.430   6.940 -0.0142 -0.0238  0.1264
  299POPC   C1B 4078   5.223   7.028   5.756 -0.1513 -0.2270 -0.0571
  299POPC   C2B 4079   5.467   7.413   5.733  0.1809  0.2797  0.0425
  299POPC   C3B 4080   5.834   7.437   5.968  0.2244  0.1519  0.2277
  299POPC   C4B 4081   5.828   7.280   6.458 -0.3108  0.1827  0.1072
  300POPC   NC3 4082   6.003   5.381   4.996 -0.1509 -0.1161  0.2602
  300POPC   PO4 4083   5.633   5.638   5.066 -0.0179 -0.3891 -0.1692
  300POPC   GL1 4084   5.760   5.693   5.445  0.0608  0.1089 -0.1185
  300POPC   GL2 4085   6.022   5.709   5.462 -0.0679 -0.1199 -0.0291
  300POPC   C1A 4086   5.810   5.454   5.831  0.0213  0.1758 -0.1594
  300POPC   D2A 4087   5.680   5.454   6.227  0.1366  0.4415 -0.1749
  300POPC   C3A 4088   5.984   5.172   6.476  0.1767  0.0204 -0.0812
  300POPC   C4A 4089   6.091   4.972   6.895 -0.1269 -0.1601 -0.2277
  300POPC   C1B 4090   6.236   5.733   5.898 -0.0188 -0.0139  0.1236
  300POPC   C2B 4091   6.089   5.691   6.346 -0.0987 -0.1988 -0.3303
  300POPC   C3B 4092   6.153   5.555   6.811  0.1686  0.0826  0.0490
  300POPC   C4B 4093   6.396   5.329   7.117  0.3539  0.1869 -0.1317
  301POPC   NC3 4094   3.243   2.609   4.833 -0.0090 -0.1256 -0.0340
  301POPC   PO4 4095   3.418   2.275   4.900  0.1056 -0.3303  0.0529
  301POPC   GL1 4096   3.614   2.344   5.260  0.2091 -0.0550 -0.3503
  301POPC   GL2 4097   3.681   2.638   5.193 -0.3038 -0.1912 -0.1937
  301POPC   C1A 4098   3.374   2.212   5.608 -0.1643 -0.0928  0.0888
  301POPC   D2A 4099   3.240   1.942   5.902 -0.3565 -0.0045  0.3712
  301POPC   C3A 4100   3.112   2.080   6.215 -0.1401 -0.0891 -0.0919
  301POPC   C4A 4101   3.093   2.491   6.377 -0.1905 -0.4398  0.1282
  301POPC   C1B 4102   3.455   2.768   5.660  0.1757 -0.4724  0.0248
  301POPC   C2B 4103   3.482   2.490   6.040 -0.2730  0.1984  0.2940
  301POPC   C3B 4104   3.624   2.193   6.343 -0.1321  0.0784  0.1880
  301POPC   C4B 4105   3.971   2.094   6.675  0.1850  0.3511 -0.2485
  302POPC   NC3 4106  10.067   9.140   3.759 -0.0700 -0.1279 -0.2326
  302POPC   PO4 4107   9.838   9.166   4.134  0.2267 -0.2758 -0.0311
  302POPC   GL1 4108   9.849   9.235   4.532  0.1365 -0.0390 -0.2143
  302POPC   GL2 4109   9.975   9.055   4.696 -0.1513  0.1187  0.0840
  302POPC   C1A 4110   9.895   9.537   4.826  0.1655 -0.0123 -0.0045
  302POPC   D2A 4111  10.060   9.830   4.989  0.0169  0.3383 -0.4346
  302POPC   C3A 4112  10.198  10.205   4.862 -0.1714 -0.2520 -0.0295
  302POPC   C4A 4113  10.539  10.602   4.789  0.0671  0.2740  0.3360
  302POPC   C1B 4114  10.124   9.106   5.058 -0.0374 -0.0221 -0.0321
  302POPC   C2B 4115  10.060   9.477   5.431 -0.0203  0.4668  0.0626
  302POPC   C3B 4116  10.016   9.907   5.497  0.2070 -0.3125 -0.0742
  302POPC   C4B 4117   9.971  10.200   5.288  0.0054 -0.1147 -0.3828
  303POPC   NC3 4118   6.843   7.671   4.779 -0.0780 -0.2754 -0.0524
  303POPC   PO4 4119   7.066   7.478   5.056 -0.1715  0.2430  0.3808
  303POPC   GL1 4120   7.298   7.767   5.233 -0.0669  0.1492  0.1256
  303POPC   GL2 4121   7.195   8.025   5.000 -0.0484  0.0730 -0.1939
  303POPC   C1A 4122   7.243   7.856   5.586  0.0706  0.0347  0.2739
  303POPC   D2A 4123   7.206   8.035   5.941 -0.0334 -0.2239 -0.2997
  303POPC   C3A 4124   7.317   7.995   6.311 -0.0189  0.3949  0.2180
  303POPC   C4A 4125   7.391   8.078   6.664 -0.0096 -0.0199  0.0604
  303POPC   C1B 4126   6.910   8.105   5.357  0.0347 -0.0009  0.1328
  303POPC   C2B 4127   6.843   8.413   5.771 -0.1119 -0.2869 -0.1000
  303POPC   C3B 4128   6.927   8.449   6.316  0.1275  0.2591  0.0077
  303POPC   C4B 4129   6.899   8.342   6.846 -0.2371 -0.0906  0.2610
  304POPC   NC3 4130   1.737  10.349   4.448  0.2454  0.1089  0.0781
  304POPC   PO4 4131   1.306  10.455   4.477  0.2071  0.2033  0.0664
  304POPC   GL1 4132   1.289  10.623   4.898  0.1073  0.3229 -0.2168
  304POPC   GL2 4133   1.542  10.461   5.094 -0.0864 -0.2526  0.0441
  304POPC   C1A 4134   1.037  10.795   5.179 -0.1108 -0.1904 -0.0542
  304POPC   D2A 4135   0.751  11.113   5.261 -0.0465  0.1018 -0.3827
  304POPC   C3A 4136   0.715  11.171   5.754  0.2444 -0.2194  0.1966
  304POPC   C4A 4137   0.240  11.196   5.918  0.1515 -0.0837 -0.1058
  304POPC   C1B 4138   1.803  10.438   5.570 -0.0671  0.3150 -0.0049
  304POPC   C2B 4139   1.571  10.379   5.979 -0.0075 -0.0937 -0.1717
  304POPC   C3B 4140   1.433  10.085   6.277  0.1197 -0.1784  0.2294
  304POPC   C4B 4141   1.140  10.170   6.562 -0.2104  0.2898  0.1778
  305POPC   NC3 4142   7.851   0.059   2.980  0.0027  0.2769 -0.1636
  305POPC   PO4 4143   7.873   0.496   3.207 -0.0176  0.1222 -0.1163
  305POPC   GL1 4144   7.936   0.561   3.669  0.3395 -0.2072  0.6051
  305POPC   GL2 4145   8.110   0.867   3.845 -0.2805  0.2008  0.0949
  305POPC   C1A 4146   7.664   0.418   4.052 -0.2825 -0.1175  0.4055
  305POPC   D2A 4147   7.663   0.279   4.456 -0.1081  0.0348  0.3738
  305POPC   C3A 4148   7.715   0.554   4.885 -0.0889  0.3122  0.0042
  305POPC   C4A 4149   7.636   0.787   5.169  0.2134  0.1510  0.2971
  305POPC   C1B 4150   8.073   1.055   4.338  0.0392  0.2289  0.0709
  305POPC   C2B 4151   8.184   0.834   4.628  0.1215  0.1593  0.2345
  305POPC   C3B 4152   8.308   0.784   5.008 -0.0220 -0.0661 -0.1614
  305POPC   C4B 4153   8.119   1.021   5.428 -0.2623 -0.0174 -0.1447
  306POPC   NC3 4154   7.938   4.220   4.986  0.0508  0.1161  0.0220
  306POPC   PO4 4155   7.775   4.536   5.204 -0.0658 -0.0716  0.0503
  306POPC   GL1 4156   7.787   4.501   5.698 -0.0255 -0.2238  0.3987
  306POPC   GL2 4157   7.849   4.894   5.686 -0.2979  0.1273  0.1918
  306POPC   C1A 4158   7.676   4.297   6.054  0.1615  0.1152  0.0398
  306POPC   D2A 4159   7.820   4.053   6.362 -0.3440  0.2326 -0.1347
  306POPC   C3A 4160   7.698   3.881   6.806 -0.1500  0.2528 -0.0774
  306POPC   C4A 4161   7.531   3.488   7.018 -0.0929  0.0232 -0.0799
  306POPC   C1B 4162   7.769   4.859   6.157 -0.2960 -0.0235  0.2392
  306POPC   C2B 4163   7.933   5.117   6.533 -0.0028  0.1165 -0.0328
  306POPC   C3B 4164   8.328   5.082   6.836 -0.0492  0.2367 -0.0006
  306POPC   C4B 4165   8.764   4.903   6.806 -0.2977 -0.1002 -0.0553
  307POPC   NC3 4166   7.997   3.714   4.872 -0.2869 -0.0349 -0.2204
  307POPC   PO4 4167   8.325   3.909   5.076  0.2088 -0.2614  0.0954
  307POPC   GL1 4168   8.485   3.689   5.450  0.3997 -0.1315  0.0224
  307POPC   GL2 4169   8.179   3.773   5.607 -0.2108 -0.0988  0.3534
  307POPC   C1A 4170   8.535   3.646   5.961 -0.0630  0.0693 -0.0287
  307POPC   D2A 4171   8.862   3.486   6.210  0.2904 -0.0803  0.1329
  307POPC   C3A 4172   8.912   3.078   6.295 -0.2522  0.0820  0.1088
  307POPC   C4A 4173   8.780   2.899   6.648 -0.0049  0.2855 -0.1908
  307POPC   C1B 4174   8.078   3.752   6.032  0.1480 -0.0857 -0.4239
  307POPC   C2B 4175   8.022   3.529   6.468 -0.0183 -0.0177 -0.1934
  307POPC   C3B 4176   7.974   3.428   6.850  0.0123  0.1923 -0.0462
  307POPC   C4B 4177   8.191   3.460   7.218  0.0325  0.0106  0.0317
  308POPC   NC3 4178   5.063   9.756   4.907  0.1441 -0.2124  0.1187
  308POPC   PO4 4179   5.523   9.577   4.900  0.2195 -0.1927  0.0742
  308POPC   GL1 4180   5.783   9.674   5.261 -0.1969  0.0645  0.3686
  308POPC   GL2 4181   5.941   9.931   4.970  0.1615  0.0268 -0.4141
  308POPC   C1A 4182   5.762   9.643   5.600 -0.2693 -0.0710  0.0495
  308POPC   D2A 4183   6.109   9.756   5.841  0.3712  0.2799 -0.0524
  308POPC   C3A 4184   5.953   9.918   6.274 -0.0994  0.0234  0.2308
  308POPC   C4A 4185   6.189  10.361   6.473 -0.2396 -0.3964  0.0001
  308POPC   C1B 4186   6.119  10.084   5.271  0.2393 -0.0441  0.0286
  308POPC   C2B 4187   6.525  10.304   5.506 -0.0301  0.0404  0.0172
  308POPC   C3B 4188   6.786  10.424   5.773 -0.3303 -0.1339  0.2420
  308POPC   C4B 4189   6.908  10.359   6.129 -0.5629  0.1142  0.0502
  309POPC   NC3 4190   0.828   5.714   4.790  0.1765 -0.2055 -0.0804
  309POPC   PO4 4191   0.550   5.416   4.959  0.3120  0.2245  0.0367
  309POPC   GL1 4192   0.605   5.220   5.523  0.2183  0.0845 -0.0095
  309POPC   GL2 4193   0.971   5.205   5.692 -0.3352  0.0774  0.3124
  309POPC   C1A 4194   0.473   4.923   5.873 -0.1361 -0.1236 -0.0811
  309POPC   D2A 4195   0.268   4.550   6.123  0.5559 -0.1797 -0.2377
  309POPC   C3A 4196   0.567   4.378   6.252 -0.0838  0.6153 -0.1194
  309POPC   C4A 4197   0.848   4.365   6.503 -0.1999  0.1523 -0.0944
  309POPC   C1B 4198   1.101   5.265   6.104  0.2618  0.0670 -0.1343
  309POPC   C2B 4199   1.185   5.486   6.417 -0.2464  0.1456 -0.0351
  309POPC   C3B 4200   0.884   5.452   6.751  0.1201 -0.1568 -0.2938
  309POPC   C4B 4201   0.494   5.647   6.953 -0.0662 -0.1380 -0.2082
  310POPC   NC3 4202   7.544   6.294   5.160  0.0508  0.2111 -0.1686
  310POPC   PO4 4203   7.382   6.694   4.928 -0.0882  0.1028 -0.1085
  310POPC   GL1 4204   7.471   6.745   5.369 -0.0141  0.0419 -0.0422
  310POPC   GL2 4205   7.702   7.053   5.463  0.0189 -0.1136  0.3683
  310POPC   C1A 4206   7.382   7.022   5.775  0.1204 -0.2652  0.1866
  310POPC   D2A 4207   7.707   7.163   6.046  0.1652 -0.1728  0.2544
  310POPC   C3A 4208   7.540   7.183   6.507  0.1814 -0.1697  0.0116
  310POPC   C4A 4209   7.268   7.283   6.882  0.3160  0.1404  0.0831
  310POPC   C1B 4210   7.581   7.422   5.617 -0.0370  0.0434 -0.0531
  310POPC   C2B 4211   7.277   7.474   5.986  0.0620 -0.0798  0.0795
  310POPC   C3B 4212   6.918   7.613   6.072  0.1865  0.2036  0.1045
  310POPC   C4B 4213   6.734   8.017   6.222  0.0962  0.1087 -0.0640
  311POPC   NC3 4214  10.110   6.182   4.328 -0.1807 -0.4243  0.2455
  311POPC   PO4 4215   9.950   6.318   4.771  0.2948  0.3325 -0.0113
  311POPC   GL1 4216   9.992   6.245   5.183  0.2795  0.0511 -0.1904
  311POPC   GL2 4217   9.793   6.421   5.370 -0.1670  0.1756  0.0460
  311POPC   C1A 4218  10.204   6.099   5.598  0.2490 -0.0682 -0.0698
  311POPC   D2A 4219  10.183   6.546   5.687 -0.0135 -0.0444 -0.2453
  311POPC   C3A 4220  10.160   6.820   5.485  0.0382 -0.1271 -0.0485
  311POPC   C4A 4221  10.128   7.274   5.448 -0.1011 -0.0932 -0.1640
  311POPC   C1B 4222   9.640   6.285   5.722 -0.2367 -0.1985 -0.1037
  311POPC   C2B 4223   9.769   5.943   5.992 -0.1973 -0.0683  0.3184
  311POPC   C3B 4224   9.668   5.528   6.076  0.0218  0.0295  0.1535
  311POPC   C4B 4225   9.495   5.267   5.792 -0.0159  0.1034  0.1077
  312POPC   NC3 4226  10.469   8.545   4.204 -0.0968  0.0260  0.0453
  312POPC   PO4 4227  10.274   8.274   4.419 -0.3483  0.1984 -0.1541
  312POPC   GL1 4228  10.216   8.604   4.681 -0.0464  0.0764  0.0929
  312POPC   GL2 4229  10.334   8.395   4.919 -0.2523  0.2950 -0.0958
  312POPC   C1A 4230   9.874   8.643   5.046 -0.1312 -0.1503  0.2317
  312POPC   D2A 4231   9.512   8.741   5.331 -0.0326 -0.0148 -0.0652
  312POPC   C3A 4232   9.189   8.997   5.316 -0.3380  0.3612  0.1877
  312POPC   C4A 4233   8.807   9.233   5.311  0.1612  0.0886  0.0764
  312POPC   C1B 4234  10.317   8.681   5.317 -0.0804 -0.1248 -0.0030
  312POPC   C2B 4235   9.914   8.941   5.486  0.1802  0.2225  0.1394
  312POPC   C3B 4236   9.934   9.127   5.845 -0.1814 -0.2199  0.1027
  312POPC   C4B 4237   9.643   9.513   5.882  0.2376 -0.0214  0.5065
  313POPC   NC3 4238   0.660   2.330   4.269 -0.0372 -0.1671 -0.1517
  313POPC   PO4 4239   0.228   2.300   4.312 -0.2400  0.1076  0.2728
  313POPC   GL1 4240   0.280   2.115   4.768  0.3006 -0.0333  0.2170
  313POPC   GL2 4241   0.045   2.290   4.915  0.0674 -0.1186  0.0225
  313POPC   C1A 4242   0.526   2.025   5.136 -0.1749 -0.0362  0.2410
  313POPC   D2A 4243   0.758   2.242   5.357  0.0590  0.1053  0.1879
  313POPC   C3A 4244   0.820   2.175   5.807 -0.0767  0.1598  0.1265
  313POPC   C4A 4245   0.897   1.981   6.152  0.2509 -0.0209  0.6226
  313POPC   C1B 4246   0.025   2.030   5.336  0.0162  0.5357  0.0041
  313POPC   C2B 4247   0.382   1.827   5.551 -0.0490 -0.1910 -0.2974
  313POPC   C3B 4248   0.645   1.643   5.835  0.0642  0.2480 -0.0543
  313POPC   C4B 4249   0.912   1.466   6.130 -0.0072 -0.2729  0.0668
  314POPC   NC3 4250   1.872   5.373   5.131 -0.2845 -0.3072  0.0295
  314POPC   PO4 4251   1.981   5.020   4.865  0.2312 -0.0327 -0.0857
  314POPC   GL1 4252   2.289   4.747   5.153 -0.4062 -0.0908  0.0866
  314POPC   GL2 4253   2.506   4.464   5.113  0.0069  0.2377 -0.0280
  314POPC   C1A 4254   2.595   4.728   5.567 -0.0407  0.2033 -0.1967
  314POPC   D2A 4255   2.762   5.043   5.860 -0.2897  0.2476  0.5341
  314POPC   C3A 4256   2.590   5.169   6.278 -0.1566  0.2113  0.0297
  314POPC   C4A 4257   2.646   5.662   6.483  0.1422  0.2579  0.2462
  314POPC   C1B 4258   2.649   4.258   5.516  0.2396  0.2676 -0.0755
  314POPC   C2B 4259   2.969   4.482   5.755  0.0694  0.1130  0.0906
  314POPC   C3B 4260   3.338   4.848   5.872 -0.1783  0.0746 -0.0020
  314POPC   C4B 4261   3.531   4.656   6.238 -0.1691 -0.0752  0.0371
  315POPC   NC3 4262   1.106   7.649   4.948 -0.0062 -0.0545 -0.0973
  315POPC   PO4 4263   1.156   8.081   5.046  0.1224 -0.0564  0.0476
  315POPC   GL1 4264   0.877   8.070   5.373 -0.2466  0.1140  0.0185
  315POPC   GL2 4265   1.037   7.845   5.541  0.0459 -0.0101 -0.2651
  315POPC   C1A 4266   0.608   8.372   5.533 -0.0666 -0.1379 -0.1614
  315POPC   D2A 4267   0.605   8.563   5.929  0.1660 -0.0804 -0.1380
  315POPC   C3A 4268   0.909   8.644   6.243 -0.2399 -0.0421  0.1400
  315POPC   C4A 4269   0.848   8.621   6.594 -0.2417 -0.1248 -0.1056
  315POPC   C1B 4270   1.298   7.717   5.742  0.0008  0.4157  0.1562
  315POPC   C2B 4271   1.442   7.606   6.070  0.0798 -0.2029  0.1189
  315POPC   C3B 4272   1.519   7.363   6.269 -0.3097  0.2328  0.1019
  315POPC   C4B 4273   1.341   7.227   6.640  0.0700 -0.2057 -0.2648
  316POPC   NC3 4274   8.209   4.757   5.147 -0.2980  0.0287 -0.0282
  316POPC   PO4 4275   7.924   5.173   5.260  0.2161  0.6275 -0.2378
  316POPC   GL1 4276   8.059   5.360   5.589 -0.1352 -0.1190 -0.0233
  316POPC   GL2 4277   7.806   5.535   5.735  0.0595  0.2792  0.2671
  316POPC   C1A 4278   8.126   5.204   5.983 -0.1092  0.0481  0.2339
  316POPC   D2A 4279   8.471   5.115   6.313 -0.1154  0.0032 -0.0334
  316POPC   C3A 4280   8.842   4.962   6.317  0.2377 -0.2003 -0.0296
  316POPC   C4A 4281   9.134   4.681   6.246  0.0554 -0.2431 -0.1146
  316POPC   C1B 4282   7.467   5.854   6.011  0.1216 -0.0370 -0.1342
  316POPC   C2B 4283   7.075   5.970   6.100 -0.1549 -0.4443  0.1663
  316POPC   C3B 4284   6.654   6.126   6.111 -0.1728  0.0300  0.1106
  316POPC   C4B 4285   6.151   6.159   6.174  0.0636 -0.1430  0.3437
  317POPC   NC3 4286   1.538   6.266   4.720  0.0998  0.0076 -0.1663
  317POPC   PO4 4287   1.236   6.030   4.924 -0.1294  0.2054  0.1121
  317POPC   GL1 4288   1.435   6.028   5.248  0.1757 -0.1932 -0.1589
  317POPC   GL2 4289   1.509   5.727   5.285  0.0512 -0.1019 -0.0081
  317POPC   C1A 4290   1.419   6.131   5.716  0.1727 -0.1026  0.1447
  317POPC   D2A 4291   1.395   6.517   6.099  0.2948 -0.1059  0.2790
  317POPC   C3A 4292   1.467   6.358   6.533 -0.1339  0.0696  0.1085
  317POPC   C4A 4293   1.617   6.588   6.863  0.1606  0.2240 -0.0658
  317POPC   C1B 4294   1.198   5.633   5.770  0.1947 -0.1632  0.1332
  317POPC   C2B 4295   1.521   5.537   6.028  0.0794 -0.4290  0.0997
  317POPC   C3B 4296   1.669   5.579   6.460  0.2322 -0.1064  0.0964
  317POPC   C4B 4297   1.474   5.770   6.754 -0.1875  0.0727 -0.0976
  318POPC   NC3 4298   5.863   2.885   4.403  0.1157 -0.3284 -0.1894
  318POPC   PO4 4299   6.202   3.143   4.588 -0.2451  0.2355  0.0712
  318POPC   GL1 4300   6.042   2.837   4.856 -0.4081  0.1755  0.2739
  318POPC   GL2 4301   5.947   2.854   5.239  0.0965 -0.0222  0.4627
  318POPC   C1A 4302   5.836   2.373   5.011  0.2428  0.2835 -0.2317
  318POPC   D2A 4303   5.962   2.072   5.353  0.0547  0.0843 -0.1010
  318POPC   C3A 4304   6.104   2.193   5.771 -0.3330  0.0235 -0.5202
  318POPC   C4A 4305   6.129   1.878   6.151 -0.0864 -0.3592 -0.0986
  318POPC   C1B 4306   5.992   2.844   5.670  0.1366  0.0546 -0.1282
  318POPC   C2B 4307   6.158   3.068   5.987  0.0863 -0.1604 -0.1589
  318POPC   C3B 4308   6.320   3.146   6.444 -0.0792 -0.0170  0.0165
  318POPC   C4B 4309   6.595   3.432   6.548  0.0530 -0.1150  0.1571
  319POPC   NC3 4310   9.289   4.300   4.466  0.1571 -0.2135  0.0883
  319POPC   PO4 4311   9.457   4.544   4.762  0.0068  0.0719  0.3868
  319POPC   GL1 4312   9.530   4.448   5.124  0.0926 -0.1556  0.2023
  319POPC   GL2 4313   9.203   4.550   5.233 -0.0611  0.0524  0.1916
  319POPC   C1A 4314   9.484   4.345   5.582  0.2395 -0.2123  0.0516
  319POPC   D2A 4315   9.227   4.319   5.955 -0.0728  0.2686  0.2705
  319POPC   C3A 4316   9.331   4.029   6.327  0.1301 -0.1917  0.2102
  319POPC   C4A 4317   9.427   3.963   6.735  0.1360  0.0859  0.1014
  319POPC   C1B 4318   9.082   4.805   5.606 -0.1194 -0.1611 -0.0109
  319POPC   C2B 4319   8.704   4.914   5.853  0.1033 -0.2156  0.2113
  319POPC   C3B 4320   8.336   4.739   5.855  0.0270 -0.0171 -0.1481
  319POPC   C4B 4321   8.168   4.586   6.238 -0.0641 -0.0119  0.1584
  320POPC   NC3 4322   6.206   3.976   5.244 -0.2788  0.2162  0.0155
  320POPC   PO4 4323   5.944   4.320   5.113 -0.0472 -0.1763  0.3349
  320POPC   GL1 4324   5.714   4.256   5.576  0.0077  0.0176 -0.3180
  320POPC   GL2 4325   5.417   4.165   5.653  0.1591 -0.3659  0.2825
  320POPC   C1A 4326   5.702   4.375   6.010  0.2114 -0.1367 -0.0698
  320POPC   D2A 4327   5.925   4.306   6.417  0.1100 -0.2444  0.3186
  320POPC   C3A 4328   5.781   4.273   6.780 -0.0711  0.1397  0.1494
  320POPC   C4A 4329   5.523   4.089   7.011  0.2924 -0.2249  0.1263
  320POPC   C1B 4330   5.226   4.235   6.049  0.0814  0.1837 -0.1041
  320POPC   C2B 4331   5.184   3.977   6.467  0.1701  0.3497  0.1710
  320POPC   C3B 4332   5.279   3.726   6.704  0.3748  0.0815  0.2574
  320POPC   C4B 4333   5.604   3.331   6.888 -0.2604 -0.1294  0.0957
  321POPC   NC3 4334   7.815   7.860   3.739  0.0756 -0.2016 -0.0977
  321POPC   PO4 4335   8.042   8.011   4.085 -0.4029  0.2499  0.1256
  321POPC   GL1 4336   7.885   8.384   4.373  0.0841 -0.1035  0.0335
  321POPC   GL2 4337   8.140   8.430   4.600  0.2560 -0.0548  0.1987
  321POPC   C1A 4338   7.810   8.737   4.672  0.0455 -0.2418  0.0669
  321POPC   D2A 4339   7.692   8.890   5.008  0.1611  0.2189 -0.0333
  321POPC   C3A 4340   8.081   9.166   5.145 -0.1165  0.2214 -0.0147
  321POPC   C4A 4341   8.353   9.026   5.341 -0.0555 -0.2745  0.1567
  321POPC   C1B 4342   8.455   8.355   5.010 -0.2594 -0.3112 -0.0434
  321POPC   C2B 4343   8.489   8.453   5.351  0.1121 -0.0028 -0.1033
  321POPC   C3B 4344   8.264   8.692   5.667 -0.1119 -0.1717  0.2710
  321POPC   C4B 4345   8.054   8.622   6.037 -0.1290  0.0983  0.0411
  322POPC   NC3 4346   2.668   5.846   4.672 -0.2059 -0.0551 -0.3275
  322POPC   PO4 4347   2.672   6.258   4.952 -0.1885  0.1825 -0.1571
  322POPC   GL1 4348   2.466   6.235   5.305 -0.1924 -0.2927  0.2927
  322POPC   GL2 4349   2.550   6.585   5.452 -0.2702  0.1684  0.2817
  322POPC   C1A 4350   2.285   6.146   5.769  0.1654 -0.0880 -0.2480
  322POPC   D2A 4351   2.110   5.930   6.162  0.1392 -0.0205 -0.5360
  322POPC   C3A 4352   2.168   5.575   6.285  0.1982  0.1828 -0.0206
  322POPC   C4A 4353   2.260   5.360   6.736 -0.0317  0.0060  0.2043
  322POPC   C1B 4354   2.714   6.330   5.752  0.1657 -0.0987 -0.2078
  322POPC   C2B 4355   2.607   6.148   6.175 -0.1852 -0.1654 -0.1636
  322POPC   C3B 4356   2.413   6.113   6.561  0.0197  0.0784 -0.1733
  322POPC   C4B 4357   2.182   5.853   6.638  0.0156  0.0573 -0.0083
  323POPC   NC3 4358   4.983   8.957   5.182 -0.1797 -0.2155 -0.2605
  323POPC   PO4 4359   4.774   8.852   4.823  0.1990 -0.2366  0.2605
  323POPC   GL1 4360   4.634   8.597   5.155  0.2002  0.3539  0.3702
  323POPC   GL2 4361   4.525   8.293   5.252 -0.3539 -0.1261 -0.0373
  323POPC   C1A 4362   4.531   8.740   5.592 -0.0819  0.0643  0.1441
  323POPC   D2A 4363   4.471   8.637   6.058  0.0984 -0.0803 -0.1025
  323POPC   C3A 4364   4.385   9.032   6.320  0.1862  0.0143  0.0410
  323POPC   C4A 4365   4.184   9.394   6.224  0.1183  0.0347  0.1307
  323POPC   C1B 4366   4.635   8.174   5.612  0.1683  0.0077 -0.1044
  323POPC   C2B 4367   4.649   8.103   6.135  0.1242 -0.1187 -0.2487
  323POPC   C3B 4368   4.570   7.772   6.511  0.1570 -0.2470 -0.0229
  323POPC   C4B 4369   4.681   7.443   6.795  0.1159 -0.0013  0.2123
  324POPC   NC3 4370   5.448   2.016   4.352 -0.2623 -0.0115  0.0132
  324POPC   PO4 4371   5.262   2.397   4.579  0.0432  0.0576 -0.0204
  324POPC   GL1 4372   5.320   2.294   5.021 -0.0738 -0.0922  0.0741
  324POPC   GL2 4373   5.174   2.542   5.265 -0.0351  0.0934  0.4516
  324POPC   C1A 4374   5.317   1.988   5.355  0.2042 -0.1110  0.0911
  324POPC   D2A 4375   5.304   1.701   5.790 -0.0623  0.2720 -0.0570
  324POPC   C3A 4376   4.973   1.410   5.947 -0.1042  0.1954  0.0418
  324POPC   C4A 4377   4.772   1.099   6.134 -0.6211  0.1030  0.0293
  324POPC   C1B 4378   5.562   2.593   5.556 -0.2283  0.0659  0.3466
  324POPC   C2B 4379   5.719   2.538   5.948  0.0648  0.0222 -0.2537
  324POPC   C3B 4380   5.710   2.558   6.366 -0.2304  0.0071 -0.1810
  324POPC   C4B 4381   5.654   2.828   6.794 -0.0687  0.0455  0.0893
  325POPC   NC3 4382   3.167   3.143   4.764  0.0103  0.2599 -0.0776
  325POPC   PO4 4383   2.844   2.994   5.070  0.1404  0.1606 -0.2263
  325POPC   GL1 4384   2.597   2.821   5.362 -0.3936  0.2670  0.2026
  325POPC   GL2 4385   2.336   2.911   5.363  0.0170  0.0645 -0.0664
  325POPC   C1A 4386   2.471   2.938   5.869  0.1429  0.3483  0.2943
  325POPC   D2A 4387   2.387   3.044   6.340  0.1263  0.1469  0.2082
  325POPC   C3A 4388   2.182   3.366   6.606 -0.3645 -0.1251  0.1670
  325POPC   C4A 4389   2.051   3.674   6.732  0.3924  0.0750  0.0315
  325POPC   C1B 4390   1.973   2.946   5.607 -0.0428  0.1408 -0.3027
  325POPC   C2B 4391   2.000   2.941   5.982  0.0783 -0.0589  0.1256
  325POPC   C3B 4392   2.155   2.588   6.210  0.1183 -0.3260  0.4215
  325POPC   C4B 4393   2.634   2.524   6.201 -0.1084 -0.0184 -0.1707
  326POPC   NC3 4394   1.117   1.529   4.084  0.1908  0.2297 -0.0086
  326POPC   PO4 4395   0.982   1.082   4.206  0.0147 -0.2262  0.4426
  326POPC   GL1 4396   1.058   0.870   4.610 -0.2621  0.1250 -0.0444
  326POPC   GL2 4397   1.316   1.073   4.806 -0.0799  0.2007  0.4408
  326POPC   C1A 4398   0.875   0.481   4.718 -0.3408 -0.0051 -0.1997
  326POPC   D2A 4399   0.748   0.047   4.685 -0.0454  0.0580 -0.0556
  326POPC   C3A 4400   0.747  -0.076   5.103 -0.0659  0.2284 -0.2452
  326POPC   C4A 4401   0.565  -0.249   5.504 -0.1349 -0.0255 -0.0290
  326POPC   C1B 4402   1.006   1.033   5.096  0.0718  0.2524 -0.2535
  326POPC   C2B 4403   0.800   1.281   5.428  0.1527  0.0073 -0.1385
  326POPC   C3B 4404   0.411   1.234   5.748 -0.0331  0.1128  0.0022
  326POPC   C4B 4405   0.148   1.434   5.962 -0.2354 -0.0835  0.0020
  327POPC   NC3 4406  10.038   0.159   3.622 -0.0892 -0.0759 -0.3199
  327POPC   PO4 4407   9.706   0.219   3.374  0.0247 -0.0026  0.2228
  327POPC   GL1 4408   9.501   0.018   3.788  0.0821 -0.0223 -0.2259
  327POPC   GL2 4409   9.724   0.100   4.086 -0.1732  0.2682 -0.2038
  327POPC   C1A 4410   9.222   0.090   4.148 -0.0326 -0.0896  0.0897
  327POPC   D2A 4411   9.400  -0.065   4.602 -0.0788  0.0178  0.2049
  327POPC   C3A 4412   9.628  -0.296   4.910  0.0560  0.1928 -0.1035
  327POPC   C4A 4413   9.605  -0.750   5.171  0.1937  0.0418 -0.1677
  327POPC   C1B 4414   9.609   0.341   4.454 -0.0909 -0.3509  0.1278
  327POPC   C2B 4415   9.439   0.448   4.899 -0.1410  0.0722 -0.1067
  327POPC   C3B 4416   9.023   0.564   5.099 -0.1888  0.1048  0.2626
  327POPC   C4B 4417   8.631   0.409   4.878  0.1701  0.2535 -0.1914
  328POPC   NC3 4418   1.808   9.286   4.676 -0.1284 -0.0252 -0.3199
  328POPC   PO4 4419   1.926   9.260   5.222 -0.0821  0.2265  0.1509
  328POPC   GL1 4420   1.805   9.228   5.618 -0.0624 -0.0693 -0.0822
  328POPC   GL2 4421   1.798   8.910   5.624 -0.3762 -0.0220 -0.0426
  328POPC   C1A 4422   1.539   9.304   5.988 -0.1047  0.3650  0.2084
  328POPC   D2A 4423   1.537   9.578   6.375  0.0406  0.1639  0.5120
  328POPC   C3A 4424   1.869   9.790   6.161  0.1011  0.1488 -0.3232
  328POPC   C4A 4425   2.092   9.755   5.797 -0.0250 -0.1931 -0.1235
  328POPC   C1B 4426   1.895   8.758   6.022 -0.0812  0.1941  0.0318
  328POPC   C2B 4427   1.957   8.347   6.165 -0.0545 -0.1215  0.2367
  328POPC   C3B 4428   2.163   8.247   6.581 -0.2461  0.0830  0.0011
  328POPC   C4B 4429   2.438   8.030   6.707 -0.3104 -0.1060 -0.1041
  329POPC   NC3 4430   6.968   1.220   3.003 -0.1413  0.2680 -0.0695
  329POPC   PO4 4431   7.505   1.305   3.090  0.1621 -0.0120  0.4877
  329POPC   GL1 4432   7.544   1.399   3.608  0.1270 -0.0424  0.0621
  329POPC   GL2 4433   7.237   1.296   3.803 -0.2489 -0.2718  0.1963
  329POPC   C1A 4434   7.549   1.596   3.977  0.0260  0.1395 -0.2645
  329POPC   D2A 4435   7.800   1.798   4.416  0.0438 -0.1373  0.1956
  329POPC   C3A 4436   8.043   1.514   4.599  0.3323 -0.0584  0.1681
  329POPC   C4A 4437   8.302   1.248   4.875 -0.0255  0.0290  0.0019
  329POPC   C1B 4438   7.562   1.086   4.030 -0.0362  0.3568 -0.0968
  329POPC   C2B 4439   7.618   0.825   4.357 -0.1398 -0.2333 -0.0275
  329POPC   C3B 4440   7.769   1.025   4.757 -0.0759  0.0869 -0.0527
  329POPC   C4B 4441   7.744   1.320   5.085 -0.2641  0.0696  0.2296
  330POPC   NC3 4442   8.733   3.378   4.352 -0.1661 -0.2107 -0.1153
  330POPC   PO4 4443   8.840   3.567   4.783 -0.1933  0.4656 -0.1380
  330POPC   GL1 4444   8.853   3.384   5.070  0.1612 -0.2783 -0.2157
  330POPC   GL2 4445   8.487   3.312   5.010  0.0702 -0.2891 -0.2778
  330POPC   C1A 4446   9.001   3.030   5.333 -0.1838 -0.0062  0.2256
  330POPC   D2A 4447   8.726   2.726   5.545  0.3845 -0.2605  0.2679
  330POPC   C3A 4448   8.404   2.582   5.822 -0.0529 -0.1058  0.0879
  330POPC   C4A 4449   8.252   2.501   6.226 -0.1374 -0.2318  0.0494
  330POPC   C1B 4450   8.314   3.271   5.432  0.1049 -0.0354  0.5362
  330POPC   C2B 4451   8.133   3.292   5.851  0.3093  0.0339  0.1326
  330POPC   C3B 4452   8.332   3.223   6.274  0.0118 -0.1104 -0.1556
  330POPC   C4B 4453   8.250   3.024   6.666 -0.0516 -0.0724 -0.1574
  331POPC   NC3 4454   6.333   8.825   3.311  0.1889  0.1864 -0.0636
  331POPC   PO4 4455   6.788   8.884   3.426  0.0248  0.2182 -0.0652
  331POPC   GL1 4456   7.165   9.108   3.730  0.0184  0.0399 -0.0131
  331POPC   GL2 4457   7.119   8.762   3.897 -0.0441 -0.3642  0.3865
  331POPC   C1A 4458   7.317   9.443   3.886  0.4132 -0.0640  0.2575
  331POPC   D2A 4459   7.373   9.818   4.137  0.0695  0.0681  0.3837
  331POPC   C3A 4460   7.344   9.710   4.492  0.0070 -0.4455  0.2600
  331POPC   C4A 4461   7.277   9.473   4.817 -0.0006  0.2426 -0.1559
  331POPC   C1B 4462   7.236   8.769   4.336 -0.4412 -0.1459  0.2610
  331POPC   C2B 4463   7.300   8.970   4.735  0.1727 -0.4745 -0.0357
  331POPC   C3B 4464   7.125   8.915   5.101  0.4278  0.2208  0.0280
  331POPC   C4B 4465   6.768   8.676   5.202  0.0953  0.1095  0.0014
  332POPC   NC3 4466   2.406   9.873   4.886 -0.2480 -0.3533 -0.3284
  332POPC   PO4 4467   2.054   9.785   4.907  0.4550  0.2322 -0.0558
  332POPC   GL1 4468   1.915   9.920   5.249 -0.0696  0.1762 -0.0711
  332POPC   GL2 4469   1.828   9.702   5.385 -0.1990 -0.3732  0.2798
  332POPC   C1A 4470   1.517  10.099   5.403 -0.0642 -0.2026  0.1814
  332POPC   D2A 4471   1.164  10.293   5.637  0.1215 -0.0594 -0.2578
  332POPC   C3A 4472   1.094  10.337   6.038 -0.2693  0.1873 -0.0504
  332POPC   C4A 4473   1.316  10.648   6.393 -0.6613  0.1580 -0.1803
  332POPC   C1B 4474   1.544   9.678   5.649 -0.1428  0.1952  0.1299
  332POPC   C2B 4475   1.298   9.868   5.833 -0.0665  0.2133 -0.0691
  332POPC   C3B 4476   1.013   9.781   6.169 -0.4126 -0.0952 -0.0331
  332POPC   C4B 4477   1.069   9.633   6.478 -0.0932  0.0723 -0.3548
  333POPC   NC3 4478   5.591  10.021   4.617  0.1397  0.1728 -0.0121
  333POPC   PO4 4479   6.021  10.375   4.664 -0.1714 -0.2868  0.0776
  333POPC   GL1 4480   5.820  10.517   4.983  0.1876  0.1426 -0.2129
  333POPC   GL2 4481   6.099  10.571   5.216 -0.1774  0.0337 -0.1325
  333POPC   C1A 4482   5.600  10.580   5.389  0.2466  0.2663 -0.0060
  333POPC   D2A 4483   5.769  10.610   5.751 -0.3790 -0.0557  0.1249
  333POPC   C3A 4484   6.110  10.254   5.786 -0.1508 -0.1411  0.1094
  333POPC   C4A 4485   6.397  10.104   6.118  0.1847  0.0393  0.0455
  333POPC   C1B 4486   6.535  10.662   5.122 -0.3074 -0.1386 -0.3107
  333POPC   C2B 4487   6.811  10.854   5.439 -0.2632 -0.0323  0.2350
  333POPC   C3B 4488   7.095  11.156   5.410  0.1236 -0.4103 -0.1275
  333POPC   C4B 4489   7.315  11.367   5.594  0.2789 -0.2242  0.3059
  334POPC   NC3 4490   2.886   2.057   4.998  0.1227  0.2510  0.1943
  334POPC   PO4 4491   2.681   1.702   4.844 -0.0167 -0.1657  0.2037
  334POPC   GL1 4492   2.612   1.733   5.305 -0.0222 -0.0416  0.1190
  334POPC   GL2 4493   2.792   1.863   5.439  0.1311  0.2815  0.2771
  334POPC   C1A 4494   2.360   1.791   5.664  0.0963  0.2173 -0.2360
  334POPC   D2A 4495   2.278   1.386   5.979  0.2626 -0.0111  0.0438
  334POPC   C3A 4496   2.260   1.118   6.405  0.0866  0.2293  0.0961
  334POPC   C4A 4497   2.192   1.051   6.839 -0.0411 -0.1103 -0.0600
  334POPC   C1B 4498   2.792   1.700   5.825 -0.0698  0.0504  0.1213
  334POPC   C2B 4499   2.680   1.568   6.154  0.0646 -0.2369  0.0177
  334POPC   C3B 4500   2.422   1.672   6.422  0.0943  0.2112  0.1473
  334POPC   C4B 4501   1.987   1.739   6.179 -0.0674  0.0736  0.3001
  335POPC   NC3 4502   2.768   8.180   4.525  0.1772 -0.2804  0.4819
  335POPC   PO4 4503   2.596   8.072   4.867 -0.2303  0.1424  0.0474
  335POPC   GL1 4504   2.756   8.253   5.352 -0.0232  0.2179  0.1127
  335POPC   GL2 4505   2.468   8.449   5.523  0.2217  0.3494  0.0952
  335POPC   C1A 4506   2.872   8.268   5.729  0.1782 -0.0372  0.0944
  335POPC   D2A 4507   2.975   8.079   6.068 -0.0583  0.0537  0.1816
  335POPC   C3A 4508   3.277   8.098   6.433 -0.3029 -0.0915  0.1902
  335POPC   C4A 4509   3.415   8.373   6.665 -0.0658  0.0233  0.0923
  335POPC   C1B 4510   2.380   8.744   5.961 -0.1042 -0.0378  0.1406
  335POPC   C2B 4511   2.660   9.085   6.121  0.1664 -0.0313  0.1961
  335POPC   C3B 4512   2.683   9.186   6.488  0.1490 -0.2070  0.1999
  335POPC   C4B 4513   2.835   9.106   6.988 -0.2696  0.1170 -0.1365
  336POPC   NC3 4514   1.240   2.700   4.954  0.1653  0.2223  0.2396
  336POPC   PO4 4515   1.343   2.313   4.634 -0.0491  0.0422 -0.1376
  336POPC   GL1 4516   1.386   2.140   4.945  0.0554 -0.0648 -0.4233
  336POPC   GL2 4517   1.226   2.200   5.211 -0.1684  0.0224 -0.0041
  336POPC   C1A 4518   1.554   1.940   5.456 -0.1551  0.2516  0.1155
  336POPC   D2A 4519   1.715   1.927   5.735 -0.0317  0.2889 -0.2822
  336POPC   C3A 4520   1.365   2.114   5.997  0.3091  0.2195  0.0443
  336POPC   C4A 4521   1.238   2.271   6.472  0.0519  0.0588  0.0366
  336POPC   C1B 4522   1.227   2.411   5.633 -0.2187  0.1995  0.1043
  336POPC   C2B 4523   1.079   2.512   6.070 -0.3042  0.1631 -0.1525
  336POPC   C3B 4524   0.893   2.533   6.346  0.0627 -0.0628 -0.0068
  336POPC   C4B 4525   1.057   2.537   6.849  0.0412  0.1702  0.0079
  337POPC   NC3 4526   3.615   7.228   5.215 -0.0523 -0.2140  0.0587
  337POPC   PO4 4527   3.585   7.682   4.984 -0.3476 -0.2826 -0.1706
  337POPC   GL1 4528   3.634   7.631   5.455 -0.0191  0.2243  0.1080
  337POPC   GL2 4529   3.317   7.458   5.529 -0.0498  0.1193 -0.1176
  337POPC   C1A 4530   3.857   7.819   5.819 -0.2829  0.3499 -0.2157
  337POPC   D2A 4531   3.759   8.009   6.116 -0.0507  0.0362  0.1416
  337POPC   C3A 4532   3.852   7.917   6.516  0.1276  0.0591 -0.3232
  337POPC   C4A 4533   3.938   8.056   6.988 -0.0592 -0.2126  0.1728
  337POPC   C1B 4534   3.594   7.363   5.877  0.1086 -0.0702  0.2089
  337POPC   C2B 4535   3.826   7.498   6.248 -0.2048  0.0781  0.4573
  337POPC   C3B 4536   4.172   7.477   6.544  0.1069  0.3913  0.0908
  337POPC   C4B 4537   4.293   7.681   6.955 -0.0931  0.3320 -0.0742
  338W        W 4538   1.187   9.509   1.466 -0.2163  0.1491 -0.0766
  339W        W 4539   6.266   4.384  10.249  0.0994 -0.1758  0.3073
  340W        W 4540   1.436   5.486   2.768  0.2646  0.1130  0.1250
  341W        W 4541   3.200   6.765  12.963  0.0168 -0.1506 -0.0917
  342W        W 4542   5.538   4.660   1.832  0.1645 -0.0231  0.3463
  343W        W 4543   8.160   8.073   9.774  0.0054 -0.0038  0.2205
  344W        W 4544   4.998   2.325   3.227 -0.0400 -0.1518  0.0557
  345W        W 4545   6.615   9.286   1.536  0.0640 -0.2083 -0.0775
  346W        W 4546   3.810   0.939   9.164  0.1290  0.0978 -0.1841
  347W        W 4547   1.493   8.270   4.087  0.0241 -0.3570  0.2334
  348W        W 4548   7.799   2.764  11.100 -0.0101  0.0814 -0.1489
  349W        W 4549   1.917   9.751   0.216 -0.2039 -0.0013 -0.1248
  350W        W 4550   0.655   6.383   9.538 -0.3189 -0.1884 -0.0246
  351W        W 4551   0.031   3.231   9.341  0.3668 -0.1645 -0.0519
  352W        W 4552   2.171   5.261   1.791 -0.0208 -0.1006 -0.3515
  353W        W 4553   2.699   2.801   2.728 -0.0154 -0.1852 -0.2621
  354W        W 4554   0.243   2.013  12.556  0.0912 -0.1586 -0.0609
  355W        W 4555   9.503   0.997  11.839 -0.2549 -0.0087  0.0693
  356W        W 4556  10.320   5.447  11.568 -0.1276 -0.1469 -0.2083
  357W        W 4557  10.077   5.835  11.861 -0.0580 -0.0230  0.1697
  358W        W 4558   6.372   5.094   8.640 -0.0423 -0.1036 -0.0939
  359W        W 4559   0.473   3.376  13.219  0.0744  0.0552 -0.1087
  360W        W 4560   6.185   3.872   3.798  0.0280 -0.1295  0.2942
  361W        W 4561   8.735   3.811   1.735  0.2889  0.1630 -0.1056
  362W        W 4562   9.446   7.834   3.468 -0.0654  0.2908 -0.1531
  363W        W 4563   5.567   7.065   9.650  0.0669 -0.0102 -0.0808
  364W        W 4564   0.036   0.932  11.639  0.0109  0.2484  0.1606
  365W        W 4565   6.570   5.303  13.137  0.2080  0.1746  0.1255
  366W        W 4566   7.072   5.145  12.475  0.0736 -0.0218  0.0357
  367W        W 4567   5.851   4.318   2.664  0.2655 -0.1261  0.2498
  368W        W 4568   4.284   1.895   1.347 -0.3934 -0.0406  0.3942
  369W        W 4569   2.185   2.254  11.859  0.1925 -0.1333  0.2323
  370W        W 4570   7.935   5.356  10.740 -0.2405  0.0643  0.1100
  371W        W 4571   5.556   0.880   0.388  0.1657  0.3684 -0.0645
  372W        W 4572  10.282   9.855   3.700 -0.0623 -0.0715  0.1827
  373W        W 4573   4.451   8.919  12.357 -0.2143  0.1341 -0.2585
  374W        W 4574   8.454   1.968   0.140  0.0518  0.3194  0.0377
  375W        W 4575   8.453   4.732   4.566 -0.1712  0.2398  0.0225
  376W        W 4576   1.994   3.784   1.423 -0.1700  0.3969 -0.0977
  377W        W 4577   1.903   4.847  12.483  0.1914  0.2552 -0.1245
  378W        W 4578   8.017   4.978   4.407 -0.0878  0.2895 -0.0250
  379W        W 4579   1.519   3.146   2.004  0.2057  0.3159  0.4103
  380W        W 4580   8.242   7.722   3.093  0.0265 -0.1185  0.2945
  381W        W 4581   4.892   0.626   2.828  0.0244  0.0068  0.0322
  382W        W 4582  10.003   9.189   0.824  0.2264 -0.1694  0.1706
  383W        W 4583   4.004  10.321   4.333  0.1172 -0.3174 -0.0253
  384W        W 4584   6.168   6.229  11.555 -0.0448  0.0088  0.0237
  385W        W 4585   2.774   1.878   0.523  0.1512 -0.0348 -0.1279
  386W        W 4586   9.262   0.160  10.446  0.0802  0.1206 -0.4219
  387W        W 4587   1.067   0.602  13.120 -0.0987 -0.1115 -0.0760
  388W        W 4588   1.383   9.632   4.478 -0.0169  0.2403 -0.3504
  389W        W 4589   2.954   6.252   0.950  0.1981 -0.2632 -0.2459
  390W        W 4590  10.351   8.430  10.431 -0.2241  0.0869 -0.3406
  391W        W 4591  10.205   2.096  10.935 -0.0242  0.0829  0.1345
  392W        W 4592   2.350   5.178  11.507 -0.0466  0.0143 -0.1214
  393W        W 4593   8.175   8.962  12.496  0.2991  0.0415  0.2038
  394W        W 4594  10.174   2.362  11.930  0.2703  0.2494 -0.0659
  395W        W 4595   5.302  10.476  12.638  0.1946 -0.0395  0.0613
  396W        W 4596   6.257   6.157   4.551  0.2215 -0.1803 -0.2281
  397W        W 4597   1.475   7.353   3.537  0.0757  0.2320 -0.5151
  398W        W 4598   2.752   3.076   3.520 -0.1021  0.3808 -0.0068
  399W        W 4599   7.858   0.698  12.606 -0.2834  0.1639 -0.1398
  400W        W 4600   7.124   5.673  12.503  0.1775 -0.1646 -0.0902
  401W        W 4601   4.134   4.628  12.041 -0.0355 -0.1791 -0.1370
  402W        W 4602   8.878   5.642  13.010 -0.3821 -0.0923 -0.3137
  403W        W 4603  10.464   6.179   9.385  0.1597  0.1772  0.2996
  404W        W 4604   9.988   3.830  10.849 -0.0429  0.1631 -0.2416
  405W        W 4605   9.993   3.010   1.412 -0.1814  0.0211 -0.1019
  406W        W 4606   4.472   4.470   3.458  0.1043 -0.1443 -0.1168
  407W        W 4607   1.589   5.334   1.792 -0.1441  0.0130  0.1427
  408W        W 4608   4.893  10.049  10.622  0.3062 -0.0917  0.1961
  409W        W 4609   4.160   2.629   0.114 -0.1297 -0.0681  0.0223
  410W        W 4610   6.340   3.660   0.338 -0.1601 -0.0084  0.0276
  411W        W 4611   1.271   7.808   0.534  0.2922 -0.2438 -0.1269
  412W        W 4612   4.757   7.627   0.151 -0.3706 -0.1951  0.0499
  413W        W 4613   8.113   4.077   0.140 -0.0574  0.1677  0.1544
  414W        W 4614   0.374   2.590   3.740 -0.0577 -0.0234  0.0933
  415W        W 4615   2.271   0.763  11.023  0.0007 -0.0771 -0.0082
  416W        W 4616  10.436   5.351   2.866  0.0756  0.0039 -0.0292
  417W        W 4617   6.315   2.489  11.059 -0.0202  0.1379 -0.0172
  418W        W 4618   6.187   1.932   2.534  0.2273  0.1925  0.1741
  419W        W 4619   1.656   0.294   1.495 -0.0831 -0.1924  0.0472
  420W        W 4620   7.904   8.512   2.018 -0.2733  0.1892 -0.1038
  421W        W 4621   7.904   3.406   4.456  0.5417  0.0574 -0.0068
  422W        W 4622   4.930   9.941  11.953  0.1452 -0.4071 -0.1915
  423W        W 4623   1.570   9.405   0.074  0.2888  0.1867  0.2034
  424W        W 4624   9.028   9.371   9.746  0.2781 -0.0711  0.0615
  425W        W 4625   2.605   5.347  11.034 -0.3572  0.0831 -0.2591
  426W        W 4626   1.435   3.204   4.660 -0.2825  0.2978 -0.0269
  427W        W 4627   7.875   3.984   2.888 -0.0481 -0.0993 -0.1496
  428W        W 4628   9.471   9.505  13.147 -0.1985 -0.1041 -0.0586
  429W        W 4629   2.343   6.315   1.477 -0.2413 -0.0788 -0.1248
  430W        W 4630   0.912   8.483   3.261  0.3350  0.3079 -0.2681
  431W        W 4631   2.265   9.352   4.866  0.3499 -0.0557 -0.0300
  432W        W 4632   3.484   2.888   9.025  0.3891  0.0713  0.0477
  433W        W 4633   1.493   5.924   8.467 -0.1877  0.1886 -0.1330
  434W        W 4634   6.121   2.712   3.051 -0.1282 -0.3765 -0.0516
  435W        W 4635   0.020   6.881  10.032 -0.0878 -0.3655  0.0282
  436W        W 4636   0.697   3.933   2.754 -0.0472  0.1879  0.0159
  437W        W 4637   8.273   6.568  11.697 -0.0580 -0.0983 -0.2315
  438W        W 4638   4.623   6.891   0.227 -0.0931  0.2599  0.0241
  439W        W 4639   8.452   2.805  10.627  0.0525 -0.1381 -0.3558
  440W        W 4640   7.498   8.735  10.216  0.0662 -0.0201 -0.1504
  441W        W 4641   2.575   5.534   1.028  0.1890  0.1354 -0.0478
  442W        W 4642   7.540   4.234   3.456  0.0997  0.0548 -0.0962
  443W        W 4643   7.276   2.701  12.360 -0.1853  0.0193  0.0420
  444W        W 4644   2.848   5.159   0.069 -0.0522  0.1363  0.0190
  445W        W 4645   7.973   7.547   4.290  0.1856 -0.1165 -0.3364
  446W        W 4646   6.730   8.284   2.670  0.0282  0.1618 -0.0374
  447W        W 4647   7.999   0.637   2.005 -0.0018 -0.1226 -0.2087
  448W        W 4648   3.705   9.391   4.127 -0.3237 -0.0398 -0.0869
  449W        W 4649   8.966   5.264  13.437  0.1985  0.1392 -0.1636
  450W        W 4650   8.930   1.577  13.005 -0.1347 -0.1543 -0.0839
  451W        W 4651  10.465   6.833  11.398 -0.0874  0.0558  0.0907
  452W        W 4652   6.116   8.202   3.718  0.0271 -0.0068 -0.1897
  453W        W 4653   9.739   9.397  10.313  0.0658 -0.2590 -0.1385
  454W        W 4654   3.942   1.726  12.610 -0.1685  0.0307  0.1811
  455W        W 4655   2.190   2.835   1.643  0.1138  0.1723 -0.4290
  456W        W 4656   9.788   5.738   4.210 -0.2561  0.1318  0.2232
  457W        W 4657   5.516  10.309   4.085 -0.0998 -0.0047 -0.1007
  458W        W 4658   1.650   8.472   9.765 -0.0198  0.2717  0.2982
  459W        W 4659   8.605   1.107  13.211  0.1085 -0.1320  0.0235
  460W        W 4660   1.522   2.868   2.420  0.1477 -0.0308 -0.1118
  461W        W 4661   8.118   6.660   8.927  0.1436  0.0113 -0.0452
  462W        W 4662   4.300   2.186   9.182 -0.0192  0.0557 -0.1405
  463W        W 4663   9.571   8.236  10.927  0.0112  0.2544  0.0738
  464W        W 4664   3.592   1.515   1.384  0.1588 -0.4358  0.3480
  465W        W 4665   4.395   2.871   1.665  0.1565  0.0095  0.1373
  466W        W 4666   7.426   5.849   3.246  0.0382  0.0896  0.4277
  467W        W 4667   1.406   0.173  11.244 -0.1237 -0.1059 -0.2797
  468W        W 4668   2.126   3.525  11.200  0.1988  0.0474  0.0235
  469W        W 4669   2.851   4.867   4.843 -0.0316 -0.0190  0.3220
  470W        W 4670   5.393   9.589  12.204  0.0705  0.1126 -0.1109
  471W        W 4671   7.340   8.755   1.259  0.0130 -0.0841 -0.1800
  472W        W 4672   4.307   9.392  10.931 -0.1224 -0.3527 -0.0577
  473W        W 4673   2.405   9.447   0.248  0.2809  0.1701  0.0453
  474W        W 4674   4.305   2.792   0.670 -0.2420  0.0801 -0.0119
  475W        W 4675   6.901   4.548  13.226 -0.0149  0.0656  0.0359
  476W        W 4676   0.684   6.032   4.399  0.3990  0.3299 -0.2233
  477W        W 4677  10.271   6.525   9.094  0.0542 -0.1014  0.2568
  478W        W 4678   3.213   4.980   1.987 -0.1999  0.0896  0.3783
  479W        W 4679   4.197   8.018   9.173  0.2469 -0.0600  0.1214
  480W        W 4680   4.715   5.453   9.562  0.0989 -0.0343 -0.1949
  481W        W 4681   2.858   8.554  13.416  0.0497  0.0064 -0.0727
  482W        W 4682  10.250  10.011   0.626  0.1668  0.1561  0.6216
  483W        W 4683   0.357   1.661   3.044  0.0053 -0.2491 -0.3448
  484W        W 4684   3.143   7.108   1.055  0.1514  0.0357 -0.1766
  485W        W 4685   8.146   2.986   1.922  0.1131 -0.0583  0.0522
  486W        W 4686   8.205   7.524   9.269  0.1420  0.1247 -0.1115
  487W        W 4687   4.585   8.236  10.445  0.1432 -0.1406 -0.0818
  488W        W 4688   8.758   9.216  10.525  0.0901 -0.0874  0.1032
  489W        W 4689   0.223   1.681  13.035  0.2327  0.0927  0.0322
  490W        W 4690   2.150   2.456   0.962  0.3194  0.3936  0.0612
  491W        W 4691   7.063   4.294   2.999 -0.0252 -0.1397  0.1793
  492W        W 4692   1.140   6.212  13.052 -0.2777 -0.2121 -0.1310
  493W        W 4693   1.539   5.448  13.390 -0.1610 -0.1125  0.1260
  494W        W 4694   2.089   9.995   1.451 -0.1569  0.0539 -0.1435
  495W        W 4695   2.402   4.112  12.152  0.1587 -0.1121  0.4471
  496W        W 4696   1.650   4.989   2.733 -0.0723 -0.2386 -0.1307
  497W        W 4697   8.628   5.791   9.676  0.2641  0.0667  0.1511
  498W        W 4698   7.557   3.585   2.483  0.2641  0.2493 -0.1179
  499W        W 4699   0.248  10.454  12.455 -0.0089 -0.0711  0.0094
  500W        W 4700   0.944   7.605  11.102  0.0841  0.5690 -0.1603
  501W        W 4701   1.016   3.484   4.744 -0.0365  0.3366  0.0508
  502W        W 4702   4.891   3.458  10.591  0.1945 -0.1694 -0.0070
  503W        W 4703   5.761   0.430   3.257  0.0732  0.0090  0.1504
  504W        W 4704   1.989   4.991   3.130  0.1181 -0.2891  0.0636
  505W        W 4705   5.370   8.846   9.349  0.1062  0.0292  0.0134
  506W        W 4706   3.138   0.169   2.380  0.1129 -0.0106 -0.1797
  507W        W 4707   0.911   3.756   2.306 -0.0503 -0.2659 -0.1994
  508W        W 4708   1.736   7.343   1.222  0.1035  0.1554 -0.1223
  509W        W 4709   1.057   6.570   9.717  0.4595 -0.4103  0.4071
  510W        W 4710   8.614   0.107  13.270  0.1842 -0.2403  0.3632
  511W        W 4711   4.831   1.471   0.681  0.3554  0.1952  0.3484
  512W        W 4712   2.633   9.192  10.915  0.1506  0.3979  0.0522
  513W        W 4713   1.329   0.136  12.454  0.3229 -0.1974  0.1117
  514W        W 4714   7.090   6.216   3.761 -0.0882 -0.1018 -0.0544
  515W        W 4715   5.169   9.732  11.381  0.0858  0.2280  0.3956
  516W        W 4716   0.413   4.793   9.456 -0.2933  0.1100 -0.1818
  517W        W 4717   8.986   9.183   3.273 -0.0498  0.2199 -0.0676
  518W        W 4718   6.109   9.136   1.900  0.2587  0.2649  0.0213
  519W        W 4719   4.931   3.483   9.004 -0.0434  0.1256  0.0221
  520W        W 4720   0.108   9.302   0.524  0.1594  0.0331 -0.0396
  521W        W 4721   5.565   0.877   9.726  0.1461 -0.3593  0.1312
  522W        W 4722   5.821   6.253   8.727 -0.1214  0.0548  0.2448
  523W        W 4723   0.717   7.828  10.684  0.2256  0.0580  0.0299
  524W        W 4724   6.443   3.823  11.045 -0.1681 -0.0916 -0.0635
  525W        W 4725   2.859   9.229   1.229  0.0070  0.0768 -0.0265
  526W        W 4726   2.535   9.875   3.953  0.0022  0.1545  0.2964
  527W        W 4727   1.030   1.386  12.138  0.0750  0.1701  0.1091
  528W        W 4728   1.408   7.840   3.729 -0.0802 -0.1795  0.1765
  529W        W 4729   0.937   5.663   3.433  0.2087 -0.0093 -0.2630
  530W        W 4730   1.143  10.377  10.923 -0.1814 -0.1314 -0.0607
  531W        W 4731   7.385   5.266   2.786 -0.0494  0.2159  0.0595
  532W        W 4732   3.178   1.799   4.702  0.1342  0.0033 -0.3085
  533W        W 4733   7.556   9.798  10.197  0.1735 -0.0801  0.0454
  534W        W 4734   3.466   9.309   0.413 -0.0221 -0.0491 -0.1320
  535W        W 4735   7.479   4.616   9.829  0.0657  0.4226  0.0131
  536W        W 4736   8.936   6.599   0.566 -0.1643 -0.1408  0.1926
  537W        W 4737   8.674   5.125  12.964  0.1604  0.3651 -0.3944
  538W        W 4738   1.072   9.548   9.938  0.1892  0.1930  0.0607
  539W        W 4739   0.288   2.624  13.329 -0.2094  0.0012  0.0471
  540W        W 4740   3.727  10.353   2.751  0.4375 -0.1915  0.1938
  541W        W 4741   2.256   0.813  13.392  0.2657  0.2718  0.1989
  542W        W 4742   0.310   5.271   0.087  0.0661  0.0956  0.0944
  543W        W 4743   9.968  10.116   0.205  0.2774 -0.3107 -0.0607
  544W        W 4744   1.368   6.422   1.321 -0.2125 -0.1076  0.1052
  545W        W 4745   5.432   1.807   4.945 -0.1596  0.2876  0.3295
  546W        W 4746   2.284   3.199   3.362  0.1511  0.2344  0.3023
  547W        W 4747   6.013   5.226   0.748  0.4428 -0.1665 -0.6864
  548W        W 4748  10.155   7.794  12.261 -0.0385 -0.4491 -0.0036
  549W        W 4749   1.273   3.767  13.313  0.1997 -0.0478  0.0492
  550W        W 4750   4.831   5.788   2.988  0.1301  0.2100  0.0977
  551W        W 4751   5.534   2.532   4.107 -0.0383  0.1836  0.1043
  552W        W 4752   5.420   0.355  12.142 -0.0283  0.3648  0.0154
  553W        W 4753   2.577   9.834   2.381  0.0853  0.3400 -0.3149
  554W        W 4754   0.280   5.381   8.366  0.3350 -0.0256  0.0615
  555W        W 4755   5.240   4.740   1.297  0.2964 -0.0381 -0.0634
  556W        W 4756  10.106   5.439   1.818  0.1542  0.2305  0.2162
  557W        W 4757   9.602   8.946  10.182 -0.0152 -0.0908 -0.4228
  558W        W 4758   1.662   9.694   2.320 -0.0122 -0.1320  0.2656
  559W        W 4759   1.012   9.961  11.115 -0.0204  0.0587 -0.1200
  560W        W 4760   8.373   3.906  13.168 -0.0101  0.2555  0.3746
  561W        W 4761   4.614   6.101   1.995  0.1546 -0.0435 -0.0025
  562W        W 4762   5.554   3.835  10.668  0.1228  0.1472  0.1030
  563W        W 4763   9.480   3.357  11.464 -0.0731 -0.0144  0.0826
  564W        W 4764   2.771   3.180   9.564 -0.0887  0.2600  0.2494
  565W        W 4765   9.997   0.935  11.848 -0.1564  0.1250 -0.3856
  566W        W 4766   1.025   5.445  10.260  0.0684 -0.1498  0.0724
  567W        W 4767   4.367   7.392   4.598  0.0624 -0.0762  0.1720
  568W        W 4768   0.594   3.420   0.694 -0.1076 -0.2129 -0.3333
  569W        W 4769   0.465   8.663  12.021  0.2697 -0.2497  0.0072
  570W        W 4770   7.858   7.928   1.652 -0.1759 -0.1191  0.1161
  571W        W 4771   6.186   4.256  10.822  0.1829  0.2208 -0.0820
  572W        W 4772   1.149   5.623  12.380  0.1461 -0.1124  0.2482
  573W        W 4773   7.356   1.784   2.181  0.5658 -0.0543  0.1801
  574W        W 4774   5.493   5.102  12.074 -0.1563 -0.1240 -0.1096
  575W        W 4775   4.424   3.300   9.675 -0.4408  0.3288 -0.0099
  576W        W 4776   2.764   1.066  13.216 -0.2644 -0.0461 -0.0296
  577W        W 4777   0.635   1.135  11.725  0.1264 -0.2274 -0.0207
  578W        W 4778   5.824   9.859  12.214  0.5337 -0.0937  0.2958
  579W        W 4779   0.019   4.302  13.299  0.0543  0.3466  0.0432
  580W        W 4780   7.985   1.656  12.257  0.4843 -0.1111 -0.2289
  581W        W 4781   1.019   3.342  13.454 -0.1160 -0.1434  0.2012
  582W        W 4782   5.183   4.320  12.273  0.0916 -0.2494  0.0144
  583W        W 4783   8.246   4.674  11.231 -0.0602  0.0161  0.2791
  584W        W 4784   0.987   4.650  10.889 -0.2169  0.0069 -0.2759
  585W        W 4785   9.161   4.095   0.875 -0.2126  0.0560  0.4249
  586W        W 4786   1.048   2.842   5.388  0.0226 -0.4408  0.0876
  587W        W 4787   6.955  10.148  10.464 -0.0165  0.1627 -0.1098
  588W        W 4788   9.051   4.128   9.355  0.0345 -0.0825 -0.1963
  589W        W 4789   0.142   7.182  10.988  0.2319 -0.0129 -0.0030
  590W        W 4790   3.082   1.712  11.537 -0.0064 -0.0123 -0.1872
  591W        W 4791   6.529   4.781   4.030  0.2275  0.3473 -0.0807
  592W        W 4792   3.146   7.739   2.778  0.0936 -0.0580 -0.0055
  593W        W 4793   7.270   5.139   4.518 -0.0553 -0.3604 -0.0675
  594W        W 4794   9.708   8.930  12.362 -0.4582 -0.0560 -0.3011
  595W        W 4795   0.745   4.709   0.312  0.1622  0.1452  0.2073
  596W        W 4796   3.371   4.354   3.772  0.0903 -0.0961 -0.2392
  597W        W 4797   7.251   3.451   3.759  0.0906  0.0946  0.1509
  598W        W 4798   4.450   8.352   2.327  0.1903  0.1511 -0.2551
  599W        W 4799  10.163   7.192   4.504  0.3899 -0.0445 -0.1851
  600W        W 4800  10.180   9.463   1.828 -0.1264  0.1332  0.1791
  601W        W 4801   5.467   9.027  10.099  0.1827 -0.3529 -0.0248
  602W        W 4802   8.148   1.179  12.479 -0.1375  0.0906 -0.1879
  603W        W 4803   7.835   1.781   3.626 -0.3563 -0.2108  0.4291
  604W        W 4804   5.779   8.898   0.615 -0.0085  0.1164 -0.2192
  605W        W 4805   7.133   5.519   2.371  0.0536 -0.0011 -0.2722
  606W        W 4806   3.681   2.541  13.348 -0.1452 -0.1969 -0.4331
  607W        W 4807   4.353   9.560   0.628  0.1115 -0.0710 -0.1868
  608W        W 4808   8.810   9.593   0.974  0.0692 -0.0493  0.4168
  609W        W 4809   6.754   4.828   4.873  0.1310  0.2533 -0.1977
  610W        W 4810   4.831   5.045  12.487  0.1841  0.1705 -0.0835
  611W        W 4811   2.555   5.115   3.183 -0.0492 -0.1211 -0.4355
  612W        W 4812   8.615   7.508   1.867  0.1113  0.0329 -0.0383
  613W        W 4813   1.917   5.661   1.975 -0.0773 -0.2687  0.0734
  614W        W 4814   9.424   3.802   0.247 -0.0168  0.0431 -0.1211
  615W        W 4815   8.625   2.974   2.019 -0.0160 -0.0451 -0.1319
  616W        W 4816   4.936   8.674   3.004 -0.0601 -0.1642  0.2055
  617W        W 4817   9.948   9.237   3.070  0.1304 -0.1108  0.1016
  618W        W 4818   8.715   6.816   3.406  0.1714 -0.1468 -0.2328
  619W        W 4819   5.443   3.573   1.069 -0.1817  0.1049  0.0460
  620W        W 4820   8.145   5.646   4.879 -0.5238 -0.1983  0.1196
  621W        W 4821   4.907   3.164  11.785  0.0041  0.0841  0.2771
  622W        W 4822   5.356   2.339  13.102  0.3658  0.1023  0.0973
  623W        W 4823   6.855  10.278  12.873  0.3436 -0.2418  0.0648
  624W        W 4824   6.317   7.627   4.638 -0.2072 -0.0194  0.3389
  625W        W 4825   4.030   6.930  11.534  0.1542  0.0032 -0.2078
  626W        W 4826   3.326   8.471  10.912 -0.2165  0.4922 -0.0101
  627W        W 4827   0.633   2.495   2.746  0.0510  0.2204  0.0819
  628W        W 4828   2.707   2.052  10.681 -0.1046  0.2818 -0.1222
  629W        W 4829   0.292   6.787   5.380 -0.0754  0.1752  0.0949
  630W        W 4830   4.482   7.471   3.161  0.1530 -0.1348 -0.0364
  631W        W 4831  10.426  10.459   1.381 -0.1253 -0.2111  0.1760
  632W        W 4832   7.631   8.310  13.153  0.0693 -0.0429 -0.0272
  633W        W 4833  10.085   5.940  10.479  0.0380  0.2140 -0.0084
  634W        W 4834  10.035   6.995   0.534 -0.0847 -0.0580 -0.0288
  635W        W 4835   9.062   9.463  10.866 -0.1478  0.0674  0.2457
  636W        W 4836   1.729   7.007   4.411  0.3506  0.0668 -0.0393
  637W        W 4837   8.922   6.864   9.309  0.0483 -0.0582  0.0549
  638W        W 4838   7.439   1.583   1.719 -0.3671 -0.0837 -0.0668
  639W        W 4839   1.898   8.635   1.676  0.0111 -0.1073 -0.0448
  640W        W 4840   3.337   1.066  13.297 -0.2705 -0.4695 -0.0378
  641W        W 4841   5.278   1.969  12.740 -0.1293  0.2370 -0.1172
  642W        W 4842   4.407   2.033  11.953 -0.0288 -0.3054  0.3806
  643W        W 4843   0.010   0.043   0.772 -0.2259 -0.0451  0.0075
  644W        W 4844   3.170   3.228   1.552 -0.2082  0.2205  0.2160
  645W        W 4845   4.150   4.302  12.509  0.0351  0.2231 -0.1587
  646W        W 4846   1.551   0.117  10.200  0.0592 -0.1379 -0.0193
  647W        W 4847   9.116   9.771   0.596  0.0222 -0.2541 -0.4583
  648W        W 4848   7.058   1.876   2.923 -0.2283  0.0334  0.2203
  649W        W 4849   8.801   9.857   2.513  0.0631  0.0032  0.2421
  650W        W 4850   9.738   5.071   3.014 -0.0096  0.1781  0.1840
  651W        W 4851   2.778   0.136   2.816 -0.0500  0.2242  0.0661
  652W        W 4852   5.558   8.213   1.683  0.0215 -0.2114  0.1939
  653W        W 4853   3.220   2.028   0.723 -0.0846  0.1172 -0.1178
  654W        W 4854   5.769   2.381  12.665  0.0920  0.0479 -0.1215
  655W        W 4855   5.616   4.966  12.986  0.3030  0.0386 -0.0627
  656W        W 4856   9.654   4.357  12.451  0.0907 -0.1271 -0.1215
  657W        W 4857  10.007   9.499  10.732 -0.1034 -0.2234 -0.0753
  658W        W 4858   7.328   6.731   2.057  0.1160  0.0785 -0.1816
  659W        W 4859   3.439  10.350  10.984  0.1766 -0.1985 -0.1635
  660W        W 4860   6.674   8.462  12.238  0.0184 -0.1242  0.1237
  661W        W 4861   7.553   8.345   2.435  0.0024 -0.0431 -0.1476
  662W        W 4862   5.832   3.216   9.722  0.1695 -0.2342 -0.0379
  663W        W 4863   5.679   2.709   1.374 -0.0840  0.2490 -0.2343
  664W        W 4864   7.026   3.553  11.848  0.2194  0.1136 -0.2056
  665W        W 4865   2.357   0.048  13.230  0.0541 -0.0082  0.1096
  666W        W 4866   7.177   1.022   3.389  0.1138 -0.0329 -0.0560
  667W        W 4867   9.691   9.975  11.261  0.0273 -0.0584 -0.1432
  668W        W 4868   4.138   7.005   1.427  0.2614  0.2132 -0.4146
  669W        W 4869   1.976   0.386   1.038  0.2411  0.1172 -0.0422
  670W        W 4870   4.568   1.655  12.800 -0.2551 -0.0864 -0.1569
  671W        W 4871   4.210   0.926   2.664  0.1741 -0.0799 -0.0060
  672W        W 4872   4.797   9.873   0.898 -0.0647  0.0123 -0.1363
  673W        W 4873   1.843   2.452  12.169  0.3272  0.2060  0.1126
  674W        W 4874   1.196   2.084  10.265  0.1481 -0.0913 -0.3762
  675W        W 4875  10.115   4.988   2.651 -0.0336  0.2731  0.1390
  676W        W 4876   2.759   1.474   0.795 -0.1454  0.3032 -0.0412
  677W        W 4877   9.872   6.708   0.024  0.0017  0.0300 -0.1095
  678W        W 4878   6.066   8.182  10.733 -0.0542 -0.1217 -0.1235
  679W        W 4879   1.073   6.535  11.812 -0.0969  0.0249  0.1554
  680W        W 4880   1.881   2.693  10.729 -0.1749  0.0885  0.0824
  681W        W 4881   1.499   7.843   1.250 -0.2752 -0.0195  0.0739
  682W        W 4882   6.289   8.612   3.940 -0.0571 -0.5094 -0.0591
  683W        W 4883   8.439   0.681  12.285  0.4925 -0.0570 -0.0795
  684W        W 4884   3.671   5.910  13.392  0.1327  0.1837  0.0105
  685W        W 4885   7.530   5.401  10.455  0.0232 -0.1197 -0.0581
  686W        W 4886   0.383   2.311  10.295 -0.2654  0.3058 -0.1024
  687W        W 4887   7.256   6.091  12.767 -0.1154  0.0319  0.0259
  688W        W 4888   5.032   1.793  11.081  0.0185  0.0489 -0.0751
  689W        W 4889   0.560   6.298   0.231  0.1483  0.3387  0.0951
  690W        W 4890   2.996   7.871   2.298  0.3558 -0.0075  0.0760
  691W        W 4891   0.225   5.743  11.881  0.1400  0.1972  0.1854
  692W        W 4892   8.131   0.794  13.424  0.2093 -0.0795 -0.0787
  693W        W 4893   8.458   6.001   9.164  0.3015 -0.1282  0.2868
  694W        W 4894   4.567   1.190   1.962  0.0555 -0.1029  0.1046
  695W        W 4895   1.331   9.789   9.117  0.2860 -0.1313 -0.0370
  696W        W 4896   2.463   5.191   4.947  0.5092 -0.0940 -0.1553
  697W        W 4897   3.338   4.746  11.189 -0.0612 -0.1318  0.3493
  698W        W 4898   7.420   3.597   0.378  0.1339 -0.0059  0.0215
  699W        W 4899   0.749   1.707   2.627  0.0166  0.0324 -0.1045
  700W        W 4900   2.580   0.463   2.282  0.0511  0.1618  0.1210
  701W        W 4901   6.766   8.101  11.850 -0.0354  0.2034  0.4691
  702W        W 4902   1.243   4.440  11.431 -0.0210  0.0488 -0.0428
  703W        W 4903   4.764   5.808  10.512  0.0103 -0.4495 -0.2391
  704W        W 4904   5.274   9.190   4.780  0.0624  0.1716  0.0585
  705W        W 4905   8.745  10.425   1.143  0.3800  0.0600  0.0822
  706W        W 4906  10.323   1.612   2.150 -0.0785  0.1564  0.0552
  707W        W 4907   0.598   7.769   0.092  0.1347  0.0615  0.0427
  708W        W 4908   7.922   7.350   4.747 -0.1803 -0.2372  0.0424
  709W        W 4909   0.823   7.039  10.429 -0.0732 -0.1441 -0.1292
  710W        W 4910   5.525   9.670   9.441 -0.2527 -0.1923 -0.3847
  711W        W 4911   3.614   5.555  11.240 -0.0966  0.1443 -0.0579
  712W        W 4912   2.444   1.732  12.571  0.1785  0.0425 -0.0228
  713W        W 4913   6.562   4.677   9.910 -0.0018 -0.0804 -0.2070
  714W        W 4914   4.089   7.486   5.250  0.0786  0.0409  0.1401
  715W        W 4915   9.243   2.983   0.916  0.3345 -0.2637  0.1903
  716W        W 4916   8.335   0.275   0.549 -0.2537  0.2346  0.0416
  717W        W 4917   1.878   3.398   2.672 -0.3899  0.3975 -0.2177
  718W        W 4918   0.016   4.209  11.906 -0.1268 -0.0708 -0.2595
  719W        W 4919   3.525   0.231  13.045  0.2414  0.0311  0.0350
  720W        W 4920   0.495   5.273   9.508  0.0087 -0.2158  0.2137
  721W        W 4921   3.540   6.010   1.129  0.0061 -0.1345  0.0128
  722W        W 4922   5.302   7.343  12.571 -0.3229 -0.4245  0.1788
  723W        W 4923   4.189   6.481  12.451 -0.0811  0.1779 -0.1162
  724W        W 4924   0.427   9.984   9.872 -0.0112 -0.0427  0.2879
  725W        W 4925  10.362   1.517  10.046 -0.0699  0.0896 -0.1354
  726W        W 4926   3.352   7.909  10.804 -0.1227  0.1100  0.1639
  727W        W 4927   0.151   4.750   4.302  0.0561  0.2167 -0.1337
  728W        W 4928   2.708   1.039   1.458 -0.2278 -0.1222 -0.1859
  729W        W 4929   8.522   4.216   3.831 -0.1318 -0.1245  0.0103
  730W        W 4930   1.908   2.559   2.439 -0.0802  0.0918 -0.0224
  731W        W 4931   3.464   2.597   9.955 -0.1177  0.0405  0.1616
  732W        W 4932   7.890   6.635  11.181 -0.1101 -0.1177 -0.0042
  733W        W 4933   9.146   6.114   4.746 -0.0747 -0.1024  0.0740
  734W        W 4934   9.182   3.569   2.445 -0.1096  0.0031 -0.1224
  735W        W 4935   3.172   2.596   0.260 -0.4722 -0.2405 -0.1411
  736W        W 4936   9.955   0.603  12.269 -0.1277  0.2218 -0.3543
  737W        W 4937   5.878   2.256   9.469  0.1487  0.2656  0.2189
  738W        W 4938   3.422   1.714  10.234  0.1419 -0.3169  0.1281
  739W        W 4939   4.000   8.331   3.761  0.0898 -0.0578  0.0569
  740W        W 4940   6.024   1.809   3.465 -0.2882 -0.0476 -0.0649
  741W        W 4941   6.770   1.689  11.472  0.1438  0.0836  0.2152
  742W        W 4942   0.913   0.948  12.763  0.0523 -0.0643  0.0607
  743W        W 4943  10.445   1.836   1.710 -0.0716  0.0330 -0.1030
  744W        W 4944   3.839   1.675   2.617  0.0277 -0.1197 -0.1124
  745W        W 4945   8.183   0.349  11.103 -0.0585 -0.3632  0.2889
  746W        W 4946   4.494   6.383   3.854 -0.2606 -0.1564  0.3217
  747W        W 4947   4.905   9.921   1.407  0.1427 -0.1208  0.1547
  748W        W 4948   8.534   5.670  12.010 -0.2148 -0.2700 -0.1104
  749W        W 4949   8.626   8.019   1.126 -0.0503 -0.1262 -0.0608
  750W        W 4950   5.030   1.513  11.542  0.2216 -0.0998  0.0772
  751W        W 4951   2.771   0.353  11.962 -0.5689  0.1227  0.0684
  752W        W 4952   4.186  10.404   1.142  0.0568 -0.2999  0.0932
  753W        W 4953  10.064   1.937   3.046  0.1435 -0.3845 -0.2167
  754W        W 4954   4.582   4.571   0.389  0.0119 -0.0929  0.0576
  755W        W 4955   1.009   4.666   3.429  0.2256  0.1538  0.1730
  756W        W 4956   0.362   8.622   2.969 -0.1774 -0.1005 -0.0658
  757W        W 4957   8.916   8.852   2.394 -0.3725  0.0133 -0.1811
  758W        W 4958   2.417   5.020   4.136  0.2396 -0.2687 -0.2926
  759W        W 4959   8.922   5.089  10.445  0.2517 -0.1358 -0.1055
  760W        W 4960   2.854   0.866  11.898 -0.2324  0.0089  0.2417
  761W        W 4961   0.544   6.305   1.934  0.3988  0.1970  0.0909
  762W        W 4962   2.637   6.965   4.167 -0.3038 -0.2715  0.2085
  763W        W 4963  10.329   2.394   0.051  0.1905 -0.1919  0.1864
  764W        W 4964   0.025   5.636   9.107 -0.0813  0.2671  0.3101
  765W        W 4965   6.920   0.764   2.795 -0.0891  0.3188 -0.2080
  766W        W 4966   7.517   7.708  10.807 -0.0964  0.2628  0.2501
  767W        W 4967   2.449   2.256  11.124 -0.3399  0.1785  0.3719
  768W        W 4968  10.080   4.623   2.995  0.0981 -0.0607 -0.1614
  769W        W 4969   4.256   8.926  10.770  0.0672 -0.0393  0.3582
  770W        W 4970   8.460   3.156   1.170  0.2000 -0.0530 -0.0142
  771W        W 4971   0.172   4.718   3.817 -0.4326 -0.1137  0.2659
  772W        W 4972   8.523   2.849   1.564 -0.1120 -0.0814  0.2359
  773W        W 4973   7.876   4.048  10.818 -0.3705  0.2597 -0.0420
  774W        W 4974   2.900   7.657  10.968 -0.3972  0.0858 -0.2528
  775W        W 4975   6.417   7.536  12.599  0.1529  0.2023 -0.1652
  776W        W 4976   7.637   3.807  13.429 -0.0500  0.0666 -0.2050
  777W        W 4977   8.557   7.953  10.551 -0.2253 -0.2494 -0.3162
  778W        W 4978   6.616   3.293  11.729  0.0702  0.3836  0.0980
  779W        W 4979   5.198   2.487   1.465 -0.1123 -0.3667 -0.0464
  780W        W 4980   7.487   9.213  11.315  0.1648  0.3303 -0.0759
  781W        W 4981   7.060   8.827  12.000 -0.1597 -0.1769 -0.2105
  782W        W 4982   3.023   1.477   2.581 -0.1467  0.0447  0.3390
  783W        W 4983   5.299   4.370   2.775  0.3300 -0.1725  0.2196
  784W        W 4984   7.067   2.532   2.046 -0.1132  0.0296 -0.1660
  785W        W 4985   3.872   4.160  12.927  0.0062 -0.0412 -0.0539
  786W        W 4986   6.300   0.649  10.516  0.0515  0.0015  0.4187
  787W        W 4987   8.257   4.178   2.472 -0.0018 -0.3081  0.0447
  788W        W 4988   2.543   8.394  11.419  0.4121 -0.1670  0.1048
  789W        W 4989   0.143  10.026   2.145 -0.0691  0.2412  0.3159
  790W        W 4990   7.127   5.365  12.940 -0.5133  0.4775  0.3199
  791W        W 4991   4.751   2.470   4.896  0.1691 -0.1239  0.0137
  792W        W 4992   4.044   8.722   9.996  0.3181 -0.1488 -0.0734
  793W        W 4993   3.981   0.160   9.668 -0.2197 -0.0715 -0.3025
  794W        W 4994   3.961   7.541   9.033 -0.1891 -0.0347 -0.1584
  795W        W 4995   1.649   5.150   4.066 -0.1440  0.0316  0.1284
  796W        W 4996   1.461   9.696  12.668 -0.3411 -0.0961  0.2706
  797W        W 4997   6.981   4.896   9.850 -0.1346 -0.4566 -0.1367
  798W        W 4998   8.989   2.481   9.415 -0.1225 -0.2895 -0.0953
  799W        W 4999   3.662   3.098   1.306 -0.1105 -0.0644 -0.0416
  800W        W 5000   8.449   3.364   9.106 -0.0212 -0.3145  0.0693
  801W        W 5001   3.607   9.925  11.162 -0.2169  0.1188 -0.3043
  802W        W 5002   0.302   7.524   2.558 -0.1149  0.2260 -0.2059
  803W        W 5003   0.473   3.220  10.293  0.2550 -0.1191 -0.1369
  804W        W 5004   0.142   2.798  10.204  0.1380 -0.3367  0.1237
  805W        W 5005   6.163   3.935  12.056  0.0823  0.3641  0.0157
  806W        W 5006   7.458   5.097   0.841  0.0997  0.0933 -0.0107
  807W        W 5007   1.000   8.069   1.523 -0.1169 -0.1892  0.1135
  808W        W 5008   1.866   1.518  11.727  0.2729  0.1186 -0.2264
  809W        W 5009   2.921   8.631  10.141  0.1586 -0.3593  0.1399
  810W        W 5010   0.465   3.524   4.038 -0.1584  0.1588 -0.2092
  811W        W 5011   9.764   8.654  12.778  0.1141 -0.0943  0.1641
  812W        W 5012   5.853   4.352  11.708 -0.0393  0.2470  0.2068
  813W        W 5013   1.003   2.502   3.192  0.0183 -0.0337  0.0946
  814W        W 5014   4.867   7.109   3.222  0.1140 -0.2256 -0.0307
  815W        W 5015   9.273   6.623   9.542  0.1379  0.2956  0.1596
  816W        W 5016   5.720   6.339  12.618  0.0990 -0.0945 -0.1634
  817W        W 5017   7.833   8.977   1.058  0.2610 -0.0438  0.1804
  818W        W 5018   1.590   6.835  12.357 -0.1543 -0.1030  0.0656
  819W        W 5019   7.769   6.239  11.503  0.2073 -0.0551  0.3237
  820W        W 5020   8.411   2.635   8.434  0.0042  0.1141  0.0163
  821W        W 5021   9.047   1.827  12.585  0.0540  0.3000 -0.2660
  822W        W 5022   5.043   0.738   4.138  0.0953 -0.2235  0.0528
  823W        W 5023   9.322   0.826  11.054 -0.2312 -0.0411  0.4167
  824W        W 5024   6.328   3.927  12.796 -0.2470  0.1863  0.1582
  825W        W 5025   5.741   4.530   3.131 -0.1104 -0.4115 -0.1001
  826W        W 5026   7.025   1.719   0.937 -0.1031  0.0674  0.0078
  827W        W 5027   2.072   6.124  11.024  0.0932  0.0644 -0.1502
  828W        W 5028   2.329   7.275   9.534 -0.1637 -0.0331  0.0694
  829W        W 5029   1.524   0.920   8.834  0.1470 -0.1265  0.1676
  830W        W 5030   5.929   8.288   9.724 -0.1362 -0.2801 -0.0364
  831W        W 5031   3.353   1.588  11.115 -0.0473  0.1209 -0.1442
  832W        W 5032   6.037   4.771   9.962  0.0373 -0.0726  0.2076
  833W        W 5033   2.344   8.114  11.796 -0.0581 -0.2407 -0.2963
  834W        W 5034   9.020   2.086  12.163 -0.0829  0.1635 -0.0616
  835W        W 5035   3.721   5.075  10.685  0.1479 -0.1952  0.0175
  836W        W 5036   0.668   9.595  11.305 -0.2100  0.0313 -0.1794
  837W        W 5037   5.280   7.376   2.984  0.4405 -0.0878 -0.0165
  838W        W 5038   6.241   9.007   0.739  0.2483  0.0784  0.1614
  839W        W 5039   4.701   8.557   1.983  0.0310 -0.1961  0.3251
  840W        W 5040   2.724   5.696  13.255 -0.3484 -0.0866  0.1199
  841W        W 5041   0.655   5.925  12.304 -0.2312  0.3398 -0.0922
  842W        W 5042   8.269   2.373  11.781 -0.2210  0.0740  0.2179
  843W        W 5043   2.558   4.478   1.665 -0.0234  0.1792 -0.2935
  844W        W 5044   4.121   8.002   5.205 -0.0445 -0.0474  0.0182
  845W        W 5045   4.758   9.331   4.842  0.1958 -0.1263 -0.2667
  846W        W 5046   7.486   4.486   2.957 -0.4315 -0.2375  0.0396
  847W        W 5047   9.509   7.592   8.907  0.3108 -0.1178  0.0928
  848W        W 5048   3.010   6.214  10.852 -0.1228 -0.1637  0.0072
  849W        W 5049   7.946   6.667   0.985  0.0336 -0.2905 -0.1618
  850W        W 5050   8.693   2.591   9.831 -0.2652 -0.1287 -0.0169
  851W        W 5051  10.175   0.872   2.825  0.2742  0.2027  0.0100
  852W        W 5052   6.483   0.518  12.404 -0.1869 -0.1017  0.1126
  853W        W 5053   4.965  10.068  12.947 -0.5376  0.0490  0.0395
  854W        W 5054   3.547   8.766  11.291  0.1226 -0.2724 -0.1657
  855W        W 5055   5.390   5.493  13.140 -0.0591  0.2426  0.2588
  856W        W 5056   0.073   9.544  10.776  0.5042 -0.2455  0.0468
  857W        W 5057   4.078   9.332   3.784  0.1614  0.1823  0.1089
  858W        W 5058   3.964   7.319   1.018  0.0097  0.1331  0.2620
  859W        W 5059   2.987   4.094   0.430  0.2498  0.1662 -0.1209
  860W        W 5060   3.661   1.824   3.066 -0.2412 -0.2056  0.5469
  861W        W 5061   5.013   4.011  10.519 -0.0452  0.1967  0.3526
  862W        W 5062   2.301   6.988  11.407  0.1887  0.2874  0.1029
  863W        W 5063   0.492   4.099  12.043 -0.1404 -0.0574 -0.0475
  864W        W 5064   6.510   2.195   2.175  0.0011 -0.1914  0.0590
  865W        W 5065   1.494  10.003  11.064 -0.0624 -0.0041 -0.0160
  866W        W 5066   1.268   6.998   1.255  0.2578  0.1945  0.0917
  867W        W 5067   4.227   0.056   3.928  0.3306 -0.1358  0.0170
  868W        W 5068   6.167   7.701   9.127 -0.3454  0.2119  0.2881
  869W        W 5069   5.989   6.432   3.382  0.0347 -0.2386 -0.4101
  870W        W 5070   5.147   7.295   0.071 -0.3424 -0.1583  0.0629
  871W        W 5071   3.288   8.474  11.568 -0.0898 -0.3988  0.2476
  872W        W 5072   4.720   0.332   2.397  0.1226 -0.0092  0.3191
  873W        W 5073   6.825   3.480   2.019 -0.0649  0.0790 -0.0607
  874W        W 5074   0.462  10.119   2.531  0.1118  0.0474  0.0638
  875W        W 5075   6.630   1.694   0.036  0.0120  0.0713 -0.1598
  876W        W 5076   7.096   9.733  12.304  0.4177  0.0400  0.1568
  877W        W 5077   2.642   0.551  13.255  0.1430  0.1290  0.5049
  878W        W 5078   2.958   0.529   3.894  0.0458 -0.1822 -0.2009
  879W        W 5079   1.461   7.959  11.361  0.0261 -0.0154 -0.0240
  880W        W 5080   7.012  10.375   2.807  0.3768  0.1824 -0.1175
  881W        W 5081   8.654   5.907  13.393 -0.1403 -0.1224  0.2967
  882W        W 5082   9.967   3.750   4.367 -0.0602  0.3326 -0.1584
  883W        W 5083   6.358  10.188   0.040 -0.0647 -0.0774  0.4241
  884W        W 5084   4.769   0.470   0.705  0.0643  0.0623 -0.1983
  885W        W 5085   7.120  10.362   2.233  0.2920  0.1354  0.4017
  886W        W 5086   1.032   9.892   0.598  0.2534  0.2078  0.0769
  887W        W 5087   5.399   8.570   8.496  0.3373 -0.1394  0.0206
  888W        W 5088   8.741   5.851   4.372  0.2030 -0.1377 -0.3105
  889W        W 5089   9.355   9.814  10.052  0.3483 -0.0057 -0.2006
  890W        W 5090   6.957   5.041  13.413  0.1327  0.1492  0.1016
  891W        W 5091   3.739   6.467  12.738 -0.0071 -0.3903  0.3280
  892W        W 5092   2.344   6.035   1.914 -0.0568  0.3334 -0.1023
  893W        W 5093   7.944   5.231  11.222 -0.3651 -0.1919  0.1514
  894W        W 5094   5.737   9.334   1.692 -0.1221 -0.0862 -0.1607
  895W        W 5095   8.466   3.296   3.158 -0.1159 -0.1399 -0.0704
  896W        W 5096   3.179   0.930  10.907 -0.2485  0.0819 -0.1595
  897W        W 5097   1.550   5.638  11.894  0.0019 -0.0967 -0.1994
  898W        W 5098   6.849   5.658   1.452  0.1350 -0.1789 -0.0538
  899W        W 5099   8.672  10.204  11.507 -0.0989 -0.2383 -0.0391
  900W        W 5100   4.229   9.336   8.621 -0.2177 -0.1523  0.2027
  901W        W 5101   3.226   3.076   2.917 -0.3186  0.0017 -0.0014
  902W        W 5102   8.145   3.627  10.379  0.0420  0.1613 -0.0308
  903W        W 5103   0.819  10.319   0.495  0.3538 -0.0050  0.1740
  904W        W 5104   9.506   4.815   0.549  0.0802 -0.1359  0.1839
  905W        W 5105   2.847   8.990   3.692  0.2679 -0.0114 -0.2455
  906W        W 5106   0.681   2.714  10.222 -0.2417 -0.0329  0.0809
  907W        W 5107   6.518   9.499  11.484  0.1439  0.3269  0.1018
  908W        W 5108   5.645   8.375   0.647  0.1818 -0.0164 -0.5094
  909W        W 5109   1.416   0.680   9.305  0.0236 -0.0380 -0.0060
  910W        W 5110   2.624   4.522   0.719 -0.2716  0.3219 -0.1725
  911W        W 5111   4.175   1.989   2.917  0.0252  0.1827  0.0896
  912W        W 5112   3.227   3.179   4.275 -0.1279 -0.1361  0.1221
  913W        W 5113   6.606   0.799   0.918 -0.0949 -0.1046  0.1344
  914W        W 5114   3.137   6.358   3.333  0.0967  0.2987  0.0353
  915W        W 5115   5.384   9.567  12.762 -0.0045  0.0368 -0.0231
  916W        W 5116   3.649   6.510   4.546  0.0159  0.2591  0.2298
  917W        W 5117   8.451   2.833   2.908  0.0573 -0.1542 -0.0397
  918W        W 5118   2.533   8.815  13.103  0.0631  0.1732  0.0542
  919W        W 5119   1.458   0.785   3.126 -0.0646  0.3717  0.2978
  920W        W 5120   4.970   5.598   9.993 -0.0472 -0.2526  0.0747
  921W        W 5121   5.016   3.920  10.043 -0.4012  0.0009 -0.0436
  922W        W 5122   1.444   5.219   1.008  0.1637 -0.0624 -0.0706
  923W        W 5123   8.591   3.512   0.689 -0.1837 -0.1269 -0.0289
  924W        W 5124   4.242   3.110  13.418 -0.0201 -0.0827  0.1299
  925W        W 5125  10.224   3.498  12.585 -0.1810  0.3921 -0.0484
  926W        W 5126   7.110   8.368  13.349 -0.0646 -0.1309 -0.0717
  927W        W 5127   6.379   2.569  12.734 -0.1665 -0.2625 -0.4491
  928W        W 5128   0.816   2.582   0.404  0.1695  0.1097  0.1329
  929W        W 5129   0.259   4.652   8.707 -0.0920 -0.0493 -0.0432
  930W        W 5130   4.479   7.288  11.470 -0.1026  0.1394 -0.1434
  931W        W 5131   3.447   6.078  10.533 -0.1299  0.0534  0.2914
  932W        W 5132   7.444   8.872   2.354 -0.2491  0.5836 -0.0108
  933W        W 5133   3.160   7.786  10.015  0.5321  0.2591 -0.2758
  934W        W 5134   4.319   3.484  10.777 -0.1449 -0.2158  0.2325
  935W        W 5135   1.036   3.157  12.325  0.2105  0.1124  0.2408
  936W        W 5136   6.905   0.662   3.671 -0.0920  0.0504 -0.2456
  937W        W 5137   8.328   5.813  10.097  0.1480 -0.1289  0.2943
  938W        W 5138   9.691   5.110   2.313  0.5696  0.1246  0.0510
  939W        W 5139   9.012   5.824   2.451  0.3019  0.1514 -0.2217
  940W        W 5140   1.430   9.229   2.852 -0.2760  0.2640 -0.0107
  941W        W 5141   1.910   2.016   2.513 -0.2535 -0.0494 -0.0707
  942W        W 5142   1.896   5.111  10.228  0.1485 -0.1328 -0.1325
  943W        W 5143   0.685   3.900   0.891 -0.0045  0.1664 -0.3121
  944W        W 5144   8.129  10.364  12.188 -0.1319  0.0093  0.0616
  945W        W 5145   6.526   5.368  11.652  0.0105 -0.0559 -0.0481
  946W        W 5146   5.818   5.704   4.601  0.2288  0.1163  0.0129
  947W        W 5147   8.947   4.610  10.242  0.0733 -0.2385 -0.1856
  948W        W 5148   0.959  10.383   1.979  0.1233  0.1226 -0.0178
  949W        W 5149   4.470   1.036   9.759 -0.0983 -0.0587 -0.3642
  950W        W 5150   6.326   6.935   3.982 -0.1620 -0.3193  0.0731
  951W        W 5151   8.583   7.680   9.576 -0.0302 -0.0071 -0.1615
  952W        W 5152   6.776   1.286  11.785 -0.0538  0.2022 -0.2355
  953W        W 5153   5.471   1.416  11.264 -0.4978  0.1214 -0.1449
  954W        W 5154   7.174   8.246   1.164  0.1278  0.0999  0.1727
  955W        W 5155  10.168   4.419  12.266  0.1292  0.1898 -0.1065
  956W        W 5156   5.118   2.597  10.105  0.2647  0.0844 -0.0358
  957W        W 5157  10.007   2.146  11.399  0.0440 -0.3816 -0.1141
  958W        W 5158   7.757   1.008   2.308 -0.0795 -0.0424  0.0183
  959W        W 5159   6.390   7.002   2.289  0.1125 -0.0910 -0.0745
  960W        W 5160   1.015   8.642   1.418 -0.2073  0.0510  0.0833
  961W        W 5161   4.623   2.449   1.936 -0.2200  0.1258  0.0344
  962W        W 5162   8.278   4.191   1.132  0.2143 -0.1070  0.2260
  963W        W 5163   1.791   8.185   3.613  0.0529  0.1087  0.1817
  964W        W 5164   4.101   2.063   9.637  0.2033 -0.0629  0.2052
  965W        W 5165   1.466   6.780  11.468 -0.0600 -0.0483  0.2171
  966W        W 5166   3.633   3.834  11.109  0.2036  0.0541  0.1152
  967W        W 5167   3.746   3.322  10.831 -0.1211 -0.0714 -0.1798
  968W        W 5168   9.123   7.433  11.243 -0.3149  0.0757 -0.1830
  969W        W 5169   8.135   9.573   3.234  0.1734  0.2316  0.2044
  970W        W 5170   4.972   1.564   3.522 -0.2619 -0.0216  0.3176
  971W        W 5171   3.053   6.992   3.388 -0.0549  0.0269  0.1906
  972W        W 5172   4.061   5.650  11.460  0.0539 -0.3508  0.5369
  973W        W 5173   9.397   8.464   9.987  0.0677  0.0912 -0.0244
  974W        W 5174   9.394   6.096   9.365 -0.1085 -0.2157 -0.0451
  975W        W 5175   1.493   8.581   3.660  0.0769  0.1861 -0.2139
  976W        W 5176  10.449   6.679  12.039  0.3473  0.3103 -0.1050
  977W        W 5177   6.612   3.424   2.953  0.0297 -0.1280  0.0115
  978W        W 5178   3.193   5.638   2.529  0.3183 -0.3601  0.0816
  979W        W 5179   7.051   9.432   1.768 -0.1357 -0.1027 -0.0607
  980W        W 5180   9.221   0.888   9.780  0.0417 -0.1591 -0.0049
  981W        W 5181  10.165   6.469   9.665  0.0372  0.0798  0.3251
  982W        W 5182   4.491   1.055   0.560  0.3279 -0.1331 -0.0716
  983W        W 5183   6.195   8.014  11.203 -0.0287  0.1625  0.0880
  984W        W 5184   4.828   3.983   1.469  0.2717  0.1181  0.2217
  985W        W 5185   7.102   2.228   3.320  0.1531  0.1284  0.2605
  986W        W 5186   9.927   1.924   3.553  0.0774 -0.0487  0.1517
  987W        W 5187   9.280   3.071   2.623  0.0907 -0.1286  0.2949
  988W        W 5188   5.341   5.744   3.044 -0.0703  0.0320  0.2527
  989W        W 5189   0.628   5.733  10.417  0.0785 -0.1242 -0.0216
  990W        W 5190   4.322   7.416   4.116  0.1836  0.1965  0.0882
  991W        W 5191   7.121   2.001  11.660 -0.0835 -0.0049  0.1143
  992W        W 5192   3.477   8.016   2.026  0.2412 -0.0425  0.1649
  993W        W 5193   1.570   0.374   9.773  0.1106 -0.1929 -0.0463
  994W        W 5194   7.501   8.226   4.654  0.1631  0.0284  0.1607
  995W        W 5195   5.429   9.174   8.682 -0.2049 -0.3788  0.2404
  996W        W 5196   2.233   3.137  11.567  0.0025 -0.2602  0.0811
  997W        W 5197   8.802   3.363   0.254  0.0062 -0.0459 -0.2756
  998W        W 5198   8.786   6.482  11.562  0.1274 -0.1596  0.1315
  999W        W 5199   6.573   4.441   0.783  0.0380 -0.0813  0.0014
 1000W        W 5200   8.770   7.265  13.442 -0.0694  0.1909  0.1387
 1001W        W 5201   7.008   4.420   9.783 -0.1434 -0.0829 -0.4755
 1002W        W 5202   5.080   1.563  10.580  0.0934 -0.0305 -0.1738
 1003W        W 5203   6.991   4.311   2.018 -0.0129  0.4064 -0.0142
 1004W        W 5204   4.854   2.218  12.928  0.1182 -0.2569  0.0197
 1005W        W 5205   1.027   0.873  11.852  0.0771 -0.6739  0.1378
 1006W        W 5206   0.187   4.951  13.187 -0.4997 -0.4192  0.0471
 1007W        W 5207   6.515   6.607   2.578 -0.0852 -0.1911  0.0526
 1008W        W 5208   1.805   5.843   3.949  0.0624  0.0047 -0.0079
 1009W        W 5209   4.921   4.878   8.899 -0.2876 -0.0856 -0.0641
 1010W        W 5210   6.842   6.411   2.190  0.3035 -0.0318 -0.0300
 1011W        W 5211   2.454   0.758   1.856 -0.1053 -0.0350  0.3269
 1012W        W 5212   6.257   9.705   1.338  0.2095 -0.0649 -0.1399
 1013W        W 5213  10.439   3.164   3.098  0.1380  0.1527  0.1475
 1014W        W 5214   4.016   7.869  11.867  0.0399  0.0631  0.2174
 1015W        W 5215   3.675   5.693   4.864 -0.4915 -0.0858 -0.1664
 1016W        W 5216   0.641   7.307   0.266 -0.2638 -0.0119  0.2353
 1017W        W 5217   0.961   7.583  12.334  0.2117  0.0712 -0.0752
 1018W        W 5218   0.125   8.263   0.239 -0.3769  0.1067 -0.3536
 1019W        W 5219   8.309   8.288   1.913  0.2348 -0.1154  0.0175
 1020W        W 5220   3.371   1.858   9.020  0.0643 -0.0132 -0.0704
 1021W        W 5221   5.057  10.400   1.354 -0.1047  0.2279 -0.1212
 1022W        W 5222   3.299   3.049   9.591 -0.0138 -0.2259 -0.0410
 1023W        W 5223   9.098   0.060   1.780 -0.2151  0.0100  0.2588
 1024W        W 5224   5.840   2.417   2.808 -0.1213  0.0719 -0.1050
 1025W        W 5225   7.301  10.143   1.213 -0.1217 -0.1045  0.0560
 1026W        W 5226   1.264   5.457   4.269 -0.0584 -0.3327 -0.3138
 1027W        W 5227   0.716   6.338   4.030  0.2039  0.1024 -0.1157
 1028W        W 5228   8.552   6.949   2.356 -0.0565 -0.3355 -0.0365
 1029W        W 5229   9.094   9.304  13.469  0.0922  0.3938  0.2420
 1030W        W 5230   5.543   5.147   2.014  0.4107  0.1401 -0.1410
 1031W        W 5231   3.025   1.780  12.402  0.0219  0.1098 -0.0364
 1032W        W 5232   6.231   3.539  12.425  0.4021 -0.2259  0.0284
 1033W        W 5233   0.861   1.444   1.881 -0.1932  0.2028  0.1839
 1034W        W 5234   9.161   7.023   3.263  0.0330 -0.1424  0.0756
 1035W        W 5235   7.861   4.511  12.767  0.1963 -0.1695 -0.1589
 1036W        W 5236   1.970  10.051   4.036 -0.0891  0.3452 -0.3362
 1037W        W 5237   0.881   6.926   4.050 -0.2932  0.0324 -0.1272
 1038W        W 5238   4.999   6.557  11.025  0.3740 -0.3455 -0.1193
 1039W        W 5239   1.428   5.756   1.948 -0.0883  0.2620  0.0543
 1040W        W 5240  10.238   5.138  12.963 -0.2678 -0.3060  0.1242
 1041W        W 5241   3.374   3.562   0.190  0.1471  0.1861  0.1163
 1042W        W 5242   2.735   9.607  11.835 -0.0278 -0.0030 -0.1458
 1043W        W 5243   6.469   3.831   0.825 -0.1171  0.2089 -0.5146
 1044W        W 5244   6.323   6.594   0.027 -0.1377 -0.0713  0.1279
 1045W        W 5245   2.789   0.024  10.742  0.1773 -0.2150  0.1472
 1046W        W 5246   6.674   7.609  11.224 -0.1554 -0.0599  0.2301
 1047W        W 5247   1.071   7.141  11.381 -0.2273 -0.0875 -0.0767
 1048W        W 5248   3.056   7.254  11.887  0.2818 -0.0809  0.1624
 1049W        W 5249   2.074   9.376   3.206 -0.3012  0.1124  0.2690
 1050W        W 5250   1.871   9.270  10.364  0.1978  0.0898  0.0258
 1051W        W 5251   5.522   5.147   1.548 -0.0089  0.3340  0.0220
 1052W        W 5252   0.393   1.773  11.154  0.1691  0.2708  0.1196
 1053W        W 5253   8.895   6.237   9.522  0.2057  0.1473 -0.0892
 1054W        W 5254   2.918   0.199   1.139  0.0865  0.0487 -0.2094
 1055W        W 5255   7.062   5.244   4.945 -0.2495  0.1367  0.1367
 1056W        W 5256   7.716  10.036   0.810  0.1161  0.2319  0.0524
 1057W        W 5257   2.639  10.453  11.574  0.0602 -0.0226 -0.1173
 1058W        W 5258   3.464   2.478   3.325  0.1153 -0.0528  0.0187
 1059W        W 5259   3.878   7.829  10.995 -0.0312 -0.2135 -0.3531
 1060W        W 5260   4.395   7.107   0.703  0.1235  0.0919 -0.3286
 1061W        W 5261   4.892   0.574   4.974 -0.0759  0.1912  0.0484
 1062W        W 5262   5.775   7.076  11.802  0.2532 -0.1920  0.3178
 1063W        W 5263   5.040   4.484  10.025  0.1604 -0.2074  0.2611
 1064W        W 5264   3.778   1.226   2.482 -0.1059  0.1580  0.2504
 1065W        W 5265   5.479   8.199   2.231 -0.0348  0.2237  0.1859
 1066W        W 5266   3.929   5.891   3.317 -0.1222 -0.0086  0.1823
 1067W        W 5267  10.157   6.946   9.507  0.2323  0.0101  0.0518
 1068W        W 5268   5.752   4.981   9.583  0.1746  0.0995 -0.1548
 1069W        W 5269   4.786   6.138   2.614  0.0020  0.0601 -0.1302
 1070W        W 5270   5.744  10.058   9.690 -0.0780 -0.0013 -0.4284
 1071W        W 5271   9.317   3.304   0.227 -0.0981  0.0611  0.1354
 1072W        W 5272   7.604   3.295   3.424 -0.0452 -0.3612  0.2399
 1073W        W 5273   3.054   0.915  10.243  0.1032 -0.1868 -0.2554
 1074W        W 5274   8.666   0.437   0.990 -0.0880  0.1242  0.3446
 1075W        W 5275   9.897   5.490   2.762  0.0783  0.0945  0.0263
 1076W        W 5276   5.507   1.833   3.379 -0.1681  0.1168  0.3326
 1077W        W 5277   3.763   0.906   3.584  0.1637 -0.1226 -0.0996
 1078W        W 5278   5.389   7.422  11.234 -0.2175  0.1986 -0.1911
 1079W        W 5279   5.254   0.786   0.807 -0.0586 -0.1881 -0.0049
 1080W        W 5280   6.434   4.067   1.260  0.2152  0.1178 -0.0591
 1081W        W 5281   6.391   7.794  10.673  0.1676  0.2840 -0.1318
 1082W        W 5282   7.887   8.726   2.570 -0.1169 -0.0395  0.0597
 1083W        W 5283   8.282   6.731  10.677 -0.2142 -0.1174  0.1626
 1084W        W 5284   2.177   1.298   0.063  0.1639  0.2878  0.2078
 1085W        W 5285   1.655   7.340  10.197 -0.1175 -0.0218 -0.0232
 1086W        W 5286   6.849   2.283   4.626 -0.4698  0.0661 -0.1056
 1087W        W 5287   8.292   9.840  13.437  0.0983 -0.2114  0.3853
 1088W        W 5288   3.342   9.353   2.154 -0.2958 -0.4063  0.0804
 1089W        W 5289   3.684   7.245   4.198 -0.0813  0.0042 -0.1848
 1090W        W 5290   6.634   0.025  12.480 -0.0190 -0.1938 -0.1416
 1091W        W 5291   8.701   2.410   0.155  0.0711  0.0872 -0.0243
 1092W        W 5292   4.635   8.031  11.289  0.5434  0.3633  0.1777
 1093W        W 5293   6.436   7.778   0.406 -0.2224  0.0739  0.2025
 1094W        W 5294   8.786   1.467   0.821 -0.2585 -0.1793 -0.0357
 1095W        W 5295   9.955   7.143  10.848  0.3326 -0.2113 -0.1785
 1096W        W 5296   2.506   7.836  11.304  0.2701  0.1291  0.1587
 1097W        W 5297  10.384   5.830   3.438 -0.3624 -0.0213  0.0724
 1098W        W 5298   3.632   0.429   3.746 -0.2611 -0.0983 -0.1446
 1099W        W 5299   3.283   0.577  11.839 -0.0828 -0.1658 -0.1893
 1100W        W 5300   7.204   0.807   0.008 -0.3068  0.1928  0.1309
 1101W        W 5301   8.817   7.722  12.834 -0.0413 -0.0708  0.1969
 1102W        W 5302   3.405   6.289   9.497 -0.2503  0.0455  0.2988
 1103W        W 5303   5.493   8.938  10.711  0.2389 -0.1433 -0.1488
 1104W        W 5304   4.403   6.463  10.976 -0.0347  0.1379  0.1014
 1105W        W 5305  10.441   8.017   3.176  0.3408 -0.1609 -0.0036
 1106W        W 5306   4.043   3.329   3.195  0.0012  0.0813  0.0074
 1107W        W 5307   2.916   7.852  10.486  0.0434  0.1239  0.0019
 1108W        W 5308  10.138   6.031   9.974 -0.0136 -0.0773 -0.1587
 1109W        W 5309   9.862   3.482   0.121 -0.0007  0.0356 -0.3264
 1110W        W 5310   3.927   7.279   3.725  0.0927  0.1623  0.0823
 1111W        W 5311   2.178   6.600  11.827 -0.4114  0.0175 -0.1793
 1112W        W 5312   7.559   5.538   3.676  0.2142 -0.1751 -0.3326
 1113W        W 5313   0.287   0.905  12.548  0.2848  0.2211 -0.2582
 1114W        W 5314   3.192   6.851  11.668 -0.0857  0.0538  0.2113
 1115W        W 5315   2.704   3.305   0.854 -0.3256  0.1832 -0.0742
 1116W        W 5316   3.787   8.381   3.073  0.1595  0.0621 -0.4077
 1117W        W 5317   5.849   7.753   2.408  0.1520 -0.1988  0.0885
 1118W        W 5318   1.327   8.214   3.274 -0.1966 -0.0653 -0.1154
 1119W        W 5319   0.326   0.470  12.371 -0.6984  0.0064 -0.0562
 1120W        W 5320   5.622   7.349   1.555  0.1525  0.0052  0.0567
 1121W        W 5321   2.561   1.508   1.871 -0.1095 -0.3467 -0.0089
 1122W        W 5322   0.917   3.954  10.924 -0.0392  0.3548 -0.2639
 1123W        W 5323   8.376   4.634   2.227  0.0540  0.1736 -0.0467
 1124W        W 5324   4.114   3.650  11.269  0.1059 -0.0131 -0.1049
 1125W        W 5325   2.945   7.639   3.286  0.3070  0.2773  0.1408
 1126W        W 5326   8.058   2.191   1.601  0.0845 -0.1880 -0.0129
 1127W        W 5327   6.062   7.804  12.348  0.1782  0.1779 -0.1437
 1128W        W 5328   4.018   9.283   0.333  0.0617 -0.3734  0.0365
 1129W        W 5329   9.561   3.384   2.270 -0.0430 -0.1624  0.0706
 1130W        W 5330   4.429   4.612  13.325 -0.1254 -0.2785  0.0274
 1131W        W 5331   2.085   0.433  10.118 -0.4054 -0.1891 -0.1143
 1132W        W 5332   8.602   3.513   8.540  0.0105  0.1676 -0.2446
 1133W        W 5333   6.969   0.326  12.762 -0.1579  0.1893 -0.1065
 1134W        W 5334   2.817   1.813  12.897 -0.1111  0.0157 -0.1312
 1135W        W 5335   8.562   7.271  11.034  0.1158  0.2959  0.2501
 1136W        W 5336   6.252   0.017  12.104  0.2908 -0.1903  0.1750
 1137W        W 5337   4.443   3.315   9.119 -0.3169 -0.1384 -0.0220
 1138W        W 5338   8.940   8.129   0.741 -0.1398 -0.1534 -0.0632
 1139W        W 5339   6.493   1.337  13.126 -0.1363 -0.1116 -0.0417
 1140W        W 5340   5.699   7.960  11.969  0.0406  0.2979 -0.4031
 1141W        W 5341   1.975   8.830  10.011 -0.2797  0.1087  0.2616
 1142W        W 5342   0.496   2.429   3.229 -0.3872  0.1629 -0.0106
 1143W        W 5343   5.777   9.588   9.987  0.2334 -0.1208 -0.0974
 1144W        W 5344   7.309   5.567  11.902  0.1378 -0.0152 -0.0495
 1145W        W 5345   7.135   8.272   9.831 -0.1439  0.1964  0.3840
 1146W        W 5346   6.381  10.144   1.505 -0.0006 -0.1364 -0.1716
 1147W        W 5347   3.083  10.263   0.230 -0.0788  0.1080  0.0377
 1148W        W 5348   7.484   1.385  10.600  0.1946  0.0172  0.0565
 1149W        W 5349   1.041   3.190   0.609 -0.1538  0.2597  0.1804
 1150W        W 5350   5.791   7.426   4.707  0.0221 -0.0924 -0.0927
 1151W        W 5351   6.260   1.230   0.052 -0.2399 -0.0146 -0.2608
 1152W        W 5352   8.728   6.830   8.300 -0.2693  0.2875  0.2000
 1153W        W 5353   6.333   2.984   9.175 -0.0508 -0.0502  0.1056
 1154W        W 5354   6.044   1.937  10.677  0.1326 -0.1642 -0.1024
 1155W        W 5355   5.657   1.306   2.710 -0.1486 -0.0482  0.3318
 1156W        W 5356   5.122   2.648   9.180 -0.1457  0.1780 -0.2986
 1157W        W 5357   6.572   4.384   3.727 -0.0904 -0.1531 -0.2016
 1158W        W 5358   0.590   9.774   1.384 -0.2549  0.4737 -0.3930
 1159W        W 5359   2.563  10.359   4.018  0.0097 -0.1265  0.1820
 1160W        W 5360   3.955   3.999   4.174 -0.1091  0.0782  0.0094
 1161W        W 5361   0.524   8.234  13.411  0.0141  0.0262 -0.1055
 1162W        W 5362   7.189   9.179  12.857 -0.0886 -0.1145  0.0658
 1163W        W 5363   3.812   1.143   0.069 -0.0664  0.1320  0.1854
 1164W        W 5364   8.445   9.575  10.731 -0.1869  0.3021 -0.3730
 1165W        W 5365   6.665   0.182  11.559 -0.4720 -0.0995  0.0117
 1166W        W 5366   4.569   2.568  12.702  0.3401 -0.1891 -0.2929
 1167W        W 5367   5.329   4.201  11.737 -0.0219  0.0727 -0.0274
 1168W        W 5368   8.993   7.676  13.431 -0.2342 -0.2020 -0.0261
 1169W        W 5369   4.636   1.886   2.738  0.1078 -0.2347  0.0598
 1170W        W 5370   7.282   8.578  12.881  0.0072 -0.4501 -0.0085
 1171W        W 5371   3.497   6.122   3.066 -0.3094  0.0330  0.2814
 1172W        W 5372   1.450  10.081   1.012 -0.0467 -0.6049 -0.2266
 1173W        W 5373   8.682   9.514  11.280  0.0696  0.0088  0.1610
 1174W        W 5374   0.671   2.897  13.468  0.3728  0.1035 -0.1698
 1175W        W 5375   8.917   7.131  12.510  0.0857 -0.2421  0.1240
 1176W        W 5376   7.703   9.464   2.248  0.1893  0.1264  0.1531
 1177W        W 5377   4.858   9.387   0.789 -0.3450 -0.0468  0.0924
 1178W        W 5378   3.150   7.422   2.402 -0.2022 -0.2975  0.0254
 1179W        W 5379  10.342   3.722   9.909 -0.0280 -0.3460  0.0635
 1180W        W 5380   4.351   4.132   2.990  0.2917 -0.0930  0.0472
 1181W        W 5381   5.470  10.079  10.575 -0.2456 -0.1509 -0.0887
 1182W        W 5382   5.388   2.118   9.305  0.1632  0.3405  0.1577
 1183W        W 5383   1.180   8.531   2.430 -0.1274 -0.2194 -0.1578
 1184W        W 5384   5.690   9.605   1.286 -0.1688 -0.0586  0.1558
 1185W        W 5385   7.904   5.429   4.493 -0.0683 -0.0560 -0.0552
 1186W        W 5386   4.807   2.504   0.800  0.0847  0.0451  0.1425
 1187W        W 5387   7.769   9.507  11.578 -0.1396  0.0865  0.2316
 1188W        W 5388   9.734   1.171  12.215 -0.0305 -0.0547 -0.1918
 1189W        W 5389   1.248   2.983   4.190  0.1530 -0.1355 -0.5170
 1190W        W 5390   2.112   3.638  11.727  0.1853  0.1865  0.1319
 1191W        W 5391   7.770   1.135   1.849 -0.0446 -0.1865 -0.0705
 1192W        W 5392   8.443   6.071  12.343  0.1409  0.0705  0.4176
 1193W        W 5393   7.198   0.138  10.336  0.1775  0.3328  0.0729
 1194W        W 5394   6.789   2.552   2.518 -0.1854 -0.2947 -0.1272
 1195W        W 5395   9.165   9.843  13.406  0.0599 -0.1586  0.1656
 1196W        W 5396   6.134   9.555   9.086  0.0124 -0.2534 -0.1405
 1197W        W 5397  10.223   6.356  13.206 -0.4062  0.3954 -0.0348
 1198W        W 5398   5.386   5.666  11.882  0.3742 -0.3338 -0.2483
 1199W        W 5399   5.297   9.844   3.998 -0.2680 -0.2511  0.1098
 1200W        W 5400   9.505   7.022   0.543 -0.0241  0.2036 -0.0370
 1201W        W 5401   2.128  10.121  13.414  0.4454 -0.0352 -0.3112
 1202W        W 5402   7.563   3.377   9.303  0.1821 -0.2406 -0.3097
 1203W        W 5403   0.555   3.000   2.978 -0.2560  0.3582 -0.1486
 1204W        W 5404   1.836   6.837  10.342  0.1841 -0.0951 -0.0421
 1205W        W 5405   0.868   3.179  12.915  0.1357  0.0004  0.1164
 1206W        W 5406   8.139   4.675   0.175  0.2173 -0.0162  0.0568
 1207W        W 5407   0.572   1.165   4.526  0.3550 -0.1585  0.1150
 1208W        W 5408   9.518   3.943  12.743  0.0242 -0.0463  0.3111
 1209W        W 5409   5.029  10.394   0.829  0.2982 -0.2645 -0.0385
 1210W        W 5410   9.104   6.684  10.589 -0.2865 -0.0172 -0.2118
 1211W        W 5411   4.128   0.219   9.212 -0.2449 -0.0416  0.1918
 1212W        W 5412   1.883   6.970   0.201  0.1368  0.0111 -0.1729
 1213W        W 5413   8.394   8.799   4.275  0.3282  0.0163 -0.0289
 1214W        W 5414   7.641   6.519   9.687 -0.1135  0.1846 -0.4584
 1215W        W 5415   6.168   8.029   8.707 -0.0711 -0.2006  0.0605
 1216W        W 5416   5.470   7.307   2.418  0.0132  0.4428 -0.2139
 1217W        W 5417   5.439   2.336   2.216  0.0745  0.0370 -0.3046
 1218W        W 5418   7.457   1.883  12.059 -0.0059 -0.1305  0.1462
 1219W        W 5419   3.286   8.827   2.283  0.0093 -0.1745  0.2748
 1220W        W 5420   8.180   5.881   3.925  0.2151 -0.0815 -0.0746
 1221W        W 5421   3.957   5.310   4.192 -0.1635  0.0570 -0.0009
 1222W        W 5422   3.967   7.618  12.344 -0.1000 -0.0556  0.1592
 1223W        W 5423   4.537   7.963   3.051  0.0890  0.1677 -0.1057
 1224W        W 5424   7.883   7.770   2.787 -0.2751 -0.4102 -0.1309
 1225W        W 5425   5.074   7.289   9.586 -0.3208  0.1812  0.4498
 1226W        W 5426   6.632   4.925  11.383  0.0820  0.1207 -0.2392
 1227W        W 5427  10.228   2.307   4.407  0.1425  0.3144  0.1773
 1228W        W 5428   4.615   6.211   3.162 -0.0635  0.2128  0.0392
 1229W        W 5429   7.461   0.756   1.856  0.2135  0.0854  0.0678
 1230W        W 5430   2.847   1.354   8.982  0.0282 -0.0673  0.1059
 1231W        W 5431   1.815   1.594   0.560 -0.2146  0.1143  0.0863
 1232W        W 5432   1.916   9.762   1.050  0.2843  0.1620 -0.2266
 1233W        W 5433   6.067   1.456   1.295 -0.1762  0.1294 -0.0559
 1234W        W 5434   2.576   7.957  12.258  0.1612  0.0206 -0.0827
 1235W        W 5435   4.119   7.272   1.988  0.2344 -0.2544  0.0246
 1236W        W 5436   1.095   2.680   9.272 -0.0867 -0.0282 -0.0253
 1237W        W 5437   6.218   9.147  10.947  0.3828  0.0552 -0.0721
 1238W        W 5438   3.965   6.809   2.432  0.1197 -0.1257  0.4858
 1239W        W 5439   3.739   5.111   9.797  0.0924 -0.1658 -0.2798
 1240W        W 5440   3.593   5.777   4.047 -0.2732  0.0436 -0.0483
 1241W        W 5441   6.667   4.595  10.452 -0.1050 -0.0915 -0.0981
 1242W        W 5442  10.248   8.811  10.138  0.0198  0.4729  0.3271
 1243W        W 5443   4.130   8.010   3.328  0.1069  0.1766  0.4285
 1244W        W 5444   1.438   8.726   0.361  0.0416 -0.2663 -0.2570
 1245W        W 5445   6.120   5.798   8.721 -0.1837 -0.0586 -0.2447
 1246W        W 5446   5.957  10.008  11.340 -0.0591 -0.0961  0.1853
 1247W        W 5447   3.791   4.944   0.029 -0.0148  0.0535 -0.1106
 1248W        W 5448   2.841   3.851   3.192 -0.1471 -0.3398  0.3114
 1249W        W 5449   9.999   0.728   0.128  0.1449  0.0805 -0.0808
 1250W        W 5450   2.864   4.389  12.340 -0.0399  0.1259 -0.0816
 1251W        W 5451   7.913   7.259  10.503 -0.0098  0.0191 -0.0553
 1252W        W 5452   8.909   8.148   2.875 -0.1415 -0.0957 -0.0205
 1253W        W 5453   2.758   6.585   1.373 -0.0833  0.0408 -0.1676
 1254W        W 5454   7.809   0.174   1.979 -0.1020 -0.1554  0.1389
 1255W        W 5455   4.699   5.645   2.399  0.5365 -0.2929  0.1383
 1256W        W 5456   9.362   6.884  11.419  0.0470 -0.1302  0.4021
 1257W        W 5457   3.456   8.274   9.124  0.0189  0.0283  0.0021
 1258W        W 5458   8.266  10.431  11.684  0.0570  0.3747  0.1132
 1259W        W 5459   7.402   2.226   2.720  0.1410  0.1262 -0.1318
 1260W        W 5460  10.336   9.776  13.195  0.0502 -0.2132 -0.0864
 1261W        W 5461   1.791   0.397  11.017  0.3000 -0.0209 -0.0159
 1262W        W 5462   0.007   8.455   2.672 -0.0132 -0.2826 -0.1571
 1263W        W 5463   3.533   5.187  13.122 -0.0631 -0.1956  0.1066
 1264W        W 5464   6.646   9.696  12.850  0.1916  0.1481 -0.1746
 1265W        W 5465   3.430   6.059   2.527  0.1602  0.2312  0.0260
 1266W        W 5466   6.901   2.694   3.952 -0.1280 -0.3168 -0.0311
 1267W        W 5467   4.120   1.308  12.283 -0.3196 -0.0140 -0.1769
 1268W        W 5468   1.365   3.382   2.438 -0.1995 -0.1015 -0.0019
 1269W        W 5469   5.549   5.312   8.217 -0.1918  0.1169 -0.2006
 1270W        W 5470   3.702   1.644   0.520 -0.0877 -0.1816 -0.1276
 1271W        W 5471   1.074  10.200  12.088  0.0812 -0.1221  0.0113
 1272W        W 5472  10.006   5.690   9.093 -0.1689  0.1245 -0.2963
 1273W        W 5473   2.191  10.145   9.636 -0.1097 -0.0089 -0.0615
 1274W        W 5474   7.361   9.142  10.484  0.1483  0.0072 -0.2480
 1275W        W 5475   0.190   0.682   3.403 -0.0203 -0.2481  0.2287
 1276W        W 5476   9.565   6.044   1.357  0.1250  0.1254 -0.0062
 1277W        W 5477   9.802   9.927  10.694 -0.1464 -0.0047  0.2442
 1278W        W 5478   8.398   3.577  11.485 -0.1256 -0.1493  0.1757
 1279W        W 5479   6.200   7.458  11.320  0.2450 -0.0652 -0.0443
 1280W        W 5480   1.409   2.352  11.924 -0.2328  0.1870 -0.1122
 1281W        W 5481   0.819   1.291   2.350  0.1123 -0.2617  0.0681
 1282W        W 5482   5.044   1.275   4.032 -0.3643 -0.0079 -0.1316
 1283W        W 5483   6.129   5.630  11.470  0.0775 -0.2714  0.0106
 1284W        W 5484   6.138   3.282   3.079  0.1592 -0.1945 -0.1259
 1285W        W 5485   1.045   8.523   0.166  0.3171  0.1447 -0.1896
 1286W        W 5486   0.957   9.140  11.185  0.2001  0.0736 -0.1874
 1287W        W 5487   3.049   5.677  10.330 -0.0168  0.1089  0.1996
 1288W        W 5488   8.557   2.202   9.358 -0.3626 -0.1743 -0.0395
 1289W        W 5489   8.066   3.822   3.803  0.0526 -0.3247  0.3331
 1290W        W 5490   5.800   8.757  11.596 -0.0441  0.2260  0.0911
 1291W        W 5491   6.651   6.162  13.464 -0.2739 -0.1287 -0.0292
 1292W        W 5492   7.138   2.712   4.865  0.4454  0.0382 -0.0919
 1293W        W 5493   0.228   7.080   4.395  0.2371 -0.1542  0.0225
 1294W        W 5494   0.340   2.026   3.543 -0.0217  0.1967  0.3934
 1295W        W 5495   8.809   8.479   2.040  0.1749 -0.1143 -0.2024
 1296W        W 5496   2.161   7.893   1.348 -0.0040 -0.3117 -0.1446
 1297W        W 5497   0.388   6.116   9.103 -0.4031  0.4540 -0.1900
 1298W        W 5498   7.829   0.276   1.486  0.3275  0.2522  0.2357
 1299W        W 5499   8.427   9.993  12.029  0.1524  0.2056  0.0002
 1300W        W 5500   5.848   5.618   1.901 -0.0630  0.0075  0.0994
 1301W        W 5501   8.865   9.844  10.559 -0.0288 -0.2908 -0.3008
 1302W        W 5502   9.965   1.650   1.839 -0.2036 -0.0701 -0.0815
 1303W        W 5503   8.647   0.261  11.428 -0.4405  0.2244 -0.0402
 1304W        W 5504   2.442   7.852   0.548 -0.1580  0.0692  0.2742
 1305W        W 5505   7.169   8.017  10.509 -0.2997  0.2402 -0.2299
 1306W        W 5506   5.113  10.344  10.226  0.1376 -0.0520  0.0547
 1307W        W 5507   5.891   7.857   3.232  0.3528 -0.2723 -0.2369
 1308W        W 5508   4.435   2.560   9.779  0.0568  0.0670  0.2146
 1309W        W 5509  10.239   6.599   0.335 -0.0776 -0.1771  0.0213
 1310W        W 5510   0.336   7.405   1.616 -0.1729  0.3324 -0.2922
 1311W        W 5511   8.722   3.433   2.080 -0.1316  0.0343  0.0947
 1312W        W 5512   4.590   8.086   1.108  0.2032  0.2044  0.0802
 1313W        W 5513   7.861   6.321   4.179  0.3489  0.1307  0.0121
 1314W        W 5514   4.648   6.674   3.424 -0.2814 -0.0770  0.0222
 1315W        W 5515   0.515   5.053   4.608 -0.3928  0.1393 -0.1617
 1316W        W 5516   0.878   7.271   2.467  0.2348 -0.2034 -0.1689
 1317W        W 5517   2.591   0.811  10.061 -0.0279 -0.0879 -0.4148
 1318W        W 5518   7.333   0.253   2.004 -0.0369 -0.2363 -0.1937
 1319W        W 5519   6.040   3.977   9.426 -0.0965 -0.2359  0.2505
 1320W        W 5520   4.841   0.093   4.802 -0.2746  0.2242  0.1828
 1321W        W 5521   8.157   1.032   3.067 -0.0522  0.0896 -0.1641
 1322W        W 5522   3.367   7.776  13.023  0.1894 -0.1761  0.1329
 1323W        W 5523   3.741   2.739  12.087 -0.1054  0.2758  0.1867
 1324W        W 5524   7.922   9.776   1.894 -0.2119 -0.1540 -0.1053
 1325W        W 5525   7.650   6.300  13.417  0.1307 -0.1008 -0.3104
 1326W        W 5526   4.338   0.937   1.620 -0.0214  0.1291  0.3857
 1327W        W 5527   4.879   3.479  12.140 -0.1508 -0.2122 -0.1487
 1328W        W 5528   5.777   1.822   1.213  0.3476 -0.0003  0.1686
 1329W        W 5529   4.341   7.091   3.463  0.0002 -0.2005 -0.0115
 1330W        W 5530   3.812   6.277  10.274 -0.1496 -0.3461  0.1591
 1331W        W 5531   9.816   5.422  11.453 -0.2719 -0.1610  0.0951
 1332W        W 5532   0.198   3.668   2.834 -0.0194 -0.2380  0.1877
 1333W        W 5533   4.978   9.076  11.435  0.0027  0.3266  0.0186
 1334W        W 5534   6.085   4.728   2.700  0.0148  0.0089 -0.1374
 1335W        W 5535   9.322   1.527  12.148  0.0785  0.0162 -0.4495
 1336W        W 5536   7.824   3.155  12.875 -0.1287  0.0051 -0.1311
 1337W        W 5537   2.540   0.930   2.697  0.2462 -0.3745  0.0025
 1338W        W 5538   3.969   6.496   8.275  0.1311 -0.0736 -0.5094
 1339W        W 5539   2.066   7.800  13.249  0.1131  0.0800  0.0951
 1340W        W 5540   0.919   9.444   2.923  0.0936 -0.0747  0.1159
 1341W        W 5541   1.165  10.110  12.591  0.0056  0.0100  0.2710
 1342W        W 5542   0.531   5.470  10.902  0.0241 -0.1658  0.4897
 1343W        W 5543   3.743   4.262   4.965 -0.1233  0.1993 -0.2687
 1344W        W 5544   3.070  10.423  11.884  0.0806  0.1997  0.0171
 1345W        W 5545   7.969  10.378   2.515 -0.2282  0.1271 -0.1006
 1346W        W 5546   2.234   7.395   1.966 -0.1237  0.2159 -0.0046
 1347W        W 5547   6.268   1.421  11.850  0.0339 -0.0325 -0.0443
 1348W        W 5548   2.769   4.219  11.398  0.1887  0.2532  0.2381
 1349W        W 5549   1.303   7.252  12.380  0.2650 -0.0095 -0.1786
 1350W        W 5550   5.137   2.698   0.485 -0.1705  0.0300 -0.1288
 1351W        W 5551   8.790   4.670   3.471  0.0210  0.1429 -0.1968
 1352W        W 5552   0.688   6.197  10.520  0.3301 -0.0701 -0.2296
 1353W        W 5553   2.491   9.574   1.915 -0.4606  0.0731 -0.0698
 1354W        W 5554   1.775   5.577   1.207  0.0052  0.1075  0.2271
 1355W        W 5555   2.777   7.470   4.165 -0.2981  0.1041  0.1362
 1356W        W 5556   3.563   7.139  12.096 -0.0890  0.2255  0.1763
 1357W        W 5557   7.240   6.571   0.283  0.3505  0.0848  0.1012
 1358W        W 5558   2.496   2.710   0.158 -0.0309  0.1587 -0.0103
 1359W        W 5559   3.362   1.237   9.056 -0.0706  0.0763  0.3415
 1360W        W 5560   7.995   2.573  10.647 -0.2270  0.1067  0.0637
 1361W        W 5561   1.627   6.540   0.832  0.0265  0.2704  0.0191
 1362W        W 5562   8.229   0.721  11.646  0.1818 -0.0606  0.0251
 1363W        W 5563   7.491  10.430   2.579  0.0292  0.1170  0.4189
 1364W        W 5564   2.560   1.015   4.429 -0.2793 -0.1766 -0.1056
 1365W        W 5565   3.020   2.635  12.842  0.2627 -0.3332 -0.0528
 1366W        W 5566   6.023   4.268   0.068 -0.1915  0.0712 -0.0084
 1367W        W 5567   2.939   5.268  10.596  0.1393 -0.0106 -0.0454
 1368W        W 5568   6.206   9.821  10.107  0.0191  0.1321  0.1842
 1369W        W 5569   1.403   7.201   1.639 -0.2359 -0.3235  0.0660
 1370W        W 5570   5.381   7.271   3.993 -0.2659 -0.1495 -0.0685
 1371W        W 5571   7.930   7.859  11.545 -0.0942  0.0882 -0.1100
 1372W        W 5572   3.525   3.689  11.717  0.2080  0.1956 -0.0993
 1373W        W 5573   5.696   3.082   1.731  0.1352 -0.2341 -0.0974
 1374W        W 5574   6.994   7.955  11.377 -0.2276 -0.0673 -0.3476
 1375W        W 5575   5.940   6.435   3.877 -0.1046 -0.1721 -0.2130
 1376W        W 5576   4.469   4.787  10.105 -0.0105  0.2032  0.2306
 1377W        W 5577   6.810   4.753   2.019 -0.4247  0.2090 -0.1721
 1378W        W 5578   9.133   8.228   1.276  0.0461 -0.4091 -0.1358
 1379W        W 5579   2.243   1.445   5.119 -0.1554  0.0518 -0.1599
 1380W        W 5580   3.652   2.132   2.698 -0.0888  0.0852  0.0284
 1381W        W 5581   3.272   1.620   3.282 -0.2213  0.2704 -0.0845
 1382W        W 5582   8.202   9.037   0.673 -0.1683  0.0079  0.1627
 1383W        W 5583   5.160   3.538   1.457 -0.1472 -0.0488 -0.2795
 1384W        W 5584   2.915   9.557   9.619 -0.0459 -0.0705  0.0485
 1385W        W 5585   4.280   4.263   0.635  0.1125  0.2548 -0.0016
 1386W        W 5586   7.347   4.980  10.585  0.0615  0.1883  0.2594
 1387W        W 5587   7.547   7.747   2.376 -0.2471 -0.0223 -0.3064
 1388W        W 5588   7.807   5.036   1.170 -0.1111  0.3501 -0.0030
 1389W        W 5589   2.417  10.392  11.066  0.1288 -0.2611  0.0282
 1390W        W 5590   3.602   8.431   1.265  0.1275  0.1919 -0.1485
 1391W        W 5591   1.369   5.419   3.259  0.2447  0.0176 -0.3257
 1392W        W 5592   8.683   8.017   0.293 -0.0698 -0.0566  0.0558
 1393W        W 5593   5.934   8.945  12.154  0.4448  0.1327  0.1326
 1394W        W 5594   6.939   0.206   1.638  0.1632 -0.0346  0.0740
 1395W        W 5595   4.270  10.251  10.349  0.1010  0.4028  0.0711
 1396W        W 5596   5.965   1.586   0.826 -0.0910 -0.3825  0.1212
 1397W        W 5597   1.290   5.648  12.924 -0.1234 -0.0139  0.1258
 1398W        W 5598   3.243   9.762   2.531 -0.1568 -0.2908 -0.2170
 1399W        W 5599   1.979  10.384   1.799  0.0176  0.3289  0.2865
 1400W        W 5600   6.941   2.945  11.963  0.0120  0.0468  0.1575
 1401W        W 5601   0.685   0.815   3.505 -0.1194 -0.1472 -0.1763
 1402W        W 5602   6.892   9.901  11.360 -0.0342 -0.0929 -0.2388
 1403W        W 5603   3.521   0.988   4.362  0.1435  0.1324  0.0281
 1404W        W 5604   2.355  10.076  12.894  0.2457  0.2867 -0.0315
 1405W        W 5605   5.932   6.867  10.011 -0.0443  0.0011 -0.1124
 1406W        W 5606   0.465   4.215   0.120 -0.2517 -0.1624 -0.1231
 1407W        W 5607   3.966   7.505   3.289 -0.1149  0.0271  0.3046
 1408W        W 5608   6.262   2.428  11.626 -0.0730  0.0426 -0.3554
 1409W        W 5609   7.006   8.033   2.977 -0.1988  0.2930 -0.1119
 1410W        W 5610   1.478   3.370   2.937 -0.2808 -0.0939  0.0818
 1411W        W 5611   9.592   6.793   3.155 -0.1084  0.0721 -0.0783
 1412W        W 5612   3.792   2.780   0.922  0.1068  0.2680  0.0855
 1413W        W 5613   7.506   8.659  11.949 -0.0173 -0.2686 -0.0263
 1414W        W 5614   3.903   2.550   4.118 -0.1087  0.0356  0.1901
 1415W        W 5615   1.224   9.777   3.075  0.2166  0.5182 -0.0898
 1416W        W 5616   4.685   1.317  10.750 -0.3124 -0.1172 -0.0757
 1417W        W 5617   5.833   7.776  10.431 -0.0476  0.0913  0.0741
 1418W        W 5618   9.167   2.299   0.380  0.4800 -0.0307  0.2261
 1419W        W 5619   4.725   5.143   8.476  0.0668  0.1039  0.0620
 1420W        W 5620   5.688   5.620  10.645 -0.2380  0.1299  0.2063
 1421W        W 5621   5.071   2.713  13.405 -0.0487  0.1769 -0.2420
 1422W        W 5622   7.729   3.548   0.831  0.0698  0.0084  0.1460
 1423W        W 5623   6.891   5.812   0.495  0.2327 -0.3363  0.2299
 1424W        W 5624   5.476   8.740   2.927 -0.0700  0.4032  0.2405
 1425W        W 5625   2.117  10.082  10.811  0.1544  0.0674  0.0423
 1426W        W 5626   9.931   0.946   0.542 -0.1017 -0.1165 -0.2742
 1427W        W 5627   0.412   1.659  10.050 -0.2230 -0.0722  0.1050
 1428W        W 5628   8.475   6.286   4.160 -0.0011 -0.1940 -0.3726
 1429W        W 5629   7.827   1.653  11.019  0.1991  0.0173 -0.0922
 1430W        W 5630  10.076   2.022   9.307 -0.1519  0.1814  0.1408
 1431W        W 5631   8.149   0.271  12.567 -0.2099 -0.0270 -0.0003
 1432W        W 5632   5.459   0.548  11.239  0.1321 -0.0413  0.2972
 1433W        W 5633   5.066   2.682   8.560  0.2837  0.2105  0.2516
 1434W        W 5634   0.936   6.144   3.545  0.1150  0.2312 -0.1183
 1435W        W 5635   6.983   6.509  11.377 -0.0102 -0.2021 -0.0580
 1436W        W 5636   1.130   7.585   1.536 -0.0133  0.0350 -0.0747
 1437W        W 5637   7.982   5.677   1.622  0.1305  0.0818  0.1000
 1438W        W 5638   7.025   3.639   4.174 -0.3575 -0.1123 -0.1341
 1439W        W 5639   9.843   4.140   3.020  0.0277 -0.0387  0.0206
 1440W        W 5640   6.273   1.228  11.275 -0.4189  0.1559 -0.2245
 1441W        W 5641   5.360   1.303   0.752 -0.0986 -0.0084  0.0088
 1442W        W 5642   5.369   9.070  12.727 -0.0419  0.1455 -0.0376
 1443W        W 5643   1.544   3.304  12.278 -0.2254  0.3027 -0.0533
 1444W        W 5644   7.825   4.134  11.746 -0.0320 -0.0781  0.0111
 1445W        W 5645   4.845   0.997   1.553 -0.3543 -0.2974 -0.0516
 1446W        W 5646   7.853  10.330  12.623  0.1885 -0.0921  0.2825
 1447W        W 5647   5.079   2.727   4.083  0.0036  0.2670 -0.1518
 1448W        W 5648   1.259   8.270   4.577  0.1915 -0.0955 -0.2088
 1449W        W 5649   4.123   6.489   1.478  0.1216  0.1621 -0.0063
 1450W        W 5650   0.800   4.527   0.810  0.1826  0.1460  0.2474
 1451W        W 5651   0.287   2.969   3.425 -0.1936  0.2384 -0.1185
 1452W        W 5652   2.293   7.653   3.891  0.0441  0.0610 -0.1761
 1453W        W 5653  10.197   9.917  11.005 -0.0063 -0.3517 -0.0356
 1454W        W 5654   1.801   3.726   0.663 -0.1930 -0.0925 -0.0687
 1455W        W 5655   1.186   3.576  12.711 -0.0670  0.1002  0.3683
 1456W        W 5656   8.152   9.095  11.266 -0.0424  0.3305  0.2674
 1457W        W 5657   8.314   4.789  12.884  0.1518 -0.1494  0.2624
 1458W        W 5658   5.165   6.214   2.154 -0.2184  0.1473 -0.1689
 1459W        W 5659   1.859   5.001  10.789  0.1355  0.0491  0.0149
 1460W        W 5660   7.286   2.036   0.522  0.0821 -0.0054  0.1187
 1461W        W 5661   3.054  10.456   3.207 -0.6005  0.3004  0.0403
 1462W        W 5662   6.936   3.200  10.393 -0.1979  0.0727 -0.1470
 1463W        W 5663   7.719   0.719  10.250  0.2821  0.0071  0.0497
 1464W        W 5664   2.663   1.345  12.821  0.0929 -0.0775 -0.0689
 1465W        W 5665   6.584   8.577  13.313  0.1624  0.2117  0.0407
 1466W        W 5666   3.132   9.654  11.092  0.1167  0.2720  0.0024
 1467W        W 5667   2.438   6.471   0.007 -0.0703 -0.0611 -0.0370
 1468W        W 5668   9.645   1.174   1.415 -0.0098 -0.1327  0.1056
 1469W        W 5669   4.067   1.291   0.423  0.1002  0.0765 -0.1472
 1470W        W 5670   0.018   9.536   2.187  0.3890 -0.1410 -0.2458
 1471W        W 5671   5.488   0.426   2.799  0.1536 -0.2463  0.2599
 1472W        W 5672   5.017   4.198  11.014  0.2461 -0.1407  0.1375
 1473W        W 5673   6.636   1.886   4.293  0.0607  0.0709 -0.2736
 1474W        W 5674   4.245   2.143   0.058 -0.0118  0.3388  0.0758
 1475W        W 5675   7.205  10.470  12.347  0.1780  0.0367 -0.0426
 1476W        W 5676   3.420   5.598   9.929  0.3358  0.4264  0.0571
 1477W        W 5677   7.501   6.825   2.876  0.0781 -0.1014 -0.3051
 1478W        W 5678   3.624   2.144   0.338  0.1689 -0.2659  0.0684
 1479W        W 5679   0.728   3.131   4.405 -0.2294 -0.1963 -0.2078
 1480W        W 5680   7.622   7.572  12.943 -0.2169 -0.1571  0.0997
 1481W        W 5681   2.292   9.688  12.189  0.1421 -0.0148 -0.1006
 1482W        W 5682   2.759   3.060   3.997 -0.2629 -0.0028 -0.2758
 1483W        W 5683   8.872   2.637  10.344  0.2613 -0.3304 -0.0913
 1484W        W 5684   8.633   5.591  12.521 -0.0559 -0.0493 -0.2446
 1485W        W 5685   5.834   7.557   9.904 -0.1636  0.0522  0.1306
 1486W        W 5686   3.043   4.379  10.957 -0.1895  0.3320 -0.4003
 1487W        W 5687   2.819   2.325   0.458 -0.1080 -0.0491  0.0254
 1488W        W 5688   4.078   8.105  10.356 -0.1872 -0.1475  0.1579
 1489W        W 5689   0.159   2.498  11.780 -0.1315 -0.1120 -0.0543
 1490W        W 5690   1.400   6.734   2.647 -0.0221  0.0900  0.1457
 1491W        W 5691   2.162   9.614  13.236  0.0388  0.1204 -0.2363
 1492W        W 5692   3.036   8.898   4.722 -0.0753  0.1182  0.0103
 1493W        W 5693   0.180   8.928  12.974  0.0752  0.3230 -0.1663
 1494W        W 5694   5.737   0.580   3.727 -0.2022  0.2266 -0.1247
 1495W        W 5695   5.832   6.075   0.429  0.0492  0.0798 -0.1489
 1496W        W 5696   6.606   7.352   1.921 -0.0398  0.0221 -0.0622
 1497W        W 5697   3.854   8.219   9.930 -0.0632 -0.0606  0.0063
 1498W        W 5698   2.070   0.427  11.414 -0.0529  0.0299  0.0883
 1499W        W 5699   7.940   3.585   0.293 -0.1812 -0.2485  0.1044
 1500W        W 5700  10.023   3.328   1.772 -0.1299 -0.2386 -0.0050
 1501W        W 5701   8.445   4.267  10.921 -0.1974 -0.0309  0.0483
 1502W        W 5702   1.305   9.305   0.507  0.1975 -0.1104  0.4135
 1503W        W 5703   7.389   4.059   2.595 -0.0974  0.0804 -0.0383
 1504W        W 5704   2.781   6.467  11.711  0.1348 -0.6484 -0.0408
 1505W        W 5705   1.064   0.457   3.167  0.0168 -0.0032 -0.1678
 1506W        W 5706   9.765   4.529  10.912 -0.0028  0.2351 -0.1384
 1507W        W 5707   2.987   9.439   0.372 -0.0186 -0.2210  0.0695
 1508W        W 5708   2.260   8.136   9.165 -0.0856 -0.1574  0.0803
 1509W        W 5709   8.859   2.289  12.600  0.0267  0.0437 -0.4701
 1510W        W 5710   9.518  10.254   1.902 -0.2252  0.1806  0.1125
 1511W        W 5711   0.176   1.487   0.472  0.1498 -0.2350  0.1236
 1512W        W 5712  10.159   0.361   1.759  0.3251 -0.1066  0.2747
 1513W        W 5713   7.390   7.084   3.771  0.2176  0.0505 -0.0613
 1514W        W 5714   8.020   3.434  13.286 -0.2517 -0.3169 -0.3460
 1515W        W 5715   9.523   3.214   3.623  0.2616 -0.0180 -0.1004
 1516W        W 5716   3.944   2.832  13.041  0.1276  0.2272  0.1226
 1517W        W 5717   4.534   3.577   3.329 -0.1628  0.2063 -0.0264
 1518W        W 5718   2.608   8.512   2.928 -0.1881 -0.2471 -0.0696
 1519W        W 5719   8.891   3.742  12.204  0.4032 -0.0773 -0.1655
 1520W        W 5720   6.549   2.833   0.801  0.1600  0.0999  0.2061
 1521W        W 5721   1.168   7.483   3.217 -0.0759 -0.2119  0.2928
 1522W        W 5722   1.488   6.513  10.585 -0.1552 -0.3539  0.1949
 1523W        W 5723   6.928   4.027  11.144  0.0556  0.2308  0.0905
 1524W        W 5724   2.823   2.044   2.512  0.3139  0.0259  0.1075
 1525W        W 5725   8.204   8.283  13.044 -0.0038 -0.2286 -0.1379
 1526W        W 5726   5.790   5.850  10.142 -0.0475 -0.3350  0.0957
 1527W        W 5727   5.037   5.611   0.600  0.1128  0.0088 -0.1063
 1528W        W 5728   6.077   1.963   1.596  0.1252  0.1563  0.1216
 1529W        W 5729   6.171   5.079  12.809 -0.2371  0.1605  0.1567
 1530W        W 5730  10.217   5.159   1.112  0.2315 -0.0811 -0.2934
 1531W        W 5731   8.153   9.479   3.754 -0.0599 -0.1715 -0.1042
 1532W        W 5732   0.840   8.492   0.901  0.0429 -0.0046  0.1599
 1533W        W 5733   7.231   5.614  11.319 -0.1265 -0.0544  0.3933
 1534W        W 5734   9.227  10.088  12.421 -0.2285  0.1860  0.0180
 1535W        W 5735  10.269   6.450  12.583 -0.0070 -0.1690  0.3984
 1536W        W 5736   6.462   3.467  10.654 -0.0152 -0.2216  0.1562
 1537W        W 5737   9.222   5.223  11.868 -0.0729  0.0025 -0.1545
 1538W        W 5738   1.926   6.515   1.755  0.0010 -0.0578 -0.3506
 1539W        W 5739   6.134   0.557   1.276  0.0696  0.0374  0.0271
 1540W        W 5740   7.346   4.339   4.447 -0.2252  0.1061 -0.0265
 1541W        W 5741   0.375   1.099   2.053  0.3201 -0.2333 -0.1098
 1542W        W 5742   2.159   1.075  12.507  0.1413  0.1283  0.0020
 1543W        W 5743   1.379   9.657  11.426 -0.4000 -0.2419  0.4753
 1544W        W 5744   2.405   1.244   4.038  0.0147  0.0948 -0.2336
 1545W        W 5745   7.119   2.085  11.144  0.0139 -0.2298  0.2224
 1546W        W 5746   5.660   5.779   8.452 -0.1973  0.1920  0.1330
 1547W        W 5747   4.346   9.070  10.126 -0.2532 -0.3054 -0.3443
 1548W        W 5748   4.767  10.396   3.459 -0.3737  0.0944 -0.0993
 1549W        W 5749   3.275   8.385  12.580  0.1040 -0.1915  0.2955
 1550W        W 5750   9.297   8.066  12.085  0.0606  0.0186  0.1826
 1551W        W 5751   9.563   9.512   0.764 -0.0369  0.0061  0.3386
 1552W        W 5752   2.429   7.209   0.244  0.0618 -0.1427 -0.1021
 1553W        W 5753   3.011   1.292   1.743  0.0072  0.2935  0.0524
 1554W        W 5754   8.716   1.603  12.267  0.2365  0.0167  0.0856
 1555W        W 5755   3.755   9.167   3.149  0.0614 -0.1025 -0.0930
 1556W        W 5756   1.824   2.469   0.563  0.1132  0.0989 -0.1350
 1557W        W 5757   8.906   6.760  13.465  0.0083 -0.0696  0.0061
 1558W        W 5758   3.353   8.053   3.143  0.1848  0.2015 -0.1722
 1559W        W 5759   2.008   3.782  10.799  0.1399  0.1992 -0.0440
 1560W        W 5760   2.341  10.376   0.475  0.0103  0.2981 -0.2989
 1561W        W 5761   3.001   0.414  11.482  0.0587 -0.2322  0.2875
 1562W        W 5762   8.858   0.699  11.290  0.0737  0.1150 -0.1252
 1563W        W 5763   0.989   7.081  10.900  0.3393  0.1735 -0.0391
 1564W        W 5764  10.253   8.343   0.587  0.3178  0.2228  0.1682
 1565W        W 5765   1.224   1.126   1.563  0.3638  0.2388  0.2643
 1566W        W 5766   1.543   8.710  10.287  0.0692 -0.1312  0.5364
 1567W        W 5767   8.170   1.990  13.045  0.1761  0.1370 -0.0481
 1568W        W 5768   9.477  10.259   2.955  0.2128 -0.0442 -0.2483
 1569W        W 5769   9.346   6.056   3.223 -0.2772 -0.0516 -0.0344
 1570W        W 5770   1.458   7.929   1.801 -0.2717  0.3197 -0.1858
 1571W        W 5771   5.880   3.895   8.981  0.0844  0.1813  0.2564
 1572W        W 5772   0.849   0.193   4.164  0.0187  0.0920 -0.2123
 1573W        W 5773   0.423  10.342   1.182 -0.0113  0.2572 -0.2378
 1574W        W 5774   9.423   1.504   1.738 -0.1147 -0.0624  0.0098
 1575W        W 5775   0.387   0.726  10.751 -0.0485  0.0690 -0.0087
 1576W        W 5776   1.391   5.997   3.687  0.0721 -0.2000  0.1242
 1577W        W 5777   0.888   9.949   9.735  0.2539 -0.0692 -0.3997
 1578W        W 5778   8.839   6.184   0.843 -0.0074 -0.1327  0.0774
 1579W        W 5779   1.973   7.025  10.763 -0.1315  0.0792  0.2070
 1580W        W 5780   0.284   8.115  12.004  0.0287 -0.0611 -0.0684
 1581W        W 5781   4.124   8.560  10.509 -0.4190 -0.0047 -0.1882
 1582W        W 5782   4.100   6.142  13.102  0.0303  0.1614 -0.1666
 1583W        W 5783   3.488   1.510   0.098 -0.0327  0.0014 -0.1471
 1584W        W 5784   2.000   8.760  13.042  0.5112 -0.3483 -0.0839
 1585W        W 5785   0.818   4.597  12.751  0.1657 -0.2618 -0.1422
 1586W        W 5786   0.371   7.580  12.968  0.1493 -0.1714  0.1968
 1587W        W 5787   8.683   4.596   9.395 -0.1970  0.1420 -0.2365
 1588W        W 5788   2.620   4.721   8.745  0.0819 -0.2373 -0.3237
 1589W        W 5789   4.667   9.114   2.890  0.3741 -0.0265 -0.2484
 1590W        W 5790   8.716   6.001   3.838 -0.0188 -0.3228 -0.1099
 1591W        W 5791   1.310   0.500   2.702 -0.2266  0.0682  0.1164
 1592W        W 5792   8.456   8.728   9.408 -0.1471 -0.2015  0.2074
 1593W        W 5793   1.200   6.327   0.559  0.1058  0.1740 -0.1759
 1594W        W 5794   9.451   8.460   2.879  0.3034 -0.2038 -0.1055
 1595W        W 5795   8.025   3.187  11.988  0.2260 -0.0077 -0.1006
 1596W        W 5796   2.663   9.001   9.392  0.2015 -0.0017 -0.1923
 1597W        W 5797   3.175   8.061  11.244  0.1893  0.2688 -0.3481
 1598W        W 5798   2.170  10.152   4.489  0.1089 -0.1175  0.2852
 1599W        W 5799   5.035   0.867   9.889  0.1228  0.1129 -0.1238
 1600W        W 5800   4.375   8.490  12.687  0.1119  0.4707 -0.1428
 1601W        W 5801  10.456   2.333   0.846  0.0765 -0.1397 -0.0847
 1602W        W 5802   5.865   6.088   4.219  0.0007 -0.2730  0.0543
 1603W        W 5803   8.879   3.776   3.089 -0.2098 -0.0092 -0.0927
 1604W        W 5804  10.171   9.689   9.540  0.2378 -0.3211  0.1087
 1605W        W 5805   2.329   5.125  10.541  0.0223  0.5302 -0.0857
 1606W        W 5806   4.342   2.726   8.949 -0.3744  0.0684  0.0439
 1607W        W 5807   9.978   5.839  12.394 -0.2025 -0.0323 -0.0811
 1608W        W 5808   3.832  10.305  10.046  0.0834 -0.0752 -0.0787
 1609W        W 5809   9.842   3.988  12.123 -0.0809 -0.2197  0.0719
 1610W        W 5810   9.239   5.627   5.104 -0.1029  0.0588 -0.0690
 1611W        W 5811   0.496   6.857  10.780  0.0221  0.1923 -0.0458
 1612W        W 5812  10.324   5.536  12.126  0.1675  0.0081 -0.0408
 1613W        W 5813   8.854   7.619   4.454  0.1094  0.1749 -0.1944
 1614W        W 5814   3.664   2.762   0.359  0.1107  0.2634  0.1260
 1615W        W 5815   0.596   5.015  12.871  0.2275 -0.3639 -0.2079
 1616W        W 5816   4.420   8.238  11.740  0.1275 -0.4333  0.0163
 1617W        W 5817   7.731   1.118   0.037  0.2395  0.1365  0.0748
 1618W        W 5818   8.387   2.583  10.213 -0.0081  0.1384  0.1117
 1619W        W 5819   0.134   3.223  12.276 -0.0176 -0.1292  0.0707
 1620W        W 5820   8.172   6.601   3.304  0.2684 -0.0728  0.0905
 1621W        W 5821   2.478   5.582  11.906  0.1250  0.4791  0.0647
 1622W        W 5822   8.693   4.148  10.262 -0.0000  0.1359  0.0060
 1623W        W 5823   8.540   1.466  12.729  0.0767  0.2852 -0.5777
 1624W        W 5824   5.175   6.072   8.535  0.3268  0.1396  0.0129
 1625W        W 5825   7.869   5.193   3.510  0.1419  0.2785 -0.0439
 1626W        W 5826   5.557   5.602   9.796 -0.0953  0.1346  0.0861
 1627W        W 5827   9.221   4.838   0.979  0.0256 -0.0947  0.0519
 1628W        W 5828   1.959   8.561  10.660  0.0882 -0.1603 -0.0163
 1629W        W 5829   1.400   9.243  11.921  0.1785  0.0441 -0.1404
 1630W        W 5830   6.050   7.397  10.844  0.0320 -0.3880 -0.2599
 1631W        W 5831   2.928   4.101   2.370  0.0597  0.1829  0.0436
 1632W        W 5832   6.739   6.721  10.956  0.0740 -0.0632  0.1025
 1633W        W 5833   7.926   8.624  13.332 -0.0227  0.0924  0.0250
 1634W        W 5834   5.795   0.982   1.450 -0.2531  0.1975  0.0051
 1635W        W 5835  10.075  10.110   4.111 -0.0632 -0.5230  0.1228
 1636W        W 5836   3.581   1.453  12.378 -0.1758  0.3147  0.1179
 1637W        W 5837   7.455   2.650   1.714  0.3539  0.0134  0.0794
 1638W        W 5838  10.085   4.515   1.604 -0.0408  0.2933  0.1791
 1639W        W 5839   8.785   9.987  11.061  0.1858  0.0279  0.1208
 1640W        W 5840   6.253   5.454  12.344  0.1554 -0.1462 -0.1643
 1641W        W 5841   6.566   4.414   2.888 -0.0587 -0.0921  0.0409
 1642W        W 5842   2.751   3.245  12.949 -0.0475  0.2505  0.0451
 1643W        W 5843   4.706   4.733   2.249  0.0095 -0.3504  0.1351
 1644W        W 5844   7.346   6.367   9.306  0.0397 -0.1368  0.2560
 1645W        W 5845   6.407   3.331   0.728 -0.1483 -0.2931 -0.2495
 1646W        W 5846   9.636   7.399  11.113 -0.2022  0.2510  0.0350
 1647W        W 5847   4.485   1.716   9.229 -0.0992  0.1158  0.3205
 1648W        W 5848   1.492   1.517   3.152 -0.0294 -0.0791 -0.1135
 1649W        W 5849   0.873   0.923   1.876 -0.5275 -0.2309  0.1231
 1650W        W 5850   5.820   5.384   4.219  0.2410  0.1799 -0.0333
 1651W        W 5851   4.659   6.324  11.880 -0.0114 -0.0060 -0.0083
 1652W        W 5852   2.588   3.929   0.213 -0.1821  0.1207  0.0966
 1653W        W 5853   3.557   8.881   1.452  0.0293  0.0723 -0.2244
 1654W        W 5854  10.380   7.016   4.992 -0.1548 -0.2072 -0.1787
 1655W        W 5855   9.273   7.285   4.377  0.1148  0.2254 -0.4175
 1656W        W 5856   3.393   7.256   0.477  0.0036 -0.2917 -0.2714
 1657W        W 5857   8.423   9.260  12.265  0.0551  0.1037  0.1918
 1658W        W 5858   1.361   7.015   2.223  0.0026  0.2229  0.0323
 1659W        W 5859   0.342   1.016   0.656 -0.2178 -0.1755 -0.1993
 1660W        W 5860   0.773   3.665  12.938  0.0752 -0.1460 -0.0662
 1661W        W 5861   6.033   6.649   1.001 -0.0305  0.2106 -0.1879
 1662W        W 5862   1.502   9.085   9.871  0.0542 -0.2931 -0.0732
 1663W        W 5863   3.901   8.949   9.520  0.1866  0.1735 -0.2489
 1664W        W 5864   0.348   0.234   9.440 -0.3163 -0.0744 -0.1354
 1665W        W 5865   6.507   7.382   0.082 -0.1214 -0.0963  0.2112
 1666W        W 5866   5.354   4.827   3.245  0.0508  0.1642  0.5102
 1667W        W 5867   1.794   9.477  12.213 -0.1546  0.3539 -0.1787
 1668W        W 5868   5.323   7.759  12.253  0.2924 -0.0451 -0.0118
 1669W        W 5869   0.817   1.596  10.859  0.1098  0.0444  0.1280
 1670W        W 5870   3.429   2.766   3.852  0.0093 -0.3693 -0.3235
 1671W        W 5871   8.067   1.212  10.827  0.1809 -0.0525  0.0438
 1672W        W 5872   7.018   2.995  11.425 -0.0195 -0.0340 -0.2844
 1673W        W 5873   4.696   5.081   2.666  0.1863 -0.0168 -0.0521
 1674W        W 5874   5.579   2.766  13.399  0.0253  0.0380 -0.1607
 1675W        W 5875   4.340   0.642   3.032  0.0638 -0.1659  0.2025
 1676W        W 5876   9.036   7.358  13.040  0.3348 -0.0300  0.3112
 1677W        W 5877   7.481   2.793  11.573 -0.0941 -0.0500 -0.1298
 1678W        W 5878   8.509   0.575  13.187  0.2150 -0.2394 -0.0341
 1679W        W 5879   9.357   5.548   2.237 -0.1995  0.1250  0.2041
 1680W        W 5880   9.017   7.174   1.958  0.0605  0.4228 -0.0120
 1681W        W 5881   3.162   9.103  10.904 -0.1276  0.1287  0.1554
 1682W        W 5882   1.629   5.242   5.586 -0.0495  0.0088  0.0254
 1683W        W 5883   7.741   3.379  10.238 -0.1473  0.5228 -0.0275
 1684W        W 5884   0.526   2.232   0.058 -0.0868  0.1196  0.3991
 1685W        W 5885   8.967   4.603  12.664 -0.0485  0.2625 -0.0977
 1686W        W 5886   6.247   7.431   4.158 -0.1552  0.0176  0.0594
 1687W        W 5887   4.318   7.861   4.383 -0.2983 -0.2465 -0.1810
 1688W        W 5888   4.050   3.910   9.623  0.2250  0.0482 -0.0187
 1689W        W 5889   1.241   4.989   3.742  0.1730 -0.1122 -0.2721
 1690W        W 5890   9.424   9.151  10.649  0.1073  0.1520  0.0881
 1691W        W 5891   4.570   8.396   3.245 -0.3673 -0.0299 -0.0706
 1692W        W 5892   0.404   9.681  12.872 -0.3399 -0.0174  0.0668
 1693W        W 5893   7.805   1.527   0.879  0.1821  0.1180 -0.0507
 1694W        W 5894   9.101   9.773   1.610  0.0740 -0.1557 -0.0178
 1695W        W 5895   7.416   7.362   1.482  0.1712 -0.0673  0.5850
 1696W        W 5896   5.078   2.062   0.182  0.1958  0.2936 -0.1488
 1697W        W 5897   3.119   9.744   1.237  0.2784 -0.3037 -0.0802
 1698W        W 5898   0.434   2.661  10.658 -0.1321  0.1865  0.1313
 1699W        W 5899   2.027   7.742  11.981 -0.1756 -0.1292  0.1571
 1700W        W 5900   8.855   3.560  11.556  0.0799 -0.2151 -0.1219
 1701W        W 5901   2.826   2.839  13.341  0.1018 -0.0467 -0.1402
 1702W        W 5902   6.796   1.200   0.074 -0.0619  0.1424 -0.2696
 1703W        W 5903   4.193   0.996   0.959  0.1162 -0.3121  0.1524
 1704W        W 5904   2.597   7.475  10.423  0.0229  0.0663 -0.2769
 1705W        W 5905   7.337   7.426   9.803 -0.0390  0.2796  0.2912
 1706W        W 5906   9.517   3.960   2.238 -0.1143  0.1352 -0.2311
 1707W        W 5907   9.781   3.504   4.726  0.1912  0.0683 -0.0524
 1708W        W 5908   3.052   8.447   8.662 -0.3038 -0.0303 -0.1445
 1709W        W 5909   4.961   8.903   1.139  0.1885  0.1206  0.0141
 1710W        W 5910   7.390   5.035   1.773  0.1281 -0.2258  0.1126
 1711W        W 5911   0.942   3.988  12.025  0.2599 -0.2643  0.2852
 1712W        W 5912   8.482   9.071  10.909 -0.0666 -0.1784  0.1725
 1713W        W 5913   7.036   6.274  10.770  0.1391 -0.1848 -0.0577
 1714W        W 5914   6.003   4.159   2.202 -0.0625  0.2706  0.2725
 1715W        W 5915   1.787   9.849  13.029  0.1113 -0.0592 -0.0706
 1716W        W 5916   9.639   4.859  13.134  0.0099 -0.0555  0.1212
 1717W        W 5917   4.504   4.301  11.971 -0.0861 -0.0362 -0.1247
 1718W        W 5918   8.934   0.631  12.237  0.1219  0.1125 -0.2821
 1719W        W 5919   9.374   5.369   2.746  0.4042 -0.2609  0.0817
 1720W        W 5920   0.381   0.817   1.552 -0.0313  0.0557 -0.1159
 1721W        W 5921   5.414   6.898   4.532  0.0717 -0.2783  0.0856
 1722W        W 5922   3.790   1.286   0.855 -0.2339 -0.0540 -0.0380
 1723W        W 5923   9.524   3.171  12.817  0.3696  0.1651 -0.3818
 1724W        W 5924   6.738  10.461   0.777  0.5550  0.1043  0.5137
 1725W        W 5925   8.016   9.977   2.864  0.1296 -0.0005 -0.2511
 1726W        W 5926   3.617  10.271   0.539 -0.0672  0.1648 -0.3163
 1727W        W 5927   8.827   4.456  11.279  0.0609 -0.2793  0.2801
 1728W        W 5928   9.420   7.970   1.626 -0.1315 -0.0180  0.1577
 1729W        W 5929   1.879   2.231   3.667  0.3362  0.0138 -0.0212
 1730W        W 5930   8.124   6.120  11.971  0.0987 -0.0908  0.1557
 1731W        W 5931  10.293   7.459   3.431  0.3300 -0.4052 -0.0032
 1732W        W 5932   0.724   3.685  10.259  0.1090  0.3622  0.0546
 1733W        W 5933   0.090   7.087  10.519  0.1214  0.0065  0.4276
 1734W        W 5934   0.627   8.245  12.460  0.2328  0.0436 -0.3116
 1735W        W 5935   3.066   3.397   3.249 -0.0804 -0.2004 -0.3358
 1736W        W 5936   4.574   4.295  12.849 -0.1958  0.3169 -0.0150
 1737W        W 5937  10.034   3.609  11.726  0.1947 -0.0205 -0.1790
 1738W        W 5938   3.329   0.025  10.545 -0.0431 -0.0111  0.3751
 1739W        W 5939   4.012   3.591  11.809  0.4724  0.4734 -0.0575
 1740W        W 5940   0.540   4.108   2.187 -0.1665  0.5438  0.0882
 1741W        W 5941  10.246   2.937   9.043  0.1771 -0.1011  0.0264
 1742W        W 5942   0.679   8.348  10.659 -0.4097 -0.1435  0.1066
 1743W        W 5943   6.334   1.016   1.251 -0.1089  0.1439 -0.1343
 1744W        W 5944   9.679   6.206  11.869 -0.1783 -0.1379 -0.1952
 1745W        W 5945   4.775   7.258  12.787 -0.1942 -0.1221  0.1079
 1746W        W 5946   9.434   4.083  13.351 -0.2251  0.1578  0.1363
 1747W        W 5947   3.362  10.045  10.206 -0.1833  0.1303  0.4089
 1748W        W 5948   6.413  10.391   9.246  0.0759 -0.2688  0.2958
 1749W        W 5949   5.014   9.647   9.479 -0.0696  0.3672  0.1573
 1750W        W 5950   7.775   7.648   9.727 -0.0592 -0.1034 -0.1425
 1751W        W 5951   6.053   8.246  10.198 -0.4210  0.2443  0.0111
 1752W        W 5952   7.775   5.842   4.197  0.1718 -0.3027  0.3057
 1753W        W 5953   1.956   3.262   0.657  0.4812  0.0431 -0.0575
 1754W        W 5954   8.894   6.078   3.351 -0.0472  0.1208  0.1382
 1755W        W 5955   2.228   0.414   4.984 -0.0410 -0.0615 -0.0167
 1756W        W 5956   4.705   1.721   1.093  0.0193  0.2153  0.2204
 1757W        W 5957  10.372   6.670   4.637 -0.1285  0.2637 -0.2113
 1758W        W 5958   4.992   1.122  12.184 -0.0256  0.1056 -0.0855
 1759W        W 5959   4.349   6.211   9.982 -0.2807 -0.1728  0.0622
 1760W        W 5960   3.146   8.921   0.291  0.0231 -0.0152  0.1437
 1761W        W 5961   5.227   1.359   3.071 -0.0784 -0.0029  0.1742
 1762W        W 5962   1.245   2.681   1.908 -0.1499 -0.2288  0.1216
 1763W        W 5963   7.896   4.771   2.125  0.3479  0.1133 -0.0913
 1764W        W 5964   0.024   4.119   1.597  0.1604  0.3827  0.0697
 1765W        W 5965   1.379   4.682   2.381  0.0819 -0.2116 -0.0337
 1766W        W 5966   2.897   5.314   0.763 -0.2388 -0.1121 -0.3889
 1767W        W 5967   5.547   3.078   3.854 -0.3302 -0.0557 -0.1086
 1768W        W 5968   7.762   9.164  12.158  0.0439 -0.0784  0.1455
 1769W        W 5969   1.537   3.396   1.388  0.1510 -0.3990 -0.0278
 1770W        W 5970   7.172   1.977   9.879 -0.0807 -0.0438  0.2186
 1771W        W 5971   2.598   2.118   1.469  0.0809 -0.2144 -0.0131
 1772W        W 5972   2.343   2.516  12.250  0.0052  0.0657  0.0654
 1773W        W 5973   3.904   0.568  12.776 -0.0392 -0.1593 -0.0033
 1774W        W 5974   9.671   2.712  10.517 -0.1217 -0.0188 -0.3807
 1775W        W 5975   3.170   9.424  12.492 -0.0853 -0.0413 -0.1475
 1776W        W 5976   1.114   5.955   2.723 -0.1500  0.1034 -0.0679
 1777W        W 5977   6.591   9.126   2.027  0.1028 -0.1809  0.2414
 1778W        W 5978  10.069   8.089  12.755 -0.1768  0.2863 -0.3159
 1779W        W 5979   9.976   4.379   4.947 -0.1524  0.0510  0.0197
 1780W        W 5980   4.648   7.478  10.519  0.2014  0.0115 -0.2922
 1781W        W 5981   9.123   6.834   0.977 -0.0669  0.2877  0.3054
 1782W        W 5982   0.793   0.420  12.666  0.0805  0.1153  0.1099
 1783W        W 5983   2.435   6.373  12.593  0.1128 -0.3872 -0.0462
 1784W        W 5984   6.072   3.760  10.733 -0.0295 -0.4075  0.0648
 1785W        W 5985   5.436   5.620   0.968 -0.2084  0.0445 -0.1702
 1786W        W 5986  10.098   4.304   0.142 -0.0588  0.0133 -0.0241
 1787W        W 5987   2.653   4.514  10.451 -0.0847  0.0333  0.1391
 1788W        W 5988   2.641   7.291   2.284  0.3532  0.3795 -0.1809
 1789W        W 5989   2.886   7.223   9.487  0.2492  0.0921  0.1995
 1790W        W 5990   8.678   8.599   3.297 -0.0347 -0.1739 -0.3833
 1791W        W 5991   1.527   2.638  12.897  0.1677  0.1202 -0.2205
 1792W        W 5992   4.427   3.747   8.855 -0.3695  0.2847  0.1124
 1793W        W 5993   5.913   5.460   1.330  0.2109 -0.1313 -0.0311
 1794W        W 5994   2.221   4.766  12.983  0.2391 -0.0157  0.1310
 1795W        W 5995   2.248   3.207   9.665 -0.3523 -0.0500  0.1008
 1796W        W 5996   5.688   2.437  10.893  0.1174 -0.1760  0.3421
 1797W        W 5997   4.327   2.703  11.376 -0.3243  0.1559 -0.1448
 1798W        W 5998   9.852  10.225  11.876  0.0168  0.2942  0.2146
 1799W        W 5999   7.281   4.368  11.208  0.0938 -0.1139  0.0575
 1800W        W 6000   8.616   7.943  10.030  0.1008 -0.2708 -0.1388
 1801W        W 6001   0.982   0.306   0.101 -0.3956  0.0432 -0.2182
 1802W        W 6002   5.246   5.991   9.892 -0.1283 -0.0039  0.1522
 1803W        W 6003   3.182   4.858   3.816 -0.0294 -0.0598 -0.0819
 1804W        W 6004   2.217   7.363  12.297  0.2599  0.0477 -0.1257
 1805W        W 6005   4.318   1.239   9.325  0.0964  0.0049  0.0166
 1806W        W 6006   8.127   9.124   1.645 -0.0365 -0.2619  0.1566
 1807W        W 6007   8.741   8.457   9.091 -0.0232  0.0089  0.2692
 1808W        W 6008   7.652   6.030   0.993 -0.0395 -0.4499  0.0466
 1809W        W 6009   5.926   2.355   9.963  0.2832  0.0821 -0.0152
 1810W        W 6010   6.384   0.968   3.715 -0.2612 -0.0093  0.4273
 1811W        W 6011   3.754   9.636  13.413 -0.0162 -0.1266  0.1768
 1812W        W 6012   1.114   3.692   1.444 -0.0255 -0.2523 -0.0970
 1813W        W 6013   3.675   1.534  10.702 -0.2890 -0.2044  0.1568
 1814W        W 6014   0.958   1.821   3.697 -0.3328  0.2374  0.0897
 1815W        W 6015   1.351   0.976   3.896  0.0536 -0.2766  0.0463
 1816W        W 6016   1.559   6.151   0.289  0.3704 -0.0418  0.1526
 1817W        W 6017   1.157   2.907  13.165  0.0912 -0.0107  0.0516
 1818W        W 6018   2.469   1.383   2.863 -0.0077  0.1418 -0.2035
 1819W        W 6019   5.538   4.705   4.833 -0.0178 -0.1516  0.1076
 1820W        W 6020   0.504   9.653  11.763  0.2065  0.0513  0.0028
 1821W        W 6021   6.815   4.017   1.560 -0.0692 -0.0551 -0.3710
 1822W        W 6022   6.375   3.505   3.486 -0.1254 -0.2681  0.2533
 1823W        W 6023   1.938   8.021   4.118 -0.0596 -0.0155 -0.2215
 1824W        W 6024  10.170   5.327   2.333 -0.2390 -0.2108 -0.1063
 1825W        W 6025   8.504   5.462   9.337  0.3093 -0.1046 -0.2157
 1826W        W 6026   6.185   1.335   1.758 -0.2092  0.0920  0.2043
 1827W        W 6027   3.109   7.942   1.670 -0.2912  0.3248  0.0924
 1828W        W 6028   0.385   3.329  11.448 -0.0209  0.1692 -0.0710
 1829W        W 6029   6.484   7.005  13.228  0.2240  0.0601  0.0258
 1830W        W 6030   4.308   9.844   4.557 -0.0752  0.2658  0.1709
 1831W        W 6031   8.102   8.160  11.988  0.2828  0.2749  0.4106
 1832W        W 6032   0.674   0.746   2.323 -0.2986 -0.0193  0.0674
 1833W        W 6033  10.165   4.245   0.809  0.0653 -0.0838  0.0631
 1834W        W 6034   1.400   5.962   4.265 -0.0061 -0.2525 -0.1318
 1835W        W 6035   9.193   7.749   2.009  0.0905  0.1778 -0.3289
 1836W        W 6036   9.386   3.831  12.180  0.0086  0.0208 -0.1379
 1837W        W 6037   3.174   2.148  12.730  0.0846  0.2709  0.2185
 1838W        W 6038   3.033   3.200   9.089  0.0124 -0.1511  0.2457
 1839W        W 6039   6.682  10.248  10.901  0.1052  0.0100 -0.0425
 1840W        W 6040   0.197   7.182  12.188 -0.1611  0.0886  0.2751
 1841W        W 6041   9.842   7.985   3.132  0.0135 -0.2245 -0.1149
 1842W        W 6042   7.285   3.411   9.903  0.1645  0.2174 -0.1263
 1843W        W 6043   2.253   6.962  13.304  0.0470  0.2985 -0.3030
 1844W        W 6044   2.379   9.899   0.344  0.1584 -0.3512 -0.1651
 1845W        W 6045   0.255   7.759   2.148 -0.0304 -0.3658  0.2828
 1846W        W 6046   8.339   5.241  12.137 -0.2294  0.1297 -0.0697
 1847W        W 6047   0.254   0.494  11.544 -0.2367  0.0344 -0.0491
 1848W        W 6048   4.477   1.470   3.510  0.2682 -0.2331  0.1642
 1849W        W 6049   1.657  10.165  11.942 -0.0098  0.0996  0.0351
 1850W        W 6050   6.097   6.604   4.350  0.1355  0.4018 -0.1168
 1851W        W 6051   3.715   9.048  13.440  0.2204  0.0342  0.3596
 1852W        W 6052   8.066   2.764  12.840  0.0306  0.0851 -0.0276
 1853W        W 6053   7.549   4.851   4.234  0.1065  0.1780 -0.1888
 1854W        W 6054   1.940   6.259   9.445  0.0229  0.0896  0.0270
 1855W        W 6055   2.628   4.497   9.352 -0.0308  0.0161 -0.0543
 1856W        W 6056   8.689   4.435   0.996 -0.1524  0.1205 -0.2009
 1857W        W 6057   9.951   0.194   0.062  0.3184 -0.0194 -0.0950
 1858W        W 6058   4.619   6.477   5.201 -0.2440 -0.0519  0.0181
 1859W        W 6059   4.239   4.607   1.460 -0.0113 -0.0217  0.0947
 1860W        W 6060   1.931   4.782   3.847  0.1149 -0.0665  0.2058
 1861W        W 6061   1.734   4.507   2.853 -0.1541  0.3211  0.1932
 1862W        W 6062  10.310   5.799   2.075  0.0140 -0.0280 -0.3071
 1863W        W 6063   1.501   4.424  13.434  0.0557  0.0183 -0.1665
 1864W        W 6064   0.448   4.880   1.778  0.1019 -0.1975 -0.2412
 1865W        W 6065   6.848   2.566  10.947  0.0837  0.1334 -0.0470
 1866W        W 6066   3.500   6.569   9.961  0.2027  0.1386  0.0988
 1867W        W 6067   8.120   1.410   0.097 -0.0073 -0.2050 -0.0725
 1868W        W 6068   8.128   1.200  13.061  0.3599  0.1329  0.0342
 1869W        W 6069   1.863   0.174  12.237  0.0147 -0.0358  0.1751
 1870W        W 6070   1.204   2.687   2.783 -0.4721 -0.3019  0.0634
 1871W        W 6071   9.489  10.380  10.883  0.1514 -0.2620  0.0133
 1872W        W 6072   6.476   9.465   0.543 -0.1804  0.1462 -0.1764
 1873W        W 6073   1.677   1.913  11.125  0.1674  0.0847  0.0145
 1874W        W 6074   8.981   6.110  12.286 -0.2916  0.1975 -0.0189
 1875W        W 6075   6.442   2.873  10.586 -0.0506 -0.0702  0.0224
 1876W        W 6076   8.692   5.921   4.921  0.0378 -0.3035  0.0485
 1877W        W 6077   1.697   4.644   1.389  0.1067  0.0822 -0.1930
 1878W        W 6078   7.627   1.088  11.683 -0.0246  0.0336 -0.0695
 1879W        W 6079   5.275   0.293   3.861  0.1595  0.0373 -0.0438
 1880W        W 6080   2.325   4.999   0.569  0.2400  0.2247  0.0315
 1881W        W 6081   8.040   1.245   0.529  0.3323 -0.0678  0.0498
 1882W        W 6082   3.552   3.450   3.038 -0.3272  0.0566  0.3659
 1883W        W 6083  10.434   6.012   5.165 -0.2225  0.0365 -0.0469
 1884W        W 6084   8.750   1.883   1.129  0.1969 -0.0453  0.3945
 1885W        W 6085   8.812   6.459   3.741  0.2870 -0.1619 -0.3426
 1886W        W 6086   6.329   5.283  11.029  0.1077 -0.2431 -0.1226
 1887W        W 6087   8.180   1.794   0.936 -0.0275  0.0528 -0.4202
 1888W        W 6088   5.364   0.248   1.544 -0.3384 -0.0883 -0.1616
 1889W        W 6089   9.151   2.420   9.972  0.1771  0.0096 -0.0968
 1890W        W 6090   1.942   0.879  12.961  0.0069 -0.3126  0.0095
 1891W        W 6091   4.557   2.386  11.643  0.0574  0.3203 -0.0651
 1892W        W 6092   0.582   9.409   1.049 -0.1394  0.1563  0.0707
 1893W        W 6093   0.107   3.437   0.629  0.0820 -0.3169  0.1676
 1894W        W 6094   8.560   4.952  10.008 -0.1301  0.0859  0.3844
 1895W        W 6095   3.009   4.123   4.275 -0.0847  0.1577 -0.2243
 1896W        W 6096   3.433   2.453  11.166 -0.1478  0.3054 -0.4898
 1897W        W 6097   2.937   5.394   4.857  0.0916 -0.1291  0.1577
 1898W        W 6098   2.294   8.398   1.430  0.0807 -0.1165 -0.1146
 1899W        W 6099   8.491   8.292   4.086  0.2891  0.1741 -0.0465
 1900W        W 6100   5.798   6.720  12.290  0.0188  0.0052  0.0920
 1901W        W 6101   2.331   8.799  11.721  0.3146  0.1205  0.1634
 1902W        W 6102   0.397   1.387  12.673  0.0984  0.2591  0.1991
 1903W        W 6103   1.995   7.338  13.057 -0.2131 -0.0228 -0.2374
 1904W        W 6104   9.741   9.963  13.064 -0.0713 -0.1375  0.0281
 1905W        W 6105   4.659   2.711  10.293 -0.0987  0.1368  0.2034
 1906W        W 6106  10.232   8.216   2.222  0.0471  0.0155 -0.0930
 1907W        W 6107   3.605   0.265   2.414  0.0555  0.4181  0.0380
 1908W        W 6108   1.277   9.025   3.680 -0.0626 -0.1536  0.2840
 1909W        W 6109   2.608   7.576   2.758  0.3738 -0.2964  0.1460
 1910W        W 6110  10.409   0.537  11.978  0.1743 -0.0647 -0.0235
 1911W        W 6111   6.291   5.732   4.833  0.0253 -0.0659 -0.0913
 1912W        W 6112   8.527   7.005  11.723  0.1853  0.2175  0.0340
 1913W        W 6113   9.829   1.183   3.762 -0.1780  0.3699  0.1629
 1914W        W 6114   0.294   6.599   2.837  0.1569 -0.2397 -0.0873
 1915W        W 6115   3.142   5.105   4.497 -0.0832 -0.1449 -0.1748
 1916W        W 6116   3.047   3.540  12.648  0.1667 -0.2972 -0.3982
 1917W        W 6117   6.699   5.013   4.424 -0.0069  0.2134  0.2392
 1918W        W 6118   0.813   2.315   3.668  0.2565  0.0077  0.0295
 1919W        W 6119   3.875   6.232   9.182  0.0178  0.2493  0.1685
 1920W        W 6120   9.409   3.428  10.118  0.1992  0.2959  0.1140
 1921W        W 6121   2.073   1.174  10.757 -0.1027 -0.0943  0.4361
 1922W        W 6122   5.287   8.677   4.546  0.0441 -0.1539  0.5643
 1923W        W 6123   2.684   5.679   3.315 -0.0028  0.1293  0.1388
 1924W        W 6124   2.089   8.748   4.697 -0.2071  0.0949 -0.4204
 1925W        W 6125   2.948   9.050   4.167  0.4678  0.1006 -0.2689
 1926W        W 6126   5.904   4.120  11.241  0.0852 -0.1095 -0.3768
 1927W        W 6127   4.283   3.232   4.027  0.2030 -0.4501 -0.0419
 1928W        W 6128   9.573   5.602  11.878 -0.2843 -0.1201 -0.0600
 1929W        W 6129   5.057   2.269   1.877 -0.1785 -0.1464 -0.0659
 1930W        W 6130   1.379   1.045  13.014  0.1392  0.1881  0.0289
 1931W        W 6131   5.129   7.987   1.841  0.0485 -0.0472  0.1050
 1932W        W 6132   1.595   0.627  11.487 -0.2234 -0.0477  0.0001
 1933W        W 6133   2.893   2.930  11.600  0.1187 -0.2946 -0.1442
 1934W        W 6134  10.013   7.647  11.813 -0.0644  0.0905  0.2806
 1935W        W 6135   1.168   3.125   1.640  0.2386  0.1259  0.1524
 1936W        W 6136   0.853   4.285   3.072 -0.2114 -0.1457  0.0425
 1937W        W 6137  10.108   4.490   3.502  0.2454  0.1119 -0.0454
 1938W        W 6138   8.603   2.556   8.910 -0.3278  0.0069 -0.0437
 1939W        W 6139   9.443   6.845   1.307 -0.1229  0.1066 -0.2125
 1940W        W 6140   5.092   8.537  10.763  0.0542 -0.1589  0.3120
 1941W        W 6141   7.560   1.773   3.101 -0.1456 -0.2513 -0.1958
 1942W        W 6142  10.143   8.614  10.890  0.0740 -0.0554  0.2812
 1943W        W 6143   8.159   3.540  12.805 -0.1195 -0.0360 -0.0509
 1944W        W 6144   4.175   9.698   9.065 -0.1384 -0.0037 -0.1718
 1945W        W 6145   8.334   2.497   1.902 -0.3831 -0.2020  0.0887
 1946W        W 6146   4.425   5.011   1.219 -0.1204 -0.1865  0.2573
 1947W        W 6147   8.681   2.071  13.086 -0.3099 -0.2341 -0.1785
 1948W        W 6148   4.348   9.194   9.587 -0.1781 -0.1322  0.0560
 1949W        W 6149   0.416   8.059  10.360  0.3957 -0.1915 -0.0088
 1950W        W 6150   2.308   1.214  10.202  0.3983 -0.1860  0.1054
 1951W        W 6151   0.989   2.687   4.518  0.0643 -0.1698  0.2137
 1952W        W 6152   6.619   3.239  12.243  0.0313  0.4685 -0.0257
 1953W        W 6153   8.960   2.696   8.564  0.1026  0.1290  0.0375
 1954W        W 6154  10.155   4.518  11.385  0.1159  0.1767  0.0260
 1955W        W 6155   3.929   2.613  10.811  0.4480 -0.2048 -0.1889
 1956W        W 6156   3.939   4.863   8.703  0.1301  0.1329  0.1975
 1957W        W 6157   8.085   5.661  12.275  0.0598  0.0676  0.1117
 1958W        W 6158   6.271   1.738  12.372 -0.0236  0.1860  0.0287
 1959W        W 6159  10.371   1.510  12.657  0.0869  0.2636  0.1113
 1960W        W 6160   8.110   0.258   0.029 -0.2661  0.1050 -0.1636
 1961W        W 6161   3.167   6.107   4.024 -0.0072  0.2110  0.0994
 1962W        W 6162   0.284   0.564  10.071  0.0851  0.1064  0.0524
 1963W        W 6163   1.468   1.918   0.485  0.2117  0.1955  0.1388
 1964W        W 6164   7.737   5.899   4.779  0.2158  0.5160  0.1745
 1965W        W 6165  10.291   3.612   0.280 -0.0246  0.0558  0.0159
 1966W        W 6166   4.324  10.280   9.837 -0.0990 -0.1747 -0.1625
 1967W        W 6167   8.586   9.276   1.601 -0.1282 -0.2251 -0.2939
 1968W        W 6168   0.182   6.511  10.694  0.1147 -0.0043 -0.1152
 1969W        W 6169   0.539   4.142  10.073 -0.0439 -0.4619  0.0288
 1970W        W 6170   1.589   6.291  12.298  0.0211 -0.0603 -0.3328
 1971W        W 6171   5.497   2.251  12.257  0.1910 -0.1442  0.3121
 1972W        W 6172   5.301  10.019   1.043 -0.0865 -0.0372  0.1374
 1973W        W 6173   2.047   6.428  12.250  0.2218 -0.0953  0.4118
 1974W        W 6174   7.997  10.242   1.722  0.1430  0.2658 -0.1477
 1975W        W 6175   2.415   0.066   1.070  0.0602 -0.0409  0.0081
 1976W        W 6176   4.592   1.377   4.133 -0.0605 -0.0026  0.0516
 1977W        W 6177   2.277   4.116   9.891 -0.0786  0.0746  0.0579
 1978W        W 6178   5.562   6.520   2.060  0.3578 -0.0262  0.3932
 1979W        W 6179   8.593   6.096   2.541  0.1672 -0.0598 -0.3255
 1980W        W 6180   6.704   8.010  10.267  0.0004  0.3156 -0.0904
 1981W        W 6181   4.247   4.008  13.276 -0.0182  0.1725 -0.1463
 1982W        W 6182   7.641   2.870   9.310 -0.0434  0.0350 -0.1245
 1983W        W 6183   1.861   9.838  11.306  0.1623 -0.0690 -0.1859
 1984W        W 6184   2.231   3.558   0.996 -0.0512 -0.0616 -0.2084
 1985W        W 6185   5.325   7.718   1.467  0.2955  0.1310 -0.0062
 1986W        W 6186   7.978   2.682   1.512 -0.1460  0.0842  0.2488
 1987W        W 6187  10.034   1.172   2.205 -0.1296 -0.2106  0.0483
 1988W        W 6188   3.502   9.349  11.202  0.2447 -0.0058 -0.2733
 1989W        W 6189   1.525   3.818   1.096  0.1299  0.0422 -0.1440
 1990W        W 6190  10.077   2.731  10.091 -0.0963 -0.1698 -0.1850
 1991W        W 6191   7.464   1.951  10.370 -0.0710 -0.0591  0.0009
 1992W        W 6192   6.121   1.753   0.364 -0.1051 -0.0388 -0.0091
 1993W        W 6193   2.144   2.163  12.514 -0.0397 -0.2022 -0.1598
 1994W        W 6194   7.370   3.454  10.694  0.0500  0.1574 -0.0089
 1995W        W 6195   5.695   7.664  12.658  0.4204 -0.3747  0.0864
 1996W        W 6196   1.973   4.633  13.426  0.2797 -0.0639 -0.1252
 1997W        W 6197   2.479   2.779   3.211  0.1117 -0.0153 -0.1781
 1998W        W 6198   9.210   7.447   2.936  0.1916 -0.0258  0.1498
 1999W        W 6199   1.738   9.262  13.066 -0.0801 -0.0309 -0.0060
 2000W        W 6200   3.821   3.143   3.551  0.2056  0.1193 -0.2793
 2001W        W 6201   4.920   7.365   2.454 -0.1050 -0.0850  0.4164
 2002W        W 6202   5.461   5.694   0.185 -0.0391  0.2444  0.2377
 2003W        W 6203   5.850   1.688  12.000  0.2211  0.2175 -0.1918
 2004W        W 6204   8.321   7.589   3.579  0.0161  0.1939 -0.2782
 2005W        W 6205   3.836   5.603   0.798 -0.1992 -0.2387  0.1822
 2006W        W 6206   1.004   4.337   2.376  0.1080 -0.2221 -0.1099
 2007W        W 6207   2.552   5.346   1.502  0.1268 -0.1093 -0.1084
 2008W        W 6208   0.816   9.909   2.780 -0.1393 -0.0175 -0.1628
 2009W        W 6209   0.894   1.593   3.245  0.1165 -0.0829  0.0932
 2010W        W 6210   6.521   0.912  12.768 -0.1281  0.2640 -0.1188
 2011W        W 6211   4.697   3.027  10.754  0.2362  0.1809  0.4321
 2012W        W 6212   1.221   3.420  11.394 -0.2234 -0.0899  0.2218
 2013W        W 6213   7.982   6.100   2.362  0.1518  0.0550  0.1589
 2014W        W 6214   1.106   1.068   3.265 -0.1942 -0.0500  0.2840
 2015W        W 6215   2.515   9.746   3.388  0.3642  0.1320  0.1656
 2016W        W 6216   1.787   8.051   3.057 -0.1902  0.2227  0.1066
 2017W        W 6217   5.491   2.215   1.133 -0.0892  0.0960 -0.0578
 2018W        W 6218  10.138   3.163   2.215 -0.2632  0.1037 -0.1872
 2019W        W 6219   5.812   6.510  10.460 -0.4262  0.0923  0.2309
 2020W        W 6220   5.929   9.406   0.495 -0.0308  0.0590 -0.0640
 2021W        W 6221   2.120   1.033  11.560  0.1066  0.2486 -0.1278
 2022W        W 6222  10.066   5.361   9.591 -0.1532 -0.2778  0.1369
 2023W        W 6223   9.342   2.536   1.376 -0.2384 -0.1094  0.3318
 2024W        W 6224   4.088   1.850  10.119  0.1078 -0.1433  0.2018
 2025W        W 6225   3.353   1.537   0.919 -0.0160 -0.0697  0.2353
 2026W        W 6226   2.245   3.282  10.148  0.1789  0.2320  0.0886
 2027W        W 6227   0.970   9.466   3.495 -0.1479  0.5434  0.0133
 2028W        W 6228   9.030   3.184  13.353  0.0899 -0.1474  0.0338
 2029W        W 6229   8.695   4.983   0.271  0.0826 -0.3020  0.3800
 2030W        W 6230   8.979   3.314   3.377 -0.1976 -0.1174  0.2904
 2031W        W 6231   9.937   4.140   3.902 -0.0389  0.1625 -0.1837
 2032W        W 6232   2.622   5.603   2.554 -0.1655 -0.1621 -0.1566
 2033W        W 6233   0.736   0.803   0.083 -0.0188 -0.0587 -0.0394
 2034W        W 6234   8.533   3.321  10.627 -0.1671 -0.1602 -0.0033
 2035W        W 6235   8.760   3.903   9.751  0.0892  0.5213  0.0693
 2036W        W 6236   8.045   6.320   3.707 -0.0142  0.2821 -0.1166
 2037W        W 6237   2.000   6.770  12.649  0.2645 -0.0157 -0.1087
 2038W        W 6238   8.851   6.985  11.352 -0.3594 -0.1887  0.1616
 2039W        W 6239   9.601   3.049   1.742 -0.0858  0.0030 -0.2403
 2040W        W 6240   7.369  10.239  12.830 -0.0850  0.0190  0.2266
 2041W        W 6241   2.360   1.515   8.870 -0.0300  0.0220 -0.2563
 2042W        W 6242   6.903   8.100   9.399 -0.0707 -0.0664 -0.3610
 2043W        W 6243   5.645   9.961   3.485 -0.0778  0.0771  0.2363
 2044W        W 6244   6.885   5.062  10.319 -0.2946  0.3491  0.0478
 2045W        W 6245   5.341   2.375  11.690  0.2790  0.0932 -0.1540
 2046W        W 6246   0.563   1.599  12.225  0.0619  0.1887 -0.0864
 2047W        W 6247   9.451   5.745   8.983  0.1972 -0.1470  0.4232
 2048W        W 6248   8.273   7.082   3.488  0.0740 -0.0075  0.1212
 2049W        W 6249   1.331   4.998   9.931 -0.1016 -0.2801  0.1602
 2050W        W 6250   7.399   5.322   3.275  0.2562 -0.3448  0.2592
 2051W        W 6251   9.698   3.933   0.806  0.0643 -0.1878  0.0202
 2052W        W 6252   8.709   5.154   2.178  0.1261 -0.1489  0.0743
 2053W        W 6253   3.642   0.663  13.204 -0.1594 -0.0774 -0.0655
 2054W        W 6254   2.505   7.351   0.674  0.2520 -0.0142 -0.1024
 2055W        W 6255   1.651   6.046   0.801 -0.2003 -0.2361  0.2853
 2056W        W 6256   7.566   9.738  10.713  0.0175  0.0531  0.0312
 2057W        W 6257   6.095   2.790  12.400 -0.0766  0.1795 -0.1464
 2058W        W 6258   1.489   9.947   4.145  0.0360 -0.0617  0.0078
 2059W        W 6259   9.384   2.341  10.512 -0.0445 -0.3545  0.2500
 2060W        W 6260   4.565   9.497   9.226  0.1468 -0.1375  0.1442
 2061W        W 6261   7.049   8.532   4.795  0.1683  0.2015  0.1161
 2062W        W 6262   4.248   5.648   4.566  0.1574 -0.2880  0.2608
 2063W        W 6263   6.489   2.508   1.290  0.0983  0.1112 -0.1480
 2064W        W 6264   1.559   4.609   1.879 -0.3705 -0.0820  0.1127
 2065W        W 6265   9.353   8.556  11.959 -0.2021  0.2488 -0.1396
 2066W        W 6266   7.715   8.757   9.751 -0.1788 -0.0895  0.1359
 2067W        W 6267  10.287   2.009  12.328 -0.2568 -0.4270 -0.3396
 2068W        W 6268   9.606   5.881  10.619  0.2976 -0.1564 -0.0785
 2069W        W 6269  10.165   3.688   0.721 -0.1262  0.1389 -0.0729
 2070W        W 6270   0.442   4.282   9.060 -0.0189 -0.2037 -0.2406
 2071W        W 6271   3.605   9.692  12.906 -0.1901  0.1609 -0.0697
 2072W        W 6272   8.880   9.613  10.153  0.2373 -0.3265  0.4025
 2073W        W 6273   1.672   3.574  11.807  0.3290 -0.2140  0.0408
 2074W        W 6274   8.076   5.983  13.258 -0.3693  0.0429 -0.0247
 2075W        W 6275   1.215   7.491   1.076  0.0820 -0.0998  0.0058
 2076W        W 6276   7.161   1.494  11.120  0.1171  0.2465 -0.2521
 2077W        W 6277   7.092   7.158   3.007 -0.2171 -0.0177 -0.1278
 2078W        W 6278   5.140   3.686  10.969 -0.1382  0.2284  0.1282
 2079W        W 6279   4.409   8.165   3.994  0.1837  0.0414  0.0637
 2080W        W 6280   3.941   8.954   8.726 -0.1569  0.0793 -0.0355
 2081W        W 6281   3.114   6.106   0.483 -0.1942 -0.0351 -0.2515
 2082W        W 6282   4.293   5.087   9.707 -0.3601  0.3054 -0.1225
 2083W        W 6283   4.182   7.940   9.686  0.1501 -0.1137 -0.1050
 2084W        W 6284   0.418   1.562   1.776 -0.0349 -0.0360 -0.2717
 2085W        W 6285   4.051   4.428   8.870  0.3802  0.0842 -0.0744
 2086W        W 6286   5.866   5.757  13.286 -0.0431  0.1561  0.0237
 2087W        W 6287   3.850   8.930   3.644 -0.2104 -0.1905  0.0073
 2088W        W 6288   2.255   8.204  11.067 -0.1843  0.0593 -0.0592
 2089W        W 6289  10.055   6.666   3.201 -0.1036 -0.1572 -0.2049
 2090W        W 6290   3.556   3.478  12.626  0.3077  0.1497  0.2459
 2091W        W 6291   1.236   9.243  12.953  0.1365 -0.1597  0.1174
 2092W        W 6292   2.619  10.250   8.944 -0.2182  0.2254  0.0940
 2093W        W 6293   2.465   7.877  12.877 -0.1527 -0.3714 -0.1569
 2094W        W 6294   7.417   1.037   9.776  0.0975  0.4165 -0.0023
 2095W        W 6295   0.960  10.432  11.452 -0.3664  0.1395 -0.0189
 2096W        W 6296   3.163   3.576   9.468  0.2620  0.1161 -0.0829
 2097W        W 6297  10.133   3.146   0.510 -0.1549 -0.3088 -0.1304
 2098W        W 6298   5.532   4.271  10.908  0.0687 -0.4146  0.0740
 2099W        W 6299   0.510   6.788   9.768 -0.0036 -0.0163  0.1987
 2100W        W 6300   5.733  10.136   0.194  0.2810 -0.0483 -0.1590
 2101W        W 6301   3.527  10.279  12.332 -0.0548  0.1047 -0.1173
 2102W        W 6302   2.960   1.481  13.403  0.1340  0.0562 -0.0958
 2103W        W 6303   7.605   6.171  11.990 -0.0258 -0.1243  0.0478
 2104W        W 6304  10.370  10.390   0.304 -0.4193 -0.1569 -0.0782
 2105W        W 6305   1.298   1.428   9.786  0.1875  0.1178 -0.0721
 2106W        W 6306   1.124   9.064   3.157 -0.1350 -0.0841 -0.5308
 2107W        W 6307   7.294   4.173  10.090 -0.5788 -0.0566  0.1411
 2108W        W 6308   1.620   8.980   3.230  0.0004 -0.0641 -0.1257
 2109W        W 6309   8.457   4.422   1.602  0.0645 -0.1782  0.0982
 2110W        W 6310   2.676  10.031   4.375  0.3309  0.2324  0.1701
 2111W        W 6311   3.242   9.028  11.925 -0.2308 -0.0434  0.2045
 2112W        W 6312   1.463   7.775  12.363 -0.1642 -0.0693  0.0027
 2113W        W 6313   3.694  10.202   8.301 -0.2246 -0.0369 -0.2465
 2114W        W 6314   4.313   0.212  10.707  0.1437 -0.1925  0.3258
 2115W        W 6315   1.960   2.954   9.332  0.1635 -0.3494  0.0594
 2116W        W 6316   8.687   2.734  12.823  0.2220 -0.1915  0.2384
 2117W        W 6317   0.745   7.984   1.976  0.0471  0.3314 -0.0344
 2118W        W 6318   4.817   1.038   4.459  0.1012 -0.1940  0.1266
 2119W        W 6319   0.155   3.209   4.320 -0.2290 -0.0591  0.0802
 2120W        W 6320   8.735   5.685  11.315  0.2022 -0.4498 -0.3460
 2121W        W 6321   0.639   8.804   4.159 -0.0470 -0.1434 -0.0854
 2122W        W 6322   0.087   0.247  13.391  0.0034  0.1786 -0.1171
 2123W        W 6323   9.628   5.370   0.579  0.1311  0.1409  0.1224
 2124W        W 6324   5.662   4.026   8.010 -0.2027 -0.0112  0.0574
 2125W        W 6325   3.735   1.125  12.829  0.5303  0.1361  0.2451
 2126W        W 6326  10.118   0.465   3.221 -0.3243 -0.2108 -0.2189
 2127W        W 6327   1.304   9.979   3.562  0.2043  0.0772  0.1653
 2128W        W 6328   2.799  10.161  13.146 -0.1632  0.0955  0.1706
 2129W        W 6329   2.792   4.030  10.739  0.1929 -0.2970 -0.1914
 2130W        W 6330   0.397   1.327   2.680 -0.0283 -0.4491 -0.0241
 2131W        W 6331   6.696   6.562  10.457  0.1324  0.0749  0.3624
 2132W        W 6332   4.996   1.013   2.096 -0.4199 -0.1092 -0.0231
 2133W        W 6333   4.075   7.130   9.361 -0.0840 -0.0766 -0.2339
 2134W        W 6334   3.714   2.986  12.571 -0.1104  0.0783 -0.1242
 2135W        W 6335   0.327   7.660   4.431  0.1771 -0.0299  0.2433
 2136W        W 6336   1.931  10.407   3.229 -0.0126 -0.2771  0.1370
 2137W        W 6337   2.575   1.612   2.364  0.0475  0.0037  0.0306
 2138W        W 6338   9.000   7.760  11.761 -0.1726  0.3406  0.0391
 2139W        W 6339   3.246   2.203   9.649 -0.1617  0.0464  0.2190
 2140W        W 6340   9.921  10.459   2.271  0.1927  0.2240  0.3435
 2141W        W 6341   5.818   4.686   1.427 -0.4635 -0.0815 -0.0694
 2142W        W 6342   6.802   1.063   9.971 -0.0135  0.0451 -0.1549
 2143W        W 6343   8.735   9.911   0.229  0.0813 -0.1750  0.0168
 2144W        W 6344   5.201   6.976   9.149 -0.1477  0.0037  0.1846
 2145W        W 6345   6.373   1.925  11.762  0.0725 -0.1943  0.0780
 2146W        W 6346   8.559   8.294  12.146  0.1918  0.0956 -0.0335
 2147W        W 6347   0.485   6.921   1.980 -0.2338 -0.0643  0.0738
 2148W        W 6348   6.214   7.020  11.032  0.2031 -0.1453  0.0446
 2149W        W 6349   3.113   4.901   9.304 -0.1132 -0.0192 -0.2473
 2150W        W 6350   6.732   9.698  10.204  0.1264  0.2585  0.0530
 2151W        W 6351   3.472   9.717  10.717  0.4136 -0.1195  0.1418
 2152W        W 6352   6.281  10.335   9.737 -0.0683 -0.2733  0.0647
 2153W        W 6353   4.037  10.174  13.436  0.3262 -0.0524  0.0359
 2154W        W 6354   3.987   3.181   0.565  0.0466  0.2495 -0.4023
 2155W        W 6355   3.921   7.444   1.498 -0.2021 -0.2703  0.2310
 2156W        W 6356  10.005   0.049   0.604  0.0703 -0.1769  0.2078
 2157W        W 6357   0.725   3.459   1.220 -0.1154 -0.0499  0.3012
 2158W        W 6358   0.765   2.006   2.213 -0.5621  0.2156  0.0947
 2159W        W 6359   3.527   4.207   4.250 -0.1796  0.0466 -0.1733
 2160W        W 6360   3.135   8.379   2.747 -0.2420  0.1147 -0.2788
 2161W        W 6361   3.373   8.367   9.983 -0.1067 -0.5184  0.2457
 2162W        W 6362   4.128   4.733   2.031  0.0222 -0.0435  0.0410
 2163W        W 6363   9.494   3.825  11.662  0.1429 -0.0135  0.0506
 2164W        W 6364   4.955   8.078  10.873 -0.0639 -0.1266  0.0561
 2165W        W 6365   3.177   1.308  12.900 -0.4158 -0.1616  0.0308
 2166W        W 6366   1.132   2.159   1.954 -0.1836 -0.1242 -0.1898
 2167W        W 6367  10.325   6.423   2.720 -0.2513 -0.0535 -0.0889
 2168W        W 6368   6.884   2.657   3.439  0.3794  0.0318 -0.1510
 2169W        W 6369   0.389   8.608  10.154 -0.1841  0.2932 -0.1462
 2170W        W 6370   5.602   9.023   3.860  0.2092 -0.0240 -0.4181
 2171W        W 6371   9.994  10.458  12.755  0.0417  0.1478  0.0379
 2172W        W 6372   8.642   0.922   9.437 -0.3310  0.3012  0.0165
 2173W        W 6373   3.604   1.512   4.515  0.2382 -0.0227  0.2171
 2174W        W 6374   3.033  10.040  10.778  0.1404  0.2140  0.0612
 2175W        W 6375   4.117   8.078   0.701  0.2387 -0.3428  0.0017
 2176W        W 6376   3.231   8.976   9.335  0.3421 -0.0232  0.0607
 2177W        W 6377   5.816   0.491   1.732  0.3075  0.1678 -0.0400
 2178W        W 6378   2.282   4.642   3.053  0.0293  0.1853 -0.1275
 2179W        W 6379   1.341   9.770  11.907  0.0879  0.1513  0.0375
 2180W        W 6380   3.927   6.641   1.974 -0.4594  0.0368  0.3238
 2181W        W 6381   5.595   0.203  11.710 -0.1443  0.0907  0.1564
 2182W        W 6382   6.908   3.676   3.293 -0.0995  0.3370 -0.3141
 2183W        W 6383   1.717   7.794  12.882 -0.1740 -0.1172  0.2345
 2184W        W 6384   4.410   8.520   1.569 -0.0038  0.3356  0.3835
 2185W        W 6385   9.320   1.196   0.951 -0.0877 -0.0236 -0.0376
 2186W        W 6386   6.698   9.849  11.886 -0.2210  0.2597 -0.2231
 2187W        W 6387   2.049   2.826  11.174  0.1488 -0.0927  0.1603
 2188W        W 6388   6.996   0.556  11.646 -0.5352  0.0754 -0.1668
 2189W        W 6389   6.418   4.573   8.655  0.2928  0.2377 -0.0058
 2190W        W 6390   6.450   1.440   0.488  0.1509 -0.0256 -0.2028
 2191W        W 6391   7.401   8.464   0.561  0.2343 -0.0733  0.1199
 2192W        W 6392   2.715   2.158  12.470 -0.1101 -0.2139 -0.0469
 2193W        W 6393   7.945   0.759   1.485 -0.1076 -0.1360 -0.2846
 2194W        W 6394   4.857   9.409   1.828  0.0383  0.3406 -0.0898
 2195W        W 6395   5.051   6.780   0.030  0.0170  0.2748  0.1922
 2196W        W 6396   7.409   2.871  10.109 -0.0511  0.0273 -0.2722
 2197W        W 6397   6.804   6.245  12.834  0.0620  0.1245  0.2115
 2198W        W 6398   1.582   2.825   8.987 -0.1150 -0.1584  0.5162
 2199W        W 6399   2.363   3.678   3.157 -0.5167  0.1713 -0.2752
 2200W        W 6400   3.864   5.438  11.869 -0.0786 -0.0546  0.3640
 2201W        W 6401  10.272   5.550   8.690  0.2720  0.0627 -0.0922
 2202W        W 6402   3.370   5.278   4.043  0.2445  0.1248  0.0571
 2203W        W 6403  10.183   0.665   0.868  0.0947  0.1715 -0.1053
 2204W        W 6404   5.762   1.277  10.002 -0.0146  0.1976  0.0408
 2205W        W 6405   9.631   1.720   1.379 -0.1188  0.1599  0.0003
 2206W        W 6406   8.712   2.099  11.745 -0.0895  0.2287 -0.0914
 2207W        W 6407   8.698   9.900   1.333  0.1216  0.1592  0.0238
 2208W        W 6408   9.519   4.798  10.127 -0.1894 -0.2662 -0.1128
 2209W        W 6409   8.818   3.330   2.740 -0.3964  0.2667 -0.0054
 2210W        W 6410   0.142   8.813  11.356  0.1439  0.0899  0.0736
 2211W        W 6411   1.567  10.108   3.123 -0.1767  0.3322 -0.1093
 2212W        W 6412   3.868   3.791   3.138  0.3560  0.1952 -0.3723
 2213W        W 6413   4.606   0.894  10.413 -0.2263 -0.1079  0.1088
 2214W        W 6414   9.050   1.499   3.074  0.0455  0.2170 -0.0933
 2215W        W 6415   3.691   9.935   3.590 -0.0024  0.2227 -0.0777
 2216W        W 6416   6.010   6.190   5.079  0.0220 -0.2136 -0.1647
 2217W        W 6417   2.822   6.665   4.554  0.0875  0.2697 -0.0711
 2218W        W 6418   6.307   6.983  12.632 -0.2409 -0.1720 -0.2127
 2219W        W 6419   0.413   3.872   3.685  0.0156 -0.2484 -0.0963
 2220W        W 6420   7.168   9.999  10.920 -0.0880 -0.0462  0.0667
 2221W        W 6421   6.918   0.433   0.669  0.1534  0.1084  0.1642
 2222W        W 6422   9.753   3.115   0.937 -0.3036  0.1912 -0.2060
 2223W        W 6423   0.682   6.417   3.122  0.4188 -0.0175  0.1773
 2224W        W 6424   6.185   4.370   4.109  0.0387 -0.0656  0.0012
 2225W        W 6425  10.079  10.150   1.079 -0.0921 -0.3339  0.3084
 2226W        W 6426   7.562   7.411   4.106 -0.0441 -0.1606  0.0797
 2227W        W 6427   7.563   1.842  11.420  0.2819 -0.3433  0.2081
 2228W        W 6428   1.748   4.277   4.085 -0.1306  0.0024  0.0565
 2229W        W 6429   2.186   5.733   1.506 -0.2064  0.0389 -0.2304
 2230W        W 6430   4.569   6.633   9.945  0.0542 -0.1210 -0.0239
 2231W        W 6431   4.234   2.917  10.541 -0.3012  0.1267  0.0873
 2232W        W 6432   3.235   1.188  11.741 -0.2153  0.0832  0.1627
 2233W        W 6433   7.207   6.648  10.331 -0.3870  0.0065  0.0113
 2234W        W 6434   9.147   5.646  12.410  0.0576  0.3167  0.4022
 2235W        W 6435   9.741   8.882   0.184  0.0520  0.0942  0.1667
 2236W        W 6436   4.662   0.677  12.649  0.0676 -0.1137 -0.2076
 2237W        W 6437   2.611   0.030   8.547  0.0224  0.1768  0.0204
 2238W        W 6438   1.201   7.610  10.602 -0.1096 -0.0413  0.2133
 2239W        W 6439   6.359   0.453  11.820 -0.0727  0.0593  0.1063
 2240W        W 6440   3.582   7.662   2.426  0.5286 -0.0344 -0.3521
 2241W        W 6441   6.638   9.587   9.737  0.1990 -0.0464 -0.3019
 2242W        W 6442   6.647   1.195   1.596  0.0304 -0.0453 -0.0045
 2243W        W 6443   1.748   8.804   4.067 -0.0479  0.0157  0.2771
 2244W        W 6444   9.790   5.772   9.601 -0.1643  0.0077  0.0292
 2245W        W 6445   4.246   2.564   1.058  0.0403  0.1589 -0.0772
 2246W        W 6446   3.685   2.151   9.942 -0.1130  0.0916 -0.0562
 2247W        W 6447   4.331   3.628   4.911 -0.0323 -0.0345  0.0688
 2248W        W 6448   5.541   0.462   4.262  0.0674 -0.0479 -0.2080
 2249W        W 6449   5.619   1.908   2.463 -0.0181  0.1489 -0.2040
 2250W        W 6450   7.200  10.051   3.655 -0.1211 -0.1491 -0.1948
 2251W        W 6451   2.115   7.812  12.554 -0.0773 -0.1979 -0.1004
 2252W        W 6452   6.562   8.842   1.233 -0.0955  0.0192 -0.1756
 2253W        W 6453   8.381   7.477  10.490 -0.2686  0.2625 -0.0975
 2254W        W 6454   1.071   8.413  11.402  0.0169 -0.2441  0.0290
 2255W        W 6455   3.198   2.760  11.952  0.0427 -0.0348  0.0222
 2256W        W 6456   7.867   4.758  13.270  0.1690  0.3073 -0.3525
 2257W        W 6457   0.886   7.541   0.692 -0.0388  0.1325  0.0687
 2258W        W 6458   2.704   2.085   0.064 -0.2173  0.0221 -0.0236
 2259W        W 6459   4.400   5.619  12.076 -0.1994 -0.2845  0.0524
 2260W        W 6460   9.667   0.373  10.655 -0.1669 -0.1568 -0.1912
 2261W        W 6461   3.208   4.879   3.089  0.3086  0.0871 -0.2963
 2262W        W 6462   0.666  10.459   3.002  0.1218 -0.0030 -0.1262
 2263W        W 6463   7.830  10.150   9.886  0.2048 -0.0468  0.0802
 2264W        W 6464   1.438   1.588  10.346 -0.2927 -0.1620 -0.5318
 2265W        W 6465   2.615   2.597   4.879  0.0716 -0.2757  0.1495
 2266W        W 6466   4.148   6.170   0.175  0.0561 -0.0125  0.1999
 2267W        W 6467  10.065   0.218   1.102 -0.0539 -0.1445 -0.2358
 2268W        W 6468   0.477   5.864   3.511  0.1097 -0.0751  0.2249
 2269W        W 6469   6.524   9.182  13.367 -0.3183 -0.1094 -0.2776
 2270W        W 6470   5.698   5.122   3.402  0.0388  0.0958  0.1675
 2271W        W 6471   1.448   9.096  10.790 -0.1061  0.2435  0.1903
 2272W        W 6472   0.597   6.353  10.994 -0.1308  0.2073  0.0651
 2273W        W 6473   9.147   6.022  11.487 -0.1806 -0.1978 -0.0307
 2274W        W 6474   7.955   2.011   2.160  0.0066 -0.3374 -0.0321
 2275W        W 6475   5.852   3.201   0.772 -0.2914 -0.3007  0.1900
 2276W        W 6476   9.710   8.720   3.817  0.3639  0.0839  0.2476
 2277W        W 6477   5.009   4.531  13.158 -0.0247  0.1517 -0.1212
 2278W        W 6478  10.223   7.887   0.275  0.2322 -0.3068  0.0121
 2279W        W 6479   6.323   8.024   2.360  0.2916 -0.3862  0.1194
 2280W        W 6480   4.166   1.862  13.068 -0.0878  0.3298 -0.0312
 2281W        W 6481   1.687   2.995   3.857 -0.1754  0.0955  0.0921
 2282W        W 6482   7.706   6.798   9.298  0.1619 -0.1935 -0.1147
 2283W        W 6483   0.562   0.029  13.420 -0.3157  0.0543 -0.1453
 2284W        W 6484   4.904   6.173   0.783 -0.0436 -0.0149  0.2032
 2285W        W 6485   5.391   1.871   1.984  0.0398 -0.1390  0.2081
 2286W        W 6486   3.151   7.457   5.052 -0.1225 -0.1575 -0.1112
 2287W        W 6487   6.241   8.742  11.352 -0.1481  0.3312 -0.0773
 2288W        W 6488   3.001  10.096   3.975 -0.1632 -0.1785 -0.1332
 2289W        W 6489   2.792   6.856  11.365 -0.1369  0.1881 -0.0980
 2290W        W 6490   6.324   7.635   0.947  0.1410 -0.0213 -0.0046
 2291W        W 6491   1.515   2.387   9.192 -0.0048 -0.0838 -0.1233
 2292W        W 6492   6.370   6.489   1.828 -0.1551 -0.0960  0.2129
 2293W        W 6493   3.276   1.331  10.517  0.0002  0.0288 -0.4912
 2294W        W 6494   1.414   0.335  10.631  0.0848 -0.0874 -0.1764
 2295W        W 6495   2.033   1.211   3.100  0.1994  0.0766  0.1129
 2296W        W 6496   5.774   1.926  10.164  0.2235  0.2160  0.2460
 2297W        W 6497   7.251   6.262   3.016  0.0209 -0.2850 -0.0789
 2298W        W 6498   3.593   2.665  11.612  0.0810 -0.1252 -0.1564
 2299W        W 6499   4.407   0.456   4.823  0.2247  0.1823 -0.0834
 2300W        W 6500   7.864   3.111   2.511 -0.1457 -0.0483  0.0381
 2301W        W 6501   3.999   2.408   0.593  0.2295  0.2205 -0.2093
 2302W        W 6502   5.594   7.936   0.263 -0.1091 -0.4023  0.1447
 2303W        W 6503   1.726   5.607   4.368 -0.1381 -0.0560 -0.3798
 2304W        W 6504   1.309   6.322   2.448  0.1905 -0.0195 -0.2749
 2305W        W 6505   4.900   9.122   9.476  0.1624  0.0428  0.0119
 2306W        W 6506   6.810   6.341   0.397 -0.2080  0.1612 -0.0393
 2307W        W 6507   4.744   4.517  12.453 -0.2719 -0.1603 -0.2274
 2308W        W 6508   2.999   4.061   0.943  0.1571  0.0014 -0.4566
 2309W        W 6509   1.399   8.666  12.158  0.0692 -0.0210  0.0870
 2310W        W 6510   5.774   8.702   1.068  0.0735 -0.1588 -0.0784
 2311W        W 6511   3.513   1.993  11.391  0.0145 -0.3311  0.2112
 2312W        W 6512   2.145   3.923  12.752  0.0928  0.1367  0.0857
 2313W        W 6513   2.852   7.534   1.400 -0.0980  0.0555 -0.1954
 2314W        W 6514   3.549   2.617  12.882 -0.0710  0.2617 -0.0165
 2315W        W 6515   1.865   1.125   9.230  0.1241  0.0854  0.1971
 2316W        W 6516   2.105   4.265   1.529 -0.2799 -0.1037  0.2828
 2317W        W 6517   8.917   6.482   1.561  0.0871  0.0229 -0.1712
 2318W        W 6518   8.692   6.781  10.965 -0.2135  0.0379 -0.1176
 2319W        W 6519   4.058   6.447  11.947  0.0922  0.1945  0.3043
 2320W        W 6520   1.761   0.076  11.643 -0.1397  0.0463  0.2990
 2321W        W 6521   5.165   3.860   2.320 -0.0928  0.0185 -0.2431
 2322W        W 6522   9.125   1.130  11.411 -0.0358 -0.1361 -0.0168
 2323W        W 6523   7.017   2.284  12.608 -0.1758 -0.0307 -0.0074
 2324W        W 6524   5.533   4.485  13.106  0.3537 -0.0654 -0.2512
 2325W        W 6525   2.211   9.298  11.261  0.0302  0.2683 -0.0074
 2326W        W 6526   8.822   4.632   2.035 -0.2080  0.0542  0.1275
 2327W        W 6527   6.032   7.569   0.533  0.0975 -0.0222 -0.0098
 2328W        W 6528   0.935   8.498  12.187 -0.3541  0.3479 -0.1186
 2329W        W 6529   4.260   7.756   2.072  0.1519  0.2839 -0.1823
 2330W        W 6530   5.688   3.179  10.227 -0.2367  0.1051 -0.1745
 2331W        W 6531   8.540   2.816   0.363  0.1907 -0.0500  0.2568
 2332W        W 6532   2.937   9.562  10.655 -0.1372  0.1568 -0.1147
 2333W        W 6533   6.355   0.400   0.530 -0.2072  0.0718  0.5463
 2334W        W 6534   8.478   2.931   3.512  0.2342 -0.0555  0.1029
 2335W        W 6535   1.112   9.586   2.505  0.0652  0.0178 -0.1177
 2336W        W 6536   5.602   4.976   9.038  0.2955  0.0784  0.0750
 2337W        W 6537   1.659   1.100  10.399 -0.1486  0.0352 -0.0187
 2338W        W 6538   0.704   1.038  12.257 -0.0222  0.0759 -0.1923
 2339W        W 6539   4.454   3.275  11.527 -0.0441  0.1337 -0.1716
 2340W        W 6540   4.251   1.807   2.360 -0.0536  0.0675 -0.1593
 2341W        W 6541   9.753   8.081   2.047 -0.2744 -0.3112 -0.0908
 2342W        W 6542   0.566   5.574   9.104 -0.1561  0.4083  0.3515
 2343W        W 6543  10.401   1.078  10.931  0.2780 -0.0390 -0.1599
 2344W        W 6544   0.225   3.513   5.346 -0.0101 -0.0912  0.0711
 2345W        W 6545   2.436   7.743   3.247  0.1949 -0.0016 -0.0738
 2346W        W 6546  10.432   6.979   2.731  0.1405  0.0746 -0.2760
 2347W        W 6547   0.520   4.053  10.595  0.0032  0.1946 -0.1339
 2348W        W 6548   0.964   3.118  10.151 -0.0134  0.3221  0.1130
 2349W        W 6549   0.257   3.184   2.703  0.2090 -0.1908  0.1976
 2350W        W 6550   1.241   8.352   0.594  0.4687 -0.0066 -0.0920
 2351W        W 6551   3.228   4.977   9.802  0.1133  0.1189 -0.0669
 2352W        W 6552   1.689   8.506   3.175 -0.3130  0.3364  0.2061
 2353W        W 6553  10.197   1.666  11.219 -0.3522  0.0693  0.0320
 2354W        W 6554   2.208   1.099   1.163 -0.0938  0.0295 -0.0191
 2355W        W 6555   2.404   2.249   4.214 -0.1872 -0.0311 -0.2382
 2356W        W 6556   5.362   1.188   1.660 -0.2307  0.0045 -0.1111
 2357W        W 6557   7.763   6.741   0.094 -0.0483 -0.4192  0.1733
 2358W        W 6558   5.008   6.855  12.461 -0.3884 -0.0169 -0.1345
 2359W        W 6559   9.380   4.374   2.718  0.1356 -0.1245  0.0952
 2360W        W 6560  10.025   0.022   2.829 -0.0306 -0.0773  0.2259
 2361W        W 6561  10.309   5.016   3.230 -0.1755 -0.1562  0.0215
 2362W        W 6562   9.630   1.144   0.125  0.2730  0.0795 -0.2354
 2363W        W 6563  10.143   2.433   2.869  0.0322 -0.0003  0.1969
 2364W        W 6564   8.658   0.348  12.589 -0.0514  0.0109 -0.1091
 2365W        W 6565  10.307   9.293  10.348 -0.0223 -0.1331  0.0257
 2366W        W 6566   2.149   9.487   2.307  0.2608  0.1150  0.2053
 2367W        W 6567   9.918   4.196   1.275  0.4466  0.0571  0.2566
 2368W        W 6568   2.154   5.527  11.226  0.1579 -0.1542  0.0269
 2369W        W 6569   4.171   5.735   0.424 -0.0683 -0.1740 -0.1433
 2370W        W 6570   1.655   7.444  11.608 -0.0853 -0.2418  0.3267
 2371W        W 6571   8.003   0.485   1.036 -0.2805 -0.0496 -0.0506
 2372W        W 6572   8.053   6.136   0.211 -0.3379 -0.1073 -0.0777
 2373W        W 6573   8.539   5.564   2.383 -0.0885  0.0557 -0.1265
 2374W        W 6574   9.923   3.467  11.242  0.1327 -0.1350  0.0325
 2375W        W 6575   9.850   0.459   0.480 -0.1482 -0.0770 -0.0574
 2376W        W 6576   2.664   3.958   1.659 -0.0819 -0.0522  0.3380
 2377W        W 6577   0.106   3.319   3.790  0.0584 -0.1638  0.0913
 2378W        W 6578   8.652   1.662  10.229  0.3325 -0.0457  0.0390
 2379W        W 6579   1.007   5.750   5.268 -0.1585  0.2321 -0.2572
 2380W        W 6580   2.583   5.552   9.485 -0.0595 -0.4539  0.2179
 2381W        W 6581   6.820   2.743   4.487  0.0731 -0.2824  0.1815
 2382W        W 6582   0.209  10.078  10.851 -0.0484 -0.0898 -0.1969
 2383W        W 6583   6.922   7.179   9.812 -0.1296  0.0784 -0.0612
 2384W        W 6584   1.025   3.038  11.138 -0.0661 -0.2535 -0.0961
 2385W        W 6585   8.663   4.731  13.262 -0.1772  0.1067 -0.0617
 2386W        W 6586   0.786   2.054   3.055 -0.1412  0.1237 -0.2765
 2387W        W 6587   2.238   7.833   9.652  0.1197  0.2275  0.2090
 2388W        W 6588   0.488   3.277   2.121  0.0588 -0.1351  0.0355
 2389W        W 6589   2.929   5.198   2.387 -0.0797  0.0689 -0.0275
 2390W        W 6590   5.764   2.569  11.364 -0.0356  0.1641 -0.0353
 2391W        W 6591   1.814   6.340   3.844  0.0166  0.0779 -0.0957
 2392W        W 6592   1.532   0.898   4.381  0.4553  0.0232 -0.0930
 2393W        W 6593   8.391   0.054   3.027  0.3112  0.2457 -0.1121
 2394W        W 6594   7.531   8.115   2.891 -0.0200 -0.4014  0.1444
 2395W        W 6595   3.760   4.308   9.893  0.1881 -0.1438  0.2796
 2396W        W 6596   0.442   2.830  12.452 -0.0500 -0.0208  0.1153
 2397W        W 6597   7.433   8.043   3.417  0.1220 -0.2186  0.4483
 2398W        W 6598   2.952   8.706  11.214 -0.0660 -0.0987 -0.0401
 2399W        W 6599   9.181   0.683  11.666  0.1981 -0.1021 -0.1402
 2400W        W 6600   6.940   7.699   8.179  0.0549 -0.0155  0.4353
 2401W        W 6601   5.572   3.374  10.823  0.0593  0.0234  0.1314
 2402W        W 6602   1.442   6.807   9.917  0.1556 -0.2622 -0.2252
 2403W        W 6603   7.171   5.575   9.450 -0.1495 -0.0860 -0.2061
 2404W        W 6604   2.046   8.269  12.841 -0.0010  0.2463 -0.1449
 2405W        W 6605   7.354   5.848  10.908 -0.0385 -0.1679  0.1170
 2406W        W 6606   5.046   4.914   1.847  0.0103  0.2646  0.0509
 2407W        W 6607   5.844   3.655  12.768  0.0619  0.2973 -0.1284
 2408W        W 6608   1.275   0.114  11.902  0.1697 -0.0626  0.1283
 2409W        W 6609   5.014   6.527  11.532 -0.0783  0.0737  0.0508
 2410W        W 6610   3.827   4.589  10.795 -0.1442  0.0613  0.1450
 2411W        W 6611   8.558   6.835   4.697 -0.1143  0.0563  0.0750
 2412W        W 6612   6.155   6.338   1.395 -0.0188 -0.0455 -0.1331
 2413W        W 6613   1.742   1.532   2.384  0.0397 -0.1429  0.0208
 2414W        W 6614   2.379   2.072  12.923  0.0859 -0.0474 -0.0382
 2415W        W 6615   4.826   3.346  11.118 -0.0787 -0.0322 -0.4945
 2416W        W 6616   4.681   5.668   4.035  0.0361 -0.1120 -0.2517
 2417W        W 6617   8.743   2.861   2.506 -0.0147 -0.2778  0.0281
 2418W        W 6618   4.444   2.193  10.180  0.0856 -0.0990  0.1575
 2419W        W 6619   5.964   5.844  12.538  0.1477 -0.1812  0.3147
 2420W        W 6620   7.603   6.969   4.572 -0.1162 -0.1684  0.2044
 2421W        W 6621   9.339   8.479  10.498 -0.1214  0.0172 -0.1053
 2422W        W 6622   9.571   0.480   1.015 -0.1499 -0.2031  0.2324
 2423W        W 6623   2.252   5.158  12.259 -0.1911 -0.3254 -0.1366
 2424W        W 6624   5.157   4.692  10.951  0.0684  0.0456 -0.1193
 2425W        W 6625   2.565   6.430  10.680 -0.2595 -0.0654  0.0117
 2426W        W 6626   4.404   2.369   4.044  0.3238 -0.1570  0.0733
 2427W        W 6627   9.149   1.096   2.369 -0.4778 -0.3694 -0.0066
 2428W        W 6628   9.909   8.164   2.687 -0.1298  0.1852  0.0600
 2429W        W 6629   4.873   5.446  10.955 -0.1182 -0.2958  0.3191
 2430W        W 6630   9.178   4.418   1.252  0.2599 -0.0547 -0.0839
 2431W        W 6631   7.744   7.135   9.735 -0.1196  0.1684  0.0943
 2432W        W 6632   9.505   2.774   9.400  0.1610 -0.5533  0.0304
 2433W        W 6633   3.152   1.413   8.580 -0.1732  0.0725 -0.4720
 2434W        W 6634   0.298   3.678   2.346 -0.4361  0.0221  0.1679
 2435W        W 6635   0.631   5.814   2.510 -0.0494 -0.0190 -0.0470
 2436W        W 6636   1.858   9.126  12.619 -0.3953  0.2636 -0.0803
 2437W        W 6637   2.608   6.105   2.320  0.1759  0.1676  0.1355
 2438W        W 6638   3.721   6.356  11.278  0.2884 -0.0640  0.0087
 2439W        W 6639   8.627   8.334   2.482 -0.1237 -0.1398 -0.1316
 2440W        W 6640   8.153   4.106  12.165  0.3372  0.1114 -0.2855
 2441W        W 6641   4.786   8.881   1.629 -0.3198 -0.1836 -0.1756
 2442W        W 6642   0.960   0.506  12.223 -0.1022 -0.0845  0.0545
 2443W        W 6643   8.198   3.836   0.726  0.0500  0.0183 -0.1532
 2444W        W 6644   0.642   4.958  12.399  0.0279 -0.0857  0.0970
 2445W        W 6645   3.908   6.941   3.312  0.0474  0.3061  0.0707
 2446W        W 6646   6.564   5.827   3.733  0.1808  0.0530 -0.2242
 2447W        W 6647   4.544   5.711  11.340 -0.0417  0.3109  0.1147
 2448W        W 6648   7.771   4.762   9.351 -0.2409  0.1697  0.0372
 2449W        W 6649   2.936   9.903   3.161 -0.0156 -0.2952  0.0066
 2450W        W 6650   1.671   9.636  10.665  0.0471 -0.0106  0.0849
 2451W        W 6651   9.583   4.442   0.919 -0.0834  0.3425 -0.1780
 2452W        W 6652   4.498   0.436  13.326  0.2017  0.0612 -0.1959
 2453W        W 6653   7.026   5.932   4.401  0.0776  0.0558  0.3577
 2454W        W 6654   4.265   9.605   1.859  0.4120  0.0622  0.2831
 2455W        W 6655   3.478   4.159  13.306 -0.2757 -0.2636 -0.2846
 2456W        W 6656   0.420   4.024   4.504 -0.1550 -0.1416 -0.0399
 2457W        W 6657   1.798   6.147   3.367  0.1840  0.3941  0.0255
 2458W        W 6658   3.769   4.572  12.571  0.0128 -0.1426  0.1468
 2459W        W 6659   8.750  10.058  13.225  0.0468  0.0323  0.2477
 2460W        W 6660   2.192   3.326  12.972  0.0256 -0.1917  0.1641
 2461W        W 6661   7.556   9.599   9.764 -0.0660  0.0571  0.1095
 2462W        W 6662   8.186   9.168   9.830 -0.1432 -0.1245  0.1296
 2463W        W 6663   1.797   2.141   0.150  0.0160  0.1459 -0.2182
 2464W        W 6664   4.003   6.892   4.626  0.3860 -0.1515 -0.0799
 2465W        W 6665   1.929   5.386   0.727  0.1432  0.2296  0.0633
 2466W        W 6666   5.394   7.995  10.529  0.1923  0.2881  0.1249
 2467W        W 6667   6.696   3.393  11.170  0.3567 -0.0419  0.4368
 2468W        W 6668   1.572   0.682   1.763 -0.1967  0.0032  0.1296
 2469W        W 6669   7.586   3.428   4.867 -0.0026  0.0759 -0.3223
 2470W        W 6670   1.532   7.374   0.405  0.2167  0.1275  0.4755
 2471W        W 6671   8.422   4.335  11.631  0.0959 -0.0324 -0.0180
 2472W        W 6672   0.948   9.644  12.694 -0.1164 -0.0850  0.2905
 2473W        W 6673   1.988   0.735   1.470 -0.0573  0.0844 -0.2438
 2474W        W 6674   9.645  10.434   0.927  0.3263 -0.0937  0.0074
 2475W        W 6675   9.763  10.020   0.716 -0.0478  0.0238 -0.3455
 2476W        W 6676   8.264   9.879   2.351  0.0806 -0.3348  0.1395
 2477W        W 6677   9.812   7.686   1.741  0.2381  0.0456 -0.3421
 2478W        W 6678   3.345   0.220   0.208 -0.2356  0.1750  0.2774
 2479W        W 6679   7.217   0.779   0.914  0.1351  0.3394  0.1486
 2480W        W 6680   0.489   2.444   2.196 -0.1250  0.4590 -0.1238
 2481W        W 6681   4.596   2.224   2.369 -0.0362 -0.0505 -0.2594
 2482W        W 6682   2.939   0.837  12.839 -0.0522 -0.3520  0.0301
 2483W        W 6683   3.614   8.068   0.970 -0.2888  0.0867  0.1526
 2484W        W 6684   2.722   9.453  10.039  0.1508 -0.1303 -0.0124
 2485W        W 6685   8.018   0.529  10.652 -0.2101  0.1136 -0.2315
 2486W        W 6686   7.901   3.294  11.365  0.0430  0.1109 -0.2146
 2487W        W 6687   5.057   2.579  12.125  0.1596  0.0137 -0.2902
 2488W        W 6688   9.944   7.598  10.143 -0.0798 -0.0873 -0.0130
 2489W        W 6689   9.130   0.256   1.185 -0.0557 -0.0997  0.1405
 2490W        W 6690   7.524   9.617  12.040  0.2826  0.0345  0.1893
 2491W        W 6691   3.006   1.792   9.858  0.0533  0.0719  0.1830
 2492W        W 6692   1.637   7.774   0.113 -0.3185  0.3373  0.0676
 2493W        W 6693  10.407   7.888   0.758 -0.0719  0.0132 -0.1331
 2494W        W 6694   9.639   8.517   4.622  0.1231 -0.1584 -0.1269
 2495W        W 6695   2.957   9.101   9.779  0.2621 -0.0585  0.1138
 2496W        W 6696   0.580   3.408   3.604 -0.2905  0.4666 -0.0036
 2497W        W 6697   8.892   1.384   1.351  0.0860  0.1267 -0.0156
 2498W        W 6698   7.599   5.271   2.204 -0.0296  0.2526 -0.1000
 2499W        W 6699   7.342   4.196   1.289 -0.0637  0.1580 -0.0622
 2500W        W 6700   2.788   7.582   1.893  0.1707  0.0354 -0.0231
 2501W        W 6701   3.285   4.932  13.424 -0.0322 -0.1810 -0.3189
 2502W        W 6702   2.565   0.351  11.178 -0.2574  0.1798  0.1887
 2503W        W 6703   0.102   2.096   3.014 -0.3193  0.0860 -0.0026
 2504W        W 6704   1.481   6.516  13.395 -0.2648 -0.2915  0.3597
 2505W        W 6705   0.719   4.857   3.774  0.0745 -0.4542  0.1354
 2506W        W 6706   0.173   2.165   1.281  0.0511 -0.4384 -0.1781
 2507W        W 6707   4.581   6.782  12.211  0.2493 -0.1566 -0.0723
 2508W        W 6708   0.140   2.946   2.255  0.1457 -0.1460 -0.1521
 2509W        W 6709   7.373   8.003  12.854  0.2192  0.3326 -0.1773
 2510W        W 6710   0.945   4.162  13.052  0.1697  0.0961  0.1413
 2511W        W 6711   6.537   4.499   4.486  0.1835 -0.2409 -0.0076
 2512W        W 6712   8.875   7.641   0.598 -0.0052 -0.0225  0.2299
 2513W        W 6713   6.736   6.283  12.239 -0.2488  0.2305  0.1586
 2514W        W 6714   0.147   2.842  11.426  0.1061  0.0642 -0.1488
 2515W        W 6715   1.290   5.767   0.279 -0.1892  0.2733  0.1198
 2516W        W 6716   7.512   2.406  10.586 -0.0603 -0.0959 -0.0112
 2517W        W 6717  10.028   5.825   1.068 -0.1774 -0.2436  0.1243
 2518W        W 6718   8.613   8.266   9.644 -0.1929 -0.2385  0.1747
 2519W        W 6719  10.169   1.035   3.346  0.2149  0.1110 -0.1482
 2520W        W 6720   6.384   0.444   9.545  0.0633  0.0388 -0.1376
 2521W        W 6721   0.106   4.714   1.461  0.0662 -0.1010 -0.0221
 2522W        W 6722   2.479  10.407   2.296  0.2315 -0.0747  0.3167
 2523W        W 6723   4.624   6.220  11.424  0.0836  0.0318  0.2865
 2524W        W 6724   0.389   4.918   3.330 -0.1152  0.0359  0.1832
 2525W        W 6725   8.385   0.641   1.629  0.0577 -0.3177  0.1671
 2526W        W 6726   3.929   5.986   4.488  0.0494 -0.0576 -0.2263
 2527W        W 6727   5.593   7.725   3.716 -0.0824  0.0740  0.3574
 2528W        W 6728   8.640   7.311   3.225  0.0286  0.2135  0.2562
 2529W        W 6729   4.076   4.988  11.641 -0.1060 -0.3882 -0.0811
 2530W        W 6730   9.115   4.202   9.908 -0.2766 -0.3866 -0.1391
 2531W        W 6731   2.671   2.162  11.553  0.1693 -0.2838  0.0896
 2532W        W 6732   5.107   7.176  10.499 -0.3303 -0.1711 -0.3792
 2533W        W 6733   3.101   8.289   1.215 -0.1983 -0.0279  0.4126
 2534W        W 6734   4.578   6.765  12.777 -0.1644  0.0757  0.0251
 2535W        W 6735   7.733  10.132  13.363 -0.0945 -0.3091 -0.2567
 2536W        W 6736   5.181   6.142  11.845  0.0952  0.2076  0.0410
 2537W        W 6737   3.610  10.172   1.399  0.0377  0.0889 -0.0591
 2538W        W 6738   4.765   9.892   1.958 -0.2060  0.1221  0.1224
 2539W        W 6739   3.407   7.259  13.030  0.1533 -0.1483  0.0283
 2540W        W 6740   5.879  10.197  10.293  0.3182 -0.0415 -0.3252
 2541W        W 6741   4.824   7.839   1.518 -0.1351  0.0538 -0.1034
 2542W        W 6742   7.013   8.276   1.666 -0.4089  0.2156 -0.0207
 2543W        W 6743   3.848   4.630   5.346  0.0718 -0.0210 -0.1809
 2544W        W 6744   8.006   7.141   3.070 -0.3191 -0.0673 -0.0304
 2545W        W 6745   8.721   0.249  10.251 -0.2658 -0.0600 -0.0233
 2546W        W 6746   3.685   9.294  12.510 -0.1980 -0.2780 -0.0368
 2547W        W 6747  10.147  10.055  11.515  0.0440 -0.1517  0.1025
 2548W        W 6748   1.714   2.020  10.532 -0.3388 -0.3275  0.2373
 2549W        W 6749   3.759   3.683   0.508 -0.1985 -0.5153  0.1128
 2550W        W 6750   1.747   7.999   9.349 -0.0440 -0.0992  0.3042
 2551W        W 6751   3.419   6.787   3.160 -0.0146 -0.2614  0.1379
 2552W        W 6752   2.538   3.168   0.394  0.0093  0.1465 -0.2879
 2553W        W 6753   6.001   1.310  12.625 -0.0924  0.1860  0.0925
 2554W        W 6754   3.573   0.569   1.621  0.1459  0.1378  0.1817
 2555W        W 6755   4.511   2.048   4.729  0.0427 -0.3989 -0.0264
 2556W        W 6756   0.527   7.662   4.936 -0.1717 -0.2158 -0.2355
 2557W        W 6757   9.104   9.908   9.586  0.0082  0.2494  0.0554
 2558W        W 6758   9.208   3.099  11.168 -0.3177  0.0567  0.2651
 2559W        W 6759   0.507   4.136  11.522  0.3719 -0.1984 -0.1105
 2560W        W 6760   7.246   0.843  12.847 -0.1614 -0.2980 -0.0455
 2561W        W 6761   2.283   4.797   3.482  0.3393  0.0986 -0.2129
 2562W        W 6762   3.479   3.245   0.534  0.3799 -0.2161  0.0164
 2563W        W 6763   5.101   6.004  11.363  0.1293 -0.2336 -0.0953
 2564W        W 6764   7.124   0.784   2.257  0.3278 -0.0955  0.1660
 2565W        W 6765   4.958   9.653  12.431 -0.0797  0.2133  0.0742
 2566W        W 6766   5.268   9.593   4.448  0.1135  0.0517  0.0153
 2567W        W 6767   5.601   4.763   2.660 -0.3455  0.3634 -0.3607
 2568W        W 6768  10.303  10.107   2.923 -0.4163  0.2200 -0.1296
 2569W        W 6769   6.751   7.325  12.923  0.0662 -0.2078 -0.2565
 2570W        W 6770   8.094   1.246  11.455  0.0499  0.0212 -0.0695
 2571W        W 6771   5.040   9.411  11.886  0.4395  0.0542 -0.1210
 2572W        W 6772   0.014   8.457   9.877 -0.0061 -0.0285  0.2031
 2573W        W 6773  10.038   6.540   3.834 -0.3321  0.2030 -0.3473
 2574W        W 6774   5.317   0.985  11.472 -0.1314 -0.2006 -0.0305
 2575W        W 6775   4.376  10.061  11.728  0.0964 -0.1347 -0.1919
 2576W        W 6776   1.433   9.863   0.255 -0.4068 -0.1215 -0.3271
 2577W        W 6777   3.423   6.068   9.989  0.2087 -0.5443 -0.1244
 2578W        W 6778   9.530   1.667   2.875  0.0639 -0.0794 -0.0894
 2579W        W 6779   7.844   9.424   1.354 -0.0667 -0.2964 -0.0925
 2580W        W 6780   1.089   1.953   8.276  0.2948  0.1545  0.1672
 2581W        W 6781   4.750   2.035  10.619  0.1917 -0.1375  0.1403
 2582W        W 6782   3.778   1.451   9.295  0.0975  0.0447 -0.3512
 2583W        W 6783   4.914   4.651   0.797 -0.1051 -0.0954  0.3086
 2584W        W 6784   3.055   3.892  13.428 -0.0371 -0.2393  0.1535
 2585W        W 6785   1.872   6.666   3.505  0.0006 -0.2353 -0.3345
 2586W        W 6786   4.651   2.787   3.262  0.1485 -0.0147  0.0070
 2587W        W 6787   6.184   2.982   1.687 -0.3834  0.1248  0.3400
 2588W        W 6788   7.949   9.177  10.695  0.2044  0.2002 -0.0335
 2589W        W 6789   6.474   8.350   0.339  0.3650 -0.0369  0.3166
 2590W        W 6790   1.103   6.015   1.628  0.3643  0.2117  0.1339
 2591W        W 6791   5.060   5.898   3.857  0.0193  0.0821 -0.0106
 2592W        W 6792   0.415   5.244  11.345  0.0527  0.0211 -0.4291
 2593W        W 6793   0.120   3.062   0.258  0.3237  0.1313  0.2154
 2594W        W 6794   3.226   9.569  11.669 -0.0486  0.0316  0.0054
 2595W        W 6795   9.884   4.516   0.524  0.1535 -0.0007 -0.0364
 2596W        W 6796   6.960   6.037  11.268  0.2677  0.2853  0.3248
 2597W        W 6797   8.095   7.076   9.253  0.0088 -0.2286 -0.2261
 2598W        W 6798   0.150   0.523  12.912 -0.1507  0.1000  0.0890
 2599W        W 6799   4.746   8.966  10.753 -0.2436  0.1531 -0.0731
 2600W        W 6800   6.864   5.466   4.441 -0.0170  0.0143  0.0930
 2601W        W 6801   5.111   4.339   1.647 -0.1031 -0.3278  0.0976
 2602W        W 6802   6.905   9.463  13.192 -0.1915 -0.1313  0.0907
 2603W        W 6803   7.783   6.667  11.892  0.0770  0.2347 -0.0479
 2604W        W 6804   9.002   6.948   3.864 -0.3292  0.3374  0.3543
 2605W        W 6805   3.907   1.096   1.442 -0.1320  0.1262 -0.1064
 2606W        W 6806   3.242   0.364   3.487  0.0290  0.2074  0.1161
 2607W        W 6807   0.243   6.358  11.766 -0.5196  0.0603 -0.0964
 2608W        W 6808   6.282   5.323   4.436  0.4372  0.3780 -0.0029
 2609W        W 6809   1.396   3.352   3.857  0.2063 -0.1503  0.0676
 2610W        W 6810   8.064   6.838   1.989  0.2362  0.0263 -0.0592
 2611W        W 6811   3.260   4.564   2.331 -0.2666  0.1169  0.1412
 2612W        W 6812   9.348   4.418   2.117  0.1620 -0.2898 -0.1604
 2613W        W 6813   1.899   6.061  11.975  0.0041  0.2077  0.2548
 2614W        W 6814   0.060   5.749   9.592  0.0424  0.1293 -0.0989
 2615W        W 6815   2.141   1.416  12.939 -0.0292  0.0669 -0.2233
 2616W        W 6816   5.300   5.957   4.806 -0.0858  0.1280  0.3408
 2617W        W 6817  10.190   6.715  10.982  0.1124  0.0614 -0.0594
 2618W        W 6818   3.299   8.860  10.429 -0.0305 -0.2290  0.0903
 2619W        W 6819   2.808   8.179  10.944 -0.0426 -0.0539  0.0762
 2620W        W 6820   9.568   4.633   3.113  0.1199 -0.0859  0.0883
 2621W        W 6821   5.809   5.102   4.648  0.0861 -0.1921 -0.1979
 2622W        W 6822   7.395   1.296   0.724  0.3138 -0.0132  0.3029
 2623W        W 6823   2.659   6.561   2.632 -0.0205 -0.0934 -0.0895
 2624W        W 6824   0.142   9.086   0.041  0.0427 -0.1920  0.1666
 2625W        W 6825   8.006   9.715  10.485  0.1890 -0.0927 -0.4045
 2626W        W 6826   1.984   0.420   1.896 -0.0335  0.0418 -0.2036
 2627W        W 6827   1.881   0.090   9.549 -0.1724  0.0143 -0.1308
 2628W        W 6828   1.031   6.149   1.032 -0.1642 -0.4163 -0.0938
 2629W        W 6829   6.740   8.182  10.725  0.1279  0.0032  0.0080
 2630W        W 6830   0.338   6.908   3.981 -0.1172 -0.2119 -0.1141
 2631W        W 6831   8.784   4.240   8.953  0.1211  0.0912 -0.0796
 2632W        W 6832   9.930  10.178   3.184  0.1389  0.2136  0.0238
 2633W        W 6833   9.884   8.548  10.431 -0.0416 -0.0255  0.0248
 2634W        W 6834   1.501   3.354   0.877 -0.0018 -0.2214  0.0405
 2635W        W 6835   3.854   9.851   0.484 -0.0939 -0.0256  0.1355
 2636W        W 6836   4.747   1.005   3.798  0.0424  0.0744  0.2624
 2637W        W 6837   2.691   8.156   3.339 -0.0484 -0.1435  0.1349
 2638W        W 6838   9.475   4.262   0.421 -0.0598  0.0708  0.0325
 2639W        W 6839   9.078   8.723   0.687  0.0112 -0.1153 -0.0306
 2640W        W 6840   4.030   3.461   9.403  0.1343 -0.0792 -0.0710
 2641W        W 6841   3.959   0.592  10.616 -0.0995  0.1264 -0.3647
 2642W        W 6842   5.984   9.930  13.293  0.3445  0.0141  0.3388
 2643W        W 6843   3.328   7.215   8.367 -0.0945  0.1754  0.2843
 2644W        W 6844   4.413   9.671   1.184  0.0451 -0.0143 -0.3266
 2645W        W 6845   1.952   0.671   9.487 -0.0135 -0.2275 -0.0305
 2646W        W 6846   1.953   6.707  11.168 -0.4258 -0.3775  0.0557
 2647W        W 6847   4.555   4.375   1.735  0.0661 -0.2754 -0.0194
 2648W        W 6848   0.804   2.426   1.761 -0.3038  0.2866  0.1392
 2649W        W 6849   5.358   1.272  11.900  0.1900  0.0223  0.1868
 2650W        W 6850   1.635   4.447  12.951 -0.5312  0.0675  0.0315
 2651W        W 6851   1.314   0.645  12.684 -0.0718 -0.0727  0.2012
 2652W        W 6852   9.817   0.433  12.674  0.1150 -0.0425 -0.0730
 2653W        W 6853   3.101   9.114  11.470  0.0985 -0.0539  0.2470
 2654W        W 6854  10.101   5.898   1.634  0.1599  0.0057 -0.1043
 2655W        W 6855   3.562   5.166   3.265  0.0981  0.0019 -0.2129
 2656W        W 6856   4.388   3.392   0.904 -0.2165  0.1003 -0.2579
 2657W        W 6857   5.303   0.827   1.335  0.1212  0.0999 -0.0728
 2658W        W 6858   0.891   6.652   1.271  0.1343 -0.2116 -0.3234
 2659W        W 6859   9.334   8.681   1.093  0.0170  0.0971  0.1962
 2660W        W 6860   0.060   1.469   4.083 -0.2990  0.0274  0.2119
 2661W        W 6861   2.355   2.665  11.502 -0.0792  0.2037  0.0723
 2662W        W 6862   4.217   1.291  12.827 -0.1372 -0.1767  0.0699
 2663W        W 6863   9.484   7.716  11.774 -0.0587 -0.1285  0.0624
 2664W        W 6864   7.871   4.516   1.065  0.2981  0.0231  0.1404
 2665W        W 6865   7.687   0.829  13.120  0.4346 -0.1147  0.0721
 2666W        W 6866   2.973   6.338   5.333  0.0185  0.2554  0.2942
 2667W        W 6867   7.331   7.908   1.605  0.4106  0.2987  0.2726
 2668W        W 6868  10.185   8.691  13.094 -0.2788 -0.0305  0.1120
 2669W        W 6869   4.673   3.716   2.882  0.2828 -0.0104  0.3612
 2670W        W 6870   8.931   8.583   9.896 -0.0651 -0.2663  0.2210
 2671W        W 6871   7.252   0.351   3.490 -0.0418 -0.0278  0.0343
 2672W        W 6872   4.979   4.320   0.213 -0.2320 -0.2060  0.1954
 2673W        W 6873   7.070   9.648   9.463 -0.3518  0.0163 -0.0030
 2674W        W 6874   3.040   7.405   3.721 -0.3169 -0.1803 -0.0426
 2675W        W 6875   9.197   2.055   1.419  0.1063  0.0470 -0.2840
 2676W        W 6876   5.517   9.176   9.637 -0.3793 -0.0972 -0.0438
 2677W        W 6877   7.064   3.746  10.297  0.1795  0.0801  0.1378
 2678W        W 6878   0.257   1.769   0.021  0.2095 -0.2438 -0.0064
 2679W        W 6879   5.968   8.013   1.963 -0.3723  0.0614 -0.0524
 2680W        W 6880   4.499   9.084   0.499  0.1553  0.3552 -0.1146
 2681W        W 6881   0.522   2.113  11.532  0.0371 -0.3207 -0.1840
 2682W        W 6882   4.382   7.245  12.427  0.3312 -0.3180 -0.2012
 2683W        W 6883   3.416   8.852   9.915  0.0976  0.1515 -0.0934
 2684W        W 6884   6.180   8.903  13.152 -0.1784  0.1616 -0.2804
 2685W        W 6885   6.512   8.666  12.775  0.4209 -0.3244 -0.0725
 2686W        W 6886   9.049   4.659   2.498  0.3946  0.1152  0.1517
 2687W        W 6887   8.021  10.127   0.270 -0.0428  0.2374  0.1950
 2688W        W 6888   7.628   3.107   1.588 -0.0245  0.1082 -0.4659
 2689W        W 6889   8.151   5.608   3.537  0.1593 -0.0442  0.1092
 2690W        W 6890   7.705   4.567  10.275  0.1062 -0.3183  0.0744
 2691W        W 6891   4.851   4.127   9.655 -0.1372 -0.0517  0.0625
 2692W        W 6892   4.981   6.878  11.864 -0.0586  0.1860 -0.3482
 2693W        W 6893   7.154   7.092   4.718  0.1196  0.0190  0.0522
 2694W        W 6894   3.424   5.715  11.699 -0.0808  0.0103  0.1096
 2695W        W 6895   6.419   2.280   0.169 -0.0684 -0.1162  0.0178
 2696W        W 6896   3.605   9.613  10.205 -0.1473  0.2383  0.1481
 2697W        W 6897  10.244   5.531  12.667 -0.0219 -0.3030  0.0718
 2698W        W 6898  10.035   6.683   2.248 -0.2172 -0.2039  0.0037
 2699W        W 6899  10.390   3.012  12.641  0.0271  0.3060  0.0941
 2700W        W 6900   2.834   2.893   4.506  0.0904 -0.1423 -0.1632
 2701W        W 6901   0.250   8.888   3.898 -0.1406  0.0044  0.0265
 2702W        W 6902   9.335   1.425  10.134 -0.0982 -0.1197 -0.1786
 2703W        W 6903   7.787   8.687   3.953 -0.3470 -0.1063 -0.1895
 2704W        W 6904   2.556   9.627  12.762 -0.1269 -0.2269 -0.3118
 2705W        W 6905   3.788   8.280  10.728  0.0718  0.1368  0.1056
 2706W        W 6906   6.983   8.570   0.320  0.0533 -0.0398 -0.0089
 2707W        W 6907   1.875   5.768  13.069  0.0953 -0.0447  0.1591
 2708W        W 6908   0.678   2.667  13.020  0.1258 -0.2009  0.1894
 2709W        W 6909   1.089   6.202   0.094 -0.1098 -0.0740  0.1798
 2710W        W 6910   7.143   7.614   2.680 -0.1828  0.2922 -0.2714
 2711W        W 6911   9.739   1.119   3.043  0.2091 -0.1177 -0.3527
 2712W        W 6912   4.948   2.720  12.942 -0.0450  0.0365 -0.1792
 2713W        W 6913   6.844   0.565  13.144 -0.2606  0.4573  0.1408
 2714W        W 6914   6.006   2.319   1.205  0.1588  0.0862  0.2174
 2715W        W 6915   0.683   2.431   4.863 -0.0708  0.1559 -0.0635
 2716W        W 6916   3.640   3.607   4.029 -0.0388  0.0520 -0.1829
 2717W        W 6917   0.572  10.022   4.194  0.1215  0.0074 -0.0688
 2718W        W 6918   4.799   7.656  13.105  0.0419  0.0120 -0.3019
 2719W        W 6919   5.098   0.347  13.402 -0.0471  0.3537  0.0219
 2720W        W 6920   8.133   5.791   2.712  0.1884 -0.1184 -0.0734
 2721W        W 6921   7.174   7.880  12.340  0.1591  0.0883 -0.1497
 2722W        W 6922   0.596   0.534   2.990 -0.1564  0.2940 -0.0272
 2723W        W 6923   9.895   4.236  13.068  0.0945 -0.0275 -0.0931
 2724W        W 6924  10.166   6.493   1.772  0.0237 -0.0075  0.1013
 2725W        W 6925   7.882   6.404  10.734  0.2182 -0.1887 -0.2164
 2726W        W 6926   4.315   5.928   1.542 -0.1391 -0.0895 -0.1118
 2727W        W 6927   1.108   8.677  12.613  0.2576  0.1856  0.0786
 2728W        W 6928   5.954   9.073   9.897 -0.2378  0.0073  0.3721
 2729W        W 6929   7.393   3.934   3.948 -0.1677  0.0714 -0.0498
 2730W        W 6930   0.407  10.458   2.100 -0.0457  0.0981 -0.1775
 2731W        W 6931   5.733   1.053   0.919 -0.0198  0.0580 -0.1420
 2732W        W 6932   5.908   7.066   0.027  0.0771 -0.0086  0.1587
 2733W        W 6933   7.116   2.541   2.956 -0.2515 -0.3329  0.0143
 2734W        W 6934   6.617   3.216   1.630  0.1347  0.2257 -0.1069
 2735W        W 6935   3.584   9.711   1.252  0.0416  0.3964  0.4151
 2736W        W 6936   7.398   8.066   2.051 -0.1688 -0.2885  0.1383
 2737W        W 6937   8.853   5.127   1.744 -0.1075  0.2652  0.0694
 2738W        W 6938   3.856   8.541   1.630 -0.1107 -0.2859  0.1967
 2739W        W 6939   5.067   5.215  11.762  0.0157  0.0483  0.1098
 2740W        W 6940   9.713   6.233   9.700 -0.0994  0.0035 -0.3490
 2741W        W 6941  10.289   6.955  13.348  0.3174 -0.1207  0.0683
 2742W        W 6942   7.690   0.247  12.223 -0.2289  0.0379 -0.1079
 2743W        W 6943   0.272   8.506   1.325  0.1856  0.3054  0.0666
 2744W        W 6944   8.373   0.210   1.855 -0.0031  0.0846 -0.2066
 2745W        W 6945   5.514   9.227   0.190  0.1211 -0.1032  0.1756
 2746W        W 6946   2.155   4.258  13.156 -0.1096 -0.0542  0.0652
 2747W        W 6947   2.960  10.097   9.750 -0.2210  0.0360  0.2092
 2748W        W 6948   5.994   5.265   9.985 -0.0458  0.2566  0.3739
 2749W        W 6949   6.090   9.144   3.851  0.1524 -0.0800 -0.1235
 2750W        W 6950   4.608   2.057   9.698 -0.0046 -0.1145  0.1206
 2751W        W 6951   0.153   9.431  11.429  0.2927 -0.1145  0.1171
 2752W        W 6952   1.440   1.792   2.714 -0.3184  0.1272  0.0501
 2753W        W 6953   7.660   2.294  11.637 -0.2628  0.1738 -0.0785
 2754W        W 6954   4.996   5.919   0.141  0.0996 -0.3458 -0.1593
 2755W        W 6955   6.516   1.214   2.107 -0.4151  0.1282 -0.2377
 2756W        W 6956   1.103   1.143   1.081  0.0888  0.1815 -0.1347
 2757W        W 6957   0.583   0.135   0.794  0.1590  0.0059  0.4296
 2758W        W 6958   6.809   6.855  11.756  0.1088 -0.0954  0.0718
 2759W        W 6959   2.159  10.232  11.423 -0.0039  0.3448 -0.0100
 2760W        W 6960   0.784   0.269  11.823  0.0740 -0.1204 -0.1099
 2761W        W 6961   9.951   7.762  13.254  0.2943 -0.0107  0.0867
 2762W        W 6962   4.023   0.787  12.044 -0.0937  0.0144  0.0816
 2763W        W 6963   9.349   8.445   0.112 -0.1716  0.0750  0.1684
 2764W        W 6964   1.140   2.661   1.313 -0.0536  0.0649 -0.0014
 2765W        W 6965   2.945   3.891  12.087 -0.1040  0.0143 -0.2269
 2766W        W 6966   6.291   6.129   2.729 -0.1939  0.2827 -0.0886
 2767W        W 6967   5.214   1.538   2.597 -0.1536  0.0323 -0.0433
 2768W        W 6968   5.689   7.561  13.125 -0.2060  0.0252 -0.0793
 2769W        W 6969   9.053   5.532   4.079 -0.1767  0.4068 -0.1154
 2770W        W 6970   1.071   0.430  10.213  0.2994 -0.0235 -0.2513
 2771W        W 6971   7.926   9.511  11.060 -0.0109  0.1129  0.2786
 2772W        W 6972   5.888   4.025   4.295 -0.1152 -0.0602  0.2602
 2773W        W 6973   5.146   2.008   3.619  0.0573  0.2469 -0.1232
 2774W        W 6974   5.277   9.225  11.113  0.1153 -0.0423 -0.0696
 2775W        W 6975   1.347   2.292   0.793 -0.1368 -0.2489  0.1527
 2776W        W 6976   4.055   9.993   2.772 -0.1306  0.1073  0.0200
 2777W        W 6977   8.119   9.425  13.219  0.1424 -0.0986 -0.3911
 2778W        W 6978   1.746   1.396  10.001 -0.0254  0.1232 -0.2474
 2779W        W 6979   5.894   8.861  12.665 -0.1156  0.1120  0.0878
 2780W        W 6980   8.042   4.494  10.739  0.0959  0.0544  0.0843
 2781W        W 6981   7.666   8.520   0.962  0.0043  0.1305  0.1194
 2782W        W 6982   7.315   7.287   2.322  0.2001 -0.0279 -0.0106
 2783W        W 6983   0.258   1.194  12.006 -0.1335 -0.0693  0.0519
 2784W        W 6984   7.333   2.406   0.926 -0.0052  0.2049  0.1088
 2785W        W 6985   4.594   3.579   3.793 -0.2795 -0.0178  0.1742
 2786W        W 6986   4.487  10.396   2.600  0.2061 -0.1401  0.5728
 2787W        W 6987   5.311   4.771   2.261 -0.2723 -0.0664  0.0787
 2788W        W 6988   2.144   1.829  10.880  0.1221 -0.0283 -0.3347
 2789W        W 6989   9.622   2.612   0.905 -0.1536  0.2592  0.4746
 2790W        W 6990   0.898   7.935   3.270  0.1786  0.3251  0.1920
 2791W        W 6991   2.662   0.009  12.786 -0.2719 -0.0750  0.1245
 2792W        W 6992   4.244   9.754   0.192 -0.2281  0.3156  0.3572
 2793W        W 6993   2.688   5.855   4.145 -0.1486 -0.2191 -0.1159
 2794W        W 6994   0.935   4.822   9.596  0.0638  0.3287  0.2644
 2795W        W 6995   2.276   2.526   9.010 -0.0871  0.0334 -0.1532
 2796W        W 6996   3.204   2.230   2.165 -0.2790  0.0120 -0.1845
 2797W        W 6997   1.674   2.436  11.423 -0.4286  0.0036  0.1243
 2798W        W 6998   6.207   9.705  12.574  0.2035 -0.3597  0.1169
 2799W        W 6999   6.362   1.724   2.027  0.2059 -0.0471  0.0283
 2800W        W 7000   3.034   0.781   4.450 -0.1495 -0.0126 -0.1366
 2801W        W 7001   0.064   4.183   9.838 -0.1887  0.0567 -0.1896
 2802W        W 7002   4.012   1.042   8.717 -0.0097  0.2701 -0.0842
 2803W        W 7003   1.305   4.050   3.919 -0.0874 -0.2095  0.0142
 2804W        W 7004   6.882   3.288   0.463 -0.1555 -0.0079  0.1357
 2805W        W 7005   2.039   6.966  12.146  0.1294  0.0717 -0.1377
 2806W        W 7006   6.093   4.068   0.669 -0.1296 -0.1081 -0.0696
 2807W        W 7007   2.231   1.221   1.617 -0.0433 -0.2901  0.0387
 2808W        W 7008   5.832   6.746  11.455  0.2802 -0.1825 -0.1891
 2809W        W 7009   0.902   2.355  10.677  0.2509 -0.0666 -0.0267
 2810W        W 7010   5.515   8.317  11.595 -0.3197  0.5478 -0.1071
 2811W        W 7011   3.498   1.659   3.808 -0.0740 -0.0033 -0.1426
 2812W        W 7012   1.052   1.338   2.755 -0.0731  0.1595 -0.2666
 2813W        W 7013   4.188   8.255   2.865  0.0272 -0.1241 -0.0917
 2814W        W 7014   0.347   3.233   1.626 -0.2413 -0.2575 -0.0484
 2815W        W 7015   7.033   5.711   3.540 -0.1816 -0.0309  0.0987
 2816W        W 7016   7.775   2.597   0.914 -0.0144 -0.0398 -0.1372
 2817W        W 7017   2.442   8.801   3.989 -0.3294  0.0678 -0.0760
 2818W        W 7018   9.857   3.695  10.044 -0.0217 -0.1103 -0.0920
 2819W        W 7019   8.010   8.135   2.316  0.0978 -0.1143 -0.4477
 2820W        W 7020   5.241   7.011  11.004 -0.0650  0.0413  0.0079
 2821W        W 7021   2.905   9.975  11.582 -0.2860 -0.1655  0.0843
 2822W        W 7022   8.910   3.148  12.831 -0.1063  0.2352 -0.2165
 2823W        W 7023   5.081   9.796   2.297 -0.0856  0.0531 -0.0143
 2824W        W 7024   6.897   5.703  11.627  0.1001 -0.0033 -0.0735
 2825W        W 7025   1.325   8.244  10.056  0.2695 -0.0483 -0.1443
 2826W        W 7026   2.317   8.385   0.529  0.1660 -0.0628 -0.1526
 2827W        W 7027   7.113   3.035   1.805 -0.1377 -0.1286 -0.1236
 2828W        W 7028   9.330   8.522   9.105  0.3417  0.0081  0.1372
 2829W        W 7029   3.502   4.007   0.305  0.2461  0.0528 -0.0929
 2830W        W 7030   9.586   8.068   1.148 -0.3014  0.2641  0.2418
 2831W        W 7031   8.099   5.650   0.124 -0.1067  0.0952  0.2464
 2832W        W 7032   7.432   8.093   8.717  0.0874  0.0621 -0.0317
 2833W        W 7033   5.887   4.730   0.071  0.0003  0.0824 -0.1511
 2834W        W 7034   5.991   0.654   0.696 -0.0736 -0.0929  0.1538
 2835W        W 7035   2.886   1.648  10.365  0.1263  0.2420 -0.0899
 2836W        W 7036   2.062   8.028  10.650 -0.0138  0.1980 -0.0583
 2837W        W 7037   1.688   5.951   1.572 -0.2956 -0.0712 -0.1309
 2838W        W 7038   8.582   8.449   0.504 -0.0873  0.0478 -0.2069
 2839W        W 7039   8.724   7.663   2.834 -0.0758 -0.0658  0.1680
 2840W        W 7040   0.523   5.364   3.587  0.0803  0.0509  0.3330
 2841W        W 7041   2.243   6.861   9.932  0.1273  0.2175  0.0464
 2842W        W 7042   3.081   0.795  12.328  0.0717 -0.0781  0.1646
 2843W        W 7043   3.911   4.429   4.491  0.2835 -0.3276  0.1230
 2844W        W 7044   0.957   7.094   1.921 -0.1681 -0.0654  0.0604
 2845W        W 7045   8.967   1.144   3.408  0.2410  0.0342 -0.1617
 2846W        W 7046   2.837   7.239  13.124 -0.2978  0.3291 -0.0324
 2847W        W 7047   0.940   8.207   3.707  0.1979  0.3507  0.2220
 2848W        W 7048   6.665   2.015   2.705 -0.3642  0.0018  0.1996
 2849W        W 7049   8.942  10.212  12.014 -0.2892 -0.0777  0.2578
 2850W        W 7050   8.044   1.600  12.753 -0.1415 -0.0189 -0.2543
 2851W        W 7051   1.724   0.041   8.805  0.3799  0.2429  0.2503
 2852W        W 7052   4.695   8.901   3.394  0.1679 -0.0081  0.0135
 2853W        W 7053   6.921   0.641   1.844 -0.1320 -0.0400 -0.2417
 2854W        W 7054   5.804   4.701  11.361 -0.0229 -0.1931  0.0885
 2855W        W 7055   9.771   8.495  13.328  0.0921 -0.3157 -0.0656
 2856W        W 7056   5.120   0.480  12.549 -0.0521 -0.4092 -0.0611
 2857W        W 7057   7.390   1.949  12.966  0.1206 -0.0121  0.1866
 2858W        W 7058   2.777   1.742   3.407 -0.0909 -0.1129 -0.1498
 2859W        W 7059   5.540   2.717   2.512  0.7213 -0.2242 -0.1140
 2860W        W 7060   6.108   7.353  12.987  0.1794 -0.0324 -0.4487
 2861W        W 7061   0.969  10.330   0.920 -0.2908 -0.0755  0.0266
 2862W        W 7062   2.194   2.829   0.584  0.1498  0.0845 -0.3059
 2863W        W 7063   1.967   4.093   1.030  0.5127 -0.1349 -0.1198
 2864W        W 7064   5.647   8.675   9.847 -0.1160 -0.2637 -0.1062
 2865W        W 7065   2.366   8.796  10.477 -0.0793  0.0534  0.1224
 2866W        W 7066   2.354   4.105   0.576  0.1106  0.0882  0.2058
 2867W        W 7067   8.829   5.607   8.793  0.0714  0.2700 -0.2168
 2868W        W 7068   3.754   1.301  10.275 -0.3955  0.0089 -0.1368
 2869W        W 7069   9.982   8.872   3.350  0.1715 -0.2746 -0.0036
 2870W        W 7070   5.794   1.767   2.986  0.2805 -0.2087  0.2261
 2871W        W 7071   4.537   3.235  10.277 -0.2255  0.0077  0.2510
 2872W        W 7072   3.702   7.944   3.492  0.3115  0.1806  0.0425
 2873W        W 7073   3.153   5.975  13.470  0.0125  0.1334  0.1318
 2874W        W 7074   8.312   8.006   0.637  0.1129 -0.0198 -0.1223
 2875W        W 7075   3.885   8.117   8.283 -0.0420 -0.2293  0.0905
 2876W        W 7076   8.453   0.875  11.035 -0.3133 -0.2986 -0.0476
 2877W        W 7077   4.729   9.993   0.397  0.1769 -0.1319  0.0715
 2878W        W 7078  10.214   4.788  10.923 -0.0908  0.2358  0.2043
 2879W        W 7079   0.422   2.580   0.919  0.0793 -0.0157  0.1063
 2880W        W 7080   3.518   8.640   9.489  0.1094  0.1601 -0.0384
 2881W        W 7081   5.351   0.243   4.925 -0.0918  0.1237 -0.2097
 2882W        W 7082   7.919   1.379   2.684  0.1936  0.0338 -0.0880
 2883W        W 7083   7.551  10.133   2.962 -0.2535  0.0312  0.2441
 2884W        W 7084   4.745   9.100  13.261  0.2134 -0.3207  0.0657
 2885W        W 7085   1.194   0.888   2.422 -0.0182 -0.1823  0.0822
 2886W        W 7086   0.920   5.169   3.338  0.0873 -0.4889  0.1263
 2887W        W 7087   5.621   8.866  13.275 -0.0977  0.1491  0.1704
 2888W        W 7088   2.947  10.425  11.205  0.0619  0.2096 -0.1864
 2889W        W 7089   5.088  10.260   1.882 -0.1922 -0.0185 -0.0969
 2890W        W 7090   2.622   1.550   8.480  0.0794 -0.1233 -0.1548
 2891W        W 7091   1.209   6.062  12.581 -0.0147 -0.1427  0.2820
 2892W        W 7092   3.375   5.206  10.333 -0.0476 -0.1332 -0.3841
 2893W        W 7093   6.111   7.898  12.852  0.0935  0.2077  0.0446
 2894W        W 7094   1.195   8.228  11.875  0.0862  0.3137  0.1770
 2895W        W 7095   1.267   4.357   1.456  0.0505  0.0311 -0.2360
 2896W        W 7096   6.670   6.362   0.911  0.0477 -0.1255 -0.1418
 2897W        W 7097   4.014   7.786   1.080 -0.0123 -0.0550  0.0862
 2898W        W 7098   7.491   8.655   0.095 -0.0407  0.2149 -0.0084
 2899W        W 7099   5.142   6.452   3.490  0.0085  0.0330 -0.2609
 2900W        W 7100   3.330   0.902   3.837  0.0337 -0.0067  0.0273
 2901W        W 7101   7.858   2.164   3.054  0.1321  0.1062  0.2667
 2902W        W 7102   6.434   0.658   9.996 -0.1578  0.2193  0.0943
 2903W        W 7103   9.287   2.833  10.301 -0.1863  0.0530 -0.0034
 2904W        W 7104   0.252   8.238   2.242 -0.0931 -0.4309  0.3083
 2905W        W 7105   0.965   8.006   0.908 -0.1947 -0.0795  0.1261
 2906W        W 7106   9.540  10.387   0.413 -0.0259  0.1066  0.3944
 2907W        W 7107   3.756   0.384  12.080  0.0581  0.0725  0.2577
 2908W        W 7108   2.415   4.817   8.275  0.3404 -0.0217 -0.2942
 2909W        W 7109   3.363   4.416   3.279 -0.3404 -0.0923  0.2299
 2910W        W 7110   0.137   7.434   3.958  0.2934 -0.2278 -0.1558
 2911W        W 7111   2.361   9.539   5.324 -0.0311 -0.0247  0.0497
 2912W        W 7112   6.557   7.280   0.694 -0.0477 -0.1719  0.1050
 2913W        W 7113   1.356   9.508   3.838 -0.2305 -0.3287  0.0009
 2914W        W 7114   2.451   6.921  12.478 -0.0715 -0.1261  0.1439
 2915W        W 7115   9.257   9.970  10.914 -0.0279  0.0507  0.2051
 2916W        W 7116   0.648   1.089   3.045  0.0277  0.3439 -0.1431
 2917W        W 7117   5.245   3.231  11.355  0.1390  0.2305 -0.0381
 2918W        W 7118   1.023   7.168   3.655  0.1693 -0.0886 -0.2393
 2919W        W 7119   3.010   4.002   9.210  0.1739 -0.1452 -0.1620
 2920W        W 7120   7.999   3.263   5.072 -0.1113 -0.1478  0.0093
 2921W        W 7121   5.076   8.358   0.489  0.0358 -0.1509  0.1877
 2922W        W 7122   8.398   1.670  11.527 -0.1993  0.3283  0.0647
 2923W        W 7123   2.539   7.946  13.465  0.0171  0.2939  0.1011
 2924W        W 7124   4.971   5.600   8.456 -0.0401  0.2230  0.0187
 2925W        W 7125   6.386   9.478  10.517 -0.2913 -0.1759 -0.1640
 2926W        W 7126   1.560   8.885  13.371 -0.2894 -0.3120  0.0597
 2927W        W 7127   1.166   1.308  10.686 -0.0309 -0.0936 -0.0873
 2928W        W 7128   0.572   9.609   2.386  0.0318 -0.0464 -0.2454
 2929W        W 7129   1.983   7.390   0.067  0.1963 -0.2946 -0.1915
 2930W        W 7130   2.192   1.763   0.253 -0.1559  0.0569  0.0103
 2931W        W 7131   4.879   3.236   3.287 -0.1175  0.3759  0.0254
 2932W        W 7132   4.823   9.389   1.350 -0.2827  0.0984 -0.0287
 2933W        W 7133   8.005   4.459   2.997 -0.1505  0.1620  0.1131
 2934W        W 7134   2.865   5.062  11.422 -0.1931  0.2073 -0.1465
 2935W        W 7135   0.593   4.972  10.055  0.1977  0.0089  0.0112
 2936W        W 7136   0.561   2.425   1.353 -0.2326  0.0424  0.1023
 2937W        W 7137   0.463   2.172   0.593 -0.0919  0.1907  0.0512
 2938W        W 7138   0.755   7.738   8.913  0.0391  0.0414 -0.2342
 2939W        W 7139   9.354   9.739   2.755 -0.0449  0.1746  0.1335
 2940W        W 7140   2.580   4.943   1.082  0.1018  0.0070 -0.0733
 2941W        W 7141   3.570   0.900  12.301 -0.4049  0.2042  0.0447
 2942W        W 7142   9.851   1.499  10.098 -0.1737  0.0847 -0.1014
 2943W        W 7143   0.645   8.348  11.602 -0.1211  0.0076  0.1076
 2944W        W 7144   2.954   3.016  10.900 -0.0561  0.0600  0.4404
 2945W        W 7145   0.203   9.086   9.989 -0.0803 -0.1168 -0.1334
 2946W        W 7146   1.210   2.035   0.079  0.1088 -0.1350  0.1030
 2947W        W 7147  10.464   2.844   9.707 -0.2556  0.3576 -0.0120
 2948W        W 7148   2.426   7.394  12.773 -0.3345 -0.1136  0.2225
 2949W        W 7149   3.234   3.876  10.023 -0.1201  0.2581 -0.1973
 2950W        W 7150   8.219   6.485   4.559  0.0540  0.0226 -0.3211
 2951W        W 7151   4.469   9.056   5.165  0.1144  0.4478  0.1889
 2952W        W 7152   0.432   9.692   0.397  0.0803  0.1524 -0.1138
 2953W        W 7153   0.376   9.173  11.050  0.0814 -0.3111 -0.0515
 2954W        W 7154   9.684   2.303  10.969  0.0712 -0.1341  0.0824
 2955W        W 7155   1.224   1.909  12.009 -0.3191 -0.0843 -0.0768
 2956W        W 7156   3.857  10.038   0.952  0.1897  0.0026 -0.1875
 2957W        W 7157   0.781   5.056   2.174  0.0565  0.2678 -0.2392
 2958W        W 7158   5.703   5.225   0.011  0.0459  0.0351  0.1362
 2959W        W 7159  10.111   5.459   3.212  0.0836 -0.1843 -0.1068
 2960W        W 7160   6.860   6.137   2.708  0.2142  0.0349  0.2268
 2961W        W 7161   4.351   7.315   0.263 -0.1539 -0.2731 -0.2241
 2962W        W 7162   0.086   1.325  10.481 -0.4388 -0.0034  0.2708
 2963W        W 7163   5.269   3.847  12.374  0.1873  0.2533 -0.1920
 2964W        W 7164   2.575   6.007   0.084 -0.2332 -0.0634  0.0803
 2965W        W 7165   6.829   6.175   3.274 -0.0764  0.1046  0.1150
 2966W        W 7166   0.448   1.665  10.585  0.1874  0.2500 -0.0815
 2967W        W 7167   2.891   7.128   0.496 -0.2623 -0.0130  0.0396
 2968W        W 7168  10.049   8.194  11.177 -0.1540  0.1247 -0.1812
 2969W        W 7169   5.601   7.451   0.139  0.0587  0.0258 -0.1836
 2970W        W 7170   8.234   4.494   4.199 -0.0777 -0.5113 -0.1441
 2971W        W 7171  10.074   0.426  13.096  0.1910 -0.1647  0.3718
 2972W        W 7172  10.356   3.615  11.069  0.1210 -0.1122 -0.3478
 2973W        W 7173   4.236   9.337   2.357  0.0297  0.0307  0.1650
 2974W        W 7174   2.482   3.259  13.366 -0.1576  0.0225  0.2874
 2975W        W 7175   3.499   5.589  10.726  0.2697 -0.2086 -0.2514
 2976W        W 7176   7.925   2.663   2.947  0.1269 -0.3359 -0.2445
 2977W        W 7177   0.625   8.187   1.245  0.0960  0.0765  0.0072
 2978W        W 7178   7.648   2.306   1.352  0.2421 -0.2752 -0.1573
 2979W        W 7179   8.423   7.880   1.527 -0.0748  0.0688 -0.1218
 2980W        W 7180   8.836   6.643   2.070 -0.4030 -0.1406  0.0144
 2981W        W 7181   5.722   1.803  12.440  0.2226  0.0032 -0.3036
 2982W        W 7182   7.075   9.863   9.873  0.2284  0.0421 -0.2060
 2983W        W 7183   2.847   1.386  11.933 -0.3679  0.1266 -0.0308
 2984W        W 7184   4.003   6.051  12.550 -0.0297  0.0290 -0.0719
 2985W        W 7185   1.756   1.343   3.955  0.0696  0.0039 -0.0033
 2986W        W 7186   5.276   2.218  10.978  0.3063 -0.0761  0.1865
 2987W        W 7187   7.825   4.705   3.438 -0.1065 -0.1800  0.3207
 2988W        W 7188   9.513   7.555  13.415 -0.0997  0.0123  0.5722
 2989W        W 7189   7.513   4.545   0.607 -0.0405 -0.0567 -0.1222
 2990W        W 7190   7.249   9.043   3.174 -0.1021  0.0347 -0.5556
 2991W        W 7191   7.249   4.673   3.385  0.0189  0.1309 -0.5137
 2992W        W 7192   4.923   7.676   3.307  0.5166  0.1663 -0.0847
 2993W        W 7193   9.296   4.616   3.526  0.0348  0.4737  0.2347
 2994W        W 7194   6.053   2.564   9.015 -0.3855 -0.2629 -0.1126
 2995W        W 7195   3.362   2.793   8.544 -0.0733  0.0383 -0.2786
 2996W        W 7196   7.890   9.941  11.799 -0.2052 -0.0848  0.0345
 2997W        W 7197   3.040   9.807   2.049 -0.0618 -0.0312  0.1676
 2998W        W 7198   5.612   6.592   2.966  0.1114  0.0042  0.0593
 2999W        W 7199   3.015   4.073  12.942 -0.3115  0.0161 -0.1143
 3000W        W 7200   2.383   8.623   0.091 -0.1859  0.2197  0.2303
 3001W        W 7201   3.712   1.653   9.775  0.4072  0.0993  0.2403
 3002W        W 7202   4.818   9.791   4.436 -0.0486 -0.4208 -0.0151
 3003W        W 7203   3.174   2.316  11.598 -0.0535 -0.0043 -0.2323
 3004W        W 7204   3.630   7.127   1.818 -0.0802  0.1054 -0.0726
 3005W        W 7205   6.363   0.781  13.234 -0.5244  0.0690 -0.5250
 3006W        W 7206   4.010   4.588   0.368  0.3608 -0.2185 -0.0133
 3007W        W 7207   4.344   4.644   9.247  0.0905  0.1861  0.1374
 3008W        W 7208   2.061   2.037   9.725  0.1294  0.0117  0.1055
 3009W        W 7209   5.049   6.796   4.138  0.3589  0.0727 -0.0619
 3010W        W 7210   0.351   7.893   1.642  0.1736  0.1301 -0.3005
 3011W        W 7211   9.847   6.739   9.159 -0.0586  0.1405 -0.1298
 3012W        W 7212   9.824   0.332  11.138 -0.1477  0.3229 -0.1136
 3013W        W 7213   8.504   5.125  11.323  0.1671 -0.2509 -0.0757
 3014W        W 7214   7.775   1.242  12.151 -0.0091  0.0690  0.0310
 3015W        W 7215   5.963   6.976  10.597  0.1693  0.2140  0.2347
 3016W        W 7216   9.275   0.233   0.683 -0.1423  0.0449  0.2637
 3017W        W 7217   0.498   5.693   3.996 -0.1513 -0.1797  0.1538
 3018W        W 7218   4.153   6.349   3.292  0.2229  0.1835 -0.2170
 3019W        W 7219   5.315   9.583   1.587 -0.1376  0.1900 -0.1902
 3020W        W 7220   2.630   7.634   9.356  0.0156  0.0674  0.1194
 3021W        W 7221   6.717   2.423  11.922 -0.1377  0.1673  0.1567
 3022W        W 7222   9.529   6.400   3.520 -0.4521 -0.1988  0.2085
 3023W        W 7223   5.929   5.390   8.894 -0.0871  0.0074  0.3024
 3024W        W 7224   9.824   0.598   1.449 -0.1216  0.3277  0.1395
 3025W        W 7225   3.346   8.094  11.847 -0.1259 -0.1470  0.0157
 3026W        W 7226   5.428   2.256   9.876  0.0399 -0.0632 -0.1564
 3027W        W 7227   5.875   2.613   3.633 -0.0945 -0.2810  0.0605
 3028W        W 7228   5.484   5.952   1.851  0.0440  0.1295 -0.0777
 3029W        W 7229   7.588   2.958   2.110 -0.0074  0.5202  0.1102
 3030W        W 7230   1.380   3.246   9.217 -0.0412 -0.0580 -0.0434
 3031W        W 7231   0.373   6.303   8.527  0.3952 -0.0038 -0.0138
 3032W        W 7232   1.860   1.052  12.116 -0.1170  0.5606  0.1073
 3033W        W 7233   3.238   4.851  10.668 -0.1296 -0.1088 -0.0846
 3034W        W 7234   6.241   0.923  11.719  0.0869 -0.2577 -0.3142
 3035W        W 7235  10.061   7.869   9.783  0.0702 -0.0588 -0.2239
 3036W        W 7236   4.849   5.898  12.807 -0.2592  0.4212  0.0578
 3037W        W 7237  10.120   9.636   4.113 -0.0551  0.0134 -0.2546
 3038W        W 7238   8.213   8.447   0.866  0.0321  0.1389  0.1516
 3039W        W 7239   5.487   4.283   2.273  0.0586  0.3125  0.0911
 3040W        W 7240   6.571   0.729  11.447 -0.5529 -0.1191  0.0079
 3041W        W 7241   9.903   6.164   1.987 -0.1145  0.2601  0.3360
 3042W        W 7242   1.702   9.358   1.446  0.1064 -0.2419  0.2981
 3043W        W 7243   5.454   2.898  12.871 -0.0380 -0.0125 -0.0208
 3044W        W 7244   5.453   8.254   9.677 -0.2292  0.2104  0.0331
 3045W        W 7245   0.879   6.209  11.434  0.0226 -0.0123  0.2610
 3046W        W 7246   4.399   6.192  10.542 -0.3099  0.1454 -0.0341
 3047W        W 7247   4.451   0.344  11.887 -0.1849  0.2202  0.1193
 3048W        W 7248   3.180   6.226   1.465 -0.2400  0.0093  0.0261
 3049W        W 7249   7.540   9.679   9.258 -0.0325  0.1025 -0.2399
 3050W        W 7250   4.061   3.524   2.240 -0.0790  0.2675  0.3465
 3051W        W 7251   5.282   8.382  10.186 -0.0537 -0.0485  0.1426
 3052W        W 7252   7.967   2.056   0.470  0.1239 -0.0630 -0.0106
 3053W        W 7253   3.470   9.900  11.912  0.0176 -0.0628 -0.0465
 3054W        W 7254   7.886   5.551   1.109  0.0705  0.1448 -0.3417
 3055W        W 7255   1.730   7.304  12.650  0.2755  0.4759  0.0644
 3056W        W 7256  10.375   2.726   3.623 -0.1023  0.0573 -0.1555
 3057W        W 7257   8.176   8.275  10.754 -0.2433  0.1770  0.1310
 3058W        W 7258   5.861   6.900   1.446  0.0790 -0.0091 -0.0340
 3059W        W 7259  10.241   1.270   0.763  0.0548 -0.3849 -0.4225
 3060W        W 7260   3.805   5.150   3.777  0.0856  0.2305  0.0029
 3061W        W 7261   2.813   4.049   9.659  0.1664 -0.2470 -0.1610
 3062W        W 7262   6.535   7.739  13.134  0.3475  0.2069  0.0393
 3063W        W 7263   8.200   3.007  11.043  0.0756  0.0323 -0.2237
 3064W        W 7264   9.524   7.937   3.975  0.0956  0.1343 -0.0109
 3065W        W 7265   9.116   5.738  10.992  0.0179 -0.3519 -0.0539
 3066W        W 7266  10.457   1.996   0.404 -0.0490 -0.1890  0.0975
 3067W        W 7267   2.114   7.542   2.476 -0.0719  0.2147 -0.2296
 3068W        W 7268   0.952   5.483   2.927 -0.4158 -0.0277  0.1840
 3069W        W 7269   8.483  10.452  11.076 -0.1887  0.1858  0.1382
 3070W        W 7270   0.865   5.784  11.081  0.0875  0.1045  0.0965
 3071W        W 7271  10.231   5.123  10.484  0.0786  0.2252  0.1806
 3072W        W 7272   2.097   3.510   4.161 -0.2383 -0.0961 -0.4649
 3073W        W 7273   9.619   9.742  12.182 -0.2663 -0.1009 -0.1016
 3074W        W 7274   4.843   8.174   9.991  0.0471  0.1808  0.1434
 3075W        W 7275   8.646   3.560  12.878 -0.3518 -0.0021  0.1580
 3076W        W 7276   6.350   6.252   4.021 -0.3947 -0.0362 -0.2674
 3077W        W 7277  10.139   5.916   3.875  0.2048 -0.2828 -0.0364
 3078W        W 7278   4.286   9.726   9.584  0.2968 -0.0259  0.0660
 3079W        W 7279   0.960   7.593   4.433 -0.1312 -0.0355  0.1240
 3080W        W 7280   0.336   5.811  13.090  0.0464 -0.0651  0.1101
 3081W        W 7281   7.178   6.218   8.831  0.2763 -0.3613  0.0154
 3082W        W 7282   0.982   2.586   2.299  0.1898  0.0081  0.1651
 3083W        W 7283   5.132   2.232   4.026  0.1357 -0.0496  0.0624
 3084W        W 7284   9.161   8.207   3.272 -0.2550  0.3329  0.1282
 3085W        W 7285   6.156   5.703   4.070  0.0629  0.0561  0.0090
 3086W        W 7286   9.242   4.730   0.100 -0.0725  0.3312  0.0284
 3087W        W 7287   5.462   6.679   9.957  0.2864 -0.0358  0.0452
 3088W        W 7288   2.596   3.052   9.051  0.0784 -0.0664  0.0341
 3089W        W 7289   6.869   1.038   3.973 -0.0861  0.2283  0.2804
 3090W        W 7290   2.415   9.415   9.623 -0.1559 -0.0917  0.2317
 3091W        W 7291   7.990   4.908  10.440 -0.0783 -0.1581  0.1266
 3092W        W 7292   5.548   9.213  11.644 -0.0736 -0.2562  0.1292
 3093W        W 7293   9.410   9.338  12.256  0.0892  0.0206  0.0372
 3094W        W 7294   3.467   6.378   0.731 -0.0210  0.0973 -0.2756
 3095W        W 7295   3.692   6.113   1.586 -0.2257  0.2785  0.0139
 3096W        W 7296   9.591   1.484  10.541  0.1516  0.1077 -0.0901
 3097W        W 7297   4.761   1.018   9.384  0.3304 -0.3967  0.1592
 3098W        W 7298   7.414   6.285  10.078  0.1704  0.1304  0.1387
 3099W        W 7299   0.079   3.616   3.303 -0.2487  0.2208 -0.2224
 3100W        W 7300   7.076   2.616   0.019 -0.2790 -0.0597 -0.1867
 3101W        W 7301   5.995   0.793   0.165  0.2306 -0.1272  0.0301
 3102W        W 7302   3.574   8.978   0.974 -0.1710  0.0023 -0.2316
 3103W        W 7303   1.168   8.781   9.429  0.0127  0.0441  0.0978
 3104W        W 7304   3.508   6.752   2.263 -0.2079 -0.0261 -0.1353
 3105W        W 7305   8.285  10.343   0.854  0.0203  0.0488  0.0290
 3106W        W 7306   1.087   8.112  12.500  0.0133 -0.2038  0.0130
 3107W        W 7307   9.465   0.490  12.114 -0.0219  0.4516  0.3017
 3108W        W 7308   2.196   0.233   1.480  0.0436 -0.2210 -0.2479
 3109W        W 7309   7.603   6.045   3.738 -0.1281  0.0238 -0.4270
 3110W        W 7310   5.233   0.379  10.769  0.0235 -0.0919  0.0139
 3111W        W 7311   0.567   9.707  10.832 -0.3655 -0.1348  0.0538
 3112W        W 7312   6.989   8.416  10.304  0.0063 -0.0207 -0.2067
 3113W        W 7313   9.897   1.239  12.752  0.1598 -0.2126  0.2858
 3114W        W 7314   4.581   8.063  12.791 -0.3673  0.0626 -0.1054
 3115W        W 7315   2.014   0.237   0.548 -0.1212  0.0190 -0.1059
 3116W        W 7316   7.343   7.576   3.705 -0.1477  0.1646  0.2602
 3117W        W 7317   7.247   3.949  11.487 -0.1198 -0.0800  0.2286
 3118W        W 7318   1.233   7.501  11.860 -0.0298  0.2187 -0.0891
 3119W        W 7319   2.382   9.768   9.937 -0.0799 -0.2931  0.2443
 3120W        W 7320   6.616   2.740  11.524 -0.0204  0.1964 -0.0904
 3121W        W 7321   8.390  10.356  12.811  0.2140  0.2518  0.0471
 3122W        W 7322   3.910   3.400   4.930 -0.0513 -0.1222  0.0964
 3123W        W 7323   8.126   9.438  12.721 -0.0493  0.0095 -0.2410
 3124W        W 7324   2.996   5.839   9.871  0.0126 -0.0041  0.1093
 3125W        W 7325   3.256   7.503   1.853 -0.2487 -0.1260 -0.2902
 3126W        W 7326   5.342   7.733   9.756 -0.0114 -0.0148 -0.1171
 3127W        W 7327   8.590   1.272  10.618  0.0286 -0.2286  0.2095
 3128W        W 7328   2.874   6.576  12.564  0.2511 -0.2050  0.0720
 3129W        W 7329   4.256   1.483   2.909 -0.0526  0.0281  0.0203
 3130W        W 7330   5.694   4.535   4.190 -0.0123 -0.2621 -0.0558
 3131W        W 7331   0.527   4.998   0.682 -0.0346  0.0003 -0.0393
 3132W        W 7332   9.257   4.614   4.066  0.1546 -0.0032  0.2714
 3133W        W 7333   6.401   5.514   3.333 -0.1948 -0.0815 -0.1760
 3134W        W 7334   3.294   9.595   9.325 -0.0339  0.1424  0.0160
 3135W        W 7335   6.951   6.654   1.229 -0.1973  0.0093 -0.0096
 3136W        W 7336   2.461   8.320  13.130 -0.1163 -0.2412  0.2384
 3137W        W 7337   3.123   3.767   1.745 -0.0989  0.1254 -0.0024
 3138W        W 7338   0.747   5.420   8.609 -0.1032  0.0503 -0.4647
 3139W        W 7339   1.902   0.331   3.594  0.2816 -0.0947 -0.1928
 3140W        W 7340   8.755   3.696   9.243  0.3053 -0.0041 -0.0723
 3141W        W 7341   9.420   7.014   2.754 -0.0088 -0.0578  0.2323
 3142W        W 7342   9.801   0.438   2.322 -0.0000 -0.1105 -0.0320
 3143W        W 7343   3.223   2.404   9.102  0.0817  0.4283 -0.1931
 3144W        W 7344   0.406   0.951  11.260 -0.3011 -0.4434 -0.2222
 3145W        W 7345   0.653   6.021  11.835 -0.0740 -0.0675 -0.1090
 3146W        W 7346   0.069   7.085   9.209  0.1860  0.0860  0.3641
 3147W        W 7347   6.889   3.848   9.799 -0.1153  0.1520  0.0184
 3148W        W 7348   6.174   3.390  13.010  0.0814  0.0134 -0.0745
 3149W        W 7349   4.441   0.413   1.471  0.1186 -0.2279  0.0598
 3150W        W 7350   2.984   6.222   4.514  0.1641 -0.1246 -0.0110
 3151W        W 7351   9.996   7.547  12.684 -0.2591  0.0531 -0.1088
 3152W        W 7352   1.642   5.791  12.505  0.1877  0.2731 -0.0544
 3153W        W 7353   0.862   5.949   0.432  0.3278  0.1226 -0.0600
 3154W        W 7354   6.264   0.141  10.622 -0.0330 -0.0314  0.2244
 3155W        W 7355   2.744   2.525  11.860  0.3484 -0.0885 -0.1566
 3156W        W 7356   5.611   4.079  12.108  0.0770 -0.0514  0.0547
 3157W        W 7357   0.778   1.750  13.399 -0.0393 -0.1856 -0.0645
 3158W        W 7358   1.942   3.079   4.334 -0.2194 -0.1553  0.3799
 3159W        W 7359   8.565   6.007   8.543 -0.2315 -0.0392  0.1041
 3160W        W 7360   3.556   2.821   4.401 -0.0110 -0.1734 -0.3214
 3161W        W 7361   3.761   6.442   1.148  0.4382 -0.2996 -0.0631
 3162W        W 7362   4.513   1.286   1.239 -0.0021  0.1337 -0.0014
 3163W        W 7363   4.397   9.240   1.520  0.1857  0.0332  0.2726
 3164W        W 7364   4.406   9.264  12.796 -0.3966  0.0107  0.3857
 3165W        W 7365   5.468   7.526  11.814 -0.0370 -0.1062  0.1476
 3166W        W 7366   6.318   5.904   1.707  0.1457  0.1701 -0.0461
 3167W        W 7367   9.510   8.947   1.565  0.0364  0.1742  0.1339
 3168W        W 7368   5.894   1.475  10.976 -0.0296  0.0916  0.2048
 3169W        W 7369   8.873   8.410   0.064  0.1643 -0.3908  0.2500
 3170W        W 7370   4.876   7.786   8.610  0.0163 -0.1132 -0.2296
 3171W        W 7371   8.656   7.409   1.349 -0.2040 -0.1085 -0.1757
 3172W        W 7372   3.711   7.784   0.577  0.1070  0.0266  0.1070
 3173W        W 7373   5.889   4.844  11.824 -0.1724 -0.2179  0.0179
 3174W        W 7374   2.983   6.272  12.202  0.0232 -0.0145 -0.3388
 3175W        W 7375   4.162   6.652   3.635  0.2543 -0.1724 -0.0534
 3176W        W 7376   9.926   5.286   4.478 -0.2315  0.1143  0.1917
 3177W        W 7377   0.217   7.208   9.675 -0.3485  0.1898  0.4067
 3178W        W 7378   8.473   1.588   2.139  0.0140 -0.0007  0.1043
 3179W        W 7379   0.254   6.642  12.504 -0.3097  0.1252  0.2678
 3180W        W 7380   1.022   0.497   9.665 -0.1091  0.3064  0.1573
 3181W        W 7381  10.170   6.590   0.901  0.0875 -0.0018  0.2579
 3182W        W 7382   7.583  10.197   2.097  0.2891  0.0097 -0.1439
 3183W        W 7383   9.114   3.385  11.939  0.0673 -0.2299  0.1227
 3184W        W 7384   2.711   3.648   4.172 -0.0580 -0.0076  0.7638
 3185W        W 7385   9.341   7.016   4.950 -0.1237 -0.0280 -0.0386
 3186W        W 7386   5.794   5.537   2.710  0.0294 -0.2514  0.2198
 3187W        W 7387   3.303   0.411   2.000  0.0300 -0.0426 -0.1473
 3188W        W 7388   2.677   2.778   1.782 -0.2094 -0.1254 -0.0195
 3189W        W 7389   7.392   2.800   1.226 -0.1168 -0.0186 -0.2253
 3190W        W 7390   5.336   1.702  13.264 -0.1223  0.1849 -0.0751
 3191W        W 7391   8.292   1.153   1.626  0.2718  0.3032 -0.0457
 3192W        W 7392   5.817   9.757  12.828  0.0862  0.3156 -0.1485
 3193W        W 7393   9.915   6.179   2.481 -0.3136 -0.1533 -0.2864
 3194W        W 7394   1.464   3.697   9.092  0.3411 -0.1572  0.4031
 3195W        W 7395   7.722   6.835   0.563 -0.0802  0.0756 -0.3558
 3196W        W 7396   0.407   6.710  10.286 -0.4188  0.1699  0.0778
 3197W        W 7397   3.513   9.778  12.430  0.3554  0.0691  0.0571
 3198W        W 7398   1.566   2.506  13.391  0.1635  0.0513  0.0739
 3199W        W 7399   8.208   8.366  12.524 -0.1196 -0.1114  0.0776
 3200W        W 7400   7.251   1.485  11.650  0.3269  0.2908  0.0559
 3201W        W 7401   6.440   5.746  13.329 -0.3969  0.1181  0.1506
 3202W        W 7402   3.753   8.392  11.746 -0.1277 -0.0577  0.1398
 3203W        W 7403   2.858   0.053   3.699 -0.0964 -0.3229  0.2257
 3204W        W 7404   6.012   0.539  11.464  0.0849  0.0172  0.3218
 3205W        W 7405   5.681   2.229   1.788  0.0030  0.0836 -0.1095
 3206W        W 7406   4.298   1.602   9.739  0.0825  0.1423 -0.2527
 3207W        W 7407   8.188   1.879   2.716 -0.0428  0.1814  0.2373
 3208W        W 7408   5.459   2.269   8.390  0.1354  0.1278 -0.1857
 3209W        W 7409   2.943   4.982  12.468  0.0984 -0.0200 -0.0648
 3210W        W 7410   1.800   5.707   0.377  0.2378  0.4029  0.0950
 3211W        W 7411   9.627   4.245   9.294  0.0439 -0.1103  0.0140
 3212W        W 7412   4.414   5.736  12.904  0.0239  0.1057 -0.0498
 3213W        W 7413   7.547   4.545   1.632 -0.2152 -0.0151  0.3474
 3214W        W 7414  10.470   1.871  11.569 -0.0814  0.1165  0.3747
 3215W        W 7415   3.504   7.432   1.225  0.1295  0.0228 -0.4081
 3216W        W 7416   6.065   1.114  13.085 -0.1710  0.1232  0.0885
 3217W        W 7417   6.400   0.056  10.158 -0.2133  0.1820 -0.1122
 3218W        W 7418   5.858   3.125  12.691 -0.0230 -0.2950 -0.3021
 3219W        W 7419   2.762   1.856  11.983 -0.1693 -0.1253  0.1281
 3220W        W 7420   8.886   0.638   3.025  0.2304  0.0471 -0.1139
 3221W        W 7421   1.831  10.349  11.144 -0.0541 -0.3488  0.1852
 3222W        W 7422   0.202   4.123   2.579 -0.0944  0.2313  0.0167
 3223W        W 7423   2.925   5.521  12.760 -0.2385  0.1659 -0.1327
 3224W        W 7424   4.217   0.435   0.867  0.3001  0.2854  0.1018
 3225W        W 7425   1.588   7.358   5.106  0.3420 -0.0691 -0.0317
 3226W        W 7426   7.871   8.395   3.588  0.1104  0.0816  0.0178
 3227W        W 7427   1.458   1.207   1.956  0.0155  0.0099  0.5187
 3228W        W 7428   2.516   1.757   9.646  0.4307  0.0340 -0.3404
 3229W        W 7429   2.424   0.479   2.754  0.0631 -0.0370 -0.1636
 3230W        W 7430   2.595   7.061   2.705 -0.0352  0.1156  0.1982
 3231W        W 7431   2.502   6.807   0.573 -0.2914  0.0942  0.1429
 3232W        W 7432   0.268   2.040  12.041 -0.2138 -0.0321  0.1106
 3233W        W 7433   7.357   6.755  13.288 -0.4183 -0.2303  0.1077
 3234W        W 7434   2.475   6.116   8.706  0.0778  0.1647  0.2091
 3235W        W 7435   5.009   5.529   4.921 -0.0531 -0.2791 -0.0318
 3236W        W 7436   7.230   6.021   0.244  0.1750  0.0665  0.1465
 3237W        W 7437   7.230   8.511   2.778  0.1299  0.3162  0.2464
 3238W        W 7438   2.230   3.665   0.445 -0.1680  0.1455 -0.1604
 3239W        W 7439  10.093   7.444   4.937 -0.2216  0.0101 -0.0236
 3240W        W 7440   6.726   0.589   0.110  0.1079  0.0501  0.3212
 3241W        W 7441   8.557   3.376  11.923 -0.0379 -0.1596  0.1190
 3242W        W 7442   1.351   7.522   2.415  0.0638  0.1589  0.1390
 3243W        W 7443   0.648   9.992   2.063 -0.1380 -0.0783  0.1477
 3244W        W 7444   1.975   7.686  11.044  0.1728 -0.3328  0.0013
 3245W        W 7445   0.705   8.415   4.978 -0.1447 -0.0803  0.1490
 3246W        W 7446   3.323   0.784  11.360 -0.0016 -0.1528 -0.1854
 3247W        W 7447   9.333   5.897   0.867  0.1260 -0.1478 -0.1714
 3248W        W 7448   2.166   7.659   9.118  0.2698  0.1719  0.2834
 3249W        W 7449   8.174   8.590   3.215  0.2630  0.1831 -0.1213
 3250W        W 7450   6.603   5.754   2.502 -0.0681  0.0917  0.1722
 3251W        W 7451   2.495   1.653  11.615  0.0773 -0.2806  0.2010
 3252W        W 7452   7.568   5.755  12.266  0.1475  0.0788 -0.5382
 3253W        W 7453   3.765   7.595   1.959  0.4738 -0.1162 -0.3124
 3254W        W 7454   0.923   6.756   2.335  0.1450 -0.0051 -0.1872
 3255W        W 7455   1.071   2.817  12.675  0.0159  0.0609  0.1099
 3256W        W 7456   8.435   6.819  13.341  0.2455 -0.3454 -0.1611
 3257W        W 7457   9.373   4.435  13.017  0.2860 -0.0005 -0.1002
 3258W        W 7458   9.705   2.332  11.767  0.1497  0.1073 -0.1815
 3259W        W 7459   0.985   9.627   0.100 -0.0863 -0.3829 -0.3742
 3260W        W 7460   7.892   6.163  12.415 -0.0002 -0.0695  0.5075
 3261W        W 7461   8.760   3.330   1.540 -0.1253  0.2472  0.2761
 3262W        W 7462   5.331   6.453   2.546 -0.1523 -0.3228 -0.1845
 3263W        W 7463   2.989   6.240   2.868 -0.0714 -0.0456  0.1627
 3264W        W 7464   4.344   5.242   3.835  0.1373 -0.1988  0.0028
 3265W        W 7465   3.705   3.182   0.058 -0.1691 -0.3810  0.2063
 3266W        W 7466   9.552   6.555   4.950  0.1864  0.4755 -0.0486
 3267W        W 7467   4.093   1.149   4.318  0.1587 -0.0584 -0.0757
 3268W        W 7468   3.575   3.345  13.110  0.0283  0.0601  0.1722
 3269W        W 7469  10.068   9.771   1.385 -0.0046  0.1166  0.2900
 3270W        W 7470   3.706   3.992  12.489 -0.1005 -0.1950  0.0292
 3271W        W 7471   8.747   6.160  11.186 -0.0262  0.0037  0.3281
 3272W        W 7472   8.031   7.429  12.674  0.0556  0.0479  0.0443
 3273W        W 7473   3.922   3.903   0.973 -0.1297 -0.1857  0.3081
 3274W        W 7474   5.938   1.532  13.362  0.0410  0.0690  0.3353
 3275W        W 7475   9.894   6.499  10.127  0.1083  0.2633 -0.1567
 3276W        W 7476   7.149   7.533  11.135  0.1912  0.0963 -0.2152
 3277W        W 7477   3.317   2.789   1.139 -0.0041 -0.0846  0.0997
 3278W        W 7478   0.406   7.709   9.949 -0.2683 -0.1234  0.0384
 3279W        W 7479   8.210   2.539   3.320 -0.0395  0.0382 -0.0072
 3280W        W 7480   8.527   3.703   1.132  0.1384  0.1613  0.0756
 3281W        W 7481   0.452   6.678   1.030  0.1518  0.2369  0.3846
 3282W        W 7482   4.286   8.335  13.461 -0.1335  0.2777 -0.1691
 3283W        W 7483   5.016   7.376  11.802  0.1451  0.0517  0.0600
 3284W        W 7484   4.886   2.032   0.654  0.4120  0.1852  0.0102
 3285W        W 7485   5.216   7.424   1.884  0.2133 -0.2625  0.0096
 3286W        W 7486   4.934   0.028   0.296  0.2324 -0.1096 -0.0686
 3287W        W 7487   2.982   5.719  10.830  0.3734  0.0749 -0.1975
 3288W        W 7488   2.371   2.971  12.464 -0.1609 -0.0092  0.0852
 3289W        W 7489   9.309  10.125  10.442  0.0009  0.0555 -0.1423
 3290W        W 7490   8.473   6.887   2.967  0.1125  0.1336 -0.0583
 3291W        W 7491   2.964   1.294  11.225  0.1765 -0.1155  0.2450
 3292W        W 7492  10.016   9.427  12.333 -0.0317  0.0521 -0.1261
 3293W        W 7493   7.558   7.343   2.805  0.0789  0.3382 -0.0102
 3294W        W 7494  10.060   2.594  11.012 -0.1685  0.0834  0.3914
 3295W        W 7495   8.214   3.339   1.542 -0.0509 -0.3132  0.0745
 3296W        W 7496   7.471  10.210  10.555 -0.3564 -0.1754 -0.1817
 3297W        W 7497   0.173   5.621   1.789  0.3146  0.2648  0.0716
 3298W        W 7498   8.245   8.178  11.362 -0.1780 -0.0240 -0.1353
 3299W        W 7499   1.154   3.995   8.766 -0.0210 -0.0249 -0.1249
 3300W        W 7500   3.446   6.964  12.547 -0.3700  0.0961  0.0845
 3301W        W 7501   4.003  10.444  12.152 -0.2061  0.0846  0.0711
 3302W        W 7502   5.478   6.905   0.174 -0.1759  0.0547  0.2056
 3303W        W 7503   0.195   6.412  11.220 -0.0105  0.1289  0.0847
 3304W        W 7504   6.339   8.936   9.617  0.1340 -0.1606  0.4676
 3305W        W 7505   1.406   2.386  10.873 -0.1323 -0.0700  0.1639
 3306W        W 7506   0.116   1.032   1.114  0.1952  0.0497 -0.1727
 3307W        W 7507   2.152   2.024   1.228  0.0850 -0.0382  0.1907
 3308W        W 7508   3.705   5.462   2.621  0.2381  0.0684 -0.0644
 3309W        W 7509   4.266   9.287  13.339  0.1987 -0.1384 -0.0868
 3310W        W 7510   2.354   9.635   2.795  0.0591  0.0163  0.2273
 3311W        W 7511   5.721   6.189   4.662 -0.3843 -0.1649 -0.1804
 3312W        W 7512   2.069   4.490  11.215 -0.0194  0.0749 -0.2909
 3313W        W 7513   6.733   9.363  12.444 -0.1413  0.3467 -0.1796
 3314W        W 7514   4.066   5.010  13.126 -0.1578 -0.1465  0.2637
 3315W        W 7515   5.554   4.533   1.012 -0.2264  0.1089 -0.1720
 3316W        W 7516   0.156   9.035  11.831 -0.3109 -0.2330  0.1910
 3317W        W 7517   7.424   0.790  11.352  0.2424  0.1162  0.1928
 3318W        W 7518   3.949   2.359   3.114 -0.0929  0.3729 -0.0713
 3319W        W 7519   5.255   4.335   0.632 -0.0342  0.0249  0.0432
 3320W        W 7520   2.962   2.255   4.517 -0.4518  0.2525  0.3625
 3321W        W 7521   9.568   8.895   0.651  0.3259  0.3202 -0.0652
 3322W        W 7522   2.876   5.820  11.838  0.0356  0.0266  0.0376
 3323W        W 7523   5.616   9.037   3.348  0.0519  0.0606  0.0750
 3324W        W 7524   2.727   5.852   0.676  0.0322  0.0286 -0.2760
 3325W        W 7525   4.350   7.114  12.960 -0.0427 -0.0295  0.2377
 3326W        W 7526   7.231   5.580   1.845 -0.2294 -0.1639 -0.2881
 3327W        W 7527   0.998   4.153  10.275 -0.1094  0.1535 -0.1374
 3328W        W 7528   4.060   4.387  10.339  0.1180 -0.1231  0.0151
 3329W        W 7529   5.757   5.731  11.126  0.2508  0.0080  0.3244
 3330W        W 7530   6.619   7.369  10.184  0.3953  0.1881  0.1723
 3331W        W 7531   5.160   3.106  10.869 -0.2379  0.0065  0.1898
 3332W        W 7532   5.020   1.495   1.920 -0.0363 -0.0456  0.2551
 3333W        W 7533   2.651   0.461   1.526 -0.2332 -0.1317  0.2663
 3334W        W 7534   5.481   3.339  13.113 -0.3635 -0.0770 -0.3283
 3335W        W 7535   0.101   7.402   4.778  0.0152  0.0562 -0.1761
 3336W        W 7536   8.584   0.855  10.030  0.1928  0.0846  0.1097
 3337W        W 7537   4.190   7.588   0.657 -0.0254  0.0274 -0.0749
 3338W        W 7538   6.671   2.514  10.305  0.0071  0.0855 -0.3563
 3339W        W 7539   1.320   8.736   0.884 -0.0517  0.4015  0.3231
 3340W        W 7540   3.518  10.129   3.151 -0.0639  0.1947  0.1226
 3341W        W 7541   0.931   9.874  11.629  0.1496 -0.0719 -0.0041
 3342W        W 7542   3.112   4.476  13.292  0.4342 -0.3602 -0.0521
 3343W        W 7543   9.258   7.376   2.387 -0.1553  0.1031 -0.1385
 3344W        W 7544   6.250   9.594   1.830 -0.3147  0.1591  0.1088
 3345W        W 7545   6.772   4.392   9.250 -0.0585 -0.1497 -0.0630
 3346W        W 7546   5.598   5.397   0.571  0.2128  0.0669  0.1708
 3347W        W 7547   5.125   0.107   2.650  0.1323  0.0224  0.3647
 3348W        W 7548   3.720   1.870   4.205  0.0351 -0.0960 -0.0439
 3349W        W 7549   3.922   6.774  10.946 -0.1207 -0.3060  0.1987
 3350W        W 7550   4.929   7.308   1.459 -0.1790 -0.1770  0.3072
 3351W        W 7551   5.374   1.942  10.472 -0.0344 -0.0439 -0.3601
 3352W        W 7552   8.452   2.204   2.294  0.2631 -0.1621 -0.0057
 3353W        W 7553   4.756   2.063   1.554  0.0646 -0.1286  0.0088
 3354W        W 7554   2.505   5.789   9.036 -0.2178  0.3190 -0.0626
 3355W        W 7555   2.125   2.982   8.808 -0.0800 -0.0561 -0.3581
 3356W        W 7556   8.416   6.433   1.861 -0.0729  0.0445 -0.1732
 3357W        W 7557   3.373   3.171  12.256  0.0742 -0.1562  0.0352
 3358W        W 7558   3.595   7.943  10.267 -0.4317 -0.0799 -0.1567
 3359W        W 7559   9.281   8.455   3.809  0.1162  0.2254  0.1488
 3360W        W 7560   8.945   0.491   1.988 -0.3644  0.1411 -0.0853
 3361W        W 7561   5.659   5.224  11.530 -0.4267  0.0839  0.0802
 3362W        W 7562   9.996   9.723   3.322  0.1949  0.1750 -0.1716
 3363W        W 7563   4.534   8.527  10.823  0.1093 -0.2341 -0.4972
 3364W        W 7564   4.581   8.207   9.497  0.0553  0.1893  0.0904
 3365W        W 7565   6.023   4.250   3.539 -0.1516 -0.1505 -0.1100
 3366W        W 7566   7.478   5.115  12.145 -0.0338  0.0409  0.1575
 3367W        W 7567   1.717   5.568   9.381 -0.0182  0.1071 -0.2546
 3368W        W 7568   7.593   7.896   1.156 -0.0881  0.0569  0.0032
 3369W        W 7569   4.961   0.737  11.159  0.0557  0.1778 -0.3775
 3370W        W 7570   9.282   1.959  10.865  0.3101 -0.4574  0.2258
 3371W        W 7571   8.987   6.633  10.086  0.3294 -0.0388  0.1733
 3372W        W 7572   9.383   9.916   3.854 -0.3637 -0.1385 -0.0681
 3373W        W 7573   2.241   4.537   1.016  0.0132  0.1218  0.0333
 3374W        W 7574   2.096   9.141   4.233  0.0962 -0.1973 -0.0941
 3375W        W 7575   5.698   4.921   7.973  0.0744  0.2083  0.0764
 3376W        W 7576  10.188   2.477  13.057 -0.0365  0.1793 -0.3262
 3377W        W 7577   8.839   0.947   0.959  0.2464 -0.1914 -0.0179
 3378W        W 7578   8.613   8.184  11.013  0.1149 -0.1166 -0.1177
 3379W        W 7579   4.701   2.331  13.440 -0.0299  0.0774  0.2139
 3380W        W 7580   3.963   4.498  13.366  0.0747 -0.1091 -0.0743
 3381W        W 7581   6.497  10.464   3.320 -0.1026 -0.1262 -0.1561
 3382W        W 7582   2.223   0.464  12.374 -0.5452 -0.2066 -0.3610
 3383W        W 7583   7.071   5.884   9.882  0.0917  0.0594 -0.4315
 3384W        W 7584  10.395   3.294  11.704 -0.0454  0.1374 -0.0235
 3385W        W 7585   8.760   5.012   0.800 -0.0002  0.2356 -0.2900
 3386W        W 7586   2.205   1.308   2.136 -0.0904  0.0601  0.0325
 3387W        W 7587   7.304   0.096  11.874  0.3024 -0.1485  0.1689
 3388W        W 7588  10.132   6.788  10.513  0.0629 -0.2209  0.0066
 3389W        W 7589  10.265   2.263   3.396  0.2659  0.0194 -0.1414
 3390W        W 7590   6.672   5.610   9.666  0.1118 -0.4292 -0.1472
 3391W        W 7591   5.286   3.220   9.291 -0.2190  0.2515  0.0737
 3392W        W 7592   1.646  10.365   3.800  0.0710 -0.1217  0.1593
 3393W        W 7593   7.832   1.202  10.103 -0.0295 -0.1870  0.2538
 3394W        W 7594   9.631   7.106   2.256  0.2968  0.1904  0.0454
 3395W        W 7595   6.733   4.817   0.408 -0.1421  0.3913 -0.1193
 3396W        W 7596   6.182   3.315  11.992 -0.3063 -0.1042  0.2723
 3397W        W 7597   0.395   9.634   1.831 -0.1863 -0.0602  0.1704
 3398W        W 7598   7.688   0.553   0.162  0.0225 -0.0312  0.2310
 3399W        W 7599   9.363   7.461   0.406  0.1455  0.0700  0.1218
 3400W        W 7600   2.837   9.092  10.450 -0.0962 -0.2181 -0.0722
 3401W        W 7601   4.089   5.363   3.409  0.0991 -0.0773  0.1155
 3402W        W 7602   8.318   8.574   3.738 -0.0752  0.0552 -0.0209
 3403W        W 7603   3.586   4.707   4.030 -0.2481 -0.3989 -0.0742
 3404W        W 7604   3.292   4.582   4.453  0.1609 -0.4170  0.2204
 3405W        W 7605   7.927   0.588   0.553  0.0274  0.3553  0.2238
 3406W        W 7606   6.997   2.414   1.466  0.0621 -0.0939 -0.1199
 3407W        W 7607   1.902   3.419   3.660 -0.1271  0.0613 -0.0764
 3408W        W 7608   0.147   2.532  12.790  0.1365  0.0820 -0.1080
 3409W        W 7609   0.685   8.994  10.164 -0.0069  0.2106  0.1004
 3410W        W 7610   4.050   9.429  10.432  0.5138  0.0039 -0.2612
 3411W        W 7611   3.026   8.513   3.258  0.0317  0.2212 -0.2165
 3412W        W 7612   4.475   9.484   4.198 -0.0678 -0.1116  0.1820
 3413W        W 7613  10.352   7.474   1.385  0.1523 -0.1435 -0.1156
 3414W        W 7614   9.621   5.084   8.316 -0.0445 -0.1428  0.0788
 3415W        W 7615   3.346   1.794   2.498 -0.0370 -0.1939 -0.1186
 3416W        W 7616   7.272   0.622  10.601 -0.0670 -0.1846 -0.1668
 3417W        W 7617  10.258   8.782   9.596  0.1024  0.2998  0.2294
 3418W        W 7618   7.947   5.312  10.089 -0.0044  0.0589  0.3326
 3419W        W 7619   5.864   3.638  10.288  0.0762  0.0385 -0.1302
 3420W        W 7620   1.657   2.443   1.090 -0.0088  0.0702  0.0747
 3421W        W 7621   0.406   3.986  13.095 -0.0553 -0.1743 -0.0292
 3422W        W 7622   4.837   2.406   3.687  0.0151 -0.0395 -0.0561
 3423W        W 7623   5.781   7.616   4.153  0.2240  0.0645 -0.4029
 3424W        W 7624   5.775   3.579  12.183  0.1839  0.0274 -0.0842
 3425W        W 7625   1.788   7.947   9.851 -0.0055 -0.0446  0.0940
 3426W        W 7626   2.187   7.041   2.336  0.0819  0.0587  0.0632
 3427W        W 7627   3.904  10.127  11.624  0.4209  0.1967  0.2308
 3428W        W 7628   3.447   9.814   4.002  0.2539  0.3370 -0.0684
 3429W        W 7629   3.053   0.364  12.846  0.2563  0.2634 -0.0305
 3430W        W 7630   6.993   9.702   0.246  0.0352 -0.2775 -0.1731
 3431W        W 7631   8.400   6.513   5.717 -0.0616 -0.0537 -0.1399
 3432W        W 7632   3.352   4.060   4.734 -0.0621 -0.0091  0.2219
 3433W        W 7633   2.030   4.129   3.133  0.1171  0.3216 -0.4068
 3434W        W 7634   7.267   3.163   2.430 -0.3565 -0.0078  0.1727
 3435W        W 7635   7.480  10.047   0.302  0.0058  0.1075 -0.0776
 3436W        W 7636   9.880   6.201   9.214  0.0083  0.0712 -0.3570
 3437W        W 7637  10.329   3.484   2.514  0.0032  0.2469 -0.1729
 3438W        W 7638   6.358   1.592  10.515  0.0686 -0.3894  0.2940
 3439W        W 7639   8.524   7.685   4.112  0.0263  0.0809  0.0732
 3440W        W 7640   4.580   1.916   8.748  0.1652 -0.1016  0.1308
 3441W        W 7641   5.897   1.230   0.485  0.1362 -0.3976  0.1150
 3442W        W 7642   1.564   5.147   4.617  0.0162  0.1506 -0.0741
 3443W        W 7643   8.623   9.185   2.887 -0.1960  0.0849 -0.2347
 3444W        W 7644   5.840   1.732   9.177 -0.1289  0.0463 -0.0625
 3445W        W 7645   5.506  10.186  13.198 -0.1585  0.0301  0.1684
 3446W        W 7646   8.039   2.000  11.512  0.0846  0.0529  0.1557
 3447W        W 7647   4.043   1.525   1.698  0.0809 -0.1113 -0.2267
 3448W        W 7648   0.372   5.332   1.096 -0.1958 -0.1782  0.1259
 3449W        W 7649   7.702   4.865   0.286 -0.0749  0.3861 -0.1990
 3450W        W 7650   8.371   5.360   9.843  0.1648  0.0270  0.3485
 3451W        W 7651   3.169   2.113   3.002  0.1717 -0.1524  0.2642
 3452W        W 7652   1.024   4.515   3.934 -0.0042  0.2823 -0.0120
 3453W        W 7653   8.538   5.222   8.839 -0.0847  0.0274 -0.1078
 3454W        W 7654   7.853  10.372   1.170  0.0110  0.2073 -0.2171
 3455W        W 7655   8.465   3.739   3.440  0.0150 -0.2309 -0.2847
 3456W        W 7656   0.581   2.900   2.458 -0.2677  0.0856 -0.1475
 3457W        W 7657   3.229   0.188   9.468  0.1909 -0.3415  0.2436
 3458W        W 7658   5.595   2.404   3.240  0.2599  0.1947  0.1305
 3459W        W 7659   5.435   9.095  12.116 -0.2198 -0.2205  0.2256
 3460W        W 7660   9.181   5.113   2.202 -0.0608  0.1842  0.2558
 3461W        W 7661   3.304   1.946   5.201  0.0812 -0.0417  0.1733
 3462W        W 7662   5.845   6.360   9.938  0.2599 -0.3799  0.1401
 3463W        W 7663   2.700   0.260   9.047  0.0129 -0.0818 -0.0981
 3464W        W 7664   0.889   5.269   9.820  0.3347 -0.0194  0.0525
 3465W        W 7665   7.523   2.902   3.121  0.2525 -0.0774 -0.1250
 3466W        W 7666   2.841   4.870  10.945  0.1864 -0.1487  0.0300
 3467W        W 7667  10.156   4.143  10.201  0.1175 -0.1763  0.1976
 3468W        W 7668   4.544   1.946   3.752 -0.1229  0.0779 -0.0606
 3469W        W 7669   3.522   5.357   0.223  0.0429  0.1469  0.1415
 3470W        W 7670   5.649   2.644   0.657 -0.1820  0.0256 -0.1855
 3471W        W 7671   3.344   5.078   2.649 -0.0048 -0.1152 -0.5403
 3472W        W 7672   0.454   2.077   2.606  0.1100 -0.0775 -0.0501
 3473W        W 7673   2.660  10.405   1.471  0.1032  0.1791  0.0942
 3474W        W 7674   1.228   7.639  12.789 -0.0205  0.0264  0.2696
 3475W        W 7675   1.406   3.900  10.091  0.2651 -0.2137  0.4217
 3476W        W 7676   2.092   8.492   3.875 -0.2218 -0.1827  0.3166
 3477W        W 7677  10.309   2.820  12.044 -0.0962 -0.2793 -0.0298
 3478W        W 7678   4.225   6.938   4.166 -0.0813 -0.2067  0.0797
 3479W        W 7679   3.730   8.772   0.386 -0.1906  0.2159 -0.0838
 3480W        W 7680   5.272   8.228   2.671 -0.0638 -0.1877  0.0121
 3481W        W 7681   8.444   1.942  12.537  0.0354  0.0090 -0.0899
 3482W        W 7682   2.242   2.307  10.574  0.0028  0.0023 -0.2420
 3483W        W 7683   1.786   7.175  11.208  0.0794  0.3442  0.1275
 3484W        W 7684   8.466   2.879  11.952  0.0135  0.2544 -0.0470
 3485W        W 7685   0.974   6.601  10.211  0.1184  0.0468  0.0046
 3486W        W 7686   3.765   2.001  10.457 -0.0533 -0.1301 -0.0431
 3487W        W 7687   8.839   1.617  11.759  0.1949 -0.0996 -0.1564
 3488W        W 7688   9.238   9.164   0.997  0.3156 -0.0218 -0.1060
 3489W        W 7689   3.904   6.339   9.766  0.0531  0.1613  0.2151
 3490W        W 7690   3.323   4.698   4.898 -0.1311 -0.1141  0.1576
 3491W        W 7691   9.168   7.616  12.346  0.1838  0.1901 -0.2695
 3492W        W 7692   3.744   9.290  10.776  0.1604  0.2314  0.0780
 3493W        W 7693   9.282   5.181   3.313 -0.1995  0.2342 -0.2268
 3494W        W 7694   2.928  10.324  10.294  0.1841  0.0660 -0.0603
 3495W        W 7695   4.457   5.757   0.875  0.0142 -0.3002 -0.0507
 3496W        W 7696   3.271   9.278   3.899 -0.0768 -0.1351 -0.4376
 3497W        W 7697   2.206   0.404  12.877 -0.0022 -0.0823 -0.0704
 3498W        W 7698   3.116   0.628   0.524  0.0078 -0.3051  0.3872
 3499W        W 7699   7.048   2.120   2.344 -0.3299 -0.1359  0.0779
 3500W        W 7700   8.005   8.530   9.381 -0.2936 -0.1427  0.0090
 3501W        W 7701   8.239   7.337   2.192 -0.2795 -0.4166 -0.1670
 3502W        W 7702  10.282   7.206  12.906  0.2727  0.2958  0.3500
 3503W        W 7703   7.627   5.324   4.872 -0.0260  0.2681 -0.1239
 3504W        W 7704   6.468   4.910   2.988 -0.2151 -0.3289  0.1488
 3505W        W 7705   1.858   7.571   4.491 -0.1250 -0.1453 -0.5293
 3506W        W 7706   1.882   9.266   2.641 -0.1675 -0.1837 -0.0838
 3507W        W 7707   2.258   8.096   2.657 -0.0375  0.1083  0.0934
 3508W        W 7708   7.026   4.183  12.289  0.1809  0.1567 -0.0867
 3509W        W 7709   0.193   5.620   2.544 -0.2762  0.1660  0.6338
 3510W        W 7710   1.648   8.225   2.238  0.0195 -0.1550 -0.2469
 3511W        W 7711   0.823   5.858  12.811 -0.2465  0.1682 -0.0105
 3512W        W 7712   4.003   1.151   5.282  0.3531 -0.0188  0.0470
 3513W        W 7713   8.571   4.188   2.030 -0.0293 -0.2234 -0.0081
 3514W        W 7714   4.077   3.644   3.811  0.0926 -0.1271  0.0925
 3515W        W 7715   7.457   8.297   3.966 -0.0620 -0.1326  0.0666
 3516W        W 7716   5.941   4.012  12.455 -0.0499 -0.0527 -0.1401
 3517W        W 7717   6.150   9.416   9.640  0.1512  0.2884  0.1457
 3518W        W 7718   4.645   4.222  10.205  0.0473 -0.4320  0.0037
 3519W        W 7719   6.875  10.271  11.836 -0.4920 -0.1315  0.1175
 3520W        W 7720   0.101   9.147   2.540 -0.1047  0.0242 -0.2885
 3521W        W 7721   1.741   1.163   1.438  0.1914 -0.0035  0.4824
 3522W        W 7722   8.948   9.548  13.082  0.0713 -0.1208  0.0574
 3523W        W 7723   0.843   8.139   0.428 -0.0774 -0.1764  0.3181
 3524W        W 7724   1.049   7.569   2.054 -0.0021 -0.1506  0.3557
 3525W        W 7725   0.326   0.853   2.695 -0.0706 -0.1226  0.0749
 3526W        W 7726   1.926   6.245  11.514 -0.0737  0.1528 -0.0029
 3527W        W 7727   2.845   8.802   2.561  0.1889 -0.1379  0.1114
 3528W        W 7728   1.054   8.753  13.173 -0.1276  0.0380  0.2062
 3529W        W 7729   4.545   4.073   0.253 -0.0461 -0.2181  0.3366
 3530W        W 7730   2.509   5.397   0.306 -0.1377  0.1409 -0.0224
 3531W        W 7731   1.493   4.221   5.189  0.1109  0.0080 -0.0652
 3532W        W 7732   9.702   7.409   0.759 -0.5110 -0.0864 -0.0377
 3533W        W 7733   5.308   4.868  13.376  0.2153 -0.1888 -0.0457
 3534W        W 7734   2.435   0.882  12.881  0.0093 -0.4449 -0.0836
 3535W        W 7735   2.940   4.492   4.003 -0.2018  0.0428  0.1595
 3536W        W 7736   6.209   6.311  12.557 -0.0876  0.0679  0.2317
 3537W        W 7737   5.140   4.753   0.363 -0.0350 -0.2698  0.2132
 3538W        W 7738   5.386   2.622   3.614  0.4107  0.2564  0.2780
 3539W        W 7739   3.069   4.495   9.554  0.0883  0.1326 -0.0177
 3540W        W 7740   2.111   4.547   0.536 -0.0361  0.0797  0.1021
 3541W        W 7741   0.218   6.488   0.606  0.0637 -0.1615 -0.2120
 3542W        W 7742   2.443   4.081   2.279  0.0752  0.0072 -0.2012
 3543W        W 7743   9.811   2.817  12.069 -0.1008 -0.1182 -0.3347
 3544W        W 7744   7.103   3.572   2.662  0.3923 -0.1056 -0.1695
 3545W        W 7745   0.280   4.585   9.992 -0.0320 -0.0223 -0.1548
 3546W        W 7746   1.097   5.216  12.091 -0.0188  0.2917  0.0108
 3547W        W 7747   7.752   0.773   2.790  0.1393  0.0086  0.0057
 3548W        W 7748   3.734   4.219   0.679  0.0216  0.0032  0.1786
 3549W        W 7749   8.148   6.601   0.421 -0.0270 -0.0589  0.1269
 3550W        W 7750   3.512   6.994   2.688  0.1879  0.1812  0.0814
 3551W        W 7751   5.026   4.243   8.813 -0.1443 -0.0466 -0.0003
 3552W        W 7752   9.508   2.670   3.599  0.2000  0.2127 -0.3643
 3553W        W 7753   0.989   4.875   4.229  0.2841 -0.2222 -0.0535
 3554W        W 7754   9.284   8.252   2.048 -0.1579 -0.0924 -0.2240
 3555W        W 7755   1.564   6.359  11.123 -0.3017 -0.1003  0.2897
 3556W        W 7756   9.851   8.827   2.756  0.2876  0.2282  0.2299
 3557W        W 7757   0.612   0.475   1.955 -0.0687 -0.1163 -0.1255
 3558W        W 7758   4.923   6.373  12.987  0.1015  0.0761 -0.0614
 3559W        W 7759   0.453   5.505   0.522  0.1796  0.1021 -0.0914
 3560W        W 7760   0.765   4.673   9.085 -0.1017 -0.2805 -0.2831
 3561W        W 7761   3.467   1.436   2.867 -0.0975 -0.0765  0.3143
 3562W        W 7762   3.227   8.153   9.575  0.0919  0.1558  0.0645
 3563W        W 7763   0.808   2.068  11.108 -0.2432 -0.2445  0.1468
 3564W        W 7764   7.110   2.927   0.742  0.2597  0.0722 -0.0269
 3565W        W 7765   8.604   4.414   9.880 -0.0438 -0.1621  0.2740
 3566W        W 7766   4.122   5.243   1.696  0.1562 -0.1267  0.2371
 3567W        W 7767   4.453   2.717  13.204  0.0142  0.0241 -0.3990
 3568W        W 7768   6.045   2.812  10.191 -0.1380  0.1038  0.0801
 3569W        W 7769   1.510   9.423   3.374 -0.0610  0.5144  0.1983
 3570W        W 7770   1.788   5.817   4.889  0.2083  0.2957 -0.0717
 3571W        W 7771   8.082   6.790   2.683  0.2775  0.2868 -0.0686
 3572W        W 7772   2.210   4.581   9.605  0.2482 -0.0138  0.0215
 3573W        W 7773   6.668   8.748   2.456  0.2344  0.0429  0.0340
 3574W        W 7774   4.810  10.119  11.481 -0.3585  0.2064 -0.0982
 3575W        W 7775   9.331   2.623   4.533 -0.2118 -0.1359  0.0397
 3576W        W 7776   6.901   2.891   1.326 -0.0820  0.1440 -0.1871
 3577W        W 7777   1.509   2.394   1.618 -0.2083 -0.0130 -0.0179
 3578W        W 7778   6.418   3.689   9.624  0.2071  0.0454 -0.1211
 3579W        W 7779   9.575   8.475   1.496  0.0683 -0.1588  0.2465
 3580W        W 7780   3.507   1.183   0.453  0.3550  0.2316 -0.0901
 3581W        W 7781   3.616   4.806   0.790  0.2068  0.1940  0.3216
 3582W        W 7782   9.906   6.950  12.096 -0.2036  0.0113  0.0284
 3583W        W 7783   7.665   1.637   0.372 -0.2671  0.0509  0.0998
 3584W        W 7784   1.992   2.783   0.059 -0.0457 -0.3600  0.2872
 3585W        W 7785   8.294   5.683  10.655  0.0647  0.0569 -0.1415
 3586W        W 7786   7.602   3.801  10.370 -0.1799 -0.3210 -0.1049
 3587W        W 7787   7.433   3.539   4.373  0.1402 -0.2641  0.1211
 3588W        W 7788   6.926   3.687  10.800  0.0960  0.1997  0.2789
 3589W        W 7789   9.518   1.353  13.120  0.3185 -0.0989 -0.0235
 3590W        W 7790   0.235   3.774  12.556 -0.4474  0.0967 -0.0556
 3591W        W 7791   0.098   4.540   1.955 -0.0350  0.2108  0.0777
 3592W        W 7792   4.168   2.763   2.602 -0.1161 -0.1065  0.1902
 3593W        W 7793   8.456   8.802   1.839  0.1671  0.2669 -0.0776
 3594W        W 7794   1.259   2.096  11.346 -0.1460 -0.1161 -0.1056
 3595W        W 7795   2.087   4.123   0.175  0.0468  0.3622  0.2747
 3596W        W 7796   2.625   1.306   0.297 -0.2996  0.0194 -0.0819
 3597W        W 7797   5.057   6.433   9.847 -0.1692  0.1674  0.0943
 3598W        W 7798   4.379   0.974   4.740  0.1302  0.0085 -0.0631
 3599W        W 7799   7.579   5.362   1.481  0.1933  0.3022  0.3205
 3600W        W 7800   3.994   9.773   1.479 -0.2320  0.2523 -0.0619
 3601W        W 7801   9.624   3.378  11.982  0.2514 -0.3711  0.0615
 3602W        W 7802   5.546   6.037  12.220  0.0824  0.2118 -0.1496
 3603W        W 7803   4.830   5.090   9.969  0.0266  0.0045 -0.3886
 3604W        W 7804   2.649   3.162  10.440  0.2017  0.1606 -0.2341
 3605W        W 7805   8.327   7.828  12.915 -0.2006  0.0127 -0.0516
 3606W        W 7806   8.983   9.067   1.935 -0.0493 -0.0607  0.2228
 3607W        W 7807   9.122   4.882  13.040 -0.0187  0.0090  0.0319
 3608W        W 7808  10.252   0.648   9.850 -0.0545 -0.1769 -0.1141
 3609W        W 7809   3.693   4.956  12.130 -0.1447  0.0136 -0.0010
 3610W        W 7810   6.813   6.726   9.471  0.0540  0.0054  0.0218
 3611W        W 7811   4.235   3.777   0.584  0.0117 -0.1277  0.2724
 3612W        W 7812   3.866   3.758   1.823  0.0665 -0.0696 -0.2123
 3613W        W 7813   3.969   7.631   0.144 -0.2271 -0.0985  0.0550
 3614W        W 7814   3.600   6.870  11.277 -0.0887 -0.4775  0.1116
 3615W        W 7815   8.409   0.472   9.591 -0.0132 -0.1509  0.0085
 3616W        W 7816   3.452   5.013  12.573  0.0837 -0.0005  0.1055
 3617W        W 7817   3.192   1.843   4.168  0.3414 -0.1676 -0.1157
 3618W        W 7818   5.578   5.009   3.883  0.1937 -0.1649  0.5507
 3619W        W 7819   9.070   6.665  12.333  0.1635 -0.0941 -0.1833
 3620W        W 7820   3.548   4.125  10.308 -0.2502  0.1850  0.0564
 3621W        W 7821   3.356   9.381  13.432  0.1974 -0.0857  0.0370
 3622W        W 7822   6.647   9.362   3.380  0.0382  0.1144  0.3126
 3623W        W 7823   6.243   0.346   0.078 -0.0804 -0.0606 -0.0335
 3624W        W 7824   1.415   3.941   0.392 -0.1280 -0.0428  0.0248
 3625W        W 7825   4.650   7.333   5.003  0.1283 -0.1723 -0.1311
 3626W        W 7826   9.115   5.574   4.626 -0.0770  0.0023  0.3177
 3627W        W 7827   0.682   3.414   2.576 -0.2455 -0.0827 -0.1104
 3628W        W 7828   6.570   6.711   4.363  0.2553 -0.3344 -0.1776
 3629W        W 7829   8.681   6.696   4.229  0.1915 -0.1302  0.0825
 3630W        W 7830   9.297   8.970  11.735  0.1252 -0.1793  0.2459
 3631W        W 7831   8.746   7.751   4.968 -0.1535 -0.3225 -0.3075
 3632W        W 7832   9.259   9.730   1.110 -0.1560 -0.2377 -0.1767
 3633W        W 7833   1.609   5.866   2.466  0.1053  0.0592 -0.0353
 3634W        W 7834   3.063   4.858   0.911  0.0632  0.0095 -0.0584
 3635W        W 7835   7.178   3.517  11.173 -0.0327  0.0127  0.0256
 3636W        W 7836   2.264   7.039  10.404 -0.3768 -0.0691  0.0723
 3637W        W 7837   6.058   9.001   0.144  0.3998 -0.1476 -0.1699
 3638W        W 7838   7.988   2.789  11.542  0.1441 -0.2183  0.0146
 3639W        W 7839   9.729   6.348   2.961  0.2564  0.0213  0.0684
 3640W        W 7840   6.749   6.223  11.740 -0.1881  0.0113  0.0768
 3641W        W 7841   1.968   2.118   8.780  0.0398  0.0063  0.3448
 3642W        W 7842   8.643   7.179   4.304 -0.3072  0.2341 -0.2675
 3643W        W 7843   5.146   4.880   2.743  0.1416  0.1483 -0.2250
 3644W        W 7844   6.652   4.122  11.885  0.0230 -0.1343  0.1455
 3645W        W 7845   6.850   2.685  12.907  0.0478 -0.1562  0.2499
 3646W        W 7846   6.229   7.113   1.061  0.0177 -0.0225  0.2384
 3647W        W 7847   4.003   2.101   3.898 -0.1237 -0.1361  0.2880
 3648W        W 7848   4.432  10.470  11.426  0.0257 -0.0623 -0.0705
 3649W        W 7849   5.551   1.813  10.943  0.0193 -0.1066 -0.1446
 3650W        W 7850   1.886   6.542   9.853 -0.3041  0.0310 -0.0980
 3651W        W 7851   7.635   2.446   9.090 -0.0208  0.3268 -0.4764
 3652W        W 7852   8.204   6.804   1.346  0.0292  0.1746 -0.2614
 3653W        W 7853   5.175   3.061   1.266 -0.0344 -0.2380 -0.0836
 3654W        W 7854   1.602   1.585   0.081 -0.3464 -0.2808  0.1002
 3655W        W 7855   4.533   2.280   0.431 -0.0554  0.5826 -0.1015
 3656W        W 7856   0.215   0.567   0.815  0.1645 -0.1701 -0.0006
 3657W        W 7857  10.114  10.237  10.100  0.0268 -0.0082 -0.0753
 3658W        W 7858   5.166   0.620   2.436 -0.2808  0.1856 -0.0237
 3659W        W 7859  10.108   9.933   2.309 -0.1180 -0.0470  0.5987
 3660W        W 7860   4.778   7.236  10.975  0.0480 -0.3120  0.2080
 3661W        W 7861   6.957   5.595  13.430  0.0577  0.2195  0.1149
 3662W        W 7862   3.783   8.140   9.455  0.1639 -0.3056 -0.0545
 3663W        W 7863   5.060   6.980   3.636 -0.2885  0.0341 -0.0618
 3664W        W 7864   5.859   1.822   2.055 -0.1977  0.0161 -0.0642
 3665W        W 7865   1.002   8.262   9.553  0.2962 -0.0087 -0.2431
 3666W        W 7866   5.568   6.071   3.342 -0.0334 -0.0539 -0.4359
 3667W        W 7867   4.780   6.622   9.455 -0.1312 -0.5748 -0.1556
 3668W        W 7868   1.772   3.284   9.872  0.0526  0.0974 -0.0835
 3669W        W 7869   3.236   8.321  10.450 -0.1281  0.0984  0.1622
 3670W        W 7870   1.600   5.449  10.760  0.2761  0.0813  0.3643
 3671W        W 7871   5.074   5.417   2.716 -0.0942 -0.1251  0.1620
 3672W        W 7872   9.596   2.631  12.528 -0.2587  0.1971  0.2819
 3673W        W 7873   4.189   8.779  13.090  0.0558 -0.0877 -0.1581
 3674W        W 7874   0.027   6.119  12.210  0.0839 -0.2008 -0.2195
 3675W        W 7875   0.630   4.079  12.613  0.0590  0.0881  0.1991
 3676W        W 7876   7.714   8.882  10.957 -0.1626 -0.0371 -0.0460
 3677W        W 7877   4.839   6.125  10.156  0.0118  0.0653 -0.0394
 3678W        W 7878   7.055   6.049   1.708  0.0173 -0.3565  0.1773
 3679W        W 7879   9.535   1.402   0.491 -0.2558 -0.1868 -0.0659
 3680W        W 7880   0.348   4.439   0.570 -0.3401  0.0550  0.2266
 3681W        W 7881   8.299   9.428   1.997 -0.2975 -0.0372 -0.4945
 3682W        W 7882   0.021   4.052   2.102 -0.3007  0.2317  0.1470
 3683W        W 7883   9.989   7.028   3.591  0.1340 -0.2714 -0.1751
 3684W        W 7884   7.432   4.395  11.676 -0.0829 -0.0666 -0.0743
 3685W        W 7885   6.733   4.114   8.752  0.1024 -0.0486  0.0315
 3686W        W 7886   3.171   2.000  10.572 -0.0675  0.1420 -0.0459
 3687W        W 7887   8.660   4.033   0.709 -0.0632 -0.1972 -0.3236
 3688W        W 7888   4.923   8.694   4.205 -0.1654 -0.0315 -0.0766
 3689W        W 7889   2.717   1.394   9.962  0.1500  0.1384 -0.0562
 3690W        W 7890   3.917   9.260  12.944 -0.0114 -0.1655 -0.0662
 3691W        W 7891   1.797   7.564   1.629  0.3769 -0.1609  0.0345
 3692W        W 7892   9.205   3.366   1.904 -0.2935  0.0116  0.0567
 3693W        W 7893   2.687   7.339  11.479  0.0235 -0.0618 -0.1531
 3694W        W 7894   4.017   4.060   0.247  0.2382  0.0287 -0.1546
 3695W        W 7895   4.505   9.560   3.637  0.3985  0.1760  0.2005
 3696W        W 7896   1.920   9.217   0.354  0.0433  0.0424 -0.3651
 3697W        W 7897   8.335   2.513  13.278  0.1248  0.4320  0.1024
 3698W        W 7898   8.808   8.372   3.684 -0.0499 -0.0584 -0.1746
 3699W        W 7899   5.547   7.326  10.748 -0.0668  0.2910 -0.2848
 3700W        W 7900   0.798   9.051  12.834  0.1710 -0.1368 -0.0605
 3701W        W 7901   5.255   5.891   2.611 -0.0331  0.3607  0.0530
 3702W        W 7902   0.720   8.739   2.097 -0.2673  0.1622 -0.1345
 3703W        W 7903   5.111   4.832  12.175 -0.1534  0.0741 -0.0763
 3704W        W 7904   0.021   1.133   2.419  0.0313  0.1360 -0.1318
 3705W        W 7905   9.775   3.691   2.598 -0.0440 -0.0707 -0.2391
 3706W        W 7906   9.821   5.948   3.485 -0.1819  0.1225 -0.5139
 3707W        W 7907   0.024   8.508  12.764 -0.3020  0.2091  0.1483
 3708W        W 7908   3.970   6.892  12.567  0.0400 -0.2138 -0.0645
 3709W        W 7909   2.444   6.287   4.489  0.1475 -0.1236 -0.2331
 3710W        W 7910   6.037   9.706   3.216  0.0136  0.0449 -0.0293
 3711W        W 7911   6.907   7.577   1.529  0.1164  0.0834 -0.1950
 3712W        W 7912   5.299   6.705  10.564  0.0016 -0.1102  0.6004
 3713W        W 7913   9.110   7.416   3.536  0.1012 -0.1512  0.0114
 3714W        W 7914   5.748   5.181   5.395 -0.1607 -0.0909 -0.0234
 3715W        W 7915  10.068   4.429   9.255  0.0485  0.0735 -0.0414
 3716W        W 7916   3.145   2.039   3.578 -0.0429 -0.1985  0.2292
 3717W        W 7917   7.308   4.716   4.757 -0.0185  0.3229 -0.0252
 3718W        W 7918   2.862   5.227   4.078  0.3664 -0.2335  0.1265
 3719W        W 7919   6.120   5.343  13.268 -0.1581  0.1146 -0.0160
 3720W        W 7920   5.000   5.187   3.142  0.1186 -0.0731  0.1876
 3721W        W 7921   0.063   9.360   4.548  0.1284 -0.1189  0.2640
 3722W        W 7922   6.142   5.594  10.415  0.2281  0.0652  0.3640
 3723W        W 7923   3.765   3.109   4.037 -0.0691  0.1072 -0.1703
 3724W        W 7924   6.138   8.196  13.389 -0.0055 -0.0103 -0.2209
 3725W        W 7925   5.313   6.523  12.247  0.2228  0.0895 -0.0359
 3726W        W 7926   8.346   6.699   3.792 -0.2466 -0.1683 -0.4337
 3727W        W 7927   5.007   1.450   1.405 -0.0191  0.0042  0.1428
 3728W        W 7928   5.313   7.857  12.856  0.2757  0.2306 -0.1199
 3729W        W 7929   9.396   6.361   0.703  0.1651  0.0536  0.0120
 3730W        W 7930   1.446   3.154  12.793  0.0041  0.2817 -0.5079
 3731W        W 7931   5.772   4.397   0.515 -0.1099 -0.0831 -0.2806
 3732W        W 7932   4.931   5.812   9.118 -0.0338  0.1131  0.0040
 3733W        W 7933   9.296   3.436   2.952  0.2445 -0.2076  0.0693
 3734W        W 7934   1.649   4.125  12.402 -0.2484 -0.1433  0.0448
 3735W        W 7935   4.429   9.892  10.622 -0.1988  0.0840  0.0864
 3736W        W 7936   5.478   6.530  13.098 -0.0684  0.2068 -0.2993
 3737W        W 7937   3.190   7.038   1.566 -0.0175  0.1721 -0.1612
 3738W        W 7938  10.381   9.811   0.209  0.2256  0.2660  0.0715
 3739W        W 7939   8.950   4.194   2.409  0.0387 -0.0026 -0.0701
 3740W        W 7940   0.785   6.790   4.667 -0.0239 -0.1554 -0.0593
 3741W        W 7941   9.827   8.274  11.598 -0.1134 -0.1980 -0.1033
 3742W        W 7942   2.412   3.921   8.858  0.1525 -0.1727  0.1430
 3743W        W 7943   9.428   7.079  12.325 -0.0453 -0.2675 -0.1781
 3744W        W 7944   5.119   0.391   9.793 -0.2300 -0.3087 -0.0565
 3745W        W 7945   4.150   4.601  12.918 -0.2607  0.1457  0.0060
 3746W        W 7946   6.849   5.152   9.408 -0.0612 -0.1920 -0.3345
 3747W        W 7947   4.031   6.812   0.880 -0.2593 -0.1841 -0.1010
 3748W        W 7948   9.768   9.638   3.732  0.0431 -0.0674  0.0065
 3749W        W 7949   8.723   5.563   0.839 -0.1947 -0.0861  0.0004
 3750W        W 7950   1.020   3.664   3.728  0.0318  0.0123 -0.2262
 3751W        W 7951   9.702   0.309  10.114  0.2826  0.0661  0.1482
 3752W        W 7952   8.276   6.251  10.353  0.2114 -0.2134 -0.4362
 3753W        W 7953   1.463   5.273  10.334  0.0452 -0.0938  0.1844
 3754W        W 7954   6.644   5.347   0.246 -0.2269 -0.0628  0.2584
 3755W        W 7955   5.002   1.639  12.364  0.1128 -0.0182  0.0545
 3756W        W 7956   8.676   1.928   2.741  0.2274 -0.2261  0.0829
 3757W        W 7957   7.370   5.614   4.513  0.2146  0.2327  0.3143
 3758W        W 7958   1.586   9.621  10.145  0.1088 -0.2011  0.0347
 3759W        W 7959   5.208   3.104  12.135  0.0136  0.2445 -0.5440
 3760W        W 7960   9.706   4.478  13.466 -0.0621  0.2898 -0.1235
 3761W        W 7961   2.364   5.068   2.218  0.2053 -0.0835 -0.3328
 3762W        W 7962   1.682   3.457  13.127  0.0646  0.0509 -0.0030
 3763W        W 7963   5.390   4.002  11.299 -0.1238  0.1520  0.0567
 3764W        W 7964  10.094   1.961   1.304 -0.0650 -0.0727  0.1969
 3765W        W 7965   7.871   3.626  12.359 -0.1384 -0.1428 -0.1333
 3766W        W 7966   8.298  10.327   2.158  0.3266 -0.2392 -0.0973
 3767W        W 7967   9.793   9.728  11.713 -0.3248 -0.1430 -0.1670
 3768W        W 7968   1.122   2.589  10.252  0.1762  0.0111 -0.1900
 3769W        W 7969   5.293   6.385   0.250 -0.0160 -0.0327  0.0561
 3770W        W 7970   8.680   0.693  11.762  0.0168  0.1302  0.0126
 3771W        W 7971   8.530   2.857   9.364 -0.0268 -0.2258  0.0015
 3772W        W 7972   4.369   6.952  11.116 -0.3053  0.2931 -0.2357
 3773W        W 7973   6.856   0.093   9.459  0.1313 -0.2130 -0.1018
 3774W        W 7974   8.050   2.717   0.470  0.2051 -0.3211 -0.1551
 3775W        W 7975   5.537   0.366   2.163  0.0715  0.1478  0.1879
 3776W        W 7976   8.665   9.079   9.918 -0.1487  0.2750  0.2538
 3777W        W 7977   8.585   9.220  12.843 -0.0766  0.0805 -0.2301
 3778W        W 7978   9.271   6.728   1.940  0.0991  0.1969  0.3784
 3779W        W 7979   7.187   8.355  12.079  0.1142  0.3546  0.1635
 3780W        W 7980   8.192   9.829   0.699  0.0158 -0.0306  0.0628
 3781W        W 7981   7.525   3.274  13.271 -0.1031  0.0273 -0.2526
 3782W        W 7982   4.130   2.582   1.998  0.2945  0.0364 -0.1204
 3783W        W 7983   8.225   4.389  13.227  0.0105 -0.1239  0.2138
 3784W        W 7984   2.271   6.333   3.523 -0.1604 -0.2782 -0.1094
 3785W        W 7985   1.533   7.415  13.235  0.0813  0.2366  0.0809
 3786W        W 7986   4.273   0.445  12.367  0.2254 -0.2893 -0.1499
 3787W        W 7987   7.249   7.513  12.650 -0.0510 -0.0817 -0.0505
 3788W        W 7988   8.341   3.093  11.553 -0.3812  0.0634  0.1236
 3789W        W 7989   4.099   3.034   2.185 -0.1928  0.1871  0.1048
 3790W        W 7990   2.347   8.714   9.633  0.2164  0.2251 -0.1974
 3791W        W 7991   3.941   0.522   3.371  0.2347 -0.0208 -0.0157
 3792W        W 7992   9.494   5.296   0.095 -0.1640 -0.1308  0.1139
 3793W        W 7993   4.333   7.597  11.058 -0.2626  0.0313 -0.2135
 3794W        W 7994   9.210   2.026   1.913 -0.1328  0.0182  0.2061
 3795W        W 7995   5.427   5.416   2.390 -0.1995  0.0651  0.2061
 3796W        W 7996   4.183   3.580   4.391 -0.2371  0.0186  0.0128
 3797W        W 7997   4.925   5.666   1.143  0.0226  0.0692 -0.0201
 3798W        W 7998   3.527   9.632   3.119 -0.0169  0.1517 -0.1675
 3799W        W 7999   6.680   1.521  10.075 -0.1255 -0.0952 -0.1920
 3800W        W 8000   0.110   2.712   3.034 -0.0164 -0.1766 -0.1186
 3801W        W 8001   6.299   1.126  10.785 -0.1596 -0.2110  0.2324
 3802W        W 8002   6.361   3.739  13.311 -0.1055 -0.0309  0.0317
 3803W        W 8003   8.399   9.698   2.782  0.1226  0.3476 -0.3629
 3804W        W 8004   2.177   4.018   4.139 -0.0795 -0.0636  0.1514
 3805W        W 8005   1.911   8.639   0.269 -0.1033 -0.3137 -0.1783
 3806W        W 8006   3.850   8.247   0.358 -0.0050 -0.1641  0.0069
 3807W        W 8007   8.292   5.313  12.691  0.3342  0.5108 -0.0490
 3808W        W 8008   8.515  10.056   3.118 -0.0743  0.2778 -0.0306
 3809W        W 8009   4.027   1.610   3.952 -0.4214  0.1936  0.2403
 3810W        W 8010   4.685   8.651  11.821 -0.0749  0.0451 -0.0105
 3811W        W 8011   5.595   6.122  13.405  0.0515 -0.2615 -0.3887
 3812W        W 8012  10.117   1.412   2.631 -0.1029 -0.0959 -0.0565
 3813W        W 8013   0.180   7.678   1.111  0.0767  0.2783 -0.0411
 3814W        W 8014   9.473   5.113  11.416  0.2349  0.0767  0.0412
 3815W        W 8015   7.698   9.798   3.387  0.2251 -0.1956 -0.0260
 3816W        W 8016   5.947   3.743   3.391  0.0997 -0.1214  0.2308
 3817W        W 8017   7.096   8.127   4.425  0.0424 -0.0085  0.2533
 3818W        W 8018   6.343   3.959   2.509 -0.3359 -0.3215 -0.1267
 3819W        W 8019   4.091   4.787   4.106 -0.0016 -0.1739  0.1211
 3820W        W 8020   9.162   8.679   3.360 -0.1025 -0.2102 -0.0043
 3821W        W 8021   4.928   7.179   0.972 -0.0692  0.2872 -0.1978
 3822W        W 8022   5.730   1.924   0.059  0.1904 -0.1924  0.1671
 3823W        W 8023   3.848   1.665  11.203 -0.0962  0.2839  0.2227
 3824W        W 8024   5.636   4.009   0.840  0.0695 -0.2369  0.2267
 3825W        W 8025   6.790   2.213   3.713  0.0344 -0.0902  0.0614
 3826W        W 8026   2.488   7.843  10.750  0.1292 -0.1080  0.1324
 3827W        W 8027   6.057   5.434   9.432 -0.0611  0.1665  0.2934
 3828W        W 8028   1.118   4.205   0.977 -0.0340 -0.1264 -0.0992
 3829W        W 8029   5.855   0.980  10.680  0.2424 -0.2051 -0.3386
 3830W        W 8030   9.168   2.272   0.930  0.2007 -0.2570  0.0072
 3831W        W 8031   2.757   9.445  12.294 -0.1488  0.1256 -0.1779
 3832W        W 8032   7.863   1.235   1.341 -0.3157  0.2837 -0.0616
 3833W        W 8033   5.349   0.983  10.284 -0.2479  0.2076 -0.0103
 3834W        W 8034   6.638   9.991  12.456  0.5506 -0.2152 -0.1409
 3835W        W 8035   4.364   7.597  12.822 -0.0136  0.2068 -0.0175
 3836W        W 8036   6.285   9.186  12.520 -0.0015 -0.0913  0.0193
 3837W        W 8037   1.832   9.908   9.897 -0.0705  0.1050 -0.2777
 3838W        W 8038   1.398   7.436  11.088  0.2877  0.0664  0.2417
 3839W        W 8039   6.884   6.826   3.895 -0.0564 -0.1447  0.2200
 3840W        W 8040   1.023   3.139   9.545 -0.1406 -0.1356 -0.2011
 3841W        W 8041   2.284   7.897   1.828  0.0398  0.1475 -0.1523
 3842W        W 8042   0.311   6.015   0.542 -0.2325 -0.0682  0.2178
 3843W        W 8043   4.096   6.912  12.099  0.0701  0.5058 -0.0907
 3844W        W 8044   6.533   1.817   3.465  0.1667  0.1195 -0.0600
 3845W        W 8045   6.832   7.735   9.760  0.0999  0.0849 -0.1839
 3846W        W 8046   9.229   7.160  10.366  0.1447  0.4757 -0.3238
 3847W        W 8047   7.403   5.891   5.542 -0.1971 -0.0590 -0.1439
 3848W        W 8048   4.241   6.561   9.454  0.1294  0.2527  0.3557
 3849W        W 8049   3.109   8.763   1.240  0.3770 -0.1231  0.1846
 3850W        W 8050   2.560   5.450   4.445 -0.0267  0.1134 -0.1344
 3851W        W 8051   0.729   9.334   1.550 -0.0881  0.1279  0.2407
 3852W        W 8052   2.052   3.767   8.439  0.2312 -0.0130  0.2657
 3853W        W 8053   9.108   0.111   9.831 -0.1069  0.2408  0.2361
 3854W        W 8054   2.333   0.251   9.622 -0.0933  0.4636  0.1263
 3855W        W 8055  10.377   2.314   1.678  0.4577  0.0603 -0.1933
 3856W        W 8056   3.853   2.488   3.597  0.2727  0.3237  0.3037
 3857W        W 8057   8.536   3.982  12.586 -0.3772 -0.2788  0.0689
 3858W        W 8058   1.449   4.625  12.568  0.2137  0.0535 -0.0661
 3859W        W 8059   2.406   6.836  10.897  0.0332 -0.2014  0.1860
 3860W        W 8060   5.257   7.414   3.517  0.2441  0.0334 -0.1331
 3861W        W 8061   6.978   5.964   5.305 -0.1686  0.0248  0.0631
 3862W        W 8062   2.142   4.361   3.691 -0.0092  0.0927 -0.3048
 3863W        W 8063   5.871   0.531  12.998  0.0721 -0.0456 -0.1492
 3864W        W 8064   5.827   4.663   2.214 -0.2801 -0.1033  0.1148
 3865W        W 8065   3.118   8.350   4.162  0.2326  0.1677  0.1877
 3866W        W 8066   2.250   0.177  11.843 -0.1096  0.0501 -0.4627
 3867W        W 8067   8.950  10.208  10.102 -0.1560  0.0134  0.1978
 3868W        W 8068   4.720   2.576   1.316 -0.0477 -0.0340 -0.0318
 3869W        W 8069   8.365   7.562   1.000  0.1106 -0.3351 -0.0113
 3870W        W 8070   2.497   8.981  10.041  0.0724  0.0046  0.0975
 3871W        W 8071   1.793   8.276   4.518  0.0084  0.2100 -0.2975
 3872W        W 8072   7.345   4.068   0.238  0.2768 -0.0639  0.2282
 3873W        W 8073   7.283   8.089   0.292  0.0320  0.0298 -0.0971
 3874W        W 8074   9.446   8.350   0.668  0.0274 -0.1424  0.1147
 3875W        W 8075   7.460   7.037  10.158 -0.0092 -0.0226 -0.1312
 3876W        W 8076   0.501  10.013   8.687  0.2522  0.0846 -0.3230
 3877W        W 8077   1.961   1.562   1.238 -0.0530  0.0610  0.3465
 3878W        W 8078   3.704   3.742  13.338 -0.2458  0.3706  0.2276
 3879W        W 8079   0.010   0.805   1.942  0.0794  0.3155 -0.1422
 3880W        W 8080   2.667   3.634   9.333  0.0733  0.0708 -0.0728
 3881W        W 8081   7.760   9.923   1.263 -0.0624  0.2988 -0.1503
 3882W        W 8082   9.597   1.881   9.857  0.0981 -0.1174 -0.4075
 3883W        W 8083   2.714   8.225   1.905  0.0638  0.3205 -0.1564
 3884W        W 8084   1.126  10.211  13.343  0.1921  0.5338  0.0021
 3885W        W 8085   2.188   1.187   9.712 -0.1632 -0.0447 -0.1340
 3886W        W 8086   3.879   8.641   9.091 -0.2740 -0.2843  0.1858
 3887W        W 8087   7.705   1.199  12.723  0.0963 -0.3422  0.1181
 3888W        W 8088   3.534   0.732   0.221  0.0382 -0.2105 -0.1986
 3889W        W 8089   3.418   4.409   1.100 -0.2012  0.0686 -0.1999
 3890W        W 8090   1.600   0.978  10.880  0.1905  0.1154  0.1503
 3891W        W 8091   5.143   0.064  11.406 -0.2764 -0.1308 -0.1704
 3892W        W 8092   9.375   1.390  11.010 -0.1053  0.0666  0.5012
 3893W        W 8093   9.176   2.405   4.110 -0.0474  0.1885 -0.1143
 3894W        W 8094   3.933   4.107  12.004 -0.1983  0.3228  0.3927
 3895W        W 8095   2.702   1.865   4.338 -0.2714 -0.0106  0.0881
 3896W        W 8096   1.576   1.862   9.873 -0.0342 -0.0787 -0.0382
 3897W        W 8097   6.674   4.793   2.500  0.2370  0.1830 -0.1231
 3898W        W 8098   1.580   3.934  10.670 -0.1104 -0.1743 -0.3270
 3899W        W 8099   6.390  10.141  10.474 -0.0463 -0.0782 -0.0916
 3900W        W 8100   3.971   5.198   2.919 -0.0748  0.0052  0.0616
 3901W        W 8101   6.036   7.477   1.925 -0.0493  0.0432 -0.0410
 3902W        W 8102   3.429   7.069  10.234 -0.2030 -0.0632  0.1744
 3903W        W 8103   5.936   2.194   8.550  0.0717 -0.1960  0.1908
 3904W        W 8104   6.209   4.411   5.502 -0.2858  0.1674  0.0757
 3905W        W 8105   9.122   7.068   9.723  0.0559  0.0524  0.0026
 3906W        W 8106   2.289   5.488   2.921 -0.4567  0.0836 -0.0822
 3907W        W 8107   9.717   6.628  12.433 -0.2088 -0.0437 -0.2217
 3908W        W 8108   1.369   5.947   9.364  0.1060 -0.1338  0.2151
 3909W        W 8109   8.990   3.750  10.179  0.0107  0.0287  0.0751
 3910W        W 8110   7.944   0.401   2.445  0.0200 -0.0986 -0.0074
 3911W        W 8111   9.095   1.053  13.204 -0.3332  0.1862 -0.3953
 3912W        W 8112   4.201   2.997  12.477  0.1140 -0.0246 -0.1388
 3913W        W 8113   1.888   0.012  10.576 -0.0679 -0.0140 -0.0464
 3914W        W 8114   7.260   6.671  10.862 -0.0270  0.1975 -0.2718
 3915W        W 8115   7.096   6.630   0.719  0.2825 -0.1461 -0.2073
 3916W        W 8116   6.485   2.986  11.116 -0.1176  0.2341  0.1752
 3917W        W 8117   6.279   5.766  10.922  0.0234  0.1031  0.4460
 3918W        W 8118   5.360   7.390   0.563 -0.0244 -0.2250 -0.0101
 3919W        W 8119   5.581   5.912  12.885  0.0801 -0.1428  0.0268
 3920W        W 8120   0.570   9.461  10.027 -0.2619 -0.0153 -0.4533
 3921W        W 8121   3.125   6.608   1.882 -0.1244  0.3791  0.0696
 3922W        W 8122   3.407  10.321   2.029  0.0219  0.2971  0.0311
 3923W        W 8123   4.752   1.547   3.032 -0.0832 -0.0295 -0.2914
 3924W        W 8124   1.688   0.243  12.772 -0.1923  0.2870 -0.0252
 3925W        W 8125   8.373   7.625  13.444  0.0138  0.0730  0.1583
 3926W        W 8126   1.866   2.025   4.861  0.2385  0.0428  0.2983
 3927W        W 8127   3.277   9.935  13.201  0.1551 -0.0544  0.0243
 3928W        W 8128   2.262   2.310   0.042 -0.1891  0.1319 -0.0831
 3929W        W 8129   0.025   2.735   4.148 -0.2545 -0.1815 -0.1970
 3930W        W 8130   6.956   4.618  12.510  0.2177 -0.1475 -0.0701
 3931W        W 8131   5.294   2.682  11.162 -0.2032  0.2629  0.1212
 3932W        W 8132   9.626   5.727   1.763  0.2237 -0.0664 -0.4214
 3933W        W 8133  10.064   3.835   1.686 -0.1911 -0.0519 -0.1100
 3934W        W 8134   1.117   3.462  11.913 -0.3196 -0.2235  0.0720
 3935W        W 8135   3.645   6.590  12.249  0.0809 -0.2519  0.3581
 3936W        W 8136   6.579   2.538   9.081 -0.1423  0.0132  0.1951
 3937W        W 8137   1.829   9.843   9.434  0.1029  0.3547  0.1825
 3938W        W 8138   2.320   2.269   2.368 -0.1447 -0.0847 -0.4817
 3939W        W 8139   1.923   3.143  12.566 -0.0110 -0.0729 -0.0997
 3940W        W 8140   2.533   4.679  11.456 -0.1739 -0.0582  0.1960
 3941W        W 8141   9.211   8.901   0.225  0.1010 -0.2737  0.1290
 3942W        W 8142   8.928   8.107   1.718 -0.1392 -0.0088  0.3043
 3943W        W 8143   5.235   8.200   4.376 -0.1281 -0.1023 -0.0325
 3944W        W 8144   3.369   6.502   2.718 -0.4266  0.4332 -0.0976
 3945W        W 8145   4.714   9.550   9.872  0.3303 -0.3282 -0.1371
 3946W        W 8146   0.619   5.817   1.754 -0.3525 -0.1312  0.2285
 3947W        W 8147   6.494   4.184   9.660 -0.2018  0.0346 -0.1995
 3948W        W 8148   2.077   8.937   2.951  0.3120 -0.0632 -0.0531
 3949W        W 8149   8.471   5.079   4.214 -0.1773  0.2900  0.1069
 3950W        W 8150   5.288   9.477   3.608 -0.1247  0.0370  0.3339
 3951W        W 8151   0.660   3.676  11.731 -0.1700  0.0032  0.4001
 3952W        W 8152   8.422   9.881   1.804 -0.1911  0.0536  0.2587
 3953W        W 8153   5.678   0.419  12.593 -0.0434 -0.1737  0.3045
 3954W        W 8154   7.756   8.096   0.677 -0.1900  0.0710  0.2979
 3955W        W 8155   8.443   6.355   9.588  0.0959 -0.0084  0.0135
 3956W        W 8156   1.021   1.815   9.880 -0.1638 -0.0753 -0.1257
 3957W        W 8157   6.974   1.574  13.077  0.2392  0.1352  0.1045
 3958W        W 8158   5.901   9.514   2.197  0.0215 -0.2016 -0.1206
 3959W        W 8159  10.229   4.529   4.009  0.2588 -0.1603  0.1101
 3960W        W 8160   4.436   5.347  11.679  0.1078 -0.2336 -0.2659
 3961W        W 8161   6.613   1.607   3.041  0.0581 -0.1124 -0.1436
 3962W        W 8162   5.482   2.378   0.173  0.1976  0.1979 -0.1742
 3963W        W 8163   6.611   1.960  12.795 -0.0596  0.1065  0.3285
 3964W        W 8164   1.429   1.947  13.032  0.1184 -0.0402  0.2693
 3965W        W 8165   6.963   9.538   0.698 -0.0172  0.1025 -0.0441
 3966W        W 8166   5.015   3.835   0.211 -0.1988  0.1292  0.0246
 3967W        W 8167   3.045   2.043  11.182 -0.0837  0.3173  0.0618
 3968W        W 8168   5.818   1.053  11.234  0.0489  0.0186  0.4696
 3969W        W 8169   5.173   9.086   2.710 -0.0352 -0.2828  0.0903
 3970W        W 8170  10.366   5.570  10.675  0.1653 -0.2138  0.0704
 3971W        W 8171   9.057   3.836   4.345 -0.0872 -0.1251  0.1083
 3972W        W 8172   4.445   3.752  12.041  0.0622 -0.1054  0.1414
 3973W        W 8173   5.590   7.716   1.986  0.1743  0.0372  0.3701
 3974W        W 8174   4.648   0.750   1.164  0.2346  0.0365  0.0367
 3975W        W 8175   9.931   5.355  12.327  0.1455  0.1685 -0.2352
 3976W        W 8176   5.601   0.934  12.699  0.0861 -0.5501  0.0539
 3977W        W 8177   1.072   4.541   1.942  0.0809  0.0127 -0.1540
 3978W        W 8178   6.444   0.285   1.049  0.4058  0.1728  0.3637
 3979W        W 8179   6.146   2.497   1.659  0.1254  0.0585 -0.3612
 3980W        W 8180   1.638   7.876  10.347 -0.3431 -0.0520 -0.0991
 3981W        W 8181   4.142   8.129  12.988 -0.0843 -0.2542  0.1433
 3982W        W 8182   6.420   6.567  13.015 -0.0766 -0.2657  0.2904
 3983W        W 8183   5.257   3.772   5.028  0.0137 -0.3026 -0.0201
 3984W        W 8184   0.457   4.315   1.106 -0.1295 -0.2494 -0.0296
 3985W        W 8185   0.503   5.557   9.967 -0.1290  0.0709  0.1199
 3986W        W 8186   5.325   3.501  10.389 -0.2437 -0.0259 -0.0306
 3987W        W 8187   8.853   2.543   2.131  0.0102 -0.2068  0.0500
 3988W        W 8188   4.174   2.103   5.502 -0.2831  0.0110 -0.1016
 3989W        W 8189   0.612   1.397   0.936 -0.0611 -0.1557 -0.1753
 3990W        W 8190   9.809   8.300   8.974 -0.0168 -0.0061  0.1467
 3991W        W 8191   9.419  10.471  12.731 -0.1203 -0.0273  0.3041
 3992W        W 8192   9.059   5.484   9.274 -0.1659  0.2906  0.2530
 3993W        W 8193   3.169   5.874  12.961 -0.1750  0.0777  0.0459
 3994W        W 8194   1.765   9.368  11.109  0.2040  0.2573  0.0909
 3995W        W 8195   5.204   5.501  11.390  0.0218 -0.1465  0.0390
 3996W        W 8196   2.527   0.450   0.683  0.0583  0.0042  0.2166
 3997W        W 8197   3.534   4.644   9.514 -0.2231  0.1212  0.2044
 3998W        W 8198   0.379   0.405   1.266 -0.0054 -0.0468 -0.4672
 3999W        W 8199   8.414   3.843   8.898  0.0625 -0.0598 -0.0821
 4000W        W 8200   6.668   6.848   0.910 -0.2355 -0.0618  0.3115
 4001W        W 8201   3.426   6.131   8.966 -0.3282  0.1977 -0.0534
 4002W        W 8202   0.162   6.059   4.287 -0.0864  0.2421  0.4048
 4003W        W 8203   8.942   8.900  10.860 -0.0523 -0.1975  0.0447
 4004W        W 8204   1.506   7.783   5.327 -0.1841  0.0243 -0.2883
 4005W        W 8205   2.550   1.771  11.148  0.0450  0.0594 -0.1812
 4006W        W 8206   4.686   3.378   8.622 -0.0175  0.1013  0.3678
 4007W        W 8207   1.354  10.325   0.588 -0.2026 -0.1771  0.1927
 4008W        W 8208   3.125   7.332   0.030  0.3011  0.1001 -0.1098
 4009W        W 8209   0.013   1.070  12.928  0.0187 -0.2230 -0.1132
 4010W        W 8210   0.451   5.942  11.364 -0.2172  0.0908 -0.0606
 4011W        W 8211   9.161  10.471  13.278 -0.4970  0.1369 -0.1989
 4012W        W 8212   3.906   0.019  11.203 -0.1480  0.1752 -0.1501
 4013W        W 8213   1.238   1.587  11.147  0.2556  0.1141  0.1945
 4014W        W 8214   2.518   9.889   9.373  0.1608 -0.1364 -0.0830
 4015W        W 8215   4.105   2.252   2.486  0.0315 -0.3824 -0.1213
 4016W        W 8216   1.550   7.919  11.824 -0.1126 -0.1736 -0.2569
 4017W        W 8217   2.504   1.711  13.339  0.1350  0.0432  0.3490
 4018W        W 8218   4.135   7.666  10.554  0.0608 -0.0545 -0.0264
 4019W        W 8219   3.034   3.819  11.585 -0.2253 -0.0020  0.0325
 4020W        W 8220   0.410   3.543  10.685  0.2418  0.4038  0.0697
 4021W        W 8221   4.819   2.370  11.208 -0.2191  0.0708 -0.0104
 4022W        W 8222   7.296   4.036  13.143 -0.0720 -0.1358 -0.0627
 4023W        W 8223   4.975   8.847  12.243 -0.0978 -0.1793  0.5918
 4024W        W 8224   4.460   4.259   2.254  0.0700  0.0241 -0.1037
 4025W        W 8225   3.911   3.965  10.646  0.1948 -0.0381  0.0059
 4026W        W 8226   9.882   6.807  11.392 -0.1629 -0.3069  0.1173
 4027W        W 8227   6.611   5.439  10.600  0.0936  0.2454 -0.0013
 4028W        W 8228   2.980   8.706  12.797 -0.1346 -0.2066  0.0741
 4029W        W 8229   3.453   6.495  10.852 -0.1151 -0.0651  0.0623
 4030W        W 8230   0.120   7.982   4.126 -0.0216 -0.0395 -0.0682
 4031W        W 8231   3.711   8.806  10.783  0.1617 -0.3710  0.1243
 4032W        W 8232   4.621   4.907  11.960  0.2121 -0.0844 -0.0253
 4033W        W 8233   2.666   4.942   1.876 -0.4674  0.0332  0.0319
 4034W        W 8234   6.881   4.146   2.468  0.2320  0.0829 -0.0511
 4035W        W 8235   1.008   8.686   8.989 -0.0633  0.1318  0.2771
 4036W        W 8236   9.189   1.888  10.180  0.1034  0.0625  0.0149
 4037W        W 8237   6.040   0.093   1.449 -0.0949 -0.0255 -0.0047
 4038W        W 8238   5.627   4.598  12.207  0.2225 -0.1844 -0.2332
 4039W        W 8239   9.069   2.967   3.813 -0.0082 -0.1272 -0.0002
 4040W        W 8240   4.022   3.336  10.437 -0.0286  0.0272  0.0492
 4041W        W 8241   7.929   5.743   9.746  0.0042 -0.0118  0.0588
 4042W        W 8242   3.218   3.360   8.236 -0.0718 -0.1030 -0.0024
 4043W        W 8243   1.251   8.678   2.926 -0.4440  0.1714  0.1898
 4044W        W 8244   1.501   8.308  10.540 -0.0773 -0.0850 -0.0963
 4045W        W 8245   4.376   7.792  13.313  0.3042  0.2236  0.1182
 4046W        W 8246   2.401   9.441   1.431 -0.2864  0.3236 -0.0515
 4047W        W 8247   2.605   6.555   8.589  0.0015  0.2744 -0.2310
 4048W        W 8248   5.196   5.128   0.727  0.0124 -0.1333 -0.1530
 4049W        W 8249   6.643   0.066   0.242  0.0562 -0.3153 -0.2067
 4050W        W 8250   2.404   4.590  12.322  0.3128 -0.0271  0.2573
 4051W        W 8251   2.376   6.089  12.993 -0.0290 -0.0093  0.1352
 4052W        W 8252   0.200   6.274   9.829 -0.0262  0.2544 -0.1275
 4053W        W 8253   3.364   8.932  12.436  0.0320 -0.1159 -0.0336
 4054W        W 8254   2.323   0.364  10.693  0.0800  0.1432 -0.0701
 4055W        W 8255   9.702   6.236  13.339 -0.2514 -0.0259 -0.2474
 4056W        W 8256   1.706   1.864   3.975  0.2937  0.0259 -0.1244
 4057W        W 8257   7.074   8.518   2.334 -0.2581 -0.1720 -0.1356
 4058W        W 8258   1.342   7.324   9.726  0.0537 -0.1216 -0.1267
 4059W        W 8259   1.548   7.837  10.877  0.4892 -0.0732  0.4040
 4060W        W 8260   4.788   8.440   3.657 -0.0382 -0.1305 -0.1553
 4061W        W 8261   3.427   1.057   1.227 -0.0142  0.2176 -0.0873
 4062W        W 8262   8.356   3.587  12.344 -0.0688 -0.0538 -0.0344
 4063W        W 8263   3.974   8.096   1.892  0.1841 -0.2586 -0.3909
 4064W        W 8264   6.604   1.427   0.929  0.1574 -0.2109 -0.3804
 4065W        W 8265   8.255   9.645  11.618 -0.2335 -0.2832 -0.0108
 4066W        W 8266   0.296  10.186   0.564  0.1013 -0.0662  0.3437
 4067W        W 8267   5.999   4.271   9.828  0.2331  0.0974  0.0203
 4068W        W 8268   3.223   8.032   3.687  0.2074  0.2870  0.0498
 4069W        W 8269  10.356   0.205   9.304 -0.2557  0.1619 -0.0491
 4070W        W 8270   2.333   6.320   9.747  0.1733 -0.3149  0.1994
 4071W        W 8271   5.976   9.484  13.432  0.1219 -0.4482  0.0757
 4072W        W 8272   2.488   0.798   3.192  0.2107 -0.3687 -0.1079
 4073W        W 8273   1.862   4.721   4.352  0.0039  0.2340 -0.2309
 4074W        W 8274   8.123   4.361   0.633  0.0895  0.1552 -0.0319
 4075W        W 8275   4.061   9.719  12.579 -0.1589  0.0813  0.0058
 4076W        W 8276  10.232   0.945   1.474 -0.0325  0.0584  0.0210
 4077W        W 8277   9.682   5.864  11.441  0.0467 -0.0004 -0.1571
 4078W        W 8278   2.053   0.068   4.039 -0.2469 -0.0683 -0.0215
 4079W        W 8279   3.892   7.227   0.536 -0.0183  0.0107  0.2094
 4080W        W 8280   6.789   1.228  12.265 -0.3757 -0.2032 -0.2053
 4081W        W 8281   4.116   8.994   4.174 -0.0912  0.0589 -0.0151
 4082W        W 8282   5.270   1.894   1.444 -0.0842  0.4352 -0.2865
 4083W        W 8283   8.983   4.403   8.535  0.0401  0.0874  0.0120
 4084W        W 8284   2.023   7.444   0.523 -0.0802 -0.1846 -0.1421
 4085W        W 8285   9.903   4.517   9.912  0.0426  0.0966  0.2276
 4086W        W 8286   0.610   0.849   1.053  0.0356  0.3888 -0.0186
 4087W        W 8287   1.055   9.806   1.093  0.1934  0.0354 -0.0747
 4088W        W 8288   8.830   3.322  12.408 -0.1347  0.1293  0.0064
 4089W        W 8289   4.941   5.175   1.368  0.1761  0.0294 -0.1144
 4090W        W 8290   8.057   1.256   3.537 -0.0805  0.1521  0.1874
 4091W        W 8291   3.163   6.511  11.301 -0.1237  0.1608  0.2423
 4092W        W 8292   7.126   9.006  11.003  0.0801  0.0062 -0.0276
 4093W        W 8293   7.087   6.839   8.499 -0.3049 -0.0141 -0.1095
 4094W        W 8294   7.353   3.918  10.895 -0.3304 -0.1477 -0.2626
 4095W        W 8295   9.032   8.596  11.398 -0.0226  0.2519 -0.3048
 4096W        W 8296   6.746   6.881   0.393  0.0729 -0.1645  0.1212
 4097W        W 8297   2.493   2.583   1.343  0.0635  0.1671  0.1029
 4098W        W 8298   4.041   1.474   1.202 -0.1830 -0.0720  0.1181
 4099W        W 8299  10.254  10.287  13.278 -0.1382  0.0838  0.2354
 4100W        W 8300   6.933   4.344   4.766  0.1446 -0.2634  0.0072
 4101W        W 8301   2.573   6.724  13.021 -0.3270 -0.3476 -0.0049
 4102W        W 8302   7.659   6.830  10.568 -0.1431 -0.2211 -0.0739
 4103W        W 8303   6.229   8.504   1.056  0.1356  0.0093  0.1608
 4104W        W 8304   1.337   6.105  11.642 -0.0842 -0.1264  0.0757
 4105W        W 8305   1.761   5.943   9.811  0.0091 -0.1886  0.2383
 4106W        W 8306   1.311   1.433  11.732  0.1208 -0.0697 -0.2054
 4107W        W 8307   5.872   1.495  10.460  0.0889  0.1994  0.2357
 4108W        W 8308   2.607   1.154  11.565  0.3341 -0.2460  0.4011
 4109W        W 8309   5.066   1.502  12.867  0.2391  0.2285  0.0750
 4110W        W 8310   9.223   4.182   3.258  0.3519  0.1709  0.1072
 4111W        W 8311   3.568   7.823   9.706  0.0175  0.2827  0.1241
 4112W        W 8312   7.696   2.631  12.020 -0.1987  0.0762 -0.1962
 4113W        W 8313   7.033   7.709   2.090 -0.1661  0.0929 -0.0608
 4114W        W 8314  10.394   2.340  10.134  0.0875  0.0214 -0.1600
 4115W        W 8315   0.604   7.211  11.265  0.2069 -0.4489 -0.0865
 4116W        W 8316   1.621   8.234  12.227 -0.0196 -0.0678  0.3408
 4117W        W 8317   2.997   5.387  11.848 -0.4384  0.2235 -0.0386
 4118W        W 8318   4.654   1.065   2.875 -0.0217 -0.0747 -0.2170
 4119W        W 8319   6.564   4.410   1.730  0.0867  0.0761 -0.1151
 4120W        W 8320   6.959   1.156   1.101  0.0642  0.0453 -0.1854
 4121W        W 8321   0.970   0.821   2.822  0.1167  0.2344  0.1407
 4122W        W 8322   2.777   6.577   3.596 -0.3563 -0.0874 -0.0059
 4123W        W 8323   4.153   8.290   1.178  0.0624 -0.1456 -0.0410
 4124W        W 8324   8.325   2.247  10.668 -0.1452  0.1809  0.2358
 4125W        W 8325  10.189   7.998  10.623 -0.0258 -0.0284 -0.4444
 4126W        W 8326   1.868   0.649   0.177  0.2880 -0.0524 -0.0243
 4127W        W 8327   2.838   6.283  13.116  0.2692  0.1002 -0.1615
 4128W        W 8328   8.715   7.843  12.227 -0.4950 -0.0372 -0.0817
 4129W        W 8329   4.780   1.441   9.693  0.0440  0.1415 -0.3168
 4130W        W 8330   3.013   2.640   3.671  0.2252 -0.0408 -0.0846
 4131W        W 8331   8.849   9.300  12.021 -0.3302 -0.1776 -0.0833
 4132W        W 8332   1.308   3.964  11.743 -0.1722  0.0072 -0.1288
 4133W        W 8333   6.208   3.598   4.703  0.3397 -0.0944 -0.0186
 4134W        W 8334   6.165   3.497   9.195  0.1621  0.1794 -0.1691
 4135W        W 8335   9.437   6.014   0.276  0.1612 -0.1931  0.1739
 4136W        W 8336   6.115   9.066   2.446  0.1764 -0.2726 -0.1188
 4137W        W 8337   9.550   1.897  11.913  0.0880 -0.3704 -0.1044
 4138W        W 8338   4.575   3.751  10.383 -0.0829 -0.0422  0.0041
 4139W        W 8339   5.240   2.827   3.177 -0.0154  0.3944 -0.0568
 4140W        W 8340   2.725   4.672   3.295 -0.2282  0.1412  0.1420
 4141W        W 8341   7.850   7.515   1.294 -0.3879  0.3148 -0.1598
 4142W        W 8342   7.299   3.967   1.734 -0.1207  0.1221  0.1071
 4143W        W 8343   7.474   2.172   0.046  0.1047 -0.1018 -0.1212
 4144W        W 8344   9.574   2.133   1.164  0.1080  0.0416 -0.0475
 4145W        W 8345   0.019   4.226   3.605 -0.0902  0.0438  0.0596
 4146W        W 8346   6.060   0.932   9.751 -0.3135 -0.0721 -0.0735
 4147W        W 8347   3.536   3.530   1.507  0.0390  0.0408 -0.0582
 4148W        W 8348   2.656  10.104   1.927  0.2547  0.1135 -0.2013
 4149W        W 8349   1.766   4.390   8.694  0.1376  0.3348 -0.0764
 4150W        W 8350   2.498   3.736  10.300 -0.0267 -0.3119  0.0285
 4151W        W 8351   8.740   5.285   3.087  0.0279 -0.0147 -0.0717
 4152W        W 8352  10.032   2.368  10.481 -0.0277  0.3942 -0.0742
 4153W        W 8353   1.813   2.686   1.960  0.1931  0.1411  0.0045
 4154W        W 8354   6.900   9.707   3.977 -0.2057  0.2311  0.0715
 4155W        W 8355   4.744   7.228   4.247  0.0862 -0.3328 -0.0369
 4156W        W 8356   4.671   0.833   2.443  0.1397  0.0725  0.0348
 4157W        W 8357   7.995   5.720   9.218  0.1033  0.1286  0.0758
 4158W        W 8358   3.727   3.328  11.361 -0.3745  0.0637  0.1471
 4159W        W 8359   1.617   3.756   2.315 -0.0665  0.0105 -0.2040
 4160W        W 8360  10.225   9.516  11.751  0.0263  0.1549 -0.5109
 4161W        W 8361   6.873   7.731   0.678 -0.0330 -0.1735  0.0960
 4162W        W 8362   9.775   8.814   9.780  0.0313  0.3863  0.1637
 4163W        W 8363   3.267   6.837   9.431  0.2299  0.0103 -0.1708
 4164W        W 8364   6.241   1.081   8.545  0.1458 -0.0169 -0.3028
 4165W        W 8365   2.749   6.111  10.347  0.1332  0.0779 -0.2731
 4166W        W 8366   9.248   3.597   9.249 -0.0195 -0.0267  0.1393
 4167W        W 8367   5.386   5.991   0.609 -0.1495 -0.1276 -0.1128
 4168W        W 8368   7.832   4.273   9.926 -0.1511  0.2760 -0.0823
 4169W        W 8369   0.985   6.572   1.729 -0.1922  0.0598  0.0318
 4170W        W 8370   4.201   0.429   2.493 -0.2397 -0.0166  0.1355
 4171W        W 8371   9.730   2.941   4.629 -0.1419 -0.1061  0.3892
 4172W        W 8372   2.926   1.585  10.835  0.0357  0.0324  0.1278
 4173W        W 8373   1.111   5.168  12.593 -0.0240 -0.0744  0.0378
 4174W        W 8374   3.503   2.431  10.510 -0.1217 -0.0548 -0.5218
 4175W        W 8375   7.798   7.108   2.365  0.2385  0.5960  0.3310
 4176W        W 8376   2.178   6.053   4.813  0.2547 -0.1199 -0.1928
 4177W        W 8377   8.570   2.255  11.201  0.2797  0.1894  0.4085
 4178W        W 8378   4.696   5.985   9.689  0.0636 -0.0338  0.2151
 4179W        W 8379   4.110   2.514  11.803 -0.0307  0.4515 -0.0358
 4180W        W 8380   5.855   7.526   1.067  0.0818  0.0763  0.0669
 4181W        W 8381   2.549   3.000  11.967 -0.1021 -0.3173  0.1736
 4182W        W 8382   1.330   5.559   4.787  0.2068 -0.3058  0.0895
 4183W        W 8383  10.059   8.773   0.604 -0.0675 -0.3535  0.1045
 4184W        W 8384   8.140   2.447  11.148 -0.3687  0.1005 -0.1916
 4185W        W 8385   1.894   6.202  10.228 -0.1740  0.0377 -0.0956
 4186W        W 8386   0.828   4.063   1.346 -0.1587 -0.0954 -0.1710
 4187W        W 8387   5.750   4.003   3.038 -0.0994 -0.2797 -0.2821
 4188W        W 8388   7.146   6.572   4.520  0.0369 -0.2612 -0.0362
 4189W        W 8389   3.202   6.623   4.238 -0.1195  0.1439 -0.0415
 4190W        W 8390   5.431   9.990  12.540  0.2790 -0.1500 -0.0670
 4191W        W 8391   5.023   0.878  10.628  0.0526 -0.2157 -0.0390
 4192W        W 8392   3.447   6.833  13.402 -0.0185 -0.0533 -0.1035
 4193W        W 8393  10.010   4.983   1.581  0.2268  0.3638  0.2537
 4194W        W 8394   3.856   1.774  12.058 -0.0387  0.0992 -0.0673
 4195W        W 8395   6.256   5.673   9.923  0.0560  0.3365 -0.3698
 4196W        W 8396   2.872   6.725   0.854 -0.3823  0.1198  0.1207
 4197W        W 8397   1.151   2.325  12.343  0.0097 -0.0849  0.0945
 4198W        W 8398   0.919   1.202   3.715  0.3137  0.0897 -0.0809
 4199W        W 8399   8.111   9.936  12.448 -0.1129  0.1644 -0.0239
 4200W        W 8400   0.494   5.311   1.589  0.2570  0.1257  0.2123
 4201W        W 8401   8.350   1.771   3.630  0.1808  0.0239  0.0765
 4202W        W 8402   6.470   7.621   8.737 -0.1229 -0.0164 -0.0613
 4203W        W 8403   4.460   3.280   0.451 -0.0100  0.0246  0.3339
 4204W        W 8404   9.917   7.742   3.579 -0.0564  0.0303 -0.0110
 4205W        W 8405   7.805   3.494  10.904 -0.3132 -0.1223 -0.2269
 4206W        W 8406   3.981   6.181   3.739  0.2989 -0.2454  0.0881
 4207W        W 8407   4.918   8.328   1.509  0.3454  0.2638  0.0611
 4208W        W 8408   4.353   6.449   1.044  0.1577 -0.2336 -0.1335
 4209W        W 8409   4.173   5.127  12.148 -0.3252 -0.2822 -0.0566
 4210W        W 8410   4.520   3.834   9.859 -0.1795  0.4804 -0.2943
 4211W        W 8411   9.184   4.356  12.314  0.4165  0.3213  0.1868
 4212W        W 8412   9.128   3.405   3.973 -0.1876 -0.1697 -0.0877
 4213W        W 8413   7.139   7.538   1.104  0.0920 -0.1259  0.0239
 4214W        W 8414   9.453   2.075  11.356 -0.0198  0.0752 -0.0760
 4215W        W 8415   6.047   0.306   4.204 -0.0912  0.2018  0.1108
 4216W        W 8416   2.550   8.704   3.394 -0.0661 -0.1395  0.1443
 4217W        W 8417   8.847   1.888   2.275  0.1293 -0.4250 -0.1260
 4218W        W 8418   1.126   9.947   1.724 -0.1947 -0.0275  0.2291
 4219W        W 8419   9.043   7.883   2.493  0.0698  0.0602  0.0140
 4220W        W 8420   7.668   8.711   3.030  0.2398 -0.1378  0.0940
 4221W        W 8421   0.528   5.828   0.053 -0.1713  0.0321  0.2057
 4222W        W 8422  10.299  10.115  10.519  0.3809 -0.0052 -0.1427
 4223W        W 8423   1.252   4.850   9.194  0.1058 -0.3506 -0.0692
 4224W        W 8424   4.177   2.309   5.045  0.2967  0.3058 -0.3245
 4225W        W 8425   4.753   0.362   3.950 -0.0676  0.2482 -0.0078
 4226W        W 8426   2.715   8.335   2.417 -0.3680  0.0804 -0.1345
 4227W        W 8427   5.920  10.229  10.856 -0.1620 -0.1946 -0.0674
 4228W        W 8428   9.435   1.858   3.373 -0.2716 -0.1449 -0.3790
 4229W        W 8429   4.779   1.477   2.393  0.0972  0.1824  0.0448
 4230W        W 8430   7.096   6.001   2.269 -0.2881 -0.2523  0.2050
 4231W        W 8431   2.489   0.381   4.128  0.0047  0.0520  0.0879
 4232W        W 8432   3.017   9.857  12.745 -0.1809 -0.1329  0.2761
 4233W        W 8433   8.083   8.305   2.772 -0.1458 -0.0920 -0.1937
 4234W        W 8434   0.434   7.123   2.992 -0.0653  0.1871 -0.0214
 4235W        W 8435   2.695   7.383  12.313 -0.0359  0.3083  0.0828
 4236W        W 8436   1.566   2.889  11.921 -0.1286 -0.0351 -0.1160
 4237W        W 8437   5.645   3.458   8.923  0.2122  0.3125  0.1335
 4238W        W 8438  10.166   4.002   2.523 -0.0916  0.0042  0.1701
 4239W        W 8439   2.301  10.101   0.908  0.0291  0.0625 -0.2572
 4240W        W 8440   3.015   7.325  10.201  0.2506  0.1499 -0.0203
 4241W        W 8441   5.268  10.114   2.696  0.2748  0.1620  0.2844
 4242W        W 8442   3.496   5.257   1.677  0.0743 -0.0838  0.1403
 4243W        W 8443   3.004   6.835  12.184  0.2638  0.0747 -0.1515
 4244W        W 8444   5.146   4.604   4.559 -0.1331  0.2202  0.0444
 4245W        W 8445   6.059  10.241   3.231  0.1817 -0.0303  0.1301
 4246W        W 8446   9.216   4.993   4.793 -0.0966  0.1558 -0.2674
 4247W        W 8447   7.473   0.422   0.616 -0.2344 -0.2935 -0.0176
 4248W        W 8448   9.139   8.284  13.103  0.0521  0.2831 -0.2449
 4249W        W 8449   1.870   8.831   1.236  0.3022 -0.4287  0.2083
 4250W        W 8450   9.773   2.158  13.288 -0.4020  0.3957 -0.0430
 4251W        W 8451   0.215   7.585  10.382  0.3232 -0.1559 -0.2105
 4252W        W 8452   7.115   1.348  12.673  0.0177 -0.0059  0.0649
 4253W        W 8453   2.422   6.402   9.186  0.0909 -0.1477  0.2581
 4254W        W 8454   1.828   8.553   0.853 -0.0709 -0.0121 -0.0614
 4255W        W 8455   8.343   3.067  12.395 -0.0672  0.1779  0.2203
 4256W        W 8456   0.274   7.546   9.307  0.0641  0.1519  0.1882
 4257W        W 8457   0.640   2.400  12.605  0.1248 -0.0269  0.2011
 4258W        W 8458   3.386   8.913   5.441 -0.2221  0.0531 -0.0029
 4259W        W 8459   2.929   8.102   0.257 -0.3189 -0.1393 -0.1073
 4260W        W 8460   2.524   5.627  10.517  0.0143 -0.0883 -0.0497
 4261W        W 8461   6.780   1.601   3.860 -0.0722 -0.0014  0.0983
 4262W        W 8462   1.069   3.630   0.923 -0.3265 -0.5158  0.1019
 4263W        W 8463   0.129   3.990   0.843  0.1228  0.1763 -0.0304
 4264W        W 8464   5.416  10.315   2.250  0.2163 -0.1181  0.1571
 4265W        W 8465   1.311   3.933   4.380 -0.0035  0.2164  0.0693
 4266W        W 8466   8.160   7.116   0.820  0.3830  0.2017 -0.2919
 4267W        W 8467   9.865   5.310  13.252  0.0596 -0.2773  0.1878
 4268W        W 8468  10.141   2.644   0.402 -0.1562 -0.1226 -0.0868
 4269W        W 8469   4.800   8.719  12.692  0.2413 -0.0662 -0.1200
 4270W        W 8470   8.871   0.819  12.813 -0.0178  0.0201 -0.1889
 4271W        W 8471   2.761   6.891   0.088  0.2410 -0.3835  0.0334
 4272W        W 8472   1.125   1.549   0.300 -0.0904 -0.1546 -0.1881
 4273W        W 8473   3.776   9.580   2.696  0.1232 -0.0576  0.0221
 4274W        W 8474   2.081   8.745   3.444 -0.0693  0.2385  0.1944
 4275W        W 8475   0.055   4.698   9.134 -0.1136  0.3054  0.4939
 4276W        W 8476   2.224   5.858   3.231  0.1292  0.0684  0.1148
 4277W        W 8477   9.632   3.717   3.196 -0.0133 -0.2161 -0.1186
 4278W        W 8478   2.892   8.100  11.621  0.0044 -0.1846  0.0849
 4279W        W 8479   9.638   6.645  10.962 -0.0318  0.1155 -0.3496
 4280W        W 8480   5.301   4.991  11.303  0.2278 -0.3353 -0.1120
 4281W        W 8481   2.524   8.288  10.507  0.0621  0.1630 -0.1695
 4282W        W 8482   1.473   3.106   5.156 -0.2059  0.1249 -0.3307
 4283W        W 8483   7.614   5.415  12.598  0.3022 -0.1153 -0.0320
 4284W        W 8484   1.107   0.460  11.512  0.1205  0.2107  0.1341
 4285W        W 8485   6.705   4.981  10.860 -0.1010  0.0048  0.4191
 4286W        W 8486   0.792   7.289  12.782  0.4013 -0.0878 -0.1403
 4287W        W 8487   2.268   4.296   2.702  0.1094  0.0340  0.0315
 4288W        W 8488   8.500   4.670   0.560  0.2679  0.0359  0.0248
 4289W        W 8489   2.434   0.243   1.910  0.2048 -0.0690  0.0060
 4290W        W 8490   3.125   3.914  11.092 -0.0641  0.1658  0.0913
 4291W        W 8491   0.765   8.280   2.376  0.1870 -0.0943  0.1091
 4292W        W 8492   5.531   4.200  12.619  0.1575 -0.0294  0.1344
 4293W        W 8493   9.159   6.421  12.831 -0.0666 -0.0900 -0.0450
 4294W        W 8494   0.656  10.234  10.638  0.1618 -0.1456 -0.0614
 4295W        W 8495   4.779   2.968   9.892  0.0048  0.1660 -0.1002
 4296W        W 8496   9.627   8.442   3.375  0.0110 -0.0332 -0.2251
 4297W        W 8497   5.474   6.223  10.779 -0.0738  0.0030 -0.0660
 4298W        W 8498   5.216   5.425   4.027 -0.1064  0.1018  0.1782
 4299W        W 8499   7.437   4.998  13.303  0.0759  0.2572  0.0084
 4300W        W 8500   0.722   1.381  13.079 -0.0043 -0.2174 -0.2098
 4301W        W 8501   8.379   8.848  10.281  0.1204  0.0087 -0.0202
 4302W        W 8502   5.806   7.180  11.203 -0.0300  0.2914  0.0332
 4303W        W 8503   5.211   8.363   8.950  0.0026 -0.0469 -0.1914
 4304W        W 8504   9.032   6.108   2.850 -0.0519 -0.1971 -0.0833
 4305W        W 8505   2.790   0.786  11.245  0.0507  0.0523  0.0297
 4306W        W 8506   8.284   3.651  11.008  0.0346  0.0079  0.0656
 4307W        W 8507   3.110   8.226  12.993  0.1949 -0.0464  0.0842
 4308W        W 8508   5.943   7.228   2.341  0.0710 -0.0410  0.0834
 4309W        W 8509   5.632   3.572  11.274  0.0868 -0.0387  0.1249
 4310W        W 8510   5.783   7.799   9.484 -0.2802  0.0722  0.1282
 4311W        W 8511   4.494   5.683  10.077  0.0920 -0.0327  0.0442
 4312W        W 8512   1.128   9.887   5.006  0.3146 -0.3569  0.0894
 4313W        W 8513   4.279   1.047   3.315  0.1380 -0.1827 -0.0087
 4314W        W 8514   2.793   0.306   0.218 -0.1778  0.1134 -0.0436
 4315W        W 8515   4.282   1.297   2.353 -0.0839 -0.1307 -0.0975
 4316W        W 8516   9.237  10.206   0.836  0.2593 -0.2142 -0.2391
 4317W        W 8517   9.328   0.538   1.658 -0.0695  0.0077 -0.2695
 4318W        W 8518  10.088   8.636   1.412 -0.1919  0.2864  0.0742
 4319W        W 8519   2.940   3.685   1.244 -0.1203  0.4712  0.0877
 4320W        W 8520   3.837   0.124   1.465  0.1397 -0.0688 -0.0185
 4321W        W 8521   9.729   7.540   4.273 -0.3042 -0.0115 -0.3207
 4322W        W 8522   6.877   4.096  13.459 -0.0426  0.0948  0.0148
 4323W        W 8523   0.170   7.696   0.365 -0.0153  0.0756  0.4593
 4324W        W 8524   4.823   4.130  11.490  0.1483  0.3143 -0.1560
 4325W        W 8525   7.372   9.309  13.377 -0.2694  0.1659 -0.2708
 4326W        W 8526   5.111   4.764   4.050 -0.0019  0.0633  0.1622
 4327W        W 8527   1.206   8.040   0.035  0.3932  0.0553  0.1540
 4328W        W 8528   3.265   6.280  12.629 -0.1095  0.0030  0.0213
 4329W        W 8529   4.468  10.285   2.105 -0.3109  0.1014  0.2016
 4330W        W 8530   9.016   4.562   0.599  0.3519  0.1314 -0.1715
 4331W        W 8531   6.704   5.718  10.200 -0.0813  0.0424  0.0143
 4332W        W 8532   7.320   2.577  11.025  0.1687 -0.0455  0.0768
 4333W        W 8533   4.665  10.447   4.300  0.0540 -0.0222  0.1994
 4334W        W 8534   9.604   5.351   4.869 -0.1211  0.1253 -0.1272
 4335W        W 8535   2.078   7.603  10.470  0.1655 -0.0330  0.3535
 4336W        W 8536   6.197   7.388   5.016  0.1347 -0.0243 -0.0648
 4337W        W 8537   1.610   6.900   8.916  0.1469 -0.0568  0.0643
 4338W        W 8538   8.924   0.314   0.188  0.1511  0.1822 -0.2291
 4339W        W 8539   5.157   7.556   5.238 -0.0656 -0.1865  0.1096
 4340W        W 8540   3.448   3.160  11.749 -0.0419  0.0143 -0.1283
 4341W        W 8541   8.448   6.690  10.153  0.0749  0.3305 -0.3166
 4342W        W 8542   6.609   2.243   3.244 -0.0500  0.0196  0.3561
 4343W        W 8543   8.409   6.124   3.439 -0.0492  0.1193  0.1767
 4344W        W 8544   7.214   5.063   0.397  0.0199 -0.0199  0.0785
 4345W        W 8545  10.205   3.767   8.947 -0.2075 -0.1995 -0.2945
 4346W        W 8546   1.376   1.145   0.508  0.0433 -0.1129  0.0830
 4347W        W 8547   8.497   3.038  10.110 -0.3473  0.1150 -0.1412
 4348W        W 8548   0.004   9.051   3.443  0.1762 -0.1446 -0.2959
 4349W        W 8549   0.735   6.425   0.717 -0.0386 -0.0646  0.1676
 4350W        W 8550   2.401   3.983   4.938  0.2353 -0.0380 -0.0952
 4351W        W 8551   5.074   9.007   2.117 -0.0702  0.2273 -0.0205
 4352W        W 8552   5.386   4.341  10.440  0.4126 -0.0592 -0.1105
 4353W        W 8553   2.853   2.951   1.283 -0.1599 -0.0358 -0.4604
 4354W        W 8554   5.727   2.968   3.312 -0.2361  0.2077 -0.3858
 4355W        W 8555   1.165   5.971  12.058 -0.1093  0.0334  0.0269
 4356W        W 8556   8.770   6.837  12.972  0.1032 -0.0521  0.1319
 4357W        W 8557   5.130   6.914   2.258 -0.0365 -0.1630  0.0194
 4358W        W 8558   8.916   8.799  10.326  0.3599  0.2138  0.0299
 4359W        W 8559   0.618   9.917   0.907 -0.1614 -0.1838 -0.0772
 4360W        W 8560   1.072   6.111   9.761  0.0665  0.3103 -0.2187
 4361W        W 8561   9.948   8.691   4.274 -0.4250  0.0208  0.5388
 4362W        W 8562   6.236   0.748  11.050  0.3440 -0.0830  0.4168
 4363W        W 8563   0.237   8.958   4.387 -0.0205  0.0007 -0.1134
 4364W        W 8564   6.630   5.384  12.669 -0.0188  0.3351 -0.2516
 4365W        W 8565   6.754   0.353  10.630  0.2297 -0.1430 -0.2993
 4366W        W 8566   4.330   6.009   4.144  0.1943  0.0014  0.1375
 4367W        W 8567   4.060   4.964  10.270 -0.0389 -0.0552 -0.1305
 4368W        W 8568   0.240   1.817   0.836  0.0537  0.3168  0.1510
 4369W        W 8569   2.485   5.057  12.671 -0.2542  0.0133 -0.2701
 4370W        W 8570   0.797   2.946   0.959 -0.1455  0.2069 -0.0495
 4371W        W 8571   2.978   9.019  13.265 -0.1221  0.1405 -0.1642
 4372W        W 8572   1.112   0.007   9.898  0.0226 -0.0680 -0.0031
 4373W        W 8573   4.385   1.809   5.102 -0.3444 -0.1616  0.2151
 4374W        W 8574   0.895   1.633  10.348 -0.0080 -0.0350  0.2860
 4375W        W 8575   1.591   1.197   2.819 -0.3367  0.1125 -0.1413
 4376W        W 8576   6.735   5.719   3.012 -0.3161 -0.1463  0.0841
 4377W        W 8577  10.460   7.421   2.971  0.0447  0.1332 -0.0394
 4378W        W 8578   3.656   4.706  13.017  0.3057  0.0475 -0.0507
 4379W        W 8579   5.460   3.479   2.555 -0.0061 -0.1031 -0.0353
 4380W        W 8580   8.757   2.014   0.613 -0.0751  0.2697  0.2768
 4381W        W 8581   8.024   9.044   2.971 -0.1206  0.0635 -0.1036
 4382W        W 8582   9.132   5.914  10.308 -0.1700  0.0653  0.0520
 4383W        W 8583   9.735   4.402   4.299 -0.0014 -0.2714 -0.1508
 4384W        W 8584   4.515   0.974  12.033  0.3626 -0.2863 -0.0966
 4385W        W 8585   7.307   0.672   3.078 -0.1936  0.3591 -0.0552
 4386W        W 8586   8.467  10.340   0.190  0.1108  0.0862  0.1181
 4387W        W 8587   3.118   3.350  13.263 -0.2174 -0.1723  0.0177
 4388W        W 8588   9.099   7.449   9.229  0.0731  0.1974  0.1283
 4389W        W 8589  10.125   3.318   9.723  0.2750  0.2531  0.1261
 4390W        W 8590   3.543   0.834  10.130 -0.0512 -0.2213 -0.3884
 4391W        W 8591   0.595   0.111   1.651  0.0378  0.4756 -0.0533
 4392W        W 8592   8.385   3.685   4.617 -0.1460 -0.0266  0.0742
 4393W        W 8593   4.240   6.679   0.444  0.1341 -0.3488 -0.1211
 4394W        W 8594   5.588   9.496   3.109  0.1916  0.2554 -0.1544
 4395W        W 8595   0.245   3.559   1.122 -0.4285  0.1346 -0.1291
 4396W        W 8596   3.258   3.875  10.579 -0.0755 -0.1760  0.2236
 4397W        W 8597   9.116   3.633  12.630 -0.3839  0.0102 -0.0840
 4398W        W 8598   2.064   9.074  10.761 -0.0863 -0.2229 -0.0804
 4399W        W 8599   6.995   5.492   5.369 -0.0512 -0.1847 -0.1735
 4400W        W 8600   7.847   2.028  12.632  0.0654 -0.2255  0.1587
 4401W        W 8601   4.149   2.855   3.151 -0.0030  0.1180  0.1678
 4402W        W 8602   5.198   3.552   3.825  0.1944 -0.0673 -0.0187
 4403W        W 8603   0.628   0.321   3.484  0.0816 -0.3224  0.1746
 4404W        W 8604   2.632   9.090   1.700  0.3267  0.1256  0.0653
 4405W        W 8605   8.399   3.138  12.936 -0.0794 -0.0282 -0.2368
 4406W        W 8606   2.766   0.555  10.647 -0.1290  0.0287 -0.2318
 4407W        W 8607   5.742   7.103   2.860  0.3188  0.0526 -0.2578
 4408W        W 8608   4.396  10.245  13.055  0.0544 -0.0340  0.2222
 4409W        W 8609   0.874   4.536   9.995  0.0184  0.0247 -0.1729
 4410W        W 8610   8.731   1.122   2.919  0.6139  0.0042 -0.1732
 4411W        W 8611  10.373   7.630  10.930 -0.0147 -0.1172 -0.0940
 4412W        W 8612   7.216   3.048   9.609 -0.0430 -0.1903  0.0279
 4413W        W 8613   7.481   5.015  10.086  0.1254  0.0702 -0.2378
 4414W        W 8614  10.382   3.828  12.991 -0.0469 -0.0762  0.2978
 4415W        W 8615   1.687   0.775   1.022 -0.2270 -0.1979  0.0271
 4416W        W 8616   5.040   7.477   9.103 -0.4113 -0.1719 -0.3192
 4417W        W 8617   1.983   2.420   1.499 -0.3733  0.2567  0.0225
 4418W        W 8618  10.205   9.357   9.013  0.0864 -0.0301  0.1657
 4419W        W 8619   4.958  10.361   3.942 -0.1445  0.1489 -0.1586
 4420W        W 8620   4.711   0.508   9.506 -0.1395  0.2096  0.1405
 4421W        W 8621   0.570   6.853   0.001 -0.3159 -0.0236 -0.2192
 4422W        W 8622   3.839   1.443  13.150 -0.2269 -0.2626  0.1224
 4423W        W 8623   9.035   4.095  12.709  0.0573 -0.0303 -0.2990
 4424W        W 8624   6.148   6.777  11.967 -0.2255 -0.1821  0.2732
 4425W        W 8625   5.991   6.071  10.619 -0.2334 -0.1110  0.2319
 4426W        W 8626   3.036   1.367   1.269 -0.0797  0.3789  0.1992
 4427W        W 8627   5.372   3.060   0.791  0.2155 -0.0440  0.3235
 4428W        W 8628   8.645   4.717   3.951  0.4493  0.3386  0.0335
 4429W        W 8629   1.358   0.077   3.408 -0.1280  0.0596  0.2737
 4430W        W 8630   1.268   2.704  11.573  0.0734  0.1824  0.2013
 4431W        W 8631   3.741   1.106   4.807 -0.1592 -0.0036  0.1804
 4432W        W 8632   7.291   8.949   0.397  0.0978  0.0532 -0.2194
 4433W        W 8633   4.204   9.111   9.093  0.1640 -0.0760 -0.1255
 4434W        W 8634   9.725   4.682   1.915 -0.2238 -0.2438  0.2095
 4435W        W 8635   9.506   6.434  11.436  0.2042 -0.0976 -0.1507
 4436W        W 8636   8.627   8.801  12.392  0.4841 -0.1565 -0.1658
 4437W        W 8637   3.875   3.602   8.401  0.1805 -0.2911  0.1913
 4438W        W 8638   4.030   1.248  11.492 -0.1900  0.3062 -0.0403
 4439W        W 8639   0.892   0.264   9.251 -0.1758  0.0725 -0.2156
 4440W        W 8640   6.000   3.224  10.607 -0.0958 -0.0130  0.0225
 4441W        W 8641   5.685   9.620  10.981  0.0374 -0.0660 -0.0678
 4442W        W 8642   7.764   6.580   2.331 -0.1220 -0.1681 -0.0225
 4443W        W 8643   3.501   0.240  11.433  0.1177 -0.1102  0.3591
 4444W        W 8644   8.460   6.694   0.838  0.5444  0.1114  0.0283
 4445W        W 8645   8.602   8.402   1.466 -0.1012 -0.1159  0.5466
 4446W        W 8646   3.938   4.485   1.009 -0.1785 -0.2885  0.0284
 4447W        W 8647   2.255   4.307  11.669  0.2916  0.0064  0.1296
 4448W        W 8648   3.541   6.236   2.022 -0.0415 -0.1062 -0.0774
 4449W        W 8649   4.571   0.559  10.029  0.0243  0.2334 -0.0458
 4450W        W 8650   9.084   4.787   3.027 -0.1978  0.1150  0.1145
 4451W        W 8651   4.041   3.840  10.138 -0.1883  0.0689 -0.1193
 4452W        W 8652   8.971  10.059   2.043 -0.0160 -0.0852 -0.0417
 4453W        W 8653   3.023   4.677  12.830  0.0473 -0.1786 -0.2268
 4454W        W 8654   1.920   4.917   0.863  0.1981  0.1106 -0.4046
 4455W        W 8655   2.999   9.492  13.125  0.1492  0.1128  0.3921
 4456W        W 8656   6.471   7.304   3.656  0.0362  0.1237 -0.0031
 4457W        W 8657   5.631   4.854   0.570  0.2510  0.0875 -0.0601
 4458W        W 8658   0.889   7.694  13.176  0.0596 -0.0265 -0.0746
 4459W        W 8659   4.209   2.812   3.791  0.1464  0.2851 -0.3092
 4460W        W 8660   3.399   6.623   8.964 -0.1073  0.0812 -0.1734
 4461W        W 8661   6.265   0.098   3.725 -0.0397  0.0522  0.0178
 4462W        W 8662   1.745   3.930  13.040 -0.0651 -0.0852 -0.0704
 4463W        W 8663   7.037   3.039  10.850 -0.1715 -0.3343 -0.0070
 4464W        W 8664   5.482   1.679   3.888  0.3814 -0.2067  0.3378
 4465W        W 8665  10.114   2.583  12.447 -0.1989  0.2778  0.0192
 4466W        W 8666   9.597   5.204   9.730  0.0137  0.2467  0.1101
 4467W        W 8667   3.640   5.940   0.558  0.0034 -0.0571  0.0145
 4468W        W 8668   8.623   8.144  12.597 -0.2018 -0.0187 -0.3046
 4469W        W 8669   1.508   1.461  12.143 -0.0127  0.0130  0.0336
 4470W        W 8670   5.924   8.144   1.010 -0.1775 -0.1284 -0.1038
 4471W        W 8671   0.640   5.486  11.925  0.1431  0.2369  0.0862
 4472W        W 8672   1.262   5.719   0.861 -0.3287 -0.0882 -0.2010
 4473W        W 8673   9.852   5.486   1.370  0.5110 -0.1281  0.2478
 4474W        W 8674   0.973   7.647   3.926 -0.1795 -0.0645  0.1438
 4475W        W 8675   4.418   2.450   2.910  0.1885  0.2127 -0.0786
 4476W        W 8676   7.729   0.185  10.053  0.0312  0.0673  0.0458
 4477W        W 8677   6.432   0.343  12.949 -0.0481 -0.2339 -0.1954
 4478W        W 8678  10.039   3.651   2.158 -0.1418  0.0545  0.1682
 4479W        W 8679   1.538   6.218   2.889  0.1561  0.1300 -0.2589
 4480W        W 8680  10.096   3.971   3.424 -0.0456 -0.0127 -0.0473
 4481W        W 8681   4.438   3.786   1.896 -0.0440 -0.4740 -0.3665
 4482W        W 8682   0.239   3.645  10.179 -0.0753 -0.0963 -0.0901
 4483W        W 8683   5.387   4.881  10.387  0.2496 -0.1958 -0.2469
 4484W        W 8684   4.627   5.512   3.508  0.0011  0.3316  0.2083
 4485W        W 8685   3.006   7.723  12.081 -0.2391 -0.0069 -0.1682
 4486W        W 8686   7.221   4.378   3.859  0.1126  0.0557  0.1864
 4487W        W 8687   1.045   3.166   2.761  0.3074 -0.0110 -0.1621
 4488W        W 8688   3.278   9.160   2.651  0.0641  0.2182 -0.1518
 4489W        W 8689   8.961   4.307  13.359 -0.2628 -0.1828  0.2559
 4490W        W 8690   1.178  10.039  10.084 -0.1934  0.0390  0.0249
 4491W        W 8691   3.317   5.474   2.054 -0.2299 -0.2891  0.0787
 4492W        W 8692   3.541   8.307   3.970 -0.0459  0.0394  0.1328
 4493W        W 8693   7.728   6.368   2.788 -0.0338 -0.1484 -0.2503
 4494W        W 8694   2.717   3.692  11.233 -0.2614  0.0354 -0.0684
 4495W        W 8695   9.829   8.263   0.290 -0.5603 -0.0457 -0.0051
 4496W        W 8696   2.561   1.218   5.443 -0.0123 -0.2733 -0.0998
 4497W        W 8697   7.385   8.570   1.948  0.1418  0.0774  0.1944
 4498W        W 8698   6.373   2.823  11.977 -0.4063 -0.2002  0.1473
 4499W        W 8699   1.824   2.033   3.123 -0.0326 -0.0555 -0.0446
 4500W        W 8700   1.119   9.094   1.901  0.3087 -0.0056  0.2909
 4501W        W 8701   8.128   4.142   3.393 -0.2820 -0.1845  0.3072
 4502W        W 8702   4.379   3.261  12.042  0.5387  0.1847 -0.0487
 4503W        W 8703   5.783  10.383  12.819  0.0210 -0.0258 -0.0377
 4504W        W 8704   8.622   2.373   1.148  0.1538 -0.4059 -0.0293
 4505W        W 8705   3.350   7.897  12.513  0.0989  0.0025  0.1546
 4506W        W 8706   4.020   4.738   9.843 -0.0329 -0.0996 -0.0332
 4507W        W 8707   8.728   4.804  10.937  0.3006  0.0200 -0.0085
 4508W        W 8708   1.272   3.761  12.270 -0.1671 -0.0878 -0.1497
 4509W        W 8709   5.333   4.223   3.283  0.1240  0.4472  0.1025
 4510W        W 8710   8.566   3.543   9.995  0.1188 -0.3522  0.5185
 4511W        W 8711   9.899   2.891   3.746 -0.4280 -0.1235 -0.3741
 4512W        W 8712   6.359   2.997  13.226 -0.2862  0.1232 -0.0079
 4513W        W 8713   3.425   4.092   9.560  0.5357  0.2141  0.1686
 4514W        W 8714   5.129   3.058  10.346 -0.0284  0.0751 -0.0787
 4515W        W 8715   0.253   9.851   3.583  0.0154 -0.1451 -0.0838
 4516W        W 8716   1.379   8.356   9.269 -0.0999  0.1757  0.1381
 4517W        W 8717   3.743   4.903   2.359  0.1752 -0.2578 -0.1543
 4518W        W 8718  10.353   4.641   0.383  0.1618 -0.1230  0.2382
 4519W        W 8719   8.251   4.115  10.477  0.2802 -0.2852  0.2553
 4520W        W 8720   9.334   0.833   3.223 -0.1375  0.1363 -0.1050
 4521W        W 8721   7.649   7.145  12.610 -0.0517  0.2506  0.0191
 4522W        W 8722   1.725  10.393   2.765 -0.0391 -0.2063  0.1992
 4523W        W 8723   9.610   2.265   2.765  0.0869 -0.0033 -0.1805
 4524W        W 8724   3.280   0.071   1.515 -0.1206  0.1639 -0.2386
 4525W        W 8725   5.428   5.045   4.334  0.0640 -0.2350  0.0873
 4526W        W 8726   8.299   1.335  10.106  0.2799  0.0374  0.1710
 4527W        W 8727   2.655   9.262   0.693  0.0219 -0.3198  0.1119
 4528W        W 8728   8.302   2.061  10.226  0.0119 -0.0189 -0.0703
 4529W        W 8729   1.528   2.528   3.379 -0.2202 -0.1097 -0.0226
 4530W        W 8730   3.353   7.581  10.447 -0.3487  0.2051 -0.2662
 4531W        W 8731   8.690   4.280  12.218  0.2657 -0.0979 -0.1576
 4532W        W 8732   6.983   7.254   3.470  0.2280  0.0558 -0.2130
 4533W        W 8733   0.538   2.965   0.507 -0.0767 -0.3895 -0.0163
 4534W        W 8734   5.655   9.223   2.507 -0.1899  0.0714 -0.0841
 4535W        W 8735   6.985   6.520   1.708  0.3865  0.0723 -0.1437
 4536W        W 8736   9.605   4.127  10.013 -0.0386  0.3902 -0.0848
 4537W        W 8737   5.049   6.836  12.966  0.0765 -0.0524  0.1543
 4538W        W 8738   9.966   2.227   0.824  0.0019  0.2732 -0.0299
 4539W        W 8739   7.677   6.590   1.641  0.0299  0.0593 -0.0136
 4540W        W 8740   9.334   8.877   2.606  0.0063 -0.1397 -0.2181
 4541W        W 8741   9.925   3.584   1.177  0.1114 -0.0760 -0.0399
 4542W        W 8742   5.668   2.999   0.328  0.1379  0.3164 -0.2356
 4543W        W 8743   1.022  10.207   4.122  0.1013 -0.0624 -0.0031
 4544W        W 8744   0.308   0.062   8.965  0.0391 -0.0121 -0.0791
 4545W        W 8745   9.623   9.657   9.513  0.0956 -0.0982 -0.1109
 4546W        W 8746   3.979   9.081  11.133  0.0138 -0.2498  0.1330
 4547W        W 8747   9.638   5.157   1.069  0.1380 -0.0599  0.1061
 4548W        W 8748   2.161   7.191   4.199  0.4077  0.0106  0.2459
 4549W        W 8749   3.761   4.156   2.834 -0.1492  0.0318 -0.4059
 4550W        W 8750  10.458   8.096   1.298  0.2042  0.3043 -0.0479
 4551W        W 8751   3.235   7.388  12.366  0.0196 -0.2405 -0.0031
 4552W        W 8752   9.946   7.353   9.702  0.0550  0.2749  0.2178
 4553W        W 8753   4.065   4.142  11.047 -0.0930 -0.1306 -0.3303
 4554W        W 8754   3.525   6.573   1.610  0.0370  0.0068 -0.2122
 4555W        W 8755   0.042   2.731  10.973 -0.0715 -0.0546 -0.0416
 4556W        W 8756   7.928   1.880   0.002 -0.2347 -0.0051  0.0013
 4557W        W 8757   7.811   8.117  11.114 -0.0202  0.2553  0.3336
 4558W        W 8758   7.731   8.246   0.148  0.1742 -0.1956 -0.3480
 4559W        W 8759   3.589   7.281  11.600  0.4376 -0.3968 -0.0330
 4560W        W 8760   7.447   4.216   8.440  0.3652 -0.0843 -0.1475
 4561W        W 8761   1.174   8.004   2.294  0.1174 -0.0300 -0.0526
 4562W        W 8762   3.891   1.147   2.029 -0.2125  0.2776 -0.1723
 4563W        W 8763   2.223   5.752   4.230  0.0882 -0.0312 -0.2046
 4564W        W 8764   1.757   3.173  11.527 -0.1610  0.0005  0.3313
 4565W        W 8765   3.138   7.869   4.178 -0.1756  0.3356 -0.3074
 4566W        W 8766   1.785   5.102   9.203 -0.0965 -0.1734  0.1600
 4567W        W 8767   0.672   9.791   3.281  0.2211 -0.0876 -0.2523
 4568W        W 8768   2.338   0.824  10.520 -0.2874 -0.2344 -0.1848
 4569W        W 8769   0.008   6.734  12.942 -0.0514 -0.0618 -0.0080
 4570W        W 8770   3.077   5.749  12.326 -0.4943 -0.1857 -0.0059
 4571W        W 8771   8.810   2.543   0.706 -0.4503 -0.0119  0.1897
 4572W        W 8772   2.712   8.204   0.902 -0.2069 -0.0775  0.2164
 4573W        W 8773   0.003   5.147   1.781 -0.1951  0.5601  0.1257
 4574W        W 8774   9.172   6.215  10.686  0.4134 -0.1600  0.0177
 4575W        W 8775  10.318   0.332  12.515  0.0640  0.0047  0.0240
 4576W        W 8776   1.911   4.927   8.262  0.1630 -0.0431 -0.3712
 4577W        W 8777   0.411   9.350   3.421 -0.1047  0.0315  0.1222
 4578W        W 8778   3.831   8.492  12.573  0.3200 -0.3340 -0.1457
 4579W        W 8779   4.474   5.280   3.061 -0.2508 -0.0421  0.0805
 4580W        W 8780   4.681   6.766  10.646 -0.1633  0.2589 -0.0894
 4581W        W 8781   2.777   9.500   9.141 -0.1359  0.3407 -0.3066
 4582W        W 8782   5.547   2.794  12.431  0.0693 -0.0854  0.3140
 4583W        W 8783   7.084   3.910   4.565 -0.1033 -0.0601  0.3655
 4584W        W 8784   3.411   8.754   8.891 -0.1067 -0.0313 -0.1404
 4585W        W 8785   0.737   4.771   5.002 -0.0485  0.4891  0.0627
 4586W        W 8786   0.289   6.050  10.772 -0.0822  0.3665 -0.3422
 4587W        W 8787   3.129   2.963   1.962 -0.1539 -0.1394 -0.3158
 4588W        W 8788   4.643   6.073   1.189  0.1523  0.1720  0.0947
 4589W        W 8789   2.039   9.630  12.617  0.3261  0.0428 -0.4681
 4590W        W 8790   9.303   0.553   2.702  0.3391 -0.0297  0.2501
 4591W        W 8791   9.803   1.509   0.987 -0.3101  0.0450  0.4886
 4592W        W 8792   8.522   9.116  11.581 -0.0970 -0.0551  0.1329
 4593W        W 8793   2.963   9.814  10.241  0.2788  0.0982  0.1606
 4594W        W 8794   6.529   3.414   4.088  0.4126 -0.0760 -0.0477
 4595W        W 8795   6.284   6.378  10.215 -0.1052 -0.3964  0.2077
 4596W        W 8796   3.668  10.241   9.585  0.1081  0.0205  0.1993
 4597W        W 8797   0.750   8.630  11.131  0.2437  0.0653  0.0924
 4598W        W 8798   7.735   3.701   1.692  0.2236 -0.3351  0.3302
 4599W        W 8799   2.507   8.655   1.022  0.0232  0.3600  0.2564
 4600W        W 8800   2.994   1.809   1.606  0.2367  0.1748 -0.0363
 4601W        W 8801   0.030   9.607  10.031  0.2486  0.2581 -0.2250
 4602W        W 8802   5.568   0.478   9.100 -0.0928 -0.1768  0.1190
 4603W        W 8803   9.345   0.964   3.723  0.4282  0.0350  0.3053
 4604W        W 8804   2.780   4.689   4.393 -0.0341 -0.1797  0.1838
 4605W        W 8805   8.520   6.000   0.531  0.2196  0.0653  0.1749
 4606W        W 8806   8.695   8.910   0.359 -0.0458 -0.1353 -0.1281
 4607W        W 8807   5.594   8.263   3.035 -0.1348  0.0765  0.1342
 4608W        W 8808   6.226   4.271   9.012  0.3554  0.1914 -0.1204
 4609W        W 8809   9.205   5.505  11.417  0.1101 -0.0647  0.1043
 4610W        W 8810   4.301   6.755   8.500  0.0588  0.1353  0.0877
 4611W        W 8811   6.067   9.140  11.614  0.1822 -0.1282  0.1998
 4612W        W 8812   7.523   7.906   4.262  0.1347 -0.1231  0.0709
 4613W        W 8813   0.730   6.784   2.769  0.3392  0.1340 -0.3469
 4614W        W 8814   6.127   7.375  10.254  0.1033  0.3934  0.2057
 4615W        W 8815   1.321   3.449   9.815  0.0215  0.1120 -0.2121
 4616W        W 8816   8.246   2.683   2.341 -0.1007 -0.1149  0.4685
 4617W        W 8817   1.894   6.090   4.380  0.0698 -0.2071  0.1168
 4618W        W 8818   9.268   2.819  12.980  0.0466 -0.1217  0.0657
 4619W        W 8819   7.713   4.387   0.091  0.4792 -0.0465  0.0700
 4620W        W 8820   6.408   5.360   1.763 -0.1254 -0.0168 -0.3723
 4621W        W 8821   0.072   4.747   0.885  0.1353  0.3299  0.1486
 4622W        W 8822   7.260   6.897   1.584  0.1715  0.0334 -0.0898
 4623W        W 8823   4.482   7.414   1.659  0.1477 -0.0844  0.2520
 4624W        W 8824   6.549   5.819   4.345 -0.0770 -0.0750 -0.0539
 4625W        W 8825   4.822   4.625   3.090 -0.1743 -0.2190 -0.3772
 4626W        W 8826   7.228   3.552   0.821  0.0672  0.2977  0.0509
 4627W        W 8827   5.335   3.444   0.107  0.4599 -0.1631 -0.0096
 4628W        W 8828  10.197   0.728   2.348  0.0789 -0.2238 -0.1564
 4629W        W 8829   9.057   9.318   2.723  0.0024 -0.0605 -0.2117
 4630W        W 8830   7.907   5.763  10.361  0.0170  0.1675 -0.1282
 4631W        W 8831   2.722   7.616   9.816  0.2776  0.0449  0.4315
 4632W        W 8832   2.787   1.764   2.940 -0.3236 -0.0203 -0.1858
 4633W        W 8833   1.936   8.458   2.745 -0.0186  0.1440 -0.1505
 4634W        W 8834   4.599   5.514   0.246  0.3090  0.1754  0.0666
 4635W        W 8835   0.423   5.161   4.131  0.0804  0.1996 -0.1245
 4636W        W 8836   7.919   6.190   9.378 -0.1028  0.1844  0.0058
 4637W        W 8837   7.627   6.339   0.525 -0.0326 -0.1561 -0.1355
 4638W        W 8838   6.271   0.806   1.769  0.1084  0.1668  0.3355
 4639W        W 8839   7.405   4.688   2.079  0.1736 -0.2480 -0.1086
 4640W        W 8840   4.737   0.562   3.466  0.0960  0.1412 -0.1244
 4641W        W 8841   9.669   2.922   0.485  0.2282  0.1520 -0.0265
 4642W        W 8842  10.369   8.709   0.996 -0.0130  0.1438  0.0864
 4643W        W 8843   3.859   6.611   2.904  0.0786  0.1572 -0.0495
 4644W        W 8844   5.105   4.137   8.313 -0.1362 -0.0533 -0.0991
 4645W        W 8845   1.200   2.116   1.287 -0.0477  0.2406  0.1448
 4646W        W 8846   7.302   9.638  11.569 -0.3725  0.0998  0.0814
 4647W        W 8847   7.964   8.572  12.120  0.1848 -0.0419 -0.4156
 4648W        W 8848   2.179   5.230   1.182 -0.0305 -0.0319  0.0010
 4649W        W 8849   1.570   0.987   9.667 -0.0620 -0.3183 -0.0723
 4650W        W 8850   3.554   7.439   2.892 -0.0127 -0.0981  0.2623
 4651W        W 8851   6.005   4.690   0.919 -0.2079 -0.0820 -0.2683
 4652W        W 8852   9.337   1.919  13.034 -0.1914 -0.1933 -0.1318
 4653W        W 8853   4.990   7.861   2.804  0.1046 -0.2473  0.0582
 4654W        W 8854   5.519   8.494  12.885 -0.0237 -0.1648  0.1318
 4655W        W 8855   6.252   5.603  12.875 -0.0324  0.3395  0.2424
 4656W        W 8856   6.109   8.526   0.583  0.0017 -0.2741  0.1800
 4657W        W 8857  10.401   3.422   1.441  0.1313 -0.0812 -0.2280
 4658W        W 8858   4.701   5.516  12.481  0.2260 -0.1541  0.0826
 4659W        W 8859   9.808   8.072  12.081 -0.3162 -0.0841 -0.1569
 4660W        W 8860   6.993   6.164  10.311 -0.0962  0.2182 -0.2926
 4661W        W 8861   9.985   3.050  12.969  0.1490  0.1113  0.0713
 4662W        W 8862  10.156   0.075  11.421  0.1109 -0.2211 -0.3181
 4663W        W 8863   4.962   1.150   0.995 -0.2174 -0.2163  0.1807
 4664W        W 8864   1.654   4.751   0.362 -0.0718  0.0311  0.1182
 4665W        W 8865   4.990   2.161   1.115 -0.0911 -0.2570  0.0241
 4666W        W 8866   6.877   8.194   0.633  0.0384 -0.4663  0.1665
 4667W        W 8867   9.161   8.993   3.757  0.4356  0.2081 -0.0076
 4668W        W 8868   4.655   7.966   3.556  0.1282 -0.1537 -0.0219
 4669W        W 8869   6.564   5.341   1.247  0.0726  0.2426  0.0195
 4670W        W 8870   5.602   5.520  12.341 -0.0110  0.2278  0.1753
 4671W        W 8871   3.301   2.983  11.304  0.1514 -0.2736  0.1221
 4672W        W 8872   4.367   6.792   3.059  0.3500 -0.3682 -0.0179
 4673W        W 8873   4.837   6.781   1.516 -0.0123 -0.0912  0.1688
 4674W        W 8874   1.420   9.498   9.586  0.0116  0.2016 -0.0433
 4675W        W 8875   6.578   7.013   3.259 -0.0457 -0.3407  0.0788
 4676W        W 8876   9.667   8.265   9.618 -0.0367 -0.3768 -0.0477
 4677W        W 8877   1.076   1.630   0.819  0.0878  0.0545  0.0917
 4678W        W 8878   1.895   7.011  11.676 -0.2884  0.1905  0.1785
 4679W        W 8879   4.009   3.644  12.369 -0.1348  0.1695  0.2195
 4680W        W 8880   5.969  10.036   9.185 -0.0946  0.0919  0.2457
 4681W        W 8881   4.567   4.947   1.757  0.4246  0.2696 -0.0132
 4682W        W 8882   4.497   7.760  11.687  0.1529  0.3012 -0.0562
 4683W        W 8883   3.490   8.099   2.621  0.2889  0.1770 -0.2608
 4684W        W 8884   6.778   9.082   0.727 -0.0349  0.3365 -0.0404
 4685W        W 8885   8.898   9.888  12.663 -0.1712 -0.0166 -0.1153
 4686W        W 8886   7.220   7.239   8.877  0.1097  0.1393  0.0944
 4687W        W 8887   2.539   4.595   2.315 -0.2198 -0.0906  0.1974
 4688W        W 8888   5.978   9.498   2.742 -0.1480  0.1842 -0.0414
 4689W        W 8889   6.201   3.213   0.231  0.1628  0.0894  0.3401
 4690W        W 8890   0.186   5.920  10.215  0.1449 -0.1971 -0.1095
 4691W        W 8891  10.433   9.459  12.735  0.0657 -0.1713  0.1586
 4692W        W 8892   6.359   6.058  12.959  0.1171 -0.1709 -0.2679
 4693W        W 8893   6.463   5.531   0.746 -0.0950  0.1465 -0.2990
 4694W        W 8894   3.583   7.494   8.723  0.3315  0.1902  0.0567
 4695W        W 8895   9.314   7.038  10.907  0.0459  0.2669  0.0695
 4696W        W 8896   7.569   5.371   9.162  0.0446  0.0900  0.1696
 4697W        W 8897   5.563   7.804   0.784  0.0728 -0.0245 -0.1059
 4698W        W 8898   9.345   5.091   5.249 -0.1933  0.1782 -0.2905
 4699W        W 8899   5.545   0.094  10.425  0.0147  0.4611  0.1339
 4700W        W 8900   7.616   9.266   8.995 -0.1555  0.0864  0.1028
 4701W        W 8901   0.596   3.511   3.099  0.1166 -0.1380  0.1849
 4702W        W 8902   1.258   2.096   3.162 -0.1530  0.0404  0.1891
 4703W        W 8903   0.009   5.202   9.468  0.0314  0.0156 -0.2038
 4704W        W 8904   5.881   1.136   3.721 -0.1645 -0.1689  0.2832
 4705W        W 8905   9.141  10.248   2.442  0.1047 -0.1841  0.1856
 4706W        W 8906   3.189   5.049   0.423  0.2576 -0.3558  0.2447
 4707W        W 8907   5.361   9.226   0.640  0.2455  0.1100  0.0647
 4708W        W 8908   4.312   0.828  11.507 -0.3117 -0.0516 -0.2339
 4709W        W 8909   6.547   3.954   2.025  0.2126 -0.0667 -0.2412
 4710W        W 8910   7.708   7.645  12.316  0.2043 -0.0047 -0.1261
 4711W        W 8911  10.416   5.200   4.593 -0.3075 -0.1666 -0.0234
 4712W        W 8912   2.675   5.406  12.301  0.0225  0.0957  0.0140
 4713W        W 8913   2.021   2.408  13.082  0.0985  0.0477  0.1264
 4714W        W 8914   5.376   5.241  10.837 -0.1191  0.1583  0.2350
 4715W        W 8915   9.919   7.969   0.748 -0.2828 -0.2094 -0.2783
 4716W        W 8916   0.677  10.383   9.597 -0.0565 -0.0052  0.1337
 4717W        W 8917   0.360   3.849  11.116 -0.1696  0.0816 -0.3419
 4718W        W 8918   4.934   1.802   4.149  0.1790  0.1281 -0.2564
 4719W        W 8919   9.905   6.295  11.161 -0.1420  0.2406 -0.0293
 4720W        W 8920   5.129   3.938   0.847  0.0580 -0.0964 -0.0009
 4721W        W 8921   7.334   6.067  11.601 -0.1095  0.4234  0.1630
 4722W        W 8922   9.635  10.110   2.495 -0.2547  0.1371 -0.0911
 4723W        W 8923   3.840  10.127  12.791 -0.0689  0.1091 -0.2134
 4724W        W 8924   2.494   2.551  12.747 -0.0201 -0.0495 -0.0416
 4725W        W 8925   2.666   3.729  13.058 -0.2848 -0.2300  0.1737
 4726W        W 8926   4.049   9.034   0.766 -0.0056  0.3268 -0.1188
 4727W        W 8927   5.649   3.576   9.396  0.2472 -0.2329 -0.1816
 4728W        W 8928   0.446   4.831   1.163 -0.0018  0.0075 -0.2922
 4729W        W 8929   5.248   8.662   3.400  0.1218  0.1081  0.4986
 4730W        W 8930   0.337   8.734   2.429  0.2055  0.0767 -0.1765
 4731W        W 8931   2.665   2.026   1.967 -0.0939 -0.2973  0.4459
 4732W        W 8932   7.325   7.767   9.080 -0.0468  0.1790 -0.0004
 4733W        W 8933   9.564   1.812  12.519 -0.0125  0.2467  0.0757
 4734W        W 8934   8.425   8.535  13.454 -0.4294  0.1816  0.1381
 4735W        W 8935   4.061   9.820   3.961 -0.0076 -0.2479 -0.2356
 4736W        W 8936   3.902   5.117   0.517 -0.1767 -0.4301 -0.2985
 4737W        W 8937   2.321   4.937  11.002  0.1646  0.4289  0.1177
 4738W        W 8938   6.280   5.778   1.179 -0.0316 -0.1508  0.0490
 4739W        W 8939   0.467   7.654  12.248  0.3224 -0.2125  0.2560
 4740W        W 8940   9.249   2.056   2.532  0.3638  0.0843  0.1937
 4741W        W 8941   2.349   6.921   4.595  0.0121  0.1975  0.2737
 4742W        W 8942   5.302   9.431   5.329 -0.1984 -0.1146  0.0356
 4743W        W 8943   0.355   4.703   5.408  0.1716 -0.0785  0.1283
 4744W        W 8944   8.055   7.077  10.983 -0.3994 -0.1612  0.1010
 4745W        W 8945   8.262   4.966  10.839  0.1175  0.0591  0.2343
 4746W        W 8946   7.314   0.282  13.226 -0.0166 -0.0521 -0.3624
 4747W        W 8947   8.002   7.078  12.206 -0.4686  0.2714 -0.1365
 4748W        W 8948   0.279   3.620  12.003  0.4263 -0.2388  0.0306
 4749W        W 8949  10.031   7.013  10.112  0.2079 -0.1250  0.0227
 4750W        W 8950   8.099   6.735   9.661  0.1188  0.0489 -0.0249
 4751W        W 8951   0.682  10.297  10.147 -0.0311  0.0444  0.1933
 4752W        W 8952   8.223   8.676   9.812 -0.0613  0.0827 -0.0919
 4753W        W 8953   4.774   7.137   1.926 -0.4213  0.1742 -0.1941
 4754W        W 8954   7.290   0.113   9.778  0.3172 -0.1160  0.4591
 4755W        W 8955   4.566  10.468   9.386 -0.3236  0.0896  0.1286
 4756W        W 8956   9.230   2.816   8.991  0.0228 -0.2298  0.1501
 4757W        W 8957  10.259   9.072   2.176  0.0607 -0.0718 -0.2478
 4758W        W 8958   5.087  10.061   0.037  0.2744  0.4105 -0.1120
 4759W        W 8959   4.486   2.583  10.754  0.1192  0.0073 -0.1113
 4760W        W 8960   3.627   2.366   1.848  0.2729 -0.0257  0.1684
 4761W        W 8961   9.576   0.119   2.630  0.2583 -0.1249  0.0175
 4762W        W 8962   6.501   3.104   4.998 -0.2777  0.2517  0.0185
 4763W        W 8963   5.068   7.884   1.014  0.0085 -0.0268  0.0206
 4764W        W 8964   7.403   3.877   3.047  0.1973 -0.0341  0.0846
 4765W        W 8965   3.634   0.357  10.916 -0.1242 -0.0160 -0.1502
 4766W        W 8966   1.471   2.415   2.246  0.0696 -0.1189  0.0344
 4767W        W 8967   5.366   2.881   4.442 -0.0025 -0.2105 -0.0907
 4768W        W 8968   0.010   6.667   3.615  0.2172 -0.2001 -0.0933
 4769W        W 8969   3.830   3.404   0.973  0.0835  0.0425  0.0874
 4770W        W 8970   3.253   3.210   2.377 -0.1900  0.0284  0.1872
 4771W        W 8971   9.541   3.593   4.256 -0.2447  0.0231 -0.1294
 4772W        W 8972   1.708   9.890   8.869  0.2289  0.0790 -0.0016
 4773W        W 8973   7.851   3.053   1.137 -0.1667 -0.1572 -0.2285
 4774W        W 8974   9.347   1.647   2.222 -0.1428  0.0426  0.3301
 4775W        W 8975   0.982   3.640   0.426  0.2190 -0.0615  0.1165
 4776W        W 8976   6.776   9.604   2.179 -0.1079  0.0893 -0.2172
 4777W        W 8977   2.369   9.128   3.627  0.1972 -0.0219  0.0830
 4778W        W 8978   2.813   3.504   0.183 -0.4507 -0.2870  0.3899
 4779W        W 8979   3.896   0.603   1.186  0.1069 -0.1607  0.2724
 4780W        W 8980   1.901   2.038   0.790  0.0995  0.0098 -0.2341
 4781W        W 8981   5.207   7.912  11.489 -0.2194 -0.4519 -0.1086
 4782W        W 8982   7.531   7.273   0.007 -0.2052 -0.2006 -0.0719
 4783W        W 8983   3.023   2.679   3.131  0.1103  0.3599  0.2285
 4784W        W 8984   0.275   5.203  10.510 -0.0689 -0.3984  0.2344
 4785W        W 8985   3.969   1.227   9.693 -0.1337  0.0220  0.3840
 4786W        W 8986   7.354   7.896   9.616  0.0068 -0.1117  0.0316
 4787W        W 8987   6.170   1.311   2.902 -0.0116 -0.2986  0.0640
 4788W        W 8988   9.727   7.756   0.355 -0.4344 -0.1279 -0.0116
 4789W        W 8989   8.220   6.299   2.825 -0.2233 -0.0186  0.1318
 4790W        W 8990   3.350   2.720   1.599 -0.1230  0.1034 -0.5877
 4791W        W 8991   2.664   5.051   3.655 -0.1243 -0.3432 -0.0283
 4792W        W 8992   3.013   7.507   0.767  0.0870  0.1877  0.1766
 4793W        W 8993   8.658   8.083  13.204  0.0611 -0.1128  0.1877
 4794W        W 8994   5.427   3.586   9.865  0.1584 -0.1001 -0.3043
 4795W        W 8995   9.289  10.056  12.987  0.2902 -0.4315  0.0321
 4796W        W 8996  10.278   3.158  11.128  0.1397 -0.0952  0.0738
 4797W        W 8997   1.197   9.155  10.241  0.4171 -0.1455 -0.0834
 4798W        W 8998   8.696   6.181  10.118  0.1608 -0.2525 -0.2008
 4799W        W 8999   5.801   9.522   3.726 -0.1628  0.2025  0.1449
 4800W        W 9000   0.055   9.386  12.185  0.2103 -0.0220 -0.2334
 4801W        W 9001   5.995   8.379   1.478  0.1884 -0.1577  0.0128
 4802W        W 9002   2.821   7.672   4.656 -0.1393  0.0217 -0.1326
 4803W        W 9003   0.732   5.053  13.376  0.1282  0.1720 -0.0979
 4804W        W 9004   5.005   3.196  12.681 -0.0591  0.1204 -0.0144
 4805W        W 9005   2.991   7.782  13.315  0.0954 -0.0031 -0.0341
 4806W        W 9006   1.954   2.599   4.110  0.3788 -0.1038  0.3005
 4807W        W 9007  10.350   6.895  12.478  0.1554 -0.1293 -0.3132
 4808W        W 9008   6.671   7.253   1.239  0.0052  0.2774  0.2225
 4809W        W 9009   2.708   9.833   1.529  0.1418 -0.0529  0.2073
 4810W        W 9010   8.026   4.701   1.534 -0.0479 -0.0565  0.2443
 4811W        W 9011   6.518   7.832   1.943  0.0071  0.0786  0.0054
 4812W        W 9012   4.009   5.807   8.972 -0.3581  0.3316  0.3662
 4813W        W 9013   5.510  10.058  11.145  0.0178 -0.0457  0.0733
 4814W        W 9014   5.286   8.739  11.719 -0.1877  0.0108  0.1108
 4815W        W 9015   2.308   4.155  10.459  0.3011  0.0034 -0.5305
 4816W        W 9016   5.178   7.860  13.434  0.4527 -0.1180 -0.0060
 4817W        W 9017   4.570   4.734   3.834  0.0955  0.2529  0.1006
 4818W        W 9018   9.816   6.312  10.661  0.1546 -0.1322 -0.1658
 4819W        W 9019  10.117   6.094   3.136  0.0067  0.1110  0.4830
 4820W        W 9020   5.412   5.395  10.224  0.2145 -0.0806  0.0444
 4821W        W 9021   3.545   9.424  12.018  0.0105 -0.1745  0.1062
 4822W        W 9022   8.732   0.354  10.842 -0.0616  0.1397  0.3477
 4823W        W 9023   3.683   1.610  11.650  0.2246  0.2440  0.0273
 4824W        W 9024   7.346   1.023   2.627  0.0488 -0.2063  0.0682
 4825W        W 9025   0.045   1.617  12.203 -0.0204  0.1742 -0.0092
 4826W        W 9026   2.990   0.388   4.833 -0.0502  0.1305  0.1443
 4827W        W 9027  10.126   1.430   1.329 -0.1430  0.1035 -0.1596
 4828W        W 9028   6.925   2.150   0.157 -0.2016 -0.0546 -0.1278
 4829W        W 9029   8.931   1.919  11.295 -0.0817  0.1278 -0.1664
 4830W        W 9030   4.803   6.001  10.965  0.3393 -0.0355  0.3925
 4831W        W 9031   9.121   2.719  12.548  0.0082  0.3070 -0.3244
 4832W        W 9032  10.443   4.384   1.155 -0.0075 -0.2250  0.2029
 4833W        W 9033   5.266   3.111   9.756  0.2720 -0.0898 -0.2456
 4834W        W 9034   2.746   8.600   4.335  0.2549 -0.1116 -0.2933
 4835W        W 9035   0.944   3.179   3.845 -0.2716  0.0696 -0.0943
 4836W        W 9036   2.510   7.832   2.267 -0.1699 -0.2597  0.6689
 4837W        W 9037   3.977   0.210  11.636  0.0440 -0.0514 -0.1615
 4838W        W 9038   0.701   6.199  13.164  0.0120 -0.2931 -0.1674
 4839W        W 9039   8.014   3.060   3.235  0.2587 -0.0943  0.1126
 4840W        W 9040  10.097   7.272   2.503  0.1413  0.1924  0.1669
 4841W        W 9041   2.280   8.426   4.342  0.1751  0.0893 -0.3013
 4842W        W 9042   7.238   3.159   9.004  0.1110  0.2336  0.2139
 4843W        W 9043   7.430   5.444   0.165  0.3794 -0.3071  0.1236
 4844W        W 9044   2.062   8.255   0.022 -0.0241 -0.4136 -0.1788
 4845W        W 9045   2.296   8.074   3.646 -0.1756 -0.1786 -0.0857
 4846W        W 9046   6.458   9.426  12.054 -0.2205  0.0968 -0.1045
 4847W        W 9047   2.339   2.874  13.128  0.0308  0.0442  0.0028
 4848W        W 9048   5.284   5.597   1.539  0.2600 -0.0677  0.2352
 4849W        W 9049   0.047   4.245   9.333  0.0717 -0.0022  0.2741
 4850W        W 9050   7.657   2.091   4.077 -0.1513  0.1831  0.1396
 4851W        W 9051   1.003   3.778   3.262  0.4914 -0.0324  0.2535
 4852W        W 9052   6.232   4.616  11.157  0.1215  0.1346  0.4073
 4853W        W 9053   5.214   5.862  10.413 -0.2026 -0.0168 -0.2409
 4854W        W 9054  10.233   5.943  11.346  0.0307  0.0519  0.0465
 4855W        W 9055   6.255   7.098   4.528  0.0343 -0.2429  0.1412
 4856W        W 9056   8.851  10.438  12.802  0.1708 -0.1153 -0.0229
 4857W        W 9057   4.480   0.857  10.990 -0.1371  0.0711  0.0387
 4858W        W 9058   2.022   9.367   9.911 -0.0472  0.0377 -0.3100
 4859W        W 9059   0.128   2.059   2.181  0.2861 -0.1136 -0.2797
 4860W        W 9060   3.243   0.202   0.745  0.0259 -0.0909  0.1282
 4861W        W 9061   0.938   6.596  10.667  0.0864 -0.0354 -0.5596
 4862W        W 9062   0.344   7.711   3.138 -0.0270 -0.1938  0.0617
 4863W        W 9063   5.583   2.888  10.620 -0.4590 -0.0364 -0.1809
 4864W        W 9064   9.318   2.673  10.930 -0.2365  0.1131 -0.0024
 4865W        W 9065   8.916   1.498  11.085  0.2249 -0.0410 -0.1039
 4866W        W 9066   0.420  10.341   3.420 -0.0052  0.1023  0.1295
 4867W        W 9067   5.061   0.322   8.557  0.0128  0.0374  0.0438
 4868W        W 9068   6.811   9.215  10.592 -0.0591 -0.3731 -0.3160
 4869W        W 9069   2.413   8.488  10.048  0.0515 -0.2293 -0.2619
 4870W        W 9070   8.605   4.977  12.441  0.2385  0.0588  0.3543
 4871W        W 9071   0.969   8.272   2.837 -0.0111 -0.0794  0.1168
 4872W        W 9072   7.998   3.591   2.644 -0.1308 -0.0374 -0.1680
 4873W        W 9073   1.184   1.514  13.195  0.0641 -0.0443  0.2203
 4874W        W 9074   6.325   2.356   0.746 -0.3373 -0.1839  0.1928
 4875W        W 9075   9.921   9.628   0.032 -0.2296 -0.1229  0.1108
 4876W        W 9076   5.801   7.130   4.319  0.0812  0.1000  0.1862
 4877W        W 9077   2.959   6.415   0.064  0.1252 -0.1757 -0.1062
 4878W        W 9078   4.630   4.631  11.515 -0.0698  0.1469  0.1930
 4879W        W 9079   1.304   5.553  11.165 -0.4652  0.1240  0.0592
 4880W        W 9080   5.342   4.616   8.777  0.3750 -0.0515  0.1776
 4881W        W 9081   3.622   2.477   2.365 -0.0317 -0.1277 -0.1464
 4882W        W 9082   4.690   0.081  10.035 -0.0506  0.1823 -0.0231
 4883W        W 9083   4.055   9.217  12.101  0.1124  0.1158 -0.0606
 4884W        W 9084  10.034   4.066   9.580  0.0790 -0.2137 -0.1449
 4885W        W 9085   4.327   1.306  10.181 -0.0323  0.0529 -0.2150
 4886W        W 9086   2.702   4.376   1.202 -0.0615  0.3545  0.0879
 4887W        W 9087   7.230  10.322  13.299 -0.1968  0.0851  0.1872
 4888W        W 9088   8.387   5.641   1.233 -0.0933 -0.0758 -0.2360
 4889W        W 9089   5.303   4.793   9.388 -0.2780  0.4101 -0.1375
 4890W        W 9090   8.438   5.119   5.433  0.0352 -0.2977 -0.1529
 4891W        W 9091   6.299   3.237   9.672 -0.0990  0.4922  0.1222
 4892W        W 9092   3.544   5.835   9.381  0.0104  0.2220  0.0790
 4893W        W 9093   7.465   9.157   1.819  0.1163  0.0497  0.1527
 4894W        W 9094   0.442   3.850   0.439 -0.1526 -0.0172  0.0803
 4895W        W 9095   5.620   8.319   3.531 -0.3157 -0.0095  0.3212
 4896W        W 9096   7.372   4.709   1.209 -0.0390 -0.0286  0.2163
 4897W        W 9097   3.327   7.299   9.820 -0.0553 -0.0257 -0.1033
 4898W        W 9098  10.193   8.554  11.451 -0.1902 -0.1262  0.2470
 4899W        W 9099   8.594   0.269  12.063 -0.0901 -0.0030 -0.3283
 4900W        W 9100   8.559   5.522   3.996 -0.2199  0.0968  0.2309
 4901W        W 9101   5.173   6.209   3.039  0.2220 -0.2736 -0.1406
 4902W        W 9102   8.935   2.503  13.169 -0.0899 -0.0026 -0.1428
 4903W        W 9103   1.089   6.629  11.166  0.2689  0.2039 -0.2489
 4904W        W 9104   6.073   9.525  11.301 -0.1461 -0.0131 -0.0740
 4905W        W 9105   2.261   5.972   0.469  0.1890 -0.0007 -0.2600
 4906W        W 9106   9.888   6.741   2.692  0.3198  0.0720  0.1464
 4907W        W 9107   3.696   1.258   3.995 -0.0045 -0.2664 -0.0976
 4908W        W 9108   0.814   2.299   9.944 -0.0550 -0.1608  0.0167
 4909W        W 9109   9.547   6.671  13.081  0.2649 -0.1313  0.0060
 4910W        W 9110   8.634   9.435   0.032  0.2356 -0.2763  0.0975
 4911W        W 9111   4.178   4.146   1.356  0.2635 -0.1732 -0.0697
 4912W        W 9112   3.679   7.206   0.078  0.2988 -0.1431 -0.3204
 4913W        W 9113   7.229   9.593   3.401  0.1891 -0.1857  0.1429
 4914W        W 9114   2.675   2.314   2.878 -0.2178  0.0179 -0.2755
 4915W        W 9115   6.851   6.352   4.152  0.2431 -0.1805 -0.2571
 4916W        W 9116   8.934   4.583   4.686  0.0344 -0.3582 -0.0710
 4917W        W 9117   8.465   4.124   9.384  0.0209  0.3175 -0.0371
 4918W        W 9118   5.345   5.616   8.823 -0.3167  0.6188  0.1120
 4919W        W 9119   2.660   9.028   0.242 -0.0917 -0.2253 -0.0691
 4920W        W 9120   7.447   9.649   0.963  0.2150  0.0751  0.2581
 4921W        W 9121   7.863   5.226   0.033  0.4770 -0.6171  0.0900
 4922W        W 9122   5.997   7.490  11.770 -0.1088 -0.4119 -0.0911
 4923W        W 9123   2.836   8.658  10.685  0.0237  0.2805 -0.0948
 4924W        W 9124   4.947  10.459   8.214 -0.2549  0.0383  0.0296
 4925W        W 9125   3.788   4.465   1.519 -0.0154  0.0433 -0.1493
 4926W        W 9126   8.681   3.752   2.434  0.1219  0.1417  0.2229
 4927W        W 9127   5.478   4.535   3.723  0.1330  0.0891  0.0647
 4928W        W 9128   9.750   2.717   2.749 -0.1784 -0.3520 -0.3570
 4929W        W 9129   3.966   5.328   2.245 -0.0742 -0.1811 -0.0899
 4930W        W 9130   0.891   7.870   9.857  0.1319 -0.1163  0.0400
 4931W        W 9131   8.031  10.323  11.291  0.0148 -0.0070  0.0375
 4932W        W 9132   3.666   5.975  12.894  0.0624  0.1161  0.0524
 4933W        W 9133   4.480   3.201   2.992 -0.0711 -0.2352  0.1400
 4934W        W 9134   7.063   2.190  10.636 -0.0164 -0.1380  0.0690
 4935W        W 9135   5.929   0.430   2.484 -0.2170 -0.1378 -0.0449
 4936W        W 9136   4.907   8.187   2.295 -0.1305  0.2831 -0.1421
 4937W        W 9137   1.414   6.357  10.070 -0.0987 -0.1865  0.0694
 4938W        W 9138   7.746   4.858  10.885 -0.0464  0.3905 -0.4896
 4939W        W 9139   6.126   8.563   8.927  0.2202 -0.0085  0.5611
 4940W        W 9140   3.989  10.069   1.905  0.1978  0.2552  0.0306
 4941W        W 9141   8.724   6.345   4.678  0.3734 -0.1990  0.2214
 4942W        W 9142   0.925   6.683   3.561 -0.2182  0.1002  0.0504
 4943W        W 9143   8.338   0.847  12.791  0.1794 -0.1801  0.0640
 4944W        W 9144   3.030   5.649  11.318 -0.2445  0.1039  0.3273
 4945W        W 9145   5.113   9.194   3.208  0.4913  0.0805 -0.1546
 4946W        W 9146   7.541   3.653  12.009 -0.1563 -0.5193 -0.0896
 4947W        W 9147   8.039   3.195   0.698  0.0585  0.0992 -0.2187
 4948W        W 9148   4.004   3.360   9.965 -0.0393 -0.0955  0.0642
 4949W        W 9149   1.177   4.875   0.125 -0.2073 -0.0462  0.0115
 4950W        W 9150   0.726   7.390   9.678  0.0723 -0.0164  0.0518
 4951W        W 9151   3.919   6.561  13.408 -0.0679  0.2137 -0.0615
 4952W        W 9152   2.986   2.599   9.828 -0.2864  0.2206  0.2332
 4953W        W 9153   9.215   1.455   0.088  0.1297  0.2033  0.0520
 4954W        W 9154   5.106   1.838   9.662  0.1965 -0.1105 -0.1139
 4955W        W 9155   5.877   3.795   2.603 -0.0817  0.4207  0.2327
 4956W        W 9156   0.948  10.478   3.678 -0.1073  0.0593  0.3034
 4957W        W 9157   5.478   4.311   9.154  0.0397  0.1581  0.2169
 4958W        W 9158   6.194   7.194   8.989 -0.0917 -0.0248 -0.5741
 4959W        W 9159   8.397   5.164   3.663  0.3243 -0.0758 -0.1776
 4960W        W 9160   4.910   3.435   1.034  0.1641 -0.0858 -0.1438
 4961W        W 9161   6.278   4.900   2.154 -0.0550  0.0129  0.0455
 4962W        W 9162   4.835   1.083   3.304 -0.1854 -0.0424 -0.2744
 4963W        W 9163   1.957   2.310  11.024  0.2259 -0.0440 -0.4122
 4964W        W 9164   4.111   6.185   1.960 -0.1050 -0.2126 -0.1116
 4965W        W 9165   8.059   4.876  12.443  0.0211 -0.0404 -0.0404
 4966W        W 9166   7.890   8.411  10.120  0.1116  0.2081  0.0059
 4967W        W 9167   5.506   7.365   9.310  0.2249  0.0740 -0.6907
 4968W        W 9168   1.533   2.821   9.491  0.1928  0.1472 -0.2329
 4969W        W 9169   1.700   0.976   2.400  0.3267 -0.1706 -0.1631
 4970W        W 9170   0.511  10.091  12.123  0.0789 -0.2395 -0.0545
 4971W        W 9171   3.655   4.726   3.538  0.1665  0.1368  0.1051
 4972W        W 9172   6.906   7.800   3.485 -0.1977  0.0153 -0.0691
 4973W        W 9173   3.180   7.831   1.089  0.0277  0.0908 -0.1572
 4974W        W 9174   0.617   7.274   4.615 -0.0712 -0.0501 -0.1922
 4975W        W 9175   8.350   0.893   1.210 -0.0909  0.1513  0.1291
 4976W        W 9176   4.169   4.432  11.565  0.2104  0.2688 -0.0022
 4977W        W 9177   4.882  10.132  12.491 -0.0871  0.1119  0.0714
 4978W        W 9178   3.915   5.499  12.351 -0.1602 -0.2062 -0.1173
 4979W        W 9179   8.303   8.819   1.278 -0.1818  0.0013 -0.0165
 4980W        W 9180   7.697   3.644  12.950  0.1643 -0.1032  0.0682
 4981W        W 9181   2.298   0.405   0.165  0.2173  0.1270  0.0674
 4982W        W 9182   4.036   5.509   1.277  0.3000 -0.2162  0.2598
 4983W        W 9183  10.120   7.895   4.055  0.0510 -0.1889 -0.1514
 4984W        W 9184   1.037   7.098   0.482 -0.1451  0.1215 -0.1804
 4985W        W 9185   6.781   4.842   1.243 -0.1366 -0.1246  0.0451
 4986W        W 9186   2.577   0.289  10.280 -0.0013 -0.0437  0.0242
 4987W        W 9187   0.893   8.513   4.450  0.1593 -0.1909 -0.0314
 4988W        W 9188   6.258   9.834   2.507 -0.2887 -0.2034 -0.0698
 4989W        W 9189   7.541   2.962  10.642 -0.0761 -0.0386 -0.0154
 4990W        W 9190   8.645   1.189  11.555  0.0210  0.1359  0.2024
 4991W        W 9191   1.411   0.097   1.103  0.1675  0.1922 -0.0025
 4992W        W 9192   2.348   3.348   2.565 -0.2717  0.2340  0.3244
 4993W        W 9193   1.185   1.081   0.025  0.0400  0.3132 -0.1509
 4994W        W 9194   2.973   8.992   3.016  0.0263  0.0551 -0.0073
 4995W        W 9195   9.121   8.576   1.664  0.0990 -0.1644 -0.0016
 4996W        W 9196   9.596   8.200  12.872 -0.0060 -0.1531 -0.4247
 4997W        W 9197   4.701   9.971  10.143 -0.1285 -0.0191  0.2233
 4998W        W 9198   3.976   6.352  10.740  0.0731  0.3657  0.2497
 4999W        W 9199   1.890   3.538   3.219  0.0587 -0.1934  0.2352
 5000W        W 9200   2.054   6.084  13.425  0.2020 -0.2455  0.1061
 5001W        W 9201   2.615   4.936  11.914  0.0196 -0.1623  0.0087
 5002W        W 9202   0.803   7.135   0.956 -0.1239 -0.0865  0.0852
 5003W        W 9203   4.861   4.189   2.595 -0.0463 -0.2225 -0.1030
 5004W        W 9204   8.366   9.401  10.251  0.1392 -0.0545 -0.0104
 5005W        W 9205   1.153   6.196  10.814 -0.0309 -0.2210 -0.0166
 5006W        W 9206   9.087   7.584   9.761 -0.2372  0.0269  0.1255
 5007W        W 9207   1.960   5.275  11.853 -0.1292 -0.3124  0.2260
 5008W        W 9208   3.785   2.419   1.234 -0.0164  0.2989  0.0593
 5009W        W 9209   3.331   0.540  10.558 -0.2610  0.3640  0.1333
 5010W        W 9210  10.403   4.018   3.058 -0.1083 -0.2045 -0.0772
 5011W        W 9211   4.598   9.964  13.401  0.0950 -0.2823  0.0066
 5012W        W 9212   5.073  10.353   9.762 -0.0863 -0.2894 -0.1775
 5013W        W 9213   7.085   1.682   3.342 -0.2139  0.3821 -0.1523
 5014W        W 9214   3.625  10.434  11.868  0.1215  0.2436  0.0152
 5015W        W 9215   9.222   4.721  11.723  0.1521 -0.0272 -0.1872
 5016W        W 9216   5.855   9.972   2.812 -0.0177 -0.0017  0.3996
 5017W        W 9217   6.899   7.318  12.414  0.0385 -0.1422 -0.2482
 5018W        W 9218   2.094   5.602  10.714  0.0421 -0.2479  0.2078
 5019W        W 9219   0.306  10.180   1.696  0.0131 -0.0782  0.1689
 5020W        W 9220   4.237   8.839   2.447 -0.0170 -0.2438  0.1252
 5021W        W 9221   9.177   8.010  10.082 -0.2442  0.4961 -0.1127
 5022W        W 9222   2.586   8.201   9.546 -0.4032  0.2334  0.1043
 5023W        W 9223   4.808   5.160   3.938  0.0838  0.2205  0.1719
 5024W        W 9224   3.585   4.555  11.816  0.1470 -0.1757  0.1489
 5025W        W 9225   5.425  10.047  10.051  0.1940  0.1302  0.2736
 5026W        W 9226   4.857   7.752  12.558  0.1426 -0.0134 -0.3201
 5027W        W 9227   8.238   7.576   9.948  0.3625  0.0746  0.2559
 5028W        W 9228   9.175   2.217  11.719  0.0003  0.1583  0.0500
 5029W        W 9229   8.291   5.846   2.049  0.0771  0.2788 -0.1208
 5030W        W 9230   2.791   6.431   4.097  0.0627 -0.1052  0.0228
 5031W        W 9231   2.048   5.391  12.740  0.3611  0.0828 -0.1336
 5032W        W 9232   8.657   7.920   2.118 -0.0768 -0.2042 -0.3632
 5033W        W 9233   8.977   5.013  11.365  0.3944  0.0633 -0.1859
 5034W        W 9234   7.611   0.161   9.396 -0.0680  0.2586 -0.1481
 5035W        W 9235   2.248   7.393   1.472 -0.3578  0.2423  0.2760
 5036W        W 9236   7.225   9.869   2.053  0.2007 -0.1106 -0.1536
 5037W        W 9237   9.434   2.913  11.731  0.2054 -0.2807 -0.0084
 5038W        W 9238   6.804   1.998  10.235  0.0412  0.1057  0.0393
 5039W        W 9239   0.195   5.739  12.459  0.0524  0.0917  0.3078
 5040W        W 9240   2.483   3.509   3.742  0.1503 -0.0574  0.2343
 5041W        W 9241  10.247   1.996  12.806 -0.2337  0.2108 -0.1194
 5042W        W 9242   0.492   8.874   0.805  0.1482 -0.0804 -0.0466
 5043W        W 9243   1.610   1.053   3.509 -0.2247  0.2288 -0.1020
 5044W        W 9244   2.535   7.638  11.848 -0.1868  0.2605 -0.1890
 5045W        W 9245   7.452   2.732   2.571 -0.1699  0.2847  0.0310
 5046W        W 9246   7.460   6.263   1.979  0.1755  0.0744  0.2033
 5047W        W 9247   6.808   8.673   1.941 -0.0208  0.1124  0.1725
 5048W        W 9248   0.609   6.669  11.421  0.1953 -0.0633 -0.2238
 5049W        W 9249   3.810  10.363   3.751  0.2349  0.0147 -0.0598
 5050W        W 9250   0.393   5.083   9.030  0.0829 -0.1548 -0.1228
 5051W        W 9251   6.771   4.580   3.298 -0.0628 -0.0054 -0.1307
 5052W        W 9252   9.804   5.932   0.544 -0.1312 -0.0254  0.0697
 5053W        W 9253   9.807   0.935   1.027  0.0664  0.1580 -0.0784
 5054W        W 9254   7.330   7.317  12.193  0.1884 -0.1801  0.0445
 5055W        W 9255   5.794   9.256  13.006 -0.2210 -0.1033 -0.1483
 5056W        W 9256   6.180   3.523   1.589 -0.2616 -0.0728  0.1412
 5057W        W 9257   4.621   3.790  11.190  0.0147 -0.0331  0.2806
 5058W        W 9258   6.648   4.559  12.067  0.0832 -0.0618 -0.1782
 5059W        W 9259   2.495   4.859  10.145  0.2770 -0.0489  0.1724
 5060W        W 9260   7.255   2.985   3.577  0.0676 -0.1015 -0.2840
 5061W        W 9261   5.917   6.436   2.591 -0.2938  0.1316  0.1017
 5062W        W 9262   4.809   9.363   2.403 -0.0325 -0.0095  0.1681
 5063W        W 9263   3.220   9.811   3.561  0.0838  0.0324  0.0252
 5064W        W 9264   6.629  10.291   2.438  0.0180  0.1393 -0.0606
 5065W        W 9265   2.566   9.895  10.556  0.2002 -0.1034  0.0183
 5066W        W 9266   9.438   6.033   2.171 -0.3231  0.1355  0.0140
 5067W        W 9267   9.622   4.727   9.079  0.0753 -0.1069  0.3044
 5068W        W 9268   1.765   4.216  10.272 -0.0377 -0.2376 -0.2086
 5069W        W 9269   4.356   0.233   3.438 -0.1787 -0.0104  0.0618
 5070W        W 9270   5.284   1.323   9.570  0.2488  0.3255 -0.0508
 5071W        W 9271   2.876   7.182  10.687  0.2138  0.1561  0.0045
 5072W        W 9272   9.417   6.605   9.021  0.2871  0.3741  0.1442
 5073W        W 9273   3.739   6.791   3.928 -0.1176 -0.1707  0.3578
 5074W        W 9274   1.902   4.349  10.809 -0.1315  0.4719  0.1226
 5075W        W 9275   9.876   1.524   3.221  0.0194 -0.0835  0.1551
 5076W        W 9276   4.771   2.992   0.767  0.2124  0.0764 -0.2073
 5077W        W 9277   5.499   6.173   3.838 -0.0041  0.2173  0.3789
 5078W        W 9278   2.551   8.623   4.850 -0.0201 -0.2062 -0.4195
 5079W        W 9279   2.138   9.040  13.400  0.2433 -0.1907 -0.3283
 5080W        W 9280   7.765   9.296  10.123 -0.1837  0.3608  0.1256
 5081W        W 9281  10.150   1.067   4.148  0.0593 -0.1214 -0.0547
 5082W        W 9282   0.991   6.657  13.191 -0.0488 -0.0684 -0.0764
 5083W        W 9283   5.421   4.781   9.894  0.2156 -0.0909 -0.2964
 5084W        W 9284   1.909   0.246  13.342  0.2435 -0.2359 -0.0303
 5085W        W 9285   7.804   7.889   9.321  0.2633  0.1998  0.1218
 5086W        W 9286   5.356   2.821   8.196 -0.1270 -0.0657 -0.2683
 5087W        W 9287   9.973   4.971  11.338  0.0958  0.0869 -0.3163
 5088W        W 9288   9.686   1.861   0.643  0.0727 -0.0046 -0.0134
 5089W        W 9289   7.555   5.815   2.491  0.0677  0.3130 -0.1546
 5090W        W 9290   3.436   7.564   3.391  0.0358  0.2691 -0.3012
 5091W        W 9291   9.875   8.308   3.996  0.4590  0.0970 -0.2085
 5092W        W 9292   4.818   2.880  11.201  0.1284 -0.2306 -0.2010
 5093W        W 9293   9.739   8.976   2.211  0.2188  0.4019 -0.0714
 5094W        W 9294  10.094   7.725   2.795 -0.2893  0.0413  0.1679
 5095W        W 9295   6.403   4.386   2.313 -0.3654  0.0591 -0.0034
 5096W        W 9296   3.099   9.398   3.296 -0.1125  0.3069 -0.0942
 5097W        W 9297   3.449   6.322  13.149 -0.3063 -0.3474  0.0914
 5098W        W 9298   4.659   0.163   1.134 -0.2073  0.1523  0.2874
 5099W        W 9299   9.943   0.943  13.130 -0.2900 -0.3073 -0.2177
 5100W        W 9300   3.227   5.739   0.802  0.3100 -0.1220 -0.1256
 5101W        W 9301   0.936   8.975  12.286 -0.0726 -0.4861 -0.0026
 5102W        W 9302   6.466   8.217  13.021  0.2053  0.0444 -0.1693
 5103W        W 9303   2.830   9.283   2.345  0.0718  0.0925 -0.2173
 5104W        W 9304   8.736   7.433   2.330  0.2697  0.0287 -0.2179
 5105W        W 9305   7.456   7.546   0.442  0.0055  0.0769 -0.0055
 5106W        W 9306   0.278   5.978   2.157 -0.0844 -0.3548 -0.0655
 5107W        W 9307   6.041   7.483   2.758 -0.0012  0.2871 -0.1554
 5108W        W 9308   2.185   9.623   4.398 -0.0923  0.0214 -0.2912
 5109W        W 9309   4.001   5.937  12.085  0.1067 -0.0776 -0.1358
 5110W        W 9310   3.787   9.037  10.335  0.4837  0.0791  0.0722
 5111W        W 9311   3.108   0.593  13.393 -0.2492  0.4675 -0.0881
 5112W        W 9312   3.986   5.267   4.765 -0.1537  0.0549 -0.3685
 5113W        W 9313   6.494   5.047   3.526  0.2410 -0.0395 -0.0721
 5114W        W 9314   5.948   8.858   3.007 -0.1760 -0.2199 -0.1114
 5115W        W 9315   6.851   4.941  12.919  0.1124 -0.5141  0.2384
 5116W        W 9316   4.987   5.399  10.456 -0.2171 -0.2644  0.0351
 5117W        W 9317   9.358   7.900   2.935  0.0145  0.1698 -0.1420
 5118W        W 9318  10.139   2.655  11.503 -0.5238 -0.0359 -0.2690
 5119W        W 9319   4.325   2.131  12.625  0.0970  0.3281  0.1667
 5120W        W 9320   3.558   7.661  11.977 -0.2959 -0.0676 -0.2261
 5121W        W 9321   1.358   5.279  11.667  0.0917 -0.0886  0.1116
 5122W        W 9322   0.439   6.794   1.512  0.1776 -0.0174 -0.1392
 5123W        W 9323   2.554   1.539   1.333 -0.0680  0.2987  0.2797
 5124W        W 9324  10.041   1.626   9.634 -0.0205  0.4301  0.2503
 5125W        W 9325   7.351   5.565   0.735 -0.0886  0.0577  0.0905
 5126W        W 9326   8.846   5.609   1.993 -0.1425  0.2183 -0.0207
 5127W        W 9327   9.654   6.914   9.577  0.0218 -0.0467 -0.2201
 5128W        W 9328   6.184   5.593   2.293  0.1801 -0.1217  0.1932
 5129W        W 9329   4.041   4.494   2.653  0.1175  0.2660 -0.4454
 5130W        W 9330   2.190   7.169   2.899  0.0953 -0.1998 -0.1104
 5131W        W 9331   0.789   5.463   4.395  0.1414 -0.1125  0.3432
 5132W        W 9332   5.432   4.062   1.300 -0.2038 -0.0657  0.1164
 5133W        W 9333   0.222   6.128   2.661  0.0797 -0.0317 -0.0351
 5134W        W 9334   0.598   8.493  12.942 -0.0345 -0.0273 -0.0688
 5135W        W 9335   2.656   7.218   3.153  0.0018 -0.0282  0.0031
 5136W        W 9336   7.849   3.872   4.310  0.0820  0.2296  0.3829
 5137W        W 9337   1.847   9.219   3.686  0.2028  0.0113 -0.0045
 5138W        W 9338   6.836   7.339   2.352  0.1797 -0.1893 -0.0692
 5139W        W 9339   0.247  10.367  10.365 -0.2114  0.3439  0.1734
 5140W        W 9340   6.639   7.073  11.286 -0.0872 -0.1651  0.1790
 5141W        W 9341   3.739   7.231   2.321  0.0150  0.4080 -0.0741
 5142W        W 9342   1.616   8.794   2.599 -0.0362 -0.0959  0.1155
 5143W        W 9343   6.431   8.143   0.800  0.0273  0.3931 -0.0546
 5144W        W 9344   8.341   4.944   9.510 -0.0286 -0.1094 -0.0644
 5145W        W 9345  10.217   9.290  13.229 -0.2339 -0.1565  0.3008
 5146W        W 9346   7.366   9.257   1.340 -0.1346  0.0353  0.0348
 5147W        W 9347   2.237   2.725   8.104 -0.3338 -0.0432 -0.0220
 5148W        W 9348   7.913  10.010  10.933  0.0962  0.1341 -0.0765
 5149W        W 9349   6.774   7.648   9.126  0.2159 -0.0674 -0.2971
 5150W        W 9350   0.942   4.035   1.853  0.1677 -0.1670 -0.0183
 5151W        W 9351   6.520   4.140  12.392 -0.5943 -0.2832 -0.1154
 5152W        W 9352   0.747   3.960   4.079 -0.0803  0.2204  0.0211
 5153W        W 9353   7.819   4.141  13.131  0.2371 -0.1969 -0.0937
 5154W        W 9354   0.928   0.644   3.871  0.1609  0.3384 -0.0269
 5155W        W 9355   7.445   4.920  12.784  0.4618 -0.1079  0.2618
 5156W        W 9356   7.843   7.361   3.723  0.0697  0.0817 -0.0717
 5157W        W 9357   2.788   0.395   9.529  0.2345 -0.2193  0.2500
 5158W        W 9358   5.998   8.049   0.506  0.1070 -0.1946 -0.1401
 5159W        W 9359   7.383   9.147   0.871 -0.2558 -0.1693 -0.1486
 5160W        W 9360   9.715   3.765   9.337 -0.1409  0.1107 -0.2269
 5161W        W 9361   0.687   7.644   1.203  0.2852 -0.0563  0.1810
 5162W        W 9362   8.063   1.684   3.143  0.1386  0.0893 -0.1619
 5163W        W 9363   2.136   6.345   3.018 -0.1430 -0.1844  0.0176
 5164W        W 9364   8.465   6.491   8.547  0.0615  0.2555  0.1337
 5165W        W 9365   5.756   9.037  11.188 -0.0649  0.2743  0.0287
 5166W        W 9366   4.029   3.228   1.622 -0.0065  0.1514 -0.1925
 5167W        W 9367   0.941   8.881   0.559 -0.2404 -0.0003 -0.0464
 5168W        W 9368   7.001   1.790  12.511  0.2789  0.0616 -0.1352
 5169W        W 9369   1.846   8.587   9.322  0.1859  0.1138  0.0722
 5170W        W 9370   6.674   5.240   2.211 -0.0476 -0.2691  0.0081
 5171W        W 9371   4.012   1.993  11.597  0.2771  0.2182 -0.0388
 5172W        W 9372   1.461   8.258   2.742  0.1247  0.0290  0.1533
 5173W        W 9373   8.936   3.197  10.247 -0.0516 -0.3132 -0.2825
 5174W        W 9374   5.524   2.774   4.962 -0.2293 -0.3305 -0.2199
 5175W        W 9375   6.069   7.648   3.666  0.1220  0.0289 -0.6311
 5176W        W 9376   1.886   3.503   1.947 -0.2223  0.5601 -0.0512
 5177W        W 9377   0.552   8.763  12.534  0.0907  0.2740  0.3839
 5178W        W 9378   2.701   8.240  12.641 -0.0362  0.3174  0.2505
 5179W        W 9379   2.385   2.744   4.283 -0.0125 -0.0274  0.3002
 5180W        W 9380   8.235   8.988   0.110  0.1188 -0.1128 -0.0612
 5181W        W 9381   7.240   6.512  11.798  0.0975 -0.0422 -0.2519
 5182W        W 9382   7.939   8.670  10.539  0.4899  0.2615  0.3206
 5183W        W 9383   8.606   6.418   3.065  0.1252 -0.2535  0.3509
 5184W        W 9384   0.004   6.715   1.292 -0.0110 -0.2201  0.1297
 5185W        W 9385   0.156   8.641   1.899  0.0753 -0.0313 -0.2686
 5186W        W 9386   8.762   4.030   4.676  0.1443 -0.0793 -0.1650
 5187W        W 9387   0.403   4.037   3.159  0.1333  0.2118 -0.1134
 5188W        W 9388   0.917   5.347   3.905  0.1259  0.2442  0.0432
 5189W        W 9389   1.984   2.432   9.457  0.2004  0.1358 -0.0906
 5190W        W 9390   4.425  10.028   1.610  0.0028  0.0620  0.2196
 5191W        W 9391   9.291   6.529   2.803 -0.0886  0.3132 -0.1295
 5192W        W 9392   7.512   5.831   8.264  0.0943 -0.0560  0.0587
 5193W        W 9393   4.593   0.190   3.007 -0.0611 -0.1338 -0.3729
 5194W        W 9394   2.926   5.348   2.957  0.5798 -0.1953  0.0292
 5195W        W 9395   7.552   4.858   2.551 -0.0834 -0.1425  0.2290
 5196W        W 9396   9.437  10.473  11.797  0.0541  0.0811  0.0022
 5197W        W 9397   9.651   0.265   1.914 -0.2182 -0.1884  0.2636
 5198W        W 9398   2.165   4.665  10.488 -0.1168 -0.1469 -0.0017
 5199W        W 9399   6.641   3.500  10.177  0.0316  0.0328 -0.2242
 5200W        W 9400   6.842   0.694   1.354 -0.2393 -0.1275  0.1791
 5201W        W 9401   6.527   8.939  12.204  0.0236 -0.1565 -0.0182
 5202W        W 9402   6.498   4.018   3.399  0.3556 -0.2884  0.0440
 5203W        W 9403   2.715   3.882  12.519 -0.1805  0.2282  0.2146
 5204W        W 9404   9.821   6.405   0.462 -0.1710  0.1180 -0.0007
 5205W        W 9405   2.261   3.666   9.672  0.0365 -0.0898 -0.0559
 5206W        W 9406   7.529   8.733   3.527 -0.0543 -0.0370 -0.0366
 5207W        W 9407   8.341   1.297   0.950  0.1455  0.0017  0.0452
 5208W        W 9408   7.482   9.650   2.913  0.1873 -0.2404 -0.0676
 5209W        W 9409   9.601   6.298   4.430  0.3767  0.1998 -0.2153
 5210W        W 9410   8.280   3.950   1.640  0.3157 -0.0194 -0.1766
 5211W        W 9411   6.792   3.293   1.037  0.2479  0.0702  0.4446
 5212W        W 9412   5.871   2.641  11.936 -0.2574  0.3067 -0.1489
 5213W        W 9413   6.197   3.734   2.967  0.3415  0.0592 -0.2841
 5214W        W 9414   5.013   4.289   1.144 -0.2674  0.1518  0.0841
 5215W        W 9415   6.828  10.187   1.266  0.0742 -0.2298 -0.0108
 5216W        W 9416   2.024   7.972  11.429  0.1364  0.2354  0.0161
 5217W        W 9417   1.183   4.824  11.741  0.0238  0.2591 -0.1148
 5218W        W 9418   2.189   1.617   9.972  0.1902 -0.1845  0.1715
 5219W        W 9419   6.645   9.243   2.526 -0.1466  0.0874 -0.0227
 5220W        W 9420   7.527   4.377   8.942  0.0867 -0.1094 -0.1243
 5221W        W 9421   9.937   9.043  10.597  0.2025 -0.1216 -0.0063
 5222W        W 9422   8.974   0.621   0.600  0.0949 -0.1415 -0.0516
 5223W        W 9423   4.472   5.981   3.597  0.0184 -0.3621 -0.2079
 5224W        W 9424   7.300   0.479   1.469 -0.1791 -0.4368  0.1226
 5225W        W 9425   2.950   1.815   1.118 -0.0097 -0.0114 -0.0350
 5226W        W 9426   1.090   8.238  13.052 -0.0867  0.1765 -0.0534
 5227W        W 9427   3.243   4.435   0.659 -0.0947  0.1148  0.2503
 5228W        W 9428   4.738   5.073   0.496 -0.1160  0.2596  0.0581
 5229W        W 9429   4.825   5.896   4.483  0.0907  0.2446  0.3701
 5230W        W 9430   7.924   4.026   9.445  0.2860 -0.1854  0.2269
 5231W        W 9431   5.716   4.072   3.854  0.1239 -0.0844  0.2716
 5232W        W 9432   4.446   7.057   2.349 -0.1789  0.3617 -0.0908
 5233W        W 9433   1.236   8.741   4.144 -0.0912 -0.3349 -0.0399
 5234W        W 9434  10.039   9.530  11.255 -0.6131  0.0402 -0.1775
 5235W        W 9435   8.587   6.487   9.081 -0.0973  0.1951 -0.2318
 5236W        W 9436   6.291   9.867  10.898 -0.2157 -0.0757  0.1460
 5237W        W 9437   2.385   0.616   1.170 -0.2714 -0.1853  0.0003
 5238W        W 9438   9.880   9.060  11.123 -0.2839  0.2090  0.2866
 5239W        W 9439   9.562   9.537  10.975  0.0840  0.3053  0.2556
 5240W        W 9440   9.249   5.927  12.803 -0.1225  0.2146  0.0450
 5241W        W 9441   2.262   6.837   1.289  0.0812  0.1009  0.0480
 5242W        W 9442   1.870   2.965  13.040  0.4724  0.2815 -0.3711
 5243W        W 9443   4.762   1.149  13.446 -0.1874  0.0709 -0.4704
 5244W        W 9444   5.608   2.153   3.731 -0.2717 -0.0911  0.2065
 5245W        W 9445   5.282   7.578  10.236  0.0141 -0.0725  0.2409
 5246W        W 9446   8.707   6.762   9.716 -0.0949  0.1234  0.2941
 5247W        W 9447   2.345   2.322   0.528 -0.0250 -0.5840 -0.2078
 5248W        W 9448   2.812   8.167  10.006 -0.0444 -0.1957  0.1207
 5249W        W 9449   6.660   2.660   3.007 -0.0067 -0.1172 -0.1447
 5250W        W 9450   3.519   7.624   3.892  0.1118  0.2222  0.0950
 5251W        W 9451   7.261   7.037  11.735 -0.0302 -0.0338  0.0610
 5252W        W 9452  10.147   9.026  12.073 -0.2172  0.0362 -0.0581
 5253W        W 9453   4.191   9.738  13.101  0.0963 -0.2136 -0.0579
 5254W        W 9454   7.533   5.451   9.794  0.2245 -0.0883 -0.2377
 5255W        W 9455   0.781   3.516  11.178 -0.2680  0.1249  0.1002
 5256W        W 9456   3.109   1.311  12.407  0.0709  0.2027 -0.0819
 5257W        W 9457   2.062   5.730  10.179  0.1526 -0.1207  0.0160
 5258W        W 9458   9.768   7.040   4.036  0.1137  0.0286  0.2201
 5259W        W 9459   4.023   7.113   2.813  0.2199  0.0087 -0.2264
 5260W        W 9460   6.759   3.196   9.258  0.0897 -0.2254  0.0509
 5261W        W 9461   7.348   2.923  12.882  0.1450 -0.0059  0.1447
 5262W        W 9462   8.305   5.063  13.359  0.2750  0.0349  0.0713
 5263W        W 9463   9.549   9.345   0.256 -0.1123 -0.0048  0.2067
 5264W        W 9464   6.871   5.247   3.230  0.0859  0.0561  0.1350
 5265W        W 9465   7.155   9.537  10.982 -0.5440 -0.0290  0.1364
 5266W        W 9466   5.960   1.392   2.232 -0.2236 -0.0044 -0.3339
 5267W        W 9467   7.840   0.069   0.662 -0.1385 -0.0647  0.3079
 5268W        W 9468   7.130   2.053   1.814 -0.1691  0.0351  0.1972
 5269W        W 9469   0.696   0.569   0.540 -0.3494  0.1010 -0.3323
 5270W        W 9470   2.334   0.797  12.066 -0.1738 -0.1760  0.1050
 5271W        W 9471   9.247   0.510  10.129  0.0025  0.0044  0.2034
 5272W        W 9472   4.116   9.739   3.357  0.1421 -0.0252  0.3067
 5273W        W 9473   6.630   2.852   0.142  0.1214 -0.2533 -0.0976
 5274W        W 9474   5.627   4.801  10.838 -0.0338 -0.1372  0.0165
 5275W        W 9475   7.065   5.343   3.853 -0.0911  0.0762 -0.1961
 5276W        W 9476   6.382   5.041  11.959  0.0181  0.2249  0.2016
 5277W        W 9477   6.809   5.370  11.198 -0.0479  0.0250 -0.3445
 5278W        W 9478   7.852   0.762  12.075 -0.1951 -0.0857 -0.3112
 5279W        W 9479   6.959   3.128  12.589  0.1254  0.1731 -0.1388
 5280W        W 9480   9.920   0.751   1.918  0.0658 -0.3492 -0.0176
 5281W        W 9481   4.425   2.539  12.220 -0.1291 -0.1295  0.1139
 5282W        W 9482   9.535   1.170   2.095  0.2229  0.1441  0.6097
 5283W        W 9483   8.146   9.487   0.337  0.0626 -0.0826 -0.0550
 5284W        W 9484   3.789   0.659   2.739 -0.0171 -0.0877  0.0374
 5285W        W 9485   7.369   6.224   4.246  0.4675 -0.0538  0.2001
 5286W        W 9486   0.592   4.281  11.038 -0.1933  0.1879 -0.0706
 5287W        W 9487   3.028   2.306   1.736 -0.0101 -0.2666  0.3638
 5288W        W 9488   3.158   2.182  10.135  0.1280  0.0275 -0.2204
 5289W        W 9489   0.960   1.777  11.541  0.3853 -0.0595  0.0160
 5290W        W 9490   0.367   2.900  11.937  0.0803 -0.1255 -0.1876
 5291W        W 9491   9.913   7.631   1.179  0.0366 -0.1917 -0.1693
 5292W        W 9492   3.536   2.583   2.831 -0.2558 -0.0204 -0.0665
 5293W        W 9493   5.129   6.379   1.682  0.0548  0.2353 -0.2198
 5294W        W 9494   5.437   3.749   3.435 -0.3862  0.1845  0.3001
 5295W        W 9495   2.209   1.689   4.211  0.3552  0.0757 -0.2314
 5296W        W 9496  10.393   5.195   4.090  0.1485  0.0489 -0.1895
 5297W        W 9497   9.903   4.746  10.427  0.0837 -0.2343  0.1233
 5298W        W 9498   1.422   9.381   1.012 -0.1349  0.2100 -0.2138
 5299W        W 9499   7.228   6.321  12.354  0.0360 -0.0383 -0.1315
 5300W        W 9500   8.561   5.845   2.958 -0.0686  0.3177 -0.1507
 5301W        W 9501   3.674   2.255  11.807 -0.0690 -0.0119 -0.2696
 5302W        W 9502   3.885   9.465   9.429  0.0083  0.1297 -0.0196
 5303W        W 9503   9.529   2.320   9.532 -0.2983  0.1404  0.0638
 5304W        W 9504   5.173   6.628   0.731  0.0312  0.1170 -0.3723
 5305W        W 9505   1.804   5.782   2.984  0.0317 -0.2464 -0.1065
 5306W        W 9506   9.056   5.166  12.616  0.2747 -0.0123  0.1436
 5307W        W 9507   4.609   5.836   8.752 -0.0499  0.0135 -0.1962
 5308W        W 9508   5.932   6.187  11.079 -0.0467  0.1264 -0.2999
 5309W        W 9509   3.512   5.633   3.042 -0.4141  0.0937  0.0730
 5310W        W 9510   1.467   6.733   1.757  0.1024 -0.0107 -0.0899
 5311W        W 9511   1.849   2.957   1.058  0.0779  0.1127 -0.0545
 5312W        W 9512   8.382   2.341   0.605 -0.0610  0.1384  0.1563
 5313W        W 9513   7.435   1.839  10.846  0.1316 -0.0871 -0.1760
 5314W        W 9514   8.287   4.050   9.908 -0.0334 -0.0828  0.0086
 5315W        W 9515   1.720   6.697   2.226 -0.3147  0.0589 -0.0539
 5316W        W 9516   0.891   5.610   1.243  0.2537  0.2561 -0.0698
 5317W        W 9517   0.592   9.172   2.638  0.0102 -0.1280  0.0749
 5318W        W 9518   3.579   7.779  11.444 -0.0636  0.2173  0.4619
 5319W        W 9519   2.181   9.601   0.668 -0.3604  0.0919 -0.2699
 5320W        W 9520   8.694   7.305   3.797 -0.0814  0.1713  0.0403
 5321W        W 9521  10.360   1.388   3.031  0.1466  0.0573 -0.3272
 5322W        W 9522   4.247   0.307   4.319  0.0753  0.0647  0.0143
 5323W        W 9523   9.270   6.087   3.769  0.0694 -0.2114 -0.0365
 5324W        W 9524   4.811   4.832   0.001  0.3550 -0.0134  0.0301
 5325W        W 9525   9.796   6.260   1.012 -0.3375 -0.0657  0.3556
 5326W        W 9526   3.547   5.557   3.580  0.0690  0.1744  0.3082
 5327W        W 9527   1.629   4.703  10.444  0.0422 -0.3861 -0.0809
 5328W        W 9528   1.995   3.246  12.043 -0.0146 -0.2657 -0.2094
 5329W        W 9529   5.501   1.307   0.109 -0.0747 -0.1043 -0.1338
 5330W        W 9530   0.560   6.579  12.139 -0.3475  0.2885  0.0829
 5331W        W 9531   4.438   6.622   8.978 -0.0916  0.0798  0.0118
 5332W        W 9532   7.989  10.173   3.335  0.3092 -0.2479 -0.0648
 5333W        W 9533   5.724   7.745  10.931  0.2762 -0.0730  0.0234
 5334W        W 9534   9.528   5.121  10.468  0.2079 -0.2875  0.0421
 5335W        W 9535   2.736   3.559   9.847 -0.2220 -0.1065  0.0902
 5336W        W 9536   4.054   4.008   2.422 -0.0851  0.0131  0.0627
 5337W        W 9537   6.943   2.061  13.160  0.1878 -0.2129  0.0920
 5338W        W 9538   5.869   1.347   4.207  0.0561  0.4026 -0.2343
 5339W        W 9539   1.397   4.515  10.034  0.0410 -0.3089  0.2143
 5340W        W 9540   6.219   1.176   0.820  0.0188  0.0939 -0.1449
 5341W        W 9541   1.406   6.978  11.925  0.1600 -0.2146 -0.2352
 5342W        W 9542   0.629   4.485  12.288 -0.1833 -0.1582 -0.0483
 5343W        W 9543   8.199   8.099   0.169 -0.4070  0.0287  0.1294
 5344W        W 9544   9.205   9.237  10.205 -0.1144 -0.1463 -0.1187
 5345W        W 9545   1.901  10.339   1.048  0.0011 -0.0332  0.0684
 5346W        W 9546  10.059   9.229   9.903 -0.2999 -0.3790 -0.1116
 5347W        W 9547   5.756  10.432  12.311 -0.0106 -0.1942 -0.2446
 5348W        W 9548   8.421   7.467   0.501  0.0087 -0.2350  0.3106
 5349W        W 9549   7.275   5.757   4.011  0.1943  0.1866 -0.0662
 5350W        W 9550   9.375   9.791   2.156 -0.0789  0.1185 -0.1210
 5351W        W 9551   4.292   3.086  11.081 -0.0955 -0.0421 -0.3050
 5352W        W 9552   4.585   7.040   9.713  0.0655 -0.3073 -0.0284
 5353W        W 9553   5.126   9.572   0.043 -0.1691  0.3289 -0.1268
 5354W        W 9554   0.904   5.037   1.656  0.1801 -0.1606 -0.0967
 5355W        W 9555   2.305   1.338  11.963 -0.0546  0.2125 -0.1868
 5356W        W 9556   7.137   4.545   2.551  0.1045  0.2845  0.0367
 5357W        W 9557   8.278   3.433   4.143 -0.0932  0.0953  0.4081
 5358W        W 9558   9.097   0.461  13.147 -0.4123  0.2584 -0.0170
 5359W        W 9559   9.655   7.449   2.743  0.0996  0.2651  0.0630
 5360W        W 9560   5.873   5.177  10.517  0.3826 -0.1996 -0.1437
 5361W        W 9561   7.288   1.290   0.205  0.0294  0.2435 -0.0319
 5362W        W 9562   0.590   1.942   9.553 -0.0027 -0.1191 -0.2246
 5363W        W 9563   2.335   3.155   2.031  0.0595 -0.1239 -0.0904
 5364W        W 9564   5.019   8.467   9.374 -0.3362 -0.2549  0.0252
 5365W        W 9565   9.528   6.395   1.648 -0.0559 -0.1367  0.2214
 5366W        W 9566   9.525   5.974  12.320 -0.0527  0.1285 -0.2267
 5367W        W 9567   1.433   0.587  12.008 -0.1512  0.0080 -0.2715
 5368W        W 9568  10.407   6.082   4.692  0.2829 -0.0769  0.0396
 5369W        W 9569   8.721   4.902  11.839 -0.0518 -0.3124  0.0779
 5370W        W 9570   3.144   7.632  11.611 -0.0974  0.3402 -0.0572
 5371W        W 9571   7.378   1.299  13.175 -0.3015  0.2794 -0.1919
 5372W        W 9572   0.767  10.436  12.409 -0.1903  0.0926  0.1286
 5373W        W 9573  10.396   6.977   1.697 -0.0114  0.1648 -0.0136
 5374W        W 9574  10.234   4.947  12.260 -0.2068 -0.0987  0.2614
 5375W        W 9575   0.749   1.947  11.988  0.2356 -0.0766  0.1099
 5376W        W 9576   1.000   6.677   0.275 -0.0252 -0.4641 -0.1195
 5377W        W 9577   9.991   2.089   0.285 -0.0017 -0.2696  0.1364
 5378W        W 9578   1.403   4.581   4.263 -0.0471 -0.0886  0.0146
 5379W        W 9579   7.730   5.861  12.810  0.0172  0.0216  0.2072
 5380W        W 9580   8.857   5.289   9.691 -0.0790 -0.4499 -0.0124
 5381W        W 9581   5.678   6.509   0.582 -0.2209  0.1069 -0.2162
 5382W        W 9582   5.594   9.690   0.274  0.1491  0.1277 -0.1091
 5383W        W 9583   9.782   1.804  10.890  0.2131 -0.4045 -0.0408
 5384W        W 9584   8.184  10.295  13.262  0.0904 -0.1137  0.0560
 5385W        W 9585   7.877   2.428   2.489 -0.0315 -0.1354 -0.1261
 5386W        W 9586   5.914   0.363  11.001 -0.0094  0.0042  0.0595
 5387W        W 9587   7.771   9.088   0.155 -0.0109 -0.2951  0.2652
 5388W        W 9588   8.440   7.861  11.739 -0.0426  0.1678  0.1039
 5389W        W 9589   2.267  10.180   3.623  0.3381 -0.3601 -0.6812
 5390W        W 9590   7.783   4.030   0.459  0.0433 -0.0923 -0.3821
 5391W        W 9591   4.659   1.983   3.275 -0.1513  0.0381  0.2077
 5392W        W 9592   6.714   7.815   4.280 -0.2654 -0.1812 -0.3437
 5393W        W 9593  10.110   9.087  12.736  0.2011  0.2098 -0.0433
 5394W        W 9594   6.577   8.262  11.377 -0.0251 -0.1493  0.1490
 5395W        W 9595   7.978   9.476   2.721  0.1393 -0.2775 -0.2241
 5396W        W 9596   4.611   6.360   1.545  0.0831 -0.1372 -0.0972
 5397W        W 9597   4.637   3.515   1.514 -0.1412  0.1956 -0.2407
 5398W        W 9598   4.458   5.640  10.849 -0.0217  0.1247  0.1139
 5399W        W 9599   8.053   5.396   4.025 -0.0862  0.1998 -0.2918
 5400W        W 9600   2.523   2.745  10.835 -0.0811 -0.0178 -0.0338
 5401W        W 9601   6.642  10.016   0.484  0.3032  0.0998 -0.0092
 5402W        W 9602   5.994   1.639  11.489 -0.1599  0.0942 -0.0301
 5403W        W 9603   7.287   5.675   4.988  0.1059  0.0852  0.2042
 5404W        W 9604   4.353  10.252  10.945  0.0507 -0.2120 -0.2436
 5405W        W 9605   3.250   1.300   9.963  0.0756 -0.1102 -0.0843
 5406W        W 9606   9.665   8.485   2.348  0.1099 -0.0325 -0.3603
 5407W        W 9607  10.114   2.091   2.047 -0.1187  0.0712 -0.2365
 5408W        W 9608   9.888   6.694   1.376  0.0422  0.1745 -0.1906
 5409W        W 9609   5.905   8.695   3.590 -0.1262 -0.2243 -0.1637
 5410W        W 9610   6.701   2.741  12.352  0.0793  0.2103 -0.1737
 5411W        W 9611   8.340   0.771   0.757 -0.0417  0.1239 -0.3536
 5412W        W 9612   3.747   7.052   9.711  0.0243  0.1636 -0.0233
 5413W        W 9613   1.362   6.294   1.948  0.2988  0.1653  0.1218
 5414W        W 9614   1.612   5.743   8.907 -0.3192 -0.1335 -0.0069
 5415W        W 9615   9.612   5.614   3.762  0.2043 -0.2143 -0.1828
 5416W        W 9616   7.695   9.179   3.765  0.2360 -0.0738  0.0248
 5417W        W 9617   5.368   3.984  13.292  0.1029 -0.2633  0.2300
 5418W        W 9618   2.897   9.521   2.837  0.0485 -0.2811 -0.0782
 5419W        W 9619   4.544   0.255   8.936  0.1812  0.0093  0.1485
 5420W        W 9620   8.913   2.385  10.791 -0.0787 -0.1552 -0.0678
 5421W        W 9621   4.632   4.626   9.661  0.0240  0.2272  0.2033
 5422W        W 9622   9.739   5.085  11.878  0.1934  0.2577 -0.4021
 5423W        W 9623   6.075   0.772  12.572  0.0967  0.1304 -0.2510
 5424W        W 9624   1.019   7.944  11.517 -0.0494 -0.3067 -0.1677
 5425W        W 9625   2.646   4.709  13.245 -0.0578 -0.0236  0.1241
 5426W        W 9626   4.916   9.465   3.908  0.0950 -0.1362 -0.0057
 5427W        W 9627   6.528   4.992   0.803  0.2042  0.0508 -0.1437
 5428W        W 9628   7.208   9.981   2.535 -0.0094  0.1230 -0.0089
 5429W        W 9629   3.271   6.600   1.115  0.0460  0.0936 -0.0123
 5430W        W 9630   7.575   1.227  11.196 -0.0677 -0.2834 -0.1941
 5431W        W 9631   1.062   8.045  10.425 -0.2248  0.0178 -0.0841
 5432W        W 9632   4.836   7.443  10.052  0.2464  0.2864 -0.0049
 5433W        W 9633   0.852   9.776  10.313  0.1808 -0.0026  0.2687
 5434W        W 9634   8.011   2.548   9.363  0.0002 -0.1283  0.1867
 5435W        W 9635   0.634   3.287  12.099  0.2162  0.1878  0.1730
 5436W        W 9636   4.596   3.952   4.586 -0.3767  0.1728 -0.0114
 5437W        W 9637   3.709   8.760   4.079 -0.0840 -0.3747  0.0093
 5438W        W 9638   0.041   5.642   3.888  0.1493 -0.0989 -0.1161
 5439W        W 9639   9.345   7.061   0.012  0.0897  0.0134  0.0178
 5440W        W 9640   2.171   2.423   4.636 -0.1404 -0.2453 -0.0088
 5441W        W 9641   1.000   2.302  11.685  0.2031 -0.0757  0.0044
 5442W        W 9642   6.014   0.166   0.922  0.0128 -0.1564  0.1638
 5443W        W 9643   3.576   7.855   1.542  0.0072 -0.0778  0.1284
 5444W        W 9644   3.657   3.638   2.532 -0.0543  0.2130 -0.2183
 5445W        W 9645   6.048   4.730   3.846  0.0448  0.3203 -0.4088
 5446W        W 9646   1.749   4.490  11.672  0.3311  0.0333  0.1695
 5447W        W 9647   9.515   6.032   5.059 -0.3149  0.0346 -0.0152
 5448W        W 9648   4.489   3.742   8.283 -0.2116  0.0131  0.0016
 5449W        W 9649   8.617   5.473   0.346 -0.2246  0.2599  0.2280
 5450W        W 9650   1.422   8.389   1.577  0.1011  0.0162  0.2439
 5451W        W 9651   8.842   2.436   1.600  0.0407 -0.1440  0.1133
 5452W        W 9652   8.310   3.682   2.077 -0.0549  0.0373  0.2064
 5453W        W 9653   6.536   1.407  12.632  0.1573 -0.0108  0.0610
 5454W        W 9654   7.907   2.131  12.121  0.0490 -0.0975  0.1655
 5455W        W 9655   3.719   6.899  13.028  0.0163  0.1085 -0.4346
 5456W        W 9656   2.776   3.105   2.339 -0.1816 -0.0278  0.0049
 5457W        W 9657   4.972   4.550   3.573 -0.2796  0.3357  0.2101
 5458W        W 9658   8.142   3.294   9.917 -0.0342 -0.4653  0.1176
 5459W        W 9659   4.790   4.218   0.666  0.2116  0.1838 -0.0616
 5460W        W 9660   8.558   6.921  12.206  0.1086 -0.0920  0.2256
 5461W        W 9661   4.992   3.709   3.350 -0.3184  0.1310 -0.1397
 5462W        W 9662   4.458   7.926   2.536 -0.4872 -0.0244  0.3397
 5463W        W 9663  10.443   6.006  12.779  0.0537  0.1080 -0.2331
 5464W        W 9664   7.312   7.660   3.136  0.0854 -0.0014 -0.3015
 5465W        W 9665   1.550   1.918   2.097  0.2011 -0.4660  0.0796
 5466W        W 9666   1.959   3.117   2.286  0.0429  0.1899  0.0654
 5467W        W 9667   5.356   0.048   8.912  0.3156  0.0385 -0.0685
 5468W        W 9668   0.620   4.312   9.557  0.2157 -0.1396 -0.3439
 5469W        W 9669   6.343   4.521   1.283  0.1235 -0.2139  0.1322
 5470W        W 9670   0.527   9.617  12.376 -0.1592 -0.1100 -0.1106
 5471W        W 9671   2.755  10.078   3.571 -0.2042 -0.3999  0.1834
 5472W        W 9672   6.119   5.227   3.081  0.4730 -0.2147 -0.5171
 5473W        W 9673   4.157   8.461  12.189  0.0603 -0.2510  0.0974
 5474W        W 9674   7.683   0.447  10.988 -0.3215 -0.4210  0.0527
 5475W        W 9675   5.301   1.778   0.919 -0.0945  0.0191 -0.5266
 5476W        W 9676   3.932   6.634   8.864  0.0324 -0.1634  0.0817
 5477W        W 9677   1.903   4.023  11.425 -0.0889  0.6719  0.0149
 5478W        W 9678   8.626   4.313  12.975  0.0760 -0.2027 -0.0169
 5479W        W 9679   3.443   1.108   1.749  0.1045  0.2481  0.3402
 5480W        W 9680   3.474   7.652   0.141  0.0541  0.4637 -0.1497
 5481W        W 9681   3.887   0.805  11.201 -0.2170  0.0792  0.2524
 5482W        W 9682   7.568   5.353   4.118  0.0315  0.2406  0.2692
 5483W        W 9683   2.281   6.526   2.278  0.2880  0.1359  0.5598
 5484W        W 9684   2.426   3.236   4.379 -0.0178  0.2344 -0.2288
 5485W        W 9685   8.409   8.045   3.663  0.1526  0.0538  0.0500
 5486W        W 9686   5.721   6.191   0.970 -0.0745 -0.0693 -0.2809
 5487W        W 9687   0.915   4.141   9.132  0.1685  0.2744 -0.0657
 5488W        W 9688   3.944   4.402   3.286 -0.0473 -0.1263  0.0554
 5489W        W 9689   7.552   0.308   1.062  0.0420  0.2395 -0.3363
 5490W        W 9690   0.345   3.790   9.670 -0.1638  0.2474  0.0165
 5491W        W 9691   2.386   9.382  10.395 -0.0270  0.1301  0.1962
 5492W        W 9692   3.091   0.742   1.505  0.1559  0.0245 -0.0895
 5493W        W 9693   7.479   0.620  11.797 -0.2093  0.3701  0.0828
 5494W        W 9694   3.980   9.341   9.952  0.1221  0.1840  0.0349
 5495W        W 9695   2.447   0.749   9.603  0.1350  0.0640 -0.0361
 5496W        W 9696   3.834   7.336   4.738 -0.0309 -0.1208 -0.2479
 5497W        W 9697   9.885   7.088  12.616  0.0861 -0.2332 -0.1779
 5498W        W 9698   4.481   3.154   2.484 -0.3527 -0.2904 -0.3680
 5499W        W 9699   4.711   8.667   0.149 -0.2166 -0.0548 -0.0531
 5500W        W 9700   4.804   7.390   3.733 -0.1367 -0.2104  0.1297
 5501W        W 9701   2.221   8.150   0.960 -0.1105  0.0422  0.0186
 5502W        W 9702   0.362   7.852  11.622  0.1745  0.0247 -0.2140
 5503W        W 9703   7.028   7.018   5.194  0.0202  0.1159  0.1211
 5504W        W 9704   3.454   3.828   0.911 -0.1269 -0.0481  0.1353
 5505W        W 9705   7.212   7.024   1.078  0.0186 -0.0864  0.2772
 5506W        W 9706   2.991   8.952   0.818  0.0459  0.0314 -0.2787
 5507W        W 9707   1.988  10.317  13.007 -0.0742  0.0223  0.1122
 5508W        W 9708   3.867   9.387   4.603  0.0493  0.3075 -0.0814
 5509W        W 9709   4.454   0.802   4.181 -0.1505 -0.3772  0.2109
 5510W        W 9710   1.828  10.340   2.265 -0.3903 -0.3666  0.2849
 5511W        W 9711   6.568   8.398   3.230 -0.3007  0.0964  0.0642
 5512W        W 9712   5.662   9.725  11.629 -0.4969  0.3154  0.3081
 5513W        W 9713   9.921   8.467   0.997 -0.0352  0.1337 -0.1459
 5514W        W 9714   6.045   4.491   1.808 -0.4101  0.2273  0.0363
 5515W        W 9715   2.321   6.864   3.331 -0.1115  0.2472 -0.0874
 5516W        W 9716   8.114   9.083  11.803  0.1113  0.2109 -0.1449
 5517W        W 9717   7.858   6.813   3.581 -0.1876  0.3925  0.0633
 5518W        W 9718   7.118   3.653  13.447 -0.1809  0.0265 -0.1793
 5519W        W 9719   6.447   8.440  10.403  0.2247  0.0886 -0.0273
 5520W        W 9720   1.632   0.651  13.248  0.1979  0.0959  0.0715
 5521W        W 9721  10.156   9.886  12.110 -0.1748  0.0255  0.2676
 5522W        W 9722   3.287   6.537   3.769  0.0586 -0.1238  0.2222
 5523W        W 9723   0.166   8.128  10.862  0.3505 -0.2703  0.0329
 5524W        W 9724   4.293   1.347  13.353 -0.1034 -0.1137 -0.0393
 5525W        W 9725   3.675   0.509   9.512  0.0028  0.0675 -0.0294
 5526W        W 9726   4.013   9.763  10.850  0.1442  0.0411  0.1280
 5527W        W 9727   9.228  10.192  11.418  0.0926 -0.0301  0.0349
 5528W        W 9728   0.648   2.880   1.437 -0.1307 -0.3579 -0.1190
 5529W        W 9729  10.306   6.207   0.625 -0.2156 -0.1532  0.1841
 5530W        W 9730   2.343   3.997  11.097  0.1355 -0.2658  0.2548
 5531W        W 9731   4.903   9.214  12.671  0.1151  0.3803 -0.1431
 5532W        W 9732   9.501   6.758  11.899  0.0015 -0.2680  0.0112
 5533W        W 9733   8.775   2.562   3.854  0.1324 -0.1915  0.1044
 5534W        W 9734   4.197   6.619  13.021  0.2374 -0.1241 -0.1080
 5535W        W 9735   4.256   0.833   2.147 -0.0513 -0.0656  0.0908
 5536W        W 9736   9.034   3.890  10.981 -0.3052  0.1086  0.0430
 5537W        W 9737   0.739   9.093   3.761 -0.2088  0.1415 -0.2171
 5538W        W 9738   3.704   6.748  10.495  0.0334  0.0004  0.1920
 5539W        W 9739   3.959   6.284   0.678  0.4248  0.1398  0.1669
 5540W        W 9740   4.185   6.052  11.101 -0.0414 -0.5211 -0.1236
 5541W        W 9741   7.209   6.127   4.766 -0.1273 -0.2811 -0.1677
 5542W        W 9742   9.055   4.200   1.782  0.1332 -0.3430  0.0301
 5543W        W 9743   8.634   0.776  10.533  0.1558 -0.0584  0.0520
 5544W        W 9744   2.506  10.112  11.933 -0.2238  0.1659 -0.1009
 5545W        W 9745   7.198   1.003  10.915 -0.2557  0.1279  0.2240
 5546W        W 9746   8.376   6.502  11.243 -0.0742  0.0869  0.0233
 5547W        W 9747   3.762   0.683   2.157 -0.3215  0.5229  0.4201
 5548W        W 9748   9.710   3.468   0.581  0.0254 -0.0057 -0.1197
 5549W        W 9749   7.331   7.895   0.775  0.0709 -0.3510  0.0797
 5550W        W 9750   8.890   8.867   1.338 -0.1970  0.2386 -0.0259
 5551W        W 9751   0.841   6.929  11.865  0.2418 -0.0680  0.0944
 5552W        W 9752   9.136   8.376   2.511  0.1871  0.0885  0.3178
 5553W        W 9753   3.890   9.834   9.867  0.1955 -0.1972 -0.0146
 5554W        W 9754   2.543   3.896  11.740 -0.0435  0.2729  0.3500
 5555W        W 9755   0.759   5.195  10.542 -0.0374  0.2020  0.0511
 5556W        W 9756   4.500   1.698  12.320  0.1437  0.0030 -0.0098
 5557W        W 9757   1.965   5.234   0.252  0.0930  0.2253 -0.0254
 5558W        W 9758   5.910   2.337  13.279 -0.2129 -0.1531 -0.2632
 5559W        W 9759   2.876   9.872   0.554 -0.1995 -0.0816 -0.0991
 5560W        W 9760  10.374   7.776  11.433 -0.0346  0.0887  0.1131
 5561W        W 9761   4.886   2.917   2.810  0.1967  0.0673  0.0376
 5562W        W 9762   8.246   7.260   4.006  0.1491  0.0605  0.0743
 5563W        W 9763   4.278   3.951   3.460 -0.1802  0.1223 -0.1813
 5564W        W 9764   7.052   3.130   4.141  0.2785 -0.0085  0.0166
 5565W        W 9765   8.913   5.845   1.297  0.1757 -0.1112  0.2962
 5566W        W 9766   3.049   9.862   8.857 -0.2854  0.0835 -0.2530
 5567W        W 9767   1.164   0.041   2.934  0.1379  0.1350 -0.0083
 5568W        W 9768   4.933   5.256  12.930  0.0739  0.1707  0.0046
 5569W        W 9769   1.076   6.371   4.442  0.0693 -0.1410  0.1674
 5570W        W 9770   0.626   6.110  10.045 -0.0971 -0.2169 -0.0087
 5571W        W 9771   6.316   3.885  10.175  0.1884  0.4986 -0.0749
 5572W        W 9772   9.501   3.804  10.419 -0.1888 -0.0288  0.1723
 5573W        W 9773   9.595   5.854   2.745  0.1463 -0.0770  0.4356
 5574W        W 9774   8.946   3.715  13.260 -0.2460  0.1735  0.1929
 5575W        W 9775   0.589   8.543   0.362  0.1396  0.0542 -0.0683
 5576W        W 9776   1.357   0.604   3.578 -0.0405 -0.0921  0.1239
 5577W        W 9777   5.217   9.142   4.221 -0.2038 -0.2315  0.1669
 5578W        W 9778   5.104   3.327   2.880  0.1190  0.2254  0.2318
 5579W        W 9779   1.479   4.556   3.718  0.2484  0.0446 -0.2695
 5580W        W 9780  10.441   3.758   9.410  0.3408  0.1951  0.2126
 5581W        W 9781   5.490   2.871  11.756  0.0133  0.0013  0.4913
 5582W        W 9782   7.204   7.271  10.712 -0.0117 -0.0141 -0.3706
 5583W        W 9783   8.460   3.898   4.186 -0.7122 -0.1635  0.2222
 5584W        W 9784   6.218   5.637   2.848 -0.0326  0.2298  0.3698
 5585W        W 9785   1.654   6.185  12.937  0.1100  0.3720 -0.1846
 5586W        W 9786   3.867   6.328   2.423 -0.1100 -0.0695  0.0352
 5587W        W 9787   0.736   3.808  13.443 -0.2060 -0.0030 -0.2601
 5588W        W 9788   0.026   7.054   0.725 -0.0979 -0.0546  0.2867
 5589W        W 9789  10.153   0.819  12.673  0.0866 -0.0930  0.0175
 5590W        W 9790   3.098   2.320  12.105 -0.1661 -0.1825 -0.1552
 5591W        W 9791   5.541   4.113   8.594  0.1980 -0.2550  0.0379
 5592W        W 9792   3.408   4.134  12.035 -0.2438  0.1093 -0.0858
 5593W        W 9793   1.257   8.574  10.888  0.0997  0.1139 -0.1832
 5594W        W 9794   6.862   7.017  10.447 -0.0031 -0.3405 -0.2146
 5595W        W 9795   0.894   2.850  10.701  0.3054 -0.0592  0.2258
 5596W        W 9796   7.455   6.202  10.559 -0.1580  0.1227  0.1480
 5597W        W 9797   6.437   3.000   2.773 -0.1798 -0.4747  0.0880
 5598W        W 9798   1.107   7.517   9.292 -0.1249 -0.1592  0.1439
 5599W        W 9799   5.387   7.000  11.487 -0.1092  0.1332 -0.4510
 5600W        W 9800   3.321   8.670  13.352 -0.2950 -0.0247 -0.0508
 5601W        W 9801   2.523   4.303  12.780  0.3515  0.4587 -0.1365
 5602W        W 9802   7.450   4.286   9.498  0.1328 -0.1308  0.1204
 5603W        W 9803   2.395   3.471  12.545  0.2667  0.1388 -0.4562
 5604W        W 9804   3.800   8.320   4.836 -0.1663  0.0863 -0.4445
 5605W        W 9805   7.605   6.375   3.412 -0.4253  0.2487  0.2721
 5606W        W 9806   2.231   6.869   1.875 -0.1037 -0.0088  0.0422
 5607W        W 9807   3.714   0.155   0.967 -0.2441 -0.2627 -0.0451
 5608W        W 9808   7.805   4.421   4.527 -0.1579  0.0666  0.1469
 5609W        W 9809   8.700   8.503   1.007  0.0834 -0.1576  0.0257
 5610W        W 9810   5.906   9.780  10.521 -0.1915  0.0721 -0.0842
 5611W        W 9811   4.919   9.577  13.065  0.0069  0.3072  0.2303
 5612W        W 9812   0.779   7.574   2.888  0.2434  0.1566  0.0120
 5613W        W 9813   9.661   0.151  13.136  0.1891 -0.2440 -0.1885
 5614W        W 9814   6.243   6.602  10.736  0.0298  0.0884 -0.2873
 5615W        W 9815   1.291   0.462   4.356  0.1065 -0.1546  0.1577
 5616W        W 9816   2.692   6.782  10.336 -0.0671 -0.1460  0.1732
 5617W        W 9817   5.953   2.769  12.995 -0.2784 -0.0164 -0.1260
 5618W        W 9818   5.006   0.149  11.892 -0.0419  0.1413  0.1218
 5619W        W 9819   5.876  10.149   2.267 -0.1751  0.2457 -0.0850
 5620W        W 9820   2.977   5.336   1.252  0.0841 -0.0584  0.4119
 5621W        W 9821   3.751   4.531  11.327  0.3677 -0.2718  0.0368
 5622W        W 9822   6.268   8.620   9.966 -0.0516  0.1321  0.0672
 5623W        W 9823   3.736   2.040  10.931 -0.0681 -0.0494  0.2252
 5624W        W 9824   8.062   9.600   9.428 -0.1671  0.0400 -0.2275
 5625W        W 9825   9.174   5.713   9.714  0.2306 -0.0135  0.0230
 5626W        W 9826   7.694   3.363   2.948 -0.1107  0.0980 -0.3308
 5627W        W 9827   1.465   7.788   4.263  0.0766 -0.2014 -0.0260
 5628W        W 9828   2.226   1.256   0.665 -0.0070 -0.1525  0.1859
 5629W        W 9829   2.563   5.554   3.776 -0.2535  0.1822 -0.2073
 5630W        W 9830   5.856   0.972   1.966  0.1198 -0.3367  0.0352
 5631W        W 9831   7.153   3.833   2.198  0.3448  0.0413 -0.0991
 5632W        W 9832   3.242  10.215   9.193  0.4087  0.0191  0.0986
 5633W        W 9833   2.309   2.241   3.338 -0.0966 -0.1102 -0.0880
 5634W        W 9834  10.205   7.324  12.213  0.3044  0.0047  0.1532
 5635W        W 9835   0.036   7.994   2.632  0.0217  0.1187  0.1715
 5636W        W 9836   1.654   6.572  11.887  0.1395 -0.4667 -0.0527
 5637W        W 9837   0.815   9.463  13.180  0.0669  0.2872 -0.2271
 5638W        W 9838   4.638   0.578   1.967  0.0018  0.1799 -0.1940
 5639W        W 9839   5.585   9.665  13.259 -0.0344  0.1780  0.0724
 5640W        W 9840   9.117   5.047  10.030  0.0483  0.3148 -0.1467
 5641W        W 9841   6.740   7.607   3.045 -0.1109  0.2545 -0.1265
 5642W        W 9842   2.882   5.281   9.995 -0.0211  0.0018  0.3399
 5643W        W 9843   0.623   5.884   0.935  0.0695  0.2212  0.0626
 5644W        W 9844   3.677   8.576  10.257 -0.0859  0.2970 -0.2401
 5645W        W 9845   2.181   2.968   2.815 -0.1050 -0.1884 -0.1279
 5646W        W 9846   4.304   5.230  11.239 -0.0484 -0.2535 -0.1568
 5647W        W 9847   2.987   0.663   2.453  0.0772  0.0480 -0.1514
 5648W        W 9848   0.094   1.260   0.044 -0.1375  0.1904  0.1391
 5649W        W 9849   8.025   6.005   3.169 -0.5389 -0.2357  0.1993
 5650W        W 9850   5.138   3.903   2.893  0.0776  0.0091 -0.1771
 5651W        W 9851   5.573   1.656   0.482  0.0820  0.2055  0.0892
 5652W        W 9852   8.733   6.923  10.472 -0.1040 -0.0828 -0.1664
 5653W        W 9853   9.013   3.381   9.727  0.0712 -0.4647  0.0833
 5654W        W 9854   2.394   1.997   9.149  0.0326  0.0998  0.2651
 5655W        W 9855   0.195  10.140  12.950 -0.1046 -0.2162  0.0233
 5656W        W 9856   8.647  10.313   1.641  0.5671  0.0862  0.1722
 5657W        W 9857   2.301   6.458  10.207  0.0609  0.2853 -0.2385
 5658W        W 9858   0.062   8.847  12.398 -0.1325 -0.3771  0.2584
 5659W        W 9859   9.721   7.492  12.229 -0.1636  0.0888  0.3715
 5660W        W 9860   3.749   6.748   0.368  0.0156  0.1035 -0.1066
 5661W        W 9861   4.647   1.703  10.142  0.1701  0.3088 -0.2823
 5662W        W 9862   2.636   9.124   5.053  0.1582  0.0988  0.1753
 5663W        W 9863   2.109   1.085   3.541  0.2069  0.0343 -0.1602
 5664W        W 9864   5.116   8.920   3.772  0.1253  0.0953  0.0453
 5665W        W 9865   8.050   8.616  11.169  0.1153 -0.0686 -0.3405
 5666W        W 9866   6.435  10.131   2.944 -0.0850 -0.2802 -0.1282
 5667W        W 9867   0.573   4.670  10.470 -0.3049  0.1237 -0.1992
 5668W        W 9868   1.195  10.236   9.426  0.0187 -0.0343  0.1150
 5669W        W 9869   0.490   1.110   9.485 -0.0200  0.0201  0.1260
 5670W        W 9870   2.474   5.971   2.791  0.0103 -0.0738 -0.0697
 5671W        W 9871   1.125   1.593   1.317 -0.1122  0.1836  0.0519
 5672W        W 9872   2.350   1.437   4.561  0.1775  0.1423  0.1929
 5673W        W 9873   7.321   9.822  13.337 -0.1561  0.3129 -0.0898
 5674W        W 9874   2.491   8.593   9.157 -0.1108  0.1562 -0.0045
 5675W        W 9875   9.505   3.974   1.246 -0.0206  0.1140 -0.2214
 5676W        W 9876   0.328   2.634   1.724 -0.0755  0.1874  0.2088
 5677W        W 9877   0.369   9.189  12.554  0.0911 -0.0742  0.1369
 5678W        W 9878   2.746   6.786   2.179 -0.0099 -0.2690  0.1214
 5679W        W 9879   8.895   5.211   3.734 -0.3475  0.0453  0.1422
 5680W        W 9880   9.772   0.515   2.909  0.0910  0.2948 -0.1848
 5681W        W 9881   3.489   4.248  10.818 -0.1341  0.0137  0.0430
 5682W        W 9882   6.008   6.630   5.301  0.0364 -0.2842  0.2484
 5683W        W 9883   2.403   1.882   2.695 -0.1109 -0.0979 -0.0528
 5684W        W 9884   3.554   8.473   3.475  0.1200  0.0414  0.0752
 5685W        W 9885   3.625   3.618  10.369  0.5444  0.0727  0.0461
 5686W        W 9886   6.252   8.688  11.853  0.2338 -0.0639 -0.0162
 5687W        W 9887   1.401  10.169  11.551  0.0805  0.0101  0.3009
 5688W        W 9888   1.417   3.947   9.557  0.0305  0.0242 -0.1183
 5689W        W 9889   1.017   8.117   4.183  0.1409  0.2233  0.0910
 5690W        W 9890   0.042   7.895   9.627 -0.0365 -0.0997 -0.1845
 5691W        W 9891   8.167   5.170   4.830  0.0403 -0.0150 -0.0884
 5692W        W 9892   1.028   5.721  11.602  0.0115 -0.1080 -0.1054
 5693W        W 9893   3.663   3.997   1.448  0.2422  0.1743  0.0601
 5694W        W 9894   7.834   6.857  12.970  0.1392  0.2965  0.0360
 5695W        W 9895  10.116   3.279  12.085  0.0876 -0.0088  0.2207
 5696W        W 9896   1.308   6.998  10.390  0.0492 -0.1422  0.2251
 5697W        W 9897   5.520   7.821   2.743 -0.1588  0.0192 -0.2561
 5698W        W 9898   6.377   6.912   5.133 -0.0263  0.3540 -0.2161
 5699W        W 9899   4.770   1.930   2.064  0.1812  0.2080  0.0610
 5700W        W 9900   0.811   7.508  10.266 -0.3850 -0.0854 -0.0121
 5701W        W 9901  10.120   6.002   0.152  0.2594  0.1161 -0.1516
 5702W        W 9902   8.069   0.498  13.007 -0.4977 -0.1439 -0.1472
 5703W        W 9903   9.936   5.553   0.210  0.1106 -0.2272 -0.1072
 5704W        W 9904   5.606   9.717   0.809 -0.0120  0.1325 -0.2648
 5705W        W 9905   3.340   8.938   3.414 -0.2430  0.1279  0.1501
 5706W        W 9906   9.990   9.601   0.494  0.2848 -0.0766  0.0155
 5707W        W 9907   2.447   5.885   9.954 -0.0227 -0.1333  0.1093
 5708W        W 9908   4.717   2.966  12.293 -0.1697  0.0844  0.2061
 5709W        W 9909   2.071   9.964   2.576 -0.1700  0.1681 -0.3263
 5710W        W 9910   3.502   9.289   9.712  0.1805 -0.1667 -0.1226
 5711W        W 9911   5.844   5.614   3.281 -0.1683  0.1468 -0.3135
 5712W        W 9912   0.054   1.682   2.643  0.1638  0.0613 -0.1094
 5713W        W 9913   0.156   6.259   3.166 -0.1029 -0.0683 -0.1135
 5714W        W 9914   3.524   8.377   8.529  0.1208 -0.2348  0.3216
 5715W        W 9915   7.405   0.259  11.397 -0.0167 -0.0815 -0.0735
 5716W        W 9916   9.841   1.710  12.987 -0.2848  0.1415 -0.1270
 5717W        W 9917   7.084   4.863   2.941 -0.0746 -0.1721  0.4439
 5718W        W 9918   3.209   7.149   4.196  0.1216 -0.0876  0.1047
 5719W        W 9919   2.945   4.805   1.426  0.0088  0.3137 -0.2621
 5720W        W 9920   1.811   6.174   2.102 -0.1099  0.2682 -0.1383
 5721W        W 9921   3.675   9.891   9.192 -0.1546  0.1429 -0.0064
 5722W        W 9922  10.034   1.140  10.439  0.1997 -0.1733  0.0885
 5723W        W 9923   5.327  10.124  11.596 -0.0484 -0.1236  0.0240
 5724W        W 9924   1.501   5.219   0.417  0.4315 -0.2773  0.3179
 5725W        W 9925   6.477   6.262  11.051 -0.2081 -0.1245 -0.2736
 5726W        W 9926   7.671  10.057  12.249  0.2139 -0.2090 -0.0070
 5727W        W 9927   5.810   9.356   4.252 -0.1922  0.2146  0.0621
 5728W        W 9928   8.753   6.565   2.607 -0.0503  0.4043  0.2390
 5729W        W 9929   9.040   4.281   3.768  0.0183  0.2946  0.1854
 5730W        W 9930   3.076   0.330  10.152  0.1610 -0.0493  0.2409
 5731W        W 9931   9.733   9.830   1.774  0.1603 -0.0108  0.3602
 5732W        W 9932  10.024   4.267  11.764  0.0944  0.2021 -0.0815
 5733W        W 9933   1.033   8.848  11.735  0.1609 -0.3157  0.0501
 5734W        W 9934   3.895   5.122  12.682 -0.3852  0.0699  0.2440
 5735W        W 9935   0.655   8.888  10.661 -0.0488 -0.2575 -0.1808
 5736W        W 9936   5.760   1.380   3.235  0.1004  0.2296 -0.0582
 5737W        W 9937   2.040   2.728   3.547 -0.0624 -0.0223 -0.1528
 5738W        W 9938   0.102   2.495  12.280  0.1338 -0.0554  0.0994
 5739W        W 9939  10.012   4.064  12.617  0.0664 -0.2504 -0.0160
 5740W        W 9940  10.370   4.680   9.640 -0.0040 -0.1940 -0.0664
 5741W        W 9941   6.348   4.511   4.990 -0.3498 -0.0921 -0.0947
 5742W        W 9942   7.030   2.114  12.151  0.0611 -0.0620  0.0218
 5743W        W 9943   1.004   2.489  13.405  0.3018  0.0673 -0.0316
 5744W        W 9944   4.974   5.223   2.250 -0.2065 -0.4218 -0.0017
 5745W        W 9945   4.071   3.549   0.130  0.0065  0.1742  0.1490
 5746W        W 9946   0.510   2.498  11.145 -0.0791 -0.2482  0.0983
 5747W        W 9947   5.485   9.499  10.472  0.0130 -0.1621  0.5267
 5748W        W 9948   4.284   0.680   9.126 -0.0014 -0.2796 -0.4053
 5749W        W 9949   7.376   0.137   3.077 -0.0747 -0.1335  0.4092
 5750W        W 9950   2.927   7.094  12.653  0.1093  0.0260 -0.1140
 5751W        W 9951   1.330   6.964   3.310 -0.2224  0.1410 -0.0311
 5752W        W 9952   4.605   6.618   4.326  0.1026  0.1634 -0.0014
 5753W        W 9953   5.074   5.477  12.205 -0.2501  0.3492 -0.1853
 5754W        W 9954   2.621   9.968  11.052 -0.3163  0.1170  0.1243
 5755W        W 9955   7.170   0.999  11.973 -0.2849 -0.0341  0.1185
 5756W        W 9956   1.871   2.701   9.825  0.0826 -0.3067  0.4654
 5757W        W 9957   9.213   5.026   9.452 -0.2611  0.0129  0.0804
 5758W        W 9958   4.191   5.094  10.779 -0.3450  0.0245 -0.0837
 5759W        W 9959  10.142   3.320   3.576 -0.1128  0.0476 -0.0174
 5760W        W 9960   0.660   4.574  13.261 -0.1743 -0.1447  0.0371
 5761W        W 9961  10.469   3.651   4.484 -0.3472 -0.0254  0.1366
 5762W        W 9962   4.647   2.808   0.230 -0.0307  0.2644 -0.0270
 5763W        W 9963   3.543   1.471   2.106 -0.2913 -0.2431  0.2285
 5764W        W 9964   9.571   5.222   1.753 -0.1743 -0.0907 -0.0884
 5765W        W 9965   0.756   7.198   1.463 -0.0517 -0.0918 -0.2095
 5766W        W 9966   5.939   6.778  12.939  0.0612  0.0172  0.0745
 5767W        W 9967   3.061   5.881   2.045  0.1384 -0.1972 -0.3393
 5768W        W 9968   7.239   6.280   1.285  0.0675  0.1220  0.0347
 5769W        W 9969   8.925   2.944  12.110 -0.0985  0.1137 -0.1346
 5770W        W 9970   2.939   3.491  10.808 -0.2298  0.1901 -0.0329
 5771W        W 9971   5.351   3.260   3.405  0.0818  0.2608  0.1345
 5772W        W 9972   3.346   2.683  12.421  0.1384  0.0862 -0.1763
 5773W        W 9973   1.789   1.952  12.140 -0.1251  0.0396  0.0640
 5774W        W 9974   2.221   5.898   3.694 -0.0159 -0.0746 -0.1711
 5775W        W 9975   8.249   7.124  10.174  0.0518 -0.0338  0.0126
 5776W        W 9976   6.328   1.211  10.211 -0.0299  0.0837  0.0973
 5777W        W 9977   7.368   1.465   1.201  0.2949 -0.0054 -0.1686
 5778W        W 9978   8.203   1.104   2.093  0.0667  0.0713  0.0659
 5779W        W 9979   8.220   4.512  10.191  0.4420 -0.2630  0.3241
 5780W        W 9980   1.698   3.769   3.923  0.0711  0.3986  0.1425
 5781W        W 9981   3.525   1.039   9.613 -0.2858  0.1216 -0.1709
 5782W        W 9982   8.316   8.027   9.260 -0.4595 -0.3942 -0.0447
 5783W        W 9983   2.906   4.782   2.697  0.1287  0.1146  0.1481
 5784W        W 9984   4.424  10.435   0.085 -0.1232  0.0347  0.0082
 5785W        W 9985  10.405   2.820   4.597  0.3571  0.2296  0.0211
 5786W        W 9986   0.073   7.664  12.552 -0.2130  0.1114 -0.0609
 5787W        W 9987   5.267   9.208  13.192 -0.0884 -0.0343 -0.2822
 5788W        W 9988  10.356   6.571   5.169 -0.0488  0.0540  0.0689
 5789W        W 9989   8.893   2.386   2.754 -0.1107  0.5456 -0.2399
 5790W        W 9990   8.463   7.164   9.654 -0.0122  0.2648 -0.0989
 5791W        W 9991   9.646   5.646  12.689  0.1230  0.0558 -0.1637
 5792W        W 9992   0.694   8.020   4.632  0.1101 -0.1460  0.4325
 5793W        W 9993   7.784   2.981  12.418  0.1840 -0.1242 -0.1233
 5794W        W 9994   7.379   5.086   9.506  0.0501 -0.0238 -0.3539
 5795W        W 9995   0.211   0.003  11.388 -0.0499  0.1570 -0.0126
 5796W        W 9996   4.294   4.879   0.657  0.2485  0.1852 -0.0691
 5797W        W 9997   8.540   1.127   0.455 -0.0435 -0.0726  0.0006
 5798W        W 9998   8.294   0.187   1.292 -0.3042 -0.1090  0.3126
 5799W        W 9999   0.039   1.650  10.841  0.1452 -0.2684 -0.0652
 5800W        W10000   9.736   2.141   1.697 -0.0176  0.0261  0.1172
 5801W        W10001   4.721   1.167  12.960  0.1206 -0.2624  0.1555
 5802W        W10002   8.700   6.864   1.285  0.0890  0.1629  0.1181
 5803W        W10003   2.487   8.973   4.502  0.1193  0.0001 -0.1564
 5804W        W10004  10.015   2.520   2.370  0.1590 -0.0008  0.2542
 5805W        W10005   6.466   6.714   1.303  0.2926  0.0742 -0.0071
 5806W        W10006   6.111   5.067   0.322  0.1293 -0.2198 -0.1831
 5807W        W10007   7.527   7.991  11.848  0.2155  0.0412  0.0137
 5808W        W10008   1.017   4.285   4.413  0.1230 -0.2112  0.0594
 5809W        W10009   9.286   6.533   3.965 -0.1396  0.1576  0.3990
 5810W        W10010   1.187   9.949  10.628 -0.0248  0.2134 -0.1656
 5811W        W10011   2.977   3.145  10.005  0.0831 -0.1252  0.3321
 5812W        W10012   0.531   3.402   0.225  0.1771 -0.2905 -0.0129
 5813W        W10013   4.935   8.690  10.325 -0.0190 -0.0010 -0.2168
 5814W        W10014   9.211   3.738   3.584 -0.3395  0.0729 -0.1143
 5815W        W10015   5.218   9.488   9.881 -0.3110 -0.0007  0.0980
 5816W        W10016   3.579   3.561   3.519  0.0027 -0.0427 -0.2021
 5817W        W10017   3.526   9.884   1.782  0.1408 -0.1798 -0.1517
 5818W        W10018   8.627   6.449  10.599  0.3168 -0.0648 -0.1848
 5819W        W10019  10.427   2.936   1.700  0.0503  0.1901  0.3080
 5820W        W10020   3.498   2.235   4.431 -0.0593  0.3312 -0.1856
 5821W        W10021   7.040   6.905   2.572  0.0351  0.0013  0.1083
 5822W        W10022  10.323   3.797  12.218  0.0825  0.1144 -0.0245
 5823W        W10023   4.753   4.664   1.413 -0.0962 -0.2542 -0.3405
 5824W        W10024   5.947   5.742   0.766 -0.2000  0.1182  0.0636
 5825W        W10025   8.317   7.336   2.724 -0.0954 -0.1568  0.0008
 5826W        W10026   2.431   1.998   3.735 -0.4000 -0.0026 -0.0298
 5827W        W10027   1.022   8.641  10.362 -0.1475  0.0631 -0.4540
 5828W        W10028   8.340   1.621   0.476  0.0565  0.0147  0.1010
 5829W        W10029   1.259   3.555  10.879 -0.0864 -0.0007  0.3741
 5830W        W10030   9.536   1.277   9.746  0.0024 -0.1109  0.0032
 5831W        W10031   7.403   8.687  12.423 -0.0625  0.3509 -0.1410
 5832W        W10032   1.461  10.316  12.938  0.2211  0.1793  0.1418
 5833W        W10033  10.292   5.071   0.134 -0.2737 -0.1940  0.0423
 5834W        W10034   0.185   2.444   8.761 -0.1076 -0.2790 -0.0495
 5835W        W10035   7.744   6.394  12.949  0.1791  0.1583  0.1225
 5836W        W10036   9.064   5.659   3.025 -0.0957 -0.4583 -0.4032
 5837W        W10037   0.003   5.902   8.328 -0.0947  0.1538 -0.0073
 5838W        W10038   3.524   5.187   9.315  0.2299  0.0888  0.0540
 5839W        W10039   3.796   5.707   1.804  0.0011 -0.0233 -0.0457
 5840W        W10040   6.876   4.201  12.821 -0.0306 -0.0190  0.0794
 5841W        W10041   7.194   6.820   9.109  0.0200  0.3200 -0.1580
 5842W        W10042   3.745   8.840  12.091  0.0197 -0.0917  0.0657
 5843W        W10043   9.410   0.292   0.161  0.1343 -0.2598  0.1021
 5844W        W10044   1.366   0.057   2.417  0.0381 -0.1610  0.0755
 5845W        W10045   6.370   6.912   9.374 -0.0324  0.3642  0.1719
 5846W        W10046   1.757   6.905  13.154 -0.0389 -0.1117 -0.0606
 5847W        W10047   7.355  10.094  11.844 -0.2384  0.2438 -0.1736
 5848W        W10048   2.686   4.494   9.847 -0.0036 -0.0804 -0.2100
 5849W        W10049   5.946   4.196  12.929 -0.3248  0.1535 -0.1843
 5850W        W10050   9.944   0.210  11.890  0.0087 -0.0768 -0.0418
 5851W        W10051   3.385   4.347  12.804 -0.0325  0.0418 -0.1504
 5852W        W10052   5.939   2.290   2.273 -0.0385  0.0603  0.2290
 5853W        W10053   8.748   7.166   0.852  0.3121 -0.1332  0.2845
 5854W        W10054   0.173   0.335  10.577 -0.1017 -0.2885 -0.2818
 5855W        W10055   9.437   5.251  12.357 -0.0773  0.1921 -0.0669
 5856W        W10056   4.380   2.447   3.547 -0.4482  0.0309  0.0059
 5857W        W10057   2.633   3.390  11.607  0.0669 -0.1681  0.0445
 5858W        W10058   6.419   7.801  11.610 -0.1595  0.2375 -0.1648
 5859W        W10059   5.510   0.102  11.040 -0.0235  0.0188  0.0323
 5860W        W10060   5.647   3.774   2.138 -0.2748 -0.0077 -0.1011
 5861W        W10061   9.152   5.636   0.481  0.2176 -0.0184  0.0728
 5862W        W10062   9.793   9.520   2.244  0.0690 -0.1167 -0.1018
 5863W        W10063   1.140   6.724   0.874 -0.1486 -0.1345 -0.3221
 5864W        W10064   1.537   8.243  12.746  0.4715  0.2581 -0.1148
 5865W        W10065   4.510   9.006  11.221 -0.0892  0.2089  0.3960
 5866W        W10066   4.855   4.875  10.422  0.1433 -0.1473 -0.2490
 5867W        W10067  10.055   6.368  12.146  0.0481 -0.1047 -0.2038
 5868W        W10068   9.968   6.668   4.344 -0.1199  0.0234  0.0718
 5869W        W10069   1.381   6.594  12.792 -0.0278  0.1866 -0.1051
 5870W        W10070   8.445   5.284  10.375 -0.1284 -0.0086 -0.1702
 5871W        W10071   7.491   7.198   3.318  0.1483  0.2802 -0.1975
 5872W        W10072   2.361   3.736   4.525  0.0233  0.0449 -0.4243
 5873W        W10073   9.642   0.467  11.592 -0.2801 -0.0271  0.1744
 5874W        W10074   5.411   6.943   3.275 -0.1476 -0.3423  0.0624
 5875W        W10075   9.840   4.051  11.343  0.1601 -0.2323 -0.1471
 5876W        W10076   7.131   9.794  12.855 -0.0606 -0.0780  0.1549
 5877W        W10077   8.215   5.434  11.599  0.2655 -0.0580 -0.0385
 5878W        W10078   0.862   3.502   1.873 -0.1423 -0.2567 -0.0510
 5879W        W10079   6.718   0.155   2.047 -0.2115  0.1166  0.1355
 5880W        W10080   2.470   6.454  11.278  0.1017 -0.2626  0.3543
 5881W        W10081   7.922   4.888   0.688  0.0996 -0.1530  0.0464
 5882W        W10082   0.924   7.011   9.932  0.0000  0.1333 -0.0168
 5883W        W10083   1.342   7.888   9.631  0.0014 -0.4028 -0.4345
 5884W        W10084   3.445   5.416  12.162  0.1670  0.1472 -0.0312
 5885W        W10085   9.898   5.451  10.549  0.0097 -0.1459 -0.0718
 5886W        W10086   5.876   3.766   9.844 -0.0823  0.0783  0.1536
 5887W        W10087   5.451   4.748  11.727  0.0261 -0.1465  0.0346
 5888W        W10088   4.075   0.211   2.954  0.0847  0.2200  0.2365
 5889W        W10089   5.451   8.162  11.048  0.1939 -0.2176 -0.0487
 5890W        W10090   8.321   3.101   4.544  0.1107 -0.0464 -0.2229
 5891W        W10091   0.301   3.063   1.091 -0.1927  0.2062 -0.0557
 5892W        W10092   6.173   9.765  11.716 -0.0677  0.3407  0.1156
 5893W        W10093   2.018   6.753   2.665  0.2178 -0.3591  0.2123
 5894W        W10094   7.096   4.982   2.363 -0.0390 -0.3838  0.1950
 5895W        W10095   0.120   5.801   3.011 -0.2710 -0.1328  0.0246
 5896W        W10096   5.382   8.595   1.413  0.0513  0.2313  0.1054
 5897W        W10097   8.804   4.713   1.439  0.0312  0.2300 -0.0619
 5898W        W10098   7.059   8.002   3.902  0.2700  0.2066 -0.2382
 5899W        W10099   8.741   1.804   1.672  0.1839 -0.0514  0.1622
 5900W        W10100   9.010   1.598   2.621  0.3416 -0.1127 -0.0106
 5901W        W10101   2.988   5.570   0.293  0.1879 -0.0155  0.0201
 5902W        W10102   5.156   8.394  12.053 -0.0403 -0.1687  0.0856
 5903W        W10103   7.284   1.422  12.209 -0.2134 -0.0909  0.0956
 5904W        W10104   1.534   4.596  11.034  0.0847 -0.1584 -0.1195
 5905W        W10105   3.906   5.868  10.020  0.1024  0.1318  0.0826
 5906W        W10106   0.090   3.725  11.513  0.0220  0.1918  0.0079
 5907W        W10107   8.310   9.817  11.130 -0.2972 -0.2605 -0.2010
 5908W        W10108   2.478   1.212  11.081  0.0354 -0.2378  0.3354
 5909W        W10109   1.297   0.619   1.357  0.0219 -0.2842  0.2012
 5910W        W10110   2.108   4.706   1.924 -0.0134 -0.1259  0.1637
 5911W        W10111   4.001   7.842   3.974  0.2434 -0.4307 -0.0691
 5912W        W10112   5.858   8.754  10.291  0.0451  0.0050 -0.0034
 5913W        W10113   7.432   0.959   1.345 -0.2506  0.0613 -0.0954
 5914W        W10114   6.078   6.924   0.499 -0.0249 -0.0281 -0.0093
 5915W        W10115  10.283   8.266   3.666  0.3080 -0.0877 -0.1828
 5916W        W10116   8.221   2.829   9.747 -0.2053 -0.2876 -0.0310
 5917W        W10117   8.064   7.944   1.140 -0.0908  0.1671 -0.2197
 5918W        W10118   9.866   3.619  12.935  0.2314  0.1162 -0.0040
 5919W        W10119   8.995   0.138  12.303 -0.0132 -0.2713  0.3128
 5920W        W10120   2.779   0.870   9.207  0.0449 -0.3462 -0.1212
 5921W        W10121   9.168   4.826  12.204  0.2314 -0.1780  0.1595
 5922W        W10122   2.105   4.754   8.712  0.3180 -0.0808  0.1814
 5923W        W10123   4.065   4.202   1.870  0.2159  0.1624  0.2543
 5924W        W10124   3.759   1.217  11.926 -0.1527 -0.0023  0.2400
 5925W        W10125   5.795   3.087  12.088  0.2005 -0.0993  0.2273
 5926W        W10126   1.834   3.813   9.852  0.2827  0.0413 -0.0021
 5927W        W10127   5.425   1.396   2.172  0.0379 -0.0421 -0.0001
 5928W        W10128   8.343   7.452  12.060  0.0456 -0.0686 -0.0776
 5929W        W10129   2.417   4.034   9.326  0.2848  0.1242  0.1236
 5930W        W10130   9.259   4.635  11.126 -0.1578 -0.1046  0.3724
 5931W        W10131   6.286   7.509   1.512 -0.2258  0.1572 -0.0775
 5932W        W10132   4.293   4.960   0.165  0.1221 -0.1709  0.1224
 5933W        W10133   8.536   6.978   0.403  0.2933 -0.0506  0.3546
 5934W        W10134   5.491   4.423   0.140  0.2647  0.0574 -0.3133
 5935W        W10135  10.032   7.288   1.954  0.0363 -0.0654 -0.1548
 5936W        W10136   7.426   6.302  11.124 -0.1237  0.1462  0.1162
 5937W        W10137   2.276   6.057  10.534  0.1484 -0.1494  0.2445
 5938W        W10138   9.562   2.763   9.865  0.1843  0.1305  0.0461
 5939W        W10139   6.422   9.368   1.045  0.0528  0.0182  0.1814
 5940W        W10140   5.868   0.025  11.363 -0.0184 -0.0709 -0.2542
 5941W        W10141   3.488   3.247  10.039 -0.0308 -0.1542 -0.1313
 5942W        W10142   5.377   5.998   4.318  0.0116 -0.2382 -0.3165
 5943W        W10143   9.095   9.244   0.538 -0.0999  0.0864  0.0354
 5944W        W10144   7.861   2.396  10.234 -0.2876 -0.0655 -0.0164
 5945W        W10145   2.938   1.267   3.069 -0.1165 -0.2159  0.1484
 5946W        W10146   6.579   8.621   0.740  0.0856 -0.0857  0.1657
 5947W        W10147  10.453   0.855  10.480 -0.2985 -0.0484  0.0918
 5948W        W10148   3.978   4.375   9.424 -0.2478 -0.0175 -0.5399
 5949W        W10149   8.910   2.912   3.067  0.0847  0.1062 -0.1109
 5950W        W10150   9.365   3.047  12.292  0.1867 -0.2726 -0.0756
 5951W        W10151   0.067   6.788   2.129 -0.3547  0.0229 -0.2306
 5952W        W10152   4.880   2.371   2.771 -0.1430  0.0501  0.1820
 5953W        W10153   4.434   6.791   1.836  0.0251 -0.1206  0.0853
 5954W        W10154   0.870   2.688   4.038 -0.0248  0.1796  0.3678
 5955W        W10155   1.047   3.096   2.210 -0.4526 -0.3688 -0.2849
 5956W        W10156   3.574   1.211  11.354  0.1082  0.2868 -0.0266
 5957W        W10157   6.520   8.209   9.885 -0.0024 -0.1441  0.2169
 5958W        W10158   1.779   4.933   2.206  0.1932  0.0016 -0.0226
 5959W        W10159   0.178   9.687   9.533 -0.1382  0.0533  0.1193
 5960W        W10160   6.390  10.145  13.001 -0.1696  0.1819  0.1736
 5961W        W10161   9.609   4.868   4.381  0.2153 -0.0570 -0.0364
 5962W        W10162   1.436   9.981   2.620 -0.2420 -0.3128  0.3242
 5963W        W10163   3.825   1.388   3.487  0.1374  0.0224  0.2459
 5964W        W10164   3.240   0.053   4.068 -0.4815  0.1514  0.0642
 5965W        W10165   0.564   5.251   2.587 -0.0580 -0.0462  0.3710
 5966W        W10166   5.134   4.795   5.278 -0.5757  0.2375 -0.0194
 5967W        W10167   6.155   3.320  10.106 -0.1856  0.0472 -0.0208
 5968W        W10168   7.245   2.472  11.883  0.0710  0.3334  0.1857
 5969W        W10169   0.088   7.605  11.950  0.1422  0.5399  0.1568
 5970W        W10170   4.031   0.539   1.730  0.1101  0.3837 -0.2256
 5971W        W10171   9.433   0.802   0.646 -0.0081  0.0547 -0.1154
 5972W        W10172   0.479   3.008  11.048 -0.2074 -0.0356 -0.1411
 5973W        W10173   0.543   7.404   2.133  0.0210 -0.3002  0.0379
 5974W        W10174   1.749   2.761   2.917  0.3767 -0.0404 -0.1022
 5975W        W10175   6.844   5.598   9.133  0.2124 -0.0200 -0.1015
 5976W        W10176   7.500   2.618   0.398  0.1868 -0.0830 -0.1095
 5977W        W10177   4.903   6.558   1.142  0.2064  0.0818  0.4447
 5978W        W10178   1.921   8.158   1.682 -0.0717 -0.0648 -0.0897
 5979W        W10179   6.602   3.964  10.583  0.1457 -0.4790 -0.2243
 5980W        W10180   8.551   3.438  13.362  0.2960  0.3352  0.3924
 5981W        W10181   4.990   5.963  12.319 -0.2819 -0.0665  0.5766
 5982W        W10182   8.759   5.883  10.691  0.3898 -0.1771  0.3830
 5983W        W10183   9.127   6.829   2.390  0.0842 -0.2115  0.2713
 5984W        W10184   7.175   3.200   4.715  0.1918 -0.3114  0.0920
 5985W        W10185   9.595   2.601  11.355  0.2728 -0.1325  0.1304
 5986W        W10186   0.693   2.863   1.945  0.1293 -0.1927 -0.0494
 5987W        W10187   7.463   6.604   1.020 -0.0592  0.0317 -0.0463
 5988W        W10188   5.775   8.722   2.474 -0.0473 -0.3679 -0.3258
 5989W        W10189   5.403   2.990   8.791  0.1853  0.0302  0.4271
 5990W        W10190   5.603   8.754   8.902 -0.0434  0.2300 -0.3027
 5991W        W10191   7.036  10.409  11.376 -0.1964  0.0291  0.1341
 5992W        W10192   4.684   4.885  10.914  0.1554  0.1450  0.1151
 5993W        W10193   5.492   3.991  10.103 -0.0017  0.0049 -0.0033
 5994W        W10194   0.393   6.483   2.366 -0.0284  0.0271  0.2235
 5995W        W10195   9.686   2.872   2.218 -0.2612  0.0565  0.2377
 5996W        W10196   5.300   6.121   1.256  0.1466 -0.0032 -0.0577
 5997W        W10197   4.609   6.892   3.863 -0.0357  0.0308 -0.0719
 5998W        W10198   3.431   2.834  10.786 -0.1352  0.1812  0.0644
 5999W        W10199  10.432  10.199   3.374  0.2500 -0.0834 -0.2879
 6000W        W10200   4.217   0.242   2.054  0.0710 -0.1048 -0.4609
 6001W        W10201   2.780   4.129  10.192  0.1191 -0.0254 -0.0973
 6002W        W10202   3.866   2.517   4.717  0.1668  0.3563  0.0626
 6003W        W10203   9.710   7.609   2.284  0.2864  0.1370  0.1492
 6004W        W10204   5.084   4.046   4.686  0.1112 -0.0601 -0.1524
 6005W        W10205   6.698   4.418  11.255 -0.2509  0.1372  0.1883
 6006W        W10206  10.387  10.405  11.813 -0.3498 -0.0038 -0.3367
 6007W        W10207   1.673   7.385  10.676  0.2848 -0.2810  0.4520
 6008W        W10208   1.801   7.252   2.045 -0.0119  0.0980  0.2251
 6009W        W10209   2.527   4.448  10.900  0.1665  0.1201  0.0212
 6010W        W10210   9.094   3.671   1.415 -0.1168  0.2268  0.0389
 6011W        W10211   6.279   7.838  10.088 -0.0875  0.0022 -0.0063
 6012W        W10212   2.390   4.534   4.100  0.4085 -0.1459  0.3507
 6013W        W10213   8.772   5.049   9.276  0.1802  0.3751 -0.0922
 6014W        W10214   6.515   4.890   1.636  0.1398  0.0510  0.0139
 6015W        W10215   9.706   3.952   5.195  0.0512 -0.1845  0.1201
 6016W        W10216   6.939   5.243   0.745  0.0442  0.1454  0.2681
 6017W        W10217   4.251   4.767   3.091 -0.0424  0.1156 -0.0205
 6018W        W10218   8.690   8.581   8.582  0.0339 -0.0352 -0.0622
 6019W        W10219   7.733   4.056   0.955 -0.0759  0.3008 -0.1392
 6020W        W10220   0.234   2.372   9.698  0.4261  0.0565 -0.0356
 6021W        W10221   1.953   8.477  11.874 -0.0045  0.1610 -0.0275
 6022W        W10222   7.935   0.841  11.175  0.1350 -0.2794  0.2251
 6023W        W10223   9.897   4.491   2.550 -0.0321  0.2883  0.0142
 6024W        W10224   5.026   1.542   0.198 -0.0091 -0.0781  0.0958
 6025W        W10225   0.464   6.477   3.644  0.0969 -0.0130  0.1365
 6026W        W10226   6.056   2.543   4.089  0.1508  0.2617 -0.0050
 6027W        W10227   0.430   0.930  13.168  0.1724  0.0804  0.2548
 6028W        W10228   4.525   2.821  11.846 -0.1148  0.3118 -0.2649
 6029W        W10229  10.270   0.227  10.340  0.0098  0.0617  0.1904
 6030W        W10230   7.066   4.152  10.597 -0.1765 -0.0742  0.1411
 6031W        W10231   3.800   8.508   0.811 -0.2131  0.0479 -0.0440
 6032W        W10232   6.244   7.240  12.163 -0.0495 -0.3670  0.0688
 6033W        W10233   7.095   3.549   9.447 -0.1236  0.0873 -0.0260
 6034W        W10234   6.989   2.982   2.816 -0.2619 -0.0425 -0.1176
 6035W        W10235  10.099   8.663   2.396 -0.3391  0.1188 -0.0650
 6036W        W10236   3.550   5.525   1.239  0.2260  0.1261 -0.1996
 6037W        W10237   2.540   0.536   4.588 -0.2395 -0.0018  0.1019
 6038W        W10238   7.008   9.675   1.263  0.2131 -0.0754 -0.2025
 6039W        W10239   4.192   9.963   4.998  0.2846  0.3737  0.2780
 6040W        W10240   8.282   4.781   1.026 -0.0304  0.0277 -0.2879
 6041W        W10241   1.383   4.911   3.215 -0.1537 -0.1544  0.0971
 6042W        W10242   2.319   4.943   0.067 -0.2229  0.1108 -0.1113
 6043W        W10243   4.780   6.430  12.440  0.2079 -0.0894  0.0205
 6044W        W10244   7.081   2.691  10.513  0.2203 -0.1815 -0.1548
 6045W        W10245   7.754  10.409  11.780 -0.1756 -0.1009  0.4698
 6046W        W10246   7.663   9.141  12.648  0.2137  0.2231  0.2769
 6047W        W10247   4.423   3.308   1.934 -0.0121  0.1729 -0.0937
 6048W        W10248   5.807   6.573   0.123 -0.1285  0.0327 -0.1330
 6049W        W10249   8.187   4.981   8.608  0.0601  0.0973  0.2598
 6050W        W10250   1.752   5.290  11.264  0.0694 -0.0203  0.2015
 6051W        W10251   6.996   4.594  10.847  0.0943 -0.0458  0.3031
 6052W        W10252   2.706   7.069   1.718 -0.1177  0.0551 -0.0654
 6053W        W10253   9.877  10.165   3.673 -0.2041  0.1472 -0.1000
 6054W        W10254   2.551   9.310  13.279 -0.0462 -0.0816  0.3123
 6055W        W10255   6.643   9.139  12.908 -0.4242 -0.2047 -0.1923
 6056W        W10256   4.331   4.754  12.470 -0.1733  0.0929  0.4098
 6057W        W10257  10.431   6.407  10.259  0.0419 -0.1453  0.0742
 6058W        W10258   8.090   2.537  12.343  0.0417  0.0133  0.0005
 6059W        W10259   0.212   5.345  12.805 -0.0498 -0.1496  0.1213
 6060W        W10260   5.076   9.256  10.493 -0.1124 -0.0129 -0.0901
 6061W        W10261   6.161   2.315   3.350 -0.1817  0.3775 -0.0908
 6062W        W10262   0.722   3.312   8.554  0.2397  0.0940 -0.0327
 6063W        W10263   7.882   2.013  10.628  0.1726 -0.3007  0.2582
 6064W        W10264   7.122   6.120  13.217  0.0924  0.0572 -0.2564
 6065W        W10265   2.443   8.717  11.000  0.0116 -0.1536  0.0713
 6066W        W10266   1.921   0.980   1.935  0.0999 -0.0479  0.0106
 6067W        W10267   1.583   4.939  13.370  0.0424  0.1866 -0.1919
 6068W        W10268   8.147   4.007  11.347  0.2120  0.0593  0.2353
 6069W        W10269   8.760   6.362  13.146 -0.0603  0.0434  0.0080
 6070W        W10270   6.796   0.107  13.259 -0.1142  0.2924  0.0372
 6071W        W10271   3.297   5.292  11.031  0.0473 -0.1610 -0.2032
 6072W        W10272   0.554   1.533   3.661 -0.0146 -0.2924 -0.0352
 6073W        W10273   7.855   5.705  11.815  0.0528  0.2630  0.3299
 6074W        W10274   9.193   1.752   0.559  0.0859 -0.0381  0.2289
 6075W        W10275   3.589   9.375   1.758 -0.3330  0.1331 -0.0020
 6076W        W10276   1.669   1.176  12.560 -0.1188  0.3179  0.0219
 6077W        W10277   8.392   1.577  13.214 -0.0644  0.1327  0.0146
 6078W        W10278   6.370   6.575   3.125 -0.3939 -0.7559 -0.0929
 6079W        W10279   4.562   7.043  10.272  0.1066  0.2320 -0.0580
 6080W        W10280   8.173   4.485   9.579 -0.1366  0.2083 -0.4523
 6081W        W10281   3.736   2.937  10.348  0.0659  0.2684 -0.0919
 6082W        W10282  10.198   0.585  10.878  0.1581  0.0763  0.1585
 6083W        W10283   6.296  10.037  12.111  0.1850 -0.0760  0.0988
 6084W        W10284   2.582   2.429  13.185  0.1930  0.0426  0.2081
 6085W        W10285   3.707   2.158  12.844 -0.0067 -0.0439  0.1448
 6086W        W10286   5.228   5.206   9.627 -0.0709 -0.0047 -0.0125
 6087W        W10287   0.183   4.690  12.182  0.2399 -0.0719  0.3616
 6088W        W10288   4.513   4.477   1.027  0.0541  0.0125 -0.1413
 6089W        W10289   4.532   8.703   9.753  0.0023 -0.2831 -0.1710
 6090W        W10290   9.924   3.095  11.634  0.0803  0.0178  0.1415
 6091W        W10291   5.812   5.225  11.049  0.0827 -0.1020  0.0914
 6092W        W10292   4.065   3.004  11.717  0.0121  0.3537 -0.0252
 6093W        W10293   6.050   3.494   4.259  0.0952  0.0513 -0.1663
 6094W        W10294  10.235   2.055   2.579 -0.0978 -0.1832  0.5060
 6095W        W10295   4.464   5.249   2.188 -0.0505  0.3514 -0.2075
 6096W        W10296   6.318   7.154   9.820  0.1004 -0.1528 -0.3549
 6097W        W10297   4.968   5.948   3.407 -0.2258  0.1099 -0.1506
 6098W        W10298   7.146   6.874  12.236  0.3204 -0.0760 -0.1368
 6099W        W10299   0.052   9.182   1.021 -0.0124 -0.0104 -0.0936
 6100W        W10300   8.313   4.439  12.553  0.1390  0.1051 -0.2496
 6101W        W10301   6.433   7.868   9.536  0.0505 -0.2794  0.3776
 6102W        W10302   7.066   3.545   1.484 -0.1008 -0.0044 -0.3584
 6103W        W10303   1.405  10.342   1.574  0.1733  0.1961 -0.0900
 6104W        W10304   4.609   7.152   2.810 -0.2113 -0.2143 -0.3160
 6105W        W10305   0.754   2.834   3.537  0.0741 -0.0959 -0.1169
 6106W        W10306   3.368   0.544   4.161 -0.0108 -0.4277  0.2201
 6107W        W10307   8.101   6.493  13.258 -0.2458  0.0651 -0.0931
 6108W        W10308   3.230   6.545   4.815  0.3923  0.0021 -0.3470
 6109W        W10309   9.587   6.787  10.495 -0.1598 -0.1732 -0.0603
 6110W        W10310   4.272   7.415  10.031 -0.0346 -0.0649  0.0156
 6111W        W10311   0.613   6.774   9.278 -0.3975  0.1196  0.0337
 6112W        W10312   2.405   0.280   3.670  0.0869 -0.1470  0.1705
 6113W        W10313   5.017   2.404   9.641 -0.4028  0.3134 -0.0551
 6114W        W10314   2.673   8.011   1.438  0.0518 -0.1098 -0.2459
 6115W        W10315   4.192   0.438  11.113 -0.1859 -0.0945 -0.2228
 6116W        W10316   9.268   4.215  10.395  0.3675 -0.0415  0.0239
 6117W        W10317   2.560   6.975  11.931  0.1106  0.4783  0.0654
 6118W        W10318   4.163   9.472   5.027  0.2612 -0.0492  0.0487
 6119W        W10319   5.241   9.976   3.150 -0.0585  0.0639 -0.0100
 6120W        W10320   6.080   2.202  12.163 -0.2431  0.1902  0.0647
 6121W        W10321  10.166   4.828   2.089  0.2720  0.2225  0.0890
 6122W        W10322   7.920   6.170  10.015  0.1089  0.0157 -0.1580
 6123W        W10323   9.275   0.195   2.248 -0.0628 -0.0390 -0.2895
 6124W        W10324   6.744   5.695   1.958  0.5085  0.1345 -0.1331
 6125W        W10325   5.356   1.803  12.030  0.0349  0.3210 -0.1231
 6126W        W10326   3.020   5.024   8.823  0.0943  0.0296 -0.1315
 6127W        W10327   7.689   3.739  11.438  0.1336  0.0420 -0.0043
 6128W        W10328  10.002   5.005   0.641 -0.0785 -0.3055  0.0887
 6129W        W10329   7.995   3.620   3.223 -0.0699 -0.1838 -0.2198
 6130W        W10330   7.014   8.662   0.902 -0.1772  0.1489  0.0421
 6131W        W10331   5.679   4.166   1.778 -0.0059  0.0204 -0.1470
 6132W        W10332   6.327   9.615   3.726  0.3054  0.0773 -0.2829
 6133W        W10333   4.257   9.102   3.335  0.1577 -0.1380 -0.2845
 6134W        W10334   2.875   8.576   9.627 -0.1021 -0.0119 -0.1222
 6135W        W10335   3.339   9.303   1.316 -0.0578  0.1151  0.2133
 6136W        W10336   1.004   9.222   4.116 -0.1179  0.0040 -0.3170
 6137W        W10337   0.485   8.732   9.697  0.1004  0.2408 -0.1807
 6138W        W10338   7.762   0.121  13.078 -0.2389 -0.1268  0.2898
 6139W        W10339   2.649   2.157   9.981  0.0188 -0.0402 -0.1566
 6140W        W10340   6.487   7.280   2.729 -0.2906  0.0754  0.1322
 6141W        W10341   9.778   6.838   1.852  0.1534  0.1238  0.1267
 6142W        W10342   1.394   0.242  13.208 -0.0090  0.3659  0.1392
 6143W        W10343   6.967   8.460  11.085  0.1693  0.4708  0.0463
 6144W        W10344   0.196   9.704   0.867 -0.0619 -0.1238 -0.0837
 6145W        W10345   6.218   4.665   3.364 -0.1018 -0.0717 -0.0388
 6146W        W10346   5.303  10.325  12.171 -0.0553 -0.0778  0.0308
 6147W        W10347   9.792   1.654  13.441 -0.1489 -0.0381  0.2317
 6148W        W10348   7.174   7.067   4.220  0.0009  0.2269 -0.1083
 6149W        W10349   0.232  10.155  13.466  0.1856 -0.1211  0.0328
 6150W        W10350   3.084   1.675   2.064  0.2928  0.0328 -0.0287
 6151W        W10351   6.254   4.943   4.739 -0.3043  0.2108 -0.0759
 6152W        W10352   0.811   0.988  10.950  0.1091 -0.1264 -0.1172
 6153W        W10353   4.058   8.587  11.126  0.2397 -0.2185  0.0789
 6154W        W10354   3.009  10.366  12.465  0.1180 -0.0288 -0.2805
 6155W        W10355   2.504  10.381   9.954  0.3637 -0.4505  0.2268
 6156W        W10356   2.606  10.040  12.451  0.1720 -0.1427  0.1416
 6157W        W10357   9.639   4.204   1.754  0.0478 -0.0005 -0.2064
 6158W        W10358   2.650   1.254   3.523 -0.0330  0.1743 -0.1333
 6159W        W10359   7.174   8.072   2.500 -0.2307  0.1112 -0.1265
 6160W        W10360   4.853   8.749   0.661 -0.2256  0.0395  0.1558
 6161W        W10361   4.879   1.236  10.178 -0.3568  0.1386 -0.0786
 6162W        W10362   0.652   7.304   9.124  0.1272  0.1831  0.1803
 6163W        W10363   7.075   9.072   2.146  0.0547  0.1297 -0.2317
 6164W        W10364   9.363   8.750  13.196 -0.0918  0.2341  0.0944
 6165W        W10365   2.625   8.994  11.377  0.1327 -0.0762 -0.3565
 6166W        W10366   9.208   1.081   2.866 -0.0607 -0.5609 -0.0141
 6167W        W10367   3.232   6.713   0.431 -0.0108 -0.1149  0.0717
 6168W        W10368   2.205   7.355   3.458 -0.0480 -0.1373 -0.2864
 6169W        W10369  10.435   8.171  12.393 -0.1250 -0.0357 -0.0004
 6170W        W10370   7.097   3.623  12.378  0.0225 -0.2088 -0.1115
 6171W        W10371   6.360   2.676   2.231 -0.2399  0.1932  0.2222
 6172W        W10372   7.851   7.966  12.717 -0.4862 -0.2554 -0.0285
 6173W        W10373   9.260   8.014   0.317 -0.0328  0.1229  0.2911
 6174W        W10374   3.303   1.662  11.955 -0.3853 -0.1819  0.3426
 6175W        W10375   3.632   6.947   1.296  0.1590 -0.0646 -0.1927
 6176W        W10376   5.707   5.886   2.303  0.1162 -0.0074 -0.2314
 6177W        W10377   4.512   8.514  11.328 -0.0447  0.0299  0.0007
 6178W        W10378   8.918   2.872   4.340 -0.1624 -0.2082 -0.0389
 6179W        W10379   9.369   9.970  11.834 -0.2198 -0.2206  0.1839
 6180W        W10380   5.818   3.264   1.288  0.2490 -0.0806 -0.2074
 6181W        W10381   7.765   8.897   0.591  0.1685  0.0048  0.0875
 6182W        W10382   4.084   9.147   2.800  0.3002  0.1270 -0.1086
 6183W        W10383   4.893   0.311  12.943 -0.0183 -0.2168 -0.0206
 6184W        W10384   7.456   9.461   0.426  0.3769  0.4718 -0.0600
 6185W        W10385   5.208   9.700  10.828  0.0041 -0.1735  0.1855
 6186W        W10386   9.827   2.161  12.277  0.1319 -0.0945  0.3423
 6187W        W10387   9.104   1.044  10.333  0.0689 -0.1236  0.1427
 6188W        W10388   1.960   5.360   2.565  0.3006  0.0527 -0.1792
 6189W        W10389   2.632   7.149   9.983  0.0041  0.0384 -0.0258
 6190W        W10390   6.309   1.075  12.249  0.2281 -0.2018 -0.3835
 6191W        W10391   4.799   5.792  11.772 -0.0777 -0.0089  0.4194
 6192W        W10392   6.031   7.975   4.842  0.1833  0.0403  0.3611
 6193W        W10393   7.567   7.305  11.495  0.2989 -0.1886 -0.1265
 6194W        W10394   2.062   6.024  12.611  0.1014  0.0313  0.1692
 6195W        W10395   3.139   1.064   0.802  0.1412  0.0704  0.1046
 6196W        W10396   0.142   1.395  11.293 -0.1337  0.2220 -0.1413
 6197W        W10397   4.691   9.439   0.250  0.2953 -0.0543 -0.1850
 6198W        W10398   1.749   9.703   2.953  0.1054  0.2304 -0.0839
 6199W        W10399   1.764   5.403   9.851 -0.1321  0.0027  0.1715
 6200W        W10400   8.992  10.161   2.954  0.1997  0.2723  0.0708
 6201W        W10401   7.608   7.216   0.835 -0.0898 -0.1195  0.2554
 6202W        W10402   5.023   6.208   9.393  0.1821 -0.0442 -0.2906
 6203W        W10403   9.186   0.306  11.396  0.0846  0.0418  0.0228
 6204W        W10404   2.011   2.720  11.806 -0.2561  0.0463  0.0864
 6205W        W10405   3.113   1.516   0.467 -0.3436  0.2236 -0.0479
 6206W        W10406   8.672   9.387   2.400  0.2002  0.0044  0.0533
 6207W        W10407   3.318   8.543   0.848 -0.1644  0.2988  0.2497
 6208W        W10408   5.513   9.124   1.144  0.1597  0.3371  0.0962
 6209W        W10409   4.857   5.904   1.605 -0.1955 -0.3464 -0.0161
 6210W        W10410   0.287   4.780   0.171 -0.1486  0.0283  0.0785
 6211W        W10411   2.223   3.055   3.913 -0.4045 -0.4889  0.0385
 6212W        W10412   3.242   1.311   4.146  0.2478 -0.0028 -0.3091
 6213W        W10413   2.380   4.762   4.646 -0.0054 -0.0256  0.0326
 6214W        W10414   4.771   0.730   0.237 -0.3583  0.0215 -0.0323
 6215W        W10415   7.758   9.704   0.071 -0.0464 -0.2378  0.0097
 6216W        W10416   1.988   9.820  11.836  0.1682 -0.1003  0.0418
 6217W        W10417   1.785   9.403  11.691 -0.0071 -0.0798 -0.0768
 6218W        W10418   6.590   2.244  12.390 -0.1038  0.1166 -0.0440
 6219W        W10419  10.236   4.787  11.798  0.2600  0.0504  0.0197
 6220W        W10420   3.152   5.463  13.253  0.1089 -0.0221 -0.2737
 6221W        W10421   7.841   0.429  11.520  0.0140  0.1495  0.0215
 6222W        W10422   8.224   1.636  10.557  0.2649  0.0189 -0.0468
 6223W        W10423   6.168   4.245   3.050 -0.0453 -0.2150 -0.1136
 6224W        W10424   0.714   3.438   9.819  0.0096 -0.0312  0.2223
 6225W        W10425   9.036   6.061   9.038 -0.2515 -0.1240  0.4196
 6226W        W10426   9.774   9.261  11.919  0.0906 -0.0535  0.1611
 6227W        W10427   6.718   1.690  12.100 -0.0950  0.0638  0.1757
 6228W        W10428   1.470   8.970   1.562  0.1213 -0.1389  0.1636
 6229W        W10429   4.949   0.492   1.530 -0.1821 -0.2086  0.0059
 6230W        W10430   1.526   3.565  10.407 -0.2487  0.0716 -0.1571
 6231W        W10431   4.928   9.918   3.567 -0.2455  0.0997  0.1265
 6232W        W10432  10.012   6.707  12.884 -0.0149 -0.0164 -0.3260
 6233W        W10433   9.745   2.333  10.070  0.2807 -0.0984  0.0217
 6234W        W10434   8.871   5.307  12.189  0.0861  0.1541  0.1896
 6235W        W10435   0.923   3.951   9.785  0.1384  0.1762  0.1554
 6236W        W10436   9.305   7.799  12.973  0.2074  0.0302 -0.0590
 6237W        W10437   9.103   9.704  12.178  0.0093  0.0886  0.0133
 6238W        W10438   1.217   6.567   8.662 -0.2298 -0.1799  0.2579
 6239W        W10439   0.875   9.368  10.646 -0.0780 -0.1882  0.1523
 6240W        W10440   6.506   7.235  10.655 -0.0553 -0.2540  0.2405
 6241W        W10441   0.002   2.657   1.232 -0.1205 -0.2231 -0.2679
 6242W        W10442   1.022   1.455   4.570  0.2649 -0.0791 -0.2349
 6243W        W10443   4.802   8.190   0.108  0.0470  0.1648  0.5119
 6244W        W10444   8.798   0.043   0.625  0.2313  0.1226  0.0689
 6245W        W10445   1.413   3.571   3.425 -0.2098  0.0282  0.0615
 6246W        W10446   5.340   3.599  11.939 -0.0553 -0.2879 -0.1554
 6247W        W10447   0.176   6.222   1.022  0.1147 -0.0341 -0.3629
 6248W        W10448  10.013  10.372   1.638  0.0956  0.0592  0.1861
 6249W        W10449   9.784   1.445  11.854 -0.2167  0.1068 -0.2564
 6250W        W10450   1.482   6.773   0.425  0.0755 -0.1480 -0.0479
 6251W        W10451   3.217   4.040  12.506  0.3287  0.1365  0.1020
 6252W        W10452   1.928   0.880  10.043  0.0013 -0.0527  0.1545
 6253W        W10453   7.129   4.891  11.199  0.0930 -0.3843  0.0699
 6254W        W10454   1.247   0.684   0.294  0.0685 -0.1370 -0.0029
 6255W        W10455   8.030   8.947   3.499  0.1505 -0.3058  0.0859
 6256W        W10456   6.011   8.714  10.776 -0.2393 -0.2571 -0.0805
 6257W        W10457  10.241   1.142  12.230  0.0392 -0.1767 -0.0236
 6258W        W10458   4.890   2.125  12.277 -0.2597 -0.0899  0.3835
 6259W        W10459   8.415   7.873   2.540  0.0582  0.3711 -0.0111
 6260W        W10460   9.444   0.742  13.387  0.1242 -0.2750  0.1589
 6261W        W10461   8.619   6.436  12.033  0.5202 -0.1321 -0.0852
 6262W        W10462   8.007   9.710   9.972 -0.2421 -0.0152 -0.0244
 6263W        W10463   6.509   5.896  11.366 -0.5532 -0.1536  0.0093
 6264W        W10464   2.195   9.999   2.086  0.0376  0.2114  0.2740
 6265W        W10465   2.471   3.562  10.759  0.1836 -0.1083  0.2396
 6266W        W10466   6.936   8.869  12.498  0.0061  0.1093  0.3149
 6267W        W10467   0.066   5.700   0.890  0.1356  0.0374 -0.0374
 6268W        W10468   7.848   6.926   4.029  0.0536 -0.0025 -0.1754
 6269W        W10469   0.279   8.348   3.790  0.1876 -0.2160 -0.2575
 6270W        W10470   9.632   9.159   3.608 -0.0021  0.1260 -0.3573
 6271W        W10471   0.504   8.155   2.763  0.1180  0.1100 -0.0627
 6272W        W10472   3.094   3.125   0.209 -0.0550 -0.0002 -0.0383
 6273W        W10473   8.030   6.996  11.611 -0.0870 -0.0317  0.0537
 6274W        W10474   0.953   8.677   3.712 -0.0203 -0.3239  0.0825
 6275W        W10475   5.126   1.872   2.956  0.2159 -0.2350 -0.2158
 6276W        W10476   5.052   6.984  10.036  0.2511 -0.0658 -0.1164
 6277W        W10477   6.005   2.825  10.879 -0.1443 -0.0010 -0.2835
 6278W        W10478   8.981   1.474   1.952  0.1434  0.0611 -0.1547
 6279W        W10479   0.970   2.067   0.585  0.0922 -0.0626 -0.2133
 6280W        W10480  10.311   3.845   1.178  0.0400 -0.1387  0.0191
 6281W        W10481   0.421   2.142  10.800  0.0722  0.1768 -0.0422
 6282W        W10482   6.675   3.557  12.672  0.1674  0.0541  0.0897
 6283W        W10483   9.526   9.899   3.341 -0.2334 -0.2746 -0.0186
 6284W        W10484   0.164   1.061   9.967 -0.2537 -0.2015 -0.1096
 6285W        W10485   5.114   5.687   2.157  0.0607 -0.0914  0.4738
 6286W        W10486   4.062   5.682   3.873  0.0427 -0.0194  0.0365
 6287W        W10487   9.675   8.125  10.422 -0.0711 -0.3837  0.0776
 6288W        W10488   5.420   6.256  10.249  0.1758 -0.1385 -0.0975
 6289W        W10489   5.811   7.133   3.776 -0.2906 -0.0669  0.2380
 6290W        W10490   4.199   4.964   2.539  0.2353 -0.0014 -0.0444
 6291W        W10491   5.286   3.495   0.608 -0.0885 -0.1722 -0.2879
 6292W        W10492   1.063   4.799  10.377 -0.0966 -0.1251  0.2026
 6293W        W10493   2.104   1.527  11.250  0.1637 -0.1736  0.0551
 6294W        W10494   8.191   4.949   3.192  0.0457 -0.0006 -0.2110
 6295W        W10495   4.854   2.853   4.572  0.1406  0.1698  0.1901
 6296W        W10496   4.376  10.027   0.776 -0.0311 -0.4734  0.0338
 6297W        W10497   3.479   6.105  12.106  0.1438  0.1103 -0.0211
 6298W        W10498   2.917   2.739   9.325 -0.0896 -0.2382 -0.2893
 6299W        W10499   1.400   7.350   4.598  0.0568  0.1686 -0.1824
 6300W        W10500   0.509   8.320   4.237  0.1556  0.0419  0.1065
 6301W        W10501   1.258   5.092   2.085  0.3143  0.1157  0.1353
 6302W        W10502   5.478   6.630  11.801  0.0981  0.2565  0.1349
 6303W        W10503   8.142   6.142   4.983  0.1527  0.0407 -0.0760
 6304W        W10504   9.531   7.885  12.489  0.2887 -0.0989  0.0346
 6305W        W10505   1.551  10.293   9.815 -0.1127  0.1698 -0.3169
 6306W        W10506   1.080   0.267   0.624 -0.2155  0.0383  0.1785
 6307W        W10507   6.133   3.642   2.157 -0.1974 -0.2429 -0.3355
 6308W        W10508   4.641   8.325  12.262  0.0479  0.0498 -0.1906
 6309W        W10509   6.451   5.181   9.712 -0.1497 -0.1058  0.1412
 6310W        W10510   2.960   0.762   2.932 -0.2724 -0.0323 -0.1014
 6311W        W10511   2.000  10.411  10.106 -0.0385  0.1077  0.0290
 6312W        W10512   4.319   5.663   1.948  0.3834  0.2661  0.1619
 6313W        W10513   4.253   7.834   1.571  0.2266 -0.1634  0.0235
 6314W        W10514   9.537   6.571   2.385  0.1597  0.0119  0.1753
 6315W        W10515   5.750   3.818  11.737 -0.0117  0.4093  0.2367
 6316W        W10516   7.289   1.555   2.604 -0.2449  0.3073 -0.0512
 6317W        W10517   7.535   9.143   2.774 -0.3465 -0.1553 -0.0023
 6318W        W10518   0.137   4.241  10.329  0.0986 -0.2974 -0.0844
 6319W        W10519   6.130   6.110   0.044  0.1103 -0.1708  0.1461
 6320W        W10520   4.001   0.494  13.474 -0.0628  0.0632 -0.3854
 6321W        W10521   4.027   4.366   3.813 -0.1164 -0.0890  0.4207
 6322W        W10522   0.763   6.206   4.894 -0.0503 -0.4210 -0.2768
 6323W        W10523   1.094   2.726  12.061  0.4367 -0.0455  0.0879
 6324W        W10524   9.271   4.215  11.344  0.1488  0.0570  0.0298
 6325W        W10525   0.393   2.103   1.685 -0.1249  0.3921 -0.4967
 6326W        W10526   2.949   4.285   3.530 -0.1144  0.3215  0.2051
 6327W        W10527   9.820   2.172  12.781  0.0161 -0.0270  0.0417
 6328W        W10528   9.262   7.509  10.756  0.0081 -0.2544  0.1589
 6329W        W10529   4.865   3.972   9.163 -0.1825  0.0768  0.0038
 6330W        W10530   6.577   2.126   1.647 -0.0839 -0.6244 -0.1484
 6331W        W10531   6.084   8.369   3.224 -0.0106  0.0743 -0.0979
 6332W        W10532   1.344   2.806   0.852  0.1635  0.1347  0.1842
 6333W        W10533   5.908   0.687   9.344 -0.4325  0.0950  0.1669
 6334W        W10534   5.865   2.047   0.787  0.0240 -0.0658 -0.2471
 6335W        W10535   0.358   4.242   8.393 -0.1211 -0.0138 -0.0759
 6336W        W10536   6.846   0.245  12.071 -0.2962 -0.2465 -0.2155
 6337W        W10537   4.047   7.603   2.554 -0.0043 -0.0687 -0.2226
 6338W        W10538   6.220   6.566   4.806 -0.3697  0.0865 -0.0695
 6339W        W10539   7.549   5.881   1.544  0.5219  0.1957  0.2297
 6340W        W10540   7.558   8.373   1.456  0.0664 -0.1697  0.1755
 6341W        W10541   1.540   3.088  13.412 -0.1399 -0.0287  0.2809
 6342W        W10542   3.115   7.197   2.948 -0.0636  0.0236 -0.0074
 6343W        W10543   8.548   4.568  10.540  0.1763  0.0658  0.1418
 6344W        W10544   8.754   3.026   0.762 -0.3069 -0.0116  0.1786
 6345W        W10545   4.129   4.834   3.587  0.0646  0.0996  0.3339
 6346W        W10546   3.237   4.367   2.791 -0.1436  0.0770  0.1058
 6347W        W10547   7.537  10.374  11.072  0.0782  0.1127 -0.0440
 6348W        W10548   5.695   7.335   3.318 -0.1519  0.1968  0.0938
 6349W        W10549   2.184   7.465  11.459  0.3234  0.0694  0.1538
 6350W        W10550   4.111   8.476   9.580 -0.0788 -0.0905  0.1816
 6351W        W10551   3.723   0.251   0.516 -0.0639  0.0126 -0.0050
 6352W        W10552   4.676   3.994  12.429  0.0571  0.1861 -0.0918
 6353W        W10553   7.519   7.069  11.004  0.0835 -0.1541  0.0688
 6354W        W10554   7.601  10.017  11.400 -0.0816 -0.0947 -0.1601
 6355W        W10555   2.530   8.013   4.145 -0.2537 -0.0056  0.3656
 6356W        W10556   6.912   7.161  13.404  0.0135 -0.1039  0.4479
 6357W        W10557   1.869   7.066   3.750 -0.1046 -0.3259  0.0716
 6358W        W10558   2.688   1.347   9.434 -0.0581  0.0251 -0.0472
 6359W        W10559   6.161   9.114   1.388 -0.1373 -0.1986 -0.2625
 6360W        W10560   7.025   0.206   1.117 -0.0281  0.1346  0.1409
 6361W        W10561   6.360   9.138   2.919  0.0145  0.0192  0.0070
 6362W        W10562   4.862   4.309   4.130  0.0092  0.2463 -0.0479
 6363W        W10563   6.044   0.837   3.355  0.0821  0.1996 -0.1469
 6364W        W10564   0.799   7.448   5.311 -0.1430 -0.0988  0.1150
 6365W        W10565   8.304   5.264   0.868 -0.0082 -0.2324 -0.1520
 6366W        W10566   3.716   0.168   1.909 -0.0213 -0.0757 -0.0516
 6367W        W10567   4.441   6.180   0.611  0.2416  0.2594  0.0053
 6368W        W10568   6.020   6.692   2.102  0.2200 -0.1542  0.0095
 6369W        W10569   4.770   3.105  13.268  0.0977 -0.2362  0.0308
 6370W        W10570   4.566   9.406  10.383 -0.0314  0.0308  0.1961
 6371W        W10571   3.324  10.285   3.593 -0.4577 -0.0555 -0.0405
 6372W        W10572   6.502   3.066  12.743  0.0956  0.1944  0.0778
 6373W        W10573   8.999   1.985  13.444  0.2285  0.1038 -0.1947
 6374W        W10574   6.672   8.917  11.233  0.0192 -0.1467  0.0295
 6375W        W10575   5.150   7.574  10.815 -0.1261 -0.2399  0.2082
 6376W        W10576   0.113   8.876  10.488  0.0362  0.0908  0.0269
 6377W        W10577   6.675   9.401  11.027 -0.3294  0.0426  0.0223
 6378W        W10578   1.558   4.788   9.571 -0.3274  0.1959 -0.0414
 6379W        W10579   6.712   0.810  11.980  0.0701 -0.1279  0.2016
 6380W        W10580   5.068   8.247  13.013  0.2242  0.0458  0.1569
 6381W        W10581   5.245   9.067   1.693  0.0608  0.0153  0.1643
 6382W        W10582   3.161   2.742   2.499 -0.1465 -0.0089 -0.0287
 6383W        W10583   5.807   3.535   0.435  0.4821  0.1209  0.3489
 6384W        W10584   7.637   7.095   1.853  0.1147  0.2038  0.0675
 6385W        W10585   8.371   8.315  10.225 -0.0212 -0.1940 -0.0537
 6386W        W10586   1.662   9.611   0.598 -0.3421  0.2342 -0.1175
 6387W        W10587   6.607   1.964   0.697 -0.4538  0.1686  0.3412
 6388W        W10588   6.541   2.413  13.153 -0.3958 -0.3251 -0.0450
 6389W        W10589   3.342   6.037  11.277 -0.1034 -0.1425  0.0497
 6390W        W10590   1.152   5.084   2.691  0.0725  0.1695 -0.3992
 6391W        W10591   7.077   7.269   9.362 -0.0415 -0.3576  0.2324
 6392W        W10592   8.174   6.573  12.222 -0.0040 -0.0117  0.0492
 6393W        W10593   8.086   2.921  13.322 -0.2708 -0.0629 -0.6394
 6394W        W10594  10.089   7.352  11.360  0.1564  0.3951  0.2156
 6395W        W10595   0.055   4.470   3.187  0.1367  0.0235 -0.1658
 6396W        W10596   9.392   3.547  13.211 -0.3306 -0.1216 -0.1253
 6397W        W10597   4.345   8.610   4.406 -0.2168 -0.0473  0.2206
 6398W        W10598   0.048   0.219   3.650 -0.1281 -0.0957  0.0709
 6399W        W10599   1.657   3.594  11.172 -0.2322 -0.0617 -0.1006
 6400W        W10600   7.484   5.228  11.049 -0.0258 -0.0884  0.2972
 6401W        W10601   3.291   3.939   3.414 -0.3915  0.2084  0.0269
 6402W        W10602   3.074   6.925   2.526  0.3296 -0.1873 -0.3460
 6403W        W10603   4.130   8.609   3.385 -0.0793 -0.1247  0.2785
 6404W        W10604   4.560   3.816   2.419 -0.0700  0.3046  0.4295
 6405W        W10605   7.901   5.205  11.913  0.1176 -0.1744  0.1510
 6406W        W10606   3.600   4.681  10.268  0.2335  0.0842  0.3034
 6407W        W10607   1.118   1.116  11.402  0.0167 -0.1147  0.4032
 6408W        W10608   6.275   3.712   8.721  0.5326 -0.4946  0.0228
 6409W        W10609   7.123   7.237   1.870  0.0263 -0.2755  0.1296
 6410W        W10610   4.844   4.900   4.870 -0.1152  0.1443  0.0151
 6411W        W10611   2.122   6.516   0.629 -0.0200  0.0937 -0.0228
 6412W        W10612   0.555   8.394   1.703  0.0042  0.0051 -0.1347
 6413W        W10613   6.963   9.443   2.978  0.1404 -0.3398 -0.1455
 6414W        W10614   8.877   0.706   2.518  0.1037  0.0340 -0.0442
 6415W        W10615   8.810   8.839  11.879 -0.1077 -0.1448  0.3176
 6416W        W10616   6.685   3.915   2.947  0.1937  0.3412  0.2260
 6417W        W10617   7.033   4.080   3.522 -0.0381 -0.3784 -0.0590
 6418W        W10618   5.833   8.719   9.347  0.0188  0.1139 -0.0721
 6419W        W10619   2.143   1.939   5.272 -0.1255  0.2224 -0.1074
 6420W        W10620  10.170   0.612  11.395 -0.0203 -0.2631 -0.0896
 6421W        W10621   8.547  10.271   2.590 -0.3230  0.1883 -0.2049
 6422W        W10622   7.991   4.030  12.688 -0.1849 -0.0550 -0.0352
 6423W        W10623   8.249  10.083   1.293  0.0077 -0.1375  0.2384
 6424W        W10624   9.844   8.068   4.469  0.1084  0.1226 -0.3291
 6425W        W10625   3.435   4.062   2.418  0.0191  0.2752 -0.1324
 6426W        W10626   5.020   3.595  13.220  0.0304  0.0709 -0.0316
 6427W        W10627   7.505   6.558   3.911  0.3264  0.2587 -0.0281
 6428W        W10628   1.359   6.991   0.017 -0.1197  0.2255  0.2295
 6429W        W10629   2.013   0.727   3.874  0.1844 -0.2127  0.2692
 6430W        W10630   1.845   0.638   2.734 -0.0095 -0.1996 -0.2630
 6431W        W10631   7.098   7.547  10.250  0.0895 -0.0362  0.2171
 6432W        W10632   5.226   3.886   1.815 -0.1733 -0.0889 -0.0383
 6433W        W10633   7.395   0.723   3.755 -0.2640 -0.1007 -0.0533
 6434W        W10634   9.449   4.881   2.640  0.0195 -0.0822 -0.1441
 6435W        W10635   1.636   1.520  13.034 -0.2066  0.5161 -0.1189
 6436W        W10636   7.594   6.491   8.863 -0.0930 -0.1409 -0.0514
 6437W        W10637  10.090   3.641   2.995 -0.1896 -0.2009 -0.3408
 6438W        W10638   2.669   3.600   2.331 -0.1342 -0.2151 -0.2068
 6439W        W10639   7.801   4.830   4.830  0.3613 -0.0401  0.1474
 6440W        W10640   3.154   7.061   2.039  0.0661 -0.0127 -0.4502
 6441W        W10641   5.118   9.570   2.779  0.3092  0.2297 -0.1598
 6442W        W10642   7.394   9.155  11.839  0.0132  0.1697 -0.0991
 6443W        W10643   3.522   6.326   0.222  0.0174  0.3421 -0.0866
 6444W        W10644   1.350   5.531   3.796 -0.1637  0.2806  0.1545
 6445W        W10645   1.790   8.281   1.251 -0.0735 -0.3131  0.2901
 6446W        W10646   7.481   3.716   1.264 -0.2408 -0.0353  0.2367
 6447W        W10647   4.139   2.991   1.212  0.1330  0.1117  0.0773
 6448W        W10648   8.050   7.885  10.270  0.1127  0.0215 -0.0830
 6449W        W10649   7.577   9.800  12.650  0.3323 -0.3636  0.1071
 6450W        W10650   0.636   7.100  12.307 -0.3565 -0.1403 -0.1213
 6451W        W10651   2.975   0.298   4.355  0.0882  0.1942  0.2309
 6452W        W10652   0.186   0.683   9.595 -0.1621 -0.1408 -0.0992
 6453W        W10653   9.293   1.631  11.555  0.0106  0.0496  0.0978
 6454W        W10654   9.645   9.278   2.711 -0.1156  0.3026  0.1985
 6455W        W10655   8.154   0.939  10.439  0.1197 -0.1304  0.1152
 6456W        W10656   9.725   7.221  11.690 -0.1741 -0.2114  0.0624
 6457W        W10657   7.887   1.589  11.734 -0.2344 -0.1067 -0.1665
 6458W        W10658   3.447   1.838   1.800 -0.2325 -0.3233 -0.2962
 6459W        W10659   9.515   3.658   1.699 -0.2779 -0.0145  0.2672
 6460W        W10660   0.297   5.857   1.318 -0.2108  0.2429  0.1699
 6461W        W10661   9.497   4.038  10.877 -0.3228 -0.1919 -0.0379
 6462W        W10662   3.299  10.418   9.929 -0.2119  0.1022 -0.2849
 6463W        W10663   9.048   8.974  12.873  0.1817 -0.1151 -0.0224
 6464W        W10664   3.480   2.270   3.910 -0.1206  0.0171 -0.5079
 6465W        W10665   5.793   9.373  12.480 -0.0759 -0.1104 -0.0951
 6466W        W10666   9.383   0.689   2.143 -0.0913 -0.2429  0.0447
 6467W        W10667   2.243   8.983   9.200  0.2427 -0.1062 -0.5598
 6468W        W10668   6.157   6.915   2.738  0.1262  0.0754 -0.2860
 6469W        W10669   0.305   7.214  12.672 -0.1161  0.3267 -0.3955
 6470W        W10670   0.854   4.647   1.403  0.1248 -0.2622 -0.3390
 6471W        W10671   6.827   3.780  13.060 -0.1772 -0.2598 -0.0580
 6472W        W10672   9.714   2.666  13.018  0.2668  0.0750  0.2721
 6473W        W10673   1.157   1.415  12.723  0.1997 -0.0683 -0.0132
 6474W        W10674   0.979   3.974  11.376  0.1568 -0.3124  0.1941
 6475W        W10675   1.961   4.438  12.163  0.0550 -0.1299  0.0677
 6476W        W10676  10.051   5.768  13.068 -0.0208  0.0354  0.1943
 6477W        W10677   4.725   0.038   1.701 -0.0310 -0.2140 -0.0348
 6478W        W10678   5.035   1.987   2.415 -0.2847  0.1190 -0.0711
 6479W        W10679   4.205   0.204  10.146 -0.1151  0.1281 -0.5403
 6480W        W10680   4.671   7.219  13.316  0.1054 -0.4345 -0.2807
 6481W        W10681   4.648   6.107  13.269  0.3773 -0.0133 -0.0047
 6482W        W10682   3.918   3.575   8.915 -0.1242 -0.0546  0.0046
 6483W        W10683   4.752   0.329  10.966 -0.0302  0.1673  0.1558
 6484W        W10684  10.357   9.967   1.730 -0.0493  0.1795 -0.1507
 6485W        W10685   6.620   9.063  11.731 -0.0525 -0.2183  0.3331
 6486W        W10686   7.152   8.823  11.489  0.1921  0.0547  0.0356
 6487W        W10687   6.756   6.279   4.637  0.1884  0.1746 -0.0643
 6488W        W10688   1.052   2.535  11.139 -0.1341 -0.2240  0.0224
 6489W        W10689   5.664   5.681   3.868  0.0454 -0.1360  0.0281
 6490W        W10690   0.128   7.093   0.216  0.1252  0.1153  0.2047
 6491W        W10691   4.549   4.299  11.108  0.1680 -0.3794  0.0907
 6492W        W10692   4.607  10.367  12.067  0.2419  0.1020 -0.0671
 6493W        W10693   7.796   4.476  12.263 -0.2834 -0.2823  0.0955
 6494W        W10694   2.613   9.670   1.026 -0.0382  0.1287 -0.0287
 6495W        W10695   0.742   7.785   2.427  0.1295 -0.1155  0.3277
 6496W        W10696   3.109   0.352  11.011 -0.5208 -0.0627  0.0162
 6497W        W10697   0.729   1.806  12.623  0.0380 -0.2048  0.1566
 6498W        W10698   7.919   4.484   8.476  0.4375  0.1810  0.0666
 6499W        W10699   6.790   4.166  10.173 -0.0025  0.0930  0.1189
 6500W        W10700   3.697   6.520   3.474 -0.4621  0.0816  0.2152
 6501W        W10701   9.146   2.964   2.164 -0.3176 -0.0205  0.0469
 6502W        W10702   4.764   5.093  11.366  0.0031  0.1865  0.0796
 6503W        W10703   8.397   0.233   2.555 -0.1731  0.0819  0.1216
 6504W        W10704   6.125   3.986   1.651 -0.0022 -0.2693  0.1869
 6505W        W10705   8.191   7.798   1.967  0.0693 -0.1114 -0.2627
 6506W        W10706   7.177   7.586   4.319 -0.2365  0.3602  0.2518
 6507W        W10707  10.206   4.950   3.707 -0.2029 -0.3464 -0.2140
 6508W        W10708   6.646   3.718  12.171 -0.2002 -0.3036  0.1131
 6509W        W10709   0.264   8.170   5.153  0.0010  0.0862  0.3230
 6510W        W10710   6.096   3.353   2.569 -0.1593 -0.2562 -0.0291
 6511W        W10711   8.228   6.424  12.713 -0.1341  0.2891 -0.0305
 6512W        W10712   5.642   1.779   9.673  0.0600  0.3223  0.2158
 6513W        W10713   5.827   5.993   2.950 -0.0667 -0.0938 -0.1656
 6514W        W10714   0.281   4.899   2.314  0.2251 -0.1447  0.1188
 6515W        W10715   3.116   4.133   1.429  0.2291 -0.0170  0.1534
 6516W        W10716   9.660  10.452  11.371  0.0669 -0.0009  0.3389
 6517W        W10717   5.063   3.202   4.177  0.2414 -0.1585 -0.0220
 6518W        W10718   0.554   6.815  12.928 -0.2156  0.0408  0.0860
 6519W        W10719   7.751   2.826   3.584 -0.3786  0.0847 -0.2096
 6520W        W10720   0.438   8.188   9.812  0.2772  0.2835 -0.0620
 6521W        W10721   4.318   7.648   3.669 -0.1068 -0.0791  0.3533
 6522W        W10722   2.727   2.246   9.484  0.1378  0.0505 -0.1712
 6523W        W10723   6.237   3.552  11.509  0.0124 -0.1321 -0.1179
 6524W        W10724   1.844   7.091   9.796 -0.1796 -0.1849 -0.3065
 6525W        W10725   1.365   3.600   1.949  0.4705  0.1914  0.1421
 6526W        W10726   6.690   1.341  11.005  0.2677  0.0955 -0.1868
 6527W        W10727   2.753   6.053   3.703 -0.2870 -0.2594 -0.0853
 6528W        W10728   1.189   5.735  10.706  0.3082 -0.0105  0.0320
 6529W        W10729   8.195   7.230   1.599  0.1175 -0.4700 -0.1170
 6530W        W10730   6.346   4.586  11.661  0.2413  0.0154  0.1676
 6531W        W10731   8.801   7.221  10.041 -0.0810  0.1400 -0.2366
 6532W        W10732   8.038   9.560  12.084  0.0487  0.1596  0.3078
 6533W        W10733   0.152   9.498   1.373 -0.0420  0.0287 -0.1760
 6534W        W10734  10.414   9.537   3.178  0.1259  0.0402 -0.0830
 6535W        W10735   5.454   6.874  12.702  0.2587  0.1806 -0.2905
 6536W        W10736   5.337   5.556   3.496  0.1002 -0.0645 -0.2697
 6537W        W10737   6.888   2.489   9.841 -0.0942  0.2829  0.3241
 6538W        W10738   4.807   2.915   3.709 -0.2467 -0.0019 -0.0465
 6539W        W10739   9.363   2.579   1.910  0.0081 -0.1256 -0.2199
 6540W        W10740   2.071   9.166   1.752 -0.1412  0.0753  0.2488
 6541W        W10741   9.853   8.669  11.978  0.1031 -0.1638  0.1073
 6542W        W10742   2.990   4.870  10.267  0.2024  0.3359  0.1152
 6543W        W10743   0.489   1.097   4.003  0.0196  0.1689 -0.1576
 6544W        W10744   4.213   5.328   0.840 -0.4911  0.0848  0.0022
 6545W        W10745   2.011   2.229   8.269  0.0542 -0.1139  0.1501
 6546W        W10746   0.863   6.028   9.251  0.2751 -0.0374 -0.0031
 6547W        W10747   9.533   8.068  13.350  0.1016 -0.0560  0.0258
 6548W        W10748   8.832   7.864   9.169  0.1597  0.0787 -0.2144
 6549W        W10749   6.844   5.810  10.839  0.0086  0.0533 -0.0490
 6550W        W10750  10.472   2.346  11.268  0.0220  0.0367  0.3134
 6551W        W10751   0.671   0.225  10.433 -0.0882 -0.1711 -0.1882
 6552W        W10752   9.302   4.693  10.597 -0.1281  0.0610  0.0442
 6553W        W10753   7.696   2.056   0.878 -0.2149  0.1052 -0.2072
 6554W        W10754   6.838   9.966  13.321 -0.0813 -0.1202  0.0070
 6555W        W10755   7.445   7.828  13.362 -0.2669  0.0641 -0.1078
 6556W        W10756   8.947   3.120   9.266  0.0074  0.0249 -0.2452
 6557W        W10757   4.961   2.921   1.662 -0.1087 -0.0115  0.3400
 6558W        W10758   0.849   0.690   1.458  0.1560 -0.0182  0.0220
 6559W        W10759   0.975   6.036   2.223 -0.1375 -0.1096  0.0137
 6560W        W10760   8.807   5.580  10.089 -0.0675  0.1184 -0.0309
 6561W        W10761   8.904   7.639  10.295 -0.1072 -0.1353  0.0790
 6562W        W10762   5.864   0.157   0.428  0.3639 -0.2718 -0.1985
 6563W        W10763   5.642   3.520   2.999 -0.1841  0.0038 -0.2836
 6564W        W10764   0.498   7.930   0.777 -0.0778  0.1847  0.0529
 6565W        W10765   0.107   9.884  12.453 -0.2609 -0.0711 -0.2417
 6566W        W10766   8.330   2.801   0.859  0.2181 -0.1276 -0.2051
 6567W        W10767   3.765   0.110  12.615  0.5264 -0.1251  0.0905
 6568W        W10768   4.505   4.240   8.878 -0.1169 -0.0939 -0.0709
 6569W        W10769   1.716   5.126   3.558 -0.1296 -0.1538 -0.3950
 6570W        W10770   1.629   1.487  10.789 -0.2511 -0.3570  0.1106
 6571W        W10771   1.081   8.402   1.921 -0.1448 -0.0948 -0.0071
 6572W        W10772   0.703   7.834   9.406  0.0147 -0.0012 -0.1319
 6573W        W10773   5.249  10.317   3.552  0.3046  0.1386 -0.1869
 6574W        W10774   7.132   5.406  10.823 -0.2195  0.2091  0.1021
 6575W        W10775   2.241   3.107  10.670  0.0560  0.3106  0.0490
 6576W        W10776   9.060   3.815   2.067  0.1069  0.3655  0.1511
 6577W        W10777   1.325   3.026  10.507  0.1728 -0.1311 -0.0559
 6578W        W10778   0.451   2.736   4.497 -0.2149 -0.1395 -0.0992
 6579W        W10779   7.251   6.446   2.560 -0.0766 -0.1428  0.0398
 6580W        W10780   4.100   5.915   4.998 -0.0687 -0.1688  0.1006
 6581W        W10781  10.060   5.382  11.010  0.2511  0.3187 -0.1413
 6582W        W10782   9.506   8.937   3.117 -0.1781  0.1049  0.0922
 6583W        W10783   0.378   1.656   2.256 -0.0293 -0.0535  0.0022
 6584W        W10784   1.097   4.234  12.411 -0.0697 -0.1249  0.1392
 6585W        W10785   2.128   9.219   0.978  0.0158 -0.1627  0.0398
 6586W        W10786   7.156   4.589  10.281 -0.2588 -0.2098  0.0182
 6587W        W10787   5.703   0.831  11.791 -0.3702  0.0997  0.0697
 6588W        W10788   0.468   4.407   3.467 -0.2072  0.0270  0.0293
 6589W        W10789   6.930   3.096  13.169 -0.2248  0.0244  0.2743
 6590W        W10790   3.149   2.856   0.685 -0.2796 -0.0673  0.2704
 6591W        W10791   3.957   5.481   9.416  0.1496  0.2796  0.2776
 6592W        W10792   8.208   8.964  13.080  0.2167  0.0020  0.1498
 6593W        W10793   3.761   5.792   8.213 -0.2213 -0.2036  0.2916
 6594W        W10794   5.345   6.954   1.344 -0.1012 -0.2608 -0.0548
 6595W        W10795   2.224   3.747  13.308  0.0418  0.5458 -0.1132
 6596W        W10796   6.872   0.728  10.319 -0.4572 -0.4008 -0.0291
 6597W        W10797   4.210   5.983   9.546  0.2515 -0.2158 -0.1411
 6598W        W10798   7.264   4.632   0.114  0.3358 -0.1908 -0.0089
 6599W        W10799   6.805   1.241  10.484 -0.1497  0.2873  0.0193
 6600W        W10800   0.274   8.068  12.865 -0.0114 -0.1894 -0.3988
 6601W        W10801   5.570   0.364   9.596 -0.0460 -0.3116  0.2032
 6602W        W10802  10.315   7.003   4.051 -0.0092 -0.0274  0.1153
 6603W        W10803   2.167   4.779  11.879 -0.0603 -0.0814  0.0353
 6604W        W10804   9.591   7.220   9.974 -0.0264  0.0462 -0.0414
 6605W        W10805  10.396   0.507   1.307  0.4668  0.0190 -0.1454
 6606W        W10806   0.080   3.991  10.759 -0.0588 -0.2085  0.0839
 6607W        W10807   0.511   5.440   2.095  0.1504  0.1288 -0.1554
 6608W        W10808   2.082   8.538  11.368  0.1892  0.0319 -0.0927
 6609W        W10809   8.551   0.603   0.310  0.0386 -0.3563  0.0022
 6610W        W10810   8.396   3.798   2.870  0.0664  0.0402 -0.0794
 6611W        W10811   5.940  10.458  13.325  0.0235 -0.1325  0.0497
 6612W        W10812   7.449   8.691   8.780  0.2460  0.3673  0.2205
 6613W        W10813   5.150   0.361   1.071 -0.0222  0.0496 -0.1970
 6614W        W10814   5.295   8.460   3.859 -0.2159  0.3452 -0.1605
 6615W        W10815   4.025   7.622  11.447 -0.2185  0.1751  0.0968
 6616W        W10816   1.276   7.091  12.966 -0.3987  0.2164  0.0389
 6617W        W10817   0.460   3.328  12.697  0.1705 -0.0800  0.1134
 6618W        W10818   2.780   0.407   3.242 -0.1565  0.3280 -0.0388
 6619W        W10819   1.209   0.458   8.916  0.1765  0.0494 -0.1886
 6620W        W10820   4.287   1.993   1.907 -0.1640  0.0322  0.1527
 6621W        W10821   9.725   8.772  11.506  0.3628 -0.1328  0.1227
 6622W        W10822   7.544   5.336  11.568  0.0541 -0.0791  0.0724
 6623W        W10823   4.281   2.353   1.558  0.0629  0.2446 -0.0393
 6624W        W10824   1.000   9.731   4.156  0.0398  0.3472  0.1484
 6625W        W10825   9.435   7.335   1.816  0.0980  0.1155 -0.2000
 6626W        W10826   9.814   7.215   1.488  0.0930  0.1721  0.1160
 6627W        W10827   9.687  10.090  12.588 -0.0829  0.0509  0.2506
 6628W        W10828   4.430   7.525   9.344  0.2106 -0.1645  0.2047
 6629W        W10829   1.267   4.961  11.270 -0.0650 -0.0380  0.0160
 6630W        W10830   1.902   1.780  12.700  0.3164 -0.1139 -0.2507
 6631W        W10831   1.574   5.145  12.889  0.0891  0.1816 -0.1048
 6632W        W10832   5.894   8.527   0.132 -0.2104 -0.1949 -0.0815
 6633W        W10833   8.823   4.071   1.318  0.0652  0.2085  0.0670
 6634W        W10834   6.966   9.404  11.954 -0.1106  0.1770  0.0458
 6635W        W10835   4.349   5.987   2.468  0.1228  0.0563 -0.0192
 6636W        W10836   3.877   8.646   2.683 -0.1281  0.0988 -0.0610
 6637W        W10837   4.211   5.474   2.627  0.3497 -0.1505  0.1034
 6638W        W10838   6.740   3.795  11.528  0.3115  0.1907 -0.0325
 6639W        W10839   1.769  10.092  12.566 -0.0636 -0.0029  0.0194
 6640W        W10840   9.661   9.512   1.262  0.1438 -0.2257  0.1474
 6641W        W10841   8.468   4.591   3.045 -0.1794 -0.1438  0.0546
 6642W        W10842   9.786   1.708  11.408 -0.1769  0.0338 -0.1163
 6643W        W10843   6.069   2.710   0.054 -0.2052 -0.1732  0.0927
 6644W        W10844   4.555   1.306  11.439 -0.1120  0.1364  0.0747
 6645W        W10845   7.445   0.483   2.563 -0.0472 -0.1010 -0.1407
 6646W        W10846   7.022   1.007   9.424 -0.0216 -0.0912  0.0005
 6647W        W10847   3.679   2.011   3.512 -0.0131  0.2246  0.0778
 6648W        W10848   8.282   1.822  11.061 -0.0442  0.2382  0.2905
 6649W        W10849   9.165   5.205  10.977 -0.0125 -0.1526 -0.2494
 6650W        W10850   3.684   0.082   9.194 -0.0713 -0.2312 -0.2377
 6651W        W10851   5.608   8.187  12.457  0.3356 -0.1985  0.1862
 6652W        W10852   4.540   8.138   1.847 -0.2542  0.0263 -0.2801
 6653W        W10853   7.903   3.698   9.892 -0.1706  0.0140  0.1588
 6654W        W10854   3.563   9.450   5.359 -0.3328  0.0012 -0.0530
 6655W        W10855   2.611   7.229   1.112 -0.2294 -0.4640 -0.0059
 6656W        W10856   1.594   1.310   0.947 -0.0931 -0.1323 -0.0789
 6657W        W10857   2.777   6.274   1.832 -0.3593  0.1944  0.1159
 6658W        W10858   1.412   4.107   2.075  0.2294 -0.2715 -0.3545
 6659W        W10859   3.297  10.270   1.054 -0.3001  0.0985  0.0359
 6660W        W10860   4.822   5.954   4.976  0.1344  0.2304  0.0970
 6661W        W10861   5.840   8.490  11.207  0.1290  0.0030  0.1730
 6662W        W10862   6.816   5.790   4.856  0.4373  0.2843 -0.1395
 6663W        W10863   6.329   2.387   2.676 -0.3065  0.4683  0.0806
 6664W        W10864   4.858   2.057   9.228 -0.1961 -0.2056 -0.4291
 6665W        W10865   6.378   6.912  10.283 -0.2044 -0.1456 -0.1337
 6666W        W10866   5.333   7.052  12.099 -0.1855  0.1410  0.1551
 6667W        W10867   4.713   0.184  12.445 -0.1895 -0.5651 -0.0269
 6668W        W10868   6.971   4.668  11.700  0.2148  0.0544 -0.1773
 6669W        W10869   1.326   5.630   9.836  0.0683 -0.4397  0.3439
 6670W        W10870   8.736   3.985   8.490  0.0932  0.3589  0.0129
 6671W        W10871   9.143   7.571   4.038  0.0068  0.2803 -0.0016
 6672W        W10872   0.673   1.202  10.463 -0.1724 -0.0890 -0.0317
 6673W        W10873   9.377   7.851  11.116 -0.5748 -0.2823  0.0066
 6674W        W10874  10.319   4.374  12.847 -0.5691  0.1298  0.2793
 6675W        W10875  10.257   3.234   0.962 -0.1869  0.0019  0.1510
 6676W        W10876   7.681   6.655  12.379  0.0497 -0.2619 -0.0909
 6677W        W10877   1.418   9.170  11.404 -0.2698  0.0633 -0.2358
 6678W        W10878   9.554   5.748  13.267 -0.1123  0.0520  0.0845
 6679W        W10879  10.078   1.514   0.377 -0.2649 -0.1926  0.0781
 6680W        W10880   4.483   7.495   8.781  0.0362 -0.0848  0.0339
 6681W        W10881   7.539   8.051  10.104  0.1579 -0.1453  0.0013
 6682W        W10882   1.707   6.097  10.667  0.4450 -0.2563 -0.3714
 6683W        W10883   8.495   9.776  12.908  0.2316  0.0653  0.1253
 6684W        W10884   5.901   8.216   2.610  0.1326  0.0055  0.3259
 6685W        W10885   1.218   4.416   9.569  0.1188 -0.2548  0.2134
 6686W        W10886   6.286   2.020  13.255  0.4174  0.1759 -0.0405
 6687W        W10887   4.750   6.376   0.296 -0.0900  0.0345 -0.3955
 6688W        W10888   2.627   5.029   9.605 -0.1222  0.2820  0.1165
 6689W        W10889   9.434   3.544   0.991 -0.2827 -0.1535 -0.1371
 6690W        W10890   6.196   4.835  10.708  0.3735 -0.1238 -0.0724
 6691W        W10891   7.283   6.920   9.640  0.1057  0.0549 -0.2585
 6692W        W10892   4.524   7.834  10.102  0.3557  0.0359 -0.0649
 6693W        W10893   6.784   3.166   3.646 -0.3002  0.1331 -0.1955
 6694W        W10894   2.471   1.522  10.670 -0.3392 -0.0749  0.1837
 6695W        W10895   2.395   5.352   9.995  0.1383  0.1987  0.0978
 6696W        W10896   2.453   9.152   2.664  0.0623 -0.0908 -0.1743
 6697W        W10897   3.698   5.959  10.957 -0.0991 -0.0974 -0.1192
 6698W        W10898   7.451   3.300  12.459  0.2193  0.2664 -0.3307
 6699W        W10899   4.738   7.734   9.674  0.1930  0.0593 -0.2621
 6700W        W10900   8.336   8.502  11.691 -0.2958 -0.2289 -0.3017
 6701W        W10901   8.330  10.094  10.687 -0.0121 -0.2173  0.3859
 6702W        W10902   0.103   6.228   0.116  0.0489 -0.1454  0.2360
 6703W        W10903   6.794   7.923   1.172  0.0553 -0.0204  0.0587
 6704W        W10904   3.633   8.253  11.216 -0.0823 -0.0620  0.2598
 6705W        W10905   0.980   6.906  12.569  0.2138  0.3336 -0.1560
 6706W        W10906   9.007   2.939   9.838  0.0246  0.0480 -0.0165
 6707W        W10907   0.130   7.867  13.397 -0.2143 -0.3034  0.0872
 6708W        W10908   8.221   2.678   3.808 -0.1511  0.0859  0.0409
 6709W        W10909   3.457   8.734   4.913  0.4062 -0.1950  0.2827
 6710W        W10910   0.134   0.356   2.246 -0.1840 -0.3865 -0.0590
 6711W        W10911   0.582   4.547   4.431 -0.1151  0.0890 -0.1009
 6712W        W10912   9.391   9.637  10.521 -0.0596  0.1451 -0.1256
 6713W        W10913   2.707  10.395   9.446 -0.0746 -0.1057  0.0179
 6714W        W10914   9.645   1.228  11.422  0.0003 -0.3549  0.0840
 6715W        W10915   2.795  10.448   0.644  0.1100 -0.0137 -0.0290
 6716W        W10916   9.332   2.239  12.653  0.0648  0.0018  0.0594
 6717W        W10917   7.732   4.399   4.034 -0.1560 -0.0943  0.0979
 6718W        W10918   8.939   3.976   0.268 -0.1911 -0.1476 -0.2867
 6719W        W10919   7.992   5.516  13.084 -0.0166  0.2504 -0.4175
 6720W        W10920   2.899   3.691   8.875  0.0777 -0.0389 -0.0603
 6721W        W10921   3.092   0.058  13.240 -0.3912 -0.1124 -0.0575
 6722W        W10922   2.959   0.103   1.876 -0.1738 -0.1049 -0.1591
 6723W        W10923   0.582   7.860   4.067 -0.1397  0.0458  0.3832
 6724W        W10924   9.358   9.373   4.076  0.0718  0.0745 -0.0087
 6725W        W10925   9.299   3.790   9.740 -0.1378 -0.0651  0.0813
 6726W        W10926   4.482   5.291  10.372  0.4146  0.0386 -0.0028
 6727W        W10927   8.116   0.323  11.950 -0.1032 -0.0119 -0.4341
 6728W        W10928   3.915   4.967   1.285  0.0722  0.1525 -0.0203
 6729W        W10929   0.273   6.328  13.081  0.3333  0.0766  0.0196
 6730W        W10930   7.347   1.264   2.120 -0.1621 -0.3299 -0.1075
 6731W        W10931   8.778   0.889   1.465 -0.0805 -0.0710  0.0049
 6732W        W10932   7.538   7.569   1.913 -0.2664 -0.3096 -0.1433
 6733W        W10933   9.888   8.567   1.887  0.2399 -0.2246 -0.2363
 6734W        W10934   6.295   2.158   3.870  0.3012 -0.0225 -0.0287
 6735W        W10935   3.627   4.969   4.460 -0.3623  0.3432 -0.3792
 6736W        W10936   4.034   0.068  13.053  0.2351  0.2079  0.0996
 6737W        W10937  10.420   7.973  10.148 -0.0256  0.2489 -0.1749
 6738W        W10938   3.859   5.403  10.305 -0.2294 -0.1877 -0.1722
 6739W        W10939   2.244   5.636  13.441  0.0320  0.0300 -0.1670
 6740W        W10940   5.036   7.037   0.522 -0.1991  0.2198 -0.1023
 6741W        W10941   5.292   1.187   3.563 -0.1369  0.0914 -0.0200
 6742W        W10942   7.877   7.492   5.268  0.0650 -0.2631 -0.2636
 6743W        W10943   9.084   5.741  11.917 -0.4226 -0.5624  0.0093
 6744W        W10944   7.830   7.295   8.299 -0.0209  0.3038  0.1169
 6745W        W10945   3.777   1.934   4.749 -0.0205 -0.1224  0.0826
 6746W        W10946   5.729   7.447  12.211 -0.2407  0.0390 -0.0113
 6747W        W10947   6.521   0.008   4.171  0.3946  0.1474 -0.1284
 6748W        W10948   3.295   5.752   1.602 -0.0638 -0.0152  0.0916
 6749W        W10949   8.734   1.533   0.165 -0.1984  0.3033  0.0170
 6750W        W10950   7.201   0.138  10.813 -0.1323  0.1131 -0.0378
 6751W        W10951   3.608   3.628   9.754 -0.1975 -0.0609  0.2074
 6752W        W10952   9.082   2.900   1.666 -0.3778 -0.0075 -0.1084
 6753W        W10953   9.264   0.924  12.405 -0.1401  0.0128 -0.2930
 6754W        W10954   0.687   4.920  11.923 -0.0722  0.2247 -0.1558
 6755W        W10955   0.728   1.188   1.472 -0.2270  0.1292  0.2638
 6756W        W10956   3.943   9.923  12.151  0.4952  0.3135 -0.0220
 6757W        W10957   0.479   2.997   3.998  0.2768 -0.1980  0.2340
 6758W        W10958   9.570   4.701   1.466 -0.0723  0.1267  0.4509
 6759W        W10959   3.260   4.412   9.999  0.0895 -0.0176 -0.0983
 6760W        W10960   5.875   4.124  10.401 -0.2860 -0.2706  0.0227
 6761W        W10961   4.179   1.952   0.500 -0.0815 -0.1777  0.2474
 6762W        W10962   6.466   8.507  10.955  0.1838 -0.1200  0.0135
 6763W        W10963   3.065   5.406   9.528  0.2645 -0.0323  0.0504
 6764W        W10964   0.122   8.259  11.409 -0.0450  0.1960 -0.3218
 6765W        W10965   3.051   9.486   1.685  0.1549 -0.1963 -0.0221
 6766W        W10966   4.709   7.686   0.732  0.0439  0.3890 -0.0109
 6767W        W10967   8.712   2.434   3.279 -0.0038 -0.4479 -0.3482
 6768W        W10968   9.380   9.646  12.678  0.1087  0.0069  0.1505
 6769W        W10969   5.781   5.420  12.839 -0.3858  0.1080 -0.1049
 6770W        W10970  10.144   5.520   0.681  0.2324  0.0203  0.2600
 6771W        W10971   9.408   4.803  12.622  0.1208  0.1511 -0.1714
 6772W        W10972   2.345  10.373  10.452  0.0839  0.0383 -0.3221
 6773W        W10973   5.976   2.288   0.348 -0.1012 -0.0437 -0.1553
 6774W        W10974   8.279   6.933  12.661  0.2741  0.0477 -0.0855
 6775W        W10975   2.585   6.779   9.581 -0.0742  0.3674  0.2255
 6776W        W10976   1.473   0.239   0.262 -0.2423 -0.0955  0.1136
 6777W        W10977  10.034   8.461   3.060  0.0557 -0.3745 -0.3118
 6778W        W10978   2.008   1.545  10.427  0.2056 -0.2469 -0.0053
 6779W        W10979   4.929   2.106  10.163 -0.3694 -0.0735  0.5996
 6780W        W10980   7.878   9.421   0.861 -0.3388 -0.0708  0.1052
 6781W        W10981   7.614   2.775  13.332 -0.3530  0.2259  0.1190
 6782W        W10982   2.193   9.580   3.712 -0.2868  0.2404 -0.2345
 6783W        W10983   5.286   3.782   9.069  0.0545 -0.0807  0.0584
 6784W        W10984   1.091   0.283   1.689 -0.1767 -0.1310  0.0911
 6785W        W10985   1.799   1.617   3.513 -0.2042  0.2958  0.0998
 6786W        W10986   7.513   1.652  12.566  0.0363 -0.0171 -0.0788
 6787W        W10987   6.314   8.125  12.062  0.0567 -0.0825 -0.0776
 6788W        W10988   6.583   7.334   9.476 -0.2639 -0.2004  0.0826
 6789W        W10989   4.390   9.570   2.820  0.0015 -0.0626 -0.0120
 6790W        W10990   4.197   9.802  11.313 -0.0126 -0.3560 -0.2688
 6791W        W10991   6.746   7.800   2.507 -0.0066  0.1506 -0.0672
 6792W        W10992   6.664   9.833   3.341  0.0612  0.0157  0.0491
 6793W        W10993   3.098   2.668   4.158 -0.2125 -0.1396  0.1159
 6794W        W10994   7.815   5.927  10.848 -0.0650 -0.1905 -0.1693
 6795W        W10995   6.769   0.618   9.195 -0.0001 -0.0855  0.3739
 6796W        W10996   1.983   5.230  13.191  0.5187 -0.1836 -0.1026
 6797W        W10997   2.456   7.483  13.239 -0.3164  0.1488  0.0265
 6798W        W10998   1.384   6.893   3.867  0.1640 -0.1739  0.0016
 6799W        W10999   6.020   5.997   3.695 -0.3084  0.1510 -0.4359
 6800W        W11000   9.001   7.104   0.449  0.0347  0.0001  0.0496
 6801W        W11001   2.857   7.148   4.599  0.0041  0.1607  0.2161
 6802W        W11002   9.191   6.395  11.920 -0.1461  0.1197 -0.2190
 6803W        W11003   0.876   3.052  11.643 -0.1128 -0.1166  0.2943
 6804W        W11004   1.619   3.478   4.324 -0.1557 -0.1256  0.1539
 6805W        W11005   6.597   2.796   9.552  0.4046  0.1789 -0.0633
 6806W        W11006   6.473   6.626  11.423  0.1377  0.0086  0.0614
 6807W        W11007   1.320   5.597   1.485 -0.0211 -0.1813  0.0286
 6808W        W11008   4.213   1.537  11.833  0.0942  0.0156  0.2792
 6809W        W11009   5.586   0.043   4.537 -0.0957 -0.0441  0.1542
 6810W        W11010   8.337   4.716   9.054  0.1112 -0.1008  0.2722
 6811W        W11011   6.763   6.715   9.947  0.1943 -0.1334 -0.1806
 6812W        W11012   3.562   5.739   8.698 -0.1949  0.0778  0.1853
 6813W        W11013   4.605   2.884   4.167  0.1498 -0.0062  0.2586
 6814W        W11014   9.845   0.572   4.027 -0.0816 -0.1352  0.1340
 6815W        W11015   0.034   7.265   2.067 -0.0967 -0.4171  0.0734
 6816W        W11016   9.038   8.421  10.911  0.1952 -0.0356 -0.0093
 6817W        W11017   9.538   7.803   9.798  0.1263 -0.0111 -0.0747
 6818W        W11018   8.750   9.763  11.752  0.0146  0.1399  0.1640
 6819W        W11019   6.839   5.747  12.942  0.1716 -0.0169 -0.0544
 6820W        W11020   2.558   8.643   8.528  0.0119  0.0216  0.1285
 6821W        W11021   0.450   3.479   8.939  0.3241  0.1663  0.0451
 6822W        W11022   5.070   8.364  12.541  0.2553 -0.0629  0.2044
 6823W        W11023   5.565   6.506   4.250 -0.0042 -0.0744  0.5989
 6824W        W11024  10.196   7.042  11.735 -0.6543 -0.0229 -0.2365
 6825W        W11025   5.027   1.093   0.431  0.0959  0.1233  0.1159
 6826W        W11026   3.935   5.822   2.299  0.0870 -0.0868 -0.0766
 6827W        W11027   7.811   1.770   1.360  0.2240  0.1874 -0.0224
 6828W        W11028   2.056   5.404   3.906  0.0476 -0.1093  0.2799
 6829W        W11029  10.440   8.955   1.447  0.0208 -0.4901 -0.2883
 6830W        W11030   3.587   4.362   9.079  0.0836  0.4607 -0.0698
 6831W        W11031   9.204   5.449   0.996 -0.1123  0.0253 -0.2120
 6832W        W11032   5.508   5.216   2.911 -0.2321 -0.3119  0.1873
 6833W        W11033   8.956   3.411   1.023 -0.1554 -0.0992  0.0936
 6834W        W11034   7.956   6.486   5.359  0.1941  0.0683  0.2111
 6835W        W11035   2.716   8.030   2.859  0.2498 -0.0487  0.2863
 6836W        W11036   4.179  10.162   9.348  0.0140 -0.0589  0.3884
 6837W        W11037   4.939   3.213   0.320 -0.2779  0.1611  0.1875
 6838W        W11038   9.298   5.896   4.258  0.1468  0.0110 -0.0940
 6839W        W11039   3.968   8.322   4.319  0.2373 -0.0504  0.1376
 6840W        W11040   0.565   8.206  11.142  0.0978  0.1426 -0.0056
 6841W        W11041   9.265   0.426  12.651 -0.1696  0.0853 -0.1582
 6842W        W11042   6.381   2.501   9.929 -0.0492  0.0760  0.1071
 6843W        W11043   8.435   1.351  11.103  0.3470 -0.2884 -0.1325
 6844W        W11044   6.813   0.271  10.102 -0.1263  0.2659 -0.0022
 6845W        W11045   8.150   2.297   1.086 -0.0437  0.1508  0.0629
 6846W        W11046   1.562   2.532  10.428 -0.2867 -0.0064  0.2215
 6847W        W11047   5.547   6.631   1.033  0.0140 -0.0126 -0.3547
 6848W        W11048   1.532   2.333   2.813 -0.1579  0.0278 -0.1359
 6849W        W11049   5.954   4.534   4.607 -0.1051 -0.2005 -0.0783
 6850W        W11050   1.935   4.665  10.003 -0.3088 -0.1472 -0.0000
 6851W        W11051   0.514   6.957   3.451  0.0323 -0.0675  0.0287
 6852W        W11052   8.251   2.335   9.815 -0.3237 -0.0631 -0.1412
 6853W        W11053   5.644  10.452   9.920 -0.2214  0.0203 -0.1472
 6854W        W11054   3.714   0.773  11.644 -0.3130  0.1059 -0.1760
 6855W        W11055   6.326   2.043  10.203  0.1571  0.2080  0.0545
 6856W        W11056   6.802   2.974   2.188 -0.0702 -0.1926 -0.1383
 6857W        W11057   7.685   5.843   0.423 -0.1139 -0.0510 -0.1279
 6858W        W11058   9.657   5.950  10.146 -0.1188  0.2076 -0.2348
 6859W        W11059   0.528   0.160  10.911  0.3312 -0.2387  0.0072
 6860W        W11060   5.173   0.731   9.357  0.2159  0.1398  0.1415
 6861W        W11061   8.320   9.079   2.514  0.1736 -0.0863  0.0724
 6862W        W11062   6.905   7.452   3.911  0.1812 -0.0104 -0.1982
 6863W        W11063   6.359   8.484   9.450 -0.1432 -0.0310 -0.0545
 6864W        W11064   7.899   5.046  12.890  0.1505 -0.0845  0.1175
 6865W        W11065   6.320   4.080  11.518  0.1017  0.2379  0.1901
 6866W        W11066   9.608   7.416   3.813  0.2071 -0.2796  0.1249
 6867W        W11067   1.374   9.529   1.947  0.1868 -0.4149  0.0503
 6868W        W11068   0.763   4.731   2.616 -0.1002 -0.1377  0.1245
 6869W        W11069   8.378   2.372   2.800  0.0287 -0.1920 -0.2439
 6870W        W11070   3.296   0.343   8.983 -0.2508 -0.0260  0.0188
 6871W        W11071   3.460   3.851  12.915 -0.0541  0.3253 -0.0022
 6872W        W11072   9.930   4.708  12.689  0.0774 -0.0265  0.3725
 6873W        W11073   8.503   3.897  11.863  0.2383 -0.2522 -0.0546
 6874W        W11074   3.856   1.995   1.550  0.3369  0.4194 -0.0832
 6875W        W11075   6.680   7.389  11.793 -0.0400  0.1834  0.0221
 6876W        W11076   4.390   6.518   2.305 -0.2822  0.0935 -0.0275
 6877W        W11077   6.635   5.360   4.016  0.1613 -0.0727 -0.0091
 6878W        W11078   1.337   5.049   1.450  0.0609 -0.5709 -0.1011
 6879W        W11079   0.535   3.840   9.224  0.1936  0.2226 -0.1747
 6880W        W11080   7.539   3.749   3.507 -0.1020 -0.0260  0.0510
 6881W        W11081  10.430   0.100  12.944  0.2244  0.0605  0.4312
 6882W        W11082   2.067   5.052   9.621 -0.2376 -0.0835  0.0117
 6883W        W11083   5.936   0.496  12.100 -0.1399  0.1729  0.3337
 6884W        W11084   4.869   6.574   2.011 -0.0067  0.1790  0.0550
 6885W        W11085   2.165   3.882   3.569  0.0883 -0.1331  0.1049
 6886W        W11086   6.639   3.318   0.022  0.0694  0.2756 -0.2672
 6887W        W11087   3.704   7.077   8.961 -0.2250  0.1237  0.3981
 6888W        W11088   0.891   5.169  11.052 -0.0884 -0.3840 -0.1265
 6889W        W11089   8.229   5.133   1.346 -0.1437  0.1006 -0.2637
 6890W        W11090   4.925   6.625   2.957  0.2900 -0.1348 -0.0863
 6891W        W11091   6.643  10.127  10.012  0.1114 -0.5311  0.0804
 6892W        W11092   1.209   8.329   8.679  0.1361 -0.0018  0.3010
 6893W        W11093   6.535   7.924   3.808  0.0104 -0.0794  0.2527
 6894W        W11094   8.965   6.236   0.179  0.0686 -0.1333 -0.3418
 6895W        W11095   9.619   2.284   2.198  0.0253 -0.1825 -0.0181
 6896W        W11096   9.265   6.931  12.785 -0.0454 -0.1935 -0.0602
 6897W        W11097   0.297   4.920   2.852 -0.0257 -0.0622  0.2768
 6898W        W11098   3.642   6.310   4.101 -0.1745  0.0082 -0.0315
 6899W        W11099   3.835   1.975   2.144 -0.0825 -0.0616 -0.4361
 6900W        W11100   4.502   3.574  13.103 -0.0623  0.0515  0.3533
 6901W        W11101   6.563   3.000  10.078 -0.4401 -0.1407 -0.1474
 6902W        W11102   0.073   9.814   2.624 -0.1481  0.2894 -0.0511
 6903W        W11103   6.910   4.143   4.191  0.0158  0.1552 -0.0548
 6904W        W11104   3.190   8.309   2.269 -0.2146 -0.0010 -0.1276
 6905W        W11105   9.074   3.511  10.628 -0.1493  0.0778  0.0771
 6906W        W11106   8.678   3.796  10.635  0.3977 -0.2400 -0.1269
 6907W        W11107   0.171   9.198   1.799  0.0376 -0.1395 -0.1005
 6908W        W11108   5.029  10.290  11.043 -0.1904  0.4520 -0.1617
 6909W        W11109   4.538   9.070   2.010 -0.0942 -0.2316 -0.2361
 6910W        W11110   4.391   5.273  12.783 -0.1155 -0.0793  0.3166
 6911W        W11111   5.721   3.266  11.641  0.1803  0.2723 -0.2355
 6912W        W11112   1.923   8.431   5.525 -0.0391  0.1712  0.0711
 6913W        W11113   7.759   5.757  11.311  0.1643 -0.3218 -0.2493
 6914W        W11114   3.798   8.869   8.260 -0.1050 -0.2922 -0.1154
 6915W        W11115   2.009   3.246  13.471  0.0728 -0.2095 -0.1766
 6916W        W11116   1.556   5.399   2.259 -0.1964 -0.2004 -0.1201
 6917W        W11117   4.271   5.191   9.116  0.0494  0.0366  0.0580
 6918W        W11118   8.308   6.174  10.853  0.1164 -0.1239 -0.0586
 6919W        W11119   3.339   1.010   2.723  0.0028  0.0043  0.0591
 6920W        W11120  10.056   7.168   3.004 -0.1634  0.2220  0.1257
 6921W        W11121   8.324   1.262  12.034 -0.0478 -0.2610 -0.0559
 6922W        W11122   2.622   0.804   0.230 -0.0010 -0.0587  0.1622
 6923W        W11123   3.211   5.405   8.532  0.1467  0.1476 -0.2511
 6924W        W11124   3.578   3.413   2.058  0.1338  0.0300 -0.2050
 6925W        W11125   6.513   8.117   9.065 -0.1272  0.2076 -0.3812
 6926W        W11126   5.876   3.137  13.282  0.4436 -0.4109  0.1700
 6927W        W11127   2.004   5.612  12.237  0.1598  0.0021  0.1646
 6928W        W11128   4.111   1.076  10.576 -0.1425  0.1404  0.1298
 6929W        W11129   2.674   9.102  11.964 -0.0625  0.0038  0.1620
 6930W        W11130   5.792   4.642  10.409  0.0098  0.1841  0.0188
 6931W        W11131   4.037   0.892  10.094 -0.1343 -0.0946  0.1296
 6932W        W11132   1.233   6.929   4.431 -0.0054 -0.2128 -0.1129
 6933W        W11133   6.726   8.585  11.677  0.1156 -0.2779  0.2276
 6934W        W11134   1.488   9.192   4.233 -0.1974 -0.4188 -0.0959
 6935W        W11135   8.203   5.193   2.230 -0.1342 -0.1540 -0.1686
 6936W        W11136   9.883   9.539  12.865  0.0894  0.1317  0.1272
 6937W        W11137   1.714   7.342  12.132 -0.0894 -0.2399 -0.0929
 6938W        W11138   0.220   1.232   3.306 -0.0123 -0.0380  0.0226
 6939W        W11139   0.198   8.579  13.320  0.1147  0.0606  0.3226
 6940W        W11140   1.652   1.311  11.309 -0.1131 -0.2635  0.0888
 6941W        W11141   2.318   7.981  10.169  0.4637 -0.0568 -0.2164
 6942W        W11142   9.001   6.338   4.285 -0.0200 -0.0012  0.0242
 6943W        W11143   1.150   7.500   0.151  0.2314  0.0985  0.0969
 6944W        W11144   4.594   1.227  12.486  0.2574  0.0048 -0.1966
 6945W        W11145   8.995  10.436  11.070  0.0988 -0.0368  0.0991
 6946W        W11146   7.931   5.131   1.834  0.1964 -0.1968  0.3331
 6947W        W11147   1.309   4.396  10.622  0.0348  0.2723 -0.0647
 6948W        W11148   7.746   0.955   0.908  0.2061 -0.1095 -0.0507
 6949W        W11149   5.379   7.369   1.076  0.0280 -0.1522  0.1108
 6950W        W11150   7.029   5.225  11.603 -0.2355 -0.0165  0.0735
 6951W        W11151   2.601   6.035   9.464  0.2367 -0.0005  0.2778
 6952W        W11152   4.730   7.773   4.039  0.2176 -0.3661 -0.1020
 6953W        W11153   8.757   5.360  11.680  0.2986  0.2167  0.3349
 6954W        W11154   3.815   7.857   2.902 -0.0710 -0.0060 -0.2080
 6955W        W11155   6.408   5.796   9.234 -0.1965 -0.0391  0.3922
 6956W        W11156  10.293   6.241  10.911  0.1034  0.4307  0.1634
 6957W        W11157   3.699   3.330   4.450 -0.3566 -0.0231 -0.1323
 6958W        W11158   7.712   3.093   9.806 -0.2300  0.0303 -0.0638
 6959W        W11159   8.927   5.850   5.445 -0.3800 -0.0113 -0.1125
 6960W        W11160   8.470   5.938   1.611  0.0356  0.0222  0.0639
 6961W        W11161   6.082   2.909  11.558 -0.3304 -0.0966  0.0357
 6962W        W11162   0.128   4.148   4.086 -0.0319 -0.0450  0.0198
 6963W        W11163   3.067   1.433   3.691  0.1043  0.0779  0.0857
 6964W        W11164   3.312   9.141  12.886 -0.0794 -0.2663  0.0090
 6965W        W11165   3.970   7.416  13.129 -0.0603  0.2616 -0.0329
 6966W        W11166   3.416   9.028   4.386 -0.3230  0.0430 -0.2550
 6967W        W11167   6.196   4.120   4.738  0.2618 -0.3153 -0.1150
 6968W        W11168   1.573   0.450   0.723 -0.0035  0.0729 -0.1982
 6969W        W11169   2.212   7.422   9.979  0.1531  0.0865  0.3310
 6970W        W11170   0.083   5.144   0.555  0.0084  0.3151 -0.0451
 6971W        W11171   8.630   9.677  12.306  0.0428 -0.2891 -0.1510
 6972W        W11172   6.426   9.277  10.032 -0.1015 -0.1704 -0.0765
 6973W        W11173   0.135   6.156   3.785 -0.0674 -0.0191 -0.2457
 6974W        W11174   5.869   1.168  12.079  0.3443  0.0210 -0.3100
 6975W        W11175   9.055   1.228   0.515 -0.1309  0.0543 -0.2917
 6976W        W11176   4.014   2.547  12.630 -0.1740 -0.1149 -0.0520
 6977W        W11177   7.643   7.565  10.247 -0.1687  0.1253 -0.1644
 6978W        W11178   9.850   8.138   4.980  0.0390 -0.2682  0.0715
 6979W        W11179   6.607   7.750  12.156  0.1668 -0.1653  0.1705
 6980W        W11180  10.452   5.621   0.286  0.1214  0.1116  0.0354
 6981W        W11181   3.424   7.142   3.667 -0.2894  0.0729  0.0290
 6982W        W11182  10.364   0.396   2.699  0.0095 -0.0899 -0.2752
 6983W        W11183   4.858   0.738  13.214  0.2572  0.0533  0.0037
 6984W        W11184   5.279   0.706   1.828 -0.0281 -0.1341  0.3243
 6985W        W11185   0.232   7.160  13.189 -0.1226  0.0988 -0.0065
 6986W        W11186   5.701   6.724  10.953 -0.0450  0.1419  0.3614
 6987W        W11187   6.197   1.645  12.944  0.0624 -0.2280  0.1040
 6988W        W11188   3.977   3.205   2.720 -0.5003  0.2562 -0.4108
 6989W        W11189   0.475   8.715   3.473  0.3777  0.0828  0.0196
 6990W        W11190   4.802   9.662   3.163  0.3235 -0.2198 -0.3359
 6991W        W11191   2.357   3.638   1.856  0.4648  0.0468 -0.0046
 6992W        W11192   4.945   3.028   2.190 -0.0098 -0.1053  0.0555
 6993W        W11193   2.311   8.911   0.604  0.3124 -0.1932  0.2247
 6994W        W11194   3.245   3.365   1.046 -0.2347  0.1191 -0.1292
 6995W        W11195   4.961   3.432  10.027  0.0100  0.0823  0.2808
 6996W        W11196   4.158   3.675   2.782 -0.2895 -0.2513  0.2350
 6997W        W11197   2.294   9.200  12.365 -0.0158 -0.1054 -0.0731
 6998W        W11198   4.730   0.053  10.514  0.1821  0.2114  0.1336
 6999W        W11199   6.325   1.716   9.311  0.0828  0.0504  0.2994
 7000W        W11200   2.927   5.104  13.015  0.1159 -0.2357 -0.2981
 7001W        W11201   2.928  10.204   2.333 -0.3532  0.1603 -0.0240
 7002W        W11202   6.030   5.355   8.412  0.2311  0.4437  0.0588
 7003W        W11203   8.660   1.019   1.947  0.0631  0.1252 -0.1182
 7004W        W11204   5.099   0.280   3.139  0.3202 -0.1565 -0.0909
 7005W        W11205   1.936   8.392  10.194  0.3197  0.2267 -0.0202
 7006W        W11206   5.302   2.658   1.011 -0.2439 -0.0626 -0.2107
 7007W        W11207   3.773   5.054  11.168  0.0325  0.1393 -0.0576
 7008W        W11208   5.293   7.895   9.266 -0.1795 -0.2239 -0.0026
 7009W        W11209   0.524   5.886   9.583  0.0069  0.1488 -0.0375
 7010W        W11210   4.294   7.129  10.691  0.0861  0.2336  0.0523
 7011W        W11211   1.047   8.069  10.936 -0.3153  0.3105 -0.1176
 7012W        W11212   0.015   4.073   0.318 -0.1333  0.3052 -0.1843
 7013W        W11213   6.304   7.056  11.653 -0.0860 -0.1848  0.0876
 7014W        W11214   9.136   6.523  11.112  0.0243 -0.1236 -0.0061
 7015W        W11215   1.909  10.077   0.583  0.0895  0.0799 -0.1218
 7016W        W11216   8.915   9.640   3.025 -0.1456  0.0979 -0.1470
 7017W        W11217   8.404   1.474   2.726 -0.1885  0.0694 -0.4147
 7018W        W11218   1.314   0.237   3.943  0.4670  0.1226  0.0977
 7019W        W11219   0.006   2.388  10.614 -0.0933 -0.1912  0.0760
 7020W        W11220   9.781   7.220  13.081 -0.0800 -0.2489 -0.0222
 7021W        W11221   8.680   2.778  11.195 -0.0615 -0.1772 -0.1221
 7022W        W11222   2.046   9.795  10.361  0.3939  0.1335 -0.0560
 7023W        W11223   1.801   7.151   3.253  0.1326  0.0939 -0.0809
 7024W        W11224   0.691   7.778  12.698 -0.0139 -0.2839  0.0719
 7025W        W11225   7.066   9.031   2.651 -0.0506 -0.0847  0.2075
 7026W        W11226   4.312   0.709   3.682  0.0691 -0.0476 -0.0557
 7027W        W11227   9.493   9.381   1.824  0.4800 -0.0662  0.1738
 7028W        W11228   1.600   4.051   1.562  0.0932 -0.2109  0.0940
 7029W        W11229   5.538   8.986   2.070 -0.2553  0.3774  0.2912
 7030W        W11230   3.238   8.762   3.900  0.1135 -0.3458 -0.1042
 7031W        W11231   0.661   2.493   8.983 -0.1925 -0.2975 -0.0817
 7032W        W11232   0.244   7.171   1.142 -0.2007  0.0451  0.1068
 7033W        W11233   8.308   5.306   2.820 -0.0805 -0.4464 -0.1181
 7034W        W11234   7.165   5.240   1.219 -0.0897  0.1689 -0.1077
 7035W        W11235   8.102   7.137   0.258 -0.0051 -0.4879 -0.1221
 7036W        W11236   9.903   7.314   9.163 -0.0693 -0.1346 -0.1373
 7037W        W11237   6.934   1.564   1.954 -0.0745 -0.4212 -0.0719
 7038W        W11238   7.635   4.883  11.402  0.0278 -0.3144 -0.0426
 7039W        W11239   4.889  10.293   2.919 -0.1373 -0.0248  0.0704
 7040W        W11240   4.377   0.386   0.350  0.0112  0.4351 -0.1332
 7041W        W11241   2.785   2.286   3.359 -0.1338 -0.1493 -0.1532
 7042W        W11242   5.341   4.017   9.498 -0.2978 -0.1163  0.0060
 7043W        W11243   4.515   4.570   2.697 -0.4451  0.5354 -0.0575
 7044W        W11244  10.373   7.486   9.947 -0.2146  0.1004  0.0950
 7045W        W11245   5.428   3.386  12.595  0.1602  0.0309 -0.0187
 7046W        W11246   0.419   7.424   0.769  0.1031  0.3923  0.1767
 7047W        W11247   0.780   8.316  10.110  0.3917 -0.0532  0.0328
 7048W        W11248   3.695   4.787   2.914  0.0967  0.0792 -0.1613
 7049W        W11249   6.123   0.177  12.611 -0.1414  0.0777 -0.0340
 7050W        W11250   4.732   4.080  13.276 -0.1657  0.0963 -0.1546
 7051W        W11251   6.743   8.736  10.647 -0.2134 -0.0647  0.1858
 7052W        W11252   8.005   3.703  11.842  0.4086 -0.2019  0.0994
 7053W        W11253   5.560   4.407   9.669 -0.1945 -0.3049  0.0727
 7054W        W11254   7.475   4.408  10.744  0.3798 -0.4978  0.2577
 7055W        W11255   7.354   1.940   3.633  0.2521 -0.0968  0.0113
 7056W        W11256   8.279   6.522   2.342  0.2109  0.1493 -0.0647
 7057W        W11257   5.572   2.760   9.951 -0.1408  0.0724 -0.0417
 7058W        W11258   0.033   3.422   1.995  0.1134 -0.1520 -0.0292
 7059W        W11259   3.367   5.203  11.579 -0.0661  0.2782  0.0802
 7060W        W11260   8.845   7.379  12.013 -0.3370 -0.1474  0.0707
 7061W        W11261   8.673   6.567  12.587 -0.1646  0.1755  0.2201
 7062W        W11262   4.898  10.273   2.318 -0.2896  0.1791  0.0132
 7063W        W11263   5.202   4.057   3.747  0.4703 -0.0497  0.0392
 7064W        W11264   1.476   5.943  13.332 -0.0048 -0.1376 -0.1772
 7065W        W11265   1.780   5.670   3.489 -0.0886  0.0726  0.2704
 7066W        W11266   8.234   4.183   4.590 -0.0305 -0.1526 -0.0388
 7067W        W11267   8.508   3.800   0.267  0.4764 -0.1104 -0.0277
 7068W        W11268   2.115   5.728  11.645  0.2762 -0.2634  0.3121
 7069W        W11269   5.476   0.495  10.124  0.0003 -0.1418 -0.0520
 7070W        W11270   8.676  10.071   0.726 -0.0047  0.1116  0.1271
 7071W        W11271   9.200   5.626   3.537 -0.0562  0.1387 -0.0393
 7072W        W11272   1.604  10.114  10.369  0.1318 -0.1425 -0.1060
 7073W        W11273   9.766   2.331   3.281  0.1228 -0.3676 -0.0987
 7074W        W11274   0.594   3.336   9.359  0.0740  0.0756  0.1153
 7075W        W11275   2.976   5.321   1.745  0.0653 -0.4135 -0.0498
 7076W        W11276   6.064   9.222   3.375 -0.2620  0.2568 -0.1642
 7077W        W11277   4.173   9.349  11.548 -0.1797  0.3509 -0.2362
 7078W        W11278   7.204  10.005   0.749  0.1001  0.1806 -0.0165
 7079W        W11279   6.294   8.572   2.741 -0.3316 -0.1293 -0.1530
 7080W        W11280   5.012   2.721  11.619 -0.3475 -0.1207  0.0724
 7081W        W11281   5.046   2.601  10.671 -0.1973  0.0897 -0.1519
 7082W        W11282   8.360   0.576   2.973 -0.0877 -0.1845  0.2460
 7083W        W11283   0.871   5.114   1.147  0.2221 -0.3635  0.2163
 7084W        W11284   5.760   2.423   4.525  0.1820  0.1044  0.0389
 7085W        W11285   7.706   5.008   3.076 -0.1440 -0.3077 -0.1373
 7086W        W11286   4.173   8.032  12.499  0.0462 -0.1048  0.3123
 7087W        W11287   7.067   5.948  12.077 -0.0141  0.0290  0.1028
 7088W        W11288   0.030   9.369   3.834  0.1399 -0.2241 -0.0011
 7089W        W11289   8.440   8.179   3.122  0.3388  0.3589 -0.0485
 7090W        W11290   4.267   8.575   0.498  0.3859  0.1963  0.2710
 7091W        W11291   8.911   2.787   1.208  0.0963 -0.0775  0.3317
 7092W        W11292   3.855   3.221  12.144 -0.3336  0.1188 -0.0007
 7093W        W11293   7.119   0.331   0.206 -0.2571  0.0555 -0.0859
 7094W        W11294   7.162   3.296   3.168  0.1904 -0.0842  0.0497
 7095W        W11295   6.159   2.072  12.714 -0.2213 -0.4397  0.1700
 7096W        W11296   4.729   7.877   9.100 -0.4750 -0.0469 -0.1349
 7097W        W11297   5.605   4.236   4.679 -0.2183  0.1993 -0.3272
 7098W        W11298   6.827   6.876  12.739  0.0923  0.1896  0.2668
 7099W        W11299   6.644   0.894   3.214 -0.0057 -0.0998 -0.1394
 7100W        W11300   4.515   0.920   8.737  0.2019  0.2219 -0.0304
 7101W        W11301   8.677   5.612   3.504  0.0425 -0.3461  0.1464
 7102W        W11302   0.757  10.036  13.048  0.1495 -0.0273  0.0855
 7103W        W11303   2.967   9.588   4.175 -0.0910 -0.1908 -0.3406
 7104W        W11304   7.174   5.712   2.808  0.0224 -0.0867  0.3452
 7105W        W11305   9.022   0.238  11.833 -0.2335  0.0613 -0.1906
 7106W        W11306   9.926   8.156   1.523 -0.0330  0.3262 -0.1919
 7107W        W11307   7.577  10.433   3.490  0.0466 -0.2302 -0.0045
 7108W        W11308  10.416   5.507  13.261 -0.4536 -0.3213 -0.1701
 7109W        W11309   2.392   6.128  11.767 -0.0760  0.0559 -0.1694
 7110W        W11310   0.104   6.665   9.522 -0.2520  0.0748  0.0043
 7111W        W11311   2.982   4.351   1.958 -0.1493 -0.0532 -0.0041
 7112W        W11312   5.663   6.822   2.445  0.0610 -0.0139 -0.2217
 7113W        W11313   0.756   1.945   1.088 -0.1298 -0.1800 -0.2969
 7114W        W11314   3.221   3.461  11.251 -0.1274  0.1590  0.3636
 7115W        W11315   8.059   1.614   1.798  0.2282  0.0981  0.1339
 7116W        W11316   1.326   5.227   9.487  0.1679 -0.1779 -0.0709
 7117W        W11317   6.415   2.953   3.377 -0.0000 -0.0610  0.3324
 7118W        W11318   6.010   7.376   9.465 -0.0656 -0.1289 -0.1143
 7119W        W11319   0.907   4.148   3.592  0.1569  0.0833 -0.3051
 7120W        W11320   7.958   9.908  12.959  0.0182  0.0388  0.3802
 7121W        W11321   1.699   1.568   9.531  0.1920  0.1662 -0.1964
 7122W        W11322   9.461   4.318  11.895  0.0029  0.2964  0.0314
 7123W        W11323   6.379   8.764   1.660 -0.0136  0.5114  0.2752
 7124W        W11324   2.685  10.010   8.505  0.0922  0.2654 -0.0330
 7125W        W11325   2.585   7.745   1.027  0.1387 -0.1418 -0.3553
 7126W        W11326   5.387   3.783  12.848  0.0666 -0.4878 -0.1206
 7127W        W11327   2.324   8.928   1.357 -0.2852  0.1968 -0.0494
 7128W        W11328   6.456   4.815  13.460  0.0880  0.1677 -0.4292
 7129W        W11329   5.999   5.102   1.775  0.0765 -0.1499 -0.0974
 7130W        W11330   1.498   1.815   0.963 -0.0112  0.0330 -0.0896
 7131W        W11331   3.496   1.710  12.789 -0.0269  0.0626 -0.1733
 7132W        W11332   3.179   6.212  11.715  0.1804  0.1835 -0.2249
 7133W        W11333   4.570   9.095   3.897  0.2128  0.2330  0.2544
 7134W        W11334   1.281   8.325   1.117  0.3389 -0.2699  0.2243
 7135W        W11335   8.114   8.556   0.400 -0.1118  0.1484  0.2110
 7136W        W11336   2.566   9.270   3.213 -0.0633  0.0960  0.0848
 7137W        W11337   4.189   1.162   3.847 -0.0138 -0.3026  0.0501
 7138W        W11338   7.279   3.026   0.211 -0.1195 -0.4450  0.0909
 7139W        W11339   1.700   3.220  10.843 -0.0622 -0.2484  0.0964
 7140W        W11340   0.081   6.163   1.666  0.2851 -0.4902 -0.3165
 7141W        W11341   5.436   1.870  11.499 -0.5464 -0.1749 -0.1942
 7142W        W11342   2.854   8.593  11.794 -0.5143 -0.0660  0.2477
 7143W        W11343   2.207  10.464  12.606  0.0358  0.1424 -0.2106
 7144W        W11344   9.643   0.141   1.438 -0.1108  0.1324 -0.0469
 7145W        W11345   2.346   2.969   1.082  0.1626 -0.1882  0.4968
 7146W        W11346   2.902   3.778   3.682 -0.0363 -0.1179  0.1196
 7147W        W11347   5.059   0.222   9.269  0.0606  0.0871 -0.0988
 7148W        W11348   2.894   7.612  12.799 -0.0604 -0.1205  0.0540
 7149W        W11349   9.431   3.197   1.311  0.3481  0.1866  0.2550
 7150W        W11350   0.279   1.602   1.297  0.0724 -0.3458  0.0336
 7151W        W11351   1.158   3.762   2.741  0.1832  0.2010 -0.1276
 7152W        W11352   9.833   4.933   0.195 -0.0785  0.2000  0.5042
 7153W        W11353   9.794   4.214  10.521 -0.0476  0.1109  0.0207
 7154W        W11354   1.616   7.598   0.815 -0.0096 -0.2153 -0.0014
 7155W        W11355   5.233   0.779   0.062 -0.2518 -0.0562  0.2457
 7156W        W11356   1.944   8.904   2.193 -0.1043  0.1765  0.2632
 7157W        W11357   1.695   8.789  11.091 -0.0804 -0.2760  0.0322
 7158W        W11358   8.996   9.395  12.550  0.1462 -0.0709 -0.2339
 7159W        W11359   2.037   6.483  13.078  0.0091 -0.0028 -0.2354
 7160W        W11360   3.435   8.488   4.477  0.0362 -0.0819 -0.0544
 7161W        W11361   0.361   0.159   0.367  0.1654 -0.1055 -0.2386
 7162W        W11362   7.031   2.473  11.416 -0.0086  0.2766 -0.2726
 7163W        W11363   6.657   4.227   5.268 -0.2198 -0.1779  0.1040
 7164W        W11364   3.405   5.984   4.455  0.1547 -0.0469 -0.0825
 7165W        W11365   6.899   1.080  13.077  0.0732 -0.1153 -0.0633
 7166W        W11366   0.645   5.918   3.001 -0.1786 -0.3134  0.0039
 7167W        W11367   3.363   9.841   0.270 -0.0886  0.0058  0.0485
 7168W        W11368   3.508   7.474  11.072 -0.0583  0.0221 -0.0765
 7169W        W11369   0.327   6.907  11.821  0.0188  0.1006 -0.1193
 7170W        W11370   2.533   2.591   3.843  0.4213  0.0334  0.0601
 7171W        W11371   2.920   1.026   9.724 -0.0670  0.0073  0.1333
 7172W        W11372   2.453   5.662  12.654  0.1045 -0.0208 -0.0778
 7173W        W11373   7.355   6.359   8.357 -0.0962  0.1588  0.2804
 7174W        W11374   7.503   4.128  12.104  0.2369 -0.2402  0.2383
 7175W        W11375   9.761   8.951   1.149 -0.0492  0.3674 -0.1898
 7176W        W11376   1.359   6.433   3.433 -0.2871  0.1143 -0.3159
 7177W        W11377   1.578   4.879   8.760 -0.1292 -0.0730 -0.3118
 7178W        W11378   9.139   2.828   0.256 -0.0051  0.2470  0.1683
 7179W        W11379   9.242   6.374   1.164 -0.0716  0.2753  0.1484
 7180W        W11380   4.686   1.447  11.958 -0.2893  0.1508 -0.1647
 7181W        W11381   4.104  10.282   0.441 -0.0427 -0.0474  0.0697
 7182W        W11382   8.982   6.851  11.887  0.0853  0.1666  0.0284
 7183W        W11383   3.194   3.347   3.756  0.3420 -0.3010  0.3339
 7184W        W11384   8.480   6.390   0.128 -0.0833 -0.0051  0.0294
 7185W        W11385  10.082   2.722   0.891 -0.1859 -0.0150 -0.0764
 7186W        W11386   9.939   5.863  10.963 -0.1977  0.3076 -0.0381
 7187W        W11387   5.402  10.138   0.555 -0.1901 -0.1044  0.0488
 7188W        W11388   5.255   8.548   1.893 -0.0111 -0.0105  0.1707
 7189W        W11389   0.484   5.406   3.105 -0.4362 -0.1290  0.1382
 7190W        W11390   1.017   6.932   8.953  0.0607  0.1088  0.0121
 7191W        W11391   5.683   0.532  10.566 -0.2276 -0.0105 -0.0499
 7192W        W11392   1.946   3.901   2.677 -0.2125  0.0098 -0.0179
 7193W        W11393   9.131  10.235   1.378 -0.3110 -0.2666  0.2889
 7194W        W11394   1.519   2.814  11.128 -0.2027  0.0920  0.2445
 7195W        W11395   6.340  10.403  11.214 -0.0619 -0.0029 -0.1988
 7196W        W11396   5.485   9.895   2.006 -0.0302 -0.4709 -0.1740
 7197W        W11397   6.599   6.844  12.220  0.2370 -0.0806 -0.0608
 7198W        W11398  10.264   2.880   2.672 -0.1215 -0.0826  0.2438
 7199W        W11399   6.960   1.262   2.405  0.3795 -0.1109 -0.1921
 7200W        W11400   1.464   2.390   9.847 -0.1327 -0.0145  0.0691
 7201W        W11401   2.311   2.788   2.370 -0.1703 -0.0774 -0.1140
 7202W        W11402   7.318   2.463  13.038  0.3710  0.0128  0.0156
 7203W        W11403   3.756   6.703   9.346 -0.0736  0.0196 -0.3975
 7204W        W11404   0.164   3.734  13.438  0.2236  0.1951  0.3124
 7205W        W11405   1.748   8.339  11.121  0.5681 -0.5192 -0.2586
 7206W        W11406   0.939  10.297   2.489  0.3561 -0.0894 -0.1542
 7207W        W11407   5.457   6.764   3.820 -0.1657  0.4173  0.0346
 7208W        W11408   5.557   2.578   9.500 -0.1189 -0.0893  0.1893
 7209W        W11409   1.751   1.113  13.349  0.0055 -0.0312 -0.0660
 7210W        W11410   6.375   7.936   3.295 -0.0886  0.0955 -0.2588
 7211W        W11411   0.598  10.181  11.135 -0.3510 -0.2053  0.0515
 7212W        W11412   8.579   8.668  11.244 -0.0246  0.2997 -0.2221
 7213W        W11413   1.686   9.022   0.723 -0.1833  0.1492  0.1714
 7214W        W11414   1.043   2.187   2.596  0.0878  0.1645  0.1083
 7215W        W11415   7.055   7.627   0.173  0.0995  0.0226  0.0008
 7216W        W11416   5.951   2.049  11.127  0.1215  0.2735 -0.1206
 7217W        W11417   7.939   6.184   1.868  0.0598 -0.2380 -0.1724
 7218W        W11418   2.692   6.348   0.504 -0.0561 -0.1066 -0.1586
 7219W        W11419   4.181   3.857  12.788 -0.4351 -0.1490 -0.2439
 7220W        W11420   2.221   8.247   3.130  0.3771  0.1162  0.0267
 7221W        W11421   9.838   3.163  10.186  0.1258 -0.0696 -0.1199
 7222W        W11422   6.150   5.069  11.479 -0.3640 -0.0206 -0.1675
 7223W        W11423   7.392   3.454   1.985  0.0589  0.1568  0.2455
 7224W        W11424   7.145   3.498  12.917 -0.0289  0.0151  0.1115
 7225W        W11425  10.380   9.109  11.074  0.1992  0.1746  0.0421
 7226W        W11426   9.490   6.088  11.034 -0.0002 -0.2861 -0.1206
 7227W        W11427   3.320   0.390   2.866 -0.0740 -0.1409 -0.0405
 7228W        W11428   5.857  10.213   0.809  0.1806  0.0306 -0.1302
 7229W        W11429   6.922   0.774  12.441  0.0528 -0.2918  0.1852
 7230W        W11430   1.506   3.405   0.334 -0.0540  0.0407 -0.0102
 7231W        W11431   9.839   5.454  10.078  0.2044 -0.0552  0.1727
 7232W        W11432   7.723   8.215  10.552 -0.1624  0.0165  0.0073
 7233W        W11433   4.324   5.959  11.727  0.0873 -0.2089 -0.3073
 7234W        W11434  10.359   7.705  13.016 -0.0966 -0.0233 -0.0786
 7235W        W11435   9.675   1.939  10.400 -0.1572 -0.2523  0.0104
 7236W        W11436   5.766   5.995   1.414 -0.1396 -0.2088  0.1679
 7237W        W11437   1.267   5.113  10.777  0.1780 -0.2086  0.1760
 7238W        W11438   0.003   6.962   3.233 -0.1689  0.1223  0.2372
 7239W        W11439   9.764   3.659   3.789 -0.1538 -0.0638 -0.1507
 7240W        W11440   7.026   8.959   1.624 -0.3217 -0.0248  0.2108
 7241W        W11441   2.739   9.736   0.007  0.2807  0.0694  0.0606
 7242W        W11442   8.037   7.695  10.735  0.1171 -0.0831  0.3610
 7243W        W11443   6.806   2.136   9.318 -0.4222 -0.2911 -0.0049
 7244W        W11444   3.276   4.252  11.446 -0.0296 -0.0228  0.0693
 7245W        W11445   2.487   3.152  11.099  0.0053 -0.0925 -0.2623
 7246W        W11446   0.876   9.525   1.960 -0.2536 -0.0652  0.1869
 7247W        W11447   4.416   5.660   9.232 -0.0941 -0.2989 -0.0580
 7248W        W11448   4.798   9.410  10.862 -0.0486 -0.0711  0.1857
 7249W        W11449   0.537  10.191  11.673 -0.0822  0.1125  0.2896
 7250W        W11450   1.339   1.687   1.755 -0.1410 -0.1029 -0.1813
 7251W        W11451   8.951   4.359  10.813  0.2079 -0.1141 -0.0262
 7252W        W11452   4.705   1.780  13.262  0.3993  0.1205  0.1006
 7253W        W11453   3.397   8.539  12.104  0.2597  0.1357  0.1032
 7254W        W11454   0.710   0.659   4.318  0.6134 -0.0992  0.2420
 7255W        W11455   4.172   6.460  11.419  0.0253  0.1157 -0.1000
 7256W        W11456   2.334   1.067   9.126 -0.1476 -0.2921  0.0873
 7257W        W11457   5.360   6.612   9.456  0.0909 -0.2684 -0.0862
 7258W        W11458   8.931   2.960  10.760  0.1434 -0.1302 -0.0657
 7259W        W11459   0.127   2.177  13.161  0.0555  0.3232 -0.0049
 7260W        W11460   9.613   2.401   0.497 -0.1384 -0.1187 -0.1650
 7261W        W11461   1.009   0.051  12.906 -0.0673  0.0518 -0.1034
 7262W        W11462   5.002   8.186   3.278 -0.2365  0.2699  0.2651
 7263W        W11463   5.510  10.434   3.106 -0.0520  0.1643 -0.2008
 7264W        W11464   3.208   8.059   0.693 -0.1066 -0.1529  0.2747
 7265W        W11465   2.277   0.315   3.214  0.1460 -0.0727 -0.1873
 7266W        W11466  10.277   3.435  13.266  0.0884  0.0690  0.1729
 7267W        W11467   4.178   8.599   1.999 -0.1379 -0.0558 -0.1333
 7268W        W11468   0.572   4.593   2.129  0.4119 -0.0457 -0.1251
 7269W        W11469   5.332   9.389   2.090 -0.0839 -0.1995 -0.0502
 7270W        W11470   5.005   9.096   0.294 -0.0647 -0.0797  0.1435
 7271W        W11471   3.543   0.649   0.781 -0.5123  0.0054 -0.1492
 7272W        W11472   0.831   1.870   1.668  0.1906 -0.2424 -0.3609
 7273W        W11473   2.609   3.254   2.968 -0.0245  0.0757 -0.1643
 7274W        W11474   8.152   0.926   2.555  0.1099 -0.1973 -0.2589
 7275W        W11475   5.507   3.952   0.371  0.0724 -0.1062 -0.2875
 7276W        W11476   1.183   8.691   9.896  0.1221  0.0801 -0.1982
 7277W        W11477   9.873   3.913   0.382  0.2362 -0.2819 -0.1389
 7278W        W11478   5.384   5.139  12.581 -0.0045 -0.2416  0.1558
 7279W        W11479   3.107   5.374   3.471  0.1140 -0.0794 -0.2092
 7280W        W11480   2.960   5.848   1.248  0.3531  0.0804  0.1008
 7281W        W11481   0.586   0.462  13.212  0.0895  0.0087  0.2499
 7282W        W11482   1.484   8.726  12.898 -0.4073 -0.1059  0.0581
 7283W        W11483   4.444   9.912  12.231 -0.2432 -0.3012 -0.0534
 7284W        W11484   9.639  10.031   1.327  0.0112  0.1846  0.1978
 7285W        W11485   1.016   5.189   4.687  0.2000  0.2867 -0.0236
 7286W        W11486   6.756   8.596   9.729  0.0516 -0.1059 -0.1806
 7287W        W11487   5.227   6.949   2.723 -0.0208  0.0488 -0.0411
 7288W        W11488   5.672   8.106  13.165 -0.3109  0.1532  0.0417
 7289W        W11489   6.754   3.747   3.777 -0.2179  0.2282  0.1587
 7290W        W11490  10.168   9.931  12.796  0.2118  0.0101 -0.0840
 7291W        W11491   5.399   7.444   8.680 -0.2613  0.0670 -0.3308
 7292W        W11492   8.463   4.445   8.638  0.0285 -0.1136  0.0415
 7293W        W11493   3.883  10.465  10.631 -0.0488 -0.0812 -0.0420
 7294W        W11494   9.729   3.030  11.113 -0.2347 -0.0168  0.1102
 7295W        W11495   6.358  10.281   1.034  0.1592  0.4068  0.0696
 7296W        W11496   5.045  10.210   9.248 -0.0366 -0.0562 -0.1141
 7297W        W11497   6.962   4.815   3.795 -0.1424  0.0672  0.0311
 7298W        W11498   6.312   6.634   9.753  0.1804  0.1449  0.0287
 7299W        W11499   6.304   6.236  12.066  0.0942 -0.4438 -0.1548
 7300W        W11500   3.622   6.519  11.718  0.3768 -0.3900 -0.1132
 7301W        W11501   1.168   9.987   2.203 -0.1125  0.2290 -0.2447
 7302W        W11502   4.108   6.787   9.879  0.1081 -0.1368  0.0581
 7303W        W11503   5.896   1.821   4.108  0.1679  0.0814 -0.0665
 7304W        W11504   9.101   8.078  12.600  0.2951 -0.0559  0.0573
 7305W        W11505   0.635   0.794   9.830  0.1615  0.1013  0.0365
 7306W        W11506   2.461   2.762   9.515 -0.1922 -0.3077  0.1726
 7307W        W11507   7.840   5.348   2.645  0.1136  0.1061  0.2991
 7308W        W11508   8.693   5.998  11.710  0.5106  0.0341  0.0844
 7309W        W11509   5.388   1.500   4.369  0.1155  0.0292  0.2040
 7310W        W11510   9.868   3.111  12.448 -0.1428  0.1178 -0.2111
 7311W        W11511   8.456   8.709   2.794  0.0100 -0.0559 -0.3151
 7312W        W11512   8.146   9.051   3.966  0.1381  0.1235  0.1311
 7313W        W11513  10.099   4.340   2.084 -0.1714 -0.1120  0.2220
 7314W        W11514   6.450   4.249  13.187  0.1759  0.0947 -0.2013
 7315W        W11515   0.109   5.090   9.996 -0.2747 -0.0958 -0.2404
 7316W        W11516   0.440   9.296  10.496 -0.2744 -0.0714 -0.2633
 7317W        W11517   3.989   7.243  11.126 -0.1375 -0.0289  0.1327
 7318W        W11518   4.242   1.655  10.616  0.1181 -0.0982  0.0809
 7319W        W11519   5.009   9.888   5.362  0.1488 -0.0781 -0.1071
 7320W        W11520   1.759   6.766   1.214  0.2097  0.1844  0.1124
 7321W        W11521   1.890   6.257   1.260 -0.2403  0.1042 -0.1243
 7322W        W11522   8.295   3.207   0.220 -0.0813  0.3329 -0.1506
 7323W        W11523   0.334   4.421  12.921  0.4507  0.0337  0.1259
 7324W        W11524   5.125   3.202   8.409  0.1212  0.1791 -0.3892
 7325W        W11525   7.646   2.031   1.747 -0.2043 -0.0291  0.0486
 7326W        W11526   5.928   4.458   9.330 -0.0421 -0.0169 -0.0439
 7327W        W11527   1.686   0.478   2.264 -0.3142  0.1748 -0.1612
 7328W        W11528   4.829   9.116  10.066 -0.3243 -0.0894  0.1614
 7329W        W11529   2.790   3.360   1.882  0.1125  0.0217  0.4184
 7330W        W11530   5.873   9.158  10.476  0.0849 -0.0082  0.0182
 7331W        W11531   5.860   0.826  10.186 -0.2043  0.4176 -0.2626
 7332W        W11532   6.309   8.967  10.451 -0.3794  0.1194 -0.1058
 7333W        W11533   6.259   1.914   1.038  0.0932 -0.0177  0.1331
 7334W        W11534   4.409   1.860   4.197 -0.0663 -0.2017 -0.1347
 7335W        W11535   5.037   2.558   2.336  0.0004  0.0324  0.2353
 7336W        W11536   7.469   2.281   2.154 -0.0168  0.1391 -0.0015
 7337W        W11537   0.812   7.872  11.989 -0.0601 -0.1737 -0.1315
 7338W        W11538   3.333   2.979   3.453 -0.0950  0.1189 -0.0916
 7339W        W11539   6.450   6.225   9.476 -0.0665 -0.2533  0.1707
 7340W        W11540   1.651   4.864  12.064  0.2714 -0.0656 -0.0724
 7341W        W11541  10.078   4.680   1.040 -0.0230 -0.1134 -0.1319
 7342W        W11542   4.651   0.463  11.449 -0.0675 -0.1232  0.1581
 7343W        W11543   4.696   9.910  11.050  0.0183 -0.3581  0.0078
 7344W        W11544   0.651   1.272   0.061  0.1108 -0.0648 -0.1556
 7345W        W11545   4.259   9.831   2.297 -0.2208 -0.3989  0.3924
 7346W        W11546   4.921   3.961  11.974  0.1185 -0.1303  0.0779
 7347W        W11547   2.695   8.375   3.847  0.1864 -0.0879  0.0459
 7348W        W11548   8.576   3.234   9.632 -0.0463 -0.0679 -0.0746
 7349W        W11549   4.006   0.723   4.553  0.0023 -0.0793  0.0720
 7350W        W11550   5.138   9.320   9.082 -0.1121  0.1000 -0.1043
 7351W        W11551   1.967   2.671  12.650  0.0492  0.4396  0.0565
 7352W        W11552   5.742   1.519   1.683 -0.1114  0.3448 -0.0963
 7353W        W11553   8.751   0.070   2.195  0.1945  0.1012 -0.1356
 7354W        W11554   4.883   0.850   8.386  0.0368  0.2893  0.0748
 7355W        W11555   6.184   8.441  12.511 -0.2000 -0.0179  0.0051
 7356W        W11556   1.717   4.283   9.710 -0.1055  0.0068  0.1543
 7357W        W11557   0.896   7.155  13.321 -0.0087 -0.1868 -0.2070
 7358W        W11558   9.123   1.018   1.809  0.0159  0.2127  0.1394
 7359W        W11559   0.856   6.407  12.680 -0.3142  0.0643 -0.4761
 7360W        W11560   4.443   7.664  12.148 -0.0176  0.0724 -0.2438
 7361W        W11561   2.988   3.567  10.293  0.2111 -0.2242 -0.0770
 7362W        W11562   3.104   5.866   3.385 -0.0261  0.4464 -0.0501
 7363W        W11563   6.993   9.298  11.447  0.0915 -0.1236  0.0413
 7364W        W11564   8.059   4.871   2.664 -0.0888 -0.2434 -0.0629
 7365W        W11565   9.969   2.671   1.848 -0.0820  0.1979  0.0263
 7366W        W11566   0.046   4.871  12.642  0.0008  0.1734  0.0044
 7367W        W11567   2.405   4.459   0.158 -0.3961  0.2365  0.0643
 7368W        W11568   7.444   7.830  11.383 -0.4698 -0.0663 -0.3876
 7369W        W11569   3.241  10.257   2.767 -0.2276 -0.2776 -0.1517
 7370W        W11570   6.675   9.779   1.686 -0.1250 -0.2087  0.2023
 7371W        W11571   3.416   4.982   1.243  0.0022 -0.0602 -0.1965
 7372W        W11572   4.354   8.302  10.012 -0.1163  0.0131  0.1383
 7373W        W11573   4.549   9.802  12.752  0.1401 -0.1400 -0.0269
 7374W        W11574   7.895   5.271   9.566  0.2924  0.0289  0.0554
 7375W        W11575   7.197   6.718   3.336 -0.3192  0.0939 -0.1138
 7376W        W11576   7.351   8.170  10.932 -0.4775 -0.1912  0.1169
 7377W        W11577   2.689   0.720   5.093  0.1559  0.2332 -0.0122
 7378W        W11578   3.444   5.284   0.837  0.0888  0.2431 -0.1758
 7379W        W11579   0.091   0.378  11.082 -0.1913  0.2072  0.0982
 7380W        W11580  10.246   1.837  13.355 -0.2225 -0.1749  0.1526
 7381W        W11581   3.653   6.251   4.929  0.2393 -0.1707  0.0921
 7382W        W11582   1.798   3.112  10.333 -0.1986 -0.1768 -0.1397
 7383W        W11583   1.069   3.473   4.227 -0.0665  0.0885 -0.0004
 7384W        W11584   3.292   3.886   3.915  0.0730 -0.0589 -0.0109
 7385W        W11585   4.000  10.278   3.208 -0.2926  0.1902  0.0473
 7386W        W11586  10.155   9.203   0.213 -0.0551 -0.1715 -0.3309
 7387W        W11587   1.860   7.018   1.583 -0.0055  0.2630  0.0297
 7388W        W11588   4.027   7.058  10.282 -0.2242 -0.3808  0.1753
 7389W        W11589   5.068   1.751   8.751  0.0717  0.0135  0.1878
 7390W        W11590   8.265   5.926  12.795  0.0798  0.4581 -0.0717
 7391W        W11591   2.544   3.893   2.721 -0.1214  0.2261 -0.0786
 7392W        W11592   2.711   4.385  11.833 -0.0581  0.4236 -0.3081
 7393W        W11593   8.061   8.365   1.519 -0.1580 -0.1670 -0.2064
 7394W        W11594   5.595   6.449   1.522 -0.2089 -0.0185  0.2329
 7395W        W11595   8.206   5.166   0.375 -0.3783 -0.2360 -0.1482
 7396W        W11596   6.573   5.340   4.854  0.4171  0.2034  0.2396
 7397W        W11597   0.728  10.011   3.721 -0.1078 -0.0499 -0.1288
 7398W        W11598   5.475   0.114   0.741  0.1152  0.0420 -0.4070
 7399W        W11599   4.351   8.730   2.894  0.0390 -0.0502 -0.0632
 7400W        W11600   7.312   6.383   5.713  0.0572 -0.0951  0.2455
 7401W        W11601   6.532   8.909   0.345 -0.0443 -0.1312 -0.3121
 7402W        W11602   1.217   1.919  10.786 -0.0432  0.0086  0.1601
 7403W        W11603   1.988   9.477   8.730 -0.0050  0.1011  0.0398
 7404W        W11604   2.721   2.685   0.885 -0.0549 -0.0065  0.0778
 7405W        W11605   0.333  10.054   3.018  0.4070  0.1198  0.0076
 7406W        W11606   4.445   6.091  12.285 -0.0053 -0.3621 -0.2190
 7407W        W11607   5.234   4.683  12.740 -0.4089  0.3492 -0.0266
 7408W        W11608   2.645   0.991   0.723 -0.2085  0.0871 -0.0954
 7409W        W11609  10.317   4.646  10.199  0.0911 -0.1056  0.0011
 7410W        W11610   7.280   3.258   1.207 -0.0015  0.0521  0.2559
 7411W        W11611   2.310   1.729   0.756  0.2119 -0.4034  0.0085
 7412W        W11612   3.817   9.472   0.870 -0.1434 -0.1470  0.2149
 7413W        W11613   9.102  10.255   0.257 -0.0602  0.3629  0.0164
 7414W        W11614   7.937   9.020   2.138  0.1691 -0.0543 -0.2944
 7415W        W11615   3.504   7.805   9.167 -0.0401  0.2426 -0.3666
 7416W        W11616   9.792   1.852   2.429  0.4424  0.0509 -0.1212
 7417W        W11617   3.093   6.354   2.335 -0.4545  0.0746  0.2186
 7418W        W11618   1.222   9.509  10.995  0.1643 -0.1655  0.0928
 7419W        W11619   9.446   1.386   3.476  0.0157  0.2898 -0.2055
 7420W        W11620   9.812  10.444  10.477 -0.4000  0.2883  0.3088
 7421W        W11621   6.881   7.681  10.707  0.2246  0.0702 -0.2272
 7422W        W11622   8.006  10.169  10.302 -0.0742 -0.2430 -0.2128
 7423W        W11623   1.301   9.788  13.200 -0.0264  0.2998 -0.1605
 7424W        W11624   3.528   6.946   0.818  0.2816  0.1223 -0.1116
 7425W        W11625   6.583   1.600   2.426 -0.1471 -0.1821  0.0480
 7426W        W11626   3.340   8.115  13.444  0.1559 -0.0393  0.0793
 7427W        W11627   9.081   5.742  13.469  0.2396  0.1067  0.0878
 7428W        W11628   9.479   9.441   3.142  0.2007 -0.2547 -0.0473
 7429W        W11629   9.709   6.194   3.993 -0.0870 -0.1380  0.0080
 7430W        W11630   8.950   8.698   2.858 -0.1030 -0.0248  0.0755
 7431W        W11631  10.291   3.806   3.943  0.1913 -0.0322  0.0160
 7432W        W11632   4.232   6.618  10.386  0.0408  0.0924  0.2334
 7433W        W11633   3.712   9.861   4.466  0.0460 -0.1008  0.0939
 7434W        W11634   0.719   1.394  11.273 -0.0539 -0.1369 -0.0202
 7435W        W11635   5.687  10.420   2.673 -0.4474  0.0640  0.0929
 7436W        W11636   4.557   2.725   2.320  0.2679  0.0601  0.1709
 7437W        W11637   8.144   5.654   0.633 -0.4101  0.1164  0.0073
 7438W        W11638   8.789   4.832   5.079  0.2910 -0.1876 -0.0358
 7439W        W11639   5.188   7.999   3.674 -0.2886 -0.1369  0.2500
 7440W        W11640   0.802   8.726   2.665  0.2225 -0.0926 -0.1401
 7441W        W11641   8.447   0.911   3.426 -0.0448  0.0934  0.2144
 7442W        W11642   8.555   8.593  10.698 -0.2112 -0.0079 -0.2060
 7443W        W11643   7.307  10.466   0.722 -0.3709 -0.3837 -0.1368
 7444W        W11644   2.752   9.507  11.325  0.0030 -0.0581  0.0301
 7445W        W11645   3.357   2.920  13.212  0.1882  0.1881 -0.1433
 7446W        W11646   5.678   3.030  11.207  0.0866  0.0702  0.0565
 7447W        W11647  10.266   8.697   3.793  0.3433  0.0632  0.1342
 7448W        W11648   2.875   2.230   3.998 -0.1330  0.0856  0.1685
 7449W        W11649   0.257   9.876  11.304  0.3933  0.0553  0.1779
 7450W        W11650   5.921   5.030  12.363  0.2624  0.2138  0.2078
 7451W        W11651   1.497   9.140   2.230 -0.0808 -0.0280  0.1816
 7452W        W11652   4.050   1.694   0.109  0.1210  0.0830  0.4206
 7453W        W11653   1.992   4.377  12.667 -0.2358 -0.1912  0.0953
 7454W        W11654   2.525   3.564  12.097 -0.2948  0.4477  0.0787
 7455W        W11655   1.544   1.032  11.754 -0.1977  0.1185 -0.1973
 7456W        W11656   0.684   5.450  13.055 -0.1346  0.1928  0.2047
 7457W        W11657   9.133   0.623  10.571 -0.1148  0.1010  0.0082
 7458W        W11658   8.587   2.925  13.332 -0.0950 -0.2880  0.3790
 7459W        W11659  10.384   0.788  13.307 -0.3288 -0.2529  0.0059
 7460W        W11660   5.908   6.245   1.860 -0.1009  0.1287  0.2056
 7461W        W11661   2.874   0.990   4.006  0.2090  0.3624 -0.3598
 7462W        W11662   5.535   9.680   2.511  0.0587 -0.1664 -0.0647
 7463W        W11663   4.204   2.153  10.675  0.0564  0.2207 -0.2273
 7464W        W11664   5.841   4.603  12.625 -0.0432  0.1228 -0.4956
 7465W        W11665   5.916   9.967   1.733 -0.0474 -0.0018 -0.0029
 7466W        W11666   5.259   6.183  12.675 -0.2019 -0.2138 -0.0759
 7467W        W11667   8.092   3.237   3.707 -0.0452 -0.0359 -0.4339
 7468W        W11668   9.549   5.504  10.990 -0.2253  0.0777 -0.2123
 7469W        W11669   0.705  10.055   0.065  0.1625 -0.0647 -0.0681
 7470W        W11670   2.899   9.347   4.625  0.0939  0.2388 -0.2460
 7471W        W11671   2.787   6.048  12.693 -0.0101  0.1050 -0.0935
 7472W        W11672   0.544   2.940   9.742 -0.0957 -0.4749 -0.2294
 7473W        W11673   9.326   6.551   0.233  0.1127  0.1776  0.5397
 7474W        W11674   2.169   2.371   2.854 -0.2813  0.0337 -0.2369
 7475W        W11675   4.517   6.923   1.152 -0.1966  0.1072 -0.1615
 7476W        W11676   2.826  10.122   1.039 -0.4959  0.4585 -0.0832
 7477W        W11677   6.664   6.116   1.404  0.3198  0.0770 -0.2139
 7478W        W11678   4.872   6.588   2.488 -0.0908  0.1986 -0.1500
 7479W        W11679   0.753   6.290   2.644 -0.1579 -0.1811 -0.0992
 7480W        W11680   9.362   5.491  10.077  0.0231  0.5065 -0.1653
 7481W        W11681   3.208   0.630   9.816 -0.0262 -0.0996 -0.1314
 7482W        W11682   2.041   6.022   8.994 -0.0834 -0.0074 -0.2621
 7483W        W11683   6.555   0.388  11.122  0.2499 -0.1605  0.1403
 7484W        W11684   3.138   7.213  11.296 -0.3364 -0.0774 -0.0428
 7485W        W11685   0.711   7.524   3.468  0.0095 -0.1229  0.2091
 7486W        W11686   1.895   4.875  11.449  0.2097 -0.0686 -0.1571
 7487W        W11687   7.409   3.224   8.504  0.3043  0.0498  0.0336
 7488W        W11688   4.750   8.832   2.463 -0.0715  0.1927  0.2980
 7489W        W11689   0.207   2.550   0.331  0.1780 -0.1469 -0.4855
 7490W        W11690   1.865   2.146   4.394 -0.5131  0.0445  0.0322
 7491W        W11691   9.724   4.065   4.678 -0.1476 -0.5215 -0.0074
 7492W        W11692   9.729   5.022   3.528  0.0212  0.0979 -0.2432
 7493W        W11693   5.606   1.345  13.001  0.0327 -0.2904  0.3532
 7494W        W11694   7.579   8.920  13.062 -0.3117 -0.0080  0.1260
 7495W        W11695   2.543   5.999  12.208  0.1649 -0.2326  0.2043
 7496W        W11696   4.338   6.397   2.786 -0.1773  0.0550 -0.0338
 7497W        W11697   0.062   9.969   1.264  0.0117 -0.2561  0.2938
 7498W        W11698   6.534   2.148  10.688 -0.3665 -0.1560 -0.0463
 7499W        W11699   8.831   4.327   4.239 -0.1470  0.1061 -0.1953
 7500W        W11700   9.796   3.650  12.447 -0.1575 -0.2398  0.0334
 7501W        W11701   6.930   9.205   1.184  0.1657  0.0048  0.0461
 7502W        W11702   6.909   9.237   0.253  0.0847  0.0892 -0.0655
 7503W        W11703   2.951   3.538   2.728 -0.2716 -0.1481  0.0949
 7504W        W11704   9.238   5.112   1.375  0.2453  0.0480 -0.2177
 7505W        W11705   3.773   4.425   2.257  0.4622 -0.0627 -0.1672
 7506W        W11706   5.693   0.438  13.467 -0.0464  0.1145 -0.1521
 7507W        W11707   8.805   8.919  13.326 -0.0468 -0.0782 -0.1528
 7508W        W11708   2.267   8.266   2.157 -0.2820  0.2156  0.1702
 7509W        W11709   5.934   0.807   2.847 -0.0127 -0.0821 -0.2384
 7510W        W11710   1.908   1.954   9.248  0.0529  0.4705 -0.0208
 7511W        W11711   2.279   9.206  12.850  0.1444  0.2162 -0.2377
 7512W        W11712   6.090   5.624   0.291  0.0518  0.1213 -0.2797
 7513W        W11713   4.971   3.764   4.219  0.2279  0.0865 -0.0536
 7514W        W11714   5.239   0.588  11.687  0.1036 -0.1214  0.0963
 7515W        W11715   1.633   2.920   0.380 -0.2357  0.2386  0.1446
 7516W        W11716   6.470   4.596  12.763 -0.1044 -0.0972  0.1427
 7517W        W11717   0.643   5.445  12.532  0.2250  0.1476  0.0397
 7518W        W11718   1.035   5.511   2.405  0.2538 -0.1466  0.2434
 7519W        W11719   8.700   1.120  12.320 -0.1189  0.1732 -0.0420
 7520W        W11720   4.691   8.344   2.758 -0.3778 -0.0993 -0.0989
 7521W        W11721  10.283   9.075   4.202  0.1771 -0.0926 -0.0564
 7522W        W11722   9.132   9.683  11.349  0.1285 -0.2077 -0.1907
 7523W        W11723   9.943   6.809   5.037  0.2342 -0.2640 -0.0246
 7524W        W11724   7.892  10.131   9.349  0.0467  0.0570 -0.0785
 7525W        W11725   7.132   1.075   1.704 -0.1860  0.1999 -0.0038
 7526W        W11726   4.712   9.934   2.655  0.0380  0.0048  0.0491
 7527W        W11727   2.374   7.339  11.033  0.1286  0.2305  0.2660
 7528W        W11728   6.027   2.829   2.543  0.0736 -0.1781 -0.1160
 7529W        W11729   3.804   6.024  11.644 -0.0314  0.4004  0.1988
 7530W        W11730   0.288   8.630  10.859  0.2801 -0.1281 -0.0914
 7531W        W11731   6.948   5.024  12.042 -0.2259  0.1558 -0.1890
 7532W        W11732   1.820   4.018  11.936 -0.0622  0.0257  0.3517
 7533W        W11733   3.988   9.073   1.954 -0.0050  0.3323 -0.0181
 7534W        W11734   7.698   5.783   2.006  0.0323 -0.0136  0.1065
 7535W        W11735   1.169   1.659   2.277  0.1556  0.1660 -0.1797
 7536W        W11736   1.890   0.664  10.572  0.2940 -0.1067  0.1793
 7537W        W11737   8.583   2.626  12.356  0.2279 -0.2755 -0.4042
 7538W        W11738  10.061   1.864  11.878  0.0577 -0.0486  0.1136
 7539W        W11739   2.306   6.767   3.831  0.0064 -0.1130  0.2628
 7540W        W11740   5.679   3.659   1.556 -0.0668  0.3250 -0.0471
 7541W        W11741   6.363   5.230   2.581 -0.0568 -0.1631  0.2591
 7542W        W11742   1.549   5.813  10.340  0.0100  0.4646 -0.1725
 7543W        W11743   5.054   8.394   0.983  0.1076 -0.3064  0.0408
 7544W        W11744   9.203   4.774   1.738 -0.0293  0.0488 -0.1883
 7545W        W11745   0.069   3.183  10.695  0.0285 -0.0569 -0.1682
 7546W        W11746   8.857   7.695  10.928 -0.1063 -0.0405 -0.0777
 7547W        W11747   0.976   5.825   3.935 -0.3987 -0.0286 -0.1526
 7548W        W11748   6.091   4.854   9.011 -0.5719 -0.0216  0.0643
 7549W        W11749   5.527   2.424  10.415 -0.0494 -0.1797 -0.0249
 7550W        W11750   2.992   8.542   9.127  0.1703 -0.2528 -0.3298
 7551W        W11751   7.967   2.379   0.069  0.0321 -0.0764 -0.0035
 7552W        W11752   6.770   8.378   3.712 -0.0859  0.1285  0.1067
 7553W        W11753   0.628   1.715   0.558  0.1876  0.2018  0.1457
 7554W        W11754   4.325   4.608  10.670  0.2416 -0.0197 -0.2504
 7555W        W11755   7.396   0.972  12.404 -0.1707 -0.0055 -0.1820
 7556W        W11756   9.272   2.618   2.958 -0.0211 -0.2734 -0.2937
 7557W        W11757   5.172   5.307   0.216  0.1541  0.3035 -0.0025
 7558W        W11758   0.930   5.598   9.453 -0.1709  0.3634  0.0633
 7559W        W11759   9.120   5.169   0.423  0.3064  0.0348 -0.0623
 7560W        W11760   6.114   6.910   3.419 -0.2052 -0.2578 -0.1638
 7561W        W11761   6.432   2.920   4.240 -0.0135  0.0078  0.0022
 7562W        W11762   5.900   1.367   9.521 -0.0745  0.1233 -0.0768
 7563W        W11763   9.988   8.391   9.985  0.0183 -0.0800  0.2088
 7564W        W11764   3.769   9.118   2.398  0.0194  0.1428 -0.1317
 7565W        W11765   3.823   2.861  11.241 -0.2538 -0.2606  0.1960
 7566W        W11766   2.923   6.405   9.969  0.1194  0.0552  0.1250
 7567W        W11767   5.792   0.032   3.625  0.1395  0.2132  0.1394
 7568W        W11768   0.847   3.036   8.989 -0.0796  0.2216  0.3589
 7569W        W11769   0.600   8.851  13.363 -0.0020 -0.1546 -0.1447
 7570W        W11770   0.632   7.348   4.148 -0.4228 -0.1065 -0.0627
 7571W        W11771   1.555   8.322  13.240  0.3254  0.0944  0.2132
 7572W        W11772   4.711   5.256   0.940  0.0590  0.2328  0.1018
 7573W        W11773   0.814   1.299   9.955  0.1838 -0.0093  0.1933
 7574W        W11774   9.074   2.501  11.285  0.0313  0.2250 -0.0305
 7575W        W11775   4.086   2.175   4.391  0.0601 -0.0745 -0.1378
 7576W        W11776   9.378   5.084   3.918  0.2937  0.3328  0.2400
 7577W        W11777   2.062   0.772   0.738 -0.1486  0.0141 -0.1316
 7578W        W11778   2.591   5.440   2.050  0.2140 -0.1902  0.1664
 7579W        W11779   5.227   7.387  13.057 -0.3058 -0.1220 -0.0965
 7580W        W11780   3.845   0.139   8.646 -0.3461  0.0255 -0.0633
 7581W        W11781   3.267   8.010   4.667  0.0984  0.0260 -0.1188
 7582W        W11782   7.914   7.636   0.665  0.0875  0.1858 -0.1040
 7583W        W11783   0.983   9.532  12.097  0.2512  0.0406 -0.0110
 7584W        W11784   1.926   4.379   2.350 -0.2643 -0.0632 -0.0062
 7585W        W11785  10.296   7.832   1.790  0.1460 -0.2007 -0.3236
 7586W        W11786   5.753   3.192   2.212 -0.0827  0.0672 -0.1139
 7587W        W11787  10.332   8.325   1.707  0.2116  0.3690  0.0211
 7588W        W11788   0.126   2.502   2.562  0.0198 -0.0721 -0.0636
 7589W        W11789   9.941   1.229  10.953  0.3485  0.0817  0.2524
 7590W        W11790   3.921   2.407  11.265  0.0427 -0.1856  0.0700
 7591W        W11791   1.943   1.860  13.233  0.2833  0.3099  0.0235
 7592W        W11792   9.263   0.370  10.929  0.4731 -0.0283 -0.3194
 7593W        W11793   4.870   0.963  11.671  0.1616  0.0736  0.0478
 7594W        W11794   7.504   8.537  11.239 -0.0010  0.3575 -0.0577
 7595W        W11795   7.481   5.892   9.095 -0.0842 -0.2803 -0.1367
 7596W        W11796   1.579   2.722   4.464 -0.1138 -0.0593 -0.1899
 7597W        W11797   8.928   0.521   9.609 -0.1765 -0.1534 -0.1399
 7598W        W11798  10.459   4.606   2.582  0.1837  0.2621  0.1672
 7599W        W11799   3.415   7.312   9.316 -0.2337 -0.0540  0.1067
 7600W        W11800   4.226   5.750  13.407 -0.0827 -0.0374  0.1663
 7601W        W11801  10.461  10.343   2.461  0.0634 -0.1255 -0.0906
 7602W        W11802   9.453   0.876  12.898 -0.1685 -0.1460 -0.1578
 7603W        W11803   9.135   9.298   1.455  0.0005  0.0369  0.0559
 7604W        W11804   1.404   4.368   3.239  0.2816 -0.2260 -0.0792
 7605W        W11805   8.339   1.597   1.391 -0.3265  0.1276 -0.1169
 7606W        W11806   5.853   2.140  11.689 -0.0940  0.1695  0.2770
 7607W        W11807   4.190   0.931  12.560  0.0081  0.1174 -0.2135
 7608W        W11808  10.405   0.945   0.396 -0.0575  0.3014  0.2846
 7609W        W11809   1.620   2.218  12.564 -0.1570  0.0929  0.2108
 7610W        W11810   1.632   2.903   1.537 -0.1440  0.4126  0.0832
 7611W        W11811   8.344   1.870  12.014 -0.0702 -0.6919 -0.2867
 7612W        W11812   0.356   1.242  10.874  0.3692  0.0437  0.0295
 7613W        W11813  10.086   3.016  13.464  0.2665 -0.2130 -0.2708
 7614W        W11814   4.893   6.975  11.373 -0.0117 -0.0260 -0.0383
 7615W        W11815   4.031   8.924  12.613  0.0049 -0.5220  0.1272
 7616W        W11816   7.248   4.662   9.281  0.0158  0.0053 -0.1393
 7617W        W11817   1.710   7.850   2.546  0.2949 -0.0499  0.1840
 7618W        W11818   0.281   9.840  10.385 -0.0063  0.2405  0.0268
 7619W        W11819   9.591   3.080  13.357 -0.0400  0.1165 -0.1107
 7620W        W11820   9.503   9.891   0.284 -0.0741  0.0337 -0.0341
 7621W        W11821   3.880   9.234   1.362 -0.1286 -0.0517 -0.1379
 7622W        W11822   4.549   1.644   0.322  0.3221  0.0893  0.1489
 7623W        W11823   2.753   4.343   2.891  0.3812  0.0918 -0.4018
 7624W        W11824   4.625   8.759   9.249  0.0490  0.1152 -0.2023
 7625W        W11825  10.157  10.377  12.261 -0.1103  0.1993 -0.0180
 7626W        W11826  10.351   8.894   2.952 -0.2059  0.2712 -0.3806
 7627W        W11827   4.497   5.227  13.278 -0.0750 -0.1133  0.0262
 7628W        W11828   1.828   1.129   0.351  0.2171 -0.2284  0.0318
 7629W        W11829   9.773   9.068  13.201 -0.1871  0.0619 -0.0237
 7630W        W11830   6.196   0.851   2.362  0.3106  0.2516  0.3065
 7631W        W11831   2.262   1.542   3.701  0.1736 -0.2188 -0.2714
 7632W        W11832   0.474   8.188   3.266  0.1423 -0.2355  0.0366
 7633W        W11833   0.696   0.696  10.347 -0.1071  0.0843 -0.0180
 7634W        W11834   6.037   2.801   1.030  0.2138  0.1798  0.2113
 7635W        W11835   3.549   3.325   9.228  0.0541 -0.0235  0.1372
 7636W        W11836   4.543   3.968   1.006 -0.1430  0.2544 -0.2679
 7637W        W11837   6.169   4.591  12.200 -0.1125  0.0787 -0.0460
 7638W        W11838   1.002   9.854   8.723  0.2649  0.1463  0.0282
 7639W        W11839   9.352   8.899  11.097 -0.1108 -0.2858 -0.1969
 7640W        W11840   9.039   1.163  11.952 -0.1696 -0.1020  0.1821
 7641W        W11841   6.470   8.240   1.710  0.1313 -0.1201  0.0270
 7642W        W11842   3.726   4.849   1.793  0.1236 -0.2250 -0.1866
 7643W        W11843   6.434   5.272   9.113  0.1253 -0.2912  0.0640
 7644W        W11844   1.943   0.730   3.222 -0.0104 -0.1875 -0.1476
 7645W        W11845   7.720   8.860  11.547 -0.2449  0.0857  0.3242
 7646W        W11846   5.391   8.695   0.280 -0.1194 -0.0345 -0.1582
 7647W        W11847   7.077   8.324  12.553  0.1567  0.2138 -0.0846
 7648W        W11848   0.599   2.467  12.106 -0.1107  0.0148  0.1133
 7649W        W11849   7.469   3.105  11.137  0.1930 -0.2829 -0.0198
 7650W        W11850   1.251   2.900   3.558  0.1213  0.4102  0.0121
 7651W        W11851   6.758   2.052   1.179  0.0642 -0.1986 -0.3201
 7652W        W11852   8.480   0.587   2.187 -0.2243  0.0382  0.1601
 7653W        W11853   2.259   1.700   3.192  0.3781  0.0070 -0.0345
 7654W        W11854   8.375   3.298   2.475 -0.3514 -0.0933 -0.1054
 7655W        W11855   2.992   8.244  12.130  0.5228 -0.2856 -0.3009
 7656W        W11856   6.174   8.518   4.406 -0.0145 -0.4165  0.0929
 7657W        W11857   3.155   4.388  10.467 -0.1062  0.0425 -0.3755
 7658W        W11858   8.962   4.346  11.784 -0.0729  0.2267 -0.1853
 7659W        W11859   0.859   7.099   3.173 -0.1080  0.0500  0.0977
 7660W        W11860   7.919   8.097   3.218  0.0763 -0.1274 -0.2301
 7661W        W11861   2.569   6.528  12.168  0.2325 -0.1687 -0.0115
 7662W        W11862   5.507   0.969   4.004  0.1985  0.0074 -0.0140
 7663W        W11863   2.673   6.201   3.206 -0.0922  0.0545  0.1115
 7664W        W11864   6.047   7.716  13.439  0.0496  0.2483  0.0171
 7665W        W11865   8.359   2.353  12.793 -0.1017  0.0115 -0.2340
 7666W        W11866   4.604  10.011   9.096  0.2358 -0.2723 -0.0898
 7667W        W11867   2.581   2.144   0.961 -0.2525 -0.0486 -0.1717
 7668W        W11868   9.637   5.521   3.185 -0.1340 -0.2218  0.2674
 7669W        W11869   1.445   1.986   3.583 -0.1171 -0.1999 -0.2163
 7670W        W11870   1.493   6.956  10.893  0.1411  0.1940  0.1766
 7671W        W11871   8.750   9.061   0.883 -0.0648  0.0157  0.2253
 7672W        W11872   6.434   3.941   4.338 -0.0237 -0.2059 -0.0816
 7673W        W11873   9.035   4.971   4.318 -0.6164 -0.1931  0.0526
 7674W        W11874   2.210   5.358   9.158  0.2133 -0.2301 -0.1768
 7675W        W11875   3.808   9.653  11.612 -0.1267  0.0254  0.0346
 7676W        W11876  10.223   8.612   0.115  0.2339  0.2096  0.0351
 7677W        W11877   7.638   8.224  12.288 -0.0723  0.0658 -0.1433
 7678W        W11878   1.995  10.353   4.901  0.0077  0.4889 -0.0297
 7679W        W11879   0.109   4.456  11.113 -0.0164 -0.2817 -0.1210
 7680W        W11880   5.958   5.335  11.935  0.0637 -0.1451 -0.2691
 7681W        W11881   4.333   0.060   8.538  0.3270  0.0138  0.1062
 7682W        W11882   5.555   7.053  13.181 -0.3941  0.1447 -0.3212
 7683W        W11883   2.841   6.702   3.049 -0.0875 -0.2262  0.1318
 7684W        W11884   6.304   3.196   1.190  0.1232  0.0632  0.0561
 7685W        W11885   7.242   4.097   0.775  0.2581  0.1537  0.3144
 7686W        W11886   6.367   0.637   2.769 -0.0928 -0.0395 -0.0176
 7687W        W11887   8.642  10.272  12.386 -0.3785 -0.0489 -0.1911
 7688W        W11888   2.906   6.454   9.449  0.2430  0.0605 -0.3300
 7689W        W11889   9.908   5.045   4.059 -0.0343  0.0670 -0.1300
 7690W        W11890   3.048   2.505   5.313 -0.0854  0.1485  0.1805
 7691W        W11891   4.045   5.847  10.534  0.1701 -0.3424 -0.2168
 7692W        W11892   4.607   9.150  11.825  0.0438 -0.1255 -0.2459
 7693W        W11893   2.812   6.112  11.318  0.1325  0.1031  0.3889
 7694W        W11894   9.674   0.870   2.499  0.2388  0.1480  0.0988
 7695W        W11895   1.352   7.357   4.034 -0.1212  0.1885  0.0037
 7696W        W11896   8.692   7.470  11.527  0.0098  0.1527  0.0231
 7697W        W11897   6.120   3.312  11.062  0.5155  0.0666 -0.1122
 7698W        W11898   4.273   9.774  10.114 -0.1885  0.0545 -0.0418
 7699W        W11899   2.575   2.940   9.985  0.0400 -0.0413 -0.0429
 7700W        W11900   5.640   0.837   2.450  0.0512 -0.0846 -0.1567
 7701W        W11901   1.604   5.315  12.375  0.0885  0.1390 -0.1278
 7702W        W11902   3.215   2.324  13.272  0.1511  0.1016  0.0951
 7703W        W11903   7.304   2.411  10.099 -0.0670  0.0847  0.2815
 7704W        W11904   9.262   1.742   1.042  0.2481  0.1321  0.1003
 7705W        W11905   1.646   0.270   3.055  0.2998 -0.1612  0.4513
 7706W        W11906   7.805   4.433  11.222  0.0299  0.1309  0.2343
 7707W        W11907   8.032   3.730   1.230  0.0911 -0.0293 -0.1580
 7708W        W11908   7.589   0.071   0.140 -0.2990 -0.0561 -0.1410
 7709W        W11909   4.999   2.943   5.021 -0.1037  0.0386 -0.0799
 7710W        W11910   3.363   9.481   4.430  0.0897 -0.0615 -0.1210
 7711W        W11911   4.553   1.804  11.528 -0.1055  0.0353 -0.1301
 7712W        W11912   1.549   9.822   1.437 -0.2633 -0.0104  0.1569
 7713W        W11913   2.495   5.296  13.155  0.2271  0.0069 -0.1454
 7714W        W11914   4.021   5.540  10.960  0.1129 -0.1212 -0.0193
 7715W        W11915   7.861   7.674   0.184  0.2570  0.0971 -0.0930
 7716W        W11916   2.881   2.528  11.256  0.1005 -0.0767 -0.1594
 7717W        W11917   4.451   8.621   0.994  0.0402  0.1377 -0.2254
 7718W        W11918  10.077   1.945  10.038 -0.1645 -0.1270 -0.0097
 7719W        W11919   1.263   0.786  10.527  0.1372  0.0773  0.4938
 7720W        W11920   5.797   3.688  13.353  0.0280  0.1996  0.3480
 7721W        W11921   1.697   3.613  12.645 -0.2156  0.0166  0.0900
 7722W        W11922   7.773   3.104   0.220  0.2840 -0.0570 -0.2191
 7723W        W11923   4.086   8.123  11.416  0.4099  0.4263 -0.1065
 7724W        W11924   9.618   9.308  11.428 -0.0180  0.2503  0.1160
 7725W        W11925   5.614   7.196  10.286 -0.0978 -0.1025  0.2220
 7726W        W11926   9.331   5.317  13.049 -0.0504  0.0172  0.0892
 7727W        W11927   3.725   8.126  12.212 -0.0856 -0.0892 -0.0031
 7728W        W11928   5.292   5.134   4.839  0.0039  0.0227 -0.2408
 7729W        W11929   8.021   4.906   3.892  0.2977 -0.3237 -0.0919
 7730W        W11930   5.826   6.331  11.941  0.0556 -0.0328 -0.1541
 7731W        W11931   9.421   7.597   1.304  0.1017  0.0464 -0.0524
 7732W        W11932   0.675   9.038   3.106 -0.0349  0.0305 -0.2446
 7733W        W11933   0.921   5.381   0.777 -0.2268 -0.2424 -0.1414
 7734W        W11934   5.708   7.028   0.787 -0.0679  0.1143  0.2016
 7735W        W11935   5.636   8.409  10.595  0.0699 -0.0573 -0.2394
 7736W        W11936   5.660   0.569   1.096  0.0459 -0.1094 -0.0973
 7737W        W11937   4.934   7.035   4.704 -0.0193 -0.0704 -0.3196
 7738W        W11938   6.834   5.272   2.729 -0.1652  0.1356 -0.1145
 7739W        W11939   6.956   0.920   0.445 -0.1797 -0.0329  0.0886
 7740W        W11940   2.598  10.061   2.872  0.0742 -0.3253 -0.2759
 7741W        W11941   5.502   8.675  12.315 -0.0314  0.3341  0.4346
 7742W        W11942   4.995   6.287   4.192  0.1934  0.3403  0.4030
 7743W        W11943   8.814  10.314  10.628  0.0877  0.0036 -0.2598
 7744W        W11944   2.469   4.202   3.343 -0.3395 -0.1500 -0.1194
 7745W        W11945   0.280   5.159  11.787  0.1516  0.0877 -0.1100
 7746W        W11946   5.394   0.855   2.993  0.3714  0.2424 -0.0199
 7747W        W11947   3.837   0.621   5.087 -0.2783  0.1215 -0.0774
 7748W        W11948   4.099   3.322  12.868  0.1121 -0.1321 -0.3243
 7749W        W11949   0.078   8.813   0.501  0.1275  0.0238  0.1253
 7750W        W11950   7.364   6.737  12.773  0.0388  0.3310  0.0248
 7751W        W11951   3.823   9.999  10.485  0.0822  0.2487 -0.1542
 7752W        W11952   9.818   7.800  11.350 -0.0933 -0.1597 -0.1638
 7753W        W11953   5.243   7.742   4.113 -0.4081 -0.1574 -0.2702
 7754W        W11954   2.869   8.764  12.310  0.1260 -0.3590  0.0675
 7755W        W11955   5.953   0.302  10.194  0.2477  0.0738 -0.1520
 7756W        W11956   4.486   7.553   1.213  0.2132 -0.2912 -0.1803
 7757W        W11957   0.979   9.414   4.704 -0.1214  0.0998 -0.2932
 7758W        W11958   7.173   1.686   4.302  0.1463  0.1697 -0.0733
 7759W        W11959   3.330   7.506   4.521 -0.2638 -0.0705 -0.0641
 7760W        W11960   1.988   7.974   0.476 -0.0783 -0.2945  0.2378
 7761W        W11961   7.653   0.881  10.671 -0.0383 -0.1247  0.0370
 7762W        W11962   6.539   4.974  12.419 -0.1067  0.1217 -0.0291
 7763W        W11963   2.761   5.274   9.141 -0.0529  0.0780  0.1941
 7764W        W11964   5.482   1.364   1.225 -0.4851 -0.2329 -0.1369
 7765W        W11965   2.314   2.487   9.925 -0.4033 -0.0638 -0.1827
 7766W        W11966   7.093   9.929   3.037 -0.0534  0.2738  0.0518
 7767W        W11967   7.139   8.608   9.439 -0.2107 -0.2153 -0.1304
 7768W        W11968   5.810   8.813   1.592 -0.0499  0.0136 -0.0009
 7769W        W11969   5.389   2.154   0.621  0.0422  0.1712 -0.0468
 7770W        W11970   1.001   3.272   3.356  0.0419 -0.1868 -0.1307
 7771W        W11971   3.506   5.547  12.711 -0.1957 -0.0054  0.0441
 7772W        W11972   8.244   6.041  11.441  0.1625 -0.1756 -0.2592
 7773W        W11973   0.185   9.750   4.082  0.2319 -0.1303  0.1588
 7774W        W11974   5.599  10.395   1.195 -0.0732  0.3274 -0.0238
 7775W        W11975   4.753   7.600   2.000  0.1386 -0.0974  0.1124
 7776W        W11976   6.692   8.407   1.199 -0.0195  0.0791 -0.2992
 7777W        W11977   6.758   3.482   4.630  0.2270 -0.1472  0.0660
 7778W        W11978   2.596   4.117   3.896 -0.1212  0.2450  0.0054
 7779W        W11979   1.988   3.735  10.299 -0.2535 -0.3866  0.0394
 7780W        W11980   3.631   2.927   2.543 -0.0157 -0.3779  0.0180
 7781W        W11981   1.587   8.694   4.566 -0.0825 -0.0332 -0.0922
 7782W        W11982   4.084   5.957   1.138  0.2106  0.0549  0.5466
 7783W        W11983  10.458   2.506   2.089  0.1860  0.0603  0.4599
 7784W        W11984   1.764   4.231   0.521  0.1560  0.1583 -0.0463
 7785W        W11985   2.054   7.014   0.738 -0.3414 -0.0162  0.2538
 7786W        W11986   9.106   6.482   3.283 -0.1101  0.0597  0.3041
 7787W        W11987   0.858   4.382  11.766 -0.2215  0.1569 -0.3515
 7788W        W11988   8.038   2.983   4.116  0.0461  0.0131  0.0487
 7789W        W11989   3.846   7.790  12.809 -0.0744  0.0001 -0.1218
 7790W        W11990   9.580   3.237   9.654  0.0968  0.0606 -0.0854
 7791W        W11991   0.426   6.112  12.668  0.0252  0.2094  0.1392
 7792W        W11992   7.285   0.513  12.204  0.1883  0.1952  0.0366
 7793W        W11993   6.323   3.179   2.141 -0.1142  0.2298 -0.1377
 7794W        W11994   7.407   3.915  12.578  0.0168  0.0272  0.2910
 7795W        W11995   8.442   6.528   5.069  0.0451 -0.1971 -0.2154
 7796W        W11996   5.206   7.785   2.326  0.1547  0.0084  0.1896
 7797W        W11997   0.291   0.627   0.217 -0.0144 -0.2927 -0.0878
 7798W        W11998  10.324   5.561  10.141 -0.1162 -0.1589  0.3050
 7799W        W11999   8.124   6.217   0.813  0.1838  0.0428 -0.1045
 7800W        W12000   4.146   0.895  13.134  0.2097  0.0836  0.1774
 7801W        W12001   3.760   4.025   3.603  0.2404  0.1834  0.0788
 7802W        W12002   6.029   8.476  12.973  0.0904  0.3335 -0.3589
 7803W        W12003   7.737   7.018   1.308  0.0233 -0.5049 -0.0792
 7804W        W12004   2.134   5.854   0.996  0.0595  0.2450  0.3945
 7805W        W12005   9.824   2.603   0.051 -0.1221  0.0796 -0.2308
 7806W        W12006   7.649   2.563  12.640 -0.2289 -0.3361  0.0421
 7807W        W12007   2.564  10.385   3.248  0.3236 -0.0477 -0.1428
 7808W        W12008   4.172   7.021  13.388 -0.0671 -0.2183  0.1418
 7809W        W12009   7.650   9.528  13.069 -0.1138  0.0176 -0.1592
 7810W        W12010   8.499   7.438  12.533  0.3960  0.0412 -0.1118
 7811W        W12011   6.796   5.461  12.093 -0.2580  0.0131 -0.1115
 7812W        W12012   3.045   1.064   0.182 -0.0071  0.3006  0.0465
 7813W        W12013   4.614   4.814  12.892 -0.1342  0.1655 -0.0824
 7814W        W12014   0.591   2.628  11.620 -0.1518 -0.0396  0.3560
 7815W        W12015   3.497   3.812   9.145 -0.2227 -0.1327 -0.0575
 7816W        W12016   3.083   5.642   3.871 -0.3368  0.0280 -0.4734
 7817W        W12017   5.002   0.434  10.301  0.1405  0.0550  0.2594
 7818W        W12018   5.342   8.328  13.424 -0.0520  0.4925 -0.1727
 7819W        W12019   3.053   5.920   9.369 -0.1734 -0.3663  0.0700
 7820W        W12020  10.213   9.596   0.939  0.2748 -0.1952 -0.1041
 7821W        W12021  10.066   5.437   3.734  0.2204 -0.1256 -0.1250
 7822W        W12022   0.808   9.424   0.598  0.0580 -0.2029 -0.1395
 7823W        W12023   1.132   2.890   0.193 -0.1112 -0.0567 -0.0434
 7824W        W12024   9.085   7.143   1.356  0.4664  0.0163 -0.4342
 7825W        W12025   3.340   3.647  12.232 -0.0935 -0.0827  0.1880
 7826W        W12026   0.551   9.188  12.039  0.0395  0.3006 -0.2212
 7827W        W12027   8.916   1.019  10.856 -0.2145 -0.0332 -0.2150
 7828W        W12028   2.680   4.183  13.293 -0.0225 -0.1411  0.0230
 7829W        W12029   2.433   6.270   0.949  0.2531  0.3084 -0.0992
 7830W        W12030   9.820   5.729   2.284 -0.0828  0.2413 -0.2344
 7831W        W12031   6.199   7.015   1.802 -0.1946 -0.2045 -0.0375
 7832W        W12032   0.901  10.215   1.374 -0.0140  0.0496 -0.0517
 7833W        W12033   5.257   5.628  12.658 -0.1543 -0.1815  0.2144
 7834W        W12034   9.899   3.233   2.648 -0.1423  0.1894  0.0719
 7835W        W12035   5.665   3.063   2.821  0.0500  0.1319 -0.1675
 7836W        W12036   9.735   3.140   3.128  0.2008  0.2589 -0.1147
 7837W        W12037   1.810   1.489   1.779 -0.0441  0.1962 -0.3962
 7838W        W12038   6.597   0.626   2.246  0.0267  0.0957  0.0279
 7839W        W12039   7.463   3.366  11.614 -0.1620 -0.0481  0.0695
 7840W        W12040   7.123   9.601  10.446  0.1847  0.2913 -0.1846
 7841W        W12041   5.805   8.503   2.030 -0.2661 -0.0392  0.3561
 7842W        W12042   5.161   5.681   9.515  0.0620 -0.0831  0.2057
 7843W        W12043   3.841   9.558   2.191 -0.1393  0.0482 -0.0768
 7844W        W12044   9.652   4.171   3.501 -0.0069 -0.1987  0.2202
 7845W        W12045  10.291   5.656   4.337  0.1146  0.1885 -0.4600
 7846W        W12046   0.915   2.456   0.894  0.3533 -0.0709  0.0664
 7847W        W12047   5.927   9.530   8.609 -0.1911 -0.2554  0.1234
 7848W        W12048   1.301   0.968  12.299  0.1068 -0.3382  0.0696
 7849W        W12049   1.981   1.482  12.325 -0.1802  0.2139 -0.1886
 7850W        W12050   6.068   8.263  11.635 -0.0803 -0.0945 -0.2367
 7851W        W12051   1.820   7.547   3.959 -0.0595 -0.1063 -0.0927
 7852W        W12052   9.487   6.921   3.636 -0.0997  0.1730  0.1657
 7853W        W12053   3.418   9.887   0.802 -0.0044 -0.0448 -0.2362
 7854W        W12054   8.453   5.406   1.779  0.1856  0.0383 -0.0868
 7855W        W12055   9.264   0.806   1.285  0.0076  0.1214  0.1010
 7856W        W12056   1.168   5.153  13.153 -0.0018  0.0222 -0.1749
 7857W        W12057   8.395   7.718  11.191  0.0286  0.1309 -0.1308
 7858W        W12058   9.953   9.031   1.765 -0.3110 -0.0306 -0.1204
 7859W        W12059   6.853   2.487   0.478  0.1376  0.0360  0.0223
 7860W        W12060   3.665   0.392  10.165 -0.0077  0.0249 -0.0083
 7861W        W12061   8.729   3.374  11.092 -0.0297 -0.0322 -0.0064
 7862W        W12062   9.721   5.175  12.768 -0.1129 -0.1324 -0.0974
 7863W        W12063   6.089   2.783   0.541  0.0522 -0.1611 -0.1146
 7864W        W12064   1.729   7.169   2.567 -0.3366 -0.0596  0.0063
 7865W        W12065   5.679  10.455   1.866  0.0765  0.2503 -0.1372
 7866W        W12066   2.672   1.015  12.417 -0.0376  0.2403  0.3840
 7867W        W12067   4.213   0.583   9.702 -0.1595 -0.2494 -0.1217
 7868W        W12068   6.977   1.076  11.364 -0.3356 -0.1146  0.3769
 7869W        W12069   1.184   6.544  12.281  0.1615  0.0782 -0.2691
 7870W        W12070   3.775   2.017  13.341  0.1899 -0.0676  0.0711
 7871W        W12071   7.947   4.609  11.706 -0.2757  0.2225 -0.2111
 7872W        W12072   8.687   3.993  11.339  0.1090  0.1111 -0.1663
 7873W        W12073   3.188   2.212   8.615  0.1492 -0.1588 -0.0115
 7874W        W12074   9.782   0.830  11.194  0.1219 -0.2129 -0.2486
 7875W        W12075   7.051   4.018   9.376 -0.0865 -0.0636 -0.2206
 7876W        W12076   6.792   8.196   2.126  0.1511 -0.1165  0.0794
 7877W        W12077   5.149   5.269   9.154 -0.0011  0.0459  0.2580
 7878W        W12078   3.801   1.986   0.901  0.2749  0.0548  0.0652
 7879W        W12079   6.258   7.959   2.855  0.0764 -0.3319  0.0347
 7880W        W12080   9.299   2.568   2.465  0.2183 -0.0385 -0.2105
 7881W        W12081   0.326   9.590  13.373  0.2237 -0.3356 -0.1642
 7882W        W12082   9.044   6.825   4.514  0.1070  0.0255 -0.0852
 7883W        W12083   1.789   7.544   9.533 -0.3521 -0.3052  0.2103
 7884W        W12084   7.228   5.766   1.149  0.2318  0.1931  0.1571
 7885W        W12085   7.664   6.348   4.643  0.1915 -0.0697  0.1039
 7886W        W12086   2.451   8.560  12.123 -0.4480  0.0712  0.5812
 7887W        W12087   2.771   7.842   3.759  0.0307  0.0224 -0.0025
 7888W        W12088   3.618   2.081   9.378 -0.4898  0.0388 -0.4418
 7889W        W12089   1.488   4.182   2.562 -0.0341 -0.0137  0.1221
 7890W        W12090   7.299   7.160  13.013  0.0863 -0.4717 -0.0251
 7891W        W12091   5.903   6.302  13.061 -0.0907 -0.1170 -0.1449
 7892W        W12092   4.325   3.942  11.604  0.1906 -0.1490 -0.2727
 7893W        W12093   8.296   3.663   9.540 -0.1128 -0.1293 -0.0790
 7894W        W12094   7.177   7.550  11.796 -0.2991  0.0545  0.2261
 7895W        W12095   1.055   6.981   9.437 -0.2800  0.0421 -0.0065
 7896W        W12096   2.490   5.931  10.943 -0.2224 -0.0739  0.0245
 7897W        W12097   6.591   3.540   2.440  0.2212 -0.3960  0.1005
 7898W        W12098   2.224   1.771   1.642  0.1581  0.4344  0.1021
 7899W        W12099   6.558   0.176   2.775  0.3634 -0.0321 -0.0651
 7900W        W12100   1.515   7.081   0.810 -0.1207  0.1252  0.0055
 7901W        W12101   1.232   0.738  11.093  0.0180  0.0028  0.2000
 7902W        W12102   8.296   8.636   2.273 -0.2002  0.1175 -0.1538
 7903W        W12103  10.271   8.094  11.802 -0.1225 -0.0652 -0.2644
 7904W        W12104   7.527   5.833  10.113 -0.2101 -0.1656 -0.1844
 7905W        W12105   6.537   6.567   3.613  0.2130 -0.0165  0.4088
 7906W        W12106   4.947   7.935  10.387 -0.2997  0.1673 -0.0321
 7907W        W12107   7.927  10.024   3.811  0.2306  0.0418  0.1008
 7908W        W12108   0.016   8.551   3.318 -0.0055  0.0397 -0.2508
 7909W        W12109   0.490   7.183  10.110  0.0987  0.0314 -0.1146
 7910W        W12110   1.745   0.665  12.486 -0.2872  0.2442  0.0694
 7911W        W12111   6.977   1.608   1.466  0.0142 -0.2756 -0.0724
 7912W        W12112   2.722   8.596   1.549 -0.2628 -0.0351 -0.0611
 7913W        W12113   2.426   8.749  12.587 -0.1348 -0.1595  0.0504
 7914W        W12114   2.778   6.862   9.089  0.2280  0.0691  0.3914
 7915W        W12115   0.568   7.320  11.832  0.0461  0.2153  0.3156
 7916W        W12116   1.123   0.699   0.848 -0.1761  0.0843 -0.1785
 7917W        W12117   2.073   7.667   2.939  0.0281 -0.2992  0.4180
 7918W        W12118   4.906   7.566  11.308 -0.1686 -0.1021  0.0291
 7919W        W12119   4.739  10.047   9.667 -0.1017 -0.2086  0.0546
 7920W        W12120   7.098   7.044  11.226  0.0565 -0.1299 -0.1475
 7921W        W12121   6.644   7.992  12.531  0.0800 -0.2038  0.1651
 7922W        W12122   2.728   1.137   2.288  0.0162 -0.2109  0.0311
 7923W        W12123   6.369   5.098  10.243  0.0171  0.0264  0.0096
 7924W        W12124   9.642   2.287   4.236 -0.2535  0.2132  0.1013
 7925W        W12125   3.233   1.142   2.231 -0.1637  0.3034  0.1851
 7926W        W12126   8.186   5.938   4.474 -0.0034  0.0271  0.2104
 7927W        W12127   6.195   7.996   4.222  0.0883 -0.1882  0.0971
 7928W        W12128   9.204   6.150  13.246 -0.1363  0.1286 -0.1098
 7929W        W12129   8.621   9.505   0.503 -0.2616 -0.4788 -0.2506
 7930W        W12130   7.531   9.672   1.678  0.0283  0.5025  0.3931
 7931W        W12131   2.204   7.948   4.477 -0.2509  0.0418 -0.0720
 7932W        W12132   7.146   5.725  10.461  0.0386  0.0359  0.1484
 7933W        W12133   3.489   6.063   3.624  0.0107 -0.1079 -0.0225
 7934W        W12134   2.855   1.420   4.421  0.1076  0.0409  0.2288
 7935W        W12135   3.060   6.865   9.972 -0.0730  0.1010 -0.1289
 7936W        W12136   6.417   5.794  11.893 -0.1022  0.1974 -0.2597
 7937W        W12137   1.210   4.448   0.510 -0.1749 -0.0132 -0.1457
 7938W        W12138   3.602   8.223  12.891  0.1906 -0.0172 -0.1793
 7939W        W12139   2.179   7.493   1.000  0.0629  0.0577 -0.4021
 7940W        W12140   2.145   9.487   9.220  0.1081  0.2802  0.0889
 7941W        W12141   4.964   2.050  11.666 -0.0557  0.1472  0.2520
 7942W        W12142   2.404   9.093   2.185 -0.0033  0.1019  0.0198
 7943W        W12143   0.417   3.781   1.816  0.0347  0.2305  0.0099
 7944W        W12144   6.358   6.532   0.535  0.0171  0.2313 -0.2237
 7945W        W12145   9.585   1.344   2.555 -0.3890 -0.2385  0.2408
 7946W        W12146   1.259   5.930   3.183  0.1844 -0.0507 -0.3535
 7947W        W12147   6.373  10.171  11.639 -0.5407  0.2137  0.1469
 7948W        W12148   5.689   5.926  11.583 -0.0707 -0.0580  0.1012
 7949W        W12149   0.496   1.622  11.690  0.0019 -0.1119 -0.1669
 7950W        W12150   6.422   0.917   0.408 -0.3789  0.2250  0.0437
 7951W        W12151   6.733   1.317   3.460  0.3078  0.4061 -0.0469
 7952W        W12152  10.385  10.414   1.997 -0.0034  0.0114 -0.0198
 7953W        W12153   8.228   7.411  11.526  0.0357 -0.2412 -0.2719
 7954W        W12154   2.939   0.724   1.986  0.1042  0.1747  0.0545
 7955W        W12155   0.258   5.285  12.238 -0.0617 -0.3192 -0.2159
 7956W        W12156   3.609   7.867   4.304 -0.1734 -0.2702  0.0614
 7957W        W12157   1.194   7.830   2.819 -0.2372  0.0549 -0.1757
 7958W        W12158   5.364   6.109   9.006 -0.2785  0.1634  0.0668
 7959W        W12159   7.717   1.876   2.588 -0.0088  0.1550  0.1005
 7960W        W12160   6.608   5.853  12.424  0.2757  0.1867 -0.1434
 7961W        W12161  10.009   0.638  10.387  0.0004 -0.0618  0.1167
 7962W        W12162   0.451   0.727  11.944 -0.3323 -0.3228  0.1632
 7963W        W12163   9.169   5.562   1.592 -0.0649  0.1375  0.0467
 7964W        W12164   1.845   4.580   3.377  0.0892 -0.2012  0.2557
 7965W        W12165   3.417   0.720  12.740 -0.0977 -0.1250 -0.2081
 7966W        W12166   3.051   5.594   4.438 -0.0669 -0.0195  0.0614
 7967W        W12167   8.488   7.298  13.016  0.3218 -0.2489 -0.1768
 7968W        W12168   3.103   3.541   0.619  0.2777 -0.1818 -0.2953
 7969W        W12169   1.605   8.239   0.268 -0.0357  0.2096  0.3068
 7970W        W12170   7.521   0.261  12.680  0.0875 -0.0203 -0.1308
 7971W        W12171   5.894   8.420  12.086  0.0170  0.2150 -0.0726
 7972W        W12172   6.924   5.216   1.775 -0.3107  0.0098  0.5995
 7973W        W12173  10.277   7.516   9.433  0.1088 -0.3121  0.0488
 7974W        W12174   7.284   8.654  10.700 -0.0524 -0.1715 -0.0835
 7975W        W12175   4.908   3.699  12.746 -0.2274  0.2149  0.0367
 7976W        W12176  10.392   2.530   9.240 -0.0449  0.3773  0.0526
 7977W        W12177   9.239   7.990  10.651  0.2383  0.0452 -0.0411
 7978W        W12178   6.247   1.940   2.996 -0.2227 -0.3069  0.0595
 7979W        W12179   6.170  10.099   3.664 -0.0088  0.2010  0.1473
 7980W        W12180   6.888   2.519   0.963  0.3549 -0.0575 -0.1366
 7981W        W12181   3.217  10.038   4.411  0.2579  0.2038 -0.0483
 7982W        W12182  10.114   1.225   0.006 -0.0002 -0.4229  0.0544
 7983W        W12183   6.537   1.112   2.626  0.1998  0.2288 -0.0090
 7984W        W12184   2.493   3.920   1.189 -0.0235 -0.1985 -0.0274
 7985W        W12185   5.474   1.319  10.655 -0.0624 -0.0858 -0.2046
 7986W        W12186   7.793   4.401   2.513  0.0166 -0.1299  0.2810
 7987W        W12187   2.171   1.519   9.320  0.1184 -0.1692  0.2825
 7988W        W12188   9.654   4.529  11.414 -0.1403  0.0980 -0.1487
 7989W        W12189   1.622  10.031   1.949 -0.2114 -0.2251 -0.1620
 7990W        W12190   4.756   3.622   0.617 -0.1188 -0.2561 -0.0864
 7991W        W12191   9.689   0.038  12.300 -0.2313  0.1894 -0.1768
 7992W        W12192   9.874   9.754   2.833  0.2922 -0.1936  0.1659
 7993W        W12193   8.571   4.341   0.210 -0.1896 -0.0088 -0.1750
 7994W        W12194   8.162   7.799  12.321 -0.3120 -0.2974 -0.0616
 7995W        W12195   6.257   9.468  12.993  0.0099  0.1724  0.0472
 7996W        W12196   7.077   4.700   0.825  0.1215 -0.0680  0.3925
 7997W        W12197  10.160   7.075   1.099  0.2080 -0.1966 -0.3921
 7998W        W12198   7.749   1.558  13.177 -0.2746  0.0412  0.2571
 7999W        W12199   7.769   1.523   2.201  0.0394 -0.2159  0.0474
 8000W        W12200   5.187   5.954  13.156  0.0921  0.1873 -0.1477
 8001W        W12201   3.724   7.468  10.063 -0.2596 -0.1192  0.0876
 8002W        W12202   7.404   5.735  13.232 -0.2481 -0.1484 -0.0161
 8003W        W12203   4.500   3.727   9.381  0.0752  0.1079  0.1767
 8004W        W12204   8.759   6.118   2.043  0.1246  0.1126 -0.1193
 8005W        W12205   4.654   3.065   1.256 -0.3282 -0.2673 -0.5253
 8006W        W12206   0.317   4.553  11.704 -0.1947 -0.1150  0.0789
 8007W        W12207   7.490   2.210  12.389  0.0192 -0.1140 -0.1097
 8008W        W12208   7.455   3.816   9.667 -0.0356 -0.0240  0.3043
 8009W        W12209   9.213   9.471  11.739  0.0369 -0.2296 -0.2939
 8010W        W12210   1.073   9.043   2.471 -0.2448 -0.1823 -0.0682
 8011W        W12211  10.022   4.983   9.872 -0.2450  0.1407 -0.0271
 8012W        W12212   8.871   7.783   3.296  0.0175 -0.3479  0.2067
 8013W        W12213   2.110   5.844   2.500 -0.1187 -0.3529  0.1869
 8014W        W12214   6.128  10.167  12.574  0.0288 -0.0161  0.0945
 8015W        W12215   8.841   2.581  11.785 -0.0009 -0.0469  0.3339
 8016W        W12216   9.451   6.735  10.000  0.0708  0.2526 -0.6726
 8017W        W12217   3.256   5.558   9.092  0.0088 -0.0169  0.1533
 8018W        W12218   0.531   6.896   0.507 -0.0656  0.0825 -0.1894
 8019W        W12219   5.943   6.453   9.413 -0.0951 -0.0606  0.1472
 8020W        W12220   2.733   2.477  10.374  0.0651  0.2592 -0.0644
 8021W        W12221   9.430   4.725   8.604 -0.1997  0.0622  0.1339
 8022W        W12222   7.587   7.357   9.318  0.0651  0.1093 -0.0318
 8023W        W12223   3.795   8.498  13.375 -0.2895 -0.0199 -0.0572
 8024W        W12224   1.707   6.659   3.055 -0.2019  0.2437  0.0240
 8025W        W12225   8.851   8.298  10.362  0.1143 -0.1105  0.0615
 8026W        W12226   7.024   7.270   0.684 -0.2888  0.0781 -0.0041
 8027W        W12227   3.899   5.947   2.783 -0.1051 -0.4287 -0.0605
 8028W        W12228   4.161   1.834   3.427  0.3616  0.1036  0.0325
 8029W        W12229   4.213   1.321  11.004  0.1342  0.0255  0.1139
 8030W        W12230   8.396   2.041   3.192  0.3426  0.0243 -0.3709
 8031W        W12231   6.141   9.828   0.395  0.2141 -0.1076 -0.1395
 8032W        W12232   3.377  10.235  11.499  0.1439  0.3858 -0.1100
 8033W        W12233   3.462   2.074  12.310 -0.0983  0.3571  0.1973
 8034W        W12234   5.199   2.451  12.577  0.0895 -0.0534 -0.2482
 8035W        W12235   2.362   2.407   1.865  0.2912 -0.2526 -0.0564
 8036W        W12236   0.169   0.248   3.106 -0.2272 -0.0172  0.0567
 8037W        W12237   6.206   6.191   0.930 -0.2134  0.3280 -0.0536
 8038W        W12238   1.396   4.401  12.027 -0.1444 -0.3467  0.0677
 8039W        W12239  10.093   8.531  12.405 -0.2108 -0.2597  0.1083
 8040W        W12240   2.503   0.750   3.742 -0.1003  0.1222  0.1266
 8041W        W12241   8.447   7.912   4.557 -0.0243  0.0328  0.2322
 8042W        W12242   4.733   5.397   8.894 -0.0804 -0.0538  0.1044
 8043W        W12243   3.071   9.965  12.196  0.2408  0.1463  0.0683
 8044W        W12244  10.158   2.833  10.551 -0.3791 -0.3261 -0.1688
 8045W        W12245   6.876   4.341   1.168 -0.0684 -0.1934  0.0845
 8046W        W12246   5.210   1.194  13.227 -0.2455  0.0966  0.2391
 8047W        W12247  10.181   4.175   4.381 -0.0519 -0.0424  0.3223
 8048W        W12248   5.268   1.641   9.189  0.2891 -0.1390  0.2188
 8049W        W12249   3.960   2.539   9.719  0.0308  0.0898 -0.2750
 8050W        W12250   7.295   1.964   1.349  0.2701 -0.1032  0.5109
 8051W        W12251   7.792   2.572   4.045 -0.0048  0.0068 -0.0370
 8052W        W12252   9.336   2.559  12.129  0.0915 -0.1554 -0.1452
 8053W        W12253   5.904   4.152   1.182 -0.1422 -0.4044  0.0212
 8054W        W12254   0.577   9.048  11.524  0.2074 -0.3419  0.5182
 8055W        W12255   6.199   3.105   3.838 -0.0599 -0.3152 -0.2465
 8056W        W12256   2.784   9.165  12.716  0.0756  0.2891 -0.0025
 8057W        W12257   0.368   0.539   3.907 -0.1473 -0.3064 -0.0155
 8058W        W12258   1.261   1.822  12.509 -0.0010 -0.2805 -0.0221
 8059W        W12259   4.714   6.678   0.721 -0.0465 -0.0313 -0.0279
 8060W        W12260   5.340   8.744   0.787 -0.0531 -0.2042  0.0156
 8061W        W12261   2.627   7.123   3.665 -0.0220 -0.0805 -0.1867
 8062W        W12262   9.738   6.832   0.910  0.2048  0.1031 -0.0499
 8063W        W12263   1.739   0.417   4.191 -0.0045  0.0483  0.1809
 8064W        W12264   2.773   1.031  10.709  0.1625 -0.1912 -0.1278
 8065W        W12265   2.842   2.675  12.358 -0.1030 -0.1975  0.2189
 8066W        W12266   3.988   2.215  12.185 -0.0460 -0.1019 -0.2869
 8067W        W12267   2.167   1.840   2.132 -0.1242  0.1819 -0.0774
 8068W        W12268   4.630   9.978   3.988  0.1291  0.2674 -0.2222
 8069W        W12269   1.199   7.195   2.799  0.1157  0.0985  0.2379
 8070W        W12270   5.176   8.755   9.794 -0.1008 -0.2930  0.1817
 8071W        W12271   9.056   4.662   9.712  0.1083  0.0709 -0.0422
 8072W        W12272   2.259   1.853  12.085 -0.3268 -0.1387 -0.0118
 8073W        W12273   3.439   7.041  10.780  0.1954  0.2501  0.2118
 8074W        W12274   6.548   3.615   1.328  0.1125  0.0970 -0.0691
 8075W        W12275   3.905   2.727   1.592  0.0807  0.0045  0.1854
 8076W        W12276   0.451   4.419   2.845 -0.1899  0.3175 -0.0240
 8077W        W12277   6.844   6.605  13.206 -0.1310  0.2311  0.3173
 8078W        W12278   7.052   6.388   9.745 -0.3206  0.1773 -0.0695
 8079W        W12279   1.933   2.295  10.163  0.0178  0.1391  0.0910
 8080W        W12280   8.261   4.943  11.670  0.1208  0.1386  0.0195
 8081W        W12281   9.491   7.397  12.713  0.1507 -0.3009  0.0651
 8082W        W12282   2.076   3.754  12.235 -0.3022  0.3500  0.0506
 8083W        W12283   4.283   4.313   9.870 -0.0746 -0.0058 -0.1513
 8084W        W12284   7.824   2.330  13.071  0.2605  0.1580  0.0727
 8085W        W12285   9.792   8.615   9.309 -0.0086  0.1995 -0.4272
 8086W        W12286   8.391   5.470   4.450  0.0566 -0.1730  0.0213
 8087W        W12287   0.819   3.665  12.354  0.2030  0.2279 -0.0359
 8088W        W12288   4.138   3.629   1.352  0.0350 -0.1987 -0.2483
 8089W        W12289   9.564  10.224  13.414  0.0742  0.1124  0.2083
 8090W        W12290   8.530   1.507   3.198 -0.1720  0.0153 -0.2173
 8091W        W12291   5.444  10.115   1.569  0.0438 -0.0866 -0.0027
 8092W        W12292   2.568   5.709  11.431 -0.2435  0.3160  0.0492
 8093W        W12293   7.090  10.108   1.678 -0.1118  0.1857  0.1298
 8094W        W12294   6.500   4.159   0.264 -0.1207 -0.2901  0.2961
 8095W        W12295   3.556  10.332   0.000 -0.1021  0.3102 -0.0650
 8096W        W12296   0.390   6.991   2.480  0.1253  0.0428 -0.0619
 8097W        W12297   5.628   5.082   1.028  0.1651 -0.1063  0.3589
 8098W        W12298   6.968   6.039   9.283  0.1508 -0.2964  0.1862
 8099W        W12299   1.000   9.373  11.627  0.3232  0.1633 -0.1266
 8100W        W12300   2.087   4.794   2.551 -0.2163 -0.1289 -0.3163
 8101W        W12301   7.824   5.507   3.113  0.0618  0.0768 -0.3883
 8102W        W12302   0.980   9.083   1.119  0.1383 -0.2439 -0.0805
 8103W        W12303   1.578   4.512   0.859  0.0350 -0.0858  0.0663
 8104W        W12304   2.770   7.576   0.299 -0.0980 -0.0437 -0.2488
 8105W        W12305   2.289   4.873   9.192  0.0714  0.3420 -0.1987
 8106W        W12306   0.671   2.162  13.051 -0.1370  0.0417  0.2261
 8107W        W12307   3.317   0.325  12.275 -0.0838 -0.0716 -0.0026
 8108W        W12308   5.221   6.917   1.797  0.0504  0.2690 -0.1552
 8109W        W12309   4.606   4.979   3.442 -0.0133  0.4717 -0.1123
 8110W        W12310   0.800   4.726  11.393  0.0672 -0.1619 -0.1020
 8111W        W12311   0.876   1.108   0.530  0.4641 -0.1479  0.2531
 8112W        W12312   1.192  10.439  10.456 -0.2059  0.1633  0.1015
 8113W        W12313   3.196   0.669   9.307 -0.1574  0.4012  0.0475
 8114W        W12314   6.483   0.317   1.565  0.0617  0.2165  0.2829
 8115W        W12315   4.370   8.654   3.871  0.1330 -0.4566  0.4040
 8116W        W12316   4.621   3.324   4.409 -0.1703  0.2179  0.3931
 8117W        W12317   5.839   2.705   2.040 -0.0094  0.0998  0.1438
 8118W        W12318   3.831   3.998  11.516 -0.2999 -0.2971  0.1236
 8119W        W12319   5.930  10.043   1.263 -0.0607 -0.4294  0.0585
 8120W        W12320   4.347   1.522   0.772 -0.2813  0.0724  0.1617
 8121W        W12321   6.644   9.368   9.213 -0.1247 -0.1392 -0.1325
 8122W        W12322   6.921   3.843   1.110 -0.0060 -0.0992  0.1234
 8123W        W12323   9.073   6.319   2.366  0.0597  0.0548  0.0107
 8124W        W12324   9.613   8.408  12.363  0.0766 -0.1308  0.1152
 8125W        W12325   6.196   0.353   2.091  0.2093 -0.2030  0.1838
 8126W        W12326   3.255   3.678   4.403 -0.3224 -0.0711  0.0953
 8127W        W12327   4.626   2.509   9.329 -0.0855 -0.1336  0.1691
 8128W        W12328   8.972   8.461  12.292 -0.3459 -0.0714 -0.1007
 8129W        W12329   5.375   2.273   2.767  0.1637  0.0887  0.1055
 8130W        W12330   3.776   3.030   9.598 -0.0911  0.2617 -0.1186
 8131W        W12331   7.862   7.555  11.156 -0.2313 -0.0081 -0.0893
 8132W        W12332   1.926   9.652   1.833  0.0627  0.2022  0.0738
 8133W        W12333   1.899   6.310   2.575  0.1836  0.2508  0.5149
 8134W        W12334   4.492   9.113   1.038  0.0548 -0.0409  0.1378
 8135W        W12335   5.684   3.585   3.891  0.0462 -0.0116  0.2889
 8136W        W12336   5.130   4.522  11.383  0.1387 -0.1312  0.2806
 8137W        W12337   8.819   7.163   2.745 -0.1348  0.5073 -0.0703
 8138W        W12338   4.815   4.433  10.661 -0.4050 -0.2635  0.0614
 8139W        W12339   3.160   9.002   1.752 -0.0479  0.2106  0.2161
 8140W        W12340   6.761  10.079   2.064  0.0014  0.0079 -0.0298
 8141W        W12341   2.747   2.482   2.318 -0.1494 -0.1720 -0.0190
 8142W        W12342   1.162   4.594   2.876  0.1435 -0.0939  0.3333
 8143W        W12343   4.574   3.629   0.116  0.1204  0.1527  0.1202
 8144W        W12344   3.381   9.282   8.652  0.4402  0.1755 -0.2821
 8145W        W12345   8.437   4.865   1.771  0.0351 -0.0285  0.3643
 8146W        W12346   7.913   3.376   2.082  0.0351 -0.1956 -0.0034
 8147W        W12347   3.169   3.672   2.229  0.1245  0.1821 -0.1331
 8148W        W12348   4.602   1.623   1.633 -0.0834 -0.1446  0.0666
 8149W        W12349  10.449   7.976   9.050 -0.0174  0.0958  0.0560
 8150W        W12350   1.705   9.074   9.392 -0.2667  0.2140 -0.0662
 8151W        W12351   9.978   2.439   1.339 -0.0986  0.0648 -0.0014
 8152W        W12352   7.194   5.057   9.011  0.1977 -0.0516 -0.1149
 8153W        W12353   1.180   4.629  13.107 -0.2012 -0.2070 -0.1083
 8154W        W12354   6.867   1.740  10.719  0.4092 -0.0506  0.0379
 8155W        W12355  10.162   9.407   2.643 -0.0741  0.0788  0.0702
 8156W        W12356  10.408   0.391   0.407 -0.2083 -0.2571 -0.1163
 8157W        W12357   8.532   7.017   1.843  0.2128 -0.2325  0.1248
 8158W        W12358   5.189   9.536   1.066 -0.1749 -0.0874 -0.2589
 8159W        W12359   1.052   9.085   0.107  0.0669  0.0634 -0.0347
 8160W        W12360   7.320   1.047  10.319 -0.2728  0.3625  0.6105
 8161W        W12361   0.968   9.978   4.565  0.0746 -0.1501  0.1904
 8162W        W12362  10.196   1.780   0.791 -0.1066  0.0333  0.0133
 8163W        W12363   5.831   7.168  12.619  0.0315 -0.1178  0.0565
 8164W        W12364   6.644   2.699   1.778  0.2700 -0.0574 -0.2954
 8165W        W12365   1.056   5.991  10.278 -0.0162 -0.1520 -0.1492
 8166W        W12366   1.990   4.040   1.999  0.3671 -0.1079  0.1597
 8167W        W12367   8.457   2.216   3.678 -0.0220  0.1639  0.0644
 8168W        W12368   2.095  10.161  12.221  0.1476  0.1759  0.0544
 8169W        W12369   3.085   4.737  11.768 -0.0082  0.1581  0.1081
 8170W        W12370   5.092   9.750  10.276 -0.0784  0.2618  0.0274
 8171W        W12371   7.973   0.030  10.816  0.0645  0.3514 -0.1015
 8172W        W12372   6.208   7.413   3.218 -0.2469  0.0374 -0.2001
 8173W        W12373   8.723   4.167   3.399 -0.2812  0.0224  0.2122
 8174W        W12374   7.954   6.154   1.332  0.0232  0.3416 -0.0912
 8175W        W12375   4.851   5.606  13.278  0.0965 -0.1887 -0.2003
 8176W        W12376   4.017   5.368   0.096  0.1375  0.1121  0.1541
 8177W        W12377   7.695   9.278   3.246 -0.0861 -0.0506 -0.1648
 8178W        W12378   8.756   0.378   1.532  0.0976  0.2573  0.1692
 8179W        W12379   9.121   5.499  10.558  0.2677  0.0861 -0.3611
 8180W        W12380   9.421   7.637  10.270  0.1290  0.0831  0.0897
 8181W        W12381   3.779   7.353  10.649 -0.1302 -0.1570  0.0318
 8182W        W12382   6.186  10.456   2.538  0.0226  0.4153  0.0351
 8183W        W12383   4.986   8.358  11.598  0.0896  0.0213  0.0464
 8184W        W12384   5.477   0.197  13.096 -0.1978  0.0545 -0.1712
 8185W        W12385   5.637   8.035  10.077  0.1230  0.0699 -0.0883
 8186W        W12386   6.246  10.353   1.975  0.0229  0.5208  0.0316
 8187W        W12387   2.355   9.725  11.437  0.3717 -0.0349  0.0226
 8188W        W12388   7.454   0.866   0.436 -0.0259  0.0385  0.2822
 8189W        W12389   3.380   8.389   0.355 -0.0422 -0.4089  0.3436
 8190W        W12390   9.594   5.364   9.272 -0.0350 -0.1096 -0.0442
 8191W        W12391   4.405   3.175   3.532 -0.0352  0.0499 -0.0796
 8192W        W12392   0.132   3.033  13.059  0.0932  0.1019 -0.0816
 8193W        W12393   4.385   2.633   4.581  0.2418  0.3367 -0.2856
 8194W        W12394   3.101  10.120   1.554  0.1708 -0.2476  0.0591
 8195W        W12395   3.390   1.146   3.326 -0.0444 -0.0472  0.1259
 8196W        W12396   3.204   1.928   0.172  0.3106 -0.1063  0.0244
 8197W        W12397   9.326   8.165  11.510  0.0599  0.2271 -0.0357
 8198W        W12398   5.779   7.815  11.429 -0.0576  0.1624 -0.0558
 8199W        W12399   4.746   5.002   9.360 -0.1125 -0.0255 -0.0693
 8200W        W12400   9.340   2.392  13.379 -0.4051  0.1617 -0.6597
 8201W        W12401  10.159   9.073  11.521  0.2784  0.1338  0.1308
 8202W        W12402  10.467   2.131   3.876 -0.1768 -0.0986  0.0229
 8203W        W12403   0.561  10.070  12.619  0.1919 -0.0009 -0.0674
 8204W        W12404   5.778   2.966   9.220 -0.0967 -0.0062 -0.0948
 8205W        W12405   9.031   0.806   0.184  0.0493 -0.2045  0.1551
 8206W        W12406   8.900   8.001  11.316 -0.2527 -0.1997  0.1062
 8207W        W12407   9.015   1.573  10.569 -0.1960  0.1223  0.2899
 8208W        W12408   9.961   3.167   4.992 -0.0738 -0.1594 -0.2926
 8209W        W12409   7.315   2.465   3.770  0.0039  0.1305  0.1033
 8210W        W12410   4.544   3.071  12.823 -0.1575 -0.3072  0.1484
 8211W        W12411   1.149   3.209   1.156  0.0965 -0.0271  0.2065
 8212W        W12412   3.712   9.143  11.616  0.2499  0.2051 -0.0491
 8213W        W12413   7.881   8.640  12.792 -0.3068 -0.3205 -0.0457
 8214W        W12414   4.877   7.331  12.319  0.0012 -0.1053 -0.2189
 8215W        W12415   0.893   0.249   1.162 -0.1029 -0.1477  0.0657
 8216W        W12416   0.994   4.295   0.032 -0.1554 -0.0954  0.1682
 8217W        W12417   4.381   7.936   0.339  0.0798  0.0214  0.3067
 8218W        W12418   5.333   2.838   1.937  0.2379 -0.0734  0.0304
 8219W        W12419   6.394   0.493   3.386  0.0202  0.0841 -0.2349
 8220W        W12420   9.493   9.185  12.768 -0.0872  0.1011 -0.1183
 8221W        W12421   5.495   1.311  12.418 -0.0119 -0.2871 -0.1050
 8222W        W12422   1.629  10.289  13.461  0.1440 -0.1804 -0.1530
 8223W        W12423  10.126   7.499   0.565  0.1291 -0.2736  0.2254
 8224W        W12424   3.088   7.679   9.471 -0.0064  0.1020  0.1120
 8225W        W12425   6.806   8.742   2.966 -0.0877  0.1426 -0.0310
 8226W        W12426   6.376   6.028   0.449 -0.1158  0.1554  0.3544
 8227W        W12427   8.655   5.349  10.913 -0.1481  0.0486  0.0258
 8228W        W12428   9.178   9.368   2.214  0.2147 -0.0123  0.0164
 8229W        W12429   5.576   6.115   9.482 -0.2583  0.0209  0.0841
 8230W        W12430   8.022   3.233   9.417  0.0436  0.0570 -0.0322
 8231W        W12431   7.240   8.330  11.613  0.0641 -0.0833 -0.1449
 8232W        W12432   1.717   3.767   0.056 -0.3566 -0.0501  0.3912
 8233W        W12433   7.540   3.154   0.666 -0.1566 -0.1320  0.0529
 8234W        W12434  10.150   0.113   9.746  0.0310 -0.1389  0.2645
 8235W        W12435   2.556   0.066  12.279 -0.0243  0.1515 -0.1446
 8236W        W12436   8.801   2.103  10.383  0.4950 -0.0438 -0.0316
 8237W        W12437   6.159   5.005   1.286 -0.1092  0.0871  0.1877
 8238W        W12438   3.701   7.355  12.663 -0.1524  0.1530 -0.2842
 8239W        W12439   1.456   1.918   8.928 -0.0148  0.2434 -0.0117
 8240W        W12440   9.447   7.795   0.777  0.2440  0.1930  0.2021
 8241W        W12441   7.263   1.726   0.020  0.1120 -0.0800  0.3390
 8242W        W12442   4.560   6.190   9.201 -0.0863 -0.0689  0.0013
 8243W        W12443   5.282   8.661   2.422 -0.1260 -0.4323 -0.0870
 8244W        W12444   2.978   0.891   3.487  0.1963  0.0843  0.4281
 8245W        W12445   7.075   9.375   9.955 -0.1435  0.3380 -0.3149
 8246W        W12446   4.950   4.477  11.866  0.0348 -0.3241 -0.1128
 8247W        W12447   9.467   1.954   0.169  0.1379  0.0353 -0.1448
 8248W        W12448   5.670   7.099   1.956 -0.0321  0.0500  0.3884
 8249W        W12449   3.195   3.085  12.740 -0.2698  0.3139 -0.1519
 8250W        W12450   5.361   3.414   2.012  0.0839 -0.3045 -0.0772
 8251W        W12451   3.346   4.569   1.655  0.0322  0.1755  0.0392
 8252W        W12452   7.061   7.651  13.150 -0.0603 -0.1173  0.0991
 8253W        W12453   3.038   7.547   8.989  0.2932  0.0580  0.3155
 8254W        W12454   4.254  10.399  12.575 -0.0335 -0.0607 -0.4110
 8255W        W12455   5.133   1.071   2.611 -0.0150 -0.0758 -0.1317
 8256W        W12456   9.668   5.005  10.946  0.1493 -0.1246  0.0995
 8257W        W12457   1.130   0.498   2.127 -0.2929  0.1662 -0.3063
 8258W        W12458   7.779   8.334  11.630  0.1989 -0.2403  0.0774
 8259W        W12459   1.461   8.688   1.980  0.1455 -0.0435 -0.2905
 8260W        W12460   4.482   6.227  12.791  0.1534 -0.1775  0.1226
 8261W        W12461   5.933   9.433  12.004  0.1630  0.0788  0.0429
 8262W        W12462   6.265  10.347   0.532 -0.2567 -0.2437  0.1741
 8263W        W12463   8.270   5.596  11.148 -0.0260 -0.0543 -0.1124
 8264W        W12464   9.750   7.733  10.775 -0.2436  0.0459 -0.0797
 8265W        W12465   9.330   8.731   2.034 -0.0338  0.1692 -0.1166
 8266W        W12466   4.391   4.057  10.701 -0.1733 -0.0897  0.1387
 8267W        W12467   8.822   4.254   2.880 -0.0752 -0.2108 -0.0603
 8268W        W12468   4.449  10.090   3.090  0.0830 -0.1095  0.0776
 8269W        W12469   5.093   7.839   0.488  0.1941 -0.3004  0.2441
 8270W        W12470   1.857   8.950  11.537 -0.1805 -0.0128 -0.1270
 8271W        W12471   8.074   0.084   9.640 -0.4872 -0.0858  0.0205
 8272W        W12472   7.422  10.455   1.543 -0.3281 -0.0479  0.1186
 8273W        W12473   1.347   9.181  12.425  0.0236  0.0903 -0.0410
 8274W        W12474   3.152   9.454   0.832 -0.1941  0.0440 -0.0879
 8275W        W12475   1.573   6.545   4.190  0.2474  0.2654  0.0763
 8276W        W12476   1.144   6.508   2.991 -0.0447 -0.0211  0.1697
 8277W        W12477   3.054   2.432  10.767 -0.3112  0.2936 -0.1454
 8278W        W12478   7.724   3.459   3.957 -0.0413 -0.1640 -0.1934
 8279W        W12479   1.464   4.217   9.073 -0.1429  0.0564 -0.0795
 8280W        W12480   3.083   2.346   1.064 -0.1158  0.0419  0.0337
 8281W        W12481   4.708   9.108   4.410 -0.1672  0.1059 -0.0181
 8282W        W12482   3.862   0.784   4.068  0.3746  0.0545 -0.0905
 8283W        W12483   0.519   9.200   2.112 -0.1931 -0.2362  0.2971
 8284W        W12484   4.436   0.881   5.284  0.0489  0.1889  0.4531
 8285W        W12485   6.098   8.150   9.237  0.4700 -0.1416 -0.0288
 8286W        W12486   3.506   4.820   8.977 -0.1229 -0.2787 -0.0758
 8287W        W12487   9.406   1.336  12.613 -0.0530  0.1303  0.0412
 8288W        W12488   1.673   8.088   0.831  0.2081  0.1264  0.3756
 8289W        W12489   6.702   1.368   4.308 -0.0455 -0.1525 -0.2067
 8290W        W12490   3.963   7.368  11.892  0.0194 -0.4601 -0.2478
 8291W        W12491   2.616  10.304   0.082 -0.0734  0.0816  0.0361
 8292W        W12492   8.328   9.342   1.121 -0.1393 -0.1242 -0.0704
 8293W        W12493  10.177   4.703  13.204  0.0649  0.5164 -0.1084
 8294W        W12494   3.926   8.090   2.417 -0.2524  0.0795  0.1800
 8295W        W12495   2.112   8.289   9.642 -0.1571  0.0061 -0.0958
 8296W        W12496   1.920   0.603  11.873  0.0205 -0.1377 -0.2942
 8297W        W12497   0.851   4.132   0.491 -0.1676  0.1040 -0.0988
 8298W        W12498   7.713   8.279   9.689 -0.1698  0.2705  0.4535
 8299W        W12499   6.652   6.153   9.954  0.1479  0.1042 -0.0447
 8300W        W12500   6.061   4.633  13.136 -0.2254  0.1115  0.0270
 8301W        W12501   3.960   7.849   4.718  0.0734 -0.2097 -0.2834
 8302W        W12502   0.049   5.322   3.510 -0.2103 -0.1046 -0.0693
 8303W        W12503   3.976   5.514  12.963  0.1316  0.1653 -0.2824
 8304W        W12504   2.780   8.545   0.482  0.1195  0.2129 -0.3499
 8305W        W12505   0.038   4.903  11.413 -0.2747 -0.2220 -0.1216
 8306W        W12506   0.280   0.318   4.361 -0.2540 -0.2148  0.3296
 8307W        W12507   2.882   4.632   0.256 -0.0115 -0.0301 -0.1245
 8308W        W12508   1.348   4.060  12.799 -0.1040  0.2113 -0.1303
 8309W        W12509   4.966   6.364  10.580 -0.2956  0.1297 -0.3172
 8310W        W12510   2.357   7.466   4.534  0.1008 -0.4129 -0.3701
 8311W        W12511   7.013   5.406   9.978 -0.0835  0.3033 -0.1892
 8312W        W12512   4.367   2.221  11.195  0.1314  0.1331 -0.2157
 8313W        W12513  10.375   8.587  11.945  0.1677  0.2098  0.1451
 8314W        W12514   8.761   5.239   1.268  0.1181  0.2273 -0.0493
 8315W        W12515   4.568   9.398  12.343  0.1603 -0.3684  0.2350
 8316W        W12516   4.038   8.768   1.210  0.0229 -0.2428 -0.2302
 8317W        W12517   3.255   1.770  13.189 -0.1004  0.0867  0.2238
 8318W        W12518   1.540   0.604  10.209 -0.0957  0.1637  0.0261
 8319W        W12519   0.147   0.363   1.735 -0.0491 -0.0919  0.0165
 8320W        W12520   6.974  10.381   3.332  0.3249 -0.0300 -0.0139
 8321W        W12521   9.554   7.479   9.463  0.1584  0.0767  0.0718
 8322W        W12522   9.253   7.281  11.697  0.0716  0.1691 -0.2529
 8323W        W12523  10.055   1.115   9.878  0.0524 -0.0175  0.0401
 8324W        W12524   3.325   4.607  12.363 -0.0199  0.2600 -0.1202
 8325W        W12525   1.566  10.023   4.805 -0.0624  0.2634 -0.0389
 8326W        W12526   7.979   7.371  13.171  0.3765 -0.0046 -0.1710
 8327W        W12527   4.143   8.856  11.688  0.0883 -0.0414  0.1309
 8328W        W12528  10.444   1.310   1.799 -0.1091 -0.1912 -0.2243
 8329W        W12529   0.873   5.167   9.131  0.3125 -0.0724 -0.0714
 8330W        W12530   0.867   0.322   2.520 -0.0780 -0.0039  0.0394
 8331W        W12531   0.491   0.093  12.871 -0.2658 -0.1288 -0.0254
 8332W        W12532   1.674   1.923   1.463 -0.0103  0.2114  0.2313
 8333W        W12533   0.070   2.905   0.703  0.0531  0.2141 -0.0398
 8334W        W12534   0.536   9.110   0.336  0.0154 -0.1886  0.2082
 8335W        W12535   4.240   4.754  11.141  0.1305 -0.1415 -0.2683
 8336W        W12536   3.690   8.806  12.926  0.1994 -0.3150 -0.3912
 8337W        W12537   1.433   0.191   9.331  0.5497  0.0558  0.2035
 8338W        W12538   5.246   0.702   3.474  0.1450  0.1121  0.1261
 8339W        W12539   7.095   8.511   3.292  0.0284 -0.0238  0.0991
 8340W        W12540   3.300   3.268  10.563 -0.0803  0.3065 -0.0750
 8341W        W12541   8.049   4.332   1.951 -0.2175  0.0517  0.1318
 8342W        W12542   9.267   3.913   2.776  0.0348  0.1896 -0.0129
 8343W        W12543   2.191   9.543  10.850 -0.0125 -0.0491  0.0351
 8344W        W12544  10.104   7.447   3.901 -0.0608  0.1114 -0.0420
 8345W        W12545   2.758   5.776   1.669  0.3757  0.1250 -0.0984
 8346W        W12546  10.475   1.947   9.734  0.1210 -0.0533 -0.0956
 8347W        W12547   3.577   9.399   3.561  0.1857  0.3303 -0.3232
 8348W        W12548   6.674   6.951   1.693  0.2292 -0.0163  0.1226
 8349W        W12549   5.732   8.632   4.162  0.0845  0.0477  0.4035
 8350W        W12550   1.597   7.552   2.938 -0.1549  0.2606  0.3057
 8351W        W12551   4.276   8.133  10.914 -0.1045 -0.0766 -0.0865
 8352W        W12552   9.958  10.362  10.952 -0.0096  0.0865  0.1289
 8353W        W12553   9.027   7.628   1.586  0.1792  0.0278  0.1084
 8354W        W12554   1.464   4.112  11.133  0.2409 -0.2723  0.1603
 8355W        W12555   4.820   0.588  12.145 -0.1141  0.0759  0.0119
 8356W        W12556   4.381   6.128   4.641  0.1058  0.0598 -0.0707
 8357W        W12557   7.897   6.678  10.128  0.2311  0.1863  0.0555
 8358W        W12558   5.427   8.147   1.214  0.0619 -0.0992  0.0722
 8359W        W12559   5.883   5.154   2.404 -0.2995  0.1431 -0.0943
 8360W        W12560   7.597   0.574   9.701 -0.1713 -0.2910  0.0739
 8361W        W12561   6.494   6.029  10.507 -0.0587 -0.2481 -0.1897
 8362W        W12562   9.147   3.650   0.585  0.2745  0.3128  0.1305
 8363W        W12563   4.419   0.299  12.851  0.2563  0.1787 -0.0751
 8364W        W12564   3.377   9.797   9.788 -0.0022  0.2024 -0.0467
 8365W        W12565   4.360   4.364   4.345 -0.0395  0.3376  0.1279
 8366W        W12566   4.502   3.489  12.467  0.0742  0.1809  0.0625
 8367W        W12567   4.516   0.022   0.647 -0.2277 -0.0660 -0.1690
 8368W        W12568   7.736   9.927   2.467 -0.3008  0.5180 -0.0216
 8369W        W12569   7.015   4.653   4.284  0.1633 -0.1163  0.0066
 8370W        W12570   7.028  10.246   0.291 -0.1306 -0.2576  0.0344
 8371W        W12571  10.101   3.870  13.384 -0.0607 -0.0659  0.2532
 8372W        W12572   3.621   2.911   1.988  0.0444  0.2358 -0.0145
 8373W        W12573   3.476   4.152   1.898  0.1704  0.1604 -0.0558
 8374W        W12574   1.889   8.998  12.070 -0.2570  0.1245  0.3474
 8375W        W12575   1.717   5.815  11.289 -0.1283  0.1519  0.1531
 8376W        W12576   0.403   0.204   2.625 -0.1200 -0.0162  0.1090
 8377W        W12577  10.177   3.664  10.419 -0.0979  0.0201 -0.2920
 8378W        W12578   5.610   5.575   9.245 -0.1323  0.1177 -0.1109
 8379W        W12579   7.457   3.104  12.019  0.0409  0.2174  0.2518
 8380W        W12580   6.529   1.660   1.397 -0.0169  0.1327  0.2487
 8381W        W12581   1.177   6.436   3.930  0.0058  0.1421 -0.3334
 8382W        W12582   7.702   2.211  11.155  0.4695 -0.0849  0.2272
 8383W        W12583   3.822   4.794   4.888 -0.1248  0.1145 -0.1790
 8384W        W12584   0.136   4.212  12.413  0.2029 -0.0864 -0.1263
 8385W        W12585   3.308   3.859   2.874 -0.1262 -0.3459 -0.0035
 8386W        W12586   4.618   6.632  13.278 -0.0491  0.1851  0.0083
 8387W        W12587   7.818   7.389  11.889  0.0304 -0.1907 -0.2199
 8388W        W12588   8.342   0.127  10.523 -0.1733 -0.0927  0.1487
 8389W        W12589   6.105   4.935   4.286 -0.2456 -0.0604 -0.0926
 8390W        W12590   9.556   9.272   9.840 -0.0925 -0.1843  0.0800
 8391W        W12591   2.145   8.279  12.316  0.0773  0.1627  0.0576
 8392W        W12592   3.829   7.989  13.329 -0.1470 -0.0919 -0.0536
 8393W        W12593   6.095   5.265   3.791  0.2693 -0.1255 -0.1148
 8394W        W12594   0.664   3.904   8.650 -0.0845 -0.0372  0.0275
 8395W        W12595   6.640   2.180  11.354  0.0919  0.1658 -0.3513
 8396W        W12596   7.430   6.721  11.394  0.1582 -0.1346 -0.0890
 8397W        W12597   6.800   3.298   9.746 -0.0889  0.0543  0.0601
 8398W        W12598   1.278   7.668  10.094 -0.0311 -0.0263 -0.0289
 8399W        W12599   5.181   5.083   3.606  0.0791  0.2450  0.3492
 8400W        W12600   3.930   7.500   9.605  0.1649  0.0755  0.0839
 8401W        W12601   8.084   7.275   8.782  0.2739 -0.1167  0.1373
 8402W        W12602   0.853   5.205  11.555  0.1262 -0.0031 -0.0415
 8403W        W12603   2.267   9.309  11.735 -0.1829 -0.2051 -0.4123
 8404W        W12604   4.443   3.931   4.125  0.1878  0.3099 -0.0618
 8405W        W12605   6.341   6.186   2.208  0.1160  0.1029  0.0760
 8406W        W12606   4.511   2.174   0.966 -0.0968 -0.4024  0.0740
 8407W        W12607   2.183   5.390   3.420  0.1056  0.1753  0.1850
 8408W        W12608   0.380   7.609  11.090  0.0279 -0.1269 -0.1165
 8409W        W12609   3.493   8.767   2.996 -0.1560  0.0947 -0.0169
 8410W        W12610   6.693   3.924   4.867  0.0726  0.0020 -0.2446
 8411W        W12611   6.851   6.904   2.141 -0.1819 -0.2626 -0.2212
 8412W        W12612   2.689   1.618   3.931  0.1405 -0.2968 -0.1652
 8413W        W12613   3.138   5.858   4.884  0.1488 -0.0101  0.0245
 8414W        W12614   4.453   9.604  11.846  0.0244 -0.1831 -0.1330
 8415W        W12615   6.053   0.261   2.935  0.0835 -0.0334  0.2974
 8416W        W12616   7.768   5.352   0.579 -0.2547 -0.2209 -0.1440
 8417W        W12617   3.271   1.590   9.463 -0.1572  0.2567  0.0364
 8418W        W12618   5.348   8.700  11.199  0.0462 -0.2615 -0.0277
 8419W        W12619   0.116   5.642  11.143  0.3480  0.1434  0.2138
 8420W        W12620   9.451   3.145  10.668 -0.2002  0.1918  0.1287
 8421W        W12621   4.584   7.254  11.920 -0.2260  0.1137  0.2437
 8422W        W12622   8.625   4.909   2.566  0.5760  0.1224  0.1501
 8423W        W12623   0.402   6.498   4.480  0.1293  0.2108 -0.3932
 8424W        W12624   6.745   9.777  10.762  0.2494 -0.3980  0.3803
 8425W        W12625   9.205   7.332   0.835  0.1403  0.0947  0.1599
 8426W        W12626   6.579   1.991   9.722 -0.1725  0.3496 -0.0745
 8427W        W12627   4.138   2.368  13.105  0.3055 -0.2136 -0.0528
 8428W        W12628  10.231   6.356  11.635 -0.1177  0.0726 -0.0138
 8429W        W12629   1.914   6.485   0.210 -0.2700  0.0660 -0.4300
 8430W        W12630  10.077   2.794   3.256 -0.0807  0.1964  0.2051
 8431W        W12631   7.843   2.559   2.000  0.1345  0.2800 -0.0960
 8432W        W12632   9.554   3.544  10.898 -0.2847  0.2406 -0.1834
 8433W        W12633   6.155   2.456  10.517 -0.4019  0.4551 -0.0523
 8434W        W12634   5.665   8.128   4.011 -0.0590 -0.4004 -0.0165
 8435W        W12635   6.904   8.435   9.003 -0.2303 -0.1372 -0.2017
 8436W        W12636   6.726   7.064   9.053  0.1234 -0.1818 -0.2288
 8437W        W12637   9.296   6.279   9.937 -0.0247  0.2079 -0.0352
 8438W        W12638   2.702   0.487  12.516 -0.1445  0.1430 -0.0382
 8439W        W12639   3.394   0.419   1.208  0.1510 -0.2587  0.1360
 8440W        W12640   2.858   0.666   1.038 -0.0428 -0.0632  0.0960
 8441W        W12641   8.797   9.572   1.956 -0.3234 -0.1093 -0.1333
 8442W        W12642   3.364  10.291  12.814  0.1438 -0.3662 -0.0958
 8443W        W12643   7.801   8.786   1.578 -0.1895  0.3532  0.2922
 8444W        W12644   6.079   5.939   9.563 -0.2459 -0.1021  0.1622
 8445W        W12645   3.426   1.979   1.244  0.2685  0.1088  0.0382
 8446W        W12646   9.819   7.210   0.133  0.3749 -0.1383 -0.1641
 8447W        W12647   2.178   2.762  10.295 -0.2633 -0.0738 -0.0449
 8448W        W12648   7.052   0.534  11.121  0.0295  0.0810 -0.0448
 8449W        W12649   0.591   6.270   1.390 -0.0938 -0.2071 -0.4304
 8450W        W12650   8.714   1.894  10.836  0.0289 -0.0699 -0.0763
 8451W        W12651   4.696   9.481  11.360  0.0332 -0.2080  0.0798
 8452W        W12652  10.411   6.567   8.619  0.1391 -0.2329 -0.1995
 8453W        W12653   9.764   4.614   3.841 -0.0295 -0.1823 -0.0140
 8454W        W12654   6.320   8.478   2.125 -0.1228 -0.0985  0.0043
 8455W        W12655   1.838   7.662   3.423  0.1295  0.1257  0.1536
 8456W        W12656   4.328  10.126   3.615 -0.1423  0.4856 -0.0127
 8457W        W12657   1.881   7.827   2.058 -0.0781 -0.0010 -0.3775
 8458W        W12658   8.918   5.342   2.618 -0.1400 -0.1376  0.0159
 8459W        W12659   4.868   3.522   2.120 -0.0846  0.3199 -0.2365
 8460W        W12660   8.686   8.624  12.964 -0.0292  0.0380  0.2512
 8461W        W12661   1.695   3.088   3.368  0.0393 -0.0367  0.1159
 8462W        W12662   3.615   0.892  10.685  0.2350  0.0757 -0.1175
 8463W        W12663   0.961  10.186   3.262 -0.1399  0.0662 -0.0647
 8464W        W12664   4.367   5.792   3.020  0.3079  0.2973 -0.2707
 8465W        W12665   8.779   6.059  12.743  0.1937  0.2424 -0.0285
 8466W        W12666   1.526   0.133   1.963 -0.2064 -0.0243 -0.2748
 8467W        W12667   6.839   6.627   2.963  0.2266  0.1592  0.1701
 8468W        W12668   0.514   3.553   4.541  0.1235 -0.1642  0.1909
 8469W        W12669   0.855   3.369  10.638 -0.2026 -0.1580  0.5442
 8470W        W12670   5.938   5.845  12.040  0.0062 -0.1560 -0.0602
 8471W        W12671   4.975   4.285   2.094  0.1914  0.0623  0.1136
 8472W        W12672   5.446   0.854  12.186 -0.0410 -0.0228 -0.3948
 8473W        W12673   0.242   8.394   0.805 -0.1176  0.2814  0.1515
 8474W        W12674   3.681   2.930   3.129 -0.3067 -0.1885 -0.1606
 8475W        W12675   9.667   7.391   3.270  0.2692 -0.0878 -0.0089
 8476W        W12676   0.323   0.151  11.946 -0.1584  0.2171  0.1284
 8477W        W12677   6.887   8.915  10.099  0.0358  0.1837 -0.2155
 8478W        W12678   6.324   8.059   1.285 -0.0563 -0.1518 -0.0089
 8479W        W12679   7.043   4.614   1.587  0.0503 -0.1415  0.2116
 8480W        W12680   2.370   1.885  10.346 -0.0836  0.0689  0.2099
 8481W        W12681   0.053   5.166  10.973  0.0802  0.0434 -0.1267
 8482W        W12682   7.847   3.903   2.218 -0.2765 -0.1690 -0.3597
 8483W        W12683   9.451   5.331   4.354 -0.2176  0.6044 -0.0700
 8484W        W12684   3.440   9.242   4.861  0.1310  0.1689  0.0830
 8485W        W12685   4.987   3.591   9.519  0.1624 -0.0269  0.0533
 8486W        W12686  10.461   1.899  10.386 -0.3905  0.1072  0.0176
 8487W        W12687   3.705  10.005   2.348  0.0765 -0.0594  0.1321
 8488W        W12688   3.504   2.416   0.756 -0.0087 -0.0083  0.3029
 8489W        W12689   1.814   8.641  12.504 -0.1947  0.4060  0.1485
 8490W        W12690   2.172   5.805   9.467  0.0388 -0.0393  0.0199
 8491W        W12691   2.332   4.905   1.525 -0.3563  0.1037  0.1108
 8492W        W12692   5.485   8.234   4.932 -0.1859 -0.3697 -0.1568
 8493W        W12693   0.064   9.889  11.793  0.0881 -0.0276 -0.3652
 8494W        W12694   7.448   4.995   3.702  0.1091  0.0957 -0.2013
 8495W        W12695   5.047   4.137  12.827 -0.0158 -0.0933  0.0780
 8496W        W12696   6.475   9.649   0.065  0.2460  0.0696  0.2525
 8497W        W12697   0.203   7.837   3.649  0.0445 -0.2477 -0.0494
 8498W        W12698   0.117   5.008   5.071  0.1229 -0.0898  0.1453
 8499W        W12699   6.394   1.798  11.009  0.0942  0.1095  0.2267
 8500W        W12700   9.771   4.742  12.214  0.3034 -0.0593  0.2725
 8501W        W12701   0.901   0.532  10.806  0.0011  0.1473  0.2103
 8502W        W12702   0.566   4.382   3.967 -0.0741 -0.0511 -0.0393
 8503W        W12703   5.905  10.261  11.820  0.2023 -0.1755  0.2047
 8504W        W12704   4.103   6.446   4.304 -0.0488  0.0138 -0.0015
 8505W        W12705  10.218   6.257   1.272  0.0163  0.0079  0.0560
 8506W        W12706   0.515   8.917   1.415 -0.0932 -0.0382  0.1229
 8507W        W12707   2.504   5.049   2.708 -0.1452  0.0295  0.1100
 8508W        W12708   4.891   4.505   9.235  0.1725  0.1458  0.1656
 8509W        W12709   4.914   3.612  11.595 -0.0768 -0.0224 -0.1868
 8510W        W12710  10.337   5.595   1.358 -0.2816  0.0121  0.4648
 8511W        W12711   2.303   8.665   2.485 -0.0766  0.1387  0.2548
 8512W        W12712   4.464   4.189   9.407 -0.0856 -0.0541  0.1148
 8513W        W12713   7.926   4.853   9.850 -0.4499  0.1240 -0.1999
 8514W        W12714   6.738   0.823  10.804  0.0010  0.0277  0.0640
 8515W        W12715   1.553   7.020   9.415 -0.1840 -0.1312 -0.4576
 8516W        W12716   6.924   0.310   2.464  0.0654  0.1274 -0.0366
 8517W        W12717   4.716   4.777   4.367 -0.1448  0.2133  0.0609
 8518W        W12718   6.729   7.976   0.064 -0.1125 -0.1929  0.0413
 8519W        W12719   7.484   6.009   9.634  0.0276  0.0081  0.0223
 8520W        W12720   8.295   4.578   3.558  0.0765  0.0136  0.0674
 8521W        W12721   5.251   7.371   4.462  0.0018 -0.3342 -0.0037
 8522W        W12722   9.172   6.082   1.696 -0.0612 -0.0907 -0.0888
 8523W        W12723   9.473   7.998   2.453 -0.4228 -0.0203 -0.1192
 8524W        W12724   5.756   1.935  13.043 -0.0633  0.0304  0.0300
 8525W        W12725   8.889   3.048  11.597 -0.0488  0.1868  0.2797
 8526W        W12726   4.838  10.419  13.276 -0.1458  0.0207  0.1623
 8527W        W12727   4.653   8.447  13.140  0.0916 -0.0524  0.1252
 8528W        W12728   7.911   7.867  13.212 -0.0647 -0.0299  0.3724
 8529W        W12729   6.351   7.520   2.325 -0.0815  0.0296 -0.2786
 8530W        W12730   0.493   4.353   1.682 -0.0229  0.0972 -0.1698
 8531W        W12731   8.866   8.336  11.769  0.0956 -0.0835  0.0875
 8532W        W12732   1.557   8.559  11.568 -0.0267  0.1493  0.1119
 8533W        W12733   4.714   8.196   4.358 -0.2040 -0.0608  0.0019
 8534W        W12734   0.408   9.574   2.921 -0.0729  0.3232  0.1380
 8535ION    NA+12735   3.840   1.137   3.054  0.1182 -0.1342 -0.2635
 8536ION    NA+12736   7.507   7.254   5.043  0.3028 -0.0345 -0.1407
 8537ION    NA+12737   5.333   0.649  13.010  0.1023 -0.1083  0.0361
 8538ION    NA+12738   4.872   7.996  11.979  0.1161  0.0760  0.0990
 8539ION    NA+12739   9.146   8.904  12.387  0.0517 -0.1710  0.2255
 8540ION    NA+12740   2.000   3.251   1.480 -0.1760  0.0533  0.0451
 8541ION    NA+12741   6.769   5.863   0.997  0.0746  0.1485 -0.2381
 8542ION    NA+12742   8.494   7.352   5.258 -0.1599 -0.4622 -0.2041
 8543ION    NA+12743   6.188   9.819   0.885  0.2053  0.0523  0.1965
 8544ION    NA+12744   5.085   8.759  13.244 -0.1400  0.2087 -0.2540
 8545ION    NA+12745   3.186   2.812  10.310 -0.2071  0.0140  0.6275
 8546ION    NA+12746   6.308   6.019   3.250  0.1099  0.1912 -0.1061
 8547ION    NA+12747   5.264   0.473   0.425  0.1511 -0.1706  0.4723
 8548ION    NA+12748   9.730   0.727   3.460 -0.1077 -0.2246 -0.1955
 8549ION    NA+12749   3.875   2.821   8.671 -0.2136  0.2469  0.1400
 8550ION    NA+12750   3.686   8.511   2.146 -0.0451  0.0320 -0.0037
 8551ION    NA+12751   5.793   7.865   1.378 -0.1808 -0.3037 -0.2053
 8552ION    NA+12752   8.614   1.115   2.390 -0.2637  0.0914 -0.2253
 8553ION    NA+12753   4.013   0.763   0.483  0.0746  0.1321 -0.0415
 8554ION    NA+12754   7.653   0.955   3.406 -0.1859  0.2232  0.2014
 8555ION    NA+12755   4.102   2.895  10.029  0.2085  0.1765 -0.0067
 8556ION    NA+12756   1.682   1.998  11.637  0.2228 -0.0057 -0.0521
 8557ION    NA+12757   0.695   7.299   8.601 -0.0834 -0.3430 -0.2612
 8558ION    NA+12758  10.361   3.246  10.249  0.0651  0.0900 -0.1727
 8559ION    NA+12759   4.072   4.467   8.402 -0.1375 -0.1011 -0.0318
 8560ION    NA+12760  10.348   7.459   0.042 -0.0345 -0.2042 -0.0357
 8561ION    NA+12761   5.140   9.697   0.516 -0.0826  0.1346  0.0014
 8562ION    NA+12762   5.985   3.664   0.939 -0.1255  0.0200  0.0368
 8563ION    NA+12763   2.250  10.478   2.794 -0.2314  0.1549  0.4070
 8564ION    NA+12764   7.202   9.476   2.464  0.3393  0.2231 -0.1576
 8565ION    NA+12765  10.337   4.065  11.252  0.5479 -0.2624  0.1722
 8566ION    NA+12766   6.256   4.638   0.454 -0.1533  0.0324  0.4454
 8567ION    NA+12767   5.412   4.236   5.135 -0.3028  0.1061 -0.1837
 8568ION    NA+12768   4.980   8.398   4.782  0.1309  0.0780 -0.0927
 8569ION    NA+12769   3.588   9.816   8.714  0.1232  0.0951 -0.2110
 8570ION    NA+12770   8.030   3.092  10.641 -0.1104 -0.0547  0.0799
 8571ION    NA+12771   3.977   7.161   8.470  0.0511  0.2859  0.0094
 8572ION    NA+12772   5.067   0.265   2.010  0.0345  0.0677 -0.0790
 8573ION    NA+12773   5.411   0.970  10.967  0.2917  0.2760 -0.0562
 8574ION    NA+12774   9.759   4.887   4.862  0.0437  0.0160  0.1655
 8575ION    NA+12775   1.612   9.397   9.028  0.2265 -0.1021 -0.1470
 8576ION    NA+12776   7.312   4.601  12.133  0.0358 -0.1954  0.0043
 8577ION    NA+12777   1.858   2.624   8.561 -0.0125  0.2601  0.0042
 8578ION    NA+12778  10.295   1.411  11.765 -0.1454 -0.0930 -0.0260
 8579ION    NA+12779   9.932   7.447   8.645 -0.0360  0.1494  0.2744
 8580ION    NA+12780   6.967   1.604   0.448 -0.2004 -0.2049  0.2378
 8581ION    NA+12781  10.188   6.965   8.863 -0.3484  0.0542 -0.0133
 8582ION    NA+12782   9.354   8.256   4.280 -0.0880  0.0427 -0.1331
 8583ION    NA+12783   2.891   6.709  10.883 -0.3478  0.0702  0.2256
 8584ION    NA+12784   7.407   4.521  13.134 -0.2024 -0.2824 -0.3264
 8585ION    NA+12785  10.198   7.437  10.532 -0.1450 -0.0827  0.1332
 8586ION    NA+12786   1.795   9.878   3.549  0.0518 -0.0157 -0.1786
 8587ION    NA+12787   9.482   3.260   8.961  0.4972  0.0435 -0.0035
 8588ION    NA+12788   2.866   8.725   2.036 -0.0750 -0.0359 -0.2841
 8589ION    NA+12789   1.920   1.603   2.839 -0.2274 -0.0850  0.2127
 8590ION    NA+12790   6.447   9.603   2.969 -0.1746  0.2936  0.1920
 8591ION    NA+12791   6.358   2.767   8.691 -0.4008 -0.0573 -0.0021
 8592ION    NA+12792   2.073   6.523  10.657  0.0101  0.3065 -0.2289
 8593ION    NA+12793   2.977   3.398  12.014  0.1242  0.3566 -0.0345
 8594ION    NA+12794   4.564   1.723  11.015 -0.0916 -0.1318 -0.1488
 8595ION    NA+12795   1.108   4.738  12.239 -0.0841  0.0474 -0.4834
 8596ION    NA+12796   1.739   8.775   5.078 -0.0455  0.1184  0.3163
 8597ION    NA+12797   8.859   8.701   4.036 -0.1103 -0.4098 -0.1633
 8598ION    NA+12798   9.006   7.723   1.046  0.0293 -0.0763 -0.1728
 8599ION    NA+12799   1.103   2.393  12.901  0.1323  0.0036 -0.1085
 8600ION    NA+12800   3.650   0.150   3.212 -0.1598  0.0398 -0.0808
 8601ION    NA+12801   3.066   7.951   5.117 -0.1275  0.4253  0.2602
 8602ION    NA+12802   2.349   0.600   9.139  0.0501 -0.2705 -0.1367
 8603ION    NA+12803   0.151   4.752  10.649 -0.3023  0.2347 -0.0033
 8604ION    NA+12804   5.284   5.752  10.920 -0.1783 -0.2256 -0.2319
 8605ION    NA+12805   3.502   4.529   0.210 -0.0482 -0.3669  0.1756
 8606ION    NA+12806   7.508   4.238   2.135 -0.0845 -0.1760  0.0572
 8607ION    NA+12807   2.145   0.770   2.328 -0.3235 -0.4892 -0.0897
 8608ION    NA+12808   6.157   2.134   4.397 -0.1841  0.3855  0.0192
 8609ION    NA+12809   1.548   3.928   3.026  0.1886 -0.1485  0.0389
 8610ION    NA+12810   1.152   4.959   0.609 -0.1667  0.1433 -0.0304
 8611ION    NA+12811   0.987   5.737  13.375 -0.4592 -0.0404 -0.0135
 8612ION    NA+12812   5.323   1.483  10.172 -0.2805  0.1271 -0.0778
 8613ION    NA+12813   0.146   7.344  11.473  0.0370 -0.1135 -0.2035
 8614ION    NA+12814   4.588   8.254   0.658  0.1217 -0.0506  0.1928
 8615ION    NA+12815   2.788   9.477   3.708  0.2145  0.1809 -0.0557
 8616ION    NA+12816   4.522   5.500   1.405 -0.0792 -0.0294 -0.1852
 8617ION    NA+12817   6.912   3.852   0.472  0.2614 -0.0091 -0.1375
 8618ION    NA+12818   4.711   4.101   3.684  0.1713  0.0344 -0.2204
 8619ION    NA+12819  10.478   3.364   8.775  0.0292  0.3745  0.1300
 8620ION    NA+12820   4.008  10.404   2.336  0.0579  0.1518  0.1877
 8621ION    NA+12821   1.435   2.938  10.008 -0.2102  0.1141  0.0053
 8622ION    NA+12822  10.252   5.867   2.668  0.2048  0.1956 -0.0263
 8623ION    NA+12823   8.930   9.069  11.339  0.1968  0.0814  0.0341
 8624ION    NA+12824   8.466   9.923  10.225  0.0695 -0.1422  0.0137
 8625ION    CL-12825   7.403   4.405  12.676 -0.1455 -0.1291 -0.0101
 8626ION    CL-12826   2.135   0.276   2.419  0.1984 -0.0303  0.2250
 8627ION    CL-12827   4.306   0.905   0.129  0.1551 -0.0556  0.3001
 8628ION    CL-12828   0.680   0.501  11.297  0.0323  0.0415  0.2577
 8629ION    CL-12829   4.780   4.082   3.164  0.0375 -0.2998 -0.2515
 8630ION    CL-12830  10.129   9.319   1.318  0.2127  0.2515 -0.1005
 8631ION    CL-12831   3.496   0.722   3.223  0.1289  0.1799  0.0916
 8632ION    CL-12832   5.562   3.326   4.353  0.0727  0.0876  0.1595
 8633ION    CL-12833   1.008   5.288   0.242 -0.0596  0.0964  0.0289
 8634ION    CL-12834   5.402   0.041   0.187 -0.3428  0.3051  0.0438
 8635ION    CL-12835   2.515   3.325   1.374 -0.0568 -0.3389  0.2705
 8636ION    CL-12836   5.621   0.933  13.282 -0.1457  0.3533 -0.1716
 8637ION    CL-12837   4.155   8.870   0.113 -0.0878 -0.1946 -0.0159
 8638ION    CL-12838   3.165   6.559  10.380  0.1463 -0.0059 -0.1154
 8639ION    CL-12839   1.474   2.765  12.390  0.2057  0.0280 -0.1067
 8640ION    CL-12840   6.257   1.339   3.388 -0.1422 -0.0857 -0.0131
 8641ION    CL-12841   9.308   8.546  12.688  0.1764 -0.1766  0.0623
 8642ION    CL-12842   0.008   6.535   4.166  0.3075  0.4040  0.0106
 8643ION    CL-12843   6.030   2.720   9.591  0.0396  0.3330 -0.0970
 8644ION    CL-12844   2.789   3.162  12.420  0.0961  0.3530 -0.1758
 8645ION    CL-12845   9.447   4.119   4.038 -0.2961 -0.0390  0.0571
 8646ION    CL-12846   2.517   9.343   4.115 -0.1133  0.2872  0.1729
 8647ION    CL-12847   4.108   3.988   9.147  0.3157 -0.0459  0.3441
 8648ION    CL-12848   9.563   4.662   9.555  0.2009  0.0684 -0.0280
 8649ION    CL-12849   1.339   1.481   3.649 -0.2850  0.1197  0.0145
 8650ION    CL-12850   3.924   4.877   9.324  0.1225 -0.1899  0.1959
 8651ION    CL-12851   1.543   6.516   9.508  0.1681 -0.2367 -0.2487
 8652ION    CL-12852   0.990   5.466   1.892  0.2003  0.3024 -0.0650
 8653ION    CL-12853  10.201   4.311  10.791  0.0031  0.4913 -0.2466
 8654ION    CL-12854   6.381   4.671   9.421  0.0120  0.0201  0.1918
 8655ION    CL-12855  10.394   6.083   8.846 -0.0835 -0.0298 -0.0378
 8656ION    CL-12856   2.307   6.245   4.033 -0.1985 -0.2182  0.1239
 8657ION    CL-12857   3.271   8.477   1.702  0.0689  0.4629  0.0273
 8658ION    CL-12858   0.480   4.877  10.986 -0.3769 -0.2457  0.1513
 8659ION    CL-12859   9.672   7.327  10.515 -0.0039  0.3580  0.0398
 8660ION    CL-12860   9.393   8.781   4.326 -0.0209  0.1182  0.2046
 8661ION    CL-12861   7.613   0.231  10.540 -0.3871 -0.2845  0.1426
 8662ION    CL-12862   2.352   8.698   1.883 -0.1398  0.0179  0.0263
 8663ION    CL-12863   1.942   2.160   1.884  0.2727 -0.2314  0.0158
 8664ION    CL-12864   4.229   2.896   9.434  0.1760 -0.0266  0.0736
 8665ION    CL-12865   5.007   1.203  11.110  0.2388  0.0289  0.2414
 8666ION    CL-12866   4.761   5.392   1.847  0.1968 -0.0050 -0.0935
 8667ION    CL-12867   8.318   4.626  12.114  0.0045  0.3838  0.1430
 8668ION    CL-12868   2.139   9.938   3.175 -0.0685 -0.1218  0.2590
 8669ION    CL-12869   1.838   3.428   9.388  0.1598 -0.2228 -0.1656
 8670ION    CL-12870  10.077   1.605  10.535 -0.2530  0.0395  0.1213
 8671ION    CL-12871   5.096   1.002  12.685 -0.1108  0.0182  0.1316
 8672ION    CL-12872   7.076   8.889  13.374  0.6466 -0.2145  0.0762
 8673ION    CL-12873   1.666   4.057   3.512  0.0005 -0.3065  0.0399
 8674ION    CL-12874   8.445   6.371   1.304 -0.2249 -0.2027 -0.0156
 8675ION    CL-12875   7.880   2.880  10.223  0.2245  0.0757 -0.1770
 8676ION    CL-12876   6.908   0.354   3.143  0.1713 -0.0431  0.0359
 8677ION    CL-12877   3.988   2.469  10.323 -0.0898  0.2175  0.0310
 8678ION    CL-12878   6.659   9.859   0.962 -0.3453  0.2230 -0.0048
 8679ION    CL-12879   1.184   4.739   1.055 -0.0604  0.1476 -0.1681
 8680ION    CL-12880   5.937   9.332   0.974  0.0020  0.0035 -0.0881
 8681ION    CL-12881   7.281   9.213  12.320 -0.0536  0.2018  0.3071
 8682ION    CL-12882   4.735   0.444   4.425 -0.0897 -0.0245 -0.1637
 8683ION    CL-12883   4.528   6.804  11.648  0.0261 -0.0443  0.0215
 8684ION    CL-12884   0.688   0.267   9.914 -0.0407 -0.1264 -0.3621
 8685ION    CL-12885   6.969   4.368   0.453  0.0166  0.2675 -0.0206
 8686ION    CL-12886   7.202   6.143   0.784 -0.0686  0.1747 -0.1303
 8687ION    CL-12887   1.350   2.461   0.359 -0.1706 -0.0684  0.1410
 8688ION    CL-12888  10.363   6.284   2.204  0.0042  0.2219  0.1540
 8689ION    CL-12889   1.849   9.592   4.089  0.1881 -0.3722 -0.2253
 8690ION    CL-12890   2.106   4.355   4.708  0.0895 -0.1195  0.0575
 8691ION    CL-12891  10.079   3.357   4.088  0.3907  0.2237  0.1811
 8692ION    CL-12892   8.160   6.971   4.448 -0.1463  0.3895  0.1529
 8693ION    CL-12893   9.989   1.597  12.317  0.1290  0.0915  0.7115
 8694ION    CL-12894   1.079   2.716   9.769  0.1719  0.1939  0.1119
 8695ION    CL-12895   5.474   6.402  11.275  0.1890 -0.1215  0.0043
 8696ION    CL-12896   5.391   4.107   4.240  0.4341 -0.1710 -0.1226
 8697ION    CL-12897   2.092   1.182   2.609 -0.2991 -0.1768 -0.2239
 8698ION    CL-12898   9.756   6.138  12.784  0.2907  0.2961  0.2143
 8699ION    CL-12899   7.780   7.632   3.300 -0.2057 -0.0701 -0.1752
 8700ION    CL-12900   6.749   9.815   2.637 -0.0973  0.1858  0.3363
 8701ION    CL-12901  10.326   8.236  13.241 -0.1413 -0.2626 -0.2383
 8702ION    CL-12902   6.434   2.614   3.732 -0.0742  0.1173 -0.4419
 8703ION    CL-12903   0.187   3.309   9.833  0.0597 -0.0556 -0.0237
 8704ION    CL-12904   3.187   9.308  10.199 -0.2567  0.1596  0.1801
 8705ION    CL-12905   9.946   3.240  10.719  0.0715 -0.1230  0.0340
 8706ION    CL-12906   2.454   0.671  11.590 -0.1460  0.2171  0.1257
 8707ION    CL-12907   0.527   7.339  10.713  0.3300 -0.3436  0.1525
 8708ION    CL-12908   5.411   7.830   3.212  0.1666 -0.0191  0.1727
 8709ION    CL-12909   3.526   2.590   9.455 -0.1066 -0.0004  0.2963
 8710ION    CL-12910   2.188   2.012  11.393  0.1182 -0.0141 -0.4535
 8711ION    CL-12911   7.808   4.156   1.466 -0.1654 -0.0489  0.0628
 8712ION    CL-12912   8.823   3.817   3.811  0.0878 -0.0111  0.2999
 8713ION    CL-12913  10.140   1.156  11.390 -0.2156 -0.2482  0.0609
 8714ION    CL-12914  10.195   7.719   2.262  0.1796 -0.0105  0.2682
  10.47889  10.47889  13.47558
