Protein in INSANE! Membrane UpperLeaflet>POPC=1.0 LowerLeaflet>POPC=1.0
12914
    1AU     AUC    1   5.748   5.817   5.995
    1AU     AUC    2   6.047   5.821   5.821
    1AU     AUC    3   6.015   5.805   6.167
    1AU     AUC    4   5.463   5.809   5.832
    1AU     AUC    5   5.478   5.846   6.181
    1AU     AUC    6   5.577   6.095   5.995
    1AU     AUC    7   5.931   6.092   5.983
    1AU     AUC    8   5.557   5.541   5.996
    1AU     AUC    9   5.914   5.538   5.995
    1AU     AUC   10   5.749   5.637   6.267
    1AU     AUC   11   5.742   6.005   6.256
    1AU     AUC   12   5.745   5.656   5.721
    1AU     AUC   13   5.774   5.973   5.717
    1AU     AUC   14   6.369   5.821   5.662
    1AU     AUC   15   6.363   5.796   6.015
    1AU     AUC   16   6.302   5.783   6.365
    1AU     AUC   17   5.159   5.811   5.667
    1AU     AUC   18   5.141   5.841   6.032
    1AU     AUC   19   5.194   5.878   6.371
    1AU     AUC   20   5.415   6.404   5.972
    1AU     AUC   21   5.776   6.433   5.944
    1AU     AUC   22   6.102   6.379   5.975
    1AU     AUC   23   5.362   5.263   5.991
    1AU     AUC   24   5.697   5.212   5.968
    1AU     AUC   25   6.080   5.226   5.971
    1AU     AUC   26   5.734   5.455   6.555
    1AU     AUC   27   5.748   5.820   6.589
    1AU     AUC   28   5.769   6.181   6.545
    1AU     AUC   29   5.773   5.489   5.435
    1AU     AUC   30   5.769   5.810   5.385
    1AU     AUC   31   5.768   6.129   5.417
    1AU     AUC   32   6.021   5.588   6.482
    1AU     AUC   33   6.051   5.974   6.483
    1AU     AUC   34   6.097   5.660   5.503
    1AU     AUC   35   6.096   6.003   5.527
    1AU     AUC   36   5.449   5.683   6.507
    1AU     AUC   37   5.469   6.059   6.486
    1AU     AUC   38   5.447   5.638   5.536
    1AU     AUC   39   5.429   5.951   5.495
    1AU     AUC   40   6.282   6.098   5.835
    1AU     AUC   41   6.218   6.085   6.190
    1AU     AUC   42   5.254   6.115   5.831
    1AU     AUC   43   5.278   6.166   6.183
    1AU     AUC   44   6.248   5.508   5.829
    1AU     AUC   45   6.207   5.479   6.164
    1AU     AUC   46   5.220   5.518   5.856
    1AU     AUC   47   5.279   5.559   6.212
    1AU     AUC   48   5.596   6.345   6.253
    1AU     AUC   49   5.936   6.303   6.267
    1AU     AUC   50   5.552   5.340   6.289
    1AU     AUC   51   5.876   5.291   6.258
    1AU     AUC   52   5.572   6.246   5.685
    1AU     AUC   53   5.956   6.281   5.663
    1AU     AUC   54   5.543   5.342   5.697
    1AU     AUC   55   5.931   5.370   5.700
    1AU    AUSL   56   6.285   5.714   6.720
    1AU    AUSL   57   6.014   5.289   6.638
    1AU     AUL   58   6.329   5.312   6.830
    1AU       S   59   6.394   4.956   6.564
    1AU     LIG   60   6.305   4.808   6.948
    1AU     LIG   61   6.374   4.437   7.174
    1AU     LIG   62   6.613   4.122   7.391
    1AU     LIG   63   6.844   3.955   7.767
    1AU     LIG   64   6.889   3.684   8.146
    1AU       S   65   6.513   5.721   6.869
    1AU     LIG   66   6.393   5.743   7.312
    1AU     LIG   67   6.536   5.592   7.743
    1AU     LIG   68   6.834   5.448   8.106
    1AU     LIG   69   7.227   5.491   8.404
    1AU     LIG   70   7.499   5.607   8.782
    1AU    AUSL   71   5.886   5.617   6.888
    1AU    AUSL   72   5.623   6.004   6.917
    1AU     AUL   73   5.820   5.902   7.224
    1AU       S   74   6.014   5.533   7.059
    1AU     LIG   75   5.967   5.484   7.490
    1AU     LIG   76   6.160   5.248   7.842
    1AU     LIG   77   6.425   5.086   8.201
    1AU     LIG   78   6.450   4.859   8.624
    1AU     LIG   79   6.471   4.875   9.095
    1AU       S   80   5.410   5.743   7.128
    1AU     LIG   81   5.473   5.716   7.596
    1AU     LIG   82   5.205   5.654   7.981
    1AU     LIG   83   5.035   5.688   8.419
    1AU     LIG   84   5.071   5.958   8.824
    1AU     LIG   85   5.040   6.070   9.286
    1AU    AUSL   86   5.943   5.991   6.653
    1AU    AUSL   87   6.374   6.118   6.608
    1AU     AUL   88   6.172   6.012   6.939
    1AU       S   89   5.844   6.361   7.094
    1AU     LIG   90   6.180   6.241   7.394
    1AU     LIG   91   6.406   6.378   7.794
    1AU     LIG   92   6.379   6.467   8.282
    1AU     LIG   93   6.389   6.666   8.719
    1AU     LIG   94   6.630   6.779   9.102
    1AU       S   95   6.523   6.267   6.778
    1AU     LIG   96   6.932   6.256   6.836
    1AU     LIG   97   7.226   6.446   7.149
    1AU     LIG   98   7.452   6.653   7.513
    1AU     LIG   99   7.774   6.722   7.862
    1AU     LIG  100   8.218   6.820   8.022
    1AU    AUSL  101   6.302   5.893   5.316
    1AU    AUSL  102   6.161   6.309   5.338
    1AU     AUL  103   6.431   6.181   5.087
    1AU       S  104   6.139   5.989   4.819
    1AU     LIG  105   6.615   5.965   4.660
    1AU     LIG  106   6.719   5.715   4.287
    1AU     LIG  107   6.820   5.535   3.867
    1AU     LIG  108   7.158   5.422   3.555
    1AU     LIG  109   7.592   5.463   3.355
    1AU       S  110   6.503   6.536   5.373
    1AU     LIG  111   6.693   6.614   4.959
    1AU     LIG  112   6.906   6.760   4.547
    1AU     LIG  113   7.166   6.948   4.193
    1AU     LIG  114   7.445   7.089   3.824
    1AU     LIG  115   7.762   7.211   3.482
    1AU    AUSL  116   6.063   5.611   5.089
    1AU    AUSL  117   6.461   5.514   5.411
    1AU     AUL  118   6.477   5.683   5.105
    1AU       S  119   6.547   5.218   5.177
    1AU     LIG  120   6.661   4.841   4.877
    1AU     LIG  121   6.909   4.451   4.841
    1AU     LIG  122   7.221   4.223   4.574
    1AU     LIG  123   7.563   4.294   4.237
    1AU     LIG  124   8.009   4.414   4.081
    1AU       S  125   6.178   5.813   4.789
    1AU     LIG  126   6.333   5.482   4.573
    1AU     LIG  127   6.426   5.306   4.132
    1AU     LIG  128   6.432   5.250   3.652
    1AU     LIG  129   6.512   5.087   3.205
    1AU     LIG  130   6.716   4.901   2.804
    1AU    AUSL  131   5.891   5.989   5.243
    1AU    AUSL  132   5.651   5.613   5.210
    1AU     AUL  133   5.783   5.655   4.927
    1AU       S  134   5.333   5.678   4.806
    1AU     LIG  135   5.425   5.361   4.563
    1AU     LIG  136   5.172   5.182   4.211
    1AU     LIG  137   4.962   5.140   3.782
    1AU     LIG  138   4.971   5.032   3.316
    1AU     LIG  139   4.939   4.950   2.843
    1AU       S  140   5.966   6.094   4.934
    1AU     LIG  141   5.852   5.899   4.437
    1AU     LIG  142   6.210   5.778   4.097
    1AU     LIG  143   6.402   5.768   3.635
    1AU     LIG  144   6.468   5.859   3.157
    1AU     LIG  145   6.467   6.167   2.791
    1AU    AUSL  146   5.227   5.948   6.744
    1AU    AUSL  147   5.514   6.306   6.634
    1AU     AUL  148   5.374   6.236   6.972
    1AU       S  149   5.225   5.837   7.174
    1AU     LIG  150   5.032   5.494   7.390
    1AU     LIG  151   4.788   5.415   7.789
    1AU     LIG  152   4.597   5.444   8.230
    1AU     LIG  153   4.231   5.390   8.538
    1AU     LIG  154   3.885   5.544   8.833
    1AU       S  155   5.135   6.552   6.724
    1AU     LIG  156   5.117   6.698   7.149
    1AU     LIG  157   5.023   6.939   7.550
    1AU     LIG  158   4.783   7.259   7.798
    1AU     LIG  159   4.652   7.416   8.236
    1AU     LIG  160   4.545   7.570   8.685
    1AU    AUSL  161   5.531   5.662   6.661
    1AU    AUSL  162   5.115   5.533   6.636
    1AU     AUL  163   5.019   5.757   6.779
    1AU       S  164   5.028   5.309   6.897
    1AU     LIG  165   4.581   5.245   6.737
    1AU     LIG  166   4.320   4.866   6.861
    1AU     LIG  167   4.060   4.633   7.189
    1AU     LIG  168   3.815   4.399   7.526
    1AU     LIG  169   3.524   4.337   7.901
    1AU       S  170   5.423   5.598   7.032
    1AU     LIG  171   5.512   5.285   7.343
    1AU     LIG  172   5.279   5.199   7.748
    1AU     LIG  173   5.049   5.179   8.172
    1AU     LIG  174   4.885   4.983   8.570
    1AU     LIG  175   4.888   4.889   9.032
    1AU    AUSL  176   5.247   5.739   5.274
    1AU    AUSL  177   5.425   5.357   5.455
    1AU     AUL  178   5.435   5.360   5.113
    1AU       S  179   5.120   5.653   4.946
    1AU     LIG  180   4.911   5.399   4.639
    1AU     LIG  181   4.727   5.445   4.205
    1AU     LIG  182   4.614   5.545   3.759
    1AU     LIG  183   4.332   5.646   3.382
    1AU     LIG  184   3.948   5.659   3.073
    1AU       S  185   5.025   5.220   5.256
    1AU     LIG  186   4.798   4.812   5.140
    1AU     LIG  187   4.549   4.494   4.913
    1AU     LIG  188   4.299   4.231   4.608
    1AU     LIG  189   4.215   4.077   4.159
    1AU     LIG  190   4.286   3.873   3.735
    1AU    AUSL  191   5.515   6.025   5.065
    1AU    AUSL  192   5.030   6.077   5.424
    1AU     AUL  193   5.159   6.082   5.091
    1AU       S  194   4.752   6.249   5.258
    1AU     LIG  195   4.542   6.557   4.966
    1AU     LIG  196   4.565   6.746   4.550
    1AU     LIG  197   4.375   6.842   4.127
    1AU     LIG  198   3.971   6.893   3.865
    1AU     LIG  199   3.651   7.198   3.702
    1AU       S  200   5.415   5.900   4.750
    1AU     LIG  201   5.152   5.765   4.356
    1AU     LIG  202   5.125   5.614   3.922
    1AU     LIG  203   5.043   5.579   3.471
    1AU     LIG  204   5.077   5.825   3.075
    1AU     LIG  205   4.878   5.946   2.669
    1AU    AUSL  206   6.523   6.326   6.016
    1AU    AUSL  207   6.495   6.129   5.609
    1AU     AUL  208   6.810   6.447   5.827
    1AU       S  209   6.604   6.255   5.493
    1AU     LIG  210   6.920   6.203   5.201
    1AU     LIG  211   7.133   6.373   4.814
    1AU     LIG  212   7.411   6.666   4.563
    1AU     LIG  213   7.682   6.868   4.234
    1AU     LIG  214   7.953   7.143   3.963
    1AU       S  215   6.918   6.214   6.216
    1AU     LIG  216   7.358   6.332   6.072
    1AU     LIG  217   7.836   6.446   6.025
    1AU     LIG  218   8.273   6.614   6.036
    1AU     LIG  219   8.606   6.894   6.193
    1AU     LIG  220   8.777   7.265   6.435
    1AU    AUSL  221   6.726   5.924   5.900
    1AU    AUSL  222   6.660   5.597   6.210
    1AU     AUL  223   7.024   5.706   6.231
    1AU       S  224   6.867   6.011   5.948
    1AU     LIG  225   7.305   5.882   5.844
    1AU     LIG  226   7.794   5.978   5.824
    1AU     LIG  227   8.255   6.161   5.754
    1AU     LIG  228   8.697   6.267   5.535
    1AU     LIG  229   9.101   6.342   5.303
    1AU       S  230   6.917   5.292   6.071
    1AU     LIG  231   7.284   5.116   6.276
    1AU     LIG  232   7.716   4.904   6.281
    1AU     LIG  233   8.174   4.749   6.276
    1AU     LIG  234   8.659   4.822   6.266
    1AU     LIG  235   9.100   4.750   6.467
    1AU    AUSL  236   6.447   5.960   6.231
    1AU    AUSL  237   6.190   6.342   6.284
    1AU     AUL  238   6.512   6.400   6.330
    1AU       S  239   6.496   6.564   6.752
    1AU     LIG  240   6.877   6.766   6.937
    1AU     LIG  241   7.221   6.998   7.176
    1AU     LIG  242   7.386   7.419   7.370
    1AU     LIG  243   7.563   7.883   7.395
    1AU     LIG  244   7.914   8.169   7.569
    1AU       S  245   6.771   6.039   6.375
    1AU     LIG  246   7.279   6.046   6.502
    1AU     LIG  247   7.741   6.048   6.338
    1AU     LIG  248   8.228   6.167   6.293
    1AU     LIG  249   8.578   6.460   6.498
    1AU     LIG  250   9.005   6.603   6.665
    1AU    AUSL  251   5.086   6.387   6.021
    1AU    AUSL  252   5.157   6.190   6.413
    1AU     AUL  253   4.857   6.493   6.274
    1AU       S  254   4.999   6.339   6.681
    1AU     LIG  255   4.672   6.524   6.940
    1AU     LIG  256   4.590   6.749   7.347
    1AU     LIG  257   4.414   6.840   7.787
    1AU     LIG  258   4.075   6.826   8.139
    1AU     LIG  259   3.707   6.968   8.408
    1AU       S  260   5.088   6.762   5.953
    1AU     LIG  261   4.632   6.752   5.875
    1AU     LIG  262   4.201   7.004   5.912
    1AU     LIG  263   3.783   7.289   5.924
    1AU     LIG  264   3.349   7.543   5.892
    1AU     LIG  265   2.901   7.744   5.927
    1AU    AUSL  266   5.044   5.998   5.829
    1AU    AUSL  267   5.173   6.444   5.613
    1AU     AUL  268   4.861   6.322   5.710
    1AU       S  269   4.671   5.806   5.487
    1AU     LIG  270   4.288   6.070   5.526
    1AU     LIG  271   3.850   6.185   5.325
    1AU     LIG  272   3.365   6.202   5.432
    1AU     LIG  273   2.968   6.492   5.385
    1AU     LIG  274   2.587   6.642   5.134
    1AU       S  275   5.000   6.696   5.441
    1AU     LIG  276   4.916   6.988   5.050
    1AU     LIG  277   4.900   7.426   4.805
    1AU     LIG  278   4.772   7.904   4.692
    1AU     LIG  279   4.477   8.280   4.554
    1AU     LIG  280   4.106   8.597   4.594
    1AU    AUSL  281   4.830   6.039   6.205
    1AU    AUSL  282   4.796   5.671   5.910
    1AU     AUL  283   4.636   5.986   5.924
    1AU       S  284   4.592   5.584   6.171
    1AU     LIG  285   4.286   5.602   5.801
    1AU     LIG  286   3.911   5.354   5.640
    1AU     LIG  287   3.458   5.180   5.606
    1AU     LIG  288   2.974   5.130   5.733
    1AU     LIG  289   2.534   5.055   5.561
    1AU       S  290   4.676   6.068   6.422
    1AU     LIG  291   4.222   6.198   6.439
    1AU     LIG  292   3.794   6.254   6.684
    1AU     LIG  293   3.379   6.473   6.801
    1AU     LIG  294   2.897   6.403   6.784
    1AU     LIG  295   2.455   6.532   6.617
    1AU    AUSL  296   6.455   5.246   6.036
    1AU    AUSL  297   6.283   5.490   6.368
    1AU     AUL  298   6.613   5.390   6.436
    1AU       S  299   6.724   5.137   6.042
    1AU     LIG  300   6.906   4.773   6.167
    1AU     LIG  301   7.332   4.611   6.081
    1AU     LIG  302   7.771   4.424   6.087
    1AU     LIG  303   8.186   4.227   6.189
    1AU     LIG  304   8.465   3.867   6.340
    1AU       S  305   6.496   4.954   6.435
    1AU     LIG  306   6.744   4.630   6.686
    1AU     LIG  307   6.895   4.416   7.071
    1AU     LIG  308   7.136   4.168   7.391
    1AU     LIG  309   7.426   4.136   7.764
    1AU     LIG  310   7.837   4.150   8.013
    1AU    AUSL  311   6.456   5.617   5.816
    1AU    AUSL  312   6.337   5.157   5.635
    1AU     AUL  313   6.612   5.314   5.640
    1AU       S  314   6.960   5.458   5.857
    1AU     LIG  315   7.237   5.046   5.771
    1AU     LIG  316   7.691   4.829   5.767
    1AU     LIG  317   8.152   4.616   5.784
    1AU     LIG  318   8.643   4.639   5.763
    1AU     LIG  319   9.008   4.691   5.449
    1AU       S  320   6.527   4.973   5.331
    1AU     LIG  321   6.478   4.495   5.310
    1AU     LIG  322   6.674   4.090   5.123
    1AU     LIG  323   6.954   3.830   4.853
    1AU     LIG  324   7.302   3.498   4.788
    1AU     LIG  325   7.664   3.177   4.683
    1AU    AUSL  326   4.989   5.306   6.058
    1AU    AUSL  327   5.083   5.562   5.623
    1AU     AUL  328   4.742   5.377   5.770
    1AU       S  329   4.935   5.398   5.354
    1AU     LIG  330   4.495   5.173   5.359
    1AU     LIG  331   4.225   4.865   5.080
    1AU     LIG  332   3.965   4.590   4.764
    1AU     LIG  333   3.809   4.292   4.413
    1AU     LIG  334   3.567   4.099   4.040
    1AU       S  335   4.562   5.343   6.203
    1AU     LIG  336   4.315   5.090   5.882
    1AU     LIG  337   3.864   4.888   5.855
    1AU     LIG  338   3.393   4.824   6.002
    1AU     LIG  339   3.053   4.589   6.263
    1AU     LIG  340   2.629   4.375   6.383
    1AU    AUSL  341   5.058   5.690   6.254
    1AU    AUSL  342   5.314   5.311   6.331
    1AU     AUL  343   4.971   5.293   6.406
    1AU       S  344   5.046   5.106   6.819
    1AU     LIG  345   4.838   4.823   6.542
    1AU     LIG  346   4.548   4.463   6.618
    1AU     LIG  347   4.204   4.245   6.885
    1AU     LIG  348   3.880   4.010   7.170
    1AU     LIG  349   3.548   3.646   7.242
    1AU       S  350   4.635   5.601   6.353
    1AU     LIG  351   4.129   5.719   6.271
    1AU     LIG  352   3.718   5.602   6.053
    1AU     LIG  353   3.353   5.337   6.067
    1AU     LIG  354   2.987   5.102   6.244
    1AU     LIG  355   2.646   4.893   6.456
    1AU    AUSL  356   5.784   6.532   6.391
    1AU    AUSL  357   5.352   6.555   6.311
    1AU     AUL  358   5.591   6.628   6.679
    1AU       S  359   5.203   6.759   6.453
    1AU     LIG  360   4.889   6.976   6.759
    1AU     LIG  361   4.796   7.203   7.171
    1AU     LIG  362   4.722   7.625   7.398
    1AU     LIG  363   4.437   8.021   7.438
    1AU     LIG  364   4.083   8.356   7.500
    1AU       S  365   5.785   6.961   6.439
    1AU     LIG  366   5.956   7.005   6.825
    1AU     LIG  367   5.988   7.448   7.029
    1AU     LIG  368   5.950   7.813   7.346
    1AU     LIG  369   6.022   8.086   7.751
    1AU     LIG  370   5.997   8.499   8.001
    1AU    AUSL  371   5.618   6.757   6.051
    1AU    AUSL  372   5.910   6.701   5.693
    1AU     AUL  373   5.830   7.042   5.845
    1AU       S  374   5.610   6.977   6.255
    1AU     LIG  375   5.629   7.434   6.423
    1AU     LIG  376   5.672   7.802   6.727
    1AU     LIG  377   5.514   8.245   6.835
    1AU     LIG  378   5.459   8.707   6.905
    1AU     LIG  379   5.368   9.150   6.782
    1AU       S  380   5.644   6.880   5.467
    1AU     LIG  381   6.009   7.189   5.406
    1AU     LIG  382   6.168   7.633   5.317
    1AU     LIG  383   6.480   8.008   5.293
    1AU     LIG  384   6.746   8.411   5.299
    1AU     LIG  385   6.760   8.856   5.172
    1AU    AUSL  386   6.060   6.692   6.096
    1AU    AUSL  387   6.040   6.395   6.692
    1AU     AUL  388   6.140   6.663   6.469
    1AU       S  389   6.279   6.490   6.904
    1AU     LIG  390   6.626   6.439   7.242
    1AU     LIG  391   6.923   6.701   7.488
    1AU     LIG  392   7.171   7.055   7.693
    1AU     LIG  393   7.243   7.405   8.004
    1AU     LIG  394   7.197   7.597   8.442
    1AU       S  395   5.977   7.044   6.277
    1AU     LIG  396   6.134   7.400   6.533
    1AU     LIG  397   6.355   7.794   6.702
    1AU     LIG  398   6.724   8.133   6.687
    1AU     LIG  399   6.898   8.584   6.734
    1AU     LIG  400   6.880   8.986   6.942
    1AU    AUSL  401   5.698   5.100   6.415
    1AU    AUSL  402   6.106   5.117   6.244
    1AU     AUL  403   5.942   4.970   6.623
    1AU       S  404   5.668   4.647   6.458
    1AU     LIG  405   5.534   4.590   6.838
    1AU     LIG  406   5.463   4.126   6.899
    1AU     LIG  407   5.508   3.656   6.997
    1AU     LIG  408   5.550   3.357   7.380
    1AU     LIG  409   5.558   3.260   7.864
    1AU       S  410   6.269   4.879   6.282
    1AU     LIG  411   6.242   4.480   6.548
    1AU     LIG  412   6.542   4.158   6.785
    1AU     LIG  413   6.891   3.888   7.011
    1AU     LIG  414   7.039   3.445   7.157
    1AU     LIG  415   7.343   3.085   7.334
    1AU    AUSL  416   5.382   4.954   6.131
    1AU    AUSL  417   5.486   5.258   6.736
    1AU     AUL  418   5.345   4.982   6.496
    1AU       S  419   5.494   4.582   6.314
    1AU     LIG  420   5.160   4.403   6.537
    1AU     LIG  421   5.085   3.944   6.595
    1AU     LIG  422   5.161   3.476   6.622
    1AU     LIG  423   4.977   3.028   6.648
    1AU     LIG  424   4.891   2.674   6.945
    1AU       S  425   5.285   5.122   6.941
    1AU     LIG  426   5.035   4.658   6.994
    1AU     LIG  427   4.596   4.498   7.132
    1AU     LIG  428   4.302   4.232   7.407
    1AU     LIG  429   4.117   4.095   7.828
    1AU     LIG  430   4.187   3.932   8.277
    1AU    AUSL  431   5.813   4.865   6.074
    1AU    AUSL  432   5.558   5.027   5.749
    1AU     AUL  433   5.445   4.727   5.883
    1AU       S  434   5.811   4.711   5.616
    1AU     LIG  435   5.514   4.331   5.544
    1AU     LIG  436   5.326   3.885   5.448
    1AU     LIG  437   5.137   3.431   5.423
    1AU     LIG  438   4.910   2.986   5.381
    1AU     LIG  439   4.770   2.608   5.102
    1AU       S  440   5.816   4.655   6.205
    1AU     LIG  441   5.848   4.196   6.332
    1AU     LIG  442   5.840   3.810   6.610
    1AU     LIG  443   6.082   3.417   6.768
    1AU     LIG  444   6.176   2.941   6.793
    1AU     LIG  445   6.119   2.445   6.719
    1AU    AUSL  446   5.755   6.440   5.362
    1AU    AUSL  447   6.202   6.411   5.753
    1AU     AUL  448   6.057   6.643   5.387
    1AU       S  449   5.649   6.833   5.247
    1AU     LIG  450   5.953   6.981   4.955
    1AU     LIG  451   6.071   7.427   4.833
    1AU     LIG  452   6.101   7.761   4.484
    1AU     LIG  453   6.112   8.111   4.159
    1AU     LIG  454   5.932   8.537   4.109
    1AU       S  455   6.436   6.620   5.638
    1AU     LIG  456   6.922   6.756   5.420
    1AU     LIG  457   7.149   6.878   4.993
    1AU     LIG  458   7.307   7.200   4.651
    1AU     LIG  459   7.520   7.664   4.627
    1AU     LIG  460   7.708   8.129   4.717
    1AU    AUSL  461   5.558   6.471   5.755
    1AU    AUSL  462   5.458   6.153   5.456
    1AU     AUL  463   5.403   6.459   5.326
    1AU       S  464   5.456   6.839   5.603
    1AU     LIG  465   5.517   7.353   5.510
    1AU     LIG  466   5.658   7.807   5.376
    1AU     LIG  467   5.434   8.242   5.289
    1AU     LIG  468   5.346   8.729   5.385
    1AU     LIG  469   5.369   9.236   5.336
    1AU       S  470   4.966   6.489   5.206
    1AU     LIG  471   5.049   6.565   4.785
    1AU     LIG  472   5.034   6.936   4.480
    1AU     LIG  473   4.936   7.057   4.019
    1AU     LIG  474   4.880   7.316   3.613
    1AU     LIG  475   4.617   7.683   3.463
    1AU    AUSL  476   5.766   5.118   5.378
    1AU    AUSL  477   5.159   5.136   5.712
    1AU     AUL  478   5.416   4.971   5.427
    1AU       S  479   4.985   5.108   5.491
    1AU     LIG  480   4.732   4.837   5.676
    1AU     LIG  481   4.417   4.580   5.456
    1AU     LIG  482   4.143   4.315   5.162
    1AU     LIG  483   3.850   4.063   4.881
    1AU     LIG  484   3.461   3.764   4.830
    1AU       S  485   5.820   4.716   5.411
    1AU     LIG  486   5.968   4.326   5.281
    1AU     LIG  487   5.734   3.960   5.114
    1AU     LIG  488   5.495   3.561   5.047
    1AU     LIG  489   5.474   3.218   4.718
    1AU     LIG  490   5.637   2.989   4.333
    1AU    AUSL  491   5.959   5.137   5.792
    1AU    AUSL  492   6.035   5.430   5.461
    1AU     AUL  493   6.091   5.079   5.405
    1AU       S  494   6.061   4.738   5.708
    1AU     LIG  495   5.960   4.289   5.820
    1AU     LIG  496   5.818   3.899   5.608
    1AU     LIG  497   5.942   3.519   5.318
    1AU     LIG  498   6.215   3.167   5.122
    1AU     LIG  499   6.543   2.813   5.195
    1AU       S  500   6.324   5.218   5.054
    1AU     LIG  501   6.167   4.771   5.009
    1AU     LIG  502   6.377   4.378   4.813
    1AU     LIG  503   6.683   4.130   4.514
    1AU     LIG  504   6.987   4.133   4.129
    1AU     LIG  505   7.160   3.949   3.729
    2POPC   NC3  506   2.155   7.889   8.077
    2POPC   PO4  507   2.375   8.441   8.263
    2POPC   GL1  508   2.358   8.316   7.738
    2POPC   GL2  509   2.276   7.949   7.602
    2POPC   C1A  510   2.257   8.292   7.263
    2POPC   D2A  511   2.155   8.414   6.858
    2POPC   C3A  512   2.225   8.280   6.426
    2POPC   C4A  513   2.391   8.455   6.035
    2POPC   C1B  514   1.857   7.926   7.410
    2POPC   C2B  515   1.706   7.790   7.016
    2POPC   C3B  516   1.770   7.835   6.571
    2POPC   C4B  517   1.712   8.165   6.283
    3POPC   NC3  518   1.931   2.710   8.266
    3POPC   PO4  519   1.597   3.264   8.010
    3POPC   GL1  520   1.808   2.993   7.683
    3POPC   GL2  521   2.129   2.968   7.836
    3POPC   C1A  522   1.731   2.763   7.248
    3POPC   D2A  523   1.787   2.558   6.810
    3POPC   C3A  524   1.662   2.854   6.473
    3POPC   C4A  525   1.762   3.003   6.063
    3POPC   C1B  526   2.250   2.816   7.397
    3POPC   C2B  527   2.405   2.788   7.000
    3POPC   C3B  528   2.323   2.634   6.632
    3POPC   C4B  529   2.152   2.827   6.338
    4POPC   NC3  530   8.156   9.755   8.021
    4POPC   PO4  531   8.116   9.149   8.194
    4POPC   GL1  532   8.377   9.338   7.821
    4POPC   GL2  533   8.106   9.539   7.574
    4POPC   C1A  534   8.503   9.284   7.394
    4POPC   D2A  535   8.267   9.526   7.063
    4POPC   C3A  536   8.375   9.607   6.638
    4POPC   C4A  537   8.391   9.407   6.208
    4POPC   C1B  538   7.807   9.833   7.335
    4POPC   C2B  539   7.673   9.991   6.916
    4POPC   C3B  540   7.657   9.831   6.505
    4POPC   C4B  541   8.005   9.714   6.292
    5POPC   NC3  542   1.931   0.530   7.968
    5POPC   PO4  543   1.507   0.020   8.081
    5POPC   GL1  544   1.634   0.131   7.650
    5POPC   GL2  545   1.963   0.303   7.532
    5POPC   C1A  546   1.712   0.060   7.204
    5POPC   D2A  547   1.848   0.338   6.897
    5POPC   C3A  548   1.856   0.144   6.527
    5POPC   C4A  549   1.718   0.208   6.141
    5POPC   C1B  550   1.903   0.689   7.276
    5POPC   C2B  551   1.812   0.845   6.830
    5POPC   C3B  552   2.001   0.664   6.404
    5POPC   C4B  553   1.926   0.593   5.917
    6POPC   NC3  554   7.335   9.316   8.120
    6POPC   PO4  555   7.563   9.945   8.067
    6POPC   GL1  556   7.471   9.669   7.720
    6POPC   GL2  557   7.171   9.877   7.672
    6POPC   C1A  558   7.610   9.374   7.358
    6POPC   D2A  559   7.767   9.474   6.904
    6POPC   C3A  560   7.635   9.322   6.456
    6POPC   C4A  561   7.768   9.388   5.981
    6POPC   C1B  562   7.269   9.732   7.252
    6POPC   C2B  563   7.158   9.698   6.863
    6POPC   C3B  564   7.173   9.534   6.487
    6POPC   C4B  565   7.327   9.665   6.115
    7POPC   NC3  566  10.880   0.399   8.003
    7POPC   PO4  567   0.059   0.742   8.074
    7POPC   GL1  568   0.119   0.544   7.705
    7POPC   GL2  569  11.285   0.441   7.644
    7POPC   C1A  570   0.137   0.647   7.295
    7POPC   D2A  571  11.301   0.600   7.021
    7POPC   C3A  572  11.453   0.513   6.628
    7POPC   C4A  573  11.263   0.524   6.240
    7POPC   C1B  574  10.923   0.398   7.345
    7POPC   C2B  575  10.813   0.473   6.907
    7POPC   C3B  576  10.917   0.278   6.528
    7POPC   C4B  577  10.664   0.092   6.191
    8POPC   NC3  578  10.593   7.273   8.131
    8POPC   PO4  579  10.623   7.934   8.145
    8POPC   GL1  580  10.671   7.646   7.758
    8POPC   GL2  581  10.370   7.426   7.708
    8POPC   C1A  582  10.687   7.516   7.291
    8POPC   D2A  583  10.673   7.701   6.865
    8POPC   C3A  584  10.452   7.462   6.531
    8POPC   C4A  585  10.571   7.453   6.104
    8POPC   C1B  586  10.205   7.278   7.329
    8POPC   C2B  587  10.311   7.152   6.919
    8POPC   C3B  588  10.120   7.037   6.553
    8POPC   C4B  589   9.982   7.359   6.272
    9POPC   NC3  590   1.918   8.882   8.065
    9POPC   PO4  591   1.902   8.265   7.977
    9POPC   GL1  592   1.933   8.571   7.626
    9POPC   GL2  593   2.248   8.813   7.651
    9POPC   C1A  594   1.764   8.397   7.224
    9POPC   D2A  595   1.684   8.290   6.801
    9POPC   C3A  596   1.814   8.614   6.479
    9POPC   C4A  597   1.857   8.597   6.011
    9POPC   C1B  598   2.141   8.822   7.190
    9POPC   C2B  599   2.196   8.890   6.715
    9POPC   C3B  600   2.110   8.986   6.268
    9POPC   C4B  601   1.905   9.327   6.012
   10POPC   NC3  602   9.399   1.728   8.031
   10POPC   PO4  603   8.747   1.967   8.016
   10POPC   GL1  604   8.862   1.949   7.592
   10POPC   GL2  605   8.979   2.293   7.625
   10POPC   C1A  606   8.952   1.741   7.170
   10POPC   D2A  607   9.201   1.995   6.823
   10POPC   C3A  608   9.321   1.934   6.425
   10POPC   C4A  609   9.006   1.991   6.115
   10POPC   C1B  610   8.965   2.247   7.199
   10POPC   C2B  611   8.715   2.088   6.869
   10POPC   C3B  612   8.586   1.978   6.472
   10POPC   C4B  613   8.502   2.259   6.114
   11POPC   NC3  614  11.271   5.965   8.083
   11POPC   PO4  615  10.681   6.324   8.094
   11POPC   GL1  616  10.908   6.136   7.711
   11POPC   GL2  617  11.059   5.783   7.675
   11POPC   C1A  618  11.024   6.046   7.249
   11POPC   D2A  619  11.288   5.797   6.918
   11POPC   C3A  620  11.168   5.817   6.469
   11POPC   C4A  621  11.070   6.217   6.248
   11POPC   C1B  622  11.242   5.534   7.361
   11POPC   C2B  623  11.447   5.305   7.033
   11POPC   C3B  624  11.466   5.399   6.597
   11POPC   C4B  625  11.245   5.374   6.193
   12POPC   NC3  626   0.372   0.292   8.077
   12POPC   PO4  627   0.846   0.786   7.975
   12POPC   GL1  628   0.631   0.577   7.687
   12POPC   GL2  629   0.757   0.279   7.608
   12POPC   C1A  630   0.669   0.675   7.263
   12POPC   D2A  631   0.470   0.559   6.876
   12POPC   C3A  632   0.631   0.746   6.510
   12POPC   C4A  633   0.770   0.696   6.072
   12POPC   C1B  634   0.439   0.210   7.294
   12POPC   C2B  635   0.262   0.087   6.884
   12POPC   C3B  636   0.383   0.229   6.464
   12POPC   C4B  637   0.270   0.578   6.207
   13POPC   NC3  638   2.963   2.869   8.132
   13POPC   PO4  639   2.391   2.725   8.242
   13POPC   GL1  640   2.595   2.777   7.782
   13POPC   GL2  641   2.825   2.549   7.682
   13POPC   C1A  642   2.749   2.933   7.345
   13POPC   D2A  643   2.730   3.194   6.963
   13POPC   C3A  644   2.722   2.982   6.598
   13POPC   C4A  645   2.888   2.652   6.380
   13POPC   C1B  646   2.633   2.425   7.299
   13POPC   C2B  647   2.746   2.431   6.858
   13POPC   C3B  648   2.599   2.237   6.481
   13POPC   C4B  649   2.478   2.456   6.138
   14POPC   NC3  650  11.306   8.760   8.008
   14POPC   PO4  651  10.651   8.886   7.861
   14POPC   GL1  652  10.892   8.623   7.585
   14POPC   GL2  653  11.218   8.749   7.519
   14POPC   C1A  654  10.912   8.679   7.130
   14POPC   D2A  655  11.234   8.719   6.823
   14POPC   C3A  656  10.993   8.838   6.485
   14POPC   C4A  657  10.901   8.772   6.067
   14POPC   C1B  658  11.396   9.055   7.236
   14POPC   C2B  659  11.270   9.254   6.840
   14POPC   C3B  660  11.466   9.107   6.507
   14POPC   C4B  661  11.385   8.835   6.151
   15POPC   NC3  662   8.611  11.353   8.028
   15POPC   PO4  663   9.071  10.968   8.316
   15POPC   GL1  664   8.920  11.026   7.804
   15POPC   GL2  665   8.999  11.262   7.566
   15POPC   C1A  666   8.751  10.872   7.351
   15POPC   D2A  667   8.869  11.065   6.907
   15POPC   C3A  668   8.932  10.877   6.451
   15POPC   C4A  669   8.913  10.895   5.973
   15POPC   C1B  670   8.588  11.361   7.344
   15POPC   C2B  671   8.487  11.413   6.915
   15POPC   C3B  672   8.713  11.391   6.528
   15POPC   C4B  673   9.149  11.365   6.452
   16POPC   NC3  674   6.914  11.363   7.851
   16POPC   PO4  675   6.884  10.679   8.063
   16POPC   GL1  676   6.668  10.860   7.668
   16POPC   GL2  677   6.644  11.216   7.460
   16POPC   C1A  678   6.801  10.805   7.252
   16POPC   D2A  679   6.765  11.052   6.870
   16POPC   C3A  680   6.724  10.823   6.452
   16POPC   C4A  681   6.528  11.017   6.051
   16POPC   C1B  682   6.314  11.342   7.157
   16POPC   C2B  683   6.242  11.167   6.741
   16POPC   C3B  684   6.567  11.312   6.471
   16POPC   C4B  685   6.548   0.181   6.312
   17POPC   NC3  686   0.544   8.100   8.148
   17POPC   PO4  687   0.052   7.675   7.881
   17POPC   GL1  688   0.222   8.001   7.649
   17POPC   GL2  689   0.557   8.114   7.643
   17POPC   C1A  690   0.225   8.080   7.218
   17POPC   D2A  691   0.444   8.093   6.852
   17POPC   C3A  692   0.204   8.047   6.481
   17POPC   C4A  693   0.182   8.179   6.060
   17POPC   C1B  694   0.682   8.412   7.345
   17POPC   C2B  695   0.739   8.518   6.912
   17POPC   C3B  696   0.885   8.213   6.628
   17POPC   C4B  697   0.709   7.983   6.298
   18POPC   NC3  698   4.025  11.073   7.906
   18POPC   PO4  699   4.662  11.434   8.032
   18POPC   GL1  700   4.433  11.460   7.660
   18POPC   GL2  701   4.420  11.124   7.604
   18POPC   C1A  702   4.412  11.418   7.174
   18POPC   D2A  703   4.290   0.099   6.771
   18POPC   C3A  704   4.217  11.341   6.396
   18POPC   C4A  705   4.215  11.374   5.932
   18POPC   C1B  706   4.305  10.922   7.232
   18POPC   C2B  707   4.360  11.039   6.806
   18POPC   C3B  708   4.614  10.902   6.467
   18POPC   C4B  709   4.427  10.928   6.080
   19POPC   NC3  710   5.844  11.159   8.021
   19POPC   PO4  711   6.537  11.197   8.071
   19POPC   GL1  712   6.233  11.102   7.713
   19POPC   GL2  713   6.056  11.411   7.621
   19POPC   C1A  714   6.179  10.870   7.278
   19POPC   D2A  715   5.811  10.796   6.981
   19POPC   C3A  716   5.790  10.878   6.521
   19POPC   C4A  717   6.023  11.101   6.199
   19POPC   C1B  718   5.795  11.254   7.297
   19POPC   C2B  719   5.730  11.279   6.866
   19POPC   C3B  720   5.670  11.365   6.467
   19POPC   C4B  721   5.465   0.115   6.233
   20POPC   NC3  722   6.581   1.002   8.116
   20POPC   PO4  723   6.278   1.582   8.000
   20POPC   GL1  724   6.499   1.322   7.699
   20POPC   GL2  725   6.454   0.967   7.636
   20POPC   C1A  726   6.573   1.398   7.267
   20POPC   D2A  727   6.544   1.613   6.875
   20POPC   C3A  728   6.430   1.385   6.504
   20POPC   C4A  729   6.327   1.388   6.058
   20POPC   C1B  730   6.796   0.945   7.355
   20POPC   C2B  731   6.715   1.048   6.923
   20POPC   C3B  732   6.877   0.993   6.534
   20POPC   C4B  733   6.771   1.150   6.163
   21POPC   NC3  734   0.394   6.303   8.147
   21POPC   PO4  735   0.580   6.997   8.055
   21POPC   GL1  736   0.252   6.817   7.736
   21POPC   GL2  737   0.367   6.466   7.657
   21POPC   C1A  738   0.087   6.731   7.288
   21POPC   D2A  739   0.214   6.539   6.900
   21POPC   C3A  740   0.048   6.751   6.555
   21POPC   C4A  741   0.212   6.900   6.167
   21POPC   C1B  742   0.576   6.598   7.285
   21POPC   C2B  743   0.723   6.421   6.875
   21POPC   C3B  744   0.553   6.587   6.484
   21POPC   C4B  745   0.535   6.494   6.049
   22POPC   NC3  746   2.389   6.190   8.198
   22POPC   PO4  747   2.215   6.778   8.090
   22POPC   GL1  748   1.871   6.790   7.814
   22POPC   GL2  749   1.853   6.457   7.726
   22POPC   C1A  750   1.857   6.918   7.386
   22POPC   D2A  751   1.897   6.763   6.971
   22POPC   C3A  752   2.098   6.933   6.603
   22POPC   C4A  753   2.207   6.711   6.189
   22POPC   C1B  754   2.035   6.301   7.321
   22POPC   C2B  755   1.880   6.256   6.889
   22POPC   C3B  756   1.891   6.449   6.485
   22POPC   C4B  757   1.794   6.347   6.046
   23POPC   NC3  758  11.121   7.725   8.051
   23POPC   PO4  759  10.958   8.443   8.121
   23POPC   GL1  760  10.935   8.136   7.763
   23POPC   GL2  761  11.266   8.245   7.687
   23POPC   C1A  762  11.084   7.858   7.380
   23POPC   D2A  763  11.175   7.607   6.985
   23POPC   C3A  764  11.094   7.819   6.564
   23POPC   C4A  765  11.048   7.971   6.136
   23POPC   C1B  766  11.267   8.322   7.240
   23POPC   C2B  767  11.328   8.202   6.816
   23POPC   C3B  768  11.277   8.370   6.390
   23POPC   C4B  769  11.243   8.384   5.932
   24POPC   NC3  770   0.113   4.266   8.294
   24POPC   PO4  771   0.738   4.440   8.252
   24POPC   GL1  772   0.424   4.288   7.872
   24POPC   GL2  773   0.286   4.547   7.669
   24POPC   C1A  774   0.336   4.112   7.403
   24POPC   D2A  775   0.461   4.207   6.948
   24POPC   C3A  776   0.301   4.004   6.570
   24POPC   C4A  777   0.383   4.054   6.122
   24POPC   C1B  778   0.563   4.563   7.306
   24POPC   C2B  779   0.619   4.668   6.843
   24POPC   C3B  780   0.418   4.512   6.449
   24POPC   C4B  781   0.090   4.512   6.126
   25POPC   NC3  782   1.147   1.139   8.087
   25POPC   PO4  783   1.525   1.630   8.073
   25POPC   GL1  784   1.226   1.521   7.721
   25POPC   GL2  785   1.200   1.163   7.599
   25POPC   C1A  786   1.240   1.547   7.258
   25POPC   D2A  787   1.019   1.442   6.859
   25POPC   C3A  788   1.224   1.588   6.512
   25POPC   C4A  789   1.347   1.445   6.130
   25POPC   C1B  790   1.132   1.010   7.195
   25POPC   C2B  791   1.181   0.952   6.786
   25POPC   C3B  792   1.067   1.086   6.408
   25POPC   C4B  793   1.174   0.991   5.995
   26POPC   NC3  794   1.227   9.603   8.114
   26POPC   PO4  795   1.683   9.233   7.855
   26POPC   GL1  796   1.459   9.602   7.623
   26POPC   GL2  797   1.184   9.836   7.684
   26POPC   C1A  798   1.417   9.745   7.202
   26POPC   D2A  799   1.249   9.414   6.950
   26POPC   C3A  800   1.337   9.398   6.525
   26POPC   C4A  801   1.254   9.549   6.164
   26POPC   C1B  802   0.945   9.694   7.373
   26POPC   C2B  803   0.944   9.838   6.971
   26POPC   C3B  804   1.126   9.853   6.594
   26POPC   C4B  805   0.860   9.840   6.240
   27POPC   NC3  806   5.292   2.540   8.217
   27POPC   PO4  807   5.473   1.951   8.075
   27POPC   GL1  808   5.383   1.725   7.681
   27POPC   GL2  809   5.737   1.755   7.536
   27POPC   C1A  810   5.299   1.868   7.234
   27POPC   D2A  811   5.609   2.030   6.930
   27POPC   C3A  812   5.488   2.082   6.491
   27POPC   C4A  813   5.721   2.153   6.099
   27POPC   C1B  814   5.651   1.516   7.164
   27POPC   C2B  815   5.536   1.568   6.723
   27POPC   C3B  816   5.857   1.728   6.437
   27POPC   C4B  817   6.114   1.826   6.085
   28POPC   NC3  818   7.721   0.290   7.959
   28POPC   PO4  819   7.147  11.462   8.243
   28POPC   GL1  820   7.172   0.289   7.800
   28POPC   GL2  821   7.336   0.632   7.805
   28POPC   C1A  822   7.227   0.176   7.307
   28POPC   D2A  823   6.964   0.056   6.932
   28POPC   C3A  824   7.103  11.489   6.504
   28POPC   C4A  825   6.999   0.143   6.080
   28POPC   C1B  826   7.248   0.674   7.353
   28POPC   C2B  827   7.392   0.509   6.936
   28POPC   C3B  828   7.445   0.375   6.502
   28POPC   C4B  829   7.267   0.595   6.142
   29POPC   NC3  830   7.971   8.726   8.117
   29POPC   PO4  831   8.592   8.618   8.116
   29POPC   GL1  832   8.350   8.819   7.735
   29POPC   GL2  833   7.998   9.019   7.703
   29POPC   C1A  834   8.089   8.634   7.369
   29POPC   D2A  835   7.910   8.769   6.950
   29POPC   C3A  836   8.142   8.636   6.582
   29POPC   C4A  837   7.987   8.550   6.173
   29POPC   C1B  838   8.038   9.123   7.284
   29POPC   C2B  839   8.367   9.002   6.998
   29POPC   C3B  840   8.379   9.085   6.593
   29POPC   C4B  841   8.025   9.057   6.290
   30POPC   NC3  842   6.384   9.614   8.204
   30POPC   PO4  843   6.896   9.192   8.111
   30POPC   GL1  844   6.840   9.483   7.724
   30POPC   GL2  845   6.587   9.772   7.715
   30POPC   C1A  846   6.772   9.599   7.255
   30POPC   D2A  847   6.706   9.479   6.818
   30POPC   C3A  848   6.712   9.767   6.462
   30POPC   C4A  849   6.812   9.476   6.121
   30POPC   C1B  850   6.290   9.762   7.381
   30POPC   C2B  851   6.305   9.749   6.960
   30POPC   C3B  852   6.168   9.653   6.562
   30POPC   C4B  853   6.167   9.833   6.181
   31POPC   NC3  854   2.329   5.358   8.248
   31POPC   PO4  855   3.040   5.299   8.183
   31POPC   GL1  856   2.705   5.485   7.860
   31POPC   GL2  857   2.569   5.832   7.840
   31POPC   C1A  858   2.654   5.515   7.366
   31POPC   D2A  859   2.822   5.396   6.920
   31POPC   C3A  860   2.684   5.488   6.476
   31POPC   C4A  861   2.907   5.571   6.066
   31POPC   C1B  862   2.639   6.015   7.400
   31POPC   C2B  863   2.754   5.913   6.943
   31POPC   C3B  864   2.685   6.011   6.474
   31POPC   C4B  865   2.283   6.171   6.269
   32POPC   NC3  866   8.105   2.068   8.234
   32POPC   PO4  867   7.913   1.566   7.830
   32POPC   GL1  868   8.135   1.786   7.557
   32POPC   GL2  869   8.324   2.025   7.761
   32POPC   C1A  870   8.446   1.634   7.262
   32POPC   D2A  871   8.496   1.567   6.813
   32POPC   C3A  872   8.059   1.620   6.636
   32POPC   C4A  873   7.763   1.559   6.267
   32POPC   C1B  874   8.445   2.134   7.350
   32POPC   C2B  875   8.235   1.993   6.962
   32POPC   C3B  876   8.102   2.175   6.589
   32POPC   C4B  877   8.129   1.913   6.226
   33POPC   NC3  878   4.601  10.964   8.061
   33POPC   PO4  879   4.203  10.388   8.253
   33POPC   GL1  880   4.523  10.285   7.761
   33POPC   GL2  881   4.267  10.363   7.484
   33POPC   C1A  882   4.708  10.301   7.308
   33POPC   D2A  883   4.613  10.598   6.955
   33POPC   C3A  884   4.738  10.399   6.557
   33POPC   C4A  885   4.750  10.519   6.132
   33POPC   C1B  886   4.008  10.118   7.228
   33POPC   C2B  887   3.902   9.970   6.819
   33POPC   C3B  888   3.944  10.152   6.392
   33POPC   C4B  889   4.278  10.449   6.306
   34POPC   NC3  890   7.326   8.126   8.004
   34POPC   PO4  891   6.759   8.300   7.961
   34POPC   GL1  892   7.107   8.484   7.667
   34POPC   GL2  893   7.445   8.378   7.574
   34POPC   C1A  894   7.121   8.491   7.204
   34POPC   D2A  895   7.262   8.224   6.831
   34POPC   C3A  896   7.130   8.297   6.389
   34POPC   C4A  897   6.792   8.101   6.149
   34POPC   C1B  898   7.644   8.377   7.175
   34POPC   C2B  899   7.753   8.330   6.740
   34POPC   C3B  900   7.629   8.221   6.335
   34POPC   C4B  901   7.662   8.269   5.884
   35POPC   NC3  902   0.969   6.794   7.908
   35POPC   PO4  903   0.938   6.143   8.112
   35POPC   GL1  904   0.978   6.333   7.684
   35POPC   GL2  905   1.331   6.458   7.710
   35POPC   C1A  906   1.067   6.561   7.265
   35POPC   D2A  907   0.977   6.864   6.907
   35POPC   C3A  908   1.075   6.650   6.490
   35POPC   C4A  909   1.044   6.502   6.054
   35POPC   C1B  910   1.558   6.478   7.297
   35POPC   C2B  911   1.433   6.584   6.879
   35POPC   C3B  912   1.568   6.841   6.566
   35POPC   C4B  913   1.500   6.756   6.152
   36POPC   NC3  914   3.261   5.704   8.143
   36POPC   PO4  915   3.034   6.267   8.316
   36POPC   GL1  916   3.018   6.147   7.794
   36POPC   GL2  917   3.055   5.808   7.658
   36POPC   C1A  918   3.117   6.172   7.265
   36POPC   D2A  919   3.241   5.991   6.806
   36POPC   C3A  920   3.178   6.240   6.378
   36POPC   C4A  921   3.312   6.376   5.938
   36POPC   C1B  922   3.145   5.664   7.233
   36POPC   C2B  923   3.523   5.586   6.978
   36POPC   C3B  924   3.642   5.709   6.570
   36POPC   C4B  925   3.276   5.751   6.351
   37POPC   NC3  926   8.318   0.611   8.001
   37POPC   PO4  927   8.124   0.017   8.038
   37POPC   GL1  928   8.319   0.202   7.653
   37POPC   GL2  929   8.055   0.447   7.574
   37POPC   C1A  930   8.426   0.349   7.201
   37POPC   D2A  931   8.124   0.297   6.832
   37POPC   C3A  932   8.216   0.389   6.388
   37POPC   C4A  933   8.318   0.081   6.012
   37POPC   C1B  934   7.835   0.626   7.199
   37POPC   C2B  935   7.826   0.695   6.730
   37POPC   C3B  936   7.791   0.670   6.262
   37POPC   C4B  937   7.661   0.691   5.812
   38POPC   NC3  938   1.552   2.594   7.903
   38POPC   PO4  939   0.998   2.929   8.043
   38POPC   GL1  940   1.031   2.703   7.700
   38POPC   GL2  941   1.304   2.940   7.625
   38POPC   C1A  942   1.195   2.547   7.297
   38POPC   D2A  943   1.280   2.691   6.877
   38POPC   C3A  944   1.352   2.469   6.482
   38POPC   C4A  945   1.394   2.607   6.045
   38POPC   C1B  946   1.010   3.090   7.350
   38POPC   C2B  947   0.870   3.010   6.955
   38POPC   C3B  948   0.997   3.116   6.567
   38POPC   C4B  949   0.818   2.961   6.196
   39POPC   NC3  950   0.579   2.717   8.098
   39POPC   PO4  951   0.748   2.122   7.942
   39POPC   GL1  952   0.543   2.446   7.671
   39POPC   GL2  953   0.265   2.704   7.691
   39POPC   C1A  954   0.668   2.675   7.322
   39POPC   D2A  955   0.806   2.442   6.968
   39POPC   C3A  956   0.876   2.611   6.575
   39POPC   C4A  957   0.888   2.437   6.154
   39POPC   C1B  958   0.136   2.772   7.255
   39POPC   C2B  959   0.385   2.743   6.875
   39POPC   C3B  960   0.410   2.750   6.436
   39POPC   C4B  961   0.083   2.769   6.145
   40POPC   NC3  962   4.995   1.813   8.082
   40POPC   PO4  963   4.765   2.480   8.161
   40POPC   GL1  964   4.914   2.247   7.785
   40POPC   GL2  965   4.683   2.007   7.720
   40POPC   C1A  966   4.896   2.223   7.291
   40POPC   D2A  967   5.122   2.218   6.859
   40POPC   C3A  968   5.012   2.296   6.397
   40POPC   C4A  969   5.268   2.425   6.024
   40POPC   C1B  970   4.842   1.709   7.404
   40POPC   C2B  971   4.814   1.827   6.952
   40POPC   C3B  972   5.032   1.808   6.552
   40POPC   C4B  973   4.842   1.688   6.158
   41POPC   NC3  974   8.859  10.613   8.088
   41POPC   PO4  975   8.360  10.118   8.234
   41POPC   GL1  976   8.467  10.415   7.839
   41POPC   GL2  977   8.785  10.353   7.654
   41POPC   C1A  978   8.391  10.465   7.346
   41POPC   D2A  979   8.526  10.261   6.906
   41POPC   C3A  980   8.559  10.503   6.479
   41POPC   C4A  981   8.475  10.611   5.992
   41POPC   C1B  982   8.903  10.185   7.256
   41POPC   C2B  983   9.034  10.309   6.823
   41POPC   C3B  984   8.925  10.170   6.413
   41POPC   C4B  985   8.940  10.405   6.073
   42POPC   NC3  986   7.534   2.227   8.043
   42POPC   PO4  987   7.831   1.709   8.339
   42POPC   GL1  988   7.459   1.734   7.871
   42POPC   GL2  989   7.632   1.969   7.620
   42POPC   C1A  990   7.490   1.603   7.338
   42POPC   D2A  991   7.744   1.856   6.979
   42POPC   C3A  992   7.639   1.972   6.502
   42POPC   C4A  993   7.328   1.855   6.161
   42POPC   C1B  994   7.357   2.080   7.247
   42POPC   C2B  995   7.253   1.942   6.826
   42POPC   C3B  996   7.170   2.220   6.472
   42POPC   C4B  997   6.901   2.166   6.094
   43POPC   NC3  998   7.624   1.234   7.964
   43POPC   PO4  999   6.957   1.270   8.073
   43POPC   GL1 1000   7.019   1.390   7.658
   43POPC   GL2 1001   7.257   1.132   7.629
   43POPC   C1A 1002   7.072   1.357   7.210
   43POPC   D2A 1003   7.015   1.451   6.797
   43POPC   C3A 1004   7.248   1.417   6.429
   43POPC   C4A 1005   7.157   1.428   5.968
   43POPC   C1B 1006   7.513   1.089   7.272
   43POPC   C2B 1007   7.267   0.997   6.911
   43POPC   C3B 1008   7.387   0.903   6.526
   43POPC   C4B 1009   7.470   1.070   6.126
   44POPC   NC3 1010   1.910   9.655   7.837
   44POPC   PO4 1011   2.323   9.169   8.053
   44POPC   GL1 1012   2.310   9.399   7.659
   44POPC   GL2 1013   2.048   9.255   7.485
   44POPC   C1A 1014   2.343   9.614   7.228
   44POPC   D2A 1015   2.311   9.363   6.854
   44POPC   C3A 1016   2.100   9.464   6.477
   44POPC   C4A 1017   2.131   9.767   6.151
   44POPC   C1B 1018   1.846   9.305   7.086
   44POPC   C2B 1019   1.721   9.636   6.792
   44POPC   C3B 1020   1.664   9.766   6.375
   44POPC   C4B 1021   1.692   9.924   5.967
   45POPC   NC3 1022  11.068   3.457   8.075
   45POPC   PO4 1023   0.088   3.228   7.756
   45POPC   GL1 1024  11.157   3.452   7.580
   45POPC   GL2 1025  11.014   3.822   7.721
   45POPC   C1A 1026  10.816   3.629   7.289
   45POPC   D2A 1027  10.766   3.592   6.849
   45POPC   C3A 1028  11.059   3.291   6.651
   45POPC   C4A 1029  11.085   3.140   6.219
   45POPC   C1B 1030  11.274   3.919   7.377
   45POPC   C2B 1031  11.260   3.710   6.988
   45POPC   C3B 1032  11.175   3.786   6.564
   45POPC   C4B 1033  11.455   3.543   6.283
   46POPC   NC3 1034   8.834   8.231   8.016
   46POPC   PO4 1035   8.489   7.769   7.783
   46POPC   GL1 1036   8.855   7.916   7.563
   46POPC   GL2 1037   8.810   8.257   7.500
   46POPC   C1A 1038   9.030   7.853   7.140
   46POPC   D2A 1039   9.108   7.951   6.687
   46POPC   C3A 1040   8.919   7.752   6.307
   46POPC   C4A 1041   8.653   7.740   5.896
   46POPC   C1B 1042   8.845   8.339   7.050
   46POPC   C2B 1043   9.175   8.470   6.779
   46POPC   C3B 1044   9.146   8.349   6.353
   46POPC   C4B 1045   8.890   8.166   6.012
   47POPC   NC3 1046   1.525   8.265   8.248
   47POPC   PO4 1047   0.974   7.915   8.099
   47POPC   GL1 1048   1.067   8.060   7.698
   47POPC   GL2 1049   0.981   7.750   7.577
   47POPC   C1A 1050   1.264   8.223   7.301
   47POPC   D2A 1051   1.256   8.531   6.965
   47POPC   C3A 1052   1.318   8.449   6.502
   47POPC   C4A 1053   1.080   8.342   6.130
   47POPC   C1B 1054   1.207   7.706   7.189
   47POPC   C2B 1055   1.282   7.984   6.831
   47POPC   C3B 1056   1.259   7.946   6.394
   47POPC   C4B 1057   1.478   7.739   6.121
   48POPC   NC3 1058   0.583  10.427   8.124
   48POPC   PO4 1059   0.046  10.020   8.263
   48POPC   GL1 1060   0.274  10.127   7.797
   48POPC   GL2 1061   0.358  10.485   7.677
   48POPC   C1A 1062   0.610  10.120   7.417
   48POPC   D2A 1063   0.477  10.028   6.970
   48POPC   C3A 1064   0.719  10.190   6.623
   48POPC   C4A 1065   0.710  10.411   6.235
   48POPC   C1B 1066   0.210  10.399   7.268
   48POPC   C2B 1067   0.344  10.515   6.874
   48POPC   C3B 1068   0.258  10.462   6.458
   48POPC   C4B 1069   0.137  10.775   6.192
   49POPC   NC3 1070   1.153   3.352   8.099
   49POPC   PO4 1071   0.752   3.892   7.903
   49POPC   GL1 1072   1.157   3.808   7.677
   49POPC   GL2 1073   1.316   3.482   7.639
   49POPC   C1A 1074   1.287   3.776   7.228
   49POPC   D2A 1075   1.155   3.517   6.882
   49POPC   C3A 1076   1.163   3.748   6.478
   49POPC   C4A 1077   1.080   3.556   6.112
   49POPC   C1B 1078   1.503   3.276   7.300
   49POPC   C2B 1079   1.493   3.137   6.890
   49POPC   C3B 1080   1.463   3.329   6.486
   49POPC   C4B 1081   1.291   3.107   6.143
   50POPC   NC3 1082   1.904   7.084   8.229
   50POPC   PO4 1083   1.280   7.059   8.103
   50POPC   GL1 1084   1.396   6.994   7.680
   50POPC   GL2 1085   1.290   7.349   7.675
   50POPC   C1A 1086   1.382   6.970   7.223
   50POPC   D2A 1087   1.324   7.279   6.911
   50POPC   C3A 1088   1.173   7.157   6.511
   50POPC   C4A 1089   1.407   7.250   6.156
   50POPC   C1B 1090   0.985   7.257   7.379
   50POPC   C2B 1091   0.807   7.371   6.990
   50POPC   C3B 1092   0.980   7.608   6.655
   50POPC   C4B 1093   0.981   7.537   6.215
   51POPC   NC3 1094   3.438   9.482   8.281
   51POPC   PO4 1095   3.490  10.151   8.162
   51POPC   GL1 1096   3.522   9.956   7.766
   51POPC   GL2 1097   3.626   9.618   7.757
   51POPC   C1A 1098   3.532   9.939   7.326
   51POPC   D2A 1099   3.231   9.824   7.025
   51POPC   C3A 1100   3.441   9.799   6.655
   51POPC   C4A 1101   3.480   9.977   6.278
   51POPC   C1B 1102   3.455   9.431   7.357
   51POPC   C2B 1103   3.309   9.329   6.911
   51POPC   C3B 1104   3.492   9.328   6.459
   51POPC   C4B 1105   3.789   9.279   6.089
   52POPC   NC3 1106   8.874   3.333   8.222
   52POPC   PO4 1107   9.158   3.863   8.118
   52POPC   GL1 1108   9.250   3.571   7.740
   52POPC   GL2 1109   9.040   3.271   7.736
   52POPC   C1A 1110   9.135   3.580   7.290
   52POPC   D2A 1111   8.872   3.558   6.904
   52POPC   C3A 1112   8.989   3.664   6.469
   52POPC   C4A 1113   8.879   3.830   6.055
   52POPC   C1B 1114   8.870   3.146   7.333
   52POPC   C2B 1115   9.045   3.086   6.931
   52POPC   C3B 1116   8.796   3.143   6.581
   52POPC   C4B 1117   8.670   3.364   6.191
   53POPC   NC3 1118   1.709   5.281   7.984
   53POPC   PO4 1119   2.166   5.785   8.197
   53POPC   GL1 1120   2.110   5.580   7.773
   53POPC   GL2 1121   1.751   5.679   7.659
   53POPC   C1A 1122   2.113   5.703   7.300
   53POPC   D2A 1123   1.895   5.734   6.883
   53POPC   C3A 1124   2.146   5.702   6.489
   53POPC   C4A 1125   2.006   5.484   6.094
   53POPC   C1B 1126   1.629   5.959   7.292
   53POPC   C2B 1127   1.397   6.077   6.905
   53POPC   C3B 1128   1.449   6.200   6.482
   53POPC   C4B 1129   1.725   5.900   6.268
   54POPC   NC3 1130  11.078   9.808   8.141
   54POPC   PO4 1131   0.015   9.265   8.076
   54POPC   GL1 1132  11.440   9.454   7.656
   54POPC   GL2 1133  11.096   9.601   7.687
   54POPC   C1A 1134  11.272   9.588   7.221
   54POPC   D2A 1135  11.278   9.841   6.830
   54POPC   C3A 1136  11.432   9.626   6.484
   54POPC   C4A 1137  11.460   9.616   6.065
   54POPC   C1B 1138  10.862   9.864   7.384
   54POPC   C2B 1139  10.795   9.691   6.940
   54POPC   C3B 1140  10.921   9.563   6.510
   54POPC   C4B 1141  11.102   9.275   6.217
   55POPC   NC3 1142  10.780   5.094   8.085
   55POPC   PO4 1143  10.172   5.453   8.138
   55POPC   GL1 1144  10.267   5.269   7.722
   55POPC   GL2 1145  10.455   4.956   7.695
   55POPC   C1A 1146  10.377   5.378   7.292
   55POPC   D2A 1147  10.480   5.247   6.875
   55POPC   C3A 1148  10.172   5.258   6.566
   55POPC   C4A 1149  10.209   4.941   6.252
   55POPC   C1B 1150  10.661   4.809   7.317
   55POPC   C2B 1151  10.637   4.749   6.882
   55POPC   C3B 1152  10.678   4.881   6.454
   55POPC   C4B 1153  10.606   4.694   6.039
   56POPC   NC3 1154   5.908   0.575   8.142
   56POPC   PO4 1155   5.275   0.349   8.261
   56POPC   GL1 1156   5.511   0.493   7.816
   56POPC   GL2 1157   5.680   0.747   7.716
   56POPC   C1A 1158   5.747   0.350   7.390
   56POPC   D2A 1159   5.666   0.289   6.932
   56POPC   C3A 1160   6.015   0.218   6.612
   56POPC   C4A 1161   6.006   0.115   6.159
   56POPC   C1B 1162   6.036   0.777   7.454
   56POPC   C2B 1163   6.105   0.878   7.014
   56POPC   C3B 1164   5.847   0.723   6.674
   56POPC   C4B 1165   5.788   0.560   6.271
   57POPC   NC3 1166   9.520  10.973   8.213
   57POPC   PO4 1167   9.212  10.630   7.770
   57POPC   GL1 1168   9.457  10.993   7.653
   57POPC   GL2 1169   9.489  11.365   7.706
   57POPC   C1A 1170   9.456  11.146   7.219
   57POPC   D2A 1171   9.714  11.023   6.856
   57POPC   C3A 1172   9.515  10.945   6.455
   57POPC   C4A 1173   9.778  10.993   6.082
   57POPC   C1B 1174   9.794  11.494   7.368
   57POPC   C2B 1175   9.652   0.045   6.904
   57POPC   C3B 1176   9.675  11.426   6.449
   57POPC   C4B 1177   9.755  11.492   6.000
   58POPC   NC3 1178  10.564   8.338   8.355
   58POPC   PO4 1179   9.990   8.469   7.935
   58POPC   GL1 1180  10.079   8.296   7.590
   58POPC   GL2 1181  10.265   7.990   7.694
   58POPC   C1A 1182  10.178   8.220   7.188
   58POPC   D2A 1183  10.351   8.089   6.813
   58POPC   C3A 1184  10.267   8.316   6.470
   58POPC   C4A 1185  10.286   8.181   6.056
   58POPC   C1B 1186  10.600   8.017   7.376
   58POPC   C2B 1187  10.825   8.186   7.017
   58POPC   C3B 1188  10.795   8.254   6.574
   58POPC   C4B 1189  10.591   7.914   6.352
   59POPC   NC3 1190   4.593   1.223   8.050
   59POPC   PO4 1191   4.115   0.767   8.120
   59POPC   GL1 1192   4.018   1.036   7.766
   59POPC   GL2 1193   4.360   0.990   7.672
   59POPC   C1A 1194   3.912   0.928   7.326
   59POPC   D2A 1195   4.162   0.944   6.939
   59POPC   C3A 1196   4.001   0.933   6.538
   59POPC   C4A 1197   4.305   1.151   6.392
   59POPC   C1B 1198   4.310   1.258   7.316
   59POPC   C2B 1199   4.546   1.383   6.970
   59POPC   C3B 1200   4.572   1.533   6.569
   59POPC   C4B 1201   4.173   1.661   6.369
   60POPC   NC3 1202   1.343   4.836   8.196
   60POPC   PO4 1203   2.038   5.008   8.159
   60POPC   GL1 1204   2.025   4.930   7.717
   60POPC   GL2 1205   1.878   5.188   7.525
   60POPC   C1A 1206   1.993   4.739   7.309
   60POPC   D2A 1207   1.892   5.035   6.972
   60POPC   C3A 1208   1.863   4.819   6.581
   60POPC   C4A 1209   1.808   5.025   6.204
   60POPC   C1B 1210   2.247   5.210   7.309
   60POPC   C2B 1211   2.301   5.371   6.880
   60POPC   C3B 1212   2.241   5.199   6.450
   60POPC   C4B 1213   2.495   5.212   6.056
   61POPC   NC3 1214   9.803   5.160   8.220
   61POPC   PO4 1215   9.749   4.502   8.033
   61POPC   GL1 1216   9.943   4.841   7.755
   61POPC   GL2 1217   9.757   5.163   7.716
   61POPC   C1A 1218  10.065   4.976   7.311
   61POPC   D2A 1219  10.127   4.841   6.862
   61POPC   C3A 1220   9.796   4.917   6.522
   61POPC   C4A 1221   9.621   4.784   6.139
   61POPC   C1B 1222   9.563   5.083   7.313
   61POPC   C2B 1223   9.561   5.204   6.862
   61POPC   C3B 1224   9.364   5.196   6.434
   61POPC   C4B 1225   9.395   5.212   5.985
   62POPC   NC3 1226  11.279  11.121   8.124
   62POPC   PO4 1227  10.732  11.486   8.151
   62POPC   GL1 1228  11.063  11.474   7.798
   62POPC   GL2 1229  10.796  11.425   7.577
   62POPC   C1A 1230  11.275   0.018   7.376
   62POPC   D2A 1231  11.051   0.032   6.983
   62POPC   C3A 1232  11.324  11.484   6.627
   62POPC   C4A 1233  11.241  11.492   6.189
   62POPC   C1B 1234  10.984  11.105   7.323
   62POPC   C2B 1235  11.144  11.041   6.914
   62POPC   C3B 1236  11.271  10.989   6.485
   62POPC   C4B 1237  11.046  10.824   6.138
   63POPC   NC3 1238  10.207   3.452   8.260
   63POPC   PO4 1239  10.684   3.248   7.873
   63POPC   GL1 1240  10.347   3.289   7.592
   63POPC   GL2 1241  10.220   3.589   7.767
   63POPC   C1A 1242  10.396   3.300   7.128
   63POPC   D2A 1243  10.281   3.363   6.680
   63POPC   C3A 1244  10.624   3.499   6.367
   63POPC   C4A 1245  10.634   3.343   5.941
   63POPC   C1B 1246  10.160   3.742   7.366
   63POPC   C2B 1247  10.306   3.783   6.954
   63POPC   C3B 1248  10.199   3.876   6.543
   63POPC   C4B 1249  10.240   3.712   6.124
   64POPC   NC3 1250   6.711   0.037   8.345
   64POPC   PO4 1251   6.374   0.588   8.141
   64POPC   GL1 1252   6.247   0.405   7.730
   64POPC   GL2 1253   6.509   0.154   7.691
   64POPC   C1A 1254   6.265   0.354   7.252
   64POPC   D2A 1255   6.487   0.275   6.843
   64POPC   C3A 1256   6.395   0.617   6.537
   64POPC   C4A 1257   6.264   0.541   6.108
   64POPC   C1B 1258   6.770   0.413   7.394
   64POPC   C2B 1259   6.894   0.573   6.974
   64POPC   C3B 1260   6.921   0.476   6.529
   64POPC   C4B 1261   6.762   0.641   6.120
   65POPC   NC3 1262   4.668  10.380   8.231
   65POPC   PO4 1263   5.007  10.981   8.301
   65POPC   GL1 1264   4.959  10.636   7.878
   65POPC   GL2 1265   4.766  10.743   7.559
   65POPC   C1A 1266   5.167  10.426   7.475
   65POPC   D2A 1267   5.092  10.457   6.974
   65POPC   C3A 1268   5.170  10.127   6.651
   65POPC   C4A 1269   5.048  10.104   6.188
   65POPC   C1B 1270   5.168  10.880   7.268
   65POPC   C2B 1271   5.321  10.906   6.811
   65POPC   C3B 1272   5.171  10.684   6.416
   65POPC   C4B 1273   5.226  10.571   5.941
   66POPC   NC3 1274  11.497   5.447   8.118
   66POPC   PO4 1275   0.007   4.706   8.122
   66POPC   GL1 1276  11.186   4.839   7.858
   66POPC   GL2 1277  11.174   5.215   7.781
   66POPC   C1A 1278  11.154   4.846   7.421
   66POPC   D2A 1279  11.126   4.647   7.018
   66POPC   C3A 1280  11.159   4.888   6.663
   66POPC   C4A 1281  11.148   4.765   6.254
   66POPC   C1B 1282  10.841   5.264   7.466
   66POPC   C2B 1283  10.952   5.157   7.045
   66POPC   C3B 1284  10.934   5.360   6.632
   66POPC   C4B 1285  10.604   5.373   6.320
   67POPC   NC3 1286   7.920  10.278   8.127
   67POPC   PO4 1287   8.463   9.935   7.735
   67POPC   GL1 1288   8.066  10.158   7.644
   67POPC   GL2 1289   7.999  10.554   7.710
   67POPC   C1A 1290   7.884  10.326   7.253
   67POPC   D2A 1291   8.046  10.457   6.856
   67POPC   C3A 1292   8.156  10.146   6.563
   67POPC   C4A 1293   7.887  10.224   6.265
   67POPC   C1B 1294   7.796  10.789   7.406
   67POPC   C2B 1295   7.673  10.797   6.961
   67POPC   C3B 1296   7.889  10.901   6.606
   67POPC   C4B 1297   8.115  10.674   6.336
   68POPC   NC3 1298   4.565   2.835   8.469
   68POPC   PO4 1299   4.003   2.594   8.111
   68POPC   GL1 1300   4.195   2.645   7.698
   68POPC   GL2 1301   4.004   2.945   7.642
   68POPC   C1A 1302   4.490   2.584   7.308
   68POPC   D2A 1303   4.540   2.310   6.927
   68POPC   C3A 1304   4.583   2.546   6.537
   68POPC   C4A 1305   4.477   2.436   6.113
   68POPC   C1B 1306   3.988   2.741   7.229
   68POPC   C2B 1307   4.173   2.762   6.792
   68POPC   C3B 1308   4.154   2.781   6.323
   68POPC   C4B 1309   4.424   2.942   5.980
   69POPC   NC3 1310   1.389   6.207   8.186
   69POPC   PO4 1311   1.229   5.566   7.979
   69POPC   GL1 1312   1.240   5.888   7.675
   69POPC   GL2 1313   1.285   5.619   7.451
   69POPC   C1A 1314   1.043   6.033   7.256
   69POPC   D2A 1315   0.888   5.895   6.807
   69POPC   C3A 1316   0.939   6.130   6.398
   69POPC   C4A 1317   0.782   6.063   5.944
   69POPC   C1B 1318   1.586   5.440   7.194
   69POPC   C2B 1319   1.385   5.560   6.820
   69POPC   C3B 1320   1.257   5.713   6.426
   69POPC   C4B 1321   1.501   5.431   6.205
   70POPC   NC3 1322   3.502   0.086   8.164
   70POPC   PO4 1323   3.321  10.835   8.126
   70POPC   GL1 1324   3.510  10.983   7.722
   70POPC   GL2 1325   3.582  11.341   7.713
   70POPC   C1A 1326   3.764  11.003   7.323
   70POPC   D2A 1327   3.931  11.280   6.995
   70POPC   C3A 1328   3.771  11.154   6.580
   70POPC   C4A 1329   3.763  11.223   6.131
   70POPC   C1B 1330   3.330  11.335   7.324
   70POPC   C2B 1331   3.158  11.374   6.888
   70POPC   C3B 1332   3.303  11.341   6.428
   70POPC   C4B 1333   3.358  10.899   6.269
   71POPC   NC3 1334  11.122   4.456   8.266
   71POPC   PO4 1335  11.420   3.902   8.048
   71POPC   GL1 1336  11.373   4.281   7.807
   71POPC   GL2 1337  11.040   4.347   7.772
   71POPC   C1A 1338  11.428   4.416   7.363
   71POPC   D2A 1339  11.469   4.205   6.976
   71POPC   C3A 1340  11.395   4.330   6.559
   71POPC   C4A 1341  11.384   4.054   6.192
   71POPC   C1B 1342  10.938   4.325   7.367
   71POPC   C2B 1343  10.977   4.146   6.956
   71POPC   C3B 1344  10.907   4.427   6.588
   71POPC   C4B 1345  10.948   4.301   6.167
   72POPC   NC3 1346   9.366   4.268   8.104
   72POPC   PO4 1347  10.006   3.892   8.154
   72POPC   GL1 1348   9.843   3.950   7.730
   72POPC   GL2 1349  10.006   4.196   7.549
   72POPC   C1A 1350   9.617   3.794   7.340
   72POPC   D2A 1351   9.334   3.887   6.940
   72POPC   C3A 1352   9.458   3.891   6.498
   72POPC   C4A 1353   9.808   4.041   6.266
   72POPC   C1B 1354   9.765   4.549   7.360
   72POPC   C2B 1355   9.650   4.676   6.950
   72POPC   C3B 1356   9.617   4.441   6.551
   72POPC   C4B 1357   9.323   4.341   6.242
   73POPC   NC3 1358   2.656   8.122   8.074
   73POPC   PO4 1359   2.184   7.459   8.251
   73POPC   GL1 1360   2.086   7.473   7.807
   73POPC   GL2 1361   1.808   7.300   7.755
   73POPC   C1A 1362   2.130   7.511   7.339
   73POPC   D2A 1363   2.198   7.713   6.910
   73POPC   C3A 1364   2.196   7.519   6.491
   73POPC   C4A 1365   1.989   7.619   6.110
   73POPC   C1B 1366   1.648   7.391   7.336
   73POPC   C2B 1367   1.844   7.290   6.950
   73POPC   C3B 1368   1.726   7.325   6.538
   73POPC   C4B 1369   1.889   7.111   6.176
   74POPC   NC3 1370  10.632   1.286   8.391
   74POPC   PO4 1371  10.093   0.809   8.313
   74POPC   GL1 1372  10.221   0.982   7.886
   74POPC   GL2 1373  10.264   1.362   7.827
   74POPC   C1A 1374  10.301   1.032   7.438
   74POPC   D2A 1375  10.023   0.936   7.100
   74POPC   C3A 1376  10.055   1.045   6.664
   74POPC   C4A 1377  10.439   1.029   6.380
   74POPC   C1B 1378  10.154   1.505   7.365
   74POPC   C2B 1379  10.296   1.384   6.954
   74POPC   C3B 1380  10.235   1.500   6.498
   74POPC   C4B 1381  10.381   1.452   6.042
   75POPC   NC3 1382   0.535   4.779   8.023
   75POPC   PO4 1383   0.453   5.488   7.930
   75POPC   GL1 1384   0.508   5.137   7.658
   75POPC   GL2 1385   0.160   5.037   7.712
   75POPC   C1A 1386   0.626   5.068   7.229
   75POPC   D2A 1387   0.393   5.135   6.839
   75POPC   C3A 1388   0.597   5.050   6.474
   75POPC   C4A 1389   0.872   4.748   6.364
   75POPC   C1B 1390   0.148   4.876   7.271
   75POPC   C2B 1391   0.110   4.707   6.843
   75POPC   C3B 1392   0.110   4.935   6.424
   75POPC   C4B 1393   0.270   5.323   6.183
   76POPC   NC3 1394   0.976   7.439   8.119
   76POPC   PO4 1395   0.435   7.706   8.368
   76POPC   GL1 1396   0.564   7.647   7.873
   76POPC   GL2 1397   0.425   7.343   7.705
   76POPC   C1A 1398   0.537   7.674   7.367
   76POPC   D2A 1399   0.298   7.508   7.028
   76POPC   C3A 1400   0.481   7.631   6.648
   76POPC   C4A 1401   0.460   7.524   6.244
   76POPC   C1B 1402   0.506   7.101   7.364
   76POPC   C2B 1403   0.444   6.985   6.967
   76POPC   C3B 1404   0.405   7.128   6.589
   76POPC   C4B 1405   0.695   7.066   6.278
   77POPC   NC3 1406   2.051   4.434   7.985
   77POPC   PO4 1407   1.500   4.007   8.063
   77POPC   GL1 1408   1.639   4.208   7.673
   77POPC   GL2 1409   1.973   4.224   7.522
   77POPC   C1A 1410   1.574   4.369   7.236
   77POPC   D2A 1411   1.742   4.095   6.904
   77POPC   C3A 1412   1.623   4.142   6.456
   77POPC   C4A 1413   1.684   4.514   6.185
   77POPC   C1B 1414   2.193   3.980   7.175
   77POPC   C2B 1415   2.307   4.113   6.761
   77POPC   C3B 1416   2.108   4.354   6.426
   77POPC   C4B 1417   2.218   4.731   6.182
   78POPC   NC3 1418   7.131  10.258   8.040
   78POPC   PO4 1419   7.603  10.688   8.166
   78POPC   GL1 1420   7.462  10.565   7.739
   78POPC   GL2 1421   7.564  10.255   7.679
   78POPC   C1A 1422   7.298  10.702   7.292
   78POPC   D2A 1423   7.100  10.660   6.857
   78POPC   C3A 1424   7.432  10.518   6.560
   78POPC   C4A 1425   7.627  10.733   6.217
   78POPC   C1B 1426   7.372  10.212   7.318
   78POPC   C2B 1427   7.212  10.188   6.920
   78POPC   C3B 1428   7.210  10.052   6.487
   78POPC   C4B 1429   6.981  10.117   6.125
   79POPC   NC3 1430   1.989   1.116   8.086
   79POPC   PO4 1431   2.269   1.592   7.836
   79POPC   GL1 1432   2.044   1.323   7.584
   79POPC   GL2 1433   1.707   1.321   7.704
   79POPC   C1A 1434   2.144   1.132   7.173
   79POPC   D2A 1435   2.306   0.926   6.782
   79POPC   C3A 1436   2.107   1.164   6.418
   79POPC   C4A 1437   2.232   1.459   6.103
   79POPC   C1B 1438   1.626   1.129   7.310
   79POPC   C2B 1439   1.524   1.290   6.915
   79POPC   C3B 1440   1.573   1.170   6.504
   79POPC   C4B 1441   1.673   0.984   6.135
   80POPC   NC3 1442  10.412   9.115   8.185
   80POPC   PO4 1443  10.642   9.733   8.297
   80POPC   GL1 1444  10.555   9.709   7.812
   80POPC   GL2 1445  10.185   9.781   7.705
   80POPC   C1A 1446  10.477   9.549   7.350
   80POPC   D2A 1447  10.272   9.643   6.939
   80POPC   C3A 1448  10.346   9.566   6.490
   80POPC   C4A 1449  10.592   9.828   6.207
   80POPC   C1B 1450  10.144  10.006   7.293
   80POPC   C2B 1451   9.960  10.043   6.846
   80POPC   C3B 1452  10.160  10.083   6.399
   80POPC   C4B 1453  10.167   9.894   5.938
   81POPC   NC3 1454   1.811   3.669   8.007
   81POPC   PO4 1455   2.392   3.994   7.999
   81POPC   GL1 1456   2.169   3.772   7.650
   81POPC   GL2 1457   2.092   3.433   7.655
   81POPC   C1A 1458   1.794   3.720   7.344
   81POPC   D2A 1459   1.751   3.566   6.907
   81POPC   C3A 1460   1.979   3.780   6.578
   81POPC   C4A 1461   2.305   3.892   6.295
   81POPC   C1B 1462   2.006   3.235   7.252
   81POPC   C2B 1463   1.991   3.043   6.845
   81POPC   C3B 1464   1.972   3.280   6.478
   81POPC   C4B 1465   1.802   3.575   6.159
   82POPC   NC3 1466  10.303   2.155   8.047
   82POPC   PO4 1467   9.855   1.632   8.023
   82POPC   GL1 1468   9.718   1.716   7.616
   82POPC   GL2 1469   9.333   1.594   7.547
   82POPC   C1A 1470   9.945   1.980   7.305
   82POPC   D2A 1471  10.104   1.864   6.889
   82POPC   C3A 1472   9.835   1.851   6.491
   82POPC   C4A 1473   9.928   1.682   6.095
   82POPC   C1B 1474   9.481   1.828   7.189
   82POPC   C2B 1475   9.685   2.127   6.884
   82POPC   C3B 1476   9.612   2.364   6.489
   82POPC   C4B 1477   9.387   2.360   6.078
   83POPC   NC3 1478   0.817   5.686   8.184
   83POPC   PO4 1479   0.187   5.865   8.248
   83POPC   GL1 1480   0.211   5.943   7.782
   83POPC   GL2 1481   0.579   5.984   7.756
   83POPC   C1A 1482   0.207   5.732   7.351
   83POPC   D2A 1483   0.544   5.574   7.068
   83POPC   C3A 1484   0.460   5.590   6.617
   83POPC   C4A 1485   0.712   5.666   6.260
   83POPC   C1B 1486   0.540   6.101   7.313
   83POPC   C2B 1487   0.370   6.043   6.895
   83POPC   C3B 1488   0.439   6.078   6.445
   83POPC   C4B 1489   0.149   5.820   6.238
   84POPC   NC3 1490  10.348  10.109   8.102
   84POPC   PO4 1491  10.021  10.762   8.082
   84POPC   GL1 1492  10.168  10.441   7.720
   84POPC   GL2 1493  10.486  10.199   7.632
   84POPC   C1A 1494  10.314  10.536   7.293
   84POPC   D2A 1495  10.232  10.801   6.947
   84POPC   C3A 1496  10.284  10.628   6.558
   84POPC   C4A 1497  10.224  10.764   6.140
   84POPC   C1B 1498  10.821  10.398   7.404
   84POPC   C2B 1499  10.787  10.690   7.065
   84POPC   C3B 1500  10.824  10.728   6.621
   84POPC   C4B 1501  10.670  10.508   6.247
   85POPC   NC3 1502   4.394   0.461   7.912
   85POPC   PO4 1503   4.019  11.482   8.131
   85POPC   GL1 1504   3.963   0.191   7.692
   85POPC   GL2 1505   3.993   0.545   7.636
   85POPC   C1A 1506   4.038   0.254   7.211
   85POPC   D2A 1507   3.939   0.504   6.823
   85POPC   C3A 1508   4.040   0.352   6.387
   85POPC   C4A 1509   4.124   0.368   5.945
   85POPC   C1B 1510   4.337   0.652   7.319
   85POPC   C2B 1511   4.476   0.528   6.968
   85POPC   C3B 1512   4.421   0.653   6.566
   85POPC   C4B 1513   4.561   0.520   6.204
   86POPC   NC3 1514   1.947   1.817   8.086
   86POPC   PO4 1515   1.997   2.486   7.860
   86POPC   GL1 1516   2.081   2.228   7.576
   86POPC   GL2 1517   1.954   1.877   7.564
   86POPC   C1A 1518   2.124   2.324   7.150
   86POPC   D2A 1519   1.998   2.046   6.829
   86POPC   C3A 1520   2.068   2.211   6.417
   86POPC   C4A 1521   1.869   2.460   6.126
   86POPC   C1B 1522   1.826   1.619   7.210
   86POPC   C2B 1523   1.957   1.509   6.779
   86POPC   C3B 1524   1.809   1.614   6.359
   86POPC   C4B 1525   1.923   1.880   6.011
   87POPC   NC3 1526   9.588   3.708   8.100
   87POPC   PO4 1527   9.868   3.159   8.161
   87POPC   GL1 1528   9.805   3.292   7.715
   87POPC   GL2 1529   9.524   3.118   7.734
   87POPC   C1A 1530   9.875   3.357   7.223
   87POPC   D2A 1531   9.823   3.718   6.866
   87POPC   C3A 1532   9.819   3.538   6.445
   87POPC   C4A 1533   9.825   3.128   6.486
   87POPC   C1B 1534   9.409   3.157   7.318
   87POPC   C2B 1535   9.454   3.373   6.917
   87POPC   C3B 1536   9.325   3.283   6.516
   87POPC   C4B 1537   9.355   3.441   6.128
   88POPC   NC3 1538   8.844   9.042   8.159
   88POPC   PO4 1539   9.242   8.477   8.063
   88POPC   GL1 1540   8.930   8.693   7.745
   88POPC   GL2 1541   8.887   9.062   7.662
   88POPC   C1A 1542   8.699   8.750   7.330
   88POPC   D2A 1543   8.850   8.836   6.906
   88POPC   C3A 1544   8.706   8.668   6.521
   88POPC   C4A 1545   8.447   8.806   6.169
   88POPC   C1B 1546   8.985   9.213   7.236
   88POPC   C2B 1547   8.796   9.318   6.797
   88POPC   C3B 1548   8.833   9.174   6.330
   88POPC   C4B 1549   9.150   9.148   5.967
   89POPC   NC3 1550   2.655   1.362   8.032
   89POPC   PO4 1551   2.286   0.767   8.134
   89POPC   GL1 1552   2.430   0.981   7.687
   89POPC   GL2 1553   2.580   1.325   7.541
   89POPC   C1A 1554   2.675   0.933   7.255
   89POPC   D2A 1555   2.830   0.803   6.843
   89POPC   C3A 1556   2.692   0.940   6.439
   89POPC   C4A 1557   2.412   0.859   6.154
   89POPC   C1B 1558   3.022   1.343   7.370
   89POPC   C2B 1559   3.143   1.235   6.928
   89POPC   C3B 1560   3.076   1.252   6.494
   89POPC   C4B 1561   2.716   1.437   6.249
   90POPC   NC3 1562   9.631   8.231   8.116
   90POPC   PO4 1563   9.440   7.673   8.078
   90POPC   GL1 1564   9.321   8.065   7.735
   90POPC   GL2 1565   9.557   8.367   7.660
   90POPC   C1A 1566   9.274   8.263   7.294
   90POPC   D2A 1567   9.499   8.132   6.971
   90POPC   C3A 1568   9.557   8.170   6.582
   90POPC   C4A 1569   9.469   7.937   6.227
   90POPC   C1B 1570   9.742   7.997   7.380
   90POPC   C2B 1571   9.912   7.844   6.914
   90POPC   C3B 1572   9.965   7.913   6.427
   90POPC   C4B 1573   9.819   8.327   6.184
   91POPC   NC3 1574   6.725   1.665   8.033
   91POPC   PO4 1575   7.067   2.230   7.959
   91POPC   GL1 1576   6.998   1.906   7.628
   91POPC   GL2 1577   6.610   1.815   7.576
   91POPC   C1A 1578   6.901   1.841   7.179
   91POPC   D2A 1579   6.756   2.073   6.822
   91POPC   C3A 1580   6.862   1.822   6.492
   91POPC   C4A 1581   6.746   1.660   6.163
   91POPC   C1B 1582   6.227   1.775   7.303
   91POPC   C2B 1583   6.117   1.909   6.881
   91POPC   C3B 1584   6.350   1.953   6.510
   91POPC   C4B 1585   6.257   2.292   6.226
   92POPC   NC3 1586   6.288   3.409   8.313
   92POPC   PO4 1587   6.614   3.002   8.159
   92POPC   GL1 1588   6.434   3.233   7.773
   92POPC   GL2 1589   6.486   3.577   7.848
   92POPC   C1A 1590   6.374   3.214   7.267
   92POPC   D2A 1591   6.617   3.234   6.856
   92POPC   C3A 1592   6.427   3.220   6.418
   92POPC   C4A 1593   6.491   3.171   5.950
   92POPC   C1B 1594   6.632   3.619   7.428
   92POPC   C2B 1595   6.432   3.693   7.030
   92POPC   C3B 1596   6.578   3.681   6.600
   92POPC   C4B 1597   6.531   3.665   6.148
   93POPC   NC3 1598   8.121   1.362   8.188
   93POPC   PO4 1599   7.822   0.778   7.972
   93POPC   GL1 1600   7.955   1.075   7.612
   93POPC   GL2 1601   8.280   1.246   7.632
   93POPC   C1A 1602   7.952   1.349   7.204
   93POPC   D2A 1603   7.645   1.360   6.830
   93POPC   C3A 1604   7.855   1.133   6.486
   93POPC   C4A 1605   7.949   1.106   6.025
   93POPC   C1B 1606   8.291   0.845   7.319
   93POPC   C2B 1607   8.348   0.764   6.849
   93POPC   C3B 1608   8.311   0.911   6.401
   93POPC   C4B 1609   8.318   1.368   6.277
   94POPC   NC3 1610   6.423  10.726   8.107
   94POPC   PO4 1611   6.571  10.046   8.133
   94POPC   GL1 1612   6.615  10.336   7.774
   94POPC   GL2 1613   6.960  10.442   7.603
   94POPC   C1A 1614   6.471  10.454   7.367
   94POPC   D2A 1615   6.536  10.571   6.907
   94POPC   C3A 1616   6.248  10.658   6.569
   94POPC   C4A 1617   6.224  10.642   6.106
   94POPC   C1B 1618   6.845  10.097   7.351
   94POPC   C2B 1619   6.734  10.030   6.932
   94POPC   C3B 1620   6.781  10.291   6.577
   94POPC   C4B 1621   6.484  10.226   6.302
   95POPC   NC3 1622   6.881   2.648   8.049
   95POPC   PO4 1623   7.565   2.690   8.210
   95POPC   GL1 1624   7.346   2.705   7.779
   95POPC   GL2 1625   7.395   2.422   7.607
   95POPC   C1A 1626   7.036   2.668   7.373
   95POPC   D2A 1627   7.080   2.458   6.934
   95POPC   C3A 1628   7.080   2.722   6.525
   95POPC   C4A 1629   6.914   3.094   6.262
   95POPC   C1B 1630   7.508   2.577   7.203
   95POPC   C2B 1631   7.576   2.344   6.839
   95POPC   C3B 1632   7.609   2.497   6.443
   95POPC   C4B 1633   7.457   2.837   6.171
   96POPC   NC3 1634  11.114   2.084   8.120
   96POPC   PO4 1635  11.444   1.464   8.022
   96POPC   GL1 1636  11.314   1.780   7.736
   96POPC   GL2 1637  11.336   1.537   7.475
   96POPC   C1A 1638  11.087   1.971   7.375
   96POPC   D2A 1639  11.079   1.768   6.963
   96POPC   C3A 1640  11.137   2.019   6.568
   96POPC   C4A 1641  11.157   1.846   6.154
   96POPC   C1B 1642   0.052   1.797   7.190
   96POPC   C2B 1643   0.042   1.783   6.767
   96POPC   C3B 1644   0.146   1.902   6.397
   96POPC   C4B 1645   0.268   1.522   6.263
   97POPC   NC3 1646   5.263   0.805   8.153
   97POPC   PO4 1647   5.028   1.371   7.987
   97POPC   GL1 1648   4.915   1.095   7.670
   97POPC   GL2 1649   5.240   0.995   7.641
   97POPC   C1A 1650   4.904   0.892   7.244
   97POPC   D2A 1651   4.758   0.941   6.830
   97POPC   C3A 1652   4.932   0.818   6.452
   97POPC   C4A 1653   4.747   1.052   6.136
   97POPC   C1B 1654   5.203   1.329   7.318
   97POPC   C2B 1655   5.064   1.384   6.901
   97POPC   C3B 1656   5.037   1.313   6.471
   97POPC   C4B 1657   5.274   1.396   6.105
   98POPC   NC3 1658   0.303   3.650   7.868
   98POPC   PO4 1659   0.335   3.057   8.261
   98POPC   GL1 1660   0.583   3.106   7.771
   98POPC   GL2 1661   0.798   3.394   7.713
   98POPC   C1A 1662   0.488   3.153   7.270
   98POPC   D2A 1663   0.084   3.222   6.994
   98POPC   C3A 1664   0.056   3.106   6.546
   98POPC   C4A 1665   0.365   3.216   6.194
   98POPC   C1B 1666   0.797   3.568   7.269
   98POPC   C2B 1667   0.627   3.492   6.823
   98POPC   C3B 1668   0.639   3.649   6.369
   98POPC   C4B 1669   0.578   3.606   5.895
   99POPC   NC3 1670  10.280   6.581   8.002
   99POPC   PO4 1671  10.758   7.034   7.778
   99POPC   GL1 1672  10.433   6.868   7.592
   99POPC   GL2 1673  10.609   6.547   7.620
   99POPC   C1A 1674  10.515   6.768   7.166
   99POPC   D2A 1675  10.484   6.678   6.721
   99POPC   C3A 1676  10.604   6.973   6.427
   99POPC   C4A 1677  10.345   7.015   6.087
   99POPC   C1B 1678  10.540   6.269   7.274
   99POPC   C2B 1679  10.288   6.235   6.903
   99POPC   C3B 1680  10.372   6.243   6.460
   99POPC   C4B 1681  10.250   6.155   6.025
  100POPC   NC3 1682  10.540   5.829   8.123
  100POPC   PO4 1683   9.945   6.183   7.993
  100POPC   GL1 1684  10.327   6.105   7.728
  100POPC   GL2 1685  10.208   5.776   7.714
  100POPC   C1A 1686  10.620   5.796   7.452
  100POPC   D2A 1687  10.785   5.636   7.067
  100POPC   C3A 1688  10.735   5.928   6.730
  100POPC   C4A 1689  10.687   5.883   6.285
  100POPC   C1B 1690  10.154   5.897   7.283
  100POPC   C2B 1691  10.286   5.719   6.891
  100POPC   C3B 1692  10.229   5.748   6.445
  100POPC   C4B 1693  10.310   5.652   5.981
  101POPC   NC3 1694  11.452   2.876   8.064
  101POPC   PO4 1695  10.850   3.138   8.350
  101POPC   GL1 1696  10.972   2.857   7.857
  101POPC   GL2 1697  11.265   2.847   7.606
  101POPC   C1A 1698  10.867   2.966   7.352
  101POPC   D2A 1699  11.159   2.907   7.022
  101POPC   C3A 1700  11.044   2.617   6.734
  101POPC   C4A 1701  11.067   2.631   6.329
  101POPC   C1B 1702  11.207   2.483   7.337
  101POPC   C2B 1703  11.372   2.260   6.977
  101POPC   C3B 1704   0.029   2.391   6.573
  101POPC   C4B 1705  11.387   2.286   6.158
  102POPC   NC3 1706   3.642   2.948   8.056
  102POPC   PO4 1707   3.151   2.454   8.058
  102POPC   GL1 1708   3.324   2.701   7.728
  102POPC   GL2 1709   3.667   2.556   7.668
  102POPC   C1A 1710   3.270   2.880   7.313
  102POPC   D2A 1711   3.113   2.782   6.882
  102POPC   C3A 1712   3.295   2.943   6.483
  102POPC   C4A 1713   3.290   2.864   6.012
  102POPC   C1B 1714   3.570   2.430   7.224
  102POPC   C2B 1715   3.624   2.581   6.775
  102POPC   C3B 1716   3.670   2.596   6.317
  102POPC   C4B 1717   3.607   2.451   5.896
  103POPC   NC3 1718   9.540   7.236   8.153
  103POPC   PO4 1719  10.201   7.027   8.144
  103POPC   GL1 1720   9.951   7.065   7.771
  103POPC   GL2 1721   9.837   7.407   7.738
  103POPC   C1A 1722   9.773   6.997   7.338
  103POPC   D2A 1723   9.781   7.207   6.899
  103POPC   C3A 1724   9.620   7.038   6.454
  103POPC   C4A 1725   9.792   6.940   6.019
  103POPC   C1B 1726   9.537   7.524   7.409
  103POPC   C2B 1727   9.458   7.620   6.978
  103POPC   C3B 1728   9.581   7.570   6.562
  103POPC   C4B 1729   9.300   7.408   6.256
  104POPC   NC3 1730   5.459  10.361   8.449
  104POPC   PO4 1731   5.930   9.771   8.213
  104POPC   GL1 1732   5.670   9.956   7.886
  104POPC   GL2 1733   5.895   9.754   7.689
  104POPC   C1A 1734   5.562  10.011   7.426
  104POPC   D2A 1735   5.845   9.932   7.033
  104POPC   C3A 1736   5.683   9.918   6.583
  104POPC   C4A 1737   5.495   9.807   6.150
  104POPC   C1B 1738   5.718   9.528   7.316
  104POPC   C2B 1739   5.771   9.464   6.861
  104POPC   C3B 1740   5.696   9.422   6.425
  104POPC   C4B 1741   6.030   9.322   6.138
  105POPC   NC3 1742   1.963  11.381   8.163
  105POPC   PO4 1743   1.718  10.803   8.071
  105POPC   GL1 1744   1.749  11.112   7.727
  105POPC   GL2 1745   2.066  11.302   7.674
  105POPC   C1A 1746   1.861  11.072   7.285
  105POPC   D2A 1747   1.690  11.129   6.898
  105POPC   C3A 1748   1.966  11.087   6.560
  105POPC   C4A 1749   1.953  10.911   6.167
  105POPC   C1B 1750   2.284  11.455   7.311
  105POPC   C2B 1751   2.129  11.404   6.912
  105POPC   C3B 1752   2.344  11.448   6.501
  105POPC   C4B 1753   2.110  11.392   6.151
  106POPC   NC3 1754   4.104  10.076   7.928
  106POPC   PO4 1755   4.685   9.551   7.993
  106POPC   GL1 1756   4.455   9.770   7.720
  106POPC   GL2 1757   4.154   9.583   7.694
  106POPC   C1A 1758   4.440   9.831   7.289
  106POPC   D2A 1759   4.289   9.629   6.898
  106POPC   C3A 1760   4.357   9.888   6.526
  106POPC   C4A 1761   4.617   9.873   6.180
  106POPC   C1B 1762   3.932   9.619   7.295
  106POPC   C2B 1763   3.802   9.460   6.871
  106POPC   C3B 1764   3.909   9.628   6.439
  106POPC   C4B 1765   4.209   9.594   6.090
  107POPC   NC3 1766   2.641   9.529   8.058
  107POPC   PO4 1767   2.271   9.998   7.857
  107POPC   GL1 1768   2.639   9.794   7.623
  107POPC   GL2 1769   3.013   9.714   7.720
  107POPC   C1A 1770   2.791   9.944   7.253
  107POPC   D2A 1771   2.754   9.968   6.823
  107POPC   C3A 1772   2.430   9.827   6.657
  107POPC   C4A 1773   2.572   9.646   6.325
  107POPC   C1B 1774   2.945   9.459   7.337
  107POPC   C2B 1775   2.812   9.477   6.917
  107POPC   C3B 1776   3.014   9.551   6.531
  107POPC   C4B 1777   2.920   9.351   6.110
  108POPC   NC3 1778   6.864   8.735   8.041
  108POPC   PO4 1779   7.554   8.521   8.059
  108POPC   GL1 1780   7.510   8.857   7.753
  108POPC   GL2 1781   7.187   9.006   7.718
  108POPC   C1A 1782   7.519   8.868   7.290
  108POPC   D2A 1783   7.402   8.723   6.860
  108POPC   C3A 1784   7.636   8.774   6.494
  108POPC   C4A 1785   7.423   8.652   6.138
  108POPC   C1B 1786   7.128   9.229   7.330
  108POPC   C2B 1787   7.320   9.221   6.902
  108POPC   C3B 1788   7.191   9.025   6.482
  108POPC   C4B 1789   7.331   9.149   6.052
  109POPC   NC3 1790  10.518   2.887   8.114
  109POPC   PO4 1791  10.732   2.250   7.906
  109POPC   GL1 1792  10.499   2.525   7.654
  109POPC   GL2 1793  10.163   2.420   7.510
  109POPC   C1A 1794  10.705   2.502   7.258
  109POPC   D2A 1795  10.853   2.219   6.975
  109POPC   C3A 1796  10.672   2.241   6.568
  109POPC   C4A 1797  10.469   2.573   6.389
  109POPC   C1B 1798  10.299   2.795   7.245
  109POPC   C2B 1799  10.600   2.852   6.901
  109POPC   C3B 1800  10.646   3.020   6.508
  109POPC   C4B 1801  10.280   3.120   6.235
  110POPC   NC3 1802   9.664   8.785   8.069
  110POPC   PO4 1803   9.296   9.289   7.885
  110POPC   GL1 1804   9.387   8.894   7.650
  110POPC   GL2 1805   9.724   8.832   7.549
  110POPC   C1A 1806   9.287   8.776   7.218
  110POPC   D2A 1807   9.315   9.043   6.841
  110POPC   C3A 1808   9.208   8.867   6.463
  110POPC   C4A 1809   9.429   8.732   6.119
  110POPC   C1B 1810   9.751   8.511   7.230
  110POPC   C2B 1811   9.902   8.453   6.832
  110POPC   C3B 1812   9.712   8.681   6.538
  110POPC   C4B 1813   9.922   8.822   6.174
  111POPC   NC3 1814   3.117  10.408   8.084
  111POPC   PO4 1815   2.540  10.733   8.055
  111POPC   GL1 1816   2.832  10.647   7.737
  111POPC   GL2 1817   2.758  10.285   7.729
  111POPC   C1A 1818   3.013  10.747   7.352
  111POPC   D2A 1819   2.762  10.803   6.972
  111POPC   C3A 1820   2.961  10.722   6.580
  111POPC   C4A 1821   2.784  10.612   6.198
  111POPC   C1B 1822   2.585  10.437   7.340
  111POPC   C2B 1823   2.385  10.419   6.961
  111POPC   C3B 1824   2.551  10.378   6.594
  111POPC   C4B 1825   2.568  10.134   6.243
  112POPC   NC3 1826   7.833  11.135   8.024
  112POPC   PO4 1827   8.458  10.898   8.002
  112POPC   GL1 1828   8.248  11.143   7.670
  112POPC   GL2 1829   7.943  11.353   7.596
  112POPC   C1A 1830   8.224  11.005   7.250
  112POPC   D2A 1831   8.430  10.778   6.948
  112POPC   C3A 1832   8.419  10.980   6.625
  112POPC   C4A 1833   8.484  11.051   6.231
  112POPC   C1B 1834   8.059   0.001   7.246
  112POPC   C2B 1835   8.014  11.295   6.878
  112POPC   C3B 1836   8.151  11.382   6.478
  112POPC   C4B 1837   7.997  11.154   6.132
  113POPC   NC3 1838   2.415   2.330   7.996
  113POPC   PO4 1839   2.497   1.732   8.285
  113POPC   GL1 1840   2.637   1.899   7.818
  113POPC   GL2 1841   2.890   2.068   7.854
  113POPC   C1A 1842   2.435   1.948   7.356
  113POPC   D2A 1843   2.507   1.992   6.921
  113POPC   C3A 1844   2.343   1.777   6.524
  113POPC   C4A 1845   2.423   1.927   6.101
  113POPC   C1B 1846   2.930   1.981   7.393
  113POPC   C2B 1847   3.063   2.024   6.958
  113POPC   C3B 1848   3.103   2.190   6.546
  113POPC   C4B 1849   2.924   1.949   6.201
  114POPC   NC3 1850   4.367   9.217   8.023
  114POPC   PO4 1851   3.750   9.215   8.069
  114POPC   GL1 1852   3.843   9.166   7.624
  114POPC   GL2 1853   4.079   8.919   7.681
  114POPC   C1A 1854   4.088   9.151   7.208
  114POPC   D2A 1855   4.062   8.982   6.779
  114POPC   C3A 1856   4.196   9.176   6.380
  114POPC   C4A 1857   4.259   9.126   5.908
  114POPC   C1B 1858   4.386   8.761   7.378
  114POPC   C2B 1859   4.544   8.787   6.952
  114POPC   C3B 1860   4.556   8.836   6.493
  114POPC   C4B 1861   4.276   8.689   6.153
  115POPC   NC3 1862  11.014   1.376   7.848
  115POPC   PO4 1863  10.805   1.728   8.317
  115POPC   GL1 1864  10.672   1.744   7.803
  115POPC   GL2 1865  10.351   1.856   7.654
  115POPC   C1A 1866  10.680   1.618   7.305
  115POPC   D2A 1867  10.589   1.800   6.852
  115POPC   C3A 1868  10.732   1.709   6.438
  115POPC   C4A 1869  10.670   1.856   5.994
  115POPC   C1B 1870  10.450   2.067   7.276
  115POPC   C2B 1871  10.311   2.349   6.957
  115POPC   C3B 1872  10.114   2.270   6.577
  115POPC   C4B 1873  10.298   1.972   6.306
  116POPC   NC3 1874  10.947   6.741   8.067
  116POPC   PO4 1875  11.470   6.361   7.990
  116POPC   GL1 1876  11.362   6.372   7.625
  116POPC   GL2 1877  11.230   6.717   7.647
  116POPC   C1A 1878   0.001   6.218   7.250
  116POPC   D2A 1879  11.253   6.314   6.885
  116POPC   C3A 1880  11.472   6.211   6.573
  116POPC   C4A 1881   0.067   6.377   6.211
  116POPC   C1B 1882  11.013   6.569   7.298
  116POPC   C2B 1883  10.965   6.732   6.904
  116POPC   C3B 1884  11.040   6.700   6.487
  116POPC   C4B 1885  11.201   6.704   6.084
  117POPC   NC3 1886   2.147  10.435   7.956
  117POPC   PO4 1887   1.559   9.953   8.030
  117POPC   GL1 1888   1.549  10.196   7.641
  117POPC   GL2 1889   1.694  10.528   7.646
  117POPC   C1A 1890   1.693  10.180   7.208
  117POPC   D2A 1891   2.036  10.036   6.933
  117POPC   C3A 1892   2.039  10.112   6.488
  117POPC   C4A 1893   1.809  10.366   6.176
  117POPC   C1B 1894   2.002  10.576   7.315
  117POPC   C2B 1895   1.841  10.593   6.906
  117POPC   C3B 1896   2.051  10.593   6.565
  117POPC   C4B 1897   2.278  10.533   6.187
  118POPC   NC3 1898   2.773   0.515   8.081
  118POPC   PO4 1899   2.234   0.181   7.968
  118POPC   GL1 1900   2.419   0.459   7.709
  118POPC   GL2 1901   2.713   0.280   7.627
  118POPC   C1A 1902   2.385   0.519   7.277
  118POPC   D2A 1903   2.387   0.324   6.894
  118POPC   C3A 1904   2.480   0.486   6.520
  118POPC   C4A 1905   2.324   0.357   6.142
  118POPC   C1B 1906   2.787   0.193   7.198
  118POPC   C2B 1907   2.892   0.291   6.773
  118POPC   C3B 1908   2.859   0.176   6.349
  118POPC   C4B 1909   3.093   0.132   5.977
  119POPC   NC3 1910   2.894  11.024   8.086
  119POPC   PO4 1911   3.039   0.110   8.085
  119POPC   GL1 1912   2.964  11.338   7.700
  119POPC   GL2 1913   2.585  11.251   7.729
  119POPC   C1A 1914   2.819  11.205   7.286
  119POPC   D2A 1915   2.618  11.302   6.908
  119POPC   C3A 1916   2.819  11.212   6.534
  119POPC   C4A 1917   2.934  11.133   6.123
  119POPC   C1B 1918   2.386  10.944   7.415
  119POPC   C2B 1919   2.253  10.913   6.978
  119POPC   C3B 1920   2.446  10.889   6.575
  119POPC   C4B 1921   2.456  11.013   6.163
  120POPC   NC3 1922   1.507  10.402   8.125
  120POPC   PO4 1923   0.922  10.733   8.136
  120POPC   GL1 1924   1.193  10.643   7.795
  120POPC   GL2 1925   1.045  10.330   7.757
  120POPC   C1A 1926   1.089  10.705   7.362
  120POPC   D2A 1927   0.862  10.548   6.978
  120POPC   C3A 1928   1.109  10.589   6.567
  120POPC   C4A 1929   1.548  10.708   6.442
  120POPC   C1B 1930   1.121  10.191   7.331
  120POPC   C2B 1931   1.269  10.241   6.935
  120POPC   C3B 1932   1.554  10.210   6.634
  120POPC   C4B 1933   1.342  10.173   6.257
  121POPC   NC3 1934   9.802   1.168   8.125
  121POPC   PO4 1935   9.145   1.349   7.990
  121POPC   GL1 1936   9.450   1.111   7.711
  121POPC   GL2 1937   9.807   1.202   7.627
  121POPC   C1A 1938   9.571   0.848   7.343
  121POPC   D2A 1939   9.562   0.985   6.899
  121POPC   C3A 1940   9.304   1.062   6.560
  121POPC   C4A 1941   9.537   0.922   6.218
  121POPC   C1B 1942   9.679   1.350   7.246
  121POPC   C2B 1943   9.781   1.473   6.851
  121POPC   C3B 1944   9.702   1.361   6.439
  121POPC   C4B 1945   9.987   1.163   6.153
  122POPC   NC3 1946   9.894   0.350   8.161
  122POPC   PO4 1947   9.466   0.854   8.163
  122POPC   GL1 1948   9.763   0.726   7.840
  122POPC   GL2 1949   9.586   0.444   7.761
  122POPC   C1A 1950   9.998   0.556   7.472
  122POPC   D2A 1951  10.034   0.331   7.069
  122POPC   C3A 1952   9.812   0.535   6.721
  122POPC   C4A 1953   9.992   0.675   6.329
  122POPC   C1B 1954   9.445   0.340   7.365
  122POPC   C2B 1955   9.338   0.507   6.989
  122POPC   C3B 1956   9.327   0.331   6.587
  122POPC   C4B 1957   9.584   0.401   6.244
  123POPC   NC3 1958   5.089  11.429   8.394
  123POPC   PO4 1959   5.580   0.023   7.918
  123POPC   GL1 1960   5.349  11.266   7.605
  123POPC   GL2 1961   5.025  11.133   7.777
  123POPC   C1A 1962   5.296  11.377   7.150
  123POPC   D2A 1963   5.246   0.028   6.724
  123POPC   C3A 1964   5.164  11.229   6.416
  123POPC   C4A 1965   5.434  11.036   6.133
  123POPC   C1B 1966   4.849  11.255   7.383
  123POPC   C2B 1967   4.847  11.134   6.943
  123POPC   C3B 1968   4.718  11.379   6.603
  123POPC   C4B 1969   4.676  11.363   6.182
  124POPC   NC3 1970   0.375   9.167   8.334
  124POPC   PO4 1971   0.507   8.580   8.093
  124POPC   GL1 1972   0.520   8.817   7.693
  124POPC   GL2 1973   0.175   8.946   7.683
  124POPC   C1A 1974   0.514   8.880   7.230
  124POPC   D2A 1975   0.354   9.056   6.858
  124POPC   C3A 1976   0.658   8.906   6.570
  124POPC   C4A 1977   0.652   8.538   6.335
  124POPC   C1B 1978   0.178   8.558   7.421
  124POPC   C2B 1979   0.206   8.541   6.959
  124POPC   C3B 1980   0.199   8.657   6.510
  124POPC   C4B 1981   0.350   9.027   6.186
  125POPC   NC3 1982   4.189   0.363   8.363
  125POPC   PO4 1983   3.578   0.542   8.247
  125POPC   GL1 1984   3.501   0.505   7.778
  125POPC   GL2 1985   3.253   0.270   7.643
  125POPC   C1A 1986   3.599   0.485   7.307
  125POPC   D2A 1987   3.570   0.173   6.955
  125POPC   C3A 1988   3.531   0.319   6.505
  125POPC   C4A 1989   3.615   0.218   6.058
  125POPC   C1B 1990   3.097   0.569   7.310
  125POPC   C2B 1991   3.294   0.618   6.874
  125POPC   C3B 1992   3.118   0.628   6.417
  125POPC   C4B 1993   3.293   0.618   5.978
  126POPC   NC3 1994   0.865   8.881   8.075
  126POPC   PO4 1995   1.425   8.664   8.482
  126POPC   GL1 1996   1.425   8.757   7.936
  126POPC   GL2 1997   1.222   9.053   7.755
  126POPC   C1A 1998   1.517   8.798   7.410
  126POPC   D2A 1999   1.688   8.811   6.947
  126POPC   C3A 2000   1.732   9.107   6.615
  126POPC   C4A 2001   1.553   9.027   6.207
  126POPC   C1B 2002   1.002   8.834   7.404
  126POPC   C2B 2003   0.965   8.977   6.989
  126POPC   C3B 2004   1.205   8.935   6.648
  126POPC   C4B 2005   1.086   8.832   6.269
  127POPC   NC3 2006   9.658  10.520   7.909
  127POPC   PO4 2007   9.180  10.234   8.194
  127POPC   GL1 2008   9.355  10.151   7.689
  127POPC   GL2 2009   9.736  10.201   7.533
  127POPC   C1A 2010   9.405  10.169   7.178
  127POPC   D2A 2011   9.437   9.981   6.770
  127POPC   C3A 2012   9.416  10.269   6.413
  127POPC   C4A 2013   9.394  10.189   5.970
  127POPC   C1B 2014   9.804  10.513   7.210
  127POPC   C2B 2015   9.729  10.512   6.770
  127POPC   C3B 2016   9.822  10.546   6.346
  127POPC   C4B 2017   9.897  10.319   6.005
  128POPC   NC3 2018   3.396   8.983   7.899
  128POPC   PO4 2019   2.946   8.483   7.908
  128POPC   GL1 2020   3.232   8.663   7.534
  128POPC   GL2 2021   3.622   8.683   7.551
  128POPC   C1A 2022   3.122   8.776   7.094
  128POPC   D2A 2023   3.168   8.470   6.745
  128POPC   C3A 2024   3.208   8.667   6.382
  128POPC   C4A 2025   3.061   9.050   6.500
  128POPC   C1B 2026   3.602   8.965   7.191
  128POPC   C2B 2027   3.522   8.898   6.753
  128POPC   C3B 2028   3.741   8.860   6.379
  128POPC   C4B 2029   3.793   8.775   5.959
  129POPC   NC3 2030  10.528   0.687   8.340
  129POPC   PO4 2031  10.297   0.218   7.977
  129POPC   GL1 2032  10.481   0.318   7.618
  129POPC   GL2 2033  10.564   0.648   7.665
  129POPC   C1A 2034  10.507   0.107   7.197
  129POPC   D2A 2035  10.478   0.107   6.745
  129POPC   C3A 2036  10.121   0.169   6.493
  129POPC   C4A 2037  10.195   0.278   6.052
  129POPC   C1B 2038  10.436   0.612   7.209
  129POPC   C2B 2039  10.324   0.625   6.780
  129POPC   C3B 2040  10.475   0.521   6.417
  129POPC   C4B 2041  10.777   0.637   6.194
  130POPC   NC3 2042   2.484   7.149   8.069
  130POPC   PO4 2043   2.563   7.700   7.923
  130POPC   GL1 2044   2.542   7.371   7.592
  130POPC   GL2 2045   2.293   7.064   7.601
  130POPC   C1A 2046   2.610   7.535   7.173
  130POPC   D2A 2047   2.614   7.992   7.026
  130POPC   C3A 2048   2.624   7.975   6.583
  130POPC   C4A 2049   2.701   7.562   6.384
  130POPC   C1B 2050   2.294   7.082   7.131
  130POPC   C2B 2051   2.508   7.212   6.754
  130POPC   C3B 2052   2.553   7.051   6.327
  130POPC   C4B 2053   2.577   6.899   5.860
  131POPC   NC3 2054   1.121   1.876   8.086
  131POPC   PO4 2055   1.686   2.295   8.243
  131POPC   GL1 2056   1.572   2.095   7.823
  131POPC   GL2 2057   1.237   2.217   7.715
  131POPC   C1A 2058   1.599   2.178   7.344
  131POPC   D2A 2059   1.373   2.189   6.943
  131POPC   C3A 2060   1.552   2.002   6.582
  131POPC   C4A 2061   1.487   2.091   6.165
  131POPC   C1B 2062   1.044   2.031   7.339
  131POPC   C2B 2063   0.916   1.945   6.912
  131POPC   C3B 2064   1.034   2.073   6.490
  131POPC   C4B 2065   1.048   1.863   6.080
  132POPC   NC3 2066   5.149   9.621   8.010
  132POPC   PO4 2067   5.096  10.222   8.175
  132POPC   GL1 2068   4.968  10.026   7.710
  132POPC   GL2 2069   4.928   9.674   7.554
  132POPC   C1A 2070   5.099   9.993   7.221
  132POPC   D2A 2071   5.372   9.773   6.982
  132POPC   C3A 2072   5.162   9.598   6.666
  132POPC   C4A 2073   5.056   9.591   6.277
  132POPC   C1B 2074   4.996   9.443   7.150
  132POPC   C2B 2075   4.855   9.175   6.783
  132POPC   C3B 2076   5.024   9.079   6.363
  132POPC   C4B 2077   5.158   9.224   5.912
  133POPC   NC3 2078   5.806   1.630   8.041
  133POPC   PO4 2079   5.711   0.983   8.162
  133POPC   GL1 2080   5.978   1.162   7.830
  133POPC   GL2 2081   5.670   1.270   7.675
  133POPC   C1A 2082   6.079   1.281   7.379
  133POPC   D2A 2083   6.087   1.406   6.933
  133POPC   C3A 2084   5.909   1.225   6.575
  133POPC   C4A 2085   6.090   0.985   6.254
  133POPC   C1B 2086   5.624   1.018   7.289
  133POPC   C2B 2087   5.490   1.075   6.887
  133POPC   C3B 2088   5.445   1.010   6.464
  133POPC   C4B 2089   5.617   1.017   6.059
  134POPC   NC3 2090   9.456   9.610   8.176
  134POPC   PO4 2091   9.882  10.092   7.999
  134POPC   GL1 2092   9.663   9.741   7.724
  134POPC   GL2 2093   9.748   9.388   7.692
  134POPC   C1A 2094   9.710   9.727   7.273
  134POPC   D2A 2095   9.798   9.483   6.926
  134POPC   C3A 2096   9.747   9.641   6.538
  134POPC   C4A 2097   9.737   9.894   6.205
  134POPC   C1B 2098   9.558   9.218   7.289
  134POPC   C2B 2099   9.801   8.963   6.979
  134POPC   C3B 2100   9.921   9.147   6.571
  134POPC   C4B 2101   9.564   9.205   6.309
  135POPC   NC3 2102   8.745   1.530   7.844
  135POPC   PO4 2103   8.481   1.026   8.117
  135POPC   GL1 2104   8.656   0.910   7.690
  135POPC   GL2 2105   8.930   1.095   7.636
  135POPC   C1A 2106   8.656   1.168   7.240
  135POPC   D2A 2107   8.866   1.165   6.854
  135POPC   C3A 2108   8.793   1.126   6.413
  135POPC   C4A 2109   8.743   1.319   6.005
  135POPC   C1B 2110   9.186   1.187   7.261
  135POPC   C2B 2111   9.274   1.457   6.904
  135POPC   C3B 2112   8.976   1.595   6.595
  135POPC   C4B 2113   9.171   1.468   6.245
  136POPC   NC3 2114   9.006   0.900   8.123
  136POPC   PO4 2115   8.680   0.326   7.984
  136POPC   GL1 2116   9.034   0.513   7.810
  136POPC   GL2 2117   9.137   0.211   7.768
  136POPC   C1A 2118   9.094   0.697   7.421
  136POPC   D2A 2119   8.808   0.692   7.089
  136POPC   C3A 2120   8.973   0.701   6.679
  136POPC   C4A 2121   9.101   0.663   6.262
  136POPC   C1B 2122   8.934   0.228   7.363
  136POPC   C2B 2123   8.917   0.196   6.939
  136POPC   C3B 2124   8.622   0.357   6.675
  136POPC   C4B 2125   8.705   0.341   6.225
  137POPC   NC3 2126   3.600   1.043   8.102
  137POPC   PO4 2127   2.884   0.955   7.960
  137POPC   GL1 2128   3.262   0.968   7.680
  137POPC   GL2 2129   3.511   1.263   7.632
  137POPC   C1A 2130   3.407   0.964   7.253
  137POPC   D2A 2131   3.649   1.068   6.908
  137POPC   C3A 2132   3.497   0.944   6.529
  137POPC   C4A 2133   3.471   1.155   6.171
  137POPC   C1B 2134   3.800   1.419   7.304
  137POPC   C2B 2135   4.017   1.434   6.879
  137POPC   C3B 2136   3.778   1.392   6.500
  137POPC   C4B 2137   3.693   1.660   6.150
  138POPC   NC3 2138   3.734  10.518   8.283
  138POPC   PO4 2139   4.273  10.693   7.856
  138POPC   GL1 2140   3.843  10.520   7.719
  138POPC   GL2 2141   3.482  10.472   7.752
  138POPC   C1A 2142   3.638  10.475   7.283
  138POPC   D2A 2143   3.492  10.257   6.903
  138POPC   C3A 2144   3.554  10.470   6.508
  138POPC   C4A 2145   3.848  10.718   6.237
  138POPC   C1B 2146   3.171  10.272   7.424
  138POPC   C2B 2147   3.006  10.355   6.987
  138POPC   C3B 2148   3.077  10.225   6.518
  138POPC   C4B 2149   3.254  10.398   6.108
  139POPC   NC3 2150  11.200  10.216   8.543
  139POPC   PO4 2151  10.832  10.179   8.029
  139POPC   GL1 2152  11.199  10.110   7.728
  139POPC   GL2 2153  11.343  10.427   7.684
  139POPC   C1A 2154  11.268  10.134   7.258
  139POPC   D2A 2155  10.927  10.208   6.933
  139POPC   C3A 2156  10.933  10.080   6.490
  139POPC   C4A 2157  10.957  10.169   6.016
  139POPC   C1B 2158  11.265  10.661   7.289
  139POPC   C2B 2159  11.306  10.565   6.853
  139POPC   C3B 2160  11.250  10.468   6.430
  139POPC   C4B 2161  11.396  10.098   6.252
  140POPC   NC3 2162   3.369   2.056   8.120
  140POPC   PO4 2163   3.448   1.499   8.079
  140POPC   GL1 2164   3.295   1.760   7.698
  140POPC   GL2 2165   3.328   2.168   7.626
  140POPC   C1A 2166   3.367   1.731   7.259
  140POPC   D2A 2167   3.507   1.581   6.877
  140POPC   C3A 2168   3.304   1.700   6.485
  140POPC   C4A 2169   3.175   1.536   6.055
  140POPC   C1B 2170   3.716   2.008   7.508
  140POPC   C2B 2171   3.860   1.875   7.099
  140POPC   C3B 2172   3.790   1.928   6.619
  140POPC   C4B 2173   3.518   2.109   6.265
  141POPC   NC3 2174   2.805   3.780   7.993
  141POPC   PO4 2175   3.235   3.232   8.064
  141POPC   GL1 2176   2.973   3.172   7.718
  141POPC   GL2 2177   2.612   3.300   7.709
  141POPC   C1A 2178   3.037   3.368   7.333
  141POPC   D2A 2179   3.253   3.277   6.945
  141POPC   C3A 2180   3.030   3.398   6.574
  141POPC   C4A 2181   2.992   3.254   6.162
  141POPC   C1B 2182   2.460   3.484   7.302
  141POPC   C2B 2183   2.293   3.465   6.859
  141POPC   C3B 2184   2.501   3.433   6.433
  141POPC   C4B 2185   2.802   3.776   6.278
  142POPC   NC3 2186   8.790  10.035   8.051
  142POPC   PO4 2187   9.068   9.421   8.343
  142POPC   GL1 2188   9.086   9.715   7.852
  142POPC   GL2 2189   8.822   9.579   7.655
  142POPC   C1A 2190   9.214   9.751   7.396
  142POPC   D2A 2191   9.294   9.538   7.000
  142POPC   C3A 2192   9.230   9.482   6.574
  142POPC   C4A 2193   9.265   9.794   6.311
  142POPC   C1B 2194   8.756   9.683   7.187
  142POPC   C2B 2195   8.902   9.815   6.787
  142POPC   C3B 2196   8.783   9.691   6.361
  142POPC   C4B 2197   8.478   9.950   6.144
  143POPC   NC3 2198   7.211  10.975   8.231
  143POPC   PO4 2199   7.487  11.404   7.837
  143POPC   GL1 2200   7.471  11.090   7.623
  143POPC   GL2 2201   7.158  10.961   7.693
  143POPC   C1A 2202   7.624  11.229   7.220
  143POPC   D2A 2203   7.581   0.049   6.916
  143POPC   C3A 2204   7.628  11.356   6.525
  143POPC   C4A 2205   7.492  11.261   6.131
  143POPC   C1B 2206   7.121  11.182   7.264
  143POPC   C2B 2207   7.282  11.136   6.862
  143POPC   C3B 2208   7.235  10.990   6.478
  143POPC   C4B 2209   7.002  11.138   6.134
  144POPC   NC3 2210   8.639   2.414   8.023
  144POPC   PO4 2211   9.081   2.923   8.161
  144POPC   GL1 2212   9.162   2.758   7.761
  144POPC   GL2 2213   8.816   2.792   7.707
  144POPC   C1A 2214   9.134   2.720   7.305
  144POPC   D2A 2215   8.869   2.631   6.895
  144POPC   C3A 2216   9.027   2.665   6.469
  144POPC   C4A 2217   9.029   3.017   6.169
  144POPC   C1B 2218   8.626   2.614   7.350
  144POPC   C2B 2219   8.401   2.469   6.979
  144POPC   C3B 2220   8.516   2.498   6.562
  144POPC   C4B 2221   8.581   2.768   6.206
  145POPC   NC3 2222  11.306   1.080   8.320
  145POPC   PO4 2223  10.713   1.034   8.008
  145POPC   GL1 2224  11.032   0.881   7.714
  145POPC   GL2 2225  11.392   1.040   7.698
  145POPC   C1A 2226  10.842   0.900   7.301
  145POPC   D2A 2227  10.684   0.983   6.893
  145POPC   C3A 2228  11.014   0.843   6.611
  145POPC   C4A 2229  11.108   1.012   6.227
  145POPC   C1B 2230  11.308   1.067   7.257
  145POPC   C2B 2231  11.223   1.270   6.854
  145POPC   C3B 2232  11.280   1.453   6.441
  145POPC   C4B 2233  11.389   1.391   5.978
  146POPC   NC3 2234   5.100   0.113   7.903
  146POPC   PO4 2235   4.756   0.709   8.046
  146POPC   GL1 2236   4.764   0.617   7.636
  146POPC   GL2 2237   5.049   0.537   7.648
  146POPC   C1A 2238   4.711   0.290   7.362
  146POPC   D2A 2239   4.855   0.143   7.021
  146POPC   C3A 2240   4.850   0.367   6.657
  146POPC   C4A 2241   4.983   0.247   6.262
  146POPC   C1B 2242   5.233   0.406   7.295
  146POPC   C2B 2243   5.229   0.618   6.926
  146POPC   C3B 2244   5.361   0.505   6.558
  146POPC   C4B 2245   5.307   0.620   6.164
  147POPC   NC3 2246   5.214   7.680   8.535
  147POPC   PO4 2247   5.279   7.756   8.072
  147POPC   GL1 2248   5.167   7.828   7.601
  147POPC   GL2 2249   4.945   8.117   7.498
  147POPC   C1A 2250   5.230   7.912   7.129
  147POPC   D2A 2251   5.027   8.112   6.758
  147POPC   C3A 2252   5.241   8.124   6.361
  147POPC   C4A 2253   4.988   8.064   5.988
  147POPC   C1B 2254   5.053   8.438   7.153
  147POPC   C2B 2255   4.987   8.640   6.729
  147POPC   C3B 2256   4.930   8.532   6.298
  147POPC   C4B 2257   5.152   8.585   5.905
  148POPC   NC3 2258   0.775  11.163   8.197
  148POPC   PO4 2259   0.153  11.375   8.129
  148POPC   GL1 2260   0.204  11.480   7.692
  148POPC   GL2 2261   0.524  11.326   7.721
  148POPC   C1A 2262   0.212  11.244   7.270
  148POPC   D2A 2263   0.139  10.999   6.873
  148POPC   C3A 2264   0.261  11.213   6.503
  148POPC   C4A 2265   0.236  11.401   6.083
  148POPC   C1B 2266   0.585  10.933   7.438
  148POPC   C2B 2267   0.627  11.002   6.985
  148POPC   C3B 2268   0.631  10.820   6.573
  148POPC   C4B 2269   0.588  10.997   6.179
  149POPC   NC3 2270   0.846   5.539   7.687
  149POPC   PO4 2271   0.966   4.951   7.978
  149POPC   GL1 2272   1.059   5.095   7.599
  149POPC   GL2 2273   1.369   5.154   7.651
  149POPC   C1A 2274   1.134   5.199   7.178
  149POPC   D2A 2275   0.971   5.029   6.848
  149POPC   C3A 2276   0.929   5.378   6.652
  149POPC   C4A 2277   1.029   5.264   6.270
  149POPC   C1B 2278   1.514   4.898   7.335
  149POPC   C2B 2279   1.437   4.811   6.937
  149POPC   C3B 2280   1.405   5.063   6.578
  149POPC   C4B 2281   1.339   4.886   6.188
  150POPC   NC3 2282   1.073   4.229   8.016
  150POPC   PO4 2283   1.654   4.663   7.919
  150POPC   GL1 2284   1.259   4.621   7.689
  150POPC   GL2 2285   1.160   4.301   7.530
  150POPC   C1A 2286   1.046   4.704   7.270
  150POPC   D2A 2287   1.063   4.429   6.924
  150POPC   C3A 2288   1.282   4.513   6.547
  150POPC   C4A 2289   1.171   4.404   6.119
  150POPC   C1B 2290   0.863   4.097   7.275
  150POPC   C2B 2291   0.876   3.951   6.849
  150POPC   C3B 2292   0.818   4.161   6.441
  150POPC   C4B 2293   0.877   3.995   6.015
  151POPC   NC3 2294   0.420   1.003   7.917
  151POPC   PO4 2295   0.809   1.518   8.100
  151POPC   GL1 2296   0.681   1.449   7.705
  151POPC   GL2 2297   0.317   1.456   7.643
  151POPC   C1A 2298   0.769   1.336   7.301
  151POPC   D2A 2299   0.681   1.059   6.929
  151POPC   C3A 2300   0.601   1.249   6.541
  151POPC   C4A 2301   0.795   1.417   6.136
  151POPC   C1B 2302   0.300   1.158   7.278
  151POPC   C2B 2303   0.158   0.973   6.871
  151POPC   C3B 2304   0.100   1.021   6.430
  151POPC   C4B 2305   0.412   1.070   6.103
  152POPC   NC3 2306   0.415   1.819   8.031
  152POPC   PO4 2307   0.006   2.402   8.082
  152POPC   GL1 2308   0.043   2.248   7.638
  152POPC   GL2 2309   0.265   1.989   7.602
  152POPC   C1A 2310   0.310   2.305   7.233
  152POPC   D2A 2311   0.415   2.089   6.889
  152POPC   C3A 2312   0.537   2.246   6.530
  152POPC   C4A 2313   0.377   2.328   6.157
  152POPC   C1B 2314   0.558   1.810   7.318
  152POPC   C2B 2315   0.515   1.587   6.922
  152POPC   C3B 2316   0.649   1.748   6.510
  152POPC   C4B 2317   0.559   1.879   6.066
  153POPC   NC3 2318   9.458   6.256   8.049
  153POPC   PO4 2319   9.268   6.872   8.196
  153POPC   GL1 2320   9.478   6.723   7.773
  153POPC   GL2 2321   9.807   6.579   7.728
  153POPC   C1A 2322   9.516   6.542   7.307
  153POPC   D2A 2323   9.531   6.751   6.874
  153POPC   C3A 2324   9.473   6.543   6.446
  153POPC   C4A 2325   9.147   6.311   6.256
  153POPC   C1B 2326  10.060   6.483   7.371
  153POPC   C2B 2327  10.034   6.700   6.999
  153POPC   C3B 2328   9.950   6.538   6.631
  153POPC   C4B 2329  10.094   6.609   6.253
  154POPC   NC3 2330   2.609   8.780   8.067
  154POPC   PO4 2331   3.059   9.298   8.071
  154POPC   GL1 2332   2.759   9.169   7.714
  154POPC   GL2 2333   2.769   8.851   7.593
  154POPC   C1A 2334   2.544   9.144   7.267
  154POPC   D2A 2335   2.687   8.981   6.852
  154POPC   C3A 2336   2.555   9.169   6.443
  154POPC   C4A 2337   2.407   9.334   5.972
  154POPC   C1B 2338   2.632   8.624   7.235
  154POPC   C2B 2339   2.653   8.470   6.805
  154POPC   C3B 2340   2.687   8.662   6.407
  154POPC   C4B 2341   2.651   8.903   6.023
  155POPC   NC3 2342   0.236   7.349   8.159
  155POPC   PO4 2343  11.060   7.238   8.240
  155POPC   GL1 2344  11.312   7.205   7.832
  155POPC   GL2 2345  11.103   7.396   7.618
  155POPC   C1A 2346   0.013   7.228   7.377
  155POPC   D2A 2347  11.446   7.132   6.902
  155POPC   C3A 2348  11.499   7.484   6.585
  155POPC   C4A 2349  11.479   7.701   6.166
  155POPC   C1B 2350  11.033   7.140   7.219
  155POPC   C2B 2351  10.827   7.216   6.830
  155POPC   C3B 2352  10.967   7.340   6.424
  155POPC   C4B 2353  11.314   7.203   6.203
  156POPC   NC3 2354  10.164   4.308   8.019
  156POPC   PO4 2355  10.734   4.629   8.078
  156POPC   GL1 2356  10.525   4.435   7.674
  156POPC   GL2 2357  10.500   4.049   7.722
  156POPC   C1A 2358  10.268   4.507   7.265
  156POPC   D2A 2359  10.004   4.265   6.972
  156POPC   C3A 2360  10.131   4.406   6.565
  156POPC   C4A 2361  10.031   4.480   6.166
  156POPC   C1B 2362  10.523   4.078   7.286
  156POPC   C2B 2363  10.506   4.233   6.866
  156POPC   C3B 2364  10.679   3.996   6.511
  156POPC   C4B 2365  10.450   4.200   6.196
  157POPC   NC3 2366  10.327  11.245   8.073
  157POPC   PO4 2367   9.728  11.389   8.167
  157POPC   GL1 2368   9.940  11.166   7.770
  157POPC   GL2 2369  10.227  11.364   7.592
  157POPC   C1A 2370   9.954  11.011   7.334
  157POPC   D2A 2371  10.122  11.305   6.988
  157POPC   C3A 2372  10.139  11.142   6.546
  157POPC   C4A 2373  10.204  11.281   6.118
  157POPC   C1B 2374  10.465  11.083   7.331
  157POPC   C2B 2375  10.642  11.162   6.933
  157POPC   C3B 2376  10.834  11.260   6.558
  157POPC   C4B 2377  10.623  11.055   6.256
  158POPC   NC3 2378   1.339  11.078   8.057
  158POPC   PO4 2379   0.820   0.093   8.073
  158POPC   GL1 2380   1.117  11.429   7.753
  158POPC   GL2 2381   0.983  11.105   7.698
  158POPC   C1A 2382   1.348  11.229   7.370
  158POPC   D2A 2383   1.133  11.056   6.994
  158POPC   C3A 2384   1.287  11.109   6.606
  158POPC   C4A 2385   1.575  11.240   6.291
  158POPC   C1B 2386   0.841  11.359   7.319
  158POPC   C2B 2387   0.780   0.012   6.903
  158POPC   C3B 2388   0.825  11.295   6.513
  158POPC   C4B 2389   1.083  11.066   6.153
  159POPC   NC3 2390   0.232   9.665   8.034
  159POPC   PO4 2391   0.778   9.344   8.170
  159POPC   GL1 2392   0.503   9.325   7.797
  159POPC   GL2 2393   0.537   9.677   7.654
  159POPC   C1A 2394   0.343   9.320   7.359
  159POPC   D2A 2395   0.677   9.405   7.057
  159POPC   C3A 2396   0.836   9.384   6.641
  159POPC   C4A 2397   0.820   9.266   6.222
  159POPC   C1B 2398   0.207   9.808   7.350
  159POPC   C2B 2399   0.208   9.579   6.929
  159POPC   C3B 2400   0.442   9.696   6.546
  159POPC   C4B 2401   0.383  10.008   6.218
  160POPC   NC3 2402   9.806   5.731   8.013
  160POPC   PO4 2403   9.136   5.948   7.957
  160POPC   GL1 2404   9.504   5.925   7.642
  160POPC   GL2 2405   9.741   5.641   7.539
  160POPC   C1A 2406   9.668   6.035   7.231
  160POPC   D2A 2407   9.553   6.237   6.860
  160POPC   C3A 2408   9.532   6.018   6.473
  160POPC   C4A 2409   9.324   5.713   6.207
  160POPC   C1B 2410   9.887   5.470   7.186
  160POPC   C2B 2411   9.783   5.679   6.835
  160POPC   C3B 2412   9.745   5.532   6.445
  160POPC   C4B 2413   9.844   5.801   6.125
  161POPC   NC3 2414   6.138  10.135   8.037
  161POPC   PO4 2415   5.959  10.725   8.134
  161POPC   GL1 2416   6.068  10.577   7.732
  161POPC   GL2 2417   5.808  10.843   7.619
  161POPC   C1A 2418   6.038  10.215   7.421
  161POPC   D2A 2419   6.083  10.379   7.031
  161POPC   C3A 2420   6.160  10.160   6.690
  161POPC   C4A 2421   5.977  10.276   6.338
  161POPC   C1B 2422   5.653  10.532   7.397
  161POPC   C2B 2423   5.561  10.337   7.042
  161POPC   C3B 2424   5.595  10.434   6.657
  161POPC   C4B 2425   5.481  10.300   6.286
  162POPC   NC3 2426   4.341   2.283   8.044
  162POPC   PO4 2427   4.523   1.680   8.101
  162POPC   GL1 2428   4.391   1.592   7.686
  162POPC   GL2 2429   4.178   1.892   7.699
  162POPC   C1A 2430   4.370   1.787   7.242
  162POPC   D2A 2431   4.287   1.884   6.815
  162POPC   C3A 2432   4.555   2.029   6.464
  162POPC   C4A 2433   4.417   1.928   6.040
  162POPC   C1B 2434   4.146   2.229   7.377
  162POPC   C2B 2435   4.028   2.313   6.958
  162POPC   C3B 2436   4.125   2.311   6.537
  162POPC   C4B 2437   4.007   2.203   6.148
  163POPC   NC3 2438   8.906   5.567   8.044
  163POPC   PO4 2439   9.471   5.433   8.086
  163POPC   GL1 2440   9.290   5.442   7.661
  163POPC   GL2 2441   9.042   5.687   7.538
  163POPC   C1A 2442   9.378   5.560   7.188
  163POPC   D2A 2443   9.285   5.634   6.727
  163POPC   C3A 2444   8.933   5.492   6.428
  163POPC   C4A 2445   8.935   5.462   5.952
  163POPC   C1B 2446   9.152   6.018   7.200
  163POPC   C2B 2447   9.061   6.090   6.738
  163POPC   C3B 2448   8.784   5.997   6.380
  163POPC   C4B 2449   8.676   6.302   6.035
  164POPC   NC3 2450   7.818   2.978   7.936
  164POPC   PO4 2451   8.181   2.496   8.081
  164POPC   GL1 2452   7.946   2.362   7.697
  164POPC   GL2 2453   7.846   2.652   7.564
  164POPC   C1A 2454   7.952   2.329   7.201
  164POPC   D2A 2455   7.963   2.669   6.823
  164POPC   C3A 2456   8.083   2.654   6.364
  164POPC   C4A 2457   7.982   2.358   6.066
  164POPC   C1B 2458   8.165   2.820   7.278
  164POPC   C2B 2459   8.412   2.961   6.880
  164POPC   C3B 2460   8.293   3.116   6.441
  164POPC   C4B 2461   8.288   3.102   5.951
  165POPC   NC3 2462   1.146   0.409   7.989
  165POPC   PO4 2463   1.586   0.895   8.007
  165POPC   GL1 2464   1.498   0.670   7.595
  165POPC   GL2 2465   1.134   0.638   7.538
  165POPC   C1A 2466   1.425   0.604   7.110
  165POPC   D2A 2467   1.006   0.489   6.889
  165POPC   C3A 2468   1.104   0.581   6.458
  165POPC   C4A 2469   1.519   0.600   6.473
  165POPC   C1B 2470   1.200   0.222   7.332
  165POPC   C2B 2471   1.306   0.046   6.913
  165POPC   C3B 2472   1.261   0.108   6.476
  165POPC   C4B 2473   0.868   0.204   6.222
  166POPC   NC3 2474   9.541   2.824   8.146
  166POPC   PO4 2475  10.113   2.501   8.339
  166POPC   GL1 2476   9.973   2.715   7.890
  166POPC   GL2 2477   9.665   2.504   7.753
  166POPC   C1A 2478   9.828   2.841   7.430
  166POPC   D2A 2479   9.849   2.596   7.042
  166POPC   C3A 2480  10.104   2.768   6.711
  166POPC   C4A 2481   9.985   2.686   6.276
  166POPC   C1B 2482   9.488   2.335   7.343
  166POPC   C2B 2483   9.349   2.484   6.928
  166POPC   C3B 2484   9.464   2.826   6.709
  166POPC   C4B 2485   9.483   2.827   6.264
  167POPC   NC3 2486  10.476   8.463   7.851
  167POPC   PO4 2487  10.065   8.853   8.306
  167POPC   GL1 2488  10.140   8.926   7.802
  167POPC   GL2 2489  10.250   9.260   7.725
  167POPC   C1A 2490  10.196   8.758   7.330
  167POPC   D2A 2491  10.413   8.607   6.931
  167POPC   C3A 2492  10.305   8.810   6.537
  167POPC   C4A 2493  10.409   8.675   6.124
  167POPC   C1B 2494  10.066   9.257   7.318
  167POPC   C2B 2495  10.286   9.132   6.953
  167POPC   C3B 2496  10.638   9.174   6.680
  167POPC   C4B 2497  10.599   9.168   6.221
  168POPC   NC3 2498   1.583   1.167   3.964
  168POPC   PO4 2499   0.940   0.943   3.949
  168POPC   GL1 2500   1.166   1.170   4.233
  168POPC   GL2 2501   0.996   1.419   4.410
  168POPC   C1A 2502   1.427   1.141   4.604
  168POPC   D2A 2503   1.337   1.183   5.060
  168POPC   C3A 2504   1.644   1.357   5.364
  168POPC   C4A 2505   1.643   0.956   5.620
  168POPC   C1B 2506   0.910   1.019   4.648
  168POPC   C2B 2507   0.908   0.866   5.085
  168POPC   C3B 2508   1.141   0.891   5.473
  168POPC   C4B 2509   1.214   1.337   5.629
  169POPC   NC3 2510  10.854   3.391   3.843
  169POPC   PO4 2511  10.189   3.504   3.873
  169POPC   GL1 2512  10.238   3.701   4.252
  169POPC   GL2 2513  10.602   3.695   4.225
  169POPC   C1A 2514  10.113   3.481   4.635
  169POPC   D2A 2515  10.194   3.192   4.990
  169POPC   C3A 2516   9.969   3.220   5.385
  169POPC   C4A 2517  10.155   3.330   5.770
  169POPC   C1B 2518  10.590   3.574   4.695
  169POPC   C2B 2519  10.385   3.680   5.121
  169POPC   C3B 2520  10.414   3.739   5.602
  169POPC   C4B 2521  10.708   3.843   5.960
  170POPC   NC3 2522   9.704   5.710   3.700
  170POPC   PO4 2523   9.318   5.326   3.928
  170POPC   GL1 2524   9.636   5.445   4.183
  170POPC   GL2 2525   9.658   5.797   4.230
  170POPC   C1A 2526   9.675   5.449   4.614
  170POPC   D2A 2527   9.458   5.438   4.983
  170POPC   C3A 2528   9.650   5.622   5.333
  170POPC   C4A 2529   9.553   5.632   5.755
  170POPC   C1B 2530   9.850   5.932   4.687
  170POPC   C2B 2531   9.855   6.054   5.149
  170POPC   C3B 2532   9.575   6.193   5.492
  170POPC   C4B 2533   9.495   6.111   5.933
  171POPC   NC3 2534   3.735  10.271   3.975
  171POPC   PO4 2535   3.885  10.823   4.008
  171POPC   GL1 2536   3.705  10.639   4.331
  171POPC   GL2 2537   3.351  10.594   4.224
  171POPC   C1A 2538   3.878  10.611   4.739
  171POPC   D2A 2539   3.904  10.799   5.135
  171POPC   C3A 2540   3.845  10.497   5.489
  171POPC   C4A 2541   3.765  10.313   5.918
  171POPC   C1B 2542   3.387  10.385   4.660
  171POPC   C2B 2543   3.460  10.525   5.099
  171POPC   C3B 2544   3.326  10.369   5.509
  171POPC   C4B 2545   3.355  10.025   5.772
  172POPC   NC3 2546  10.525   2.208   3.981
  172POPC   PO4 2547   9.884   2.021   4.029
  172POPC   GL1 2548  10.138   2.214   4.363
  172POPC   GL2 2549  10.421   1.962   4.410
  172POPC   C1A 2550  10.332   2.267   4.791
  172POPC   D2A 2551  10.388   2.043   5.177
  172POPC   C3A 2552  10.310   2.344   5.513
  172POPC   C4A 2553  10.421   2.327   5.950
  172POPC   C1B 2554  10.578   1.604   4.675
  172POPC   C2B 2555  10.550   1.464   5.104
  172POPC   C3B 2556  10.539   1.598   5.541
  172POPC   C4B 2557  10.229   1.884   5.735
  173POPC   NC3 2558  10.150  11.228   3.949
  173POPC   PO4 2559  10.701  10.709   3.829
  173POPC   GL1 2560  10.490  10.943   4.248
  173POPC   GL2 2561  10.410  11.304   4.380
  173POPC   C1A 2562  10.355  10.945   4.717
  173POPC   D2A 2563  10.105  10.790   5.065
  173POPC   C3A 2564  10.388  10.690   5.398
  173POPC   C4A 2565  10.521  10.933   5.762
  173POPC   C1B 2566  10.181  11.477   4.731
  173POPC   C2B 2567  10.027  11.368   5.145
  173POPC   C3B 2568  10.138   0.124   5.501
  173POPC   C4B 2569  10.478  11.461   5.720
  174POPC   NC3 2570   6.423  11.349   3.904
  174POPC   PO4 2571   7.084  11.441   4.028
  174POPC   GL1 2572   6.767  11.303   4.272
  174POPC   GL2 2573   6.748  10.949   4.300
  174POPC   C1A 2574   6.489  11.333   4.597
  174POPC   D2A 2575   6.613  11.333   5.035
  174POPC   C3A 2576   6.368  11.499   5.371
  174POPC   C4A 2577   6.233  11.369   5.785
  174POPC   C1B 2578   6.616  10.865   4.748
  174POPC   C2B 2579   6.313  10.889   5.117
  174POPC   C3B 2580   6.486  10.884   5.544
  174POPC   C4B 2581   6.913  10.867   5.713
  175POPC   NC3 2582   2.950   9.655   4.042
  175POPC   PO4 2583   3.543   9.915   3.742
  175POPC   GL1 2584   3.693   9.815   4.205
  175POPC   GL2 2585   3.694   9.459   4.207
  175POPC   C1A 2586   3.744   9.979   4.661
  175POPC   D2A 2587   3.543  10.001   5.097
  175POPC   C3A 2588   3.797   9.954   5.492
  175POPC   C4A 2589   3.790   9.805   5.930
  175POPC   C1B 2590   3.444   9.531   4.604
  175POPC   C2B 2591   3.384   9.493   5.071
  175POPC   C3B 2592   3.451   9.572   5.519
  175POPC   C4B 2593   3.371   9.539   5.982
  176POPC   NC3 2594  10.541   7.924   3.867
  176POPC   PO4 2595  10.724   8.586   3.932
  176POPC   GL1 2596  10.495   8.425   4.311
  176POPC   GL2 2597  10.487   8.061   4.363
  176POPC   C1A 2598  10.389   8.344   4.758
  176POPC   D2A 2599  10.656   8.192   5.089
  176POPC   C3A 2600  10.472   8.371   5.408
  176POPC   C4A 2601  10.184   8.493   5.692
  176POPC   C1B 2602  10.492   7.827   4.777
  176POPC   C2B 2603  10.232   7.885   5.141
  176POPC   C3B 2604  10.228   7.965   5.584
  176POPC   C4B 2605  10.148   7.719   5.960
  177POPC   NC3 2606   9.569   2.251   4.273
  177POPC   PO4 2607   9.622   2.882   3.911
  177POPC   GL1 2608   9.482   2.762   4.264
  177POPC   GL2 2609   9.856   2.676   4.317
  177POPC   C1A 2610   9.448   2.761   4.703
  177POPC   D2A 2611   9.358   2.998   5.050
  177POPC   C3A 2612   9.481   2.906   5.421
  177POPC   C4A 2613   9.299   2.928   5.781
  177POPC   C1B 2614   9.916   2.560   4.731
  177POPC   C2B 2615   9.846   2.808   5.064
  177POPC   C3B 2616   9.942   2.700   5.458
  177POPC   C4B 2617   9.734   2.653   5.837
  178POPC   NC3 2618  10.816   0.446   3.749
  178POPC   PO4 2619  11.277   0.193   4.144
  178POPC   GL1 2620  11.300   0.562   4.413
  178POPC   GL2 2621   0.139   0.618   4.306
  178POPC   C1A 2622  11.024   0.560   4.826
  178POPC   D2A 2623  10.950   0.183   5.107
  178POPC   C3A 2624  11.059   0.261   5.558
  178POPC   C4A 2625  11.059   0.675   5.751
  178POPC   C1B 2626   0.169   0.376   4.700
  178POPC   C2B 2627  11.464   0.471   5.066
  178POPC   C3B 2628   0.040   0.470   5.474
  178POPC   C4B 2629   0.001   0.316   5.860
  179POPC   NC3 2630   6.642   9.568   3.833
  179POPC   PO4 2631   6.165   9.936   3.800
  179POPC   GL1 2632   6.386   9.881   4.207
  179POPC   GL2 2633   6.695   9.685   4.341
  179POPC   C1A 2634   6.387  10.000   4.656
  179POPC   D2A 2635   6.430   9.811   5.061
  179POPC   C3A 2636   6.253   9.855   5.482
  179POPC   C4A 2637   6.342   9.493   5.765
  179POPC   C1B 2638   6.889   9.851   4.742
  179POPC   C2B 2639   6.875  10.037   5.157
  179POPC   C3B 2640   6.762   9.809   5.525
  179POPC   C4B 2641   6.605   9.888   5.920
  180POPC   NC3 2642   9.160   8.991   3.996
  180POPC   PO4 2643   9.825   8.832   3.974
  180POPC   GL1 2644   9.564   8.954   4.311
  180POPC   GL2 2645   9.416   8.623   4.309
  180POPC   C1A 2646   9.605   9.217   4.689
  180POPC   D2A 2647   9.813   9.087   5.045
  180POPC   C3A 2648   9.611   9.167   5.422
  180POPC   C4A 2649   9.679   9.097   5.831
  180POPC   C1B 2650   9.463   8.742   4.765
  180POPC   C2B 2651   9.263   8.817   5.173
  180POPC   C3B 2652   9.317   8.782   5.614
  180POPC   C4B 2653   9.709   8.598   5.721
  181POPC   NC3 2654  11.217   8.394   4.037
  181POPC   PO4 2655  10.956   7.851   3.696
  181POPC   GL1 2656  10.969   7.947   4.163
  181POPC   GL2 2657  11.290   7.887   4.188
  181POPC   C1A 2658  10.928   8.135   4.626
  181POPC   D2A 2659  11.172   8.192   5.050
  181POPC   C3A 2660  10.975   8.345   5.472
  181POPC   C4A 2661  10.730   8.349   5.865
  181POPC   C1B 2662  11.316   7.777   4.627
  181POPC   C2B 2663  11.092   7.648   5.006
  181POPC   C3B 2664  11.005   7.834   5.424
  181POPC   C4B 2665  11.374   7.941   5.696
  182POPC   NC3 2666   5.711  10.907   3.929
  182POPC   PO4 2667   6.415  10.898   3.685
  182POPC   GL1 2668   6.216  10.909   4.133
  182POPC   GL2 2669   6.016  11.241   4.203
  182POPC   C1A 2670   6.137  10.967   4.604
  182POPC   D2A 2671   6.087  11.330   4.931
  182POPC   C3A 2672   5.943  11.213   5.359
  182POPC   C4A 2673   6.000  10.922   5.706
  182POPC   C1B 2674   5.716  11.255   4.579
  182POPC   C2B 2675   5.550  11.301   5.018
  182POPC   C3B 2676   5.477  11.433   5.459
  182POPC   C4B 2677   5.701  11.340   5.843
  183POPC   NC3 2678   1.118   8.046   3.778
  183POPC   PO4 2679   1.644   8.404   3.937
  183POPC   GL1 2680   1.387   8.305   4.259
  183POPC   GL2 2681   1.096   8.140   4.283
  183POPC   C1A 2682   1.454   8.105   4.654
  183POPC   D2A 2683   1.269   8.172   5.070
  183POPC   C3A 2684   1.352   7.944   5.437
  183POPC   C4A 2685   1.497   8.159   5.815
  183POPC   C1B 2686   0.948   8.016   4.709
  183POPC   C2B 2687   0.762   8.171   5.117
  183POPC   C3B 2688   0.897   8.152   5.516
  183POPC   C4B 2689   1.023   7.920   5.878
  184POPC   NC3 2690  10.978  11.010   4.059
  184POPC   PO4 2691  10.602   0.076   4.003
  184POPC   GL1 2692  10.909  11.402   4.366
  184POPC   GL2 2693  11.270  11.251   4.391
  184POPC   C1A 2694  10.821  11.215   4.746
  184POPC   D2A 2695  10.568  11.276   5.121
  184POPC   C3A 2696  10.886  11.284   5.443
  184POPC   C4A 2697  10.920  11.261   5.883
  184POPC   C1B 2698  11.318  11.451   4.801
  184POPC   C2B 2699  11.422  11.494   5.237
  184POPC   C3B 2700  11.387  11.375   5.643
  184POPC   C4B 2701  11.388  11.048   5.865
  185POPC   NC3 2702   1.957  11.212   4.059
  185POPC   PO4 2703   2.421  10.822   3.990
  185POPC   GL1 2704   2.256  10.847   4.375
  185POPC   GL2 2705   2.171  11.188   4.517
  185POPC   C1A 2706   2.439  10.825   4.766
  185POPC   D2A 2707   2.259  11.120   5.021
  185POPC   C3A 2708   2.126  10.975   5.380
  185POPC   C4A 2709   2.190  11.106   5.748
  185POPC   C1B 2710   1.793  11.074   4.705
  185POPC   C2B 2711   1.634  11.084   5.095
  185POPC   C3B 2712   1.642  11.056   5.495
  185POPC   C4B 2713   1.732  11.333   5.803
  186POPC   NC3 2714   3.613   2.883   3.837
  186POPC   PO4 2715   2.924   3.106   3.981
  186POPC   GL1 2716   3.304   2.965   4.256
  186POPC   GL2 2717   3.354   2.588   4.232
  186POPC   C1A 2718   3.351   2.795   4.725
  186POPC   D2A 2719   3.240   2.807   5.199
  186POPC   C3A 2720   3.574   2.820   5.547
  186POPC   C4A 2721   3.785   2.970   5.963
  186POPC   C1B 2722   3.111   2.362   4.598
  186POPC   C2B 2723   3.220   2.275   5.061
  186POPC   C3B 2724   3.225   2.414   5.548
  186POPC   C4B 2725   3.138   2.381   6.044
  187POPC   NC3 2726   9.757   1.591   4.154
  187POPC   PO4 2727   9.277   2.159   3.936
  187POPC   GL1 2728   9.146   1.993   4.378
  187POPC   GL2 2729   9.481   1.827   4.534
  187POPC   C1A 2730   9.068   1.808   4.823
  187POPC   D2A 2731   9.467   1.829   5.086
  187POPC   C3A 2732   9.566   1.733   5.528
  187POPC   C4A 2733   9.493   1.882   5.947
  187POPC   C1B 2734   9.872   1.993   4.788
  187POPC   C2B 2735   9.920   2.258   5.169
  187POPC   C3B 2736   9.816   2.191   5.624
  187POPC   C4B 2737   9.904   2.207   6.077
  188POPC   NC3 2738   2.714   7.280   3.840
  188POPC   PO4 2739   3.047   6.887   3.824
  188POPC   GL1 2740   2.912   7.125   4.296
  188POPC   GL2 2741   2.608   7.349   4.339
  188POPC   C1A 2742   2.887   7.275   4.782
  188POPC   D2A 2743   2.825   7.090   5.225
  188POPC   C3A 2744   2.909   7.300   5.645
  188POPC   C4A 2745   2.970   7.238   6.088
  188POPC   C1B 2746   2.468   7.032   4.643
  188POPC   C2B 2747   2.295   7.093   5.075
  188POPC   C3B 2748   2.420   7.252   5.495
  188POPC   C4B 2749   2.459   7.393   5.956
  189POPC   NC3 2750   8.513  11.355   4.125
  189POPC   PO4 2751   8.384  10.739   3.772
  189POPC   GL1 2752   8.374  10.809   4.212
  189POPC   GL2 2753   8.126  11.007   4.196
  189POPC   C1A 2754   8.362  10.984   4.649
  189POPC   D2A 2755   8.149  11.239   4.971
  189POPC   C3A 2756   8.122  11.098   5.385
  189POPC   C4A 2757   8.392  11.102   5.743
  189POPC   C1B 2758   7.895  11.172   4.534
  189POPC   C2B 2759   7.635  11.292   4.855
  189POPC   C3B 2760   7.584  11.286   5.288
  189POPC   C4B 2761   7.756  11.272   5.699
  190POPC   NC3 2762   5.722   0.172   3.592
  190POPC   PO4 2763   5.265   0.458   3.942
  190POPC   GL1 2764   4.992   0.434   4.327
  190POPC   GL2 2765   4.903   0.087   4.480
  190POPC   C1A 2766   5.117   0.498   4.760
  190POPC   D2A 2767   5.271   0.236   5.057
  190POPC   C3A 2768   5.306   0.435   5.419
  190POPC   C4A 2769   5.086   0.419   5.775
  190POPC   C1B 2770   4.646   0.302   4.717
  190POPC   C2B 2771   4.664   0.531   5.036
  190POPC   C3B 2772   4.726   0.494   5.413
  190POPC   C4B 2773   4.698   0.736   5.757
  191POPC   NC3 2774   4.770   1.761   3.913
  191POPC   PO4 2775   4.790   2.442   3.938
  191POPC   GL1 2776   4.885   2.201   4.308
  191POPC   GL2 2777   5.049   1.875   4.325
  191POPC   C1A 2778   4.710   2.177   4.740
  191POPC   D2A 2779   4.510   2.152   5.153
  191POPC   C3A 2780   4.817   2.249   5.481
  191POPC   C4A 2781   4.845   2.152   5.916
  191POPC   C1B 2782   4.856   1.689   4.710
  191POPC   C2B 2783   4.903   1.828   5.154
  191POPC   C3B 2784   5.086   1.816   5.611
  191POPC   C4B 2785   5.273   1.912   6.045
  192POPC   NC3 2786   4.168   0.218   3.828
  192POPC   PO4 2787   4.675  11.436   4.037
  192POPC   GL1 2788   4.381   0.211   4.312
  192POPC   GL2 2789   4.180   0.519   4.290
  192POPC   C1A 2790   4.148   0.166   4.727
  192POPC   D2A 2791   4.398   0.056   5.099
  192POPC   C3A 2792   4.328   0.165   5.505
  192POPC   C4A 2793   4.629   0.202   5.822
  192POPC   C1B 2794   4.276   0.667   4.727
  192POPC   C2B 2795   4.162   0.530   5.147
  192POPC   C3B 2796   4.232   0.680   5.555
  192POPC   C4B 2797   4.262   0.865   5.978
  193POPC   NC3 2798   1.374   2.145   3.953
  193POPC   PO4 2799   1.672   1.625   3.942
  193POPC   GL1 2800   1.505   1.592   4.338
  193POPC   GL2 2801   1.262   1.873   4.360
  193POPC   C1A 2802   1.336   1.603   4.767
  193POPC   D2A 2803   1.057   1.647   5.112
  193POPC   C3A 2804   1.256   1.913   5.389
  193POPC   C4A 2805   1.439   1.780   5.758
  193POPC   C1B 2806   0.902   1.891   4.666
  193POPC   C2B 2807   0.775   2.103   5.058
  193POPC   C3B 2808   0.957   2.368   5.348
  193POPC   C4B 2809   1.161   2.243   5.761
  194POPC   NC3 2810   5.824   0.497   4.065
  194POPC   PO4 2811   5.585  11.393   3.941
  194POPC   GL1 2812   5.514   0.174   4.354
  194POPC   GL2 2813   5.488   0.551   4.427
  194POPC   C1A 2814   5.714   0.247   4.789
  194POPC   D2A 2815   5.999   0.300   5.158
  194POPC   C3A 2816   5.912   0.224   5.570
  194POPC   C4A 2817   5.596   0.355   5.826
  194POPC   C1B 2818   5.880   0.721   4.648
  194POPC   C2B 2819   6.160   0.741   4.957
  194POPC   C3B 2820   6.086   0.881   5.391
  194POPC   C4B 2821   5.936   0.727   5.784
  195POPC   NC3 2822   3.968   9.701   3.789
  195POPC   PO4 2823   4.605   9.475   4.045
  195POPC   GL1 2824   4.200   9.542   4.202
  195POPC   GL2 2825   4.211   9.848   4.334
  195POPC   C1A 2826   3.971   9.520   4.621
  195POPC   D2A 2827   3.987   9.645   5.044
  195POPC   C3A 2828   4.220   9.359   5.339
  195POPC   C4A 2829   3.947   9.432   5.642
  195POPC   C1B 2830   4.448   9.724   4.728
  195POPC   C2B 2831   4.466   9.763   5.196
  195POPC   C3B 2832   4.496   9.763   5.653
  195POPC   C4B 2833   4.709  10.167   5.782
  196POPC   NC3 2834   2.948   1.846   4.002
  196POPC   PO4 2835   2.510   1.514   3.622
  196POPC   GL1 2836   2.404   1.871   4.110
  196POPC   GL2 2837   2.498   2.125   4.225
  196POPC   C1A 2838   2.265   1.793   4.579
  196POPC   D2A 2839   2.547   1.613   4.923
  196POPC   C3A 2840   2.528   1.759   5.372
  196POPC   C4A 2841   2.740   1.674   5.780
  196POPC   C1B 2842   2.731   1.984   4.595
  196POPC   C2B 2843   2.629   2.123   4.990
  196POPC   C3B 2844   2.833   2.151   5.363
  196POPC   C4B 2845   2.737   2.196   5.777
  197POPC   NC3 2846   7.578  11.453   3.897
  197POPC   PO4 2847   7.231   0.538   3.714
  197POPC   GL1 2848   7.392   0.504   4.197
  197POPC   GL2 2849   7.641   0.254   4.275
  197POPC   C1A 2850   7.204   0.619   4.634
  197POPC   D2A 2851   7.387   0.845   4.987
  197POPC   C3A 2852   7.286   0.721   5.409
  197POPC   C4A 2853   7.021   0.483   5.691
  197POPC   C1B 2854   7.374   0.146   4.608
  197POPC   C2B 2855   7.470   0.263   5.023
  197POPC   C3B 2856   7.404   0.227   5.446
  197POPC   C4B 2857   7.449   0.221   5.868
  198POPC   NC3 2858   1.116   7.519   3.710
  198POPC   PO4 2859   1.545   6.982   3.886
  198POPC   GL1 2860   1.362   7.315   4.168
  198POPC   GL2 2861   1.203   7.133   4.443
  198POPC   C1A 2862   1.430   7.582   4.556
  198POPC   D2A 2863   1.281   7.661   4.991
  198POPC   C3A 2864   1.448   7.374   5.322
  198POPC   C4A 2865   1.489   7.056   5.685
  198POPC   C1B 2866   0.917   7.478   4.630
  198POPC   C2B 2867   0.728   7.651   5.017
  198POPC   C3B 2868   0.917   7.658   5.426
  198POPC   C4B 2869   1.213   7.480   5.746
  199POPC   NC3 2870   0.842   3.707   3.981
  199POPC   PO4 2871   0.572   3.045   3.906
  199POPC   GL1 2872   0.552   3.348   4.257
  199POPC   GL2 2873   0.648   3.678   4.453
  199POPC   C1A 2874   0.446   3.273   4.681
  199POPC   D2A 2875   0.627   3.545   4.981
  199POPC   C3A 2876   0.658   3.335   5.357
  199POPC   C4A 2877   0.429   3.170   5.681
  199POPC   C1B 2878   0.226   3.733   4.659
  199POPC   C2B 2879   0.110   3.527   5.045
  199POPC   C3B 2880   0.244   3.596   5.476
  199POPC   C4B 2881   0.081   3.753   5.829
  200POPC   NC3 2882  10.453   5.779   3.979
  200POPC   PO4 2883  10.001   5.257   3.882
  200POPC   GL1 2884  10.146   5.506   4.271
  200POPC   GL2 2885  10.536   5.517   4.396
  200POPC   C1A 2886  10.165   5.380   4.696
  200POPC   D2A 2887  10.087   5.615   5.043
  200POPC   C3A 2888  10.149   5.529   5.478
  200POPC   C4A 2889   9.973   5.914   5.656
  200POPC   C1B 2890  10.415   5.834   4.703
  200POPC   C2B 2891  10.376   6.018   5.129
  200POPC   C3B 2892  10.477   5.923   5.557
  200POPC   C4B 2893  10.745   6.118   5.848
  201POPC   NC3 2894   8.957   5.604   3.791
  201POPC   PO4 2895   8.478   5.842   4.097
  201POPC   GL1 2896   8.802   5.559   4.309
  201POPC   GL2 2897   9.160   5.582   4.324
  201POPC   C1A 2898   8.932   5.606   4.782
  201POPC   D2A 2899   8.823   5.916   5.132
  201POPC   C3A 2900   8.668   5.756   5.556
  201POPC   C4A 2901   8.523   5.792   5.997
  201POPC   C1B 2902   9.334   5.880   4.616
  201POPC   C2B 2903   9.358   5.959   5.058
  201POPC   C3B 2904   9.188   5.853   5.480
  201POPC   C4B 2905   9.013   5.967   5.878
  202POPC   NC3 2906   6.024   1.474   3.958
  202POPC   PO4 2907   5.682   0.920   3.991
  202POPC   GL1 2908   5.518   1.060   4.366
  202POPC   GL2 2909   5.569   1.386   4.280
  202POPC   C1A 2910   5.448   0.938   4.802
  202POPC   D2A 2911   5.652   0.707   5.140
  202POPC   C3A 2912   5.569   0.957   5.514
  202POPC   C4A 2913   5.379   1.380   5.578
  202POPC   C1B 2914   5.954   1.235   4.546
  202POPC   C2B 2915   5.940   1.187   4.976
  202POPC   C3B 2916   5.850   1.380   5.346
  202POPC   C4B 2917   5.947   1.246   5.760
  203POPC   NC3 2918   7.021   1.406   3.953
  203POPC   PO4 2919   6.942   2.109   3.911
  203POPC   GL1 2920   7.296   1.934   4.193
  203POPC   GL2 2921   7.554   2.170   4.299
  203POPC   C1A 2922   7.473   1.804   4.625
  203POPC   D2A 2923   7.342   1.692   5.056
  203POPC   C3A 2924   7.323   1.723   5.479
  203POPC   C4A 2925   7.006   1.837   5.725
  203POPC   C1B 2926   7.657   2.276   4.750
  203POPC   C2B 2927   7.514   2.173   5.178
  203POPC   C3B 2928   7.320   2.231   5.588
  203POPC   C4B 2929   7.413   2.341   6.008
  204POPC   NC3 2930   8.006   1.438   3.784
  204POPC   PO4 2931   7.944   0.785   3.874
  204POPC   GL1 2932   8.212   1.014   4.171
  204POPC   GL2 2933   7.905   1.206   4.228
  204POPC   C1A 2934   8.405   1.120   4.601
  204POPC   D2A 2935   8.414   0.915   5.019
  204POPC   C3A 2936   8.489   1.150   5.363
  204POPC   C4A 2937   8.367   1.111   5.764
  204POPC   C1B 2938   7.916   1.206   4.668
  204POPC   C2B 2939   8.155   1.375   5.031
  204POPC   C3B 2940   8.044   1.386   5.473
  204POPC   C4B 2941   8.116   1.571   5.854
  205POPC   NC3 2942   8.803   9.167   3.612
  205POPC   PO4 2943   8.866   8.577   3.909
  205POPC   GL1 2944   8.927   8.743   4.352
  205POPC   GL2 2945   8.655   8.838   4.533
  205POPC   C1A 2946   9.079   9.070   4.673
  205POPC   D2A 2947   8.808   9.041   5.033
  205POPC   C3A 2948   8.936   9.118   5.458
  205POPC   C4A 2949   8.669   8.986   5.753
  205POPC   C1B 2950   8.966   8.574   4.811
  205POPC   C2B 2951   8.936   8.393   5.209
  205POPC   C3B 2952   8.885   8.515   5.636
  205POPC   C4B 2953   8.932   8.685   6.050
  206POPC   NC3 2954   4.889  11.139   3.758
  206POPC   PO4 2955   4.220  11.268   3.735
  206POPC   GL1 2956   4.236  11.242   4.215
  206POPC   GL2 2957   4.052  11.023   4.424
  206POPC   C1A 2958   4.456  11.269   4.620
  206POPC   D2A 2959   4.300  11.082   4.964
  206POPC   C3A 2960   4.612  11.090   5.278
  206POPC   C4A 2961   4.638  11.196   5.691
  206POPC   C1B 2962   3.823  11.233   4.723
  206POPC   C2B 2963   3.883  11.392   5.130
  206POPC   C3B 2964   4.114  11.197   5.452
  206POPC   C4B 2965   4.008  10.923   5.783
  207POPC   NC3 2966   0.559  10.839   3.920
  207POPC   PO4 2967   0.717   0.022   3.973
  207POPC   GL1 2968   0.619  11.221   4.256
  207POPC   GL2 2969   0.265  11.155   4.180
  207POPC   C1A 2970   0.730  11.063   4.677
  207POPC   D2A 2971   0.934  11.302   5.014
  207POPC   C3A 2972   0.754  11.185   5.422
  207POPC   C4A 2973   0.791  11.351   5.835
  207POPC   C1B 2974   0.240  11.201   4.614
  207POPC   C2B 2975   0.299  10.970   4.986
  207POPC   C3B 2976   0.232  11.093   5.378
  207POPC   C4B 2977   0.365  11.058   5.740
  208POPC   NC3 2978   8.727  10.452   3.942
  208POPC   PO4 2979   9.341  10.451   3.728
  208POPC   GL1 2980   9.133  10.583   4.240
  208POPC   GL2 2981   8.928  10.330   4.397
  208POPC   C1A 2982   8.793  10.708   4.654
  208POPC   D2A 2983   8.542  10.798   5.078
  208POPC   C3A 2984   8.730  10.785   5.501
  208POPC   C4A 2985   9.115  10.534   5.605
  208POPC   C1B 2986   9.192  10.395   4.747
  208POPC   C2B 2987   8.979  10.525   5.101
  208POPC   C3B 2988   8.632  10.332   5.306
  208POPC   C4B 2989   8.617  10.224   5.718
  209POPC   NC3 2990   5.123   0.014   4.045
  209POPC   PO4 2991   5.310  10.974   3.701
  209POPC   GL1 2992   5.203  11.022   4.180
  209POPC   GL2 2993   4.826  11.030   4.321
  209POPC   C1A 2994   5.196  11.205   4.643
  209POPC   D2A 2995   4.882  11.399   4.965
  209POPC   C3A 2996   4.957   0.010   5.429
  209POPC   C4A 2997   5.132  11.424   5.874
  209POPC   C1B 2998   4.801  10.903   4.798
  209POPC   C2B 2999   5.044  10.811   5.189
  209POPC   C3B 3000   5.194  10.981   5.610
  209POPC   C4B 3001   4.946  10.974   6.031
  210POPC   NC3 3002   0.593  10.209   3.746
  210POPC   PO4 3003  11.479  10.087   3.954
  210POPC   GL1 3004   0.348  10.159   4.234
  210POPC   GL2 3005   0.351  10.466   4.162
  210POPC   C1A 3006   0.287  10.087   4.680
  210POPC   D2A 3007   0.083  10.053   5.111
  210POPC   C3A 3008   0.360  10.212   5.452
  210POPC   C4A 3009   0.324  10.410   5.882
  210POPC   C1B 3010   0.334  10.634   4.580
  210POPC   C2B 3011   0.464  10.480   5.000
  210POPC   C3B 3012   0.555  10.685   5.391
  210POPC   C4B 3013   0.719  10.713   5.791
  211POPC   NC3 3014   2.116   1.696   3.781
  211POPC   PO4 3015   2.234   2.391   3.869
  211POPC   GL1 3016   2.008   2.293   4.227
  211POPC   GL2 3017   1.896   1.975   4.228
  211POPC   C1A 3018   2.125   2.293   4.641
  211POPC   D2A 3019   1.978   2.236   5.055
  211POPC   C3A 3020   2.291   2.231   5.369
  211POPC   C4A 3021   2.195   2.244   5.776
  211POPC   C1B 3022   1.726   1.955   4.649
  211POPC   C2B 3023   1.666   1.819   5.079
  211POPC   C3B 3024   1.846   1.914   5.465
  211POPC   C4B 3025   1.679   2.213   5.713
  212POPC   NC3 3026  10.895   8.815   3.573
  212POPC   PO4 3027  11.456   8.676   3.765
  212POPC   GL1 3028  11.388   8.825   4.222
  212POPC   GL2 3029  11.072   8.949   4.190
  212POPC   C1A 3030  11.262   8.620   4.667
  212POPC   D2A 3031  11.269   8.714   5.104
  212POPC   C3A 3032  11.461   8.447   5.429
  212POPC   C4A 3033  11.226   8.785   5.656
  212POPC   C1B 3034  11.184   9.102   4.629
  212POPC   C2B 3035  10.977   9.169   4.976
  212POPC   C3B 3036  11.079   9.177   5.380
  212POPC   C4B 3037  10.900   9.184   5.770
  213POPC   NC3 3038   7.153  10.949   3.917
  213POPC   PO4 3039   7.825  11.065   3.793
  213POPC   GL1 3040   7.611  10.963   4.167
  213POPC   GL2 3041   7.431  11.217   4.314
  213POPC   C1A 3042   7.529  10.818   4.599
  213POPC   D2A 3043   7.515  10.835   5.048
  213POPC   C3A 3044   7.690  10.808   5.427
  213POPC   C4A 3045   7.436  10.850   5.780
  213POPC   C1B 3046   7.126  11.166   4.620
  213POPC   C2B 3047   7.125  11.354   4.982
  213POPC   C3B 3048   7.094  11.135   5.328
  213POPC   C4B 3049   7.231  11.305   5.698
  214POPC   NC3 3050   4.003   1.421   4.056
  214POPC   PO4 3051   3.349   1.593   3.861
  214POPC   GL1 3052   3.277   1.453   4.264
  214POPC   GL2 3053   3.524   1.194   4.199
  214POPC   C1A 3054   3.556   1.439   4.661
  214POPC   D2A 3055   3.938   1.523   4.929
  214POPC   C3A 3056   3.746   1.505   5.317
  214POPC   C4A 3057   3.537   1.513   5.692
  214POPC   C1B 3058   3.284   0.989   4.523
  214POPC   C2B 3059   3.366   0.873   4.939
  214POPC   C3B 3060   3.324   0.828   5.366
  214POPC   C4B 3061   3.490   1.003   5.705
  215POPC   NC3 3062   9.723   6.645   4.043
  215POPC   PO4 3063  10.067   6.068   3.864
  215POPC   GL1 3064   9.891   6.240   4.285
  215POPC   GL2 3065   9.497   6.313   4.367
  215POPC   C1A 3066   9.837   6.486   4.684
  215POPC   D2A 3067   9.619   6.501   5.084
  215POPC   C3A 3068   9.856   6.703   5.453
  215POPC   C4A 3069   9.852   6.450   5.837
  215POPC   C1B 3070   9.397   6.749   4.642
  215POPC   C2B 3071   9.408   6.949   5.089
  215POPC   C3B 3072   9.361   6.727   5.503
  215POPC   C4B 3073   9.389   6.608   5.929
  216POPC   NC3 3074   4.477   9.018   4.072
  216POPC   PO4 3075   3.894   9.026   3.972
  216POPC   GL1 3076   4.059   9.071   4.398
  216POPC   GL2 3077   4.396   9.225   4.528
  216POPC   C1A 3078   4.024   9.070   4.857
  216POPC   D2A 3079   3.777   9.172   5.203
  216POPC   C3A 3080   3.994   8.935   5.528
  216POPC   C4A 3081   4.133   8.522   5.665
  216POPC   C1B 3082   4.512   8.875   4.764
  216POPC   C2B 3083   4.364   8.829   5.185
  216POPC   C3B 3084   4.537   8.828   5.594
  216POPC   C4B 3085   4.734   8.895   5.987
  217POPC   NC3 3086   1.175   4.311   3.886
  217POPC   PO4 3087   1.722   4.729   4.080
  217POPC   GL1 3088   1.447   4.370   4.301
  217POPC   GL2 3089   1.199   3.990   4.271
  217POPC   C1A 3090   1.171   4.344   4.622
  217POPC   D2A 3091   1.297   4.482   4.958
  217POPC   C3A 3092   1.277   4.520   5.364
  217POPC   C4A 3093   1.432   4.626   5.753
  217POPC   C1B 3094   1.063   3.847   4.707
  217POPC   C2B 3095   1.159   4.008   5.140
  217POPC   C3B 3096   1.167   4.097   5.614
  217POPC   C4B 3097   1.393   3.964   6.011
  218POPC   NC3 3098   1.708   3.651   3.784
  218POPC   PO4 3099   2.200   3.778   4.135
  218POPC   GL1 3100   2.016   3.568   4.390
  218POPC   GL2 3101   2.183   3.273   4.333
  218POPC   C1A 3102   1.944   3.738   4.765
  218POPC   D2A 3103   1.859   3.918   5.157
  218POPC   C3A 3104   1.965   3.677   5.499
  218POPC   C4A 3105   2.192   3.725   5.840
  218POPC   C1B 3106   1.971   3.218   4.754
  218POPC   C2B 3107   2.084   3.216   5.189
  218POPC   C3B 3108   1.981   3.182   5.626
  218POPC   C4B 3109   2.183   3.257   6.018
  219POPC   NC3 3110  10.614   1.190   3.803
  219POPC   PO4 3111   9.980   1.278   3.871
  219POPC   GL1 3112  10.216   1.046   4.216
  219POPC   GL2 3113  10.601   1.023   4.285
  219POPC   C1A 3114  10.298   1.128   4.675
  219POPC   D2A 3115  10.059   1.254   5.028
  219POPC   C3A 3116  10.052   1.610   5.295
  219POPC   C4A 3117  10.002   1.396   5.677
  219POPC   C1B 3118  10.812   1.051   4.695
  219POPC   C2B 3119  10.660   0.967   5.098
  219POPC   C3B 3120  10.441   1.078   5.483
  219POPC   C4B 3121  10.635   1.012   5.892
  220POPC   NC3 3122   8.671   3.570   3.886
  220POPC   PO4 3123   9.225   3.291   3.717
  220POPC   GL1 3124   9.181   3.299   4.188
  220POPC   GL2 3125   8.865   3.397   4.320
  220POPC   C1A 3126   9.286   3.526   4.608
  220POPC   D2A 3127   9.253   3.817   5.010
  220POPC   C3A 3128   9.133   3.598   5.395
  220POPC   C4A 3129   8.990   3.406   5.782
  220POPC   C1B 3130   8.582   3.313   4.672
  220POPC   C2B 3131   8.509   3.207   5.118
  220POPC   C3B 3132   8.524   3.360   5.541
  220POPC   C4B 3133   8.381   3.638   5.880
  221POPC   NC3 3134   0.853   0.489   3.871
  221POPC   PO4 3135   1.432   0.176   3.691
  221POPC   GL1 3136   1.198   0.300   4.159
  221POPC   GL2 3137   1.160   0.651   4.318
  221POPC   C1A 3138   1.056   0.258   4.602
  221POPC   D2A 3139   1.004   0.365   5.025
  221POPC   C3A 3140   0.855   0.177   5.373
  221POPC   C4A 3141   0.995   0.363   5.738
  221POPC   C1B 3142   1.329   0.675   4.768
  221POPC   C2B 3143   1.484   0.602   5.207
  221POPC   C3B 3144   1.565   0.371   5.604
  221POPC   C4B 3145   1.393   0.545   5.985
  222POPC   NC3 3146   1.492   8.812   4.118
  222POPC   PO4 3147   0.831   8.929   3.947
  222POPC   GL1 3148   1.021   8.674   4.258
  222POPC   GL2 3149   1.095   8.991   4.411
  222POPC   C1A 3150   1.199   8.539   4.678
  222POPC   D2A 3151   1.016   8.632   5.091
  222POPC   C3A 3152   1.250   8.509   5.465
  222POPC   C4A 3153   1.365   8.662   5.869
  222POPC   C1B 3154   1.290   9.012   4.814
  222POPC   C2B 3155   1.360   8.990   5.238
  222POPC   C3B 3156   1.034   8.976   5.513
  222POPC   C4B 3157   1.165   9.140   5.872
  223POPC   NC3 3158  10.001   0.712   3.853
  223POPC   PO4 3159   9.644   0.105   3.859
  223POPC   GL1 3160   9.577   0.251   4.278
  223POPC   GL2 3161   9.536   0.595   4.306
  223POPC   C1A 3162   9.653   0.309   4.708
  223POPC   D2A 3163   9.916   0.343   5.021
  223POPC   C3A 3164   9.716   0.401   5.373
  223POPC   C4A 3165   9.818   0.436   5.777
  223POPC   C1B 3166   9.287   0.656   4.657
  223POPC   C2B 3167   9.303   0.479   5.059
  223POPC   C3B 3168   9.337   0.721   5.441
  223POPC   C4B 3169   9.365   0.623   5.833
  224POPC   NC3 3170   8.080   2.932   4.003
  224POPC   PO4 3171   7.880   2.330   3.643
  224POPC   GL1 3172   8.117   2.436   4.054
  224POPC   GL2 3173   7.948   2.471   4.344
  224POPC   C1A 3174   8.443   2.521   4.422
  224POPC   D2A 3175   8.515   2.791   4.813
  224POPC   C3A 3176   8.524   2.729   5.312
  224POPC   C4A 3177   8.377   2.584   5.744
  224POPC   C1B 3178   7.964   2.719   4.696
  224POPC   C2B 3179   8.049   2.960   5.049
  224POPC   C3B 3180   8.078   2.917   5.487
  224POPC   C4B 3181   7.877   2.797   5.867
  225POPC   NC3 3182   7.475   0.892   3.881
  225POPC   PO4 3183   7.582   1.589   3.898
  225POPC   GL1 3184   7.417   1.380   4.302
  225POPC   GL2 3185   7.420   1.005   4.379
  225POPC   C1A 3186   7.432   1.309   4.766
  225POPC   D2A 3187   7.651   1.281   5.154
  225POPC   C3A 3188   7.561   1.145   5.573
  225POPC   C4A 3189   7.623   1.469   5.807
  225POPC   C1B 3190   6.995   1.104   4.655
  225POPC   C2B 3191   6.907   1.369   5.027
  225POPC   C3B 3192   7.084   1.249   5.430
  225POPC   C4B 3193   7.090   0.965   5.809
  226POPC   NC3 3194  10.285   4.879   3.829
  226POPC   PO4 3195  10.801   5.396   3.950
  226POPC   GL1 3196  10.585   5.052   4.213
  226POPC   GL2 3197  10.183   5.007   4.302
  226POPC   C1A 3198  10.612   5.098   4.684
  226POPC   D2A 3199  10.438   5.242   5.094
  226POPC   C3A 3200  10.633   5.297   5.497
  226POPC   C4A 3201  10.425   5.173   5.866
  226POPC   C1B 3202  10.318   4.694   4.565
  226POPC   C2B 3203  10.330   4.737   5.016
  226POPC   C3B 3204  10.251   4.907   5.441
  226POPC   C4B 3205  10.004   4.779   5.774
  227POPC   NC3 3206   2.164   4.224   4.000
  227POPC   PO4 3207   1.557   4.089   3.775
  227POPC   GL1 3208   1.691   3.934   4.245
  227POPC   GL2 3209   1.914   4.118   4.406
  227POPC   C1A 3210   1.580   4.091   4.758
  227POPC   D2A 3211   1.744   4.392   5.163
  227POPC   C3A 3212   1.676   4.178   5.586
  227POPC   C4A 3213   1.884   4.083   6.004
  227POPC   C1B 3214   2.090   4.240   4.768
  227POPC   C2B 3215   2.270   4.204   5.159
  227POPC   C3B 3216   2.190   4.145   5.562
  227POPC   C4B 3217   2.351   4.276   5.965
  228POPC   NC3 3218  11.039   4.229   3.925
  228POPC   PO4 3219  11.468   4.713   3.914
  228POPC   GL1 3220   0.008   4.524   4.284
  228POPC   GL2 3221  11.142   4.564   4.329
  228POPC   C1A 3222   0.199   4.430   4.692
  228POPC   D2A 3223   0.199   4.419   5.147
  228POPC   C3A 3224  11.323   4.369   5.392
  228POPC   C4A 3225  11.167   4.567   5.780
  228POPC   C1B 3226  11.259   4.159   4.560
  228POPC   C2B 3227  11.417   4.004   4.965
  228POPC   C3B 3228  11.304   3.844   5.372
  228POPC   C4B 3229  11.136   4.035   5.745
  229POPC   NC3 3230   3.468   5.693   4.011
  229POPC   PO4 3231   3.849   5.453   4.309
  229POPC   GL1 3232   3.631   5.783   4.559
  229POPC   GL2 3233   3.381   6.008   4.417
  229POPC   C1A 3234   3.526   5.896   5.015
  229POPC   D2A 3235   3.610   5.742   5.466
  229POPC   C3A 3236   3.760   6.038   5.795
  229POPC   C4A 3237   3.662   6.092   6.223
  229POPC   C1B 3238   3.142   5.694   4.686
  229POPC   C2B 3239   3.105   5.628   5.144
  229POPC   C3B 3240   3.140   5.589   5.589
  229POPC   C4B 3241   3.280   5.877   5.867
  230POPC   NC3 3242   9.090   2.888   3.870
  230POPC   PO4 3243   8.498   3.134   3.985
  230POPC   GL1 3244   8.785   2.881   4.275
  230POPC   GL2 3245   8.909   2.505   4.163
  230POPC   C1A 3246   9.022   3.035   4.636
  230POPC   D2A 3247   8.998   3.327   4.978
  230POPC   C3A 3248   8.960   3.100   5.371
  230POPC   C4A 3249   8.745   2.949   5.745
  230POPC   C1B 3250   8.969   2.521   4.612
  230POPC   C2B 3251   8.965   2.681   5.040
  230POPC   C3B 3252   9.035   2.600   5.484
  230POPC   C4B 3253   8.922   2.501   5.924
  231POPC   NC3 3254  10.054   3.092   4.036
  231POPC   PO4 3255  10.562   2.642   3.845
  231POPC   GL1 3256  10.380   2.652   4.234
  231POPC   GL2 3257  10.650   2.468   4.397
  231POPC   C1A 3258  10.339   2.822   4.652
  231POPC   D2A 3259  10.339   2.690   5.094
  231POPC   C3A 3260  10.398   2.954   5.451
  231POPC   C4A 3261  10.243   2.805   5.846
  231POPC   C1B 3262  10.753   2.555   4.810
  231POPC   C2B 3263  10.763   2.434   5.205
  231POPC   C3B 3264  10.726   2.610   5.631
  231POPC   C4B 3265  10.712   2.825   6.027
  232POPC   NC3 3266   1.800   7.388   3.929
  232POPC   PO4 3267   2.443   7.676   3.934
  232POPC   GL1 3268   2.145   7.556   4.257
  232POPC   GL2 3269   2.115   7.180   4.245
  232POPC   C1A 3270   2.115   7.393   4.684
  232POPC   D2A 3271   1.790   7.412   4.947
  232POPC   C3A 3272   2.007   7.544   5.285
  232POPC   C4A 3273   2.218   7.708   5.646
  232POPC   C1B 3274   1.713   7.112   4.516
  232POPC   C2B 3275   1.624   6.912   4.919
  232POPC   C3B 3276   1.830   7.028   5.311
  232POPC   C4B 3277   1.970   7.251   5.703
  233POPC   NC3 3278   0.349   8.857   3.937
  233POPC   PO4 3279   0.119   8.304   4.266
  233POPC   GL1 3280   0.284   8.682   4.499
  233POPC   GL2 3281   0.568   8.874   4.399
  233POPC   C1A 3282   0.204   9.082   4.720
  233POPC   D2A 3283   0.016   9.175   5.113
  233POPC   C3A 3284   0.186   8.897   5.422
  233POPC   C4A 3285   0.231   8.662   5.824
  233POPC   C1B 3286   0.743   9.049   4.792
  233POPC   C2B 3287   0.588   9.153   5.217
  233POPC   C3B 3288   0.559   9.154   5.676
  233POPC   C4B 3289   0.735   8.834   5.919
  234POPC   NC3 3290   3.493   8.828   3.894
  234POPC   PO4 3291   3.209   8.305   4.069
  234POPC   GL1 3292   3.366   8.663   4.372
  234POPC   GL2 3293   3.440   9.037   4.353
  234POPC   C1A 3294   3.608   8.768   4.768
  234POPC   D2A 3295   3.758   8.654   5.189
  234POPC   C3A 3296   3.481   8.582   5.574
  234POPC   C4A 3297   3.444   8.386   6.010
  234POPC   C1B 3298   3.207   9.083   4.766
  234POPC   C2B 3299   3.301   8.979   5.228
  234POPC   C3B 3300   3.519   9.086   5.648
  234POPC   C4B 3301   3.347   9.035   6.062
  235POPC   NC3 3302   2.624   2.737   3.814
  235POPC   PO4 3303   3.158   2.251   3.814
  235POPC   GL1 3304   2.865   2.446   4.159
  235POPC   GL2 3305   2.850   2.782   4.343
  235POPC   C1A 3306   2.604   2.463   4.595
  235POPC   D2A 3307   2.829   2.595   4.982
  235POPC   C3A 3308   2.668   2.618   5.407
  235POPC   C4A 3309   2.849   2.705   5.798
  235POPC   C1B 3310   2.862   3.044   4.744
  235POPC   C2B 3311   2.579   3.066   5.149
  235POPC   C3B 3312   2.520   3.056   5.629
  235POPC   C4B 3313   2.579   2.979   6.111
  236POPC   NC3 3314   1.841   0.410   3.745
  236POPC   PO4 3315   1.592  11.459   4.175
  236POPC   GL1 3316   1.600   0.341   4.447
  236POPC   GL2 3317   1.687   0.661   4.285
  236POPC   C1A 3318   1.756   0.369   4.842
  236POPC   D2A 3319   2.095   0.112   4.964
  236POPC   C3A 3320   1.995  11.470   5.358
  236POPC   C4A 3321   2.157   0.150   5.711
  236POPC   C1B 3322   2.105   0.539   4.491
  236POPC   C2B 3323   2.191   0.637   4.944
  236POPC   C3B 3324   2.036   0.539   5.369
  236POPC   C4B 3325   2.375   0.632   5.682
  237POPC   NC3 3326   1.873   2.671   3.905
  237POPC   PO4 3327   2.294   3.074   3.799
  237POPC   GL1 3328   2.317   2.799   4.213
  237POPC   GL2 3329   1.985   2.785   4.393
  237POPC   C1A 3330   2.378   2.909   4.672
  237POPC   D2A 3331   2.329   2.617   5.009
  237POPC   C3A 3332   2.161   2.745   5.386
  237POPC   C4A 3333   2.201   2.751   5.843
  237POPC   C1B 3334   1.861   2.705   4.821
  237POPC   C2B 3335   1.505   2.494   5.007
  237POPC   C3B 3336   1.414   2.558   5.431
  237POPC   C4B 3337   1.748   2.691   5.671
  238POPC   NC3 3338   0.248   0.147   4.061
  238POPC   PO4 3339   0.426   0.744   3.841
  238POPC   GL1 3340   0.638   0.693   4.282
  238POPC   GL2 3341   0.641   0.360   4.324
  238POPC   C1A 3342   0.636   0.599   4.747
  238POPC   D2A 3343   0.484   0.447   5.122
  238POPC   C3A 3344   0.645   0.632   5.461
  238POPC   C4A 3345   0.391   0.743   5.727
  238POPC   C1B 3346   0.594   0.073   4.681
  238POPC   C2B 3347   0.429  11.453   5.076
  238POPC   C3B 3348   0.368   0.064   5.521
  238POPC   C4B 3349   0.512   0.278   5.870
  239POPC   NC3 3350   1.969   9.561   3.871
  239POPC   PO4 3351   2.599   9.367   4.157
  239POPC   GL1 3352   2.206   9.594   4.350
  239POPC   GL2 3353   1.806   9.626   4.326
  239POPC   C1A 3354   2.041   9.606   4.764
  239POPC   D2A 3355   2.179   9.545   5.127
  239POPC   C3A 3356   2.259   9.920   5.337
  239POPC   C4A 3357   2.060   9.678   5.670
  239POPC   C1B 3358   1.648   9.319   4.634
  239POPC   C2B 3359   1.492   9.438   5.018
  239POPC   C3B 3360   1.670   9.496   5.381
  239POPC   C4B 3361   1.503   9.525   5.744
  240POPC   NC3 3362   0.418   1.933   4.157
  240POPC   PO4 3363  11.455   2.337   3.847
  240POPC   GL1 3364   0.183   2.388   4.319
  240POPC   GL2 3365   0.535   2.248   4.517
  240POPC   C1A 3366   0.174   2.395   4.811
  240POPC   D2A 3367   0.333   2.352   5.233
  240POPC   C3A 3368   0.266   1.969   5.470
  240POPC   C4A 3369   0.081   1.875   5.878
  240POPC   C1B 3370   0.366   1.903   4.833
  240POPC   C2B 3371   0.529   1.635   5.193
  240POPC   C3B 3372   0.761   1.833   5.561
  240POPC   C4B 3373   0.638   2.252   5.720
  241POPC   NC3 3374   9.236   7.502   3.874
  241POPC   PO4 3375   8.686   7.714   3.970
  241POPC   GL1 3376   8.907   7.520   4.321
  241POPC   GL2 3377   9.074   7.195   4.383
  241POPC   C1A 3378   8.924   7.597   4.752
  241POPC   D2A 3379   8.827   7.491   5.179
  241POPC   C3A 3380   9.091   7.398   5.519
  241POPC   C4A 3381   8.903   7.299   5.942
  241POPC   C1B 3382   8.984   7.094   4.856
  241POPC   C2B 3383   8.934   6.945   5.325
  241POPC   C3B 3384   8.931   6.796   5.796
  241POPC   C4B 3385   9.115   6.896   6.249
  242POPC   NC3 3386   2.855  10.949   3.884
  242POPC   PO4 3387   2.355  11.462   3.953
  242POPC   GL1 3388   2.598  11.225   4.257
  242POPC   GL2 3389   2.927  11.236   4.284
  242POPC   C1A 3390   2.649  11.309   4.703
  242POPC   D2A 3391   2.811  11.460   5.080
  242POPC   C3A 3392   2.528  11.329   5.400
  242POPC   C4A 3393   2.699  11.068   5.668
  242POPC   C1B 3394   2.937  10.904   4.570
  242POPC   C2B 3395   2.926  10.941   5.008
  242POPC   C3B 3396   3.111  10.829   5.390
  242POPC   C4B 3397   3.042  10.732   5.794
  243POPC   NC3 3398   6.450   2.047   3.930
  243POPC   PO4 3399   6.462   1.342   3.840
  243POPC   GL1 3400   6.468   1.594   4.202
  243POPC   GL2 3401   6.788   1.766   4.280
  243POPC   C1A 3402   6.342   1.670   4.621
  243POPC   D2A 3403   6.292   1.579   5.059
  243POPC   C3A 3404   6.588   1.765   5.371
  243POPC   C4A 3405   6.518   1.920   5.802
  243POPC   C1B 3406   6.967   1.868   4.714
  243POPC   C2B 3407   6.994   2.036   5.173
  243POPC   C3B 3408   6.792   2.249   5.517
  243POPC   C4B 3409   6.548   2.454   5.837
  244POPC   NC3 3410   9.526   1.403   3.743
  244POPC   PO4 3411   9.546   0.777   3.836
  244POPC   GL1 3412   9.623   1.080   4.174
  244POPC   GL2 3413   9.318   1.098   4.379
  244POPC   C1A 3414   9.775   1.079   4.611
  244POPC   D2A 3415   9.672   0.819   4.966
  244POPC   C3A 3416   9.812   0.935   5.353
  244POPC   C4A 3417   9.757   0.934   5.763
  244POPC   C1B 3418   9.386   1.369   4.765
  244POPC   C2B 3419   9.561   1.332   5.151
  244POPC   C3B 3420   9.435   1.243   5.537
  244POPC   C4B 3421   9.554   1.370   5.939
  245POPC   NC3 3422   8.340   8.818   4.082
  245POPC   PO4 3423   8.414   9.392   3.733
  245POPC   GL1 3424   8.244   9.314   4.212
  245POPC   GL2 3425   7.948   9.075   4.296
  245POPC   C1A 3426   8.267   9.125   4.670
  245POPC   D2A 3427   7.996   9.023   5.014
  245POPC   C3A 3428   8.257   9.025   5.383
  245POPC   C4A 3429   8.201   9.153   5.814
  245POPC   C1B 3430   7.923   8.692   4.641
  245POPC   C2B 3431   7.763   8.548   5.060
  245POPC   C3B 3432   7.916   8.444   5.472
  245POPC   C4B 3433   8.239   8.641   5.726
  246POPC   NC3 3434   7.686   8.186   4.073
  246POPC   PO4 3435   7.235   7.772   3.860
  246POPC   GL1 3436   7.255   7.964   4.308
  246POPC   GL2 3437   7.263   8.325   4.340
  246POPC   C1A 3438   7.211   8.063   4.789
  246POPC   D2A 3439   7.479   8.133   5.183
  246POPC   C3A 3440   7.350   7.971   5.596
  246POPC   C4A 3441   7.297   7.915   6.067
  246POPC   C1B 3442   7.379   8.554   4.718
  246POPC   C2B 3443   7.214   8.569   5.124
  246POPC   C3B 3444   7.392   8.521   5.529
  246POPC   C4B 3445   7.134   8.353   5.857
  247POPC   NC3 3446   4.320   2.347   3.945
  247POPC   PO4 3447   4.139   1.719   3.707
  247POPC   GL1 3448   4.129   1.912   4.129
  247POPC   GL2 3449   4.435   1.941   4.350
  247POPC   C1A 3450   3.953   1.891   4.548
  247POPC   D2A 3451   4.031   2.156   4.925
  247POPC   C3A 3452   4.059   1.922   5.311
  247POPC   C4A 3453   4.101   1.617   5.668
  247POPC   C1B 3454   4.373   1.781   4.812
  247POPC   C2B 3455   4.433   1.575   5.220
  247POPC   C3B 3456   4.569   1.795   5.571
  247POPC   C4B 3457   4.337   2.200   5.642
  248POPC   NC3 3458  10.864   0.387   4.240
  248POPC   PO4 3459  10.459   0.733   3.799
  248POPC   GL1 3460  10.386   0.551   4.227
  248POPC   GL2 3461  10.133   0.288   4.272
  248POPC   C1A 3462  10.458   0.446   4.705
  248POPC   D2A 3463  10.429   0.287   5.102
  248POPC   C3A 3464  10.673   0.534   5.371
  248POPC   C4A 3465  10.595   0.451   5.777
  248POPC   C1B 3466  10.019   0.641   4.579
  248POPC   C2B 3467  10.189   0.760   5.021
  248POPC   C3B 3468  10.187   0.625   5.459
  248POPC   C4B 3469  10.210   0.767   5.889
  249POPC   NC3 3470   9.265   0.416   3.885
  249POPC   PO4 3471   8.668   0.103   3.774
  249POPC   GL1 3472   9.000   0.059   4.186
  249POPC   GL2 3473   9.016   0.374   4.340
  249POPC   C1A 3474   9.185   0.038   4.676
  249POPC   D2A 3475   9.012   0.053   5.146
  249POPC   C3A 3476   9.218   0.221   5.528
  249POPC   C4A 3477   9.179   0.200   6.009
  249POPC   C1B 3478   8.835   0.387   4.787
  249POPC   C2B 3479   8.843   0.596   5.230
  249POPC   C3B 3480   8.868   0.578   5.696
  249POPC   C4B 3481   8.674   0.808   6.028
  250POPC   NC3 3482   7.841   1.979   3.941
  250POPC   PO4 3483   8.435   1.629   3.837
  250POPC   GL1 3484   8.193   1.668   4.241
  250POPC   GL2 3485   8.167   2.010   4.334
  250POPC   C1A 3486   7.985   1.728   4.694
  250POPC   D2A 3487   8.100   1.901   5.127
  250POPC   C3A 3488   7.818   1.842   5.461
  250POPC   C4A 3489   7.736   1.959   5.878
  250POPC   C1B 3490   8.170   2.227   4.736
  250POPC   C2B 3491   8.084   2.448   5.126
  250POPC   C3B 3492   7.957   2.344   5.540
  250POPC   C4B 3493   8.235   2.050   5.719
  251POPC   NC3 3494   2.801   8.118   4.012
  251POPC   PO4 3495   2.260   8.469   3.935
  251POPC   GL1 3496   2.378   8.375   4.379
  251POPC   GL2 3497   2.356   8.009   4.392
  251POPC   C1A 3498   2.528   8.358   4.857
  251POPC   D2A 3499   2.835   8.196   5.225
  251POPC   C3A 3500   3.043   8.201   5.673
  251POPC   C4A 3501   2.870   8.250   6.119
  251POPC   C1B 3502   2.337   7.865   4.838
  251POPC   C2B 3503   2.342   8.041   5.261
  251POPC   C3B 3504   2.545   8.084   5.695
  251POPC   C4B 3505   2.438   7.908   6.109
  252POPC   NC3 3506   6.539   3.612   4.037
  252POPC   PO4 3507   6.920   3.443   4.235
  252POPC   GL1 3508   6.608   3.608   4.544
  252POPC   GL2 3509   6.332   3.385   4.491
  252POPC   C1A 3510   6.406   3.647   4.979
  252POPC   D2A 3511   6.263   3.909   5.350
  252POPC   C3A 3512   6.583   3.882   5.664
  252POPC   C4A 3513   6.856   3.507   5.780
  252POPC   C1B 3514   6.628   3.176   4.800
  252POPC   C2B 3515   6.736   3.295   5.221
  252POPC   C3B 3516   6.431   3.428   5.500
  252POPC   C4B 3517   6.160   3.585   5.807
  253POPC   NC3 3518   8.137   9.723   3.870
  253POPC   PO4 3519   7.509   9.770   3.927
  253POPC   GL1 3520   7.875   9.918   4.263
  253POPC   GL2 3521   8.256   9.821   4.350
  253POPC   C1A 3522   8.012  10.102   4.699
  253POPC   D2A 3523   7.912   9.872   5.071
  253POPC   C3A 3524   7.698   9.882   5.459
  253POPC   C4A 3525   7.729   9.889   5.897
  253POPC   C1B 3526   8.055   9.578   4.659
  253POPC   C2B 3527   8.209   9.467   5.073
  253POPC   C3B 3528   8.007   9.476   5.463
  253POPC   C4B 3529   8.190   9.675   5.817
  254POPC   NC3 3530   9.352   9.923   3.681
  254POPC   PO4 3531   9.340   9.401   4.104
  254POPC   GL1 3532   9.502   9.631   4.399
  254POPC   GL2 3533   9.803   9.831   4.290
  254POPC   C1A 3534   9.233   9.586   4.765
  254POPC   D2A 3535   9.247   9.336   5.111
  254POPC   C3A 3536   9.251   9.524   5.538
  254POPC   C4A 3537   9.478   9.554   5.923
  254POPC   C1B 3538   9.916   9.635   4.716
  254POPC   C2B 3539   9.887   9.584   5.194
  254POPC   C3B 3540   9.981   9.475   5.641
  254POPC   C4B 3541   9.983   9.442   6.115
  255POPC   NC3 3542   5.209   0.936   3.983
  255POPC   PO4 3543   5.125   1.565   3.650
  255POPC   GL1 3544   5.052   1.394   4.131
  255POPC   GL2 3545   4.783   1.130   4.245
  255POPC   C1A 3546   5.119   1.280   4.589
  255POPC   D2A 3547   5.226   1.381   5.022
  255POPC   C3A 3548   4.892   1.359   5.330
  255POPC   C4A 3549   4.888   1.380   5.763
  255POPC   C1B 3550   4.768   0.852   4.601
  255POPC   C2B 3551   4.949   0.948   4.999
  255POPC   C3B 3552   5.063   0.890   5.420
  255POPC   C4B 3553   5.160   0.962   5.839
  256POPC   NC3 3554   0.255   7.961   3.997
  256POPC   PO4 3555   0.869   7.743   4.024
  256POPC   GL1 3556   0.610   7.989   4.343
  256POPC   GL2 3557   0.620   8.347   4.246
  256POPC   C1A 3558   0.422   8.052   4.767
  256POPC   D2A 3559   0.154   7.923   5.119
  256POPC   C3A 3560   0.354   8.085   5.503
  256POPC   C4A 3561   0.510   7.842   5.847
  256POPC   C1B 3562   0.704   8.473   4.675
  256POPC   C2B 3563   0.494   8.645   5.042
  256POPC   C3B 3564   0.624   8.595   5.477
  256POPC   C4B 3565   0.627   8.338   5.880
  257POPC   NC3 3566  10.200   7.353   4.217
  257POPC   PO4 3567   9.686   7.577   3.880
  257POPC   GL1 3568   9.739   7.558   4.343
  257POPC   GL2 3569   9.418   7.584   4.348
  257POPC   C1A 3570   9.916   7.405   4.793
  257POPC   D2A 3571  10.085   7.393   5.230
  257POPC   C3A 3572   9.846   7.641   5.499
  257POPC   C4A 3573   9.654   7.547   5.911
  257POPC   C1B 3574   9.398   7.412   4.751
  257POPC   C2B 3575   9.501   7.445   5.175
  257POPC   C3B 3576   9.611   7.185   5.518
  257POPC   C4B 3577   9.356   7.110   5.851
  258POPC   NC3 3578   8.273  11.187   3.699
  258POPC   PO4 3579   8.813  10.990   4.061
  258POPC   GL1 3580   8.816  11.166   4.459
  258POPC   GL2 3581   9.125  11.088   4.462
  258POPC   C1A 3582   8.623  11.408   4.815
  258POPC   D2A 3583   8.600  11.273   5.263
  258POPC   C3A 3584   8.698   0.058   5.609
  258POPC   C4A 3585   8.798  11.383   6.019
  258POPC   C1B 3586   8.996  11.085   4.915
  258POPC   C2B 3587   9.138  10.994   5.272
  258POPC   C3B 3588   9.099  11.226   5.620
  258POPC   C4B 3589   9.323  11.212   6.008
  259POPC   NC3 3590   1.719   6.564   3.755
  259POPC   PO4 3591   2.190   6.215   3.781
  259POPC   GL1 3592   1.936   6.359   4.166
  259POPC   GL2 3593   1.911   6.715   4.205
  259POPC   C1A 3594   1.822   6.293   4.636
  259POPC   D2A 3595   1.720   6.175   5.078
  259POPC   C3A 3596   1.927   6.307   5.495
  259POPC   C4A 3597   2.296   6.385   5.803
  259POPC   C1B 3598   2.045   6.753   4.640
  259POPC   C2B 3599   2.073   6.607   5.070
  259POPC   C3B 3600   2.217   6.762   5.480
  259POPC   C4B 3601   1.898   6.760   5.787
  260POPC   NC3 3602  11.169   5.670   3.852
  260POPC   PO4 3603  10.742   6.204   3.972
  260POPC   GL1 3604  10.903   5.860   4.266
  260POPC   GL2 3605  11.251   5.721   4.334
  260POPC   C1A 3606  10.916   5.726   4.711
  260POPC   D2A 3607  10.731   5.656   5.120
  260POPC   C3A 3608  10.931   5.731   5.513
  260POPC   C4A 3609  10.814   5.575   5.904
  260POPC   C1B 3610  11.433   5.903   4.683
  260POPC   C2B 3611  11.354   6.022   5.086
  260POPC   C3B 3612  11.435   5.881   5.502
  260POPC   C4B 3613  11.251   5.829   5.926
  261POPC   NC3 3614   5.104   9.259   4.009
  261POPC   PO4 3615   5.167   9.992   3.829
  261POPC   GL1 3616   5.129   9.818   4.220
  261POPC   GL2 3617   5.255   9.534   4.413
  261POPC   C1A 3618   4.971   9.909   4.625
  261POPC   D2A 3619   4.954   9.727   5.018
  261POPC   C3A 3620   4.923   9.922   5.397
  261POPC   C4A 3621   4.990   9.723   5.797
  261POPC   C1B 3622   4.869   9.380   4.654
  261POPC   C2B 3623   4.658   9.289   5.076
  261POPC   C3B 3624   4.714   9.311   5.562
  261POPC   C4B 3625   4.670   9.389   6.027
  262POPC   NC3 3626  10.871   6.661   3.953
  262POPC   PO4 3627  11.353   6.996   3.955
  262POPC   GL1 3628  11.237   6.824   4.316
  262POPC   GL2 3629  11.225   6.466   4.274
  262POPC   C1A 3630  11.308   6.731   4.729
  262POPC   D2A 3631  11.175   6.531   5.063
  262POPC   C3A 3632  11.203   6.747   5.431
  262POPC   C4A 3633  11.328   7.037   5.728
  262POPC   C1B 3634  11.044   6.245   4.617
  262POPC   C2B 3635  10.852   6.143   5.003
  262POPC   C3B 3636  11.006   6.214   5.420
  262POPC   C4B 3637  11.232   6.308   5.768
  263POPC   NC3 3638  11.123   7.419   3.838
  263POPC   PO4 3639  10.529   6.951   3.778
  263POPC   GL1 3640  10.853   7.126   4.159
  263POPC   GL2 3641  11.080   7.408   4.330
  263POPC   C1A 3642  10.931   7.060   4.668
  263POPC   D2A 3643  10.834   6.991   5.123
  263POPC   C3A 3644  10.893   7.191   5.511
  263POPC   C4A 3645  10.853   7.059   5.964
  263POPC   C1B 3646  11.397   7.247   4.641
  263POPC   C2B 3647  11.328   7.160   5.095
  263POPC   C3B 3648  11.342   7.458   5.457
  263POPC   C4B 3649  11.082   7.525   5.861
  264POPC   NC3 3650   5.244  10.507   3.752
  264POPC   PO4 3651   5.831  10.424   3.957
  264POPC   GL1 3652   5.906  10.528   4.362
  264POPC   GL2 3653   6.034  10.203   4.370
  264POPC   C1A 3654   5.745  10.682   4.793
  264POPC   D2A 3655   5.571  10.812   5.222
  264POPC   C3A 3656   5.635  10.578   5.609
  264POPC   C4A 3657   5.734  10.652   6.048
  264POPC   C1B 3658   5.846  10.175   4.757
  264POPC   C2B 3659   5.671  10.284   5.137
  264POPC   C3B 3660   5.784  10.094   5.505
  264POPC   C4B 3661   5.765  10.163   5.905
  265POPC   NC3 3662   0.137   3.428   3.971
  265POPC   PO4 3663  11.103   3.782   3.872
  265POPC   GL1 3664  11.214   3.521   4.217
  265POPC   GL2 3665  10.961   3.358   4.354
  265POPC   C1A 3666  11.418   3.327   4.590
  265POPC   D2A 3667  11.217   3.202   4.982
  265POPC   C3A 3668  11.341   3.300   5.425
  265POPC   C4A 3669  11.461   3.193   5.868
  265POPC   C1B 3670  11.079   3.680   4.692
  265POPC   C2B 3671  10.922   3.613   5.101
  265POPC   C3B 3672  10.890   3.562   5.530
  265POPC   C4B 3673  11.113   3.551   5.908
  266POPC   NC3 3674   1.198  11.358   3.939
  266POPC   PO4 3675   1.228  10.717   3.883
  266POPC   GL1 3676   1.104  10.926   4.317
  266POPC   GL2 3677   1.123  11.291   4.429
  266POPC   C1A 3678   1.228  10.914   4.789
  266POPC   D2A 3679   1.034  10.813   5.204
  266POPC   C3A 3680   1.167  10.915   5.637
  266POPC   C4A 3681   1.511  10.866   5.941
  266POPC   C1B 3682   1.399  11.432   4.783
  266POPC   C2B 3683   1.418   0.075   5.186
  266POPC   C3B 3684   1.257  11.418   5.557
  266POPC   C4B 3685   1.276   0.009   5.975
  267POPC   NC3 3686   1.478   4.957   3.784
  267POPC   PO4 3687   0.916   5.336   3.761
  267POPC   GL1 3688   1.066   5.345   4.212
  267POPC   GL2 3689   1.381   5.139   4.244
  267POPC   C1A 3690   1.268   5.405   4.649
  267POPC   D2A 3691   1.106   5.391   5.073
  267POPC   C3A 3692   1.324   5.443   5.450
  267POPC   C4A 3693   1.489   5.158   5.775
  267POPC   C1B 3694   1.235   4.874   4.605
  267POPC   C2B 3695   1.005   4.888   5.007
  267POPC   C3B 3696   1.071   4.980   5.444
  267POPC   C4B 3697   0.967   4.858   5.864
  268POPC   NC3 3698   1.157   6.724   4.053
  268POPC   PO4 3699   1.478   6.160   3.831
  268POPC   GL1 3700   1.435   6.273   4.287
  268POPC   GL2 3701   1.470   6.622   4.441
  268POPC   C1A 3702   1.209   6.228   4.710
  268POPC   D2A 3703   1.252   6.405   5.140
  268POPC   C3A 3704   1.038   6.344   5.542
  268POPC   C4A 3705   1.425   6.530   5.713
  268POPC   C1B 3706   1.135   6.737   4.751
  268POPC   C2B 3707   1.141   6.944   5.148
  268POPC   C3B 3708   1.029   6.844   5.555
  268POPC   C4B 3709   1.046   6.994   5.943
  269POPC   NC3 3710   0.547   5.226   4.036
  269POPC   PO4 3711   0.762   4.514   3.900
  269POPC   GL1 3712   0.509   4.720   4.237
  269POPC   GL2 3713   0.808   4.900   4.334
  269POPC   C1A 3714   0.412   4.914   4.683
  269POPC   D2A 3715   0.522   4.799   5.138
  269POPC   C3A 3716   0.483   4.973   5.558
  269POPC   C4A 3717   0.450   4.872   6.020
  269POPC   C1B 3718   0.802   5.225   4.673
  269POPC   C2B 3719   0.609   5.294   5.085
  269POPC   C3B 3720   0.765   5.391   5.486
  269POPC   C4B 3721   0.710   5.284   5.901
  270POPC   NC3 3722   6.435   0.847   3.784
  270POPC   PO4 3723   7.029   0.940   4.047
  270POPC   GL1 3724   6.674   0.804   4.298
  270POPC   GL2 3725   6.384   1.050   4.267
  270POPC   C1A 3726   6.667   0.698   4.744
  270POPC   D2A 3727   6.891   0.853   5.109
  270POPC   C3A 3728   6.695   0.869   5.508
  270POPC   C4A 3729   6.413   0.940   5.838
  270POPC   C1B 3730   6.464   1.173   4.694
  270POPC   C2B 3731   6.454   1.110   5.122
  270POPC   C3B 3732   6.372   1.312   5.492
  270POPC   C4B 3733   6.708   1.404   5.725
  271POPC   NC3 3734  10.209   7.364   3.693
  271POPC   PO4 3735  10.591   7.601   4.185
  271POPC   GL1 3736  10.584   7.371   4.527
  271POPC   GL2 3737  10.474   7.014   4.462
  271POPC   C1A 3738  10.475   7.305   4.907
  271POPC   D2A 3739  10.628   7.539   5.208
  271POPC   C3A 3740  10.505   7.543   5.596
  271POPC   C4A 3741  10.661   7.861   5.831
  271POPC   C1B 3742  10.230   6.860   4.777
  271POPC   C2B 3743  10.315   6.914   5.204
  271POPC   C3B 3744  10.406   7.049   5.572
  271POPC   C4B 3745  10.075   7.268   5.751
  272POPC   NC3 3746   9.557   8.074   3.958
  272POPC   PO4 3747  10.119   7.831   3.678
  272POPC   GL1 3748  10.062   7.891   4.124
  272POPC   GL2 3749   9.988   8.254   4.224
  272POPC   C1A 3750  10.017   7.893   4.601
  272POPC   D2A 3751   9.715   7.867   4.957
  272POPC   C3A 3752   9.814   8.132   5.328
  272POPC   C4A 3753   9.765   8.049   5.781
  272POPC   C1B 3754   9.688   8.290   4.611
  272POPC   C2B 3755   9.417   8.306   5.008
  272POPC   C3B 3756   9.356   8.285   5.461
  272POPC   C4B 3757   9.341   8.298   5.885
  273POPC   NC3 3758   0.987   9.376   3.894
  273POPC   PO4 3759   1.621   9.235   3.995
  273POPC   GL1 3760   1.316   9.450   4.267
  273POPC   GL2 3761   1.285   9.803   4.287
  273POPC   C1A 3762   1.091   9.466   4.651
  273POPC   D2A 3763   0.888   9.526   5.032
  273POPC   C3A 3764   1.114   9.488   5.406
  273POPC   C4A 3765   0.889   9.557   5.787
  273POPC   C1B 3766   1.477   9.811   4.673
  273POPC   C2B 3767   1.250   9.892   5.023
  273POPC   C3B 3768   1.332   9.984   5.424
  273POPC   C4B 3769   1.195   9.954   5.831
  274POPC   NC3 3770   0.578   6.078   3.777
  274POPC   PO4 3771   0.693   6.760   3.968
  274POPC   GL1 3772   0.378   6.487   4.163
  274POPC   GL2 3773   0.560   6.196   4.278
  274POPC   C1A 3774   0.170   6.382   4.585
  274POPC   D2A 3775   0.228   6.597   5.000
  274POPC   C3A 3776   0.081   6.394   5.381
  274POPC   C4A 3777   0.118   6.624   5.757
  274POPC   C1B 3778   0.691   6.420   4.665
  274POPC   C2B 3779   0.746   6.459   5.116
  274POPC   C3B 3780   0.571   6.567   5.511
  274POPC   C4B 3781   0.542   6.922   5.781
  275POPC   NC3 3782   4.694   9.990   3.984
  275POPC   PO4 3783   4.863  10.702   3.923
  275POPC   GL1 3784   5.022  10.373   4.207
  275POPC   GL2 3785   5.391  10.291   4.185
  275POPC   C1A 3786   4.831  10.395   4.619
  275POPC   D2A 3787   4.650  10.164   4.955
  275POPC   C3A 3788   4.713  10.388   5.320
  275POPC   C4A 3789   4.786  10.683   5.641
  275POPC   C1B 3790   5.360  10.300   4.621
  275POPC   C2B 3791   5.154  10.253   5.013
  275POPC   C3B 3792   5.210  10.369   5.426
  275POPC   C4B 3793   5.299  10.117   5.744
  276POPC   NC3 3794   4.605   2.874   3.960
  276POPC   PO4 3795   4.010   3.066   3.995
  276POPC   GL1 3796   4.216   2.720   4.291
  276POPC   GL2 3797   4.103   2.370   4.400
  276POPC   C1A 3798   4.393   2.593   4.731
  276POPC   D2A 3799   4.231   2.580   5.163
  276POPC   C3A 3800   4.497   2.672   5.531
  276POPC   C4A 3801   4.847   2.665   5.822
  276POPC   C1B 3802   3.868   2.619   4.700
  276POPC   C2B 3803   3.679   2.502   5.102
  276POPC   C3B 3804   3.883   2.396   5.477
  276POPC   C4B 3805   4.084   2.594   5.826
  277POPC   NC3 3806   8.698   4.641   3.852
  277POPC   PO4 3807   8.728   4.022   3.852
  277POPC   GL1 3808   8.950   3.902   4.247
  277POPC   GL2 3809   9.078   4.193   4.431
  277POPC   C1A 3810   8.854   3.796   4.700
  277POPC   D2A 3811   8.691   3.693   5.135
  277POPC   C3A 3812   8.732   3.843   5.568
  277POPC   C4A 3813   8.525   4.141   5.821
  277POPC   C1B 3814   9.017   4.304   4.870
  277POPC   C2B 3815   8.981   4.188   5.311
  277POPC   C3B 3816   9.041   4.270   5.767
  277POPC   C4B 3817   8.823   4.345   6.177
  278POPC   NC3 3818   1.042   2.956   4.054
  278POPC   PO4 3819   1.258   3.593   3.853
  278POPC   GL1 3820   1.374   3.505   4.248
  278POPC   GL2 3821   1.063   3.393   4.348
  278POPC   C1A 3822   1.476   3.545   4.682
  278POPC   D2A 3823   1.644   3.478   5.094
  278POPC   C3A 3824   1.476   3.714   5.422
  278POPC   C4A 3825   1.477   3.518   5.794
  278POPC   C1B 3826   0.995   3.258   4.765
  278POPC   C2B 3827   1.122   3.473   5.141
  278POPC   C3B 3828   1.011   3.603   5.579
  278POPC   C4B 3829   0.926   3.222   5.780
  279POPC   NC3 3830   3.078   1.221   3.732
  279POPC   PO4 3831   2.668   1.471   4.138
  279POPC   GL1 3832   2.806   1.150   4.405
  279POPC   GL2 3833   2.532   0.897   4.348
  279POPC   C1A 3834   2.927   1.224   4.866
  279POPC   D2A 3835   3.252   1.318   5.197
  279POPC   C3A 3836   3.062   1.260   5.622
  279POPC   C4A 3837   2.998   1.034   6.026
  279POPC   C1B 3838   2.341   1.210   4.615
  279POPC   C2B 3839   2.339   1.151   4.993
  279POPC   C3B 3840   2.599   1.261   5.355
  279POPC   C4B 3841   2.575   1.186   5.792
  280POPC   NC3 3842   3.800  11.269   3.950
  280POPC   PO4 3843   3.101  11.408   3.802
  280POPC   GL1 3844   3.361  11.446   4.190
  280POPC   GL2 3845   3.461  11.107   4.298
  280POPC   C1A 3846   3.240  11.389   4.673
  280POPC   D2A 3847   3.336   0.039   5.113
  280POPC   C3A 3848   3.133  11.342   5.480
  280POPC   C4A 3849   3.340  11.215   5.855
  280POPC   C1B 3850   3.433  10.896   4.685
  280POPC   C2B 3851   3.453  11.054   5.073
  280POPC   C3B 3852   3.602  11.025   5.471
  280POPC   C4B 3853   3.538  10.747   5.817
  281POPC   NC3 3854   5.124   8.280   3.879
  281POPC   PO4 3855   4.873   8.818   3.971
  281POPC   GL1 3856   4.882   8.522   4.322
  281POPC   GL2 3857   5.148   8.260   4.388
  281POPC   C1A 3858   4.899   8.440   4.792
  281POPC   D2A 3859   4.954   8.140   5.127
  281POPC   C3A 3860   4.935   8.317   5.535
  281POPC   C4A 3861   4.626   8.407   5.881
  281POPC   C1B 3862   5.279   7.974   4.745
  281POPC   C2B 3863   5.222   7.703   5.119
  281POPC   C3B 3864   5.181   7.851   5.548
  281POPC   C4B 3865   5.445   8.151   5.796
  282POPC   NC3 3866   6.931   0.413   4.029
  282POPC   PO4 3867   6.256   0.364   3.853
  282POPC   GL1 3868   6.463   0.255   4.279
  282POPC   GL2 3869   6.114   0.199   4.438
  282POPC   C1A 3870   6.837   0.203   4.632
  282POPC   D2A 3871   6.982   0.357   5.037
  282POPC   C3A 3872   6.882   0.108   5.391
  282POPC   C4A 3873   6.733  11.326   5.702
  282POPC   C1B 3874   6.366   0.278   4.812
  282POPC   C2B 3875   6.512   0.474   5.191
  282POPC   C3B 3876   6.354   0.487   5.571
  282POPC   C4B 3877   6.568   0.273   5.817
  283POPC   NC3 3878   7.935  10.617   3.881
  283POPC   PO4 3879   8.438  10.072   3.933
  283POPC   GL1 3880   8.423  10.307   4.324
  283POPC   GL2 3881   8.114  10.367   4.275
  283POPC   C1A 3882   8.476  10.318   4.779
  283POPC   D2A 3883   8.431   9.940   5.040
  283POPC   C3A 3884   8.223  10.019   5.440
  283POPC   C4A 3885   8.129  10.221   5.833
  283POPC   C1B 3886   8.002  10.630   4.590
  283POPC   C2B 3887   8.036  10.721   5.022
  283POPC   C3B 3888   8.184  10.587   5.451
  283POPC   C4B 3889   7.991  10.736   5.839
  284POPC   NC3 3890   2.513   5.899   3.825
  284POPC   PO4 3891   3.207   5.916   3.697
  284POPC   GL1 3892   2.971   5.904   4.130
  284POPC   GL2 3893   2.656   5.770   4.303
  284POPC   C1A 3894   2.895   6.120   4.583
  284POPC   D2A 3895   2.729   6.138   5.048
  284POPC   C3A 3896   2.867   6.002   5.480
  284POPC   C4A 3897   2.792   6.077   5.934
  284POPC   C1B 3898   2.580   5.729   4.763
  284POPC   C2B 3899   2.608   5.646   5.217
  284POPC   C3B 3900   2.624   5.561   5.660
  284POPC   C4B 3901   2.442   5.726   6.060
  285POPC   NC3 3902   1.855   5.882   3.837
  285POPC   PO4 3903   2.343   5.508   3.994
  285POPC   GL1 3904   2.022   5.563   4.274
  285POPC   GL2 3905   1.952   5.885   4.339
  285POPC   C1A 3906   1.773   5.383   4.596
  285POPC   D2A 3907   1.629   5.447   5.024
  285POPC   C3A 3908   1.776   5.734   5.348
  285POPC   C4A 3909   1.631   5.674   5.786
  285POPC   C1B 3910   2.051   5.818   4.760
  285POPC   C2B 3911   2.223   6.011   5.118
  285POPC   C3B 3912   2.323   5.950   5.533
  285POPC   C4B 3913   2.040   5.944   5.859
  286POPC   NC3 3914   7.222   9.993   4.202
  286POPC   PO4 3915   7.413  10.562   3.934
  286POPC   GL1 3916   7.141  10.578   4.363
  286POPC   GL2 3917   7.199  10.274   4.611
  286POPC   C1A 3918   7.087  10.692   4.846
  286POPC   D2A 3919   7.236  10.411   5.220
  286POPC   C3A 3920   7.139  10.431   5.685
  286POPC   C4A 3921   7.107  10.630   6.140
  286POPC   C1B 3922   7.588  10.363   4.821
  286POPC   C2B 3923   7.766  10.336   5.231
  286POPC   C3B 3924   7.658  10.359   5.676
  286POPC   C4B 3925   7.445  10.272   6.065
  287POPC   NC3 3926   2.057   5.116   4.031
  287POPC   PO4 3927   2.377   4.631   3.963
  287POPC   GL1 3928   2.125   4.599   4.375
  287POPC   GL2 3929   2.099   4.933   4.503
  287POPC   C1A 3930   1.733   4.625   4.703
  287POPC   D2A 3931   1.535   4.925   5.034
  287POPC   C3A 3932   1.746   4.859   5.432
  287POPC   C4A 3933   1.966   4.572   5.749
  287POPC   C1B 3934   2.259   5.317   4.715
  287POPC   C2B 3935   2.149   5.481   5.128
  287POPC   C3B 3936   2.131   5.457   5.588
  287POPC   C4B 3937   2.072   5.069   5.790
  288POPC   NC3 3938   0.313   4.406   3.853
  288POPC   PO4 3939   0.403   3.820   4.032
  288POPC   GL1 3940   0.442   4.147   4.333
  288POPC   GL2 3941   0.762   4.254   4.329
  288POPC   C1A 3942   0.583   4.069   4.783
  288POPC   D2A 3943   0.396   3.952   5.164
  288POPC   C3A 3944   0.448   4.115   5.582
  288POPC   C4A 3945   0.263   4.521   5.659
  288POPC   C1B 3946   0.728   4.538   4.699
  288POPC   C2B 3947   0.812   4.390   5.120
  288POPC   C3B 3948   0.783   4.518   5.539
  288POPC   C4B 3949   0.676   4.442   5.978
  289POPC   NC3 3950   1.926   8.589   3.641
  289POPC   PO4 3951   2.215   9.154   3.774
  289POPC   GL1 3952   2.032   9.123   4.237
  289POPC   GL2 3953   1.979   8.750   4.296
  289POPC   C1A 3954   2.119   9.106   4.687
  289POPC   D2A 3955   1.872   9.093   5.096
  289POPC   C3A 3956   2.093   9.191   5.494
  289POPC   C4A 3957   2.202   8.888   5.777
  289POPC   C1B 3958   1.737   8.757   4.701
  289POPC   C2B 3959   1.611   8.554   5.068
  289POPC   C3B 3960   1.737   8.669   5.482
  289POPC   C4B 3961   1.645   9.040   5.683
  290POPC   NC3 3962   0.629   1.113   3.669
  290POPC   PO4 3963   0.194   1.529   3.963
  290POPC   GL1 3964   0.299   1.424   4.346
  290POPC   GL2 3965   0.557   1.189   4.224
  290POPC   C1A 3966   0.106   1.445   4.763
  290POPC   D2A 3967  11.455   1.685   5.127
  290POPC   C3A 3968   0.042   1.495   5.502
  290POPC   C4A 3969   0.406   1.483   5.768
  290POPC   C1B 3970   0.344   0.988   4.603
  290POPC   C2B 3971   0.260   0.913   5.044
  290POPC   C3B 3972   0.457   1.130   5.386
  290POPC   C4B 3973   0.755   1.105   5.724
  291POPC   NC3 3974   8.399   0.519   3.823
  291POPC   PO4 3975   8.079  11.497   4.002
  291POPC   GL1 3976   8.129   0.437   4.247
  291POPC   GL2 3977   7.873   0.685   4.411
  291POPC   C1A 3978   8.344   0.568   4.645
  291POPC   D2A 3979   8.402   0.372   5.082
  291POPC   C3A 3980   8.381   0.632   5.496
  291POPC   C4A 3981   8.194   0.637   5.935
  291POPC   C1B 3982   7.904   0.289   4.733
  291POPC   C2B 3983   7.939   0.151   5.214
  291POPC   C3B 3984   7.935   0.251   5.688
  291POPC   C4B 3985   7.836   0.158   6.160
  292POPC   NC3 3986   8.887   1.913   3.781
  292POPC   PO4 3987   9.294   1.550   4.129
  292POPC   GL1 3988   8.771   1.674   4.270
  292POPC   GL2 3989   8.646   2.026   4.198
  292POPC   C1A 3990   8.498   1.641   4.691
  292POPC   D2A 3991   8.610   1.815   5.126
  292POPC   C3A 3992   8.570   1.629   5.556
  292POPC   C4A 3993   8.567   1.774   5.993
  292POPC   C1B 3994   8.671   2.108   4.635
  292POPC   C2B 3995   8.584   2.312   5.034
  292POPC   C3B 3996   8.685   2.217   5.487
  292POPC   C4B 3997   9.126   2.092   5.625
  293POPC   NC3 3998   9.719  10.326   3.961
  293POPC   PO4 3999   9.066  10.107   3.993
  293POPC   GL1 4000   9.386  10.126   4.324
  293POPC   GL2 4001   9.609  10.398   4.434
  293POPC   C1A 4002   9.536  10.010   4.752
  293POPC   D2A 4003   9.445   9.833   5.143
  293POPC   C3A 4004   9.336  10.039   5.487
  293POPC   C4A 4005   9.723   9.928   5.680
  293POPC   C1B 4006   9.724  10.490   4.846
  293POPC   C2B 4007   9.479  10.456   5.197
  293POPC   C3B 4008   9.639  10.436   5.582
  293POPC   C4B 4009   9.975  10.691   5.693
  294POPC   NC3 4010   2.554   1.107   3.868
  294POPC   PO4 4011   1.930   0.862   3.850
  294POPC   GL1 4012   2.016   1.074   4.244
  294POPC   GL2 4013   2.024   1.448   4.269
  294POPC   C1A 4014   1.898   0.962   4.668
  294POPC   D2A 4015   1.824   0.975   5.093
  294POPC   C3A 4016   2.123   1.038   5.424
  294POPC   C4A 4017   2.095   1.052   5.840
  294POPC   C1B 4018   1.885   1.466   4.733
  294POPC   C2B 4019   2.092   1.556   5.154
  294POPC   C3B 4020   2.131   1.517   5.604
  294POPC   C4B 4021   1.770   1.418   5.865
  295POPC   NC3 4022   3.539   1.998   3.719
  295POPC   PO4 4023   3.883   2.496   3.939
  295POPC   GL1 4024   3.678   2.187   4.203
  295POPC   GL2 4025   3.363   2.036   4.225
  295POPC   C1A 4026   3.581   2.207   4.660
  295POPC   D2A 4027   3.576   1.888   4.979
  295POPC   C3A 4028   3.552   2.021   5.383
  295POPC   C4A 4029   3.774   1.985   5.763
  295POPC   C1B 4030   3.221   1.840   4.610
  295POPC   C2B 4031   3.036   1.778   5.016
  295POPC   C3B 4032   3.125   1.746   5.450
  295POPC   C4B 4033   3.264   1.963   5.808
  296POPC   NC3 4034   1.164   5.740   3.872
  296POPC   PO4 4035   1.714   5.378   3.848
  296POPC   GL1 4036   1.508   5.658   4.239
  296POPC   GL2 4037   1.171   5.834   4.359
  296POPC   C1A 4038   1.544   5.842   4.693
  296POPC   D2A 4039   1.299   5.868   5.105
  296POPC   C3A 4040   1.445   6.059   5.516
  296POPC   C4A 4041   1.327   6.078   5.976
  296POPC   C1B 4042   0.921   5.765   4.731
  296POPC   C2B 4043   0.766   5.791   5.137
  296POPC   C3B 4044   0.977   5.838   5.532
  296POPC   C4B 4045   1.113   5.615   5.904
  297POPC   NC3 4046   0.185   9.701   4.106
  297POPC   PO4 4047   0.834   9.820   3.857
  297POPC   GL1 4048   0.767   9.711   4.275
  297POPC   GL2 4049   0.705   9.362   4.326
  297POPC   C1A 4050   0.841   9.931   4.666
  297POPC   D2A 4051   0.619   9.976   5.047
  297POPC   C3A 4052   0.825   9.932   5.415
  297POPC   C4A 4053   0.703  10.074   5.819
  297POPC   C1B 4054   0.483   9.539   4.709
  297POPC   C2B 4055   0.308   9.588   5.144
  297POPC   C3B 4056   0.402   9.678   5.591
  297POPC   C4B 4057   0.446   9.537   6.029
  298POPC   NC3 4058   0.126   2.775   3.904
  298POPC   PO4 4059   0.638   2.305   3.986
  298POPC   GL1 4060   0.632   2.677   4.255
  298POPC   GL2 4061   0.324   2.894   4.340
  298POPC   C1A 4062   0.609   2.716   4.706
  298POPC   D2A 4063   0.613   2.956   5.045
  298POPC   C3A 4064   0.596   2.741   5.437
  298POPC   C4A 4065   0.514   2.720   5.882
  298POPC   C1B 4066   0.086   2.877   4.712
  298POPC   C2B 4067   0.126   2.957   5.160
  298POPC   C3B 4068   0.108   2.802   5.564
  298POPC   C4B 4069   0.122   2.390   5.719
  299POPC   NC3 4070   7.328   2.352   3.849
  299POPC   PO4 4071   7.657   2.783   4.093
  299POPC   GL1 4072   7.433   2.653   4.439
  299POPC   GL2 4073   7.134   2.450   4.326
  299POPC   C1A 4074   7.473   2.744   4.886
  299POPC   D2A 4075   7.650   2.662   5.285
  299POPC   C3A 4076   7.410   2.736   5.652
  299POPC   C4A 4077   7.181   3.104   5.814
  299POPC   C1B 4078   7.147   2.359   4.786
  299POPC   C2B 4079   7.119   2.547   5.217
  299POPC   C3B 4080   6.905   2.742   5.571
  299POPC   C4B 4081   7.000   2.655   6.004
  300POPC   NC3 4082   1.396  10.292   3.906
  300POPC   PO4 4083   0.776  10.597   3.595
  300POPC   GL1 4084   0.854  10.489   4.120
  300POPC   GL2 4085   0.955  10.190   4.211
  300POPC   C1A 4086   0.839  10.541   4.624
  300POPC   D2A 4087   0.988  10.327   5.056
  300POPC   C3A 4088   1.035  10.404   5.545
  300POPC   C4A 4089   1.127  10.560   6.022
  300POPC   C1B 4090   1.247  10.254   4.585
  300POPC   C2B 4091   1.519  10.359   4.947
  300POPC   C3B 4092   1.539  10.544   5.366
  300POPC   C4B 4093   1.504  10.368   5.773
  301POPC   NC3 4094   8.923   1.355   3.909
  301POPC   PO4 4095   8.827   0.676   3.938
  301POPC   GL1 4096   8.692   0.776   4.336
  301POPC   GL2 4097   8.806   1.084   4.303
  301POPC   C1A 4098   8.846   0.878   4.770
  301POPC   D2A 4099   9.161   1.001   5.066
  301POPC   C3A 4100   8.965   1.069   5.498
  301POPC   C4A 4101   9.142   1.054   5.920
  301POPC   C1B 4102   8.902   1.346   4.625
  301POPC   C2B 4103   8.818   1.367   5.033
  301POPC   C3B 4104   9.070   1.568   5.329
  301POPC   C4B 4105   9.098   1.591   5.762
  302POPC   NC3 4106   0.083   1.038   3.998
  302POPC   PO4 4107  10.939   0.874   3.939
  302POPC   GL1 4108  11.166   1.052   4.308
  302POPC   GL2 4109  11.233   1.424   4.361
  302POPC   C1A 4110  11.329   0.990   4.738
  302POPC   D2A 4111  11.186   0.898   5.175
  302POPC   C3A 4112  11.472   0.978   5.500
  302POPC   C4A 4113  11.473   0.889   5.928
  302POPC   C1B 4114  11.080   1.499   4.805
  302POPC   C2B 4115  11.045   1.383   5.249
  302POPC   C3B 4116  11.035   1.198   5.656
  302POPC   C4B 4117  10.889   1.413   6.052
  303POPC   NC3 4118   2.089   8.031   3.935
  303POPC   PO4 4119   1.515   7.742   3.831
  303POPC   GL1 4120   1.704   7.885   4.229
  303POPC   GL2 4121   1.879   8.231   4.347
  303POPC   C1A 4122   1.879   7.826   4.634
  303POPC   D2A 4123   1.735   7.941   5.038
  303POPC   C3A 4124   1.855   8.023   5.428
  303POPC   C4A 4125   1.707   7.682   5.686
  303POPC   C1B 4126   2.007   8.316   4.772
  303POPC   C2B 4127   2.136   8.566   5.145
  303POPC   C3B 4128   2.173   8.418   5.575
  303POPC   C4B 4129   2.026   8.113   5.896
  304POPC   NC3 4130   0.588   5.511   3.490
  304POPC   PO4 4131   0.744   5.762   4.064
  304POPC   GL1 4132   0.590   5.583   4.377
  304POPC   GL2 4133   0.266   5.725   4.289
  304POPC   C1A 4134   0.310   5.424   4.691
  304POPC   D2A 4135   0.206   5.633   5.066
  304POPC   C3A 4136   0.241   5.444   5.470
  304POPC   C4A 4137   0.423   5.672   5.818
  304POPC   C1B 4138   0.437   5.935   4.687
  304POPC   C2B 4139   0.371   6.116   5.051
  304POPC   C3B 4140   0.477   6.056   5.471
  304POPC   C4B 4141   0.241   6.133   5.825
  305POPC   NC3 4142  10.370   6.444   3.832
  305POPC   PO4 4143  10.062   6.931   4.111
  305POPC   GL1 4144  10.279   6.567   4.316
  305POPC   GL2 4145  10.648   6.532   4.376
  305POPC   C1A 4146  10.310   6.326   4.701
  305POPC   D2A 4147  10.139   6.463   5.088
  305POPC   C3A 4148  10.215   6.344   5.488
  305POPC   C4A 4149  10.318   6.608   5.794
  305POPC   C1B 4150  10.711   6.614   4.813
  305POPC   C2B 4151  10.646   6.535   5.270
  305POPC   C3B 4152  10.804   6.617   5.702
  305POPC   C4B 4153  10.677   6.548   6.150
  306POPC   NC3 4154   9.219  10.899   3.854
  306POPC   PO4 4155   9.939  10.757   4.036
  306POPC   GL1 4156   9.579  10.886   4.307
  306POPC   GL2 4157   9.552  11.234   4.219
  306POPC   C1A 4158   9.432  10.876   4.786
  306POPC   D2A 4159   9.651  10.982   5.196
  306POPC   C3A 4160   9.505  10.914   5.631
  306POPC   C4A 4161   9.387  10.683   6.025
  306POPC   C1B 4162   9.675  11.308   4.676
  306POPC   C2B 4163   9.515  11.481   5.090
  306POPC   C3B 4164   9.631  11.405   5.513
  306POPC   C4B 4165  10.004  11.176   5.654
  307POPC   NC3 4166   7.389   9.060   3.892
  307POPC   PO4 4167   7.882   8.594   4.014
  307POPC   GL1 4168   7.550   8.767   4.292
  307POPC   GL2 4169   7.197   8.860   4.323
  307POPC   C1A 4170   7.576   9.054   4.671
  307POPC   D2A 4171   7.488   8.976   5.107
  307POPC   C3A 4172   7.752   8.928   5.449
  307POPC   C4A 4173   7.767   8.883   5.864
  307POPC   C1B 4174   7.076   8.990   4.771
  307POPC   C2B 4175   7.084   9.246   5.189
  307POPC   C3B 4176   7.151   8.962   5.547
  307POPC   C4B 4177   6.958   8.823   5.953
  308POPC   NC3 4178   9.641   4.961   3.949
  308POPC   PO4 4179   9.109   4.557   4.052
  308POPC   GL1 4180   9.382   4.637   4.409
  308POPC   GL2 4181   9.561   4.972   4.440
  308POPC   C1A 4182   9.451   4.699   4.861
  308POPC   D2A 4183   9.455   4.956   5.236
  308POPC   C3A 4184   9.477   4.759   5.643
  308POPC   C4A 4185   9.132   4.747   5.960
  308POPC   C1B 4186   9.886   4.960   4.753
  308POPC   C2B 4187   9.914   5.160   5.151
  308POPC   C3B 4188   9.774   5.189   5.590
  308POPC   C4B 4189   9.915   5.287   6.018
  309POPC   NC3 4190  11.018   9.358   3.861
  309POPC   PO4 4191   0.070   9.259   4.001
  309POPC   GL1 4192  11.293   9.457   4.309
  309POPC   GL2 4193  10.916   9.419   4.351
  309POPC   C1A 4194  11.429   9.563   4.743
  309POPC   D2A 4195  11.246   9.625   5.138
  309POPC   C3A 4196  11.402   9.542   5.542
  309POPC   C4A 4197   0.021   9.189   5.804
  309POPC   C1B 4198  10.889   9.651   4.716
  309POPC   C2B 4199  10.730   9.600   5.106
  309POPC   C3B 4200  10.863   9.611   5.492
  309POPC   C4B 4201  10.988   9.674   5.911
  310POPC   NC3 4202   9.679   3.304   3.704
  310POPC   PO4 4203   9.709   3.876   3.985
  310POPC   GL1 4204   9.715   3.635   4.345
  310POPC   GL2 4205   9.674   3.260   4.319
  310POPC   C1A 4206   9.722   3.762   4.781
  310POPC   D2A 4207   9.881   4.004   5.126
  310POPC   C3A 4208   9.902   3.750   5.498
  310POPC   C4A 4209   9.790   3.669   5.926
  310POPC   C1B 4210   9.697   3.235   4.773
  310POPC   C2B 4211   9.573   3.448   5.170
  310POPC   C3B 4212   9.526   3.372   5.625
  310POPC   C4B 4213   9.744   3.147   5.976
  311POPC   NC3 4214   3.187   0.354   3.690
  311POPC   PO4 4215   3.731   0.237   3.954
  311POPC   GL1 4216   3.490   0.437   4.322
  311POPC   GL2 4217   3.705   0.731   4.388
  311POPC   C1A 4218   3.286   0.410   4.756
  311POPC   D2A 4219   3.024   0.445   5.156
  311POPC   C3A 4220   3.258   0.340   5.537
  311POPC   C4A 4221   3.636   0.045   5.570
  311POPC   C1B 4222   3.776   0.542   4.793
  311POPC   C2B 4223   3.648   0.451   5.214
  311POPC   C3B 4224   3.732   0.560   5.660
  311POPC   C4B 4225   3.777   0.734   6.106
  312POPC   NC3 4226   4.362  10.846   3.927
  312POPC   PO4 4227   4.177  10.105   3.906
  312POPC   GL1 4228   4.165  10.371   4.245
  312POPC   GL2 4229   4.505  10.442   4.218
  312POPC   C1A 4230   4.218  10.221   4.673
  312POPC   D2A 4231   4.019  10.206   5.079
  312POPC   C3A 4232   4.262  10.171   5.461
  312POPC   C4A 4233   4.215  10.074   5.939
  312POPC   C1B 4234   4.397  10.693   4.580
  312POPC   C2B 4235   4.367  10.591   5.006
  312POPC   C3B 4236   4.315  10.706   5.421
  312POPC   C4B 4237   4.323  10.532   5.806
  313POPC   NC3 4238  11.498   1.887   3.734
  313POPC   PO4 4239  10.846   1.988   3.757
  313POPC   GL1 4240  10.998   2.110   4.208
  313POPC   GL2 4241  11.354   1.982   4.230
  313POPC   C1A 4242  10.865   2.063   4.693
  313POPC   D2A 4243  10.886   1.873   5.141
  313POPC   C3A 4244  10.749   2.076   5.548
  313POPC   C4A 4245  10.945   2.259   5.920
  313POPC   C1B 4246  11.373   1.952   4.680
  313POPC   C2B 4247  11.309   2.170   5.083
  313POPC   C3B 4248  11.260   2.053   5.506
  313POPC   C4B 4249  11.077   1.702   5.671
  314POPC   NC3 4250  11.087   5.006   3.948
  314POPC   PO4 4251   0.098   5.475   3.838
  314POPC   GL1 4252  11.444   5.226   4.243
  314POPC   GL2 4253  11.063   5.250   4.391
  314POPC   C1A 4254  11.421   4.937   4.626
  314POPC   D2A 4255   0.102   5.096   5.060
  314POPC   C3A 4256  11.474   4.909   5.461
  314POPC   C4A 4257  11.469   4.979   5.913
  314POPC   C1B 4258  11.302   5.409   4.761
  314POPC   C2B 4259  11.249   5.482   5.208
  314POPC   C3B 4260  11.231   5.352   5.655
  314POPC   C4B 4261  10.938   5.074   5.908
  315POPC   NC3 4262  11.143  10.440   3.954
  315POPC   PO4 4263   0.138  10.853   3.739
  315POPC   GL1 4264  11.435  10.771   4.219
  315POPC   GL2 4265  11.401  10.421   4.394
  315POPC   C1A 4266  11.370  10.861   4.709
  315POPC   D2A 4267  11.286  10.976   5.172
  315POPC   C3A 4268  11.494  10.663   5.498
  315POPC   C4A 4269  11.325  10.485   5.884
  315POPC   C1B 4270  11.246  10.071   4.674
  315POPC   C2B 4271  11.004  10.058   5.076
  315POPC   C3B 4272  11.142  10.030   5.518
  315POPC   C4B 4273   0.016  10.010   5.761
  316POPC   NC3 4274   6.301  10.357   3.942
  316POPC   PO4 4275   6.831   9.983   3.950
  316POPC   GL1 4276   6.737  10.233   4.339
  316POPC   GL2 4277   6.479  10.511   4.380
  316POPC   C1A 4278   6.729  10.344   4.786
  316POPC   D2A 4279   6.698  10.549   5.174
  316POPC   C3A 4280   6.653  10.315   5.538
  316POPC   C4A 4281   6.671  10.491   5.932
  316POPC   C1B 4282   6.245  10.494   4.757
  316POPC   C2B 4283   6.212  10.287   5.130
  316POPC   C3B 4284   6.155  10.459   5.521
  316POPC   C4B 4285   6.245  10.216   5.849
  317POPC   NC3 4286   5.708   9.918   3.895
  317POPC   PO4 4287   5.564   9.268   4.088
  317POPC   GL1 4288   5.807   9.604   4.282
  317POPC   GL2 4289   5.621   9.892   4.395
  317POPC   C1A 4290   5.991   9.689   4.682
  317POPC   D2A 4291   5.902   9.797   5.108
  317POPC   C3A 4292   5.887   9.430   5.387
  317POPC   C4A 4293   5.678   9.201   5.757
  317POPC   C1B 4294   5.455   9.829   4.813
  317POPC   C2B 4295   5.400   9.855   5.255
  317POPC   C3B 4296   5.484   9.663   5.630
  317POPC   C4B 4297   5.869   9.682   5.817
  318POPC   NC3 4298   2.555   3.416   3.985
  318POPC   PO4 4299   2.572   4.033   3.851
  318POPC   GL1 4300   2.650   3.761   4.335
  318POPC   GL2 4301   2.867   3.451   4.376
  318POPC   C1A 4302   2.439   3.508   4.708
  318POPC   D2A 4303   2.300   3.670   5.104
  318POPC   C3A 4304   2.474   3.514   5.463
  318POPC   C4A 4305   2.617   3.480   5.908
  318POPC   C1B 4306   2.936   3.564   4.809
  318POPC   C2B 4307   3.021   3.311   5.179
  318POPC   C3B 4308   2.992   3.279   5.624
  318POPC   C4B 4309   3.082   3.678   5.860
  319POPC   NC3 4310  10.986   2.452   3.767
  319POPC   PO4 4311  11.281   3.102   3.869
  319POPC   GL1 4312  11.298   2.945   4.263
  319POPC   GL2 4313  11.196   2.610   4.201
  319POPC   C1A 4314  11.020   2.926   4.596
  319POPC   D2A 4315  10.717   3.078   4.905
  319POPC   C3A 4316  10.885   2.960   5.289
  319POPC   C4A 4317  10.978   3.085   5.690
  319POPC   C1B 4318  11.216   2.449   4.597
  319POPC   C2B 4319  11.218   2.662   5.005
  319POPC   C3B 4320  11.198   2.555   5.430
  319POPC   C4B 4321  11.202   2.678   5.846
  320POPC   NC3 4322   9.340   4.158   3.994
  320POPC   PO4 4323   9.944   4.547   3.883
  320POPC   GL1 4324   9.876   4.562   4.323
  320POPC   GL2 4325   9.737   4.229   4.353
  320POPC   C1A 4326   9.933   4.446   4.790
  320POPC   D2A 4327   9.862   4.637   5.194
  320POPC   C3A 4328   9.796   4.366   5.507
  320POPC   C4A 4329   9.647   4.325   5.871
  320POPC   C1B 4330   9.494   4.205   4.719
  320POPC   C2B 4331   9.452   4.282   5.157
  320POPC   C3B 4332   9.434   3.994   5.516
  320POPC   C4B 4333   9.359   3.916   5.961
  321POPC   NC3 4334   7.193   9.982   3.666
  321POPC   PO4 4335   7.031   9.337   3.842
  321POPC   GL1 4336   7.207   9.446   4.279
  321POPC   GL2 4337   7.591   9.461   4.340
  321POPC   C1A 4338   7.265   9.462   4.759
  321POPC   D2A 4339   7.629   9.454   5.081
  321POPC   C3A 4340   7.499   9.361   5.527
  321POPC   C4A 4341   7.084   9.438   5.704
  321POPC   C1B 4342   7.605   9.806   4.667
  321POPC   C2B 4343   7.377   9.932   4.994
  321POPC   C3B 4344   7.235   9.734   5.316
  321POPC   C4B 4345   7.234   9.939   5.705
  322POPC   NC3 4346  10.331  10.501   4.003
  322POPC   PO4 4347  10.906  10.639   4.314
  322POPC   GL1 4348  10.503  10.477   4.497
  322POPC   GL2 4349  10.129  10.561   4.472
  322POPC   C1A 4350  10.386  10.389   4.917
  322POPC   D2A 4351  10.552  10.200   5.270
  322POPC   C3A 4352  10.818  10.429   5.569
  322POPC   C4A 4353  11.010  10.819   5.616
  322POPC   C1B 4354  10.026  10.149   4.647
  322POPC   C2B 4355   9.921  10.100   5.121
  322POPC   C3B 4356  10.111  10.219   5.523
  322POPC   C4B 4357  10.382  10.395   5.839
  323POPC   NC3 4358   2.475  10.381   3.857
  323POPC   PO4 4359   1.808  10.047   3.853
  323POPC   GL1 4360   1.966  10.281   4.193
  323POPC   GL2 4361   1.681  10.148   4.347
  323POPC   C1A 4362   1.874  10.570   4.559
  323POPC   D2A 4363   1.969  10.677   4.986
  323POPC   C3A 4364   2.082  10.469   5.365
  323POPC   C4A 4365   1.941  10.639   5.744
  323POPC   C1B 4366   1.921  10.092   4.722
  323POPC   C2B 4367   1.778   9.918   5.105
  323POPC   C3B 4368   1.812  10.080   5.507
  323POPC   C4B 4369   2.150  10.179   5.820
  324POPC   NC3 4370   2.666   9.217   3.727
  324POPC   PO4 4371   2.752   9.918   3.720
  324POPC   GL1 4372   2.602   9.919   4.279
  324POPC   GL2 4373   2.825   9.646   4.525
  324POPC   C1A 4374   2.490   9.886   4.783
  324POPC   D2A 4375   2.696   9.559   5.079
  324POPC   C3A 4376   2.543   9.543   5.505
  324POPC   C4A 4377   2.523   9.837   5.836
  324POPC   C1B 4378   3.077   9.859   4.854
  324POPC   C2B 4379   3.081   9.901   5.310
  324POPC   C3B 4380   2.982   9.704   5.701
  324POPC   C4B 4381   2.998   9.869   6.134
  325POPC   NC3 4382  10.270   8.697   3.926
  325POPC   PO4 4383  10.643   9.242   3.626
  325POPC   GL1 4384  10.569   9.114   4.087
  325POPC   GL2 4385  10.210   9.097   4.224
  325POPC   C1A 4386  10.677   8.971   4.529
  325POPC   D2A 4387  10.787   8.657   4.858
  325POPC   C3A 4388  10.777   8.782   5.279
  325POPC   C4A 4389  10.592   8.803   5.658
  325POPC   C1B 4390  10.167   8.921   4.652
  325POPC   C2B 4391  10.282   8.799   5.093
  325POPC   C3B 4392  10.081   8.945   5.477
  325POPC   C4B 4393  10.218   9.070   5.863
  326POPC   NC3 4394  10.107   4.079   3.883
  326POPC   PO4 4395  10.670   4.517   3.860
  326POPC   GL1 4396  10.560   4.196   4.151
  326POPC   GL2 4397  10.260   4.225   4.334
  326POPC   C1A 4398  10.698   4.063   4.576
  326POPC   D2A 4399  10.919   4.113   4.969
  326POPC   C3A 4400  10.757   4.042   5.373
  326POPC   C4A 4401  10.685   4.294   5.733
  326POPC   C1B 4402  10.194   3.995   4.696
  326POPC   C2B 4403  10.365   4.203   5.044
  326POPC   C3B 4404  10.286   4.370   5.441
  326POPC   C4B 4405  10.129   4.118   5.809
  327POPC   NC3 4406   2.446   8.902   4.102
  327POPC   PO4 4407   3.079   9.034   3.828
  327POPC   GL1 4408   2.927   8.963   4.283
  327POPC   GL2 4409   2.839   8.609   4.276
  327POPC   C1A 4410   2.682   9.032   4.724
  327POPC   D2A 4411   2.405   9.054   5.112
  327POPC   C3A 4412   2.616   9.056   5.514
  327POPC   C4A 4413   3.025   9.179   5.648
  327POPC   C1B 4414   2.975   8.609   4.726
  327POPC   C2B 4415   2.794   8.709   5.153
  327POPC   C3B 4416   2.702   8.572   5.595
  327POPC   C4B 4417   3.055   8.674   5.870
  328POPC   NC3 4418   0.704   2.652   3.693
  328POPC   PO4 4419   1.390   2.605   3.922
  328POPC   GL1 4420   1.130   2.446   4.267
  328POPC   GL2 4421   1.481   2.346   4.422
  328POPC   C1A 4422   1.037   2.404   4.706
  328POPC   D2A 4423   1.072   2.768   4.952
  328POPC   C3A 4424   1.051   2.945   5.337
  328POPC   C4A 4425   1.010   2.729   5.742
  328POPC   C1B 4426   1.419   2.772   4.561
  328POPC   C2B 4427   1.479   3.057   4.871
  328POPC   C3B 4428   1.621   2.998   5.271
  328POPC   C4B 4429   1.414   3.049   5.663
  329POPC   NC3 4430   5.360   2.221   3.989
  329POPC   PO4 4431   5.993   1.941   3.975
  329POPC   GL1 4432   5.906   1.764   4.361
  329POPC   GL2 4433   5.571   1.895   4.363
  329POPC   C1A 4434   5.833   1.661   4.798
  329POPC   D2A 4435   5.906   1.892   5.166
  329POPC   C3A 4436   6.087   1.781   5.555
  329POPC   C4A 4437   6.091   2.198   5.741
  329POPC   C1B 4438   5.346   1.826   4.763
  329POPC   C2B 4439   5.414   1.811   5.217
  329POPC   C3B 4440   5.594   1.933   5.612
  329POPC   C4B 4441   5.684   1.641   5.925
  330POPC   NC3 4442   9.771   9.308   4.010
  330POPC   PO4 4443  10.032   9.935   3.802
  330POPC   GL1 4444  10.225   9.596   4.099
  330POPC   GL2 4445  10.565   9.641   4.050
  330POPC   C1A 4446  10.404   9.424   4.550
  330POPC   D2A 4447  10.285   9.317   5.000
  330POPC   C3A 4448  10.494   9.256   5.418
  330POPC   C4A 4449  10.485   9.491   5.831
  330POPC   C1B 4450  10.455   9.915   4.461
  330POPC   C2B 4451  10.332   9.847   4.929
  330POPC   C3B 4452  10.336   9.762   5.397
  330POPC   C4B 4453  10.608   9.971   5.711
  331POPC   NC3 4454   3.150  10.038   3.502
  331POPC   PO4 4455   2.942  10.500   3.838
  331POPC   GL1 4456   2.901  10.329   4.223
  331POPC   GL2 4457   2.680  10.556   4.314
  331POPC   C1A 4458   2.860  10.292   4.692
  331POPC   D2A 4459   2.947  10.400   5.112
  331POPC   C3A 4460   2.684  10.217   5.435
  331POPC   C4A 4461   2.852  10.244   5.826
  331POPC   C1B 4462   2.360  10.345   4.549
  331POPC   C2B 4463   2.409  10.358   4.991
  331POPC   C3B 4464   2.546  10.697   5.289
  331POPC   C4B 4465   2.478  10.622   5.735
  332POPC   NC3 4466   8.689   8.156   3.873
  332POPC   PO4 4467   9.281   7.899   3.637
  332POPC   GL1 4468   9.117   7.946   4.138
  332POPC   GL2 4469   9.035   8.248   4.292
  332POPC   C1A 4470   9.278   7.960   4.632
  332POPC   D2A 4471   9.190   7.861   5.098
  332POPC   C3A 4472   8.993   7.932   5.512
  332POPC   C4A 4473   9.181   7.758   5.867
  332POPC   C1B 4474   8.797   8.102   4.693
  332POPC   C2B 4475   8.645   7.984   5.138
  332POPC   C3B 4476   8.521   8.157   5.592
  332POPC   C4B 4477   8.411   8.288   6.049
  333POPC   NC3 4478   2.781   4.423   3.939
  333POPC   PO4 4479   3.238   4.660   4.257
  333POPC   GL1 4480   2.727   4.613   4.396
  333POPC   GL2 4481   2.527   4.264   4.363
  333POPC   C1A 4482   2.509   4.540   4.794
  333POPC   D2A 4483   2.737   4.383   5.168
  333POPC   C3A 4484   2.572   4.505   5.570
  333POPC   C4A 4485   2.675   4.731   5.955
  333POPC   C1B 4486   2.568   4.011   4.777
  333POPC   C2B 4487   2.746   3.871   5.199
  333POPC   C3B 4488   2.662   3.954   5.651
  333POPC   C4B 4489   2.862   4.210   5.956
  334POPC   NC3 4490   8.841   9.715   3.892
  334POPC   PO4 4491   8.708   9.088   4.061
  334POPC   GL1 4492   8.732   9.456   4.320
  334POPC   GL2 4493   8.993   9.740   4.358
  334POPC   C1A 4494   8.574   9.544   4.704
  334POPC   D2A 4495   8.758   9.538   5.102
  334POPC   C3A 4496   8.534   9.451   5.487
  334POPC   C4A 4497   8.756   9.470   5.875
  334POPC   C1B 4498   8.862   9.960   4.712
  334POPC   C2B 4499   8.971  10.008   5.103
  334POPC   C3B 4500   8.854   9.850   5.493
  334POPC   C4B 4501   8.977   9.914   5.917
  335POPC   NC3 4502   0.305   7.018   3.979
  335POPC   PO4 4503   0.050   7.596   3.825
  335POPC   GL1 4504   0.127   7.494   4.242
  335POPC   GL2 4505   0.470   7.485   4.240
  335POPC   C1A 4506   0.288   7.580   4.688
  335POPC   D2A 4507   0.307   7.353   5.058
  335POPC   C3A 4508   0.352   7.553   5.455
  335POPC   C4A 4509   0.201   7.357   5.847
  335POPC   C1B 4510   0.533   7.137   4.572
  335POPC   C2B 4511   0.647   6.959   4.980
  335POPC   C3B 4512   0.711   7.191   5.373
  335POPC   C4B 4513   0.719   7.382   5.809
  336POPC   NC3 4514   4.436   1.480   3.461
  336POPC   PO4 4515   4.459   1.489   4.094
  336POPC   GL1 4516   4.350   1.408   4.471
  336POPC   GL2 4517   4.248   1.071   4.415
  336POPC   C1A 4518   4.546   1.256   4.837
  336POPC   D2A 4519   4.430   0.988   5.182
  336POPC   C3A 4520   4.464   1.175   5.595
  336POPC   C4A 4521   4.434   1.421   5.986
  336POPC   C1B 4522   3.915   1.043   4.747
  336POPC   C2B 4523   3.828   0.959   5.197
  336POPC   C3B 4524   3.964   1.116   5.599
  336POPC   C4B 4525   3.947   1.250   6.026
  337POPC   NC3 4526   2.769   0.140   4.003
  337POPC   PO4 4527   2.922   0.764   3.770
  337POPC   GL1 4528   2.975   0.617   4.263
  337POPC   GL2 4529   2.915   0.268   4.459
  337POPC   C1A 4530   2.878   0.730   4.728
  337POPC   D2A 4531   2.665   0.800   5.152
  337POPC   C3A 4532   2.867   0.752   5.587
  337POPC   C4A 4533   2.787   0.558   6.013
  337POPC   C1B 4534   2.572   0.322   4.787
  337POPC   C2B 4535   2.492   0.328   5.247
  337POPC   C3B 4536   2.729   0.239   5.613
  337POPC   C4B 4537   2.589  11.472   5.956
  338W        W 4538   4.593   7.123   1.918
  339W        W 4539   5.147   6.014   0.003
  340W        W 4540   7.845   4.660  10.373
  341W        W 4541  10.038   0.237  10.629
  342W        W 4542   0.146   4.699   3.428
  343W        W 4543   7.478   3.856  10.485
  344W        W 4544  10.858   8.799  11.762
  345W        W 4545   8.576   3.198   8.926
  346W        W 4546   1.423   0.939   0.944
  347W        W 4547   1.256   6.503  10.839
  348W        W 4548   4.347   9.018   2.241
  349W        W 4549   7.683   6.506   2.754
  350W        W 4550  11.342   1.009   2.114
  351W        W 4551  10.056   2.631   3.796
  352W        W 4552   0.560  11.433   3.234
  353W        W 4553   2.234  10.433  10.433
  354W        W 4554  10.717   5.803  11.465
  355W        W 4555   3.810   7.624   0.879
  356W        W 4556  11.497   8.168  11.805
  357W        W 4557  11.089   7.997   2.222
  358W        W 4558   5.983   3.630   7.954
  359W        W 4559   5.960   4.071   3.949
  360W        W 4560   2.537   3.022   0.103
  361W        W 4561   9.187   5.296   2.903
  362W        W 4562   2.409  10.315   0.432
  363W        W 4563   2.576  10.767   3.510
  364W        W 4564   4.628   0.369   0.466
  365W        W 4565   6.211   0.392   2.805
  366W        W 4566   2.345   5.768   0.953
  367W        W 4567   9.318  11.154  10.286
  368W        W 4568   7.266   6.152  10.507
  369W        W 4569   5.805   6.844  11.521
  370W        W 4570  11.298  10.570  11.303
  371W        W 4571   2.242  10.870   3.128
  372W        W 4572   7.956   8.397   1.819
  373W        W 4573   7.005   4.731   1.429
  374W        W 4574   0.899   1.391  10.457
  375W        W 4575   5.651   0.497   0.015
  376W        W 4576  10.347   2.807   3.129
  377W        W 4577   2.699   8.691   3.706
  378W        W 4578   3.270   8.595   0.847
  379W        W 4579   5.251   2.425  10.767
  380W        W 4580   2.705   2.568   9.889
  381W        W 4581   2.637   4.748   3.373
  382W        W 4582   3.885   8.984   3.001
  383W        W 4583   6.072   0.503   9.324
  384W        W 4584   6.765   6.468   2.012
  385W        W 4585   5.843   4.137   8.155
  386W        W 4586   0.614   2.467  11.838
  387W        W 4587   1.739   5.373  10.373
  388W        W 4588   0.579   2.809   0.697
  389W        W 4589   3.208   1.537   0.019
  390W        W 4590   6.607   1.004   0.891
  391W        W 4591   6.070   7.403  10.281
  392W        W 4592   4.441   8.924   0.749
  393W        W 4593   2.656   4.131   9.788
  394W        W 4594   3.696   4.749  11.660
  395W        W 4595  10.777   6.742  11.080
  396W        W 4596   1.018  10.463   2.687
  397W        W 4597   9.577   0.301   1.919
  398W        W 4598   8.937   2.465  10.960
  399W        W 4599   9.275   8.836   2.803
  400W        W 4600   9.136  10.834   9.939
  401W        W 4601   9.003  11.314   1.675
  402W        W 4602   9.047   9.549   9.914
  403W        W 4603   5.248   9.267   1.311
  404W        W 4604   9.381  10.430  11.440
  405W        W 4605   7.669   5.230   0.730
  406W        W 4606   1.494   2.799   1.470
  407W        W 4607   3.854   4.643   2.736
  408W        W 4608   5.684  10.344  11.322
  409W        W 4609  10.481   3.221   9.036
  410W        W 4610   9.870  10.586  11.404
  411W        W 4611   4.256   1.765  10.591
  412W        W 4612   3.192   8.194   9.579
  413W        W 4613  10.511   4.641   1.479
  414W        W 4614   1.116   8.390   8.845
  415W        W 4615  11.361   4.365   0.554
  416W        W 4616  10.459   7.391   1.666
  417W        W 4617   6.563   7.574  11.456
  418W        W 4618   5.524   6.157   0.315
  419W        W 4619   4.208   2.816   0.450
  420W        W 4620   4.713   6.229   0.157
  421W        W 4621   8.051   9.979  10.875
  422W        W 4622   9.465  11.283   1.892
  423W        W 4623   4.303   0.153   9.740
  424W        W 4624   7.088   4.296   0.084
  425W        W 4625   9.041   7.276   3.467
  426W        W 4626   9.466   4.244  11.525
  427W        W 4627   5.420   3.561   9.134
  428W        W 4628  10.606   8.848   0.337
  429W        W 4629   5.647  11.235   2.209
  430W        W 4630   5.714   4.505   2.946
  431W        W 4631   5.114  11.475  10.600
  432W        W 4632   5.764   3.262  10.300
  433W        W 4633  10.938   8.056  11.111
  434W        W 4634   1.853   3.200   3.119
  435W        W 4635  11.243   0.398  10.823
  436W        W 4636   5.990  10.066  11.715
  437W        W 4637   3.587   5.190   8.121
  438W        W 4638   4.752   8.907   8.155
  439W        W 4639   2.238  10.244   9.871
  440W        W 4640   1.770   9.805   0.015
  441W        W 4641   6.971   2.670   1.612
  442W        W 4642  10.035   2.375  10.870
  443W        W 4643   0.355   0.397   9.004
  444W        W 4644   6.465   0.169  11.028
  445W        W 4645   6.483   3.818   9.851
  446W        W 4646   1.000   6.242   3.990
  447W        W 4647   9.298   9.392   8.928
  448W        W 4648   5.284   7.354   1.691
  449W        W 4649  10.246   7.675   0.848
  450W        W 4650   9.128   5.044  11.947
  451W        W 4651   4.983  10.536  10.646
  452W        W 4652   1.362   3.403  10.631
  453W        W 4653   2.697   4.036  11.954
  454W        W 4654   4.468   0.343   8.826
  455W        W 4655   4.743   3.157   2.755
  456W        W 4656   4.061   4.274  11.416
  457W        W 4657   2.618  10.321   0.902
  458W        W 4658  10.801   1.800  10.929
  459W        W 4659   6.970   9.610   3.395
  460W        W 4660  10.899   0.919   0.253
  461W        W 4661   9.820   1.256   9.785
  462W        W 4662   8.457   9.146   8.994
  463W        W 4663   2.464   5.364   1.663
  464W        W 4664   7.665   3.863   3.997
  465W        W 4665   1.106   6.611   8.389
  466W        W 4666   7.397   7.506  10.724
  467W        W 4667   2.156   6.539   3.359
  468W        W 4668   8.702   9.442   1.735
  469W        W 4669   9.535   0.567   9.819
  470W        W 4670   8.138   4.638  10.783
  471W        W 4671   2.117   2.304   0.237
  472W        W 4672  11.167   4.949  11.135
  473W        W 4673   8.376   5.589   0.333
  474W        W 4674   1.359   3.389  11.620
  475W        W 4675   2.341   3.753  10.008
  476W        W 4676   6.222   1.042   9.902
  477W        W 4677   6.575   6.913   2.259
  478W        W 4678  11.045  11.275   2.221
  479W        W 4679   3.504   6.183   1.742
  480W        W 4680   4.671   2.216  11.292
  481W        W 4681   9.485   0.310  11.373
  482W        W 4682   9.446   9.132  10.276
  483W        W 4683  10.434   8.679  11.450
  484W        W 4684   6.014   6.917   0.797
  485W        W 4685   2.491   8.195   9.098
  486W        W 4686   2.943  10.459   3.325
  487W        W 4687   5.748   3.639  11.376
  488W        W 4688   9.649   7.196   9.508
  489W        W 4689  10.566   7.023  11.895
  490W        W 4690   3.303   6.952  11.449
  491W        W 4691  11.299  11.131   0.056
  492W        W 4692   2.744   4.543   0.065
  493W        W 4693   6.558   4.071   9.389
  494W        W 4694   3.991   8.350   3.490
  495W        W 4695   1.230   9.936  10.757
  496W        W 4696   7.628  11.099   1.697
  497W        W 4697  10.006   3.759  11.623
  498W        W 4698  11.116   5.470  10.871
  499W        W 4699   7.225   3.981   2.460
  500W        W 4700   1.859   6.119  11.347
  501W        W 4701   9.746   9.019   0.894
  502W        W 4702   8.446   1.627  10.844
  503W        W 4703   9.569  11.281   2.828
  504W        W 4704   1.360   1.755   0.692
  505W        W 4705   4.335   9.174   1.196
  506W        W 4706   0.332   4.744  11.710
  507W        W 4707   0.595   4.219   0.724
  508W        W 4708  10.493  10.222   0.664
  509W        W 4709   0.808   0.316  11.832
  510W        W 4710   8.473   5.460   3.748
  511W        W 4711   0.858  10.771   9.876
  512W        W 4712   4.679   0.885   2.139
  513W        W 4713   3.591   8.568  11.738
  514W        W 4714   3.340   8.118   3.146
  515W        W 4715   4.265   3.327   2.818
  516W        W 4716   1.168   7.820   1.061
  517W        W 4717   8.750   1.525   2.982
  518W        W 4718   5.279   8.677   8.639
  519W        W 4719   8.103   1.168   9.299
  520W        W 4720   0.944  11.296   0.919
  521W        W 4721   6.675   5.549   2.477
  522W        W 4722   4.364   1.352   9.477
  523W        W 4723   2.174   6.594   1.315
  524W        W 4724   0.909   7.984   9.091
  525W        W 4725   3.569   0.458   2.344
  526W        W 4726   1.971   3.730   8.496
  527W        W 4727   7.154   1.395  11.436
  528W        W 4728   3.670   6.559   3.110
  529W        W 4729   0.833   6.595  10.024
  530W        W 4730   1.593   5.328   0.834
  531W        W 4731   1.604   2.697  11.672
  532W        W 4732   6.419   8.865  10.268
  533W        W 4733   3.062  10.991   3.413
  534W        W 4734  10.613   0.317   1.753
  535W        W 4735  10.017   8.620   9.662
  536W        W 4736   5.244   3.561  11.334
  537W        W 4737  10.575   3.092  11.569
  538W        W 4738   1.787   0.510   2.656
  539W        W 4739   5.516   3.492   4.258
  540W        W 4740   2.471   8.504  10.751
  541W        W 4741   1.773   7.902   3.042
  542W        W 4742   7.996   3.450   2.114
  543W        W 4743   9.679   9.642   0.095
  544W        W 4744   8.015  11.268   2.879
  545W        W 4745  10.014   7.428   0.474
  546W        W 4746   5.559   8.563  10.697
  547W        W 4747   2.122   0.967   9.388
  548W        W 4748   7.253   1.297   2.295
  549W        W 4749   7.153  10.390  10.878
  550W        W 4750   0.662   6.457   2.773
  551W        W 4751   2.300   1.717   2.453
  552W        W 4752   5.704   4.208   0.123
  553W        W 4753   2.026   5.224  11.721
  554W        W 4754   0.516   5.139   2.787
  555W        W 4755   4.140   8.523  10.508
  556W        W 4756   3.358   9.395   1.913
  557W        W 4757   5.248   8.272   2.980
  558W        W 4758  10.033   3.521   0.061
  559W        W 4759   0.686   3.600   2.830
  560W        W 4760   9.607   1.437  10.578
  561W        W 4761   4.327   6.566   1.697
  562W        W 4762  11.137   9.508   9.534
  563W        W 4763   9.436   9.523   3.178
  564W        W 4764   4.045  11.053   3.133
  565W        W 4765   7.040  11.051   1.532
  566W        W 4766   2.179   9.861  10.755
  567W        W 4767   4.100   2.644   2.338
  568W        W 4768   6.221   4.118   8.652
  569W        W 4769   3.130  11.455   2.244
  570W        W 4770   6.178   7.239   4.022
  571W        W 4771  10.475   6.491   2.837
  572W        W 4772   3.414   9.075   3.307
  573W        W 4773   6.722  11.054   0.540
  574W        W 4774   6.132   3.017   8.629
  575W        W 4775   5.575   5.552  10.011
  576W        W 4776   1.348   4.199   2.892
  577W        W 4777   7.627   0.498  11.576
  578W        W 4778   6.926   6.515   0.690
  579W        W 4779   2.303   4.828  10.955
  580W        W 4780   0.502   1.301   9.893
  581W        W 4781   5.933   0.594   9.832
  582W        W 4782   7.592   2.476   1.204
  583W        W 4783   3.800   2.325  11.764
  584W        W 4784   8.222   1.320   1.753
  585W        W 4785   0.792   8.992   3.070
  586W        W 4786   9.954  11.421   9.870
  587W        W 4787   4.866   1.807   3.300
  588W        W 4788   3.636   1.636   9.043
  589W        W 4789   7.376   7.132  11.486
  590W        W 4790   3.163   4.227   2.773
  591W        W 4791   5.624   7.551  10.465
  592W        W 4792  10.458   4.708   1.972
  593W        W 4793   5.161   5.599   0.309
  594W        W 4794   9.448   7.692   9.430
  595W        W 4795   4.958   1.418  11.550
  596W        W 4796   4.964   3.068   8.693
  597W        W 4797   0.309   9.034   9.294
  598W        W 4798   3.759   5.166   2.650
  599W        W 4799  10.339   4.736   2.452
  600W        W 4800   4.361   1.710  11.505
  601W        W 4801   2.235   3.606   1.752
  602W        W 4802  10.898   8.458  11.404
  603W        W 4803   3.721  11.323  10.878
  604W        W 4804   5.728   0.113   1.834
  605W        W 4805   1.645   1.886   1.752
  606W        W 4806   6.220   3.403   0.021
  607W        W 4807   5.055   8.107  11.278
  608W        W 4808   2.853   7.378   0.674
  609W        W 4809   3.525   2.867  11.262
  610W        W 4810   4.247   9.558   8.932
  611W        W 4811   5.654   6.631   1.080
  612W        W 4812  10.712   9.453  11.120
  613W        W 4813   3.735   7.516   3.082
  614W        W 4814   1.289   8.661  11.915
  615W        W 4815   0.194   3.009   9.268
  616W        W 4816   2.709   3.607   1.526
  617W        W 4817   3.172   2.974   2.306
  618W        W 4818   1.911   8.532   9.899
  619W        W 4819   4.654   2.908  11.830
  620W        W 4820   1.995   9.383   2.556
  621W        W 4821   4.095  10.269  11.837
  622W        W 4822   3.630   6.271  11.889
  623W        W 4823   1.265   9.024   0.726
  624W        W 4824   5.169   1.033   9.961
  625W        W 4825   9.080   8.067   2.937
  626W        W 4826   2.787   8.331   1.405
  627W        W 4827   0.862   3.009  11.036
  628W        W 4828   9.152   0.958   8.633
  629W        W 4829   4.286   8.036  11.989
  630W        W 4830   6.107   8.686   3.652
  631W        W 4831   7.790   2.059  11.856
  632W        W 4832   1.342   9.789   3.027
  633W        W 4833   3.260   0.333   1.936
  634W        W 4834   4.197   5.869   8.297
  635W        W 4835   3.155   6.168   0.715
  636W        W 4836   7.613   6.873   9.976
  637W        W 4837  11.219   5.647   2.748
  638W        W 4838   1.416   9.499  10.496
  639W        W 4839   7.426  11.169  11.870
  640W        W 4840   2.035   2.303  10.477
  641W        W 4841   9.284   9.936  11.404
  642W        W 4842   2.354  11.042   9.113
  643W        W 4843   8.361   6.144   3.152
  644W        W 4844   3.280   3.486   4.008
  645W        W 4845   6.529   1.819   0.466
  646W        W 4846   5.308   7.622   0.815
  647W        W 4847  10.810   6.421   3.506
  648W        W 4848   9.473   0.891   9.046
  649W        W 4849   3.596   4.989  10.785
  650W        W 4850   6.051   9.942  11.208
  651W        W 4851   1.694   4.096   9.430
  652W        W 4852   1.646   7.107   0.990
  653W        W 4853   8.156   3.386   2.614
  654W        W 4854   7.354   0.922  11.402
  655W        W 4855   7.046   1.878   1.647
  656W        W 4856   5.225   2.667  11.798
  657W        W 4857   7.908   9.026   0.831
  658W        W 4858  10.077   4.322   9.368
  659W        W 4859   9.875   3.871   3.060
  660W        W 4860   7.426   5.986   9.868
  661W        W 4861   8.513   1.403  11.451
  662W        W 4862   1.427   8.176   1.312
  663W        W 4863   8.027  10.784   0.573
  664W        W 4864   5.220   0.635   0.928
  665W        W 4865   8.232   6.099   0.368
  666W        W 4866   9.080   8.076  10.738
  667W        W 4867   5.473   6.544   9.171
  668W        W 4868   6.247   9.929   8.588
  669W        W 4869   9.900   5.618   9.045
  670W        W 4870  11.211   3.819   2.679
  671W        W 4871   7.519   4.705   1.643
  672W        W 4872   8.510   8.965  11.963
  673W        W 4873   2.737   6.168   2.006
  674W        W 4874   1.247   6.566  10.324
  675W        W 4875   4.793   9.454   1.164
  676W        W 4876   5.187   9.403   9.972
  677W        W 4877   5.174   8.536   2.037
  678W        W 4878  11.398   2.970   8.850
  679W        W 4879   0.809   9.090   0.496
  680W        W 4880   6.059   2.052   2.770
  681W        W 4881   4.077   2.887  11.094
  682W        W 4882   7.049   0.107   9.245
  683W        W 4883   1.742   7.931   0.389
  684W        W 4884  10.879   6.374   9.300
  685W        W 4885   1.296   6.487   9.786
  686W        W 4886   9.058  10.898   2.034
  687W        W 4887   8.048   7.154   0.679
  688W        W 4888   1.200  10.894   9.509
  689W        W 4889   1.393   6.961  10.996
  690W        W 4890   8.598   9.804   9.807
  691W        W 4891   8.837   4.066  11.755
  692W        W 4892   6.273   2.246   3.215
  693W        W 4893   6.041   9.473   0.801
  694W        W 4894   1.106   0.305  10.902
  695W        W 4895   4.741   5.646   0.618
  696W        W 4896   4.208   7.550  10.522
  697W        W 4897   8.981   8.667   8.485
  698W        W 4898   2.956   5.283   1.581
  699W        W 4899   6.313   3.299   1.336
  700W        W 4900   6.517   8.362  11.025
  701W        W 4901   4.058   7.258   2.773
  702W        W 4902  10.762   4.163  10.067
  703W        W 4903   2.667   1.206  10.828
  704W        W 4904   9.213   5.901  10.787
  705W        W 4905   7.002   0.610  11.182
  706W        W 4906   7.161   6.225   2.247
  707W        W 4907   3.084   3.107   9.530
  708W        W 4908   4.947   5.224  11.488
  709W        W 4909   4.127   0.271   1.526
  710W        W 4910   0.866   1.287   1.536
  711W        W 4911   4.653   2.800   3.454
  712W        W 4912  10.414   6.465   9.032
  713W        W 4913   2.642   6.140   2.863
  714W        W 4914   9.972   8.878  11.578
  715W        W 4915   8.257   0.296  10.501
  716W        W 4916   8.792   0.262   1.742
  717W        W 4917   6.628   8.179   1.977
  718W        W 4918   4.152   6.052   0.853
  719W        W 4919   6.314   1.447  11.626
  720W        W 4920   8.014   6.464   0.011
  721W        W 4921   2.659   3.287   0.546
  722W        W 4922   1.261   0.774   9.954
  723W        W 4923   4.691   5.685  11.514
  724W        W 4924   2.999   3.734   2.827
  725W        W 4925  11.070   1.620   2.835
  726W        W 4926   6.917   7.504  11.849
  727W        W 4927   3.772  10.879   8.991
  728W        W 4928   4.940  10.746   3.427
  729W        W 4929   4.402   0.711  11.658
  730W        W 4930  10.476   6.908  10.686
  731W        W 4931   6.659   1.556   0.884
  732W        W 4932   0.228   3.493   9.909
  733W        W 4933   5.008  10.372  11.966
  734W        W 4934   0.825   7.158   0.500
  735W        W 4935   6.101   2.688   1.216
  736W        W 4936   8.905   1.460   1.719
  737W        W 4937   1.132  10.100   3.456
  738W        W 4938  10.934   1.324  10.661
  739W        W 4939   1.646  11.443  10.116
  740W        W 4940   1.139   7.305   1.028
  741W        W 4941   2.107   6.217   0.924
  742W        W 4942   4.521   3.219   2.223
  743W        W 4943  10.042  10.768  10.910
  744W        W 4944  10.344   8.832  10.942
  745W        W 4945   8.102  10.170  10.415
  746W        W 4946  10.004   7.193   1.898
  747W        W 4947   5.459   8.418   9.056
  748W        W 4948   3.821  10.456   1.424
  749W        W 4949   4.805   1.001  11.783
  750W        W 4950   1.283  10.692   1.881
  751W        W 4951   1.781   2.437   2.753
  752W        W 4952   6.681   5.226   1.389
  753W        W 4953  10.050   8.407   9.193
  754W        W 4954   3.353   4.682   2.607
  755W        W 4955   4.587   3.733   1.983
  756W        W 4956   4.302   2.443  10.973
  757W        W 4957   8.599   1.976   9.379
  758W        W 4958  11.305   4.247   9.390
  759W        W 4959   9.449   5.541  10.014
  760W        W 4960   8.387   8.078  10.010
  761W        W 4961   6.931   4.179   0.582
  762W        W 4962   1.262   5.345   1.258
  763W        W 4963   3.435   3.200  10.393
  764W        W 4964   4.705   0.367   9.393
  765W        W 4965   9.769   6.716   8.223
  766W        W 4966   8.200   0.430   9.984
  767W        W 4967   6.314   6.126  11.479
  768W        W 4968   5.185   4.833  11.738
  769W        W 4969   2.234   3.829   8.942
  770W        W 4970  11.498  11.225   0.977
  771W        W 4971   9.944   6.168   8.918
  772W        W 4972   1.141   9.537   9.013
  773W        W 4973   6.284   5.299   1.749
  774W        W 4974   7.905   9.800  11.800
  775W        W 4975   4.555   2.293  10.019
  776W        W 4976   0.417   0.321   1.941
  777W        W 4977   7.469   0.989   3.007
  778W        W 4978   7.475   1.468  10.483
  779W        W 4979   0.080   7.311   0.350
  780W        W 4980  10.749   2.971   9.448
  781W        W 4981   8.497   2.391  11.241
  782W        W 4982   5.757   3.675   2.282
  783W        W 4983   7.220   8.436  11.943
  784W        W 4984   7.802   4.235   1.583
  785W        W 4985   0.148   6.143   9.879
  786W        W 4986   4.787   4.126   9.615
  787W        W 4987   7.674   9.547   9.786
  788W        W 4988   5.568   0.285  11.545
  789W        W 4989   5.556   9.878   8.552
  790W        W 4990  11.238   2.270  10.593
  791W        W 4991   7.790   7.911   0.607
  792W        W 4992  11.055   7.011  11.947
  793W        W 4993   7.963   4.285   2.817
  794W        W 4994   6.745   8.077   0.242
  795W        W 4995  11.282   0.388   9.935
  796W        W 4996   7.537  10.606   2.607
  797W        W 4997   4.534   0.845  10.343
  798W        W 4998   7.444   5.209  11.761
  799W        W 4999   7.215   0.877   9.795
  800W        W 5000   6.645  11.337   9.111
  801W        W 5001   7.957   6.160   8.742
  802W        W 5002   4.610   3.086   0.300
  803W        W 5003   3.063   9.020  11.551
  804W        W 5004   7.556   1.703  11.082
  805W        W 5005   8.838   7.953   2.013
  806W        W 5006  11.311  10.793   0.753
  807W        W 5007   0.796   7.483  11.732
  808W        W 5008   4.705   7.491  11.338
  809W        W 5009   1.031   7.968   9.603
  810W        W 5010   9.844   6.542  11.775
  811W        W 5011   0.089  11.444  11.757
  812W        W 5012  10.552   0.320   9.286
  813W        W 5013   5.340   6.644   2.119
  814W        W 5014   2.899  10.145   1.823
  815W        W 5015   5.323   6.751  11.624
  816W        W 5016  10.220   5.680   9.440
  817W        W 5017  11.079   4.474  10.366
  818W        W 5018   6.450   3.761   8.964
  819W        W 5019   4.199   6.552   2.198
  820W        W 5020   4.038   6.724  10.033
  821W        W 5021   8.863   9.911  11.153
  822W        W 5022   8.952   1.095  11.423
  823W        W 5023   9.718   8.154   1.761
  824W        W 5024   3.726   9.544   2.257
  825W        W 5025   0.244   7.519   1.914
  826W        W 5026   4.699   9.823   8.821
  827W        W 5027   7.091   9.346  11.690
  828W        W 5028   5.429  10.345  10.323
  829W        W 5029   5.478   3.768   8.657
  830W        W 5030  10.459  11.359   9.857
  831W        W 5031  11.477   8.476  10.818
  832W        W 5032   1.390  10.805   2.918
  833W        W 5033   8.889   1.445  10.675
  834W        W 5034   7.252   0.096   9.713
  835W        W 5035  10.324   5.659   0.397
  836W        W 5036   8.604   3.797   8.221
  837W        W 5037  10.296   7.309  10.355
  838W        W 5038  10.368   2.893   9.764
  839W        W 5039   0.456   2.200  10.779
  840W        W 5040  10.954   0.076   0.805
  841W        W 5041   7.871   5.729   0.318
  842W        W 5042  10.869   0.706   9.949
  843W        W 5043   4.063   5.538  11.789
  844W        W 5044   3.736   8.934  10.086
  845W        W 5045   9.564  10.571  11.884
  846W        W 5046   4.677   0.480   0.963
  847W        W 5047   0.998   2.690   2.141
  848W        W 5048   1.966   0.436  11.044
  849W        W 5049  10.908   6.172  11.794
  850W        W 5050   9.356   5.666   0.666
  851W        W 5051   5.917   3.638   8.960
  852W        W 5052   1.635   9.328   2.167
  853W        W 5053   0.054   7.144   3.497
  854W        W 5054   8.004   7.189   2.545
  855W        W 5055   0.863   3.283  11.462
  856W        W 5056   6.573   0.261   2.008
  857W        W 5057   8.068   0.522   3.290
  858W        W 5058  10.702   9.782  11.520
  859W        W 5059   7.736   2.241   2.158
  860W        W 5060   5.118   7.006  10.460
  861W        W 5061   9.643   2.065   1.803
  862W        W 5062   6.635  11.265  10.764
  863W        W 5063   4.399   9.746   0.953
  864W        W 5064   5.933   6.623  10.403
  865W        W 5065   1.224   7.610   9.234
  866W        W 5066   1.879  10.608   9.852
  867W        W 5067  10.760   8.354   0.364
  868W        W 5068   8.883   9.934   1.092
  869W        W 5069   0.703   5.962   2.839
  870W        W 5070  10.801   9.578  10.060
  871W        W 5071   9.968  10.044   1.702
  872W        W 5072   2.651   2.139   3.699
  873W        W 5073   5.598  11.490   3.124
  874W        W 5074  11.007  11.158   8.986
  875W        W 5075   7.984   1.845   1.926
  876W        W 5076   2.971   0.664   9.544
  877W        W 5077  10.857   9.147   9.766
  878W        W 5078   4.643   1.942   2.477
  879W        W 5079   5.433   7.169  11.916
  880W        W 5080   8.568   3.223  11.289
  881W        W 5081   9.985  10.020   9.231
  882W        W 5082   0.338   6.103   9.409
  883W        W 5083   4.121   1.611  11.937
  884W        W 5084   8.515   1.716   8.937
  885W        W 5085  10.537   9.788   0.406
  886W        W 5086   4.206   7.230  10.913
  887W        W 5087   5.455   9.890   2.431
  888W        W 5088   4.976   6.907  11.955
  889W        W 5089   5.041   4.535   1.228
  890W        W 5090   4.447  11.329   2.919
  891W        W 5091   7.124   7.468   2.659
  892W        W 5092  11.145  10.319   2.339
  893W        W 5093   0.507   9.991   1.908
  894W        W 5094   0.811   0.679   9.105
  895W        W 5095   5.657   0.888  11.673
  896W        W 5096   7.857  10.403   0.279
  897W        W 5097   6.644   7.211   1.790
  898W        W 5098   9.403   7.341   1.854
  899W        W 5099   6.443   3.198   9.559
  900W        W 5100   6.160   7.028   3.101
  901W        W 5101   6.183   3.556  10.296
  902W        W 5102   3.378   9.357   0.299
  903W        W 5103   3.872   1.658  10.919
  904W        W 5104   2.010   0.463   9.528
  905W        W 5105   1.921   1.588   2.765
  906W        W 5106   5.165   6.952   9.263
  907W        W 5107  10.627   5.026  10.370
  908W        W 5108   8.948   9.312   9.317
  909W        W 5109   1.350   3.147   9.785
  910W        W 5110   3.819   3.737   2.160
  911W        W 5111   5.887   7.464   9.319
  912W        W 5112   6.758   7.844   3.220
  913W        W 5113   6.375   9.977   2.881
  914W        W 5114   0.905   3.613   9.315
  915W        W 5115   5.688  10.375  10.789
  916W        W 5116   3.530   0.810  10.478
  917W        W 5117   7.125   6.923   9.814
  918W        W 5118   9.735  11.440  10.349
  919W        W 5119   4.953   8.368   0.257
  920W        W 5120   7.065   0.502   2.733
  921W        W 5121   0.303   7.346  10.343
  922W        W 5122   3.502  10.446   2.569
  923W        W 5123   6.983   7.419   9.825
  924W        W 5124   9.063   6.438   8.404
  925W        W 5125   3.940   9.814  11.559
  926W        W 5126  10.425   7.652  11.531
  927W        W 5127   9.873   6.658  10.769
  928W        W 5128   2.853   1.383   3.281
  929W        W 5129   2.963   9.866   9.477
  930W        W 5130   7.639   6.685   0.313
  931W        W 5131   9.368  10.601   0.355
  932W        W 5132   0.251   4.608   0.803
  933W        W 5133  11.072   2.700  10.802
  934W        W 5134   1.818  10.472   2.668
  935W        W 5135   2.458   0.753   1.615
  936W        W 5136   9.816   4.166  11.908
  937W        W 5137  10.023   3.692  11.130
  938W        W 5138   1.452   7.614   3.347
  939W        W 5139   5.037   3.645  10.068
  940W        W 5140   8.635  10.572   0.866
  941W        W 5141   1.896   8.385   1.573
  942W        W 5142   9.338   2.898   1.577
  943W        W 5143   9.275   5.760   8.417
  944W        W 5144   6.792   7.578   0.777
  945W        W 5145   3.134   7.472   0.223
  946W        W 5146   4.777   9.561   3.204
  947W        W 5147   4.485   1.202  11.444
  948W        W 5148   7.621   3.338   2.452
  949W        W 5149   3.165  10.387  11.761
  950W        W 5150   6.679   8.975   9.840
  951W        W 5151   0.309   2.607  10.018
  952W        W 5152   2.322   7.190   9.037
  953W        W 5153   6.250   3.755  11.444
  954W        W 5154   0.763   7.307   2.638
  955W        W 5155   3.633   9.417   0.744
  956W        W 5156   0.484   1.688   9.097
  957W        W 5157  11.471   0.001   8.885
  958W        W 5158   6.755   9.802   0.381
  959W        W 5159   5.882   7.299  11.717
  960W        W 5160   4.944   7.984  10.665
  961W        W 5161   3.274   2.146   9.209
  962W        W 5162   3.716   1.972  11.317
  963W        W 5163   7.226   3.115  10.152
  964W        W 5164   7.723   9.544   0.250
  965W        W 5165   9.923   5.109   9.258
  966W        W 5166   4.437  10.989   0.932
  967W        W 5167   9.774   2.399  11.305
  968W        W 5168  10.814   9.423   9.107
  969W        W 5169   5.300   5.111   0.341
  970W        W 5170   9.142   5.936  10.251
  971W        W 5171   6.145   9.487   3.010
  972W        W 5172  11.282   6.522  11.886
  973W        W 5173   1.007   0.280   9.585
  974W        W 5174   1.020   0.506  10.428
  975W        W 5175   7.336   7.950  10.458
  976W        W 5176   0.231   0.785   2.849
  977W        W 5177   6.067   7.563  11.282
  978W        W 5178   4.547   4.542   1.331
  979W        W 5179  10.376  10.781   1.967
  980W        W 5180   3.044   0.837   1.272
  981W        W 5181   8.627   4.709   1.740
  982W        W 5182   4.706   7.592  10.330
  983W        W 5183   8.599   4.819  11.993
  984W        W 5184   3.207   7.389  11.715
  985W        W 5185   7.269   2.319   1.833
  986W        W 5186   8.430   2.747   3.580
  987W        W 5187   5.713  10.819   9.463
  988W        W 5188  11.370   8.655  11.637
  989W        W 5189   9.011   4.553   8.367
  990W        W 5190   9.365   0.365   1.052
  991W        W 5191   7.057   5.510  11.991
  992W        W 5192   3.919   2.200   2.949
  993W        W 5193   8.133   6.535   1.367
  994W        W 5194   3.898   6.660   8.989
  995W        W 5195   5.261  11.467   9.704
  996W        W 5196   6.925   8.600   1.325
  997W        W 5197  10.923  10.104  11.880
  998W        W 5198   1.853   5.005  10.721
  999W        W 5199   4.280   8.164   1.402
 1000W        W 5200   0.984   5.001   2.606
 1001W        W 5201  10.384   8.962  11.874
 1002W        W 5202   2.682   1.195  10.320
 1003W        W 5203   8.882   2.799   1.813
 1004W        W 5204   8.030   8.982   2.536
 1005W        W 5205   7.135   3.086  10.678
 1006W        W 5206  11.023   5.671  11.843
 1007W        W 5207   2.706   3.105   9.881
 1008W        W 5208   3.927   0.795   1.585
 1009W        W 5209   7.198   9.043  11.264
 1010W        W 5210   7.598   3.625  10.950
 1011W        W 5211   2.678   4.120   1.507
 1012W        W 5212   1.394   3.839   3.362
 1013W        W 5213  10.873  10.639   1.709
 1014W        W 5214   0.739   6.066   2.350
 1015W        W 5215  10.187   8.044   8.836
 1016W        W 5216   3.743  10.446   1.931
 1017W        W 5217  10.827   2.384   9.286
 1018W        W 5218   0.541   0.472   9.498
 1019W        W 5219   6.112  11.417   3.260
 1020W        W 5220   5.257   7.280   2.787
 1021W        W 5221   9.442  10.554   3.243
 1022W        W 5222   0.074   5.905   3.577
 1023W        W 5223   5.992   9.946   3.233
 1024W        W 5224   5.180   6.556   9.606
 1025W        W 5225   6.742  10.955  10.322
 1026W        W 5226   7.875   2.208  10.225
 1027W        W 5227   0.173  10.911   1.750
 1028W        W 5228   9.094   5.070   8.148
 1029W        W 5229   5.639   3.720   0.261
 1030W        W 5230   0.851   2.843   3.142
 1031W        W 5231   1.271   2.566  10.395
 1032W        W 5232   9.091   2.129   9.429
 1033W        W 5233   6.881   8.105  10.714
 1034W        W 5234   2.919   8.077   0.019
 1035W        W 5235   4.025   0.188   2.253
 1036W        W 5236   9.462   3.741   8.964
 1037W        W 5237  10.795   6.585   0.087
 1038W        W 5238   8.227   4.895   0.543
 1039W        W 5239   0.890  11.157   8.984
 1040W        W 5240  10.922   9.810   8.740
 1041W        W 5241   8.884   7.637   3.146
 1042W        W 5242   1.061   2.061   8.599
 1043W        W 5243   5.927   1.281   1.220
 1044W        W 5244   5.748   5.799   2.481
 1045W        W 5245   7.457   8.569   9.649
 1046W        W 5246  11.201   0.733   2.523
 1047W        W 5247   9.014   9.007  10.719
 1048W        W 5248   5.546   4.547  11.207
 1049W        W 5249   2.852   0.419   0.753
 1050W        W 5250   4.202  10.092   8.751
 1051W        W 5251   3.183   6.738  10.783
 1052W        W 5252   0.487  11.463   8.720
 1053W        W 5253   7.112   0.669   1.861
 1054W        W 5254   5.249  11.479   3.546
 1055W        W 5255   1.587   7.221  10.214
 1056W        W 5256   4.762   8.624   8.595
 1057W        W 5257   3.514   0.335   3.255
 1058W        W 5258   3.173   5.743   1.534
 1059W        W 5259   7.293   6.075   1.430
 1060W        W 5260   6.126   2.155   1.274
 1061W        W 5261   3.662   8.541   3.126
 1062W        W 5262   7.597   9.764   2.278
 1063W        W 5263   4.831   9.622  10.270
 1064W        W 5264   5.502   7.578   1.263
 1065W        W 5265   7.415   4.943   9.469
 1066W        W 5266  11.323   0.913   9.999
 1067W        W 5267   3.377   9.636   3.216
 1068W        W 5268   5.792   7.419   1.634
 1069W        W 5269   2.790   4.576  11.183
 1070W        W 5270   9.807   1.873  11.376
 1071W        W 5271   0.168   1.297   8.919
 1072W        W 5272   9.518   3.141  11.053
 1073W        W 5273   1.443   3.929  10.444
 1074W        W 5274   4.310   4.166   0.640
 1075W        W 5275   5.738  10.318   2.299
 1076W        W 5276   9.149   3.169   2.585
 1077W        W 5277   5.811  11.090   1.742
 1078W        W 5278   1.202   2.666   3.454
 1079W        W 5279  10.970  11.447  10.817
 1080W        W 5280   7.638  11.385   2.140
 1081W        W 5281   7.033   1.033   2.687
 1082W        W 5282   2.530   4.377  11.592
 1083W        W 5283   1.006   4.597  10.938
 1084W        W 5284   2.019   1.502   8.504
 1085W        W 5285   7.309   2.218  11.889
 1086W        W 5286   0.784   3.773   1.320
 1087W        W 5287   9.781   9.454   1.999
 1088W        W 5288   7.771   3.894  11.383
 1089W        W 5289   6.418   7.464   3.150
 1090W        W 5290   8.649   5.120   0.415
 1091W        W 5291   4.714   9.133   3.600
 1092W        W 5292   4.259   6.533   9.540
 1093W        W 5293   4.170   4.164   1.207
 1094W        W 5294   8.080   5.159   3.912
 1095W        W 5295   7.070   3.956   9.525
 1096W        W 5296   2.857   1.274   9.290
 1097W        W 5297   5.519   3.240   3.059
 1098W        W 5298   6.927   0.976   9.349
 1099W        W 5299   8.039   9.323   2.922
 1100W        W 5300   4.529   6.522   9.968
 1101W        W 5301   5.135   2.384   1.330
 1102W        W 5302   4.535   6.562  11.461
 1103W        W 5303   7.678   7.472   0.885
 1104W        W 5304   5.448  10.377   0.280
 1105W        W 5305  10.910   2.284  11.986
 1106W        W 5306   5.112   2.031  10.443
 1107W        W 5307   4.662   5.591  11.005
 1108W        W 5308   2.885   0.870   2.627
 1109W        W 5309   1.194   0.438   0.217
 1110W        W 5310  10.478   0.793   1.901
 1111W        W 5311   6.054   7.878  10.498
 1112W        W 5312   5.131   4.463   3.383
 1113W        W 5313   0.547   6.173   8.918
 1114W        W 5314   3.810   4.080   0.849
 1115W        W 5315   4.853   2.726   9.041
 1116W        W 5316   3.251   9.135  10.577
 1117W        W 5317   6.657   9.023  11.733
 1118W        W 5318   5.831   3.245  11.685
 1119W        W 5319   5.104   4.672   2.190
 1120W        W 5320   5.343   6.103  10.000
 1121W        W 5321   4.616   5.116  10.697
 1122W        W 5322   5.247   0.307   1.813
 1123W        W 5323   2.631  10.998   1.597
 1124W        W 5324   1.797   7.775  10.917
 1125W        W 5325   3.627   0.736   0.218
 1126W        W 5326   9.359   0.374  11.885
 1127W        W 5327   4.967   0.216   8.844
 1128W        W 5328   8.169   8.922  11.235
 1129W        W 5329   7.455   0.164  11.933
 1130W        W 5330  10.333  10.363   3.231
 1131W        W 5331   0.593   8.795   1.284
 1132W        W 5332   7.575   9.444   3.271
 1133W        W 5333   0.482   8.166   2.131
 1134W        W 5334  10.450   6.921   1.867
 1135W        W 5335   6.427   0.048  11.908
 1136W        W 5336   5.694   7.515   2.127
 1137W        W 5337   6.999   6.509  11.808
 1138W        W 5338   9.894   8.098   1.293
 1139W        W 5339   6.061   9.607   9.163
 1140W        W 5340   7.187  10.918   3.309
 1141W        W 5341   5.250  11.275   0.468
 1142W        W 5342   4.603  11.399  10.604
 1143W        W 5343  10.468   0.986   8.785
 1144W        W 5344   6.182   2.958   1.718
 1145W        W 5345  11.227   2.715   1.424
 1146W        W 5346   0.899   7.051  11.996
 1147W        W 5347   9.481  10.781   2.790
 1148W        W 5348  10.879   1.147  10.186
 1149W        W 5349   3.423   0.721   1.639
 1150W        W 5350   8.848   2.487   0.938
 1151W        W 5351   8.507  10.246   1.259
 1152W        W 5352   0.973   7.115   9.263
 1153W        W 5353   7.390   1.108   0.749
 1154W        W 5354   6.646   7.581   0.282
 1155W        W 5355   5.068   9.854  11.825
 1156W        W 5356  11.050   3.210   1.356
 1157W        W 5357   1.422   1.454  10.639
 1158W        W 5358   5.026   1.683   2.284
 1159W        W 5359   0.113   6.469   0.517
 1160W        W 5360   0.409   6.593  11.523
 1161W        W 5361   4.819   3.303  11.465
 1162W        W 5362   4.800  11.325  11.576
 1163W        W 5363   7.959   4.421   2.052
 1164W        W 5364   5.190   0.914   2.474
 1165W        W 5365   9.833   0.866   1.068
 1166W        W 5366   8.754   3.592   8.656
 1167W        W 5367   4.099   2.374   9.809
 1168W        W 5368   2.469   1.888   0.952
 1169W        W 5369   0.581  10.920   3.236
 1170W        W 5370   0.118   8.204  10.415
 1171W        W 5371   2.241   9.647   8.939
 1172W        W 5372   5.021   5.677   1.360
 1173W        W 5373   9.304   4.216   9.092
 1174W        W 5374  11.300   5.217   0.541
 1175W        W 5375   1.742   1.047   8.822
 1176W        W 5376   3.558   7.230   1.032
 1177W        W 5377   3.636   4.930   9.469
 1178W        W 5378   7.387  10.869   1.217
 1179W        W 5379   3.129   1.186  11.061
 1180W        W 5380   9.880   9.004  11.084
 1181W        W 5381   3.446   7.454   9.829
 1182W        W 5382  11.229   1.895  11.882
 1183W        W 5383  11.493   1.343   9.806
 1184W        W 5384   7.865   4.614   1.253
 1185W        W 5385   7.881  10.679  10.493
 1186W        W 5386  10.000   5.234   2.930
 1187W        W 5387   7.484   4.115  10.932
 1188W        W 5388   0.076   0.858  11.725
 1189W        W 5389   5.850   1.328  11.851
 1190W        W 5390   2.769   4.069  10.978
 1191W        W 5391   6.782   8.224  11.592
 1192W        W 5392   9.210   1.156  10.428
 1193W        W 5393   4.797   0.162   9.871
 1194W        W 5394   7.979   5.231   1.440
 1195W        W 5395   5.042  10.879   1.771
 1196W        W 5396   8.319  11.005   0.937
 1197W        W 5397  10.283   8.947   0.989
 1198W        W 5398  11.360   5.107   3.535
 1199W        W 5399   1.741   5.208   9.011
 1200W        W 5400   2.559   8.042   0.948
 1201W        W 5401   6.098   6.741   3.707
 1202W        W 5402   7.032   5.647   1.445
 1203W        W 5403   8.727   4.074   2.287
 1204W        W 5404  11.441   1.938   9.053
 1205W        W 5405   9.061   2.372   2.975
 1206W        W 5406   1.443   1.748   0.189
 1207W        W 5407   1.766   2.381   1.791
 1208W        W 5408   0.811   9.800   9.876
 1209W        W 5409   6.893   9.935  10.922
 1210W        W 5410   4.521   4.772   8.274
 1211W        W 5411   7.931   8.923  10.390
 1212W        W 5412   4.640   3.809   0.861
 1213W        W 5413   8.974   9.873  10.619
 1214W        W 5414   1.981   7.575  11.354
 1215W        W 5415   6.022   3.572   4.104
 1216W        W 5416   0.020   0.377  10.406
 1217W        W 5417   8.002  10.781  11.543
 1218W        W 5418   5.826   3.094   1.387
 1219W        W 5419   2.295   4.126  10.596
 1220W        W 5420   0.685   8.718   9.033
 1221W        W 5421   6.220   4.541   9.396
 1222W        W 5422  11.387   9.808   1.625
 1223W        W 5423   1.877  10.085  11.577
 1224W        W 5424   0.888   1.935   9.414
 1225W        W 5425   8.507   9.408   2.725
 1226W        W 5426   5.484   0.816   9.602
 1227W        W 5427   5.430   3.362   1.095
 1228W        W 5428   9.241   2.055   0.407
 1229W        W 5429   5.710   8.985   2.011
 1230W        W 5430  10.006   9.893   2.733
 1231W        W 5431   6.656   4.161   3.151
 1232W        W 5432   9.897   9.821   1.225
 1233W        W 5433   9.195   0.645  10.399
 1234W        W 5434   3.794   8.032  10.017
 1235W        W 5435   8.725   2.175   0.259
 1236W        W 5436   9.084   9.467   1.380
 1237W        W 5437   1.819   2.633  10.123
 1238W        W 5438   8.926   7.182   9.985
 1239W        W 5439   5.617   9.544   8.923
 1240W        W 5440   3.111   2.364  10.126
 1241W        W 5441   1.256   4.721   0.158
 1242W        W 5442  11.406   1.891   1.984
 1243W        W 5443   9.429   5.179   9.071
 1244W        W 5444  11.237  11.261   0.534
 1245W        W 5445   2.610  10.754   9.574
 1246W        W 5446   8.564   9.557   0.797
 1247W        W 5447   3.873   0.434   9.692
 1248W        W 5448   5.946   4.754  11.892
 1249W        W 5449   0.797   0.090   0.292
 1250W        W 5450   7.216   2.279   9.337
 1251W        W 5451   2.587   2.327   0.419
 1252W        W 5452   3.184   1.739   2.474
 1253W        W 5453  10.856   7.983  11.604
 1254W        W 5454   8.498   1.762   1.841
 1255W        W 5455   9.388   7.574   3.144
 1256W        W 5456   8.514   5.746  11.837
 1257W        W 5457   5.641   2.122  10.891
 1258W        W 5458   2.123   6.539   8.529
 1259W        W 5459  10.878   4.120   9.110
 1260W        W 5460   4.825  10.230   9.155
 1261W        W 5461   3.346   6.109  10.206
 1262W        W 5462  11.243   2.279   2.918
 1263W        W 5463   1.175   1.793  10.313
 1264W        W 5464   8.971   9.810   2.101
 1265W        W 5465   3.218   1.589   9.600
 1266W        W 5466   0.734  10.689   8.804
 1267W        W 5467  10.520   1.384  11.019
 1268W        W 5468  11.355   8.826  11.158
 1269W        W 5469   8.756   3.190   3.528
 1270W        W 5470   2.154  11.346   1.363
 1271W        W 5471   3.480  11.295   2.576
 1272W        W 5472   5.892   4.142  11.439
 1273W        W 5473   2.314   8.961   1.030
 1274W        W 5474   0.909   0.493   2.637
 1275W        W 5475   7.632  11.114   2.567
 1276W        W 5476   3.798   8.160   8.722
 1277W        W 5477   6.094   6.513   0.304
 1278W        W 5478  11.360   7.417  11.914
 1279W        W 5479   1.525   4.378   9.020
 1280W        W 5480   5.447   0.003   2.607
 1281W        W 5481  11.401   7.562   1.111
 1282W        W 5482   6.127   4.842   0.842
 1283W        W 5483   4.675   3.580  10.990
 1284W        W 5484   8.516   2.491   1.363
 1285W        W 5485   1.954  10.883  10.947
 1286W        W 5486   7.715   4.380   3.262
 1287W        W 5487   6.690   8.355   9.003
 1288W        W 5488   7.731   2.241   2.674
 1289W        W 5489   1.569   7.027  11.543
 1290W        W 5490   7.094   1.882  11.289
 1291W        W 5491   5.570   6.597   2.621
 1292W        W 5492   9.026   3.332   1.133
 1293W        W 5493   9.376   7.445   0.412
 1294W        W 5494   8.010   2.935  11.868
 1295W        W 5495   0.490   7.084  11.722
 1296W        W 5496  10.923  10.936   2.641
 1297W        W 5497   5.483   2.367   3.526
 1298W        W 5498   1.113   2.453  11.709
 1299W        W 5499   9.854   9.428   2.507
 1300W        W 5500   0.983   8.398   8.316
 1301W        W 5501   9.169   4.222   2.109
 1302W        W 5502   6.184  10.407   2.011
 1303W        W 5503   5.689   4.132   3.521
 1304W        W 5504   3.788   9.819   8.925
 1305W        W 5505  11.011  11.001  10.439
 1306W        W 5506   3.850   9.782  10.606
 1307W        W 5507   2.536   7.530   1.138
 1308W        W 5508  10.893  10.022   0.888
 1309W        W 5509   0.946   3.674   1.826
 1310W        W 5510   2.140   0.857   9.884
 1311W        W 5511   7.023   1.255   1.064
 1312W        W 5512   6.685   4.330  11.755
 1313W        W 5513  10.967   8.544   1.876
 1314W        W 5514   1.040   0.835  10.869
 1315W        W 5515   3.600  11.238  10.384
 1316W        W 5516   9.346   1.068   2.567
 1317W        W 5517   9.532   2.445   0.108
 1318W        W 5518   1.781  10.826   0.139
 1319W        W 5519  10.030   6.104  11.983
 1320W        W 5520   6.560   4.778   1.125
 1321W        W 5521   2.785   7.373   8.900
 1322W        W 5522   8.960   0.028   3.248
 1323W        W 5523  11.084  10.031   3.637
 1324W        W 5524   1.111   5.596   3.375
 1325W        W 5525   2.400   7.963   1.443
 1326W        W 5526   0.424   3.132   2.802
 1327W        W 5527   6.438   6.682   0.645
 1328W        W 5528   3.265  10.127   3.001
 1329W        W 5529   3.698   0.432   1.309
 1330W        W 5530   2.555   1.105   9.680
 1331W        W 5531   3.321   7.154   0.573
 1332W        W 5532  10.994   1.619   9.256
 1333W        W 5533   2.626   3.502  11.787
 1334W        W 5534   5.728   5.267   1.200
 1335W        W 5535   6.167   2.884  11.810
 1336W        W 5536   6.012   1.310  10.301
 1337W        W 5537   4.621   7.955  11.553
 1338W        W 5538  11.331   9.289   9.113
 1339W        W 5539  11.318   9.776   0.718
 1340W        W 5540   7.483   6.826   9.449
 1341W        W 5541   3.323  10.609   9.121
 1342W        W 5542   2.249   6.928   2.298
 1343W        W 5543   8.714   4.690  10.620
 1344W        W 5544   8.971   3.276   3.063
 1345W        W 5545   7.516   6.982   2.681
 1346W        W 5546   9.097   6.486   0.947
 1347W        W 5547   5.322   0.016   9.176
 1348W        W 5548   0.927   9.784  11.821
 1349W        W 5549  10.716  11.129   1.837
 1350W        W 5550   5.761  10.507   2.822
 1351W        W 5551   3.931   1.603   2.077
 1352W        W 5552   3.222   4.655  11.859
 1353W        W 5553   7.177   9.455   2.950
 1354W        W 5554   4.056   1.289  10.614
 1355W        W 5555   3.598  10.722  10.347
 1356W        W 5556   5.392   4.032  11.428
 1357W        W 5557   6.961   9.028   1.085
 1358W        W 5558   8.906   1.432  10.132
 1359W        W 5559   1.940   3.884  10.302
 1360W        W 5560   0.233   5.004   9.467
 1361W        W 5561   3.346   7.650  11.297
 1362W        W 5562   6.498   2.579   1.824
 1363W        W 5563   4.146  11.267   9.413
 1364W        W 5564   1.306   4.358   3.392
 1365W        W 5565   4.127   8.183   2.279
 1366W        W 5566   5.629   1.201  10.910
 1367W        W 5567   1.823   7.104   9.779
 1368W        W 5568   1.812   3.609  11.717
 1369W        W 5569   3.144   8.713   1.359
 1370W        W 5570   8.168   7.642   0.817
 1371W        W 5571   4.578   1.854   9.408
 1372W        W 5572   7.745   1.442   2.163
 1373W        W 5573   7.664   1.407   9.244
 1374W        W 5574   9.341   0.353   8.228
 1375W        W 5575   3.348   2.603   3.502
 1376W        W 5576   2.987   9.667   1.703
 1377W        W 5577   1.289   0.285  10.049
 1378W        W 5578   3.978   4.036  10.566
 1379W        W 5579   2.167   5.320   1.135
 1380W        W 5580   5.101   3.604   3.907
 1381W        W 5581   3.726   8.810  11.109
 1382W        W 5582   7.109   8.924   9.551
 1383W        W 5583   9.060  10.331   9.283
 1384W        W 5584   6.574   1.387   3.349
 1385W        W 5585   2.250   9.902   3.099
 1386W        W 5586   4.158   6.217  10.768
 1387W        W 5587   4.143   9.353   0.747
 1388W        W 5588   4.436  11.454   2.409
 1389W        W 5589   1.438   1.135  11.043
 1390W        W 5590   2.716  11.124  11.729
 1391W        W 5591   8.457   1.003   1.104
 1392W        W 5592   5.083   3.265  10.966
 1393W        W 5593   9.334   0.807   2.998
 1394W        W 5594   3.249   2.560   2.943
 1395W        W 5595  11.223   2.177   3.425
 1396W        W 5596   8.661   9.682   3.406
 1397W        W 5597   5.988   7.286   8.625
 1398W        W 5598   3.086   2.361   0.469
 1399W        W 5599   3.629  10.620  11.747
 1400W        W 5600   2.335   4.139   0.863
 1401W        W 5601   8.441   0.740  10.711
 1402W        W 5602  10.285  10.502   9.742
 1403W        W 5603   2.762   7.844   0.476
 1404W        W 5604   8.469   8.829   8.571
 1405W        W 5605   8.186   5.989   8.297
 1406W        W 5606   5.742  10.311   1.750
 1407W        W 5607   6.632   8.092   0.719
 1408W        W 5608   5.641   2.364   8.662
 1409W        W 5609   3.504   1.932   2.136
 1410W        W 5610   3.319   5.726  10.555
 1411W        W 5611  11.333   2.710   3.468
 1412W        W 5612   6.029   2.812   3.659
 1413W        W 5613   6.183  10.541   1.525
 1414W        W 5614   9.692   1.449  11.091
 1415W        W 5615  10.447   0.707   0.481
 1416W        W 5616   2.583   5.656   2.624
 1417W        W 5617   6.066   8.844   2.801
 1418W        W 5618   5.593   8.639   9.932
 1419W        W 5619  11.014   9.917   0.351
 1420W        W 5620   6.537   4.370   8.974
 1421W        W 5621   8.676   8.098   0.057
 1422W        W 5622   7.436   4.328  10.314
 1423W        W 5623   4.638   5.637  10.495
 1424W        W 5624   8.826   4.813   0.817
 1425W        W 5625   4.923   9.584   3.677
 1426W        W 5626   2.389   7.068   1.440
 1427W        W 5627   9.935   2.845  11.107
 1428W        W 5628   1.345   1.663   9.332
 1429W        W 5629   9.710   9.213   0.429
 1430W        W 5630  10.426   1.659   0.226
 1431W        W 5631   4.163   4.696   9.368
 1432W        W 5632   2.224   6.384   9.387
 1433W        W 5633   9.562   6.522   9.069
 1434W        W 5634   7.721   9.397  10.288
 1435W        W 5635   2.422   8.200   1.905
 1436W        W 5636   8.108   8.630   8.926
 1437W        W 5637   9.711   2.077   0.712
 1438W        W 5638   8.975   7.511  11.503
 1439W        W 5639   8.480   4.746   2.673
 1440W        W 5640   8.594   6.473   9.693
 1441W        W 5641   1.670  11.011   1.860
 1442W        W 5642   8.150   6.400   9.468
 1443W        W 5643  11.343   6.009   3.115
 1444W        W 5644   8.040   0.266  11.333
 1445W        W 5645   7.571   7.172   0.487
 1446W        W 5646   0.305   5.833   2.214
 1447W        W 5647   5.211  10.814  10.257
 1448W        W 5648   7.402   7.782   2.316
 1449W        W 5649   6.020   2.039   8.857
 1450W        W 5650   6.324   6.068  10.137
 1451W        W 5651   8.687   4.065   3.334
 1452W        W 5652   5.598   9.302  11.312
 1453W        W 5653   7.269   9.756   0.048
 1454W        W 5654   8.666   3.718   0.420
 1455W        W 5655   8.885  11.183  11.895
 1456W        W 5656   4.972  11.148   0.900
 1457W        W 5657   4.875   3.255   9.187
 1458W        W 5658   1.911   4.738   8.925
 1459W        W 5659   5.437   6.606  10.362
 1460W        W 5660   1.252   1.230   0.049
 1461W        W 5661   6.227   8.008   0.229
 1462W        W 5662   9.792   8.608   0.590
 1463W        W 5663  10.762   2.775   1.203
 1464W        W 5664   0.290  10.365  11.313
 1465W        W 5665   6.017   0.872   0.047
 1466W        W 5666   1.342   9.074  11.652
 1467W        W 5667   2.296   1.462  10.610
 1468W        W 5668   2.078   9.359   9.356
 1469W        W 5669   5.226   9.308   3.256
 1470W        W 5670   6.499   9.509   2.350
 1471W        W 5671   5.994   5.514  10.364
 1472W        W 5672   8.449   3.067   3.095
 1473W        W 5673   3.912   0.447  10.933
 1474W        W 5674   7.254   5.077   9.964
 1475W        W 5675   7.593   5.892  11.209
 1476W        W 5676   2.961   1.286   0.416
 1477W        W 5677   8.452   9.746   1.332
 1478W        W 5678  10.687   5.275  11.765
 1479W        W 5679   3.204   4.556   3.444
 1480W        W 5680   0.574   0.795  11.751
 1481W        W 5681   8.586   6.914  10.249
 1482W        W 5682   0.707   8.149  10.042
 1483W        W 5683   0.354   0.760  11.290
 1484W        W 5684   5.964   9.026   1.028
 1485W        W 5685   4.752   0.483   1.824
 1486W        W 5686   2.846   0.445   8.962
 1487W        W 5687   7.804   3.077   2.864
 1488W        W 5688   9.145   3.291   9.503
 1489W        W 5689   2.798   4.253   3.455
 1490W        W 5690   1.726   2.696  10.628
 1491W        W 5691  10.896   9.911   9.248
 1492W        W 5692   0.278   7.633  10.821
 1493W        W 5693   9.163   6.197   2.260
 1494W        W 5694   7.481   5.747  11.719
 1495W        W 5695   5.935   5.167  11.373
 1496W        W 5696   1.457   6.202   1.664
 1497W        W 5697   1.912   6.156   1.419
 1498W        W 5698  10.936   4.070   0.588
 1499W        W 5699   9.460   5.954   9.729
 1500W        W 5700   2.566   5.264  11.816
 1501W        W 5701   7.887   1.350   3.115
 1502W        W 5702   2.387   0.978  11.998
 1503W        W 5703   6.126   1.260  10.803
 1504W        W 5704   5.260   1.548  10.602
 1505W        W 5705   0.065   0.296   9.498
 1506W        W 5706   0.409   8.432   0.944
 1507W        W 5707   2.062   4.029  11.402
 1508W        W 5708   2.876   0.331   9.930
 1509W        W 5709   0.250   5.618   2.681
 1510W        W 5710   6.468   2.067  11.869
 1511W        W 5711   4.254   2.553  11.874
 1512W        W 5712   3.550   2.076  10.006
 1513W        W 5713   1.024   2.058   0.094
 1514W        W 5714   6.576   8.133   9.506
 1515W        W 5715   0.131  10.423   2.424
 1516W        W 5716   1.322   4.000   1.958
 1517W        W 5717   4.341  10.976   9.009
 1518W        W 5718  10.968   6.712   9.716
 1519W        W 5719   1.458  10.520   3.446
 1520W        W 5720   2.506   5.787  10.001
 1521W        W 5721   4.899   2.336   3.412
 1522W        W 5722   3.295   5.016  10.065
 1523W        W 5723   2.102   4.580  11.422
 1524W        W 5724  11.347   3.307  10.582
 1525W        W 5725   1.673   7.488   1.709
 1526W        W 5726   6.576   0.778   8.919
 1527W        W 5727   7.829   9.858  11.301
 1528W        W 5728  10.668   4.293  11.764
 1529W        W 5729   6.823   0.987  11.510
 1530W        W 5730   3.147   9.777   0.467
 1531W        W 5731   3.744   2.788   1.173
 1532W        W 5732   7.352   5.629  10.817
 1533W        W 5733   7.155   4.882  11.173
 1534W        W 5734   8.538   8.393   4.305
 1535W        W 5735   8.015   5.739  10.029
 1536W        W 5736  10.541   5.988   2.741
 1537W        W 5737   6.458   4.723  10.187
 1538W        W 5738   2.503   0.541   8.573
 1539W        W 5739   3.300   2.719  10.449
 1540W        W 5740   5.677   1.807   8.536
 1541W        W 5741   5.823   6.162   1.352
 1542W        W 5742   1.877   7.469   9.015
 1543W        W 5743   9.981   9.851  11.727
 1544W        W 5744   1.499   3.301   2.710
 1545W        W 5745   7.738   0.057   0.348
 1546W        W 5746   8.520  11.451   2.097
 1547W        W 5747   5.194   3.966   3.555
 1548W        W 5748   3.783   8.507   0.720
 1549W        W 5749   7.938   1.478   2.637
 1550W        W 5750   3.804   0.733   0.873
 1551W        W 5751   7.956   8.514   2.316
 1552W        W 5752  10.471   2.311   2.956
 1553W        W 5753   2.216   8.093   9.919
 1554W        W 5754  10.989   7.187  10.983
 1555W        W 5755   4.556   3.529   8.649
 1556W        W 5756   5.037   3.557   8.803
 1557W        W 5757   3.827   1.286   1.678
 1558W        W 5758  11.025   0.408   2.899
 1559W        W 5759  10.560   5.193   2.248
 1560W        W 5760   7.203   5.275  10.451
 1561W        W 5761   4.805   3.575   2.441
 1562W        W 5762   8.968   1.962   8.919
 1563W        W 5763   8.623   3.330   0.782
 1564W        W 5764   5.695   2.716   0.012
 1565W        W 5765   4.580  10.777   9.435
 1566W        W 5766   0.833   4.706  10.468
 1567W        W 5767   2.852   1.367   2.779
 1568W        W 5768   5.274   5.100   1.966
 1569W        W 5769   3.287   7.470   8.982
 1570W        W 5770   5.542   2.678   1.441
 1571W        W 5771   4.243   0.744   9.081
 1572W        W 5772   5.558   4.962  10.872
 1573W        W 5773  10.344   4.758  10.720
 1574W        W 5774  10.879   9.876   2.209
 1575W        W 5775   7.956   6.548   2.302
 1576W        W 5776   0.357   5.659   1.055
 1577W        W 5777   8.614   0.741   9.870
 1578W        W 5778  10.516   2.373  11.037
 1579W        W 5779   8.000   7.884   1.797
 1580W        W 5780   5.542   3.855   1.104
 1581W        W 5781   9.104   8.395   0.040
 1582W        W 5782   9.705   5.098  10.006
 1583W        W 5783   9.923   9.126   9.583
 1584W        W 5784  11.283   7.214   0.762
 1585W        W 5785   4.668  10.697  11.032
 1586W        W 5786   9.514  10.104   0.373
 1587W        W 5787   0.726   0.639   0.223
 1588W        W 5788   2.775   6.648   1.800
 1589W        W 5789   3.188   0.427  10.517
 1590W        W 5790   4.820   5.128   0.520
 1591W        W 5791   0.797   4.500   9.894
 1592W        W 5792   1.525   1.857   1.163
 1593W        W 5793   3.980   2.635   9.092
 1594W        W 5794   4.418   6.625   9.069
 1595W        W 5795   9.470   0.072   9.937
 1596W        W 5796  10.584   8.555   0.817
 1597W        W 5797  10.805   2.710   0.705
 1598W        W 5798   1.041  11.193   3.181
 1599W        W 5799   9.012  11.366   2.224
 1600W        W 5800  10.412   3.826  10.849
 1601W        W 5801   1.711   7.269  10.712
 1602W        W 5802   0.862  11.285   2.395
 1603W        W 5803   3.996   1.102   1.190
 1604W        W 5804   0.089   4.616   9.177
 1605W        W 5805  11.367  10.835   1.310
 1606W        W 5806   1.260   8.634  11.396
 1607W        W 5807   1.848   3.383   8.877
 1608W        W 5808   4.346   2.271  10.499
 1609W        W 5809   0.614   3.273   3.230
 1610W        W 5810   2.971   9.446   2.976
 1611W        W 5811   7.605   7.195  11.971
 1612W        W 5812   1.623   0.164  10.744
 1613W        W 5813   7.410   9.835  11.566
 1614W        W 5814  11.408   4.545  11.480
 1615W        W 5815  10.890   1.993   8.913
 1616W        W 5816   8.628   6.411  10.242
 1617W        W 5817   0.270  11.004  11.953
 1618W        W 5818   2.494   6.871   4.118
 1619W        W 5819   4.614   7.056  11.613
 1620W        W 5820   9.850   1.222   1.680
 1621W        W 5821   5.183   1.381   2.776
 1622W        W 5822   1.720   4.900   1.846
 1623W        W 5823   3.826  10.093   2.709
 1624W        W 5824   8.834   2.819   2.324
 1625W        W 5825   4.469   8.208   9.068
 1626W        W 5826   6.727   3.590   9.437
 1627W        W 5827   9.817   6.968   9.094
 1628W        W 5828   4.423   2.774   9.284
 1629W        W 5829   8.555   8.910   2.447
 1630W        W 5830   2.209   0.988  10.359
 1631W        W 5831   2.527   4.497   0.543
 1632W        W 5832   6.065   7.936   9.533
 1633W        W 5833   1.530   1.344   2.246
 1634W        W 5834   4.323   1.468   1.743
 1635W        W 5835   1.456   8.646   1.512
 1636W        W 5836   2.887   2.342  11.611
 1637W        W 5837   8.350   1.379   3.368
 1638W        W 5838   5.001   7.234   9.649
 1639W        W 5839   2.536   3.537   2.599
 1640W        W 5840  10.322   7.949   0.423
 1641W        W 5841   3.838   5.965   0.472
 1642W        W 5842   3.794   0.942  10.906
 1643W        W 5843   5.429   3.318   1.606
 1644W        W 5844   7.278   3.810  11.357
 1645W        W 5845   3.579   0.891   3.299
 1646W        W 5846   2.202   1.769  11.039
 1647W        W 5847   2.224   5.215   0.193
 1648W        W 5848   0.031   4.223  10.251
 1649W        W 5849   2.825   5.042   2.551
 1650W        W 5850   7.924   5.043   9.530
 1651W        W 5851   2.891   9.899   0.906
 1652W        W 5852   4.015   9.834   0.064
 1653W        W 5853   9.090   3.954  11.260
 1654W        W 5854  10.751  10.766   9.158
 1655W        W 5855  11.464   0.111   3.610
 1656W        W 5856   0.544   7.457   0.183
 1657W        W 5857   4.712   2.099  10.796
 1658W        W 5858   8.109   3.189   1.169
 1659W        W 5859   9.147   6.239   2.773
 1660W        W 5860   1.644   8.366   8.846
 1661W        W 5861  10.897   5.750   9.989
 1662W        W 5862   5.526   0.257   0.466
 1663W        W 5863   2.205   8.097   2.828
 1664W        W 5864   0.370  11.293   3.681
 1665W        W 5865   1.078   2.252   2.365
 1666W        W 5866   7.980   7.548   2.168
 1667W        W 5867   9.063   2.004   2.628
 1668W        W 5868   2.315   5.578  11.440
 1669W        W 5869   6.320   8.313  10.351
 1670W        W 5870   8.096   8.001  11.577
 1671W        W 5871   0.200   4.197   3.351
 1672W        W 5872  11.486   5.190   2.766
 1673W        W 5873   2.904  10.218   0.459
 1674W        W 5874   6.100   3.012   2.372
 1675W        W 5875   2.031   4.812   2.719
 1676W        W 5876   9.020  11.147  11.360
 1677W        W 5877   4.758  10.038   2.981
 1678W        W 5878   8.365   7.612  10.731
 1679W        W 5879   4.730   9.399   9.744
 1680W        W 5880   8.101   0.659  11.663
 1681W        W 5881   1.660   9.552   9.616
 1682W        W 5882   7.543   1.999   3.474
 1683W        W 5883   8.947   1.431   8.798
 1684W        W 5884   1.983   7.622   9.911
 1685W        W 5885   0.006  10.956  10.621
 1686W        W 5886   0.203   0.315  11.050
 1687W        W 5887   4.345  10.449   9.096
 1688W        W 5888   6.619   4.387   8.459
 1689W        W 5889   8.587  11.401  11.436
 1690W        W 5890   4.697   2.061   8.463
 1691W        W 5891   9.432   4.112   3.127
 1692W        W 5892   9.026   8.779   9.380
 1693W        W 5893   2.089   7.229   1.881
 1694W        W 5894   9.566   2.616  10.850
 1695W        W 5895   3.269   2.914   1.356
 1696W        W 5896   7.067   1.809   9.462
 1697W        W 5897   3.557   3.849  11.810
 1698W        W 5898  11.117   4.980  10.486
 1699W        W 5899   9.154   9.024   3.274
 1700W        W 5900  11.194   9.338   2.500
 1701W        W 5901   4.325   2.446   3.214
 1702W        W 5902   0.298   7.524   0.778
 1703W        W 5903   3.064   6.144   9.348
 1704W        W 5904   1.322   0.330  11.730
 1705W        W 5905  10.458   9.381   1.251
 1706W        W 5906   8.993   3.768  10.797
 1707W        W 5907   6.010   2.308  10.100
 1708W        W 5908  11.287   3.303  10.080
 1709W        W 5909   8.811   7.081   2.508
 1710W        W 5910   8.357   9.859  11.305
 1711W        W 5911   2.757  11.396   0.698
 1712W        W 5912   7.529   2.708   2.661
 1713W        W 5913  10.468   9.520   8.737
 1714W        W 5914   4.564   8.686   3.361
 1715W        W 5915   0.451   1.931   3.418
 1716W        W 5916   2.354   2.837   1.318
 1717W        W 5917   6.064   9.353  11.063
 1718W        W 5918   7.304   7.811   1.470
 1719W        W 5919   6.142   0.507   8.807
 1720W        W 5920   6.527  10.918   8.814
 1721W        W 5921   7.936   0.488   8.810
 1722W        W 5922   7.101   7.220   9.366
 1723W        W 5923   5.953   7.570   0.245
 1724W        W 5924   1.721   7.387   2.987
 1725W        W 5925  10.470   3.146   2.358
 1726W        W 5926   1.383   9.767   3.805
 1727W        W 5927  10.679   6.964   1.389
 1728W        W 5928   8.356   6.864   9.354
 1729W        W 5929   7.076  10.025   9.092
 1730W        W 5930   4.511   8.183   3.262
 1731W        W 5931   4.587   7.094  10.538
 1732W        W 5932   2.905   9.476  10.869
 1733W        W 5933   3.116   9.940  11.059
 1734W        W 5934   8.146   6.642  10.393
 1735W        W 5935  11.294   1.419   1.796
 1736W        W 5936   4.231   7.681   3.125
 1737W        W 5937   2.151   7.155   0.985
 1738W        W 5938   0.332   1.291   9.416
 1739W        W 5939  11.045  11.263   1.264
 1740W        W 5940   4.488   5.286   0.959
 1741W        W 5941   5.233   7.841   1.617
 1742W        W 5942   9.683   5.507   9.509
 1743W        W 5943   9.129   4.902   8.725
 1744W        W 5944  11.329   5.460  10.392
 1745W        W 5945  10.715   0.573   2.498
 1746W        W 5946   8.273   1.507   2.224
 1747W        W 5947   9.630   7.137  11.809
 1748W        W 5948   1.774   0.574  11.501
 1749W        W 5949   8.581   0.454   2.224
 1750W        W 5950  10.944   7.263   3.126
 1751W        W 5951  10.754   9.169   2.726
 1752W        W 5952   1.722   2.678  11.151
 1753W        W 5953   2.601   7.226   2.789
 1754W        W 5954   6.475   0.142   0.957
 1755W        W 5955   8.611   1.037   1.581
 1756W        W 5956   7.092   8.912  10.767
 1757W        W 5957   9.011   7.443   9.068
 1758W        W 5958   4.881   3.220   3.651
 1759W        W 5959   0.360   8.610  11.848
 1760W        W 5960   5.628   2.745   2.369
 1761W        W 5961  11.411   5.966   0.563
 1762W        W 5962   1.436   2.719   2.500
 1763W        W 5963   1.489   7.161   8.548
 1764W        W 5964   7.203   3.340  11.125
 1765W        W 5965  10.840   7.466  11.803
 1766W        W 5966   6.655   0.537   0.684
 1767W        W 5967   4.367   2.061  11.927
 1768W        W 5968  10.081   6.847  10.333
 1769W        W 5969   1.830  11.291  11.927
 1770W        W 5970   2.208   5.651   0.482
 1771W        W 5971   3.111  11.437  10.128
 1772W        W 5972   3.207   6.456   1.153
 1773W        W 5973  10.880   3.828   3.138
 1774W        W 5974   3.658   9.810   0.409
 1775W        W 5975   3.327   3.747   2.038
 1776W        W 5976   3.398  11.167  11.550
 1777W        W 5977   3.372   4.243   1.786
 1778W        W 5978   3.603   4.812   0.166
 1779W        W 5979   2.967   4.243   0.439
 1780W        W 5980   2.437  11.436   1.784
 1781W        W 5981   8.400   3.124   2.186
 1782W        W 5982   6.267  10.923   1.858
 1783W        W 5983   3.259  11.041   1.962
 1784W        W 5984   0.860   3.190   9.962
 1785W        W 5985   7.989  10.483  10.032
 1786W        W 5986   7.416   8.979  10.376
 1787W        W 5987   8.172   5.164   2.701
 1788W        W 5988   5.704  10.328   9.371
 1789W        W 5989   6.623   7.305   9.179
 1790W        W 5990   2.099   5.619   2.437
 1791W        W 5991   5.422   5.104  11.344
 1792W        W 5992   6.249   0.861   1.432
 1793W        W 5993   7.870   4.547   0.709
 1794W        W 5994   4.133   5.152  10.040
 1795W        W 5995   6.187   3.293  11.234
 1796W        W 5996  10.382   0.276   2.249
 1797W        W 5997   4.296  10.551   0.522
 1798W        W 5998   2.831   5.046   9.874
 1799W        W 5999   7.662   7.557   2.731
 1800W        W 6000   0.522   1.497  10.823
 1801W        W 6001   2.461   9.851   9.359
 1802W        W 6002   9.071   0.396   9.954
 1803W        W 6003   8.952  10.511  10.311
 1804W        W 6004   9.387   1.482   9.576
 1805W        W 6005  11.290   0.943   8.860
 1806W        W 6006   8.621   3.345   9.424
 1807W        W 6007   0.300   5.742  11.353
 1808W        W 6008   4.340   8.325  10.065
 1809W        W 6009   1.534   7.805  11.480
 1810W        W 6010   6.880   3.310   0.483
 1811W        W 6011   8.045   0.668   1.026
 1812W        W 6012   9.935  11.000   9.461
 1813W        W 6013   2.834   3.928   1.972
 1814W        W 6014   5.468   5.294   0.771
 1815W        W 6015   9.564   7.101   4.222
 1816W        W 6016   8.113  10.580   9.174
 1817W        W 6017   5.605   5.720  11.975
 1818W        W 6018  10.013  10.010   0.223
 1819W        W 6019   3.674  11.344   2.127
 1820W        W 6020   3.792   1.219  11.952
 1821W        W 6021   6.307   4.335   1.754
 1822W        W 6022   1.917   2.643   2.261
 1823W        W 6023   3.707   0.212   0.810
 1824W        W 6024  11.466   2.140   0.312
 1825W        W 6025   0.821   9.583   0.306
 1826W        W 6026   9.335   5.507  10.496
 1827W        W 6027   4.247   9.591   1.485
 1828W        W 6028   7.898   4.941  11.869
 1829W        W 6029   7.774   8.623   1.274
 1830W        W 6030   0.383   5.238   2.308
 1831W        W 6031   5.034   0.980   9.444
 1832W        W 6032   2.095   7.477   1.400
 1833W        W 6033   5.010   8.477   3.423
 1834W        W 6034   0.587   8.379  10.499
 1835W        W 6035   6.117   4.054  10.141
 1836W        W 6036   9.993   4.630  11.080
 1837W        W 6037   5.981   3.290   0.940
 1838W        W 6038   7.632  10.472   0.732
 1839W        W 6039   5.296   6.954   0.373
 1840W        W 6040   6.020   2.377  11.756
 1841W        W 6041   4.668   4.796  11.589
 1842W        W 6042   1.564   0.826  11.905
 1843W        W 6043   3.614   5.097  11.287
 1844W        W 6044   5.416   5.742   9.170
 1845W        W 6045  10.271   0.450  11.038
 1846W        W 6046   6.193   6.538   3.226
 1847W        W 6047   6.492   5.573  11.042
 1848W        W 6048   8.068   0.547   2.429
 1849W        W 6049   8.663   2.484   9.472
 1850W        W 6050  11.306   7.026  10.258
 1851W        W 6051   9.535   3.287   1.319
 1852W        W 6052   9.112   6.016   4.060
 1853W        W 6053  11.436  10.357   1.520
 1854W        W 6054   7.164   6.864   0.408
 1855W        W 6055   1.944   5.518  10.809
 1856W        W 6056   8.680   3.245  10.780
 1857W        W 6057   9.068   3.684   2.477
 1858W        W 6058   4.106   0.346  11.486
 1859W        W 6059   3.349   2.382   1.309
 1860W        W 6060   0.372   4.171   2.033
 1861W        W 6061   5.209   6.754   1.650
 1862W        W 6062   6.687   6.735   1.572
 1863W        W 6063  10.094   8.182   0.810
 1864W        W 6064   3.094   1.240   8.828
 1865W        W 6065   4.548   9.451   8.477
 1866W        W 6066   6.159   2.182   0.268
 1867W        W 6067  10.756   0.429  10.909
 1868W        W 6068   8.595   9.982   8.850
 1869W        W 6069   1.184   5.269   9.054
 1870W        W 6070   3.734   9.311   8.982
 1871W        W 6071   5.019  11.281   0.024
 1872W        W 6072  10.319   3.097   0.031
 1873W        W 6073   6.886   2.236  11.628
 1874W        W 6074   2.284   1.263  11.179
 1875W        W 6075   7.138   2.699  11.747
 1876W        W 6076   4.159   3.329   0.375
 1877W        W 6077   4.480   3.520   1.255
 1878W        W 6078   5.304   2.081   3.152
 1879W        W 6079   3.514   2.855   9.472
 1880W        W 6080   9.651   6.242   1.895
 1881W        W 6081   3.117   8.793   8.686
 1882W        W 6082   2.612   9.627  11.463
 1883W        W 6083  10.279  10.039  10.486
 1884W        W 6084   0.302   6.711  11.014
 1885W        W 6085   2.347   9.888   0.927
 1886W        W 6086  10.111   9.525   0.376
 1887W        W 6087   0.355   2.319   0.627
 1888W        W 6088   1.879   0.168   0.413
 1889W        W 6089   9.384   9.312   2.735
 1890W        W 6090  11.413   6.611   9.968
 1891W        W 6091   3.092   8.456   2.262
 1892W        W 6092   3.077   8.534  11.817
 1893W        W 6093   5.635   1.664   0.227
 1894W        W 6094   3.031   4.894   3.835
 1895W        W 6095   4.727   6.124  10.268
 1896W        W 6096   1.634   6.783  10.580
 1897W        W 6097   2.309   6.241   1.745
 1898W        W 6098   1.181   3.675   2.932
 1899W        W 6099   4.310   3.160  11.489
 1900W        W 6100   7.453   6.130   8.656
 1901W        W 6101   9.916  10.930  10.405
 1902W        W 6102   5.750   6.831   3.328
 1903W        W 6103   2.268   8.660   1.767
 1904W        W 6104   1.880   6.081   2.470
 1905W        W 6105   1.331   0.963   1.552
 1906W        W 6106   6.977   4.243  11.331
 1907W        W 6107   6.114   1.289   2.589
 1908W        W 6108   8.645   5.349   1.460
 1909W        W 6109   5.804   3.827  10.530
 1910W        W 6110   3.195   0.718  11.487
 1911W        W 6111   4.716   3.705   3.486
 1912W        W 6112   5.918   4.583   3.414
 1913W        W 6113   0.470   1.445   1.227
 1914W        W 6114   9.541  10.070  11.828
 1915W        W 6115   2.792   8.095  10.802
 1916W        W 6116   2.248   3.509  11.434
 1917W        W 6117   3.632   5.248  11.828
 1918W        W 6118   2.492   4.741  10.107
 1919W        W 6119   8.079   9.527   3.384
 1920W        W 6120   1.103   2.214  10.019
 1921W        W 6121   1.635   9.422   9.104
 1922W        W 6122   7.199   4.209   3.273
 1923W        W 6123   2.257   1.474   9.464
 1924W        W 6124   7.344  11.359   2.993
 1925W        W 6125   3.254   5.250   9.619
 1926W        W 6126   2.508   7.681   9.870
 1927W        W 6127   1.419   8.259   2.851
 1928W        W 6128   2.024   5.626   9.978
 1929W        W 6129   2.380   2.321   1.218
 1930W        W 6130   2.178   6.661   9.925
 1931W        W 6131   0.754   9.950  10.538
 1932W        W 6132   4.651   7.986   2.381
 1933W        W 6133   2.096   6.164  10.030
 1934W        W 6134  10.729   5.880   9.435
 1935W        W 6135   0.295   8.400   3.532
 1936W        W 6136   1.446   2.306   1.388
 1937W        W 6137   3.082   5.048   3.343
 1938W        W 6138   0.700   8.609   2.741
 1939W        W 6139   1.398   4.880   1.433
 1940W        W 6140   9.088   8.473   8.968
 1941W        W 6141   3.182   4.017   3.244
 1942W        W 6142   5.616   8.124   3.956
 1943W        W 6143   9.986   4.662   9.001
 1944W        W 6144   8.155   9.761   9.562
 1945W        W 6145  10.759  11.366   9.415
 1946W        W 6146   0.324   6.589   1.615
 1947W        W 6147   7.372   2.178   9.853
 1948W        W 6148   9.529   9.138   8.461
 1949W        W 6149   8.112   5.235   9.978
 1950W        W 6150   3.894   9.595   2.761
 1951W        W 6151   0.381   6.563   0.957
 1952W        W 6152  10.994   9.141   3.173
 1953W        W 6153   0.452   2.866   8.848
 1954W        W 6154   3.295  11.412   0.430
 1955W        W 6155   0.779   5.897  11.277
 1956W        W 6156   6.447   8.456   0.425
 1957W        W 6157   6.444   1.712   2.562
 1958W        W 6158   6.594   2.736  11.104
 1959W        W 6159   2.838   8.385  10.392
 1960W        W 6160   6.048   5.505   2.180
 1961W        W 6161   0.948   2.196  10.534
 1962W        W 6162   4.647  10.480   2.721
 1963W        W 6163   4.664   9.382   0.684
 1964W        W 6164   8.897  10.404   9.773
 1965W        W 6165   2.029   2.153   2.431
 1966W        W 6166   8.641  10.747  10.782
 1967W        W 6167   1.244   0.505   1.368
 1968W        W 6168   5.644   0.941   3.243
 1969W        W 6169   8.404  10.321   2.148
 1970W        W 6170   4.383   1.339   0.356
 1971W        W 6171   0.384   1.275   2.967
 1972W        W 6172   1.185   5.850   8.505
 1973W        W 6173   4.162   3.691   0.725
 1974W        W 6174   7.449   5.065   8.932
 1975W        W 6175   4.771   4.410  11.916
 1976W        W 6176   2.682   3.511  10.866
 1977W        W 6177   3.101   9.518  11.353
 1978W        W 6178   5.623   8.508   1.255
 1979W        W 6179  10.576   0.022  11.781
 1980W        W 6180   9.013   4.410   3.118
 1981W        W 6181  11.103   4.579   9.047
 1982W        W 6182  11.126   0.558   0.875
 1983W        W 6183   1.508   0.634  10.934
 1984W        W 6184   2.778   5.382  10.264
 1985W        W 6185   3.109   5.105   1.135
 1986W        W 6186   8.246   5.240   1.864
 1987W        W 6187   9.829   0.984   3.445
 1988W        W 6188   1.890   7.995   9.109
 1989W        W 6189   2.217   4.339  11.994
 1990W        W 6190   2.824   2.263   0.903
 1991W        W 6191   4.367   9.520  10.088
 1992W        W 6192   8.534   9.870   2.411
 1993W        W 6193   0.092  10.436   1.010
 1994W        W 6194   5.133   7.648  11.100
 1995W        W 6195   1.877   1.379  10.881
 1996W        W 6196   4.123   3.153   1.403
 1997W        W 6197   7.278   9.270   0.158
 1998W        W 6198   6.742   1.395   9.583
 1999W        W 6199  10.199   1.800  11.732
 2000W        W 6200  10.484  10.941   9.563
 2001W        W 6201   1.876   1.375  10.350
 2002W        W 6202   4.743   6.710   0.400
 2003W        W 6203   0.234   6.970   0.700
 2004W        W 6204  11.285   4.585   2.430
 2005W        W 6205  10.063   8.098   2.159
 2006W        W 6206   3.351   5.127   2.341
 2007W        W 6207  10.098   8.705   1.561
 2008W        W 6208   5.634  11.013   2.908
 2009W        W 6209  11.022  11.404   2.793
 2010W        W 6210  10.923  10.322   1.319
 2011W        W 6211   5.015  10.963  11.290
 2012W        W 6212   8.147   8.960   1.265
 2013W        W 6213   8.719   8.144   9.138
 2014W        W 6214   6.045   8.229   1.196
 2015W        W 6215   8.854   3.780   0.914
 2016W        W 6216   2.297   3.807  11.004
 2017W        W 6217   9.789   2.564   1.812
 2018W        W 6218   1.181   4.715   3.044
 2019W        W 6219   4.254   4.594   0.908
 2020W        W 6220   7.111  10.950   0.199
 2021W        W 6221   8.979  11.381   9.998
 2022W        W 6222  11.320   2.390  10.001
 2023W        W 6223   7.264   4.114   1.540
 2024W        W 6224   1.227   6.944   9.988
 2025W        W 6225   3.161   8.938   2.826
 2026W        W 6226   2.446   0.159   1.035
 2027W        W 6227   3.749   5.752   1.947
 2028W        W 6228   9.988   3.638   9.071
 2029W        W 6229   6.083   0.887   1.930
 2030W        W 6230  10.008   3.670  10.030
 2031W        W 6231   8.520  10.068   0.751
 2032W        W 6232   4.827   2.082   0.156
 2033W        W 6233   6.683   8.643   9.432
 2034W        W 6234   1.706   8.835   0.324
 2035W        W 6235   4.387   5.883   2.509
 2036W        W 6236  10.847   1.147   9.110
 2037W        W 6237  11.043   7.389   0.315
 2038W        W 6238  11.097   5.549   9.539
 2039W        W 6239   9.091   7.936  11.231
 2040W        W 6240   5.812   4.865   9.585
 2041W        W 6241   5.742   3.835   9.399
 2042W        W 6242   0.246   5.569   0.558
 2043W        W 6243   9.594   8.862   9.872
 2044W        W 6244   1.809   6.261   0.518
 2045W        W 6245   3.869   7.521  10.118
 2046W        W 6246   7.181   1.703   9.946
 2047W        W 6247   0.139   5.118   0.061
 2048W        W 6248   3.486   0.779   9.546
 2049W        W 6249   3.633   3.291   1.343
 2050W        W 6250  10.451  10.618   8.739
 2051W        W 6251   6.915   4.934  10.725
 2052W        W 6252   9.105   8.575   1.336
 2053W        W 6253   9.598   3.251   8.973
 2054W        W 6254   1.427   5.247  10.956
 2055W        W 6255   4.663   3.672   2.936
 2056W        W 6256   0.579   5.992  11.748
 2057W        W 6257   2.343   4.317  11.071
 2058W        W 6258   1.843   4.647   2.285
 2059W        W 6259   6.524   8.851   8.935
 2060W        W 6260   8.181   3.310  10.938
 2061W        W 6261   9.217   5.547  11.746
 2062W        W 6262   8.294   4.414   1.474
 2063W        W 6263   3.276   4.679  11.335
 2064W        W 6264   9.551   5.031  10.494
 2065W        W 6265   8.507   0.569   0.818
 2066W        W 6266   8.332   8.024   0.479
 2067W        W 6267   5.445   3.283   2.108
 2068W        W 6268   8.152  10.434   0.934
 2069W        W 6269   6.823   0.769  10.732
 2070W        W 6270   8.279   3.774   3.478
 2071W        W 6271   7.544  10.278   2.200
 2072W        W 6272   9.125   5.202   0.984
 2073W        W 6273   8.891  10.127   3.517
 2074W        W 6274   0.123   7.999   8.658
 2075W        W 6275   3.733   7.662   8.840
 2076W        W 6276   9.888   5.163   8.751
 2077W        W 6277   3.536  11.409   3.551
 2078W        W 6278   8.019   3.101  11.376
 2079W        W 6279  10.097   0.420   1.823
 2080W        W 6280   1.046   4.130   1.025
 2081W        W 6281   7.760  11.163  10.520
 2082W        W 6282   9.977   3.717  10.565
 2083W        W 6283   6.626   3.172   8.670
 2084W        W 6284   7.602   8.091   2.783
 2085W        W 6285   4.477   1.374  10.330
 2086W        W 6286   8.364   2.395   0.876
 2087W        W 6287   3.237  10.646   2.962
 2088W        W 6288   4.044   8.657  11.501
 2089W        W 6289  11.206   6.980   1.305
 2090W        W 6290  10.836   2.064   2.695
 2091W        W 6291   5.711   6.374   3.081
 2092W        W 6292   6.269   9.386   4.148
 2093W        W 6293   6.296  10.475   3.025
 2094W        W 6294   2.380   9.432   2.933
 2095W        W 6295   8.943   4.067   8.532
 2096W        W 6296   3.314   8.949   0.004
 2097W        W 6297   4.787   4.793  10.312
 2098W        W 6298   0.328   6.253   3.298
 2099W        W 6299   1.623   2.962   3.531
 2100W        W 6300   9.588   8.024  11.774
 2101W        W 6301   2.350   9.451   2.181
 2102W        W 6302   8.617   8.034  10.976
 2103W        W 6303   2.720   8.173   9.952
 2104W        W 6304   2.907   9.490   1.216
 2105W        W 6305   6.130   1.652   1.555
 2106W        W 6306   6.554   1.888   3.459
 2107W        W 6307  10.369   2.697   2.616
 2108W        W 6308   3.143   3.413   1.249
 2109W        W 6309   7.991   2.585  11.315
 2110W        W 6310   5.978   6.213  11.089
 2111W        W 6311   2.771   3.296   3.006
 2112W        W 6312   0.471  10.476   9.659
 2113W        W 6313  11.358   9.519   1.184
 2114W        W 6314   6.324   7.114  11.523
 2115W        W 6315   0.330   2.624   0.232
 2116W        W 6316   9.407   6.060   0.999
 2117W        W 6317   2.568   8.465  11.968
 2118W        W 6318   4.602   8.072   1.002
 2119W        W 6319   6.843   3.486   0.005
 2120W        W 6320   2.009   5.592   8.742
 2121W        W 6321  10.866   0.289  11.397
 2122W        W 6322   9.077   7.596  10.652
 2123W        W 6323   5.310   0.840   0.398
 2124W        W 6324   7.352  10.508   0.285
 2125W        W 6325  10.701   1.835  11.825
 2126W        W 6326   5.664   6.732   0.050
 2127W        W 6327   9.840   4.143   8.905
 2128W        W 6328   7.705   6.423   9.730
 2129W        W 6329   9.392   2.952   0.377
 2130W        W 6330   7.948   7.242  10.059
 2131W        W 6331   1.787   8.059   2.544
 2132W        W 6332   5.570   3.524  10.900
 2133W        W 6333   9.787   1.706   1.037
 2134W        W 6334   1.378   6.229   0.231
 2135W        W 6335   5.294   8.656   9.491
 2136W        W 6336   3.413   0.514   8.776
 2137W        W 6337   3.382   9.485   1.394
 2138W        W 6338   8.015   2.626   2.856
 2139W        W 6339   2.318   1.566   1.951
 2140W        W 6340   9.863   9.394  11.508
 2141W        W 6341   5.003   3.765   8.326
 2142W        W 6342   0.262   1.333   0.411
 2143W        W 6343   2.567   4.236   9.275
 2144W        W 6344   3.686   5.278   9.868
 2145W        W 6345   5.928   5.806  10.780
 2146W        W 6346   5.583   6.225   2.259
 2147W        W 6347   2.141   0.762   2.366
 2148W        W 6348   8.932   6.677   2.199
 2149W        W 6349   3.694   5.585  11.391
 2150W        W 6350   5.778   1.651  10.668
 2151W        W 6351   0.782   7.909   0.240
 2152W        W 6352  11.286   1.939   2.488
 2153W        W 6353   7.001   5.056   1.035
 2154W        W 6354  11.185   2.412  11.545
 2155W        W 6355   7.058   8.067   2.830
 2156W        W 6356   9.484   6.427   1.364
 2157W        W 6357   1.191   3.614   9.966
 2158W        W 6358   7.702   5.622   2.064
 2159W        W 6359   3.414   9.063   1.059
 2160W        W 6360   2.934   3.881   1.137
 2161W        W 6361   9.459   9.974   0.902
 2162W        W 6362   5.269   8.773   3.119
 2163W        W 6363   8.817   8.229   0.533
 2164W        W 6364   6.949   9.413   1.969
 2165W        W 6365   5.643   1.518   0.737
 2166W        W 6366   7.461   8.057   9.559
 2167W        W 6367   2.095  10.938   3.624
 2168W        W 6368   8.348   1.230   2.870
 2169W        W 6369   9.213   5.591   9.335
 2170W        W 6370  10.496   9.317   0.686
 2171W        W 6371   8.604   5.949   3.591
 2172W        W 6372   2.268   6.333  10.866
 2173W        W 6373   8.011   4.751   3.039
 2174W        W 6374   5.318   2.407   0.338
 2175W        W 6375   9.500   6.512   3.090
 2176W        W 6376  11.291   3.974   0.218
 2177W        W 6377  10.796   3.640   1.468
 2178W        W 6378   6.537   7.378  10.541
 2179W        W 6379   9.524  10.772  11.068
 2180W        W 6380   5.659   0.498   9.007
 2181W        W 6381   1.870   5.869  10.391
 2182W        W 6382   6.941   9.712  10.000
 2183W        W 6383   3.709   1.954   1.163
 2184W        W 6384   6.404   4.231  11.342
 2185W        W 6385   2.447  10.757   2.168
 2186W        W 6386   1.894   8.967   9.042
 2187W        W 6387   5.346   4.178   1.448
 2188W        W 6388   6.127   5.476   3.131
 2189W        W 6389  10.809  10.031  10.458
 2190W        W 6390   4.533   0.862   9.486
 2191W        W 6391   5.772   2.371   3.097
 2192W        W 6392   1.684   6.681  10.078
 2193W        W 6393   4.618   5.717   9.975
 2194W        W 6394   3.024   8.008   2.733
 2195W        W 6395   1.399  10.216   1.746
 2196W        W 6396   0.851   3.178   1.936
 2197W        W 6397   7.847   8.592   2.812
 2198W        W 6398   8.982   3.148  11.608
 2199W        W 6399  10.486   4.202   0.396
 2200W        W 6400   9.081   7.956  11.755
 2201W        W 6401  10.029   1.563   2.904
 2202W        W 6402   0.693   8.830   9.558
 2203W        W 6403   9.310   9.908   1.381
 2204W        W 6404   6.256   2.362   9.176
 2205W        W 6405   8.856   5.553   0.634
 2206W        W 6406  10.593   1.528   8.839
 2207W        W 6407   3.902  10.238   3.503
 2208W        W 6408   3.766   8.571   1.753
 2209W        W 6409   8.720   0.992  10.308
 2210W        W 6410   5.201   7.644   2.102
 2211W        W 6411   7.194  10.052  10.498
 2212W        W 6412  10.318   6.187   9.476
 2213W        W 6413   2.833   1.500   9.928
 2214W        W 6414  10.347   6.029   1.695
 2215W        W 6415  10.062   2.436   3.320
 2216W        W 6416   5.596   2.184  10.383
 2217W        W 6417   0.831   2.687  10.138
 2218W        W 6418   5.665   8.972   1.480
 2219W        W 6419   9.097   6.271   0.386
 2220W        W 6420  11.023   8.344  11.922
 2221W        W 6421  10.866   1.628  10.044
 2222W        W 6422  10.963   8.055   8.826
 2223W        W 6423   3.637   1.639  11.713
 2224W        W 6424  10.058  10.259  11.035
 2225W        W 6425  10.859   4.762   1.141
 2226W        W 6426   9.978   0.875   2.037
 2227W        W 6427   7.431   4.800   3.271
 2228W        W 6428   1.602   7.566   1.195
 2229W        W 6429   7.156   2.841   9.340
 2230W        W 6430  10.536  11.324   1.411
 2231W        W 6431   1.271   9.087   0.208
 2232W        W 6432   1.294   2.922  10.785
 2233W        W 6433   5.648   9.700  11.949
 2234W        W 6434   2.388  10.022   1.807
 2235W        W 6435   5.653  11.034  11.828
 2236W        W 6436   8.885   1.960  10.845
 2237W        W 6437   3.832   6.267   9.972
 2238W        W 6438   7.459   1.514   3.334
 2239W        W 6439   7.273   1.439   1.799
 2240W        W 6440  10.041   3.229   8.713
 2241W        W 6441   3.228   8.151  11.106
 2242W        W 6442   6.574   0.737   1.818
 2243W        W 6443   7.605   1.386   0.333
 2244W        W 6444   6.394   3.182   0.496
 2245W        W 6445   6.148   5.547   1.243
 2246W        W 6446   3.326   0.714  10.976
 2247W        W 6447   4.185   2.419   1.884
 2248W        W 6448   9.866   3.091   0.938
 2249W        W 6449   4.284   9.978   3.272
 2250W        W 6450   3.450   6.072  11.445
 2251W        W 6451   4.917   4.061   4.057
 2252W        W 6452   0.600   6.501   0.453
 2253W        W 6453   9.910   7.553   8.654
 2254W        W 6454   4.778   8.931   2.517
 2255W        W 6455   8.156   9.158  10.783
 2256W        W 6456   3.705   2.384   9.472
 2257W        W 6457   3.951   3.789   9.270
 2258W        W 6458   5.251   2.135   2.287
 2259W        W 6459   9.971   4.764   9.668
 2260W        W 6460   9.373   0.015   9.026
 2261W        W 6461   4.809  10.731   9.001
 2262W        W 6462   3.719   1.251  10.260
 2263W        W 6463   5.941   3.674   9.845
 2264W        W 6464   9.682   4.195   3.581
 2265W        W 6465   0.399   8.155  10.914
 2266W        W 6466   0.171   4.172  10.751
 2267W        W 6467   0.118   8.833   1.436
 2268W        W 6468   3.781   8.089   1.301
 2269W        W 6469   8.186  11.267   0.340
 2270W        W 6470   5.723  11.327   9.475
 2271W        W 6471   2.775   9.986   3.146
 2272W        W 6472  10.297   5.490  11.476
 2273W        W 6473   5.954   0.731   3.599
 2274W        W 6474   1.521   0.552  10.426
 2275W        W 6475   8.254  10.350   8.700
 2276W        W 6476   1.891   6.012   3.339
 2277W        W 6477   5.617   7.941   0.447
 2278W        W 6478   0.641   6.984  11.258
 2279W        W 6479   5.864   5.333   2.676
 2280W        W 6480   6.683   4.142  10.906
 2281W        W 6481   2.167   2.793  10.910
 2282W        W 6482   9.286  10.878   0.777
 2283W        W 6483   8.972   7.038   1.827
 2284W        W 6484   6.486   0.629  11.264
 2285W        W 6485   5.201   0.929  10.904
 2286W        W 6486   3.196   0.858   2.076
 2287W        W 6487   8.088   5.963  11.049
 2288W        W 6488   3.633   2.600   9.929
 2289W        W 6489   5.556   0.409   2.276
 2290W        W 6490   6.074   1.908  11.507
 2291W        W 6491   0.980   1.733   1.062
 2292W        W 6492  10.714   6.284  11.281
 2293W        W 6493   0.781   7.517   9.511
 2294W        W 6494   0.254   8.632   2.991
 2295W        W 6495   3.862   9.417   1.193
 2296W        W 6496   2.257   2.334  10.023
 2297W        W 6497   4.886   4.317   1.691
 2298W        W 6498   6.017   4.560   0.377
 2299W        W 6499  10.218   6.998   0.261
 2300W        W 6500   3.166   4.236   9.638
 2301W        W 6501   0.823   7.638   0.711
 2302W        W 6502   1.091   7.500   0.211
 2303W        W 6503   0.240   4.795   2.536
 2304W        W 6504   6.978   6.598  10.422
 2305W        W 6505   8.367   1.903   0.994
 2306W        W 6506   2.294   0.182   2.962
 2307W        W 6507   9.789   5.765   0.260
 2308W        W 6508  10.017  11.427   0.662
 2309W        W 6509   5.084   0.218  11.738
 2310W        W 6510   1.465   3.016  10.283
 2311W        W 6511   7.597  11.277   3.409
 2312W        W 6512   3.146   9.983   1.359
 2313W        W 6513  10.457  11.059   2.861
 2314W        W 6514   4.011   5.042   1.021
 2315W        W 6515   9.484  11.076   2.353
 2316W        W 6516   2.811   6.762  11.364
 2317W        W 6517   4.387   0.716   1.357
 2318W        W 6518  10.013   5.672  10.842
 2319W        W 6519   0.749   6.569   2.278
 2320W        W 6520   5.596   8.510   2.314
 2321W        W 6521   4.142   9.392  11.854
 2322W        W 6522   2.837   1.855  10.813
 2323W        W 6523   1.919   2.580   1.339
 2324W        W 6524   2.847   2.613   1.297
 2325W        W 6525   2.807   2.828  10.313
 2326W        W 6526  11.363   5.647   9.103
 2327W        W 6527  10.333  10.969   0.948
 2328W        W 6528   1.819   4.594   9.421
 2329W        W 6529  10.843   1.381   0.503
 2330W        W 6530   4.437   7.142   3.109
 2331W        W 6531   4.171   0.266   9.260
 2332W        W 6532   9.049   4.915   3.243
 2333W        W 6533  10.537   8.913   2.301
 2334W        W 6534   8.505   0.767   2.645
 2335W        W 6535   8.182   5.638   2.202
 2336W        W 6536  10.654   0.802   2.952
 2337W        W 6537  10.377   6.128   1.149
 2338W        W 6538   0.994   7.948  10.429
 2339W        W 6539   8.605   6.493  11.166
 2340W        W 6540   0.538   1.018  10.885
 2341W        W 6541   6.006   2.370   9.604
 2342W        W 6542   6.465   8.611  11.502
 2343W        W 6543   3.208  10.865   2.462
 2344W        W 6544  10.834   6.577  10.198
 2345W        W 6545   6.097   7.828   2.757
 2346W        W 6546   0.872   4.038  10.089
 2347W        W 6547   9.426   5.272   8.562
 2348W        W 6548   7.714  11.289   1.236
 2349W        W 6549   6.340  10.752   0.308
 2350W        W 6550   7.858   5.038   3.459
 2351W        W 6551   2.942   7.290  11.282
 2352W        W 6552   9.130   1.818   9.855
 2353W        W 6553   3.630  10.430  10.849
 2354W        W 6554   0.526  10.291   2.798
 2355W        W 6555   0.104   3.719  10.372
 2356W        W 6556   4.671  10.892  10.342
 2357W        W 6557   1.818   1.813  10.601
 2358W        W 6558   1.971   1.840   0.919
 2359W        W 6559   9.235   7.027   0.098
 2360W        W 6560   3.222   9.106  10.049
 2361W        W 6561   5.168   8.855   1.625
 2362W        W 6562   3.165  10.328   9.540
 2363W        W 6563   1.197   6.321   1.238
 2364W        W 6564  11.188   3.435   3.468
 2365W        W 6565   3.387   3.890   0.380
 2366W        W 6566   0.093   2.517   9.040
 2367W        W 6567   0.226   9.771  10.403
 2368W        W 6568   2.140   1.318   8.985
 2369W        W 6569   7.769  10.487   8.790
 2370W        W 6570   7.847   4.033   0.640
 2371W        W 6571  11.177   6.164  10.072
 2372W        W 6572   5.265   1.269   2.132
 2373W        W 6573   9.738   7.588   0.067
 2374W        W 6574   2.670   5.494   0.274
 2375W        W 6575   7.341   3.270   2.867
 2376W        W 6576   5.249   8.996   2.242
 2377W        W 6577   2.888   5.374   4.062
 2378W        W 6578   7.310   8.529   3.868
 2379W        W 6579   3.872   4.211   1.683
 2380W        W 6580  10.240   8.564   2.078
 2381W        W 6581   0.370   9.285   0.306
 2382W        W 6582  11.408   2.230   1.401
 2383W        W 6583   7.587   4.322   0.278
 2384W        W 6584   2.275   1.285   1.520
 2385W        W 6585   3.674   6.732   1.131
 2386W        W 6586   1.133  10.976   8.551
 2387W        W 6587   9.535   2.977   9.431
 2388W        W 6588   1.401  10.442   0.037
 2389W        W 6589   4.282   3.633   2.398
 2390W        W 6590   0.457   5.043  10.600
 2391W        W 6591   3.221   7.349  10.423
 2392W        W 6592   4.114   5.600   9.758
 2393W        W 6593  10.400   5.898   9.879
 2394W        W 6594   2.599   5.075   1.256
 2395W        W 6595   0.867   6.655   9.020
 2396W        W 6596   4.433   3.650  11.434
 2397W        W 6597   2.367   6.652   2.747
 2398W        W 6598   1.617   7.454   0.261
 2399W        W 6599   2.331   9.387   0.244
 2400W        W 6600   0.881   3.540   2.339
 2401W        W 6601   8.167   6.067   2.493
 2402W        W 6602   7.698  10.107   2.672
 2403W        W 6603   6.407   5.131   2.226
 2404W        W 6604   7.141   4.869   1.955
 2405W        W 6605   1.581   6.993   2.709
 2406W        W 6606   4.196   1.802   2.690
 2407W        W 6607   3.655  10.784  11.245
 2408W        W 6608   1.569   2.280   2.251
 2409W        W 6609   6.457   0.672  10.192
 2410W        W 6610   4.650   9.906   1.367
 2411W        W 6611   5.480   9.184   8.599
 2412W        W 6612   0.892   6.683   9.531
 2413W        W 6613   9.562  10.024   3.233
 2414W        W 6614   1.361   4.401  11.744
 2415W        W 6615   1.054   5.913  11.968
 2416W        W 6616   0.534   1.434   2.493
 2417W        W 6617   8.521   9.616   9.223
 2418W        W 6618   7.179   4.533   2.355
 2419W        W 6619   0.968   1.179   9.999
 2420W        W 6620   5.157   2.942   1.225
 2421W        W 6621   0.445   7.937   1.137
 2422W        W 6622   9.465   9.692  10.377
 2423W        W 6623   9.052  11.375   2.743
 2424W        W 6624  10.638   8.066   1.969
 2425W        W 6625   9.417   7.650   2.273
 2426W        W 6626   9.578   8.341   8.986
 2427W        W 6627  10.782  10.193   2.648
 2428W        W 6628   3.326   0.532   0.990
 2429W        W 6629   7.220   8.026  11.464
 2430W        W 6630   7.551   2.740   3.573
 2431W        W 6631   8.374  10.667  10.356
 2432W        W 6632   9.526   2.433   1.373
 2433W        W 6633   5.466  10.659   3.304
 2434W        W 6634  11.376   2.873   9.834
 2435W        W 6635   5.204   2.897   1.808
 2436W        W 6636   6.987   9.057   3.206
 2437W        W 6637  11.395   3.314  11.094
 2438W        W 6638   4.595   2.756   2.483
 2439W        W 6639   6.421   0.874   9.399
 2440W        W 6640   0.807  10.233   1.314
 2441W        W 6641   8.646   4.861   8.586
 2442W        W 6642   2.262   1.167   3.315
 2443W        W 6643  10.288   3.377   0.980
 2444W        W 6644   2.600   8.832   0.485
 2445W        W 6645   5.529   8.956  10.361
 2446W        W 6646   6.576   4.280   1.278
 2447W        W 6647  10.909   6.288   3.018
 2448W        W 6648   8.423   3.780  11.941
 2449W        W 6649   8.913   0.380   0.214
 2450W        W 6650   4.618   3.023   1.186
 2451W        W 6651   9.290   2.227   0.947
 2452W        W 6652   1.995   9.541   1.832
 2453W        W 6653   1.022   9.066   9.221
 2454W        W 6654   4.798   8.068  10.169
 2455W        W 6655   2.369   5.023  11.407
 2456W        W 6656   1.004   2.772   1.633
 2457W        W 6657   4.303   6.080   9.779
 2458W        W 6658   0.558   2.661   1.895
 2459W        W 6659   9.495   3.964   2.645
 2460W        W 6660   3.878   3.786  11.419
 2461W        W 6661   2.231   7.948   2.316
 2462W        W 6662   0.254   4.918  11.201
 2463W        W 6663   8.395   6.980  11.509
 2464W        W 6664   3.441   3.915   9.314
 2465W        W 6665   0.975   3.707  11.736
 2466W        W 6666   8.131   8.179  11.046
 2467W        W 6667   6.553   9.916  11.327
 2468W        W 6668   1.103   1.828   2.726
 2469W        W 6669  10.121  10.958   9.942
 2470W        W 6670   2.712   4.142   8.804
 2471W        W 6671   0.651   8.122   8.660
 2472W        W 6672   4.958   3.370   1.419
 2473W        W 6673   9.816   3.678   8.582
 2474W        W 6674   5.996   8.489  11.340
 2475W        W 6675   5.189   9.316  10.476
 2476W        W 6676  11.083   5.920  10.514
 2477W        W 6677  10.879  10.251  11.370
 2478W        W 6678   4.358   4.322   1.729
 2479W        W 6679   1.303   1.399   1.273
 2480W        W 6680   6.489   3.430   2.711
 2481W        W 6681   7.452  10.106   1.696
 2482W        W 6682  10.014   7.436   9.158
 2483W        W 6683   4.150   3.429   1.913
 2484W        W 6684   6.908   2.038   0.170
 2485W        W 6685   6.268   2.679   0.266
 2486W        W 6686  11.367   6.114  10.892
 2487W        W 6687   2.604   3.890  11.438
 2488W        W 6688   1.716   1.284   9.292
 2489W        W 6689   8.912   2.844   1.300
 2490W        W 6690   6.587   1.816   1.373
 2491W        W 6691   2.911   6.591   2.694
 2492W        W 6692   8.463   4.527  11.580
 2493W        W 6693   0.302   4.647   0.301
 2494W        W 6694   1.852  11.190   9.090
 2495W        W 6695   0.492   4.329  11.955
 2496W        W 6696  10.696   2.261  11.514
 2497W        W 6697   8.359   7.263  11.961
 2498W        W 6698   2.719   1.758   9.488
 2499W        W 6699   6.241   3.026  10.328
 2500W        W 6700  10.063   8.109   3.243
 2501W        W 6701   2.859   2.269  11.110
 2502W        W 6702   9.195  11.446   9.522
 2503W        W 6703   2.700   3.785   3.236
 2504W        W 6704   6.601   8.672   2.103
 2505W        W 6705   1.903   1.609   1.392
 2506W        W 6706   7.135  11.142  10.916
 2507W        W 6707   4.196   3.043  11.974
 2508W        W 6708   1.668  10.731   1.407
 2509W        W 6709   4.781   8.851  10.993
 2510W        W 6710   3.209   5.117  11.585
 2511W        W 6711   5.700  10.499   0.703
 2512W        W 6712   6.485   3.844  11.881
 2513W        W 6713   3.510   4.958   3.630
 2514W        W 6714   2.275  10.742   2.642
 2515W        W 6715   4.760   2.416  11.760
 2516W        W 6716   3.089   8.448   0.349
 2517W        W 6717   0.768   6.598   1.304
 2518W        W 6718  10.054  11.327   1.189
 2519W        W 6719   7.587   2.849  10.524
 2520W        W 6720   7.929  10.315   1.894
 2521W        W 6721   5.444   1.418   1.198
 2522W        W 6722   0.998   6.843   2.625
 2523W        W 6723   3.127   2.724  10.964
 2524W        W 6724   3.061   4.259  10.592
 2525W        W 6725   5.575   1.852   3.639
 2526W        W 6726  10.025   6.695   2.729
 2527W        W 6727   6.650   9.942   1.289
 2528W        W 6728   8.231   7.644  10.224
 2529W        W 6729   4.302  10.137  11.329
 2530W        W 6730   3.518   0.971   1.214
 2531W        W 6731  10.784   1.424   1.925
 2532W        W 6732   3.317   5.746   9.571
 2533W        W 6733   0.976   3.667   0.264
 2534W        W 6734   2.951   1.771   1.027
 2535W        W 6735  10.035   2.824  10.609
 2536W        W 6736   7.116   9.002   2.700
 2537W        W 6737   8.500   6.254  11.927
 2538W        W 6738   2.394   0.257   0.534
 2539W        W 6739  11.241   3.600   1.774
 2540W        W 6740  10.265   9.418   9.799
 2541W        W 6741   7.485   6.676  11.821
 2542W        W 6742   5.475   7.219   8.524
 2543W        W 6743   3.618   4.465  10.727
 2544W        W 6744   0.922   3.286   1.444
 2545W        W 6745   6.279   3.274   3.730
 2546W        W 6746   1.420   1.382  10.131
 2547W        W 6747  10.207   7.105  11.272
 2548W        W 6748   6.689   9.152   9.353
 2549W        W 6749   3.106  10.473  10.858
 2550W        W 6750   2.638   1.903   3.233
 2551W        W 6751   3.684   2.633  10.781
 2552W        W 6752   9.486   4.622   9.982
 2553W        W 6753   8.086   0.882   1.491
 2554W        W 6754   2.405   6.591  10.380
 2555W        W 6755   5.835   6.100   9.165
 2556W        W 6756   0.898   6.029   1.534
 2557W        W 6757   6.963   5.261  11.544
 2558W        W 6758  10.000   2.243   9.909
 2559W        W 6759   3.359   7.007   2.388
 2560W        W 6760   4.615   0.240   1.396
 2561W        W 6761  11.012   0.550   1.995
 2562W        W 6762  10.435   9.944   1.906
 2563W        W 6763   6.436   5.268  11.473
 2564W        W 6764   5.931  11.469  11.758
 2565W        W 6765   9.538   0.140  10.791
 2566W        W 6766   1.270   8.420   1.955
 2567W        W 6767   6.406   4.898   9.711
 2568W        W 6768   5.034   9.049   0.240
 2569W        W 6769  11.210   3.990   1.412
 2570W        W 6770  10.014   6.326   3.097
 2571W        W 6771   1.098   7.133  11.393
 2572W        W 6772   8.703  10.051   0.207
 2573W        W 6773   7.606   2.989   1.197
 2574W        W 6774   2.631   4.613   9.635
 2575W        W 6775   8.292  11.021   9.636
 2576W        W 6776   0.245   6.990   8.545
 2577W        W 6777   7.514   1.207  10.925
 2578W        W 6778   5.331  10.624  11.612
 2579W        W 6779  10.942   0.977   1.722
 2580W        W 6780  10.571   3.511  11.232
 2581W        W 6781   6.896   3.700   0.792
 2582W        W 6782   8.141   2.956   8.747
 2583W        W 6783   1.902   8.825   1.323
 2584W        W 6784   1.717   0.664   1.239
 2585W        W 6785   2.713   9.405   2.542
 2586W        W 6786  10.783   2.789   8.964
 2587W        W 6787   1.223   5.724  11.478
 2588W        W 6788   4.994   5.303   0.992
 2589W        W 6789  10.771   6.244   9.781
 2590W        W 6790  10.758   5.117  10.856
 2591W        W 6791   0.620   9.481  11.473
 2592W        W 6792   7.660   6.116   2.397
 2593W        W 6793   1.404   7.137   1.445
 2594W        W 6794   5.637   2.193  11.424
 2595W        W 6795   5.793  11.137   9.938
 2596W        W 6796   0.308   0.996   2.324
 2597W        W 6797   6.052   5.691  11.256
 2598W        W 6798   0.767   1.476   3.333
 2599W        W 6799   6.705   1.734   3.000
 2600W        W 6800   8.645   6.099   2.743
 2601W        W 6801   4.088   5.148   9.545
 2602W        W 6802   0.012   2.400  11.045
 2603W        W 6803  11.460   4.579  10.976
 2604W        W 6804   1.396   3.252   1.221
 2605W        W 6805   9.409  10.620   9.549
 2606W        W 6806   1.923   4.429   0.918
 2607W        W 6807   8.516   0.301   3.337
 2608W        W 6808   4.928   7.653   9.351
 2609W        W 6809   5.287   2.798   9.822
 2610W        W 6810   8.589   2.338  11.753
 2611W        W 6811   5.800   8.767   8.628
 2612W        W 6812   6.955   2.627   2.137
 2613W        W 6813   4.746   9.375   2.739
 2614W        W 6814   8.960   6.364   3.691
 2615W        W 6815   2.803   8.927   0.015
 2616W        W 6816  10.538   7.476   0.381
 2617W        W 6817   3.060   6.510   9.942
 2618W        W 6818  10.764   4.790   3.129
 2619W        W 6819   0.357  10.134  11.781
 2620W        W 6820   7.517   4.187   8.766
 2621W        W 6821   1.374   3.647   1.546
 2622W        W 6822  10.953   4.398   0.195
 2623W        W 6823   1.202  10.539   1.385
 2624W        W 6824   6.537   6.152   9.688
 2625W        W 6825   3.603   1.200   8.735
 2626W        W 6826   3.340   1.021  11.861
 2627W        W 6827  10.411   6.697   0.999
 2628W        W 6828   2.101   3.219   0.401
 2629W        W 6829   9.023   4.771   2.747
 2630W        W 6830   2.484   9.426   9.644
 2631W        W 6831   1.659   8.353   0.107
 2632W        W 6832   1.224   7.355   9.689
 2633W        W 6833   0.324   5.758   3.151
 2634W        W 6834  10.926   4.815   2.134
 2635W        W 6835   3.512  10.692   0.677
 2636W        W 6836   6.631   6.221   8.783
 2637W        W 6837   1.517   2.232  11.969
 2638W        W 6838   3.853   2.336   1.471
 2639W        W 6839   8.431   5.568  11.312
 2640W        W 6840   7.908   3.597  11.836
 2641W        W 6841   7.987  11.489  10.193
 2642W        W 6842   0.231   0.916   3.364
 2643W        W 6843   6.738   3.092   0.925
 2644W        W 6844   9.867  10.348   2.994
 2645W        W 6845  11.043   0.298   9.481
 2646W        W 6846   2.070   6.926   3.763
 2647W        W 6847   6.454   9.089   0.884
 2648W        W 6848   5.599   5.571  11.474
 2649W        W 6849   8.137   1.778   1.456
 2650W        W 6850   4.680   4.592   9.424
 2651W        W 6851   7.612   9.381  11.776
 2652W        W 6852   8.739   6.844   3.592
 2653W        W 6853   5.692   0.456   0.899
 2654W        W 6854  10.488   5.084   2.783
 2655W        W 6855   0.516   2.107   0.180
 2656W        W 6856   1.464   6.161  10.535
 2657W        W 6857   0.383   0.815   1.861
 2658W        W 6858   5.464   2.883   0.457
 2659W        W 6859   6.181   1.334   0.239
 2660W        W 6860   7.089   3.534  10.419
 2661W        W 6861   6.038   6.062   3.360
 2662W        W 6862   5.010   2.793   0.239
 2663W        W 6863  10.889   0.464  11.894
 2664W        W 6864  10.376   5.186   0.153
 2665W        W 6865   6.361   6.051   0.368
 2666W        W 6866  11.128   3.944  10.392
 2667W        W 6867   5.586   8.060   2.635
 2668W        W 6868   5.921   8.084   2.256
 2669W        W 6869   4.036   5.990   0.006
 2670W        W 6870   1.842   6.905  11.970
 2671W        W 6871  11.150   6.379   0.375
 2672W        W 6872   6.786   2.172   1.973
 2673W        W 6873   1.063   0.789  11.850
 2674W        W 6874   8.220   7.165  10.498
 2675W        W 6875   1.729   2.243  10.861
 2676W        W 6876   6.222   9.963   2.285
 2677W        W 6877   9.094   0.910   9.971
 2678W        W 6878   6.897   9.117  10.322
 2679W        W 6879   6.766   0.751   2.295
 2680W        W 6880   9.965   4.205  11.383
 2681W        W 6881   9.938   6.690   1.739
 2682W        W 6882   8.520  10.894  11.257
 2683W        W 6883   7.249   4.671   4.127
 2684W        W 6884  10.884   2.139  10.123
 2685W        W 6885   9.286   4.149  10.155
 2686W        W 6886   3.806   6.631   1.640
 2687W        W 6887   5.626   1.793  11.740
 2688W        W 6888   4.351   6.984   9.745
 2689W        W 6889   2.989  11.412   1.712
 2690W        W 6890   8.490   8.893  10.423
 2691W        W 6891   3.887  11.077  11.669
 2692W        W 6892   6.542   7.879  11.845
 2693W        W 6893   4.199   2.210  11.476
 2694W        W 6894   8.075   3.811  10.914
 2695W        W 6895   5.710   2.907   1.877
 2696W        W 6896   6.437   7.808   1.083
 2697W        W 6897   8.710   5.137  11.131
 2698W        W 6898   0.723   5.561   2.510
 2699W        W 6899   3.647   0.528  11.353
 2700W        W 6900   4.947  11.033  10.767
 2701W        W 6901   2.887   9.004   1.007
 2702W        W 6902   8.034   2.693  10.289
 2703W        W 6903   7.085   0.762   0.941
 2704W        W 6904   4.749   7.168   2.692
 2705W        W 6905   6.719   3.678   2.215
 2706W        W 6906  10.086   1.505  10.733
 2707W        W 6907   4.741  10.012   3.487
 2708W        W 6908   8.886   5.628   2.645
 2709W        W 6909   8.228   4.257   3.243
 2710W        W 6910   1.764   6.531  11.021
 2711W        W 6911   0.764   1.868   2.353
 2712W        W 6912   1.308   7.548  10.501
 2713W        W 6913   8.818   7.090  11.798
 2714W        W 6914   0.014   3.753   2.236
 2715W        W 6915   4.726   6.667   1.417
 2716W        W 6916   7.488   4.094   2.880
 2717W        W 6917   7.786  10.677  11.099
 2718W        W 6918   7.938   7.684   1.276
 2719W        W 6919   0.784   6.447  10.534
 2720W        W 6920   7.541   4.665   9.953
 2721W        W 6921   6.501   0.881   3.271
 2722W        W 6922   6.100   5.599   0.273
 2723W        W 6923   9.043   6.732   3.187
 2724W        W 6924   5.469   8.922   0.983
 2725W        W 6925   5.516  10.925  11.236
 2726W        W 6926   6.538  10.935   1.428
 2727W        W 6927   9.047   9.953   9.616
 2728W        W 6928   2.896   6.033   3.304
 2729W        W 6929   3.229   5.549  10.067
 2730W        W 6930   8.437   5.937   9.621
 2731W        W 6931   2.184   5.605   3.501
 2732W        W 6932   5.051   3.800   1.165
 2733W        W 6933   5.585   9.313   9.377
 2734W        W 6934   7.589  10.004   0.401
 2735W        W 6935  10.598   4.510   8.913
 2736W        W 6936   2.567   9.025   1.930
 2737W        W 6937   2.789   7.699  11.702
 2738W        W 6938  11.266  11.436  10.327
 2739W        W 6939   7.562  10.601   1.679
 2740W        W 6940   0.453   9.149   2.241
 2741W        W 6941   4.766  10.211  11.017
 2742W        W 6942   1.893   0.071  11.493
 2743W        W 6943   9.026   6.712  10.966
 2744W        W 6944   3.805   2.723   0.119
 2745W        W 6945   7.880   9.821   1.744
 2746W        W 6946  10.240   5.018  11.664
 2747W        W 6947  11.058   2.939   3.089
 2748W        W 6948   7.098   8.714  10.043
 2749W        W 6949  10.335   7.664   2.082
 2750W        W 6950   6.955   1.269  10.036
 2751W        W 6951   9.114   0.367   2.128
 2752W        W 6952   4.744  11.398   3.340
 2753W        W 6953   8.898   3.565  10.347
 2754W        W 6954   0.011   8.002   1.397
 2755W        W 6955   7.426   7.265   3.096
 2756W        W 6956   5.247  10.774   0.619
 2757W        W 6957  10.684   7.131  11.415
 2758W        W 6958   1.765   9.838   0.524
 2759W        W 6959   2.204   1.872  10.273
 2760W        W 6960   8.455   7.641   1.835
 2761W        W 6961   8.415   4.192  10.760
 2762W        W 6962   2.121   9.811   1.415
 2763W        W 6963   5.061   7.778   0.411
 2764W        W 6964   3.162  11.407  10.628
 2765W        W 6965   5.289   6.929   9.963
 2766W        W 6966   8.648   5.860   1.373
 2767W        W 6967   1.793   8.622  11.340
 2768W        W 6968   1.888   9.365   1.219
 2769W        W 6969   7.539   9.184   9.454
 2770W        W 6970   2.354   7.001   3.180
 2771W        W 6971   1.889   9.028   3.329
 2772W        W 6972   0.885   9.076   2.559
 2773W        W 6973   2.612  11.362  10.879
 2774W        W 6974   6.214  10.429  11.358
 2775W        W 6975   1.241   0.007   1.311
 2776W        W 6976   8.000   7.623   8.853
 2777W        W 6977   6.534   6.695  11.714
 2778W        W 6978   4.236   3.917   8.819
 2779W        W 6979   2.708  10.193  11.979
 2780W        W 6980   6.860   6.545   2.512
 2781W        W 6981   1.097   7.119   1.865
 2782W        W 6982   0.720   8.337   9.401
 2783W        W 6983   7.514   2.544   0.694
 2784W        W 6984   3.537  10.009   9.702
 2785W        W 6985   9.793   1.488   3.339
 2786W        W 6986   9.047   6.164   1.363
 2787W        W 6987   7.656   4.265   2.423
 2788W        W 6988   5.641   5.682   0.492
 2789W        W 6989   2.649   5.064   8.897
 2790W        W 6990  10.078  11.278   2.583
 2791W        W 6991   4.766   0.663   9.917
 2792W        W 6992   1.297   4.399  10.200
 2793W        W 6993   1.310   1.779   9.816
 2794W        W 6994   3.876   8.070   3.063
 2795W        W 6995   3.962   6.475   2.659
 2796W        W 6996  11.288   8.561   9.503
 2797W        W 6997   2.179   7.735   1.852
 2798W        W 6998   5.680   4.294  10.259
 2799W        W 6999   5.216  10.735   8.712
 2800W        W 7000  11.275   2.839  11.250
 2801W        W 7001  10.930   8.480   9.136
 2802W        W 7002   2.512   5.524   8.711
 2803W        W 7003   0.174   9.129  10.852
 2804W        W 7004   8.899   5.675   8.920
 2805W        W 7005   2.614   9.560   3.363
 2806W        W 7006   5.790   8.888  11.007
 2807W        W 7007   0.392   8.949   0.814
 2808W        W 7008   8.563   9.785  10.309
 2809W        W 7009   4.536   3.984  11.793
 2810W        W 7010   6.836   2.285  11.119
 2811W        W 7011   0.359   4.028   9.895
 2812W        W 7012   4.194   0.424   0.035
 2813W        W 7013   4.915   2.805  11.419
 2814W        W 7014   1.775   0.949  10.649
 2815W        W 7015   6.011   5.114  10.004
 2816W        W 7016   9.363  10.065   2.330
 2817W        W 7017  11.471   0.363   1.656
 2818W        W 7018   8.892   1.762   2.179
 2819W        W 7019  11.053   0.040   1.734
 2820W        W 7020   2.846   8.521  11.095
 2821W        W 7021   6.522   3.641  10.889
 2822W        W 7022  10.322   9.170  11.336
 2823W        W 7023   3.887   1.403   3.408
 2824W        W 7024   5.219   4.120  11.908
 2825W        W 7025   1.821   2.045   3.063
 2826W        W 7026   3.287   8.612  11.341
 2827W        W 7027   6.610   6.655   3.564
 2828W        W 7028   2.657  11.499   2.483
 2829W        W 7029   1.104   5.423   0.762
 2830W        W 7030   9.985   1.170  10.320
 2831W        W 7031   2.875   5.888  10.361
 2832W        W 7032   4.859   9.541   0.217
 2833W        W 7033   6.234   5.829   9.404
 2834W        W 7034   5.547   1.929   9.546
 2835W        W 7035   0.447   0.957   1.357
 2836W        W 7036   9.071   5.045   4.269
 2837W        W 7037   6.752   2.589   4.005
 2838W        W 7038   3.292   0.556   2.842
 2839W        W 7039   0.235   2.169   2.789
 2840W        W 7040   6.441  11.146   0.965
 2841W        W 7041   4.513   8.608   0.240
 2842W        W 7042   8.134  10.040   9.116
 2843W        W 7043   0.858  11.120   3.641
 2844W        W 7044  10.037  10.356  11.822
 2845W        W 7045   2.655   8.104   3.078
 2846W        W 7046   9.943   6.236   1.469
 2847W        W 7047   3.262   9.307   2.421
 2848W        W 7048   8.311   0.786   8.987
 2849W        W 7049   0.030   0.678   1.180
 2850W        W 7050   5.232  10.126  10.812
 2851W        W 7051   8.928   9.521   0.406
 2852W        W 7052   9.332   2.248  10.094
 2853W        W 7053   5.629   7.057   9.026
 2854W        W 7054   6.667   9.545   2.867
 2855W        W 7055   8.446   8.978   1.656
 2856W        W 7056   4.591   9.739  10.993
 2857W        W 7057   4.384   9.561  11.442
 2858W        W 7058   4.166  10.041   0.520
 2859W        W 7059   7.984  10.012   0.729
 2860W        W 7060   4.327   1.442  11.024
 2861W        W 7061   8.983   0.649   9.504
 2862W        W 7062   7.606  10.363   1.236
 2863W        W 7063   0.442   9.898   9.495
 2864W        W 7064  10.835   0.234   1.291
 2865W        W 7065   2.769   7.364  10.179
 2866W        W 7066   9.904   6.523   0.285
 2867W        W 7067  10.362   1.302   9.245
 2868W        W 7068   8.379   5.036  11.504
 2869W        W 7069   7.404   0.960   9.166
 2870W        W 7070   8.747   7.553  11.056
 2871W        W 7071   0.705   2.341   9.676
 2872W        W 7072   2.126   9.002   2.875
 2873W        W 7073   8.423   3.229   8.426
 2874W        W 7074   0.284   1.718  10.085
 2875W        W 7075   8.331   4.116   0.497
 2876W        W 7076   6.264   5.748   0.781
 2877W        W 7077   6.089   1.006   9.006
 2878W        W 7078   6.062   7.458   9.789
 2879W        W 7079   2.342   0.243  11.332
 2880W        W 7080   4.336   6.824   2.688
 2881W        W 7081   2.097   7.855   1.041
 2882W        W 7082   8.040   9.258   9.566
 2883W        W 7083   7.622   6.708  11.328
 2884W        W 7084  10.850  11.436   0.220
 2885W        W 7085   2.215   7.535   3.094
 2886W        W 7086   2.404   5.279   2.163
 2887W        W 7087   3.296   4.712   8.963
 2888W        W 7088   2.161   2.896   9.328
 2889W        W 7089  10.627   9.987   3.422
 2890W        W 7090   8.842   0.637   8.975
 2891W        W 7091   3.389  10.946   3.817
 2892W        W 7092   0.116   1.455   2.203
 2893W        W 7093   6.801   7.949  11.184
 2894W        W 7094   2.696  10.691  10.413
 2895W        W 7095   4.590   4.028   2.544
 2896W        W 7096   8.155   3.651   0.350
 2897W        W 7097   2.371   7.564   0.674
 2898W        W 7098   6.467   9.397  10.404
 2899W        W 7099   4.097   6.416  11.241
 2900W        W 7100  10.975   5.368  11.358
 2901W        W 7101   0.903   6.711  11.605
 2902W        W 7102   0.287   0.406   9.956
 2903W        W 7103   7.109  11.365   3.537
 2904W        W 7104   5.950   8.038  10.991
 2905W        W 7105   7.408   9.614   1.824
 2906W        W 7106   5.667  11.355   1.340
 2907W        W 7107   7.944   3.671  10.440
 2908W        W 7108   2.210   1.140   2.774
 2909W        W 7109   0.081   4.173   2.549
 2910W        W 7110   4.085   3.414   8.886
 2911W        W 7111   9.418   6.596   3.587
 2912W        W 7112   5.327  11.302   1.751
 2913W        W 7113   9.027   2.303   1.375
 2914W        W 7114   8.942   9.015   1.536
 2915W        W 7115   9.889   0.446   2.309
 2916W        W 7116   0.348   9.265   1.217
 2917W        W 7117   0.696   9.524   1.981
 2918W        W 7118   5.110   9.594   8.551
 2919W        W 7119   0.425   8.097   3.139
 2920W        W 7120   8.025   9.473   2.413
 2921W        W 7121  11.461  11.383   2.522
 2922W        W 7122   7.118   2.947   4.096
 2923W        W 7123   4.848  10.837   9.867
 2924W        W 7124   6.440   2.359  10.813
 2925W        W 7125   5.294   6.897   3.566
 2926W        W 7126   4.089  11.057  11.180
 2927W        W 7127   2.755  11.153   2.079
 2928W        W 7128  10.618   0.472   0.902
 2929W        W 7129   5.216   2.625   0.829
 2930W        W 7130   0.228   6.973   1.255
 2931W        W 7131   0.557   1.763   2.907
 2932W        W 7132   0.907   7.667  10.002
 2933W        W 7133   1.557   2.157  10.306
 2934W        W 7134   0.172   9.580   2.099
 2935W        W 7135   2.888   2.110   0.064
 2936W        W 7136   8.429   6.760  11.980
 2937W        W 7137  10.637   8.583  10.472
 2938W        W 7138   1.934   9.286  11.815
 2939W        W 7139   6.300  10.466  11.878
 2940W        W 7140   0.347   3.381   2.368
 2941W        W 7141   7.279   2.409  11.350
 2942W        W 7142   3.389   5.680   2.844
 2943W        W 7143   3.578   4.326   3.065
 2944W        W 7144  11.059   0.902  10.953
 2945W        W 7145   3.228   5.169   2.848
 2946W        W 7146   0.819   9.493  10.301
 2947W        W 7147  10.398   0.434   0.047
 2948W        W 7148   5.069  10.187   2.579
 2949W        W 7149   9.551   5.014   2.666
 2950W        W 7150   9.503   6.943   8.672
 2951W        W 7151   2.660   1.960   1.853
 2952W        W 7152   3.867   1.447   9.463
 2953W        W 7153  10.888   5.679   0.735
 2954W        W 7154   3.954  11.297   9.991
 2955W        W 7155   2.651  10.264  10.711
 2956W        W 7156   0.288   5.176   3.240
 2957W        W 7157   7.561   3.348  10.506
 2958W        W 7158   9.864   9.644   9.550
 2959W        W 7159   5.159   9.328   9.013
 2960W        W 7160   5.521   6.320  11.830
 2961W        W 7161   1.223   3.232   0.186
 2962W        W 7162   5.975   1.746   2.374
 2963W        W 7163   0.860  10.379   1.804
 2964W        W 7164   3.834   1.217   2.429
 2965W        W 7165   9.381   2.793   1.048
 2966W        W 7166   7.421   5.013   3.753
 2967W        W 7167   5.052   6.081   0.508
 2968W        W 7168   4.900  10.139   1.736
 2969W        W 7169   9.374   8.136   1.373
 2970W        W 7170   7.942   9.080   9.101
 2971W        W 7171   3.855   5.512   0.248
 2972W        W 7172   1.712   3.147  10.945
 2973W        W 7173   8.960   8.846   0.248
 2974W        W 7174   2.901  10.284   9.113
 2975W        W 7175   9.087   1.507   2.596
 2976W        W 7176   5.130   7.336   8.905
 2977W        W 7177  10.794   3.270   0.915
 2978W        W 7178   2.732   1.852   2.686
 2979W        W 7179   5.844   3.292   9.376
 2980W        W 7180  10.032   9.443   0.874
 2981W        W 7181   8.972   2.949   0.773
 2982W        W 7182   0.179   4.042  11.670
 2983W        W 7183   5.204   1.437  11.092
 2984W        W 7184   2.169   4.258   9.598
 2985W        W 7185   6.808   2.065   2.481
 2986W        W 7186   0.521   0.416  10.401
 2987W        W 7187  10.168   7.091   9.516
 2988W        W 7188   3.547   6.707   9.838
 2989W        W 7189   6.143   6.527   9.946
 2990W        W 7190   2.700   6.700   8.251
 2991W        W 7191   0.346   0.069   1.158
 2992W        W 7192   2.070   4.280   9.087
 2993W        W 7193  11.412   3.895   0.749
 2994W        W 7194   3.711   0.843   9.083
 2995W        W 7195   6.531   4.600  10.709
 2996W        W 7196   8.645  10.480   9.020
 2997W        W 7197   0.132   0.412   3.207
 2998W        W 7198   8.862   4.872  11.531
 2999W        W 7199   9.844  11.413  11.649
 3000W        W 7200   0.469   3.371   8.889
 3001W        W 7201   2.237   0.073   0.056
 3002W        W 7202  10.921   0.432   0.418
 3003W        W 7203   4.878   1.465   9.578
 3004W        W 7204   0.904   1.373   2.852
 3005W        W 7205   4.328   2.315   2.640
 3006W        W 7206   7.273   2.805   3.102
 3007W        W 7207   3.513   9.293   2.858
 3008W        W 7208   4.358   3.691  10.591
 3009W        W 7209  10.776   0.796  10.538
 3010W        W 7210   9.883   7.705   2.971
 3011W        W 7211   1.236   5.790   1.868
 3012W        W 7212   0.775   8.510  11.221
 3013W        W 7213   2.976   5.999   9.865
 3014W        W 7214   1.315   3.169   1.743
 3015W        W 7215   7.419   2.086   0.934
 3016W        W 7216   1.371   8.553   0.950
 3017W        W 7217   4.094   9.199  10.430
 3018W        W 7218   0.769   8.441   3.764
 3019W        W 7219   3.753   4.928  10.291
 3020W        W 7220   9.593   5.120  11.723
 3021W        W 7221   9.988   8.119   2.681
 3022W        W 7222   2.277   1.968   9.255
 3023W        W 7223   5.668   9.007   2.530
 3024W        W 7224   5.130   3.814  10.914
 3025W        W 7225   6.715   2.656   8.559
 3026W        W 7226   4.279   1.124  11.904
 3027W        W 7227   6.552   1.675   8.748
 3028W        W 7228   3.212   5.296  11.049
 3029W        W 7229   2.611   0.625   1.152
 3030W        W 7230   3.855   5.846   1.473
 3031W        W 7231   3.626   4.337   1.248
 3032W        W 7232   5.083   5.708  10.205
 3033W        W 7233   0.692   7.995  11.336
 3034W        W 7234   8.677   7.424  10.363
 3035W        W 7235   4.614   7.966  11.047
 3036W        W 7236  11.198  11.040   1.779
 3037W        W 7237  10.064   5.178   2.441
 3038W        W 7238   6.269   3.265   9.069
 3039W        W 7239   1.384   5.725  10.212
 3040W        W 7240   2.658   1.702  10.360
 3041W        W 7241  10.143   9.563   1.636
 3042W        W 7242   2.655   0.170  11.797
 3043W        W 7243   0.151   2.594   1.009
 3044W        W 7244   3.112   7.538   1.677
 3045W        W 7245   3.789   9.898   3.164
 3046W        W 7246   0.983  10.788   0.007
 3047W        W 7247   6.292   7.689   0.616
 3048W        W 7248   5.999   1.354   8.449
 3049W        W 7249   9.871   5.138  11.303
 3050W        W 7250   9.210   7.942   9.036
 3051W        W 7251   7.967   4.707   2.519
 3052W        W 7252   6.767   8.805  11.137
 3053W        W 7253   7.721   3.657   2.807
 3054W        W 7254   3.154  10.888  11.905
 3055W        W 7255   7.744   7.600  10.369
 3056W        W 7256  11.061   0.017   3.292
 3057W        W 7257   7.054   0.578   9.058
 3058W        W 7258   0.467  10.854  11.529
 3059W        W 7259   9.921   7.598   9.637
 3060W        W 7260   0.916   0.478   0.673
 3061W        W 7261   2.318   7.199   9.928
 3062W        W 7262   1.183   1.200   9.173
 3063W        W 7263   4.427   2.670  11.410
 3064W        W 7264   3.706  11.385   9.093
 3065W        W 7265  10.411   8.171  11.481
 3066W        W 7266  10.933   2.743   0.212
 3067W        W 7267   9.919   4.835   3.458
 3068W        W 7268   8.875   7.250   0.338
 3069W        W 7269   2.787   1.798  11.652
 3070W        W 7270   7.456  10.391   9.797
 3071W        W 7271   9.477   8.871   8.935
 3072W        W 7272   7.495   6.756   3.190
 3073W        W 7273   5.501  10.742   1.946
 3074W        W 7274   1.464   5.262  11.490
 3075W        W 7275   0.007  10.084   2.038
 3076W        W 7276   5.523   0.622  10.133
 3077W        W 7277   5.821   7.571   0.772
 3078W        W 7278   5.250   3.741   2.254
 3079W        W 7279  10.531   1.410   2.900
 3080W        W 7280   8.187   5.044  10.459
 3081W        W 7281   6.627  10.469   1.233
 3082W        W 7282   6.756   3.761  11.331
 3083W        W 7283   6.048  11.019   1.277
 3084W        W 7284   9.862   4.676  11.577
 3085W        W 7285  11.410   9.269   3.475
 3086W        W 7286   0.535   5.893  10.834
 3087W        W 7287   7.456   8.491  11.482
 3088W        W 7288   5.199   5.727   9.677
 3089W        W 7289   8.065   0.014   3.357
 3090W        W 7290   2.650  10.220  10.213
 3091W        W 7291   8.332   0.781  11.211
 3092W        W 7292   9.444   7.371   1.049
 3093W        W 7293   8.956   1.613   9.301
 3094W        W 7294   5.610   4.477   1.099
 3095W        W 7295   2.908   4.623   8.625
 3096W        W 7296   5.337  10.978   9.781
 3097W        W 7297   1.854   6.550   2.745
 3098W        W 7298   4.155  11.434   8.852
 3099W        W 7299   6.595   9.851   8.950
 3100W        W 7300   5.811   6.037  11.549
 3101W        W 7301   0.841   2.659  10.677
 3102W        W 7302   4.586   5.448   1.444
 3103W        W 7303   4.285   7.827  10.081
 3104W        W 7304   2.811   7.583   2.097
 3105W        W 7305   1.447   8.180  10.529
 3106W        W 7306   7.499   2.756   1.643
 3107W        W 7307  11.381   1.246   0.056
 3108W        W 7308   8.006   0.818   1.995
 3109W        W 7309   6.130   0.452  11.775
 3110W        W 7310   5.262  10.536   1.067
 3111W        W 7311   8.123   2.441  11.927
 3112W        W 7312   7.036   4.086   1.086
 3113W        W 7313   3.245   8.645   9.350
 3114W        W 7314   3.582   5.764  11.870
 3115W        W 7315   5.800  10.781   0.266
 3116W        W 7316   4.037   0.770  10.453
 3117W        W 7317  11.366   5.198   9.761
 3118W        W 7318   6.440   4.788  11.695
 3119W        W 7319   1.177   8.594   9.335
 3120W        W 7320   3.259   7.954   0.380
 3121W        W 7321   3.281   8.205   1.274
 3122W        W 7322   1.801  11.217  10.564
 3123W        W 7323   4.573  11.493   0.908
 3124W        W 7324   8.538  11.326   2.587
 3125W        W 7325   6.172   1.289   0.754
 3126W        W 7326   0.869   7.221   4.072
 3127W        W 7327   0.376   3.813   0.995
 3128W        W 7328   3.730   3.202  11.883
 3129W        W 7329   1.624  10.317   9.017
 3130W        W 7330   3.594  11.330   3.062
 3131W        W 7331  11.043   8.742   0.573
 3132W        W 7332   5.703   2.300   9.196
 3133W        W 7333   2.553   5.076   3.781
 3134W        W 7334   6.766  10.507   9.030
 3135W        W 7335   5.750   2.822  10.016
 3136W        W 7336   3.995   4.673   9.842
 3137W        W 7337   4.528   9.118   0.269
 3138W        W 7338   7.770   8.323   9.235
 3139W        W 7339   0.243   0.826  10.277
 3140W        W 7340  11.470   1.278   1.305
 3141W        W 7341  11.155  10.821   3.584
 3142W        W 7342   1.291  11.324  10.481
 3143W        W 7343   6.898   7.882   2.359
 3144W        W 7344   6.515   4.467   2.600
 3145W        W 7345   1.028   4.519   1.344
 3146W        W 7346   4.247  10.317   1.929
 3147W        W 7347   0.641  10.056   0.191
 3148W        W 7348   1.400   9.539  11.018
 3149W        W 7349   9.005   1.083   9.180
 3150W        W 7350   2.876   0.229   0.272
 3151W        W 7351  11.331   8.775   3.284
 3152W        W 7352  11.123   4.627   3.509
 3153W        W 7353  11.216   4.337   9.881
 3154W        W 7354   1.912   1.875   0.043
 3155W        W 7355   6.975   9.795   0.909
 3156W        W 7356   5.285   8.953  10.993
 3157W        W 7357   1.884   3.879   0.861
 3158W        W 7358  10.495   8.438  11.924
 3159W        W 7359   4.391   9.940   9.238
 3160W        W 7360   2.542   1.206   2.392
 3161W        W 7361   8.391   5.555   9.003
 3162W        W 7362   1.583  10.419   0.999
 3163W        W 7363   3.741   1.772  10.424
 3164W        W 7364   5.623   1.666   1.618
 3165W        W 7365   8.149   1.060   2.428
 3166W        W 7366  10.563   9.335   0.168
 3167W        W 7367   6.252   5.071  10.484
 3168W        W 7368   3.608  10.989   9.459
 3169W        W 7369   8.483   2.670   9.970
 3170W        W 7370   2.297   8.670   9.121
 3171W        W 7371  10.985   9.597   3.389
 3172W        W 7372   9.314   4.240   9.648
 3173W        W 7373   5.749   7.992   9.102
 3174W        W 7374   3.157   6.933   1.057
 3175W        W 7375   9.995   4.568  10.156
 3176W        W 7376   2.828   2.801   0.482
 3177W        W 7377   5.592   2.851   3.390
 3178W        W 7378   6.961   0.784  10.242
 3179W        W 7379  11.452  10.942   2.264
 3180W        W 7380   2.128   6.110  11.769
 3181W        W 7381  11.320   7.603   1.643
 3182W        W 7382   1.687   0.691   9.176
 3183W        W 7383  10.593   8.878   1.405
 3184W        W 7384   3.233   8.892   1.977
 3185W        W 7385   6.079   8.326   1.798
 3186W        W 7386   0.361  11.064   1.310
 3187W        W 7387   5.991  10.899  11.434
 3188W        W 7388   9.873   2.224  11.775
 3189W        W 7389   8.930   0.881  10.751
 3190W        W 7390   8.593   3.781   2.668
 3191W        W 7391   1.231   6.528   3.555
 3192W        W 7392   8.896   1.251   9.659
 3193W        W 7393   3.818   7.787  11.430
 3194W        W 7394   8.300   9.645   1.994
 3195W        W 7395   9.310   7.857   1.833
 3196W        W 7396   0.947   9.878   9.377
 3197W        W 7397   8.770   4.554   1.263
 3198W        W 7398   1.059  11.307  11.928
 3199W        W 7399   1.171   1.018   2.576
 3200W        W 7400   5.772   3.267   8.359
 3201W        W 7401   9.931   6.184   9.846
 3202W        W 7402   5.647   0.930   2.201
 3203W        W 7403   2.697   7.189  11.723
 3204W        W 7404   5.756  11.279   0.435
 3205W        W 7405   2.643   2.840   9.453
 3206W        W 7406   3.825   2.619   3.244
 3207W        W 7407  10.936   8.959   9.291
 3208W        W 7408   2.267  11.241   2.724
 3209W        W 7409   9.061   4.685   9.683
 3210W        W 7410   8.146   9.387   1.573
 3211W        W 7411   7.592   9.068   2.881
 3212W        W 7412   2.012   7.618   2.636
 3213W        W 7413   8.717  11.359   0.379
 3214W        W 7414   0.785   1.590  11.355
 3215W        W 7415   8.417   0.590   1.746
 3216W        W 7416   7.500   7.967   1.021
 3217W        W 7417   4.002   2.817   9.580
 3218W        W 7418   0.822   8.800   0.063
 3219W        W 7419  10.758   4.884  11.436
 3220W        W 7420  11.290   8.175   0.369
 3221W        W 7421   2.733   1.532  11.215
 3222W        W 7422   6.602   0.753   2.784
 3223W        W 7423   4.223   1.008   3.386
 3224W        W 7424  10.820  10.802  10.873
 3225W        W 7425   7.260   1.339   9.570
 3226W        W 7426  10.926   2.567   9.746
 3227W        W 7427   9.425   6.631   0.327
 3228W        W 7428   1.874   2.926   2.684
 3229W        W 7429   3.477   4.400   0.458
 3230W        W 7430   9.573   6.552   0.813
 3231W        W 7431  10.273   1.275   3.348
 3232W        W 7432   7.517   9.432  11.291
 3233W        W 7433   9.894   9.467  10.518
 3234W        W 7434   3.921  10.070   9.359
 3235W        W 7435   3.434   7.938   1.763
 3236W        W 7436  10.511   1.829   9.238
 3237W        W 7437  10.792   0.853   3.438
 3238W        W 7438   3.595   8.960   0.563
 3239W        W 7439   6.994   4.299   2.780
 3240W        W 7440   3.141   3.215   0.450
 3241W        W 7441   6.510   9.197   8.482
 3242W        W 7442   6.107   5.230  11.887
 3243W        W 7443   4.339   8.595   2.563
 3244W        W 7444   6.277  11.289   0.380
 3245W        W 7445   3.668   6.512   2.140
 3246W        W 7446   2.809   4.328   0.935
 3247W        W 7447   1.300  10.051   1.270
 3248W        W 7448  11.313  10.279   9.949
 3249W        W 7449   8.084  10.303  11.286
 3250W        W 7450   0.923   5.631   9.959
 3251W        W 7451   8.422   7.111   9.818
 3252W        W 7452   0.775   7.784  10.865
 3253W        W 7453   3.951   3.212   0.896
 3254W        W 7454   6.396   5.767  10.571
 3255W        W 7455  10.415   9.780   0.908
 3256W        W 7456   0.810   9.966   0.670
 3257W        W 7457   0.399  11.014   9.950
 3258W        W 7458   4.630   4.397  10.015
 3259W        W 7459   0.851   1.256  11.731
 3260W        W 7460  11.491   0.167   0.694
 3261W        W 7461  10.905   1.272   3.203
 3262W        W 7462   1.918  10.373   3.166
 3263W        W 7463   6.300   6.030   1.222
 3264W        W 7464   0.316  11.444  10.252
 3265W        W 7465  10.236   0.542   2.706
 3266W        W 7466   5.371  10.118   0.763
 3267W        W 7467   5.939  11.426   2.765
 3268W        W 7468   2.804   9.381   9.260
 3269W        W 7469   8.460   9.215   3.216
 3270W        W 7470   9.916   2.836   0.467
 3271W        W 7471   9.417   0.037   1.450
 3272W        W 7472   4.924   0.048   2.560
 3273W        W 7473   9.686   0.012   0.123
 3274W        W 7474   8.363   8.641   2.029
 3275W        W 7475   3.351   8.444   2.729
 3276W        W 7476   0.368   6.085   0.754
 3277W        W 7477   4.195   6.541   8.583
 3278W        W 7478   5.058   2.373   9.987
 3279W        W 7479   1.182   8.709   2.891
 3280W        W 7480   2.657   8.608   3.197
 3281W        W 7481   0.370  11.008   8.450
 3282W        W 7482   7.500   1.401   1.202
 3283W        W 7483   1.364   2.196   3.295
 3284W        W 7484   9.955   7.185   9.959
 3285W        W 7485   1.356   0.602   2.392
 3286W        W 7486   2.681   3.466   1.021
 3287W        W 7487  11.310   6.872   0.357
 3288W        W 7488   7.484   8.194   0.306
 3289W        W 7489   6.976  10.180   0.068
 3290W        W 7490   0.453   0.464   1.460
 3291W        W 7491   5.507   3.237   0.090
 3292W        W 7492   8.640   5.921  10.092
 3293W        W 7493   2.216   4.116   1.741
 3294W        W 7494   0.396   2.965  11.851
 3295W        W 7495   7.652   0.112   1.673
 3296W        W 7496   1.927   5.145   2.328
 3297W        W 7497   7.469   2.672   2.157
 3298W        W 7498   1.399   6.913   9.497
 3299W        W 7499   8.495   0.283   2.825
 3300W        W 7500   1.573   9.423   0.821
 3301W        W 7501  11.329   1.612   0.437
 3302W        W 7502   6.621   7.101   9.666
 3303W        W 7503   9.059   8.910  11.221
 3304W        W 7504   3.748   4.633   0.832
 3305W        W 7505   1.801   0.467  10.011
 3306W        W 7506   8.381   8.888   9.425
 3307W        W 7507   1.019   7.926  11.740
 3308W        W 7508   0.423   5.547  10.471
 3309W        W 7509   2.960   9.491   9.818
 3310W        W 7510  10.851   0.656   8.958
 3311W        W 7511   3.243   8.202  10.088
 3312W        W 7512   7.473   0.536   0.262
 3313W        W 7513  11.323   6.446  10.466
 3314W        W 7514   3.233   1.226   1.596
 3315W        W 7515   3.182   7.697  10.807
 3316W        W 7516   6.688   9.053   2.428
 3317W        W 7517   8.006   0.513   0.272
 3318W        W 7518   1.881   3.077   1.274
 3319W        W 7519   4.964  10.345   0.489
 3320W        W 7520  10.363   3.647   8.715
 3321W        W 7521   3.894   2.352   0.908
 3322W        W 7522   7.548   5.620   1.558
 3323W        W 7523   1.363   8.930   1.933
 3324W        W 7524   6.197  10.137   1.212
 3325W        W 7525  10.588   6.093   0.676
 3326W        W 7526   3.984   2.201   3.523
 3327W        W 7527   9.757   3.067   1.869
 3328W        W 7528   0.199   4.525   2.954
 3329W        W 7529   0.559   3.884  10.593
 3330W        W 7530   6.057  10.585   1.040
 3331W        W 7531  10.478  11.205   0.493
 3332W        W 7532  10.346  10.463   9.216
 3333W        W 7533   4.361   5.993  11.176
 3334W        W 7534   9.378   0.981   9.550
 3335W        W 7535   3.056   1.451  10.567
 3336W        W 7536   4.732   6.787   9.494
 3337W        W 7537   4.669   1.100   2.914
 3338W        W 7538  10.727   3.626   2.659
 3339W        W 7539   0.610   9.039  10.526
 3340W        W 7540   8.561   1.450   8.445
 3341W        W 7541   0.820   0.456   3.160
 3342W        W 7542   0.559   2.349   8.828
 3343W        W 7543   6.183  11.477   9.869
 3344W        W 7544   4.079   1.617   1.306
 3345W        W 7545   9.938   6.663  11.286
 3346W        W 7546   4.054   5.049   0.052
 3347W        W 7547   8.082  10.511   1.448
 3348W        W 7548   7.269   5.479   1.032
 3349W        W 7549  11.386   6.016   2.428
 3350W        W 7550   9.485   8.392   2.759
 3351W        W 7551   0.581   7.492  11.247
 3352W        W 7552   7.472   6.038   1.902
 3353W        W 7553   3.073   9.493   3.577
 3354W        W 7554   6.793   4.194   2.266
 3355W        W 7555   3.436   6.566   2.643
 3356W        W 7556   4.999   7.536   1.269
 3357W        W 7557   0.853   8.419  11.710
 3358W        W 7558   7.411   9.910  10.037
 3359W        W 7559   0.929   5.673  10.471
 3360W        W 7560   7.974   8.907   3.223
 3361W        W 7561   5.708   3.119  11.180
 3362W        W 7562  11.486   2.746   2.893
 3363W        W 7563   5.207  10.536  11.107
 3364W        W 7564   2.225   8.530   0.759
 3365W        W 7565   0.375   1.763  11.604
 3366W        W 7566   2.885   7.164  10.794
 3367W        W 7567   8.352   5.652   2.738
 3368W        W 7568   0.920   8.024   1.465
 3369W        W 7569   6.735   9.043   4.141
 3370W        W 7570   1.138  11.239   0.454
 3371W        W 7571   6.589   3.048   0.047
 3372W        W 7572   9.185   6.423   1.796
 3373W        W 7573   2.835   2.949   1.916
 3374W        W 7574   6.505   4.360   9.822
 3375W        W 7575   3.204   3.488   3.222
 3376W        W 7576   4.756   0.769  11.297
 3377W        W 7577   9.367   4.073  10.648
 3378W        W 7578   7.804   3.361   8.766
 3379W        W 7579   3.775   6.462   9.452
 3380W        W 7580  10.319   9.495  11.750
 3381W        W 7581   3.822   4.122   2.647
 3382W        W 7582   4.538   7.296   9.400
 3383W        W 7583   6.929   0.493   9.587
 3384W        W 7584   1.073   6.229   8.836
 3385W        W 7585   1.273   2.437  10.896
 3386W        W 7586   4.898   6.559  10.607
 3387W        W 7587   9.365   2.324  11.629
 3388W        W 7588  10.942   6.736   2.668
 3389W        W 7589   4.274   5.308   1.849
 3390W        W 7590   5.039   2.386   1.842
 3391W        W 7591   5.496   4.972   2.752
 3392W        W 7592   9.771   9.929  11.280
 3393W        W 7593   4.392   7.035   0.637
 3394W        W 7594   8.242   6.955   3.399
 3395W        W 7595  10.840  11.049  11.824
 3396W        W 7596  10.478   6.123   3.235
 3397W        W 7597   5.248   2.222   8.963
 3398W        W 7598   7.015   1.025   8.803
 3399W        W 7599   7.057   2.865  11.253
 3400W        W 7600   6.796   7.047  10.194
 3401W        W 7601   5.235   5.738   0.850
 3402W        W 7602  10.032   7.152  10.800
 3403W        W 7603   9.003   6.183   9.800
 3404W        W 7604   4.181   1.953   1.687
 3405W        W 7605   2.943   8.635   9.917
 3406W        W 7606   0.400   9.630   8.531
 3407W        W 7607   9.918   8.659   8.753
 3408W        W 7608   6.512   9.643   9.418
 3409W        W 7609   3.124   1.681   1.884
 3410W        W 7610   8.405   2.514   8.539
 3411W        W 7611   5.237   1.417   9.207
 3412W        W 7612   4.158   3.139   9.939
 3413W        W 7613   9.526  10.271  10.976
 3414W        W 7614   3.008   3.139  10.671
 3415W        W 7615   3.579   8.573   0.245
 3416W        W 7616   1.350   2.639   9.886
 3417W        W 7617   1.796   7.670  10.405
 3418W        W 7618   4.104   6.742  10.849
 3419W        W 7619   7.859   6.914   1.539
 3420W        W 7620   1.936   2.858   1.782
 3421W        W 7621   8.416   6.299   0.814
 3422W        W 7622   6.668  11.287   2.345
 3423W        W 7623   2.785   2.580   9.042
 3424W        W 7624   2.324   6.889   9.494
 3425W        W 7625   4.319   0.364  10.618
 3426W        W 7626   3.128  10.833   9.553
 3427W        W 7627   7.105   5.010   0.090
 3428W        W 7628  10.825   9.013   0.963
 3429W        W 7629   9.597   1.504   2.603
 3430W        W 7630   4.305   9.941   2.764
 3431W        W 7631   0.677   0.950   2.660
 3432W        W 7632   6.776  10.627   3.181
 3433W        W 7633  10.926  10.914   0.318
 3434W        W 7634  10.948   8.159   2.726
 3435W        W 7635   5.832   6.671  10.916
 3436W        W 7636   8.967   4.409  11.392
 3437W        W 7637   2.177   8.360   9.487
 3438W        W 7638   4.120   3.060   3.245
 3439W        W 7639   2.512   2.186   2.309
 3440W        W 7640   4.172   3.614  10.134
 3441W        W 7641   6.532  10.499  10.194
 3442W        W 7642   3.489   8.828   2.423
 3443W        W 7643   6.626   5.199  11.982
 3444W        W 7644   9.927   2.688   9.589
 3445W        W 7645  10.826   8.945  11.243
 3446W        W 7646   1.333   5.199   0.369
 3447W        W 7647   7.200   6.969   0.910
 3448W        W 7648   2.288   1.054   1.973
 3449W        W 7649   8.666   7.787   0.899
 3450W        W 7650   6.991   3.916  11.766
 3451W        W 7651   7.140   8.539   3.344
 3452W        W 7652   9.807   4.571   1.036
 3453W        W 7653   8.644  11.241   1.283
 3454W        W 7654   1.679   0.844   9.652
 3455W        W 7655   8.041   0.999   3.434
 3456W        W 7656   8.194  10.473  10.820
 3457W        W 7657  10.865   5.765   3.096
 3458W        W 7658   2.137   4.869   3.563
 3459W        W 7659   5.279   7.880  10.284
 3460W        W 7660   1.767   2.700   9.597
 3461W        W 7661   0.119   1.739  10.580
 3462W        W 7662   9.387   2.738   3.024
 3463W        W 7663   3.410   1.236   9.278
 3464W        W 7664   7.123   3.922   1.976
 3465W        W 7665   8.772   5.177   8.978
 3466W        W 7666   0.279   8.285   0.236
 3467W        W 7667   7.694   8.045  11.273
 3468W        W 7668   5.131   6.851   2.547
 3469W        W 7669   2.382   9.448  10.152
 3470W        W 7670   6.699   6.919  10.703
 3471W        W 7671   5.056   4.205   2.381
 3472W        W 7672   0.043   9.640  10.916
 3473W        W 7673   5.907   7.509   3.127
 3474W        W 7674  11.377   8.780   9.045
 3475W        W 7675   7.729   8.541  11.952
 3476W        W 7676   5.164   9.354   1.879
 3477W        W 7677   1.758   9.454   3.013
 3478W        W 7678   3.028   5.258   0.633
 3479W        W 7679   5.958   6.064   0.068
 3480W        W 7680  10.849   4.502   9.495
 3481W        W 7681   9.018   6.702   1.406
 3482W        W 7682   0.815  10.817   1.188
 3483W        W 7683   5.969   0.804  10.318
 3484W        W 7684  11.467   1.297  10.810
 3485W        W 7685   9.576   5.415  10.945
 3486W        W 7686   4.288   9.448   9.462
 3487W        W 7687  10.282   2.778   8.784
 3488W        W 7688   4.019   5.550   2.362
 3489W        W 7689  10.814   8.188  10.136
 3490W        W 7690   4.705   0.811   3.323
 3491W        W 7691   1.381   6.099  11.141
 3492W        W 7692   6.044   6.465  11.786
 3493W        W 7693   9.769   4.110  10.308
 3494W        W 7694   8.324   1.428   0.846
 3495W        W 7695   5.748   5.771   0.992
 3496W        W 7696   3.587   8.325   2.210
 3497W        W 7697   8.547   4.687   3.189
 3498W        W 7698   1.243   8.605   0.441
 3499W        W 7699   8.881  10.467   0.444
 3500W        W 7700   0.814   4.745   2.181
 3501W        W 7701   0.540  10.599  10.915
 3502W        W 7702  10.075   1.799   9.566
 3503W        W 7703   4.298   3.728   9.648
 3504W        W 7704   2.403   3.006   3.288
 3505W        W 7705   3.314   9.583   8.854
 3506W        W 7706   2.391   5.334  10.984
 3507W        W 7707   9.365   7.016   0.681
 3508W        W 7708   7.517   4.596   2.796
 3509W        W 7709  11.092  11.394   8.528
 3510W        W 7710   1.600   8.591   3.225
 3511W        W 7711  10.864   8.385   1.284
 3512W        W 7712   6.785   5.243   1.889
 3513W        W 7713  11.304   5.757   1.888
 3514W        W 7714   8.299  11.186  10.493
 3515W        W 7715   2.787   5.035  10.886
 3516W        W 7716   2.259   6.628  11.288
 3517W        W 7717   1.556   8.484   2.387
 3518W        W 7718   3.053  10.549   0.816
 3519W        W 7719   3.250   5.604   9.055
 3520W        W 7720   1.027  10.721  11.026
 3521W        W 7721   1.819   6.584  11.552
 3522W        W 7722   8.156   8.412   3.218
 3523W        W 7723   4.598   9.034   9.382
 3524W        W 7724  11.376   3.316   9.553
 3525W        W 7725   3.193   4.167  11.993
 3526W        W 7726   9.030   2.310   2.227
 3527W        W 7727   1.290   0.733  11.382
 3528W        W 7728   3.141   4.750   9.530
 3529W        W 7729   5.255   1.397   0.422
 3530W        W 7730   9.328   4.682   2.319
 3531W        W 7731   0.460   0.251   2.850
 3532W        W 7732   0.782   6.417  11.133
 3533W        W 7733   3.711   2.623   2.714
 3534W        W 7734   1.096  10.390   0.883
 3535W        W 7735   6.148   7.673   8.929
 3536W        W 7736   0.726   3.329  11.978
 3537W        W 7737   1.730   9.844   8.833
 3538W        W 7738   4.314   1.854   0.386
 3539W        W 7739   3.339   4.605  10.348
 3540W        W 7740  10.423  10.895   0.080
 3541W        W 7741   6.575   9.285  11.184
 3542W        W 7742   8.167   2.144  11.527
 3543W        W 7743   0.944   3.759  11.237
 3544W        W 7744   4.629   1.509  11.936
 3545W        W 7745   5.248  10.620   9.292
 3546W        W 7746   8.887  10.452   2.240
 3547W        W 7747  11.132   5.186  11.999
 3548W        W 7748   8.125  10.261   2.942
 3549W        W 7749   9.386   5.534   2.466
 3550W        W 7750   1.624   1.862  11.613
 3551W        W 7751   6.441   9.356   8.958
 3552W        W 7752   6.000  10.428  10.357
 3553W        W 7753   7.901   8.916   1.718
 3554W        W 7754  10.945   7.429   1.353
 3555W        W 7755   1.864   8.897   2.436
 3556W        W 7756   4.947   8.300  11.744
 3557W        W 7757  10.188  11.403   0.109
 3558W        W 7758   6.688  11.277   1.827
 3559W        W 7759   4.770   9.889   9.562
 3560W        W 7760   8.581  10.334  11.111
 3561W        W 7761   5.435   7.314   3.281
 3562W        W 7762   6.312   3.831   1.363
 3563W        W 7763   2.699   3.052  11.080
 3564W        W 7764  11.356   5.570   0.905
 3565W        W 7765   7.918   3.202   9.595
 3566W        W 7766   5.226  11.099   3.217
 3567W        W 7767   1.317   0.102   2.313
 3568W        W 7768   1.291   9.137   3.204
 3569W        W 7769   7.114   7.391   2.117
 3570W        W 7770   4.089   6.474  11.768
 3571W        W 7771  10.977   1.869   1.695
 3572W        W 7772   9.172  11.428   3.724
 3573W        W 7773   6.167   2.491   8.646
 3574W        W 7774   6.737   9.937   2.521
 3575W        W 7775   3.595   3.572   8.967
 3576W        W 7776   3.098  10.044   9.994
 3577W        W 7777   8.021   0.249   0.737
 3578W        W 7778  10.004  10.337   8.832
 3579W        W 7779   8.685   2.401   2.590
 3580W        W 7780   0.409   2.269   1.333
 3581W        W 7781   3.655   0.372   9.243
 3582W        W 7782  11.415  11.020   8.683
 3583W        W 7783  11.018   2.331   2.307
 3584W        W 7784   1.844   6.032  10.860
 3585W        W 7785   3.437   8.612   9.826
 3586W        W 7786   2.589   7.117   1.943
 3587W        W 7787   9.949   4.847   0.639
 3588W        W 7788   7.550   8.796   2.435
 3589W        W 7789  11.333  10.569   1.951
 3590W        W 7790   0.924   5.438   1.621
 3591W        W 7791   6.986   1.894   0.674
 3592W        W 7792   1.982   2.299  11.759
 3593W        W 7793   6.547   5.699   1.519
 3594W        W 7794   9.118   3.455  11.206
 3595W        W 7795   3.547   7.456   2.602
 3596W        W 7796   3.594   7.081  10.188
 3597W        W 7797   7.262   6.210  11.017
 3598W        W 7798   4.008   9.336   8.522
 3599W        W 7799   6.130   2.827   0.738
 3600W        W 7800   9.537   9.055  11.752
 3601W        W 7801   2.409   9.158   8.996
 3602W        W 7802   9.183   5.804   3.046
 3603W        W 7803   4.992   6.656  11.235
 3604W        W 7804   4.262   4.727  11.242
 3605W        W 7805   5.354   8.850  11.901
 3606W        W 7806   3.218   7.942   2.247
 3607W        W 7807   8.451   1.793   0.504
 3608W        W 7808   0.013   7.824   3.024
 3609W        W 7809   0.992   8.268  10.826
 3610W        W 7810   1.128   4.269  11.301
 3611W        W 7811   6.081   5.296   9.493
 3612W        W 7812   6.690  10.206   0.808
 3613W        W 7813   6.811   0.303  10.067
 3614W        W 7814   5.627   4.064   9.828
 3615W        W 7815   4.677   1.602   2.862
 3616W        W 7816   8.078   8.118   0.984
 3617W        W 7817   1.898  10.312   0.226
 3618W        W 7818   1.337   2.688   9.310
 3619W        W 7819   6.490   2.643   2.330
 3620W        W 7820   4.116   7.547   9.650
 3621W        W 7821   2.305   5.565  10.432
 3622W        W 7822   9.544   8.260  10.725
 3623W        W 7823   1.875   7.004   9.266
 3624W        W 7824   9.970   0.859   0.559
 3625W        W 7825   6.096   8.568   2.261
 3626W        W 7826  11.299   1.098   0.547
 3627W        W 7827   7.499   7.678   0.223
 3628W        W 7828  11.064   6.172   0.871
 3629W        W 7829   2.138   9.013   0.547
 3630W        W 7830   8.386   6.858   2.299
 3631W        W 7831   3.243   4.698   2.093
 3632W        W 7832  10.946   1.399   1.436
 3633W        W 7833   4.673   1.909   0.906
 3634W        W 7834   5.659   0.624   1.784
 3635W        W 7835   3.235   7.603   3.000
 3636W        W 7836   1.067   7.640  11.319
 3637W        W 7837  10.056   9.922   3.247
 3638W        W 7838   5.763   2.213   2.361
 3639W        W 7839   9.024  10.821   1.539
 3640W        W 7840   6.550   8.189   2.875
 3641W        W 7841   1.831  10.400  10.739
 3642W        W 7842   9.955   8.742   0.083
 3643W        W 7843   1.730   4.289   9.919
 3644W        W 7844   4.251   8.497   0.939
 3645W        W 7845   9.838   5.660  11.322
 3646W        W 7846   0.166   1.712   0.059
 3647W        W 7847   3.657  10.476   9.486
 3648W        W 7848   8.519  10.879   0.442
 3649W        W 7849   5.014   3.878   9.214
 3650W        W 7850   8.064   0.012   2.415
 3651W        W 7851   5.446   7.446   0.364
 3652W        W 7852  10.514   0.882  10.961
 3653W        W 7853   8.216   1.900   0.068
 3654W        W 7854   0.669   0.071  11.063
 3655W        W 7855   8.094  10.504   3.393
 3656W        W 7856   8.542   6.625   3.134
 3657W        W 7857  10.974   8.573  10.895
 3658W        W 7858   1.348   0.270   2.798
 3659W        W 7859   5.048   5.243  10.438
 3660W        W 7860   8.541   4.636  11.099
 3661W        W 7861   2.332   5.217   2.665
 3662W        W 7862   9.444   2.344   9.104
 3663W        W 7863   4.055   1.225   9.047
 3664W        W 7864   2.610   6.562   2.286
 3665W        W 7865   7.292   7.941  10.971
 3666W        W 7866   5.109   3.870   2.743
 3667W        W 7867   4.490   9.850   1.866
 3668W        W 7868   8.372  11.445   9.263
 3669W        W 7869   8.437   0.306   8.921
 3670W        W 7870   0.909   2.306   1.440
 3671W        W 7871   2.908  10.549   9.933
 3672W        W 7872   5.112   3.254   0.457
 3673W        W 7873   9.656   3.488   9.439
 3674W        W 7874  10.040   7.207   2.843
 3675W        W 7875  10.593   2.671  11.846
 3676W        W 7876   5.062   3.059   3.186
 3677W        W 7877   6.332   6.591  10.853
 3678W        W 7878   0.376  10.846   0.865
 3679W        W 7879  11.394   3.070   0.077
 3680W        W 7880   1.273   0.362   9.111
 3681W        W 7881  11.201   2.364   1.841
 3682W        W 7882   3.783   5.228   2.045
 3683W        W 7883   2.373   3.104   1.761
 3684W        W 7884   4.316   9.243  10.951
 3685W        W 7885   6.024   5.314  10.875
 3686W        W 7886   5.624   1.320   3.615
 3687W        W 7887   3.274   8.667  10.835
 3688W        W 7888   8.733   5.149   1.943
 3689W        W 7889   6.280   3.990  10.617
 3690W        W 7890   2.285  10.293   1.283
 3691W        W 7891   4.896   4.087   3.137
 3692W        W 7892   8.154  10.753   0.071
 3693W        W 7893   7.297   2.125  10.904
 3694W        W 7894   2.846  11.044   9.936
 3695W        W 7895   6.511   5.674   2.016
 3696W        W 7896   7.077   7.544  11.330
 3697W        W 7897   4.360   5.976   1.528
 3698W        W 7898   9.713   0.144   3.302
 3699W        W 7899   4.184   9.055   1.733
 3700W        W 7900   9.507   4.497   2.774
 3701W        W 7901   3.390   2.267  11.008
 3702W        W 7902   6.125   5.637   9.889
 3703W        W 7903   2.359   7.967  11.527
 3704W        W 7904   2.262   5.669  11.969
 3705W        W 7905   0.369   6.591   9.182
 3706W        W 7906  10.009   1.043  10.993
 3707W        W 7907   0.434  11.358   1.751
 3708W        W 7908  11.356   2.756  10.364
 3709W        W 7909   7.942   6.662   3.731
 3710W        W 7910   2.673   6.662  10.820
 3711W        W 7911   3.182   5.887   2.022
 3712W        W 7912   5.748   6.654   1.588
 3713W        W 7913  11.438   9.098   2.909
 3714W        W 7914   1.121   2.962  11.764
 3715W        W 7915  11.049   7.940   9.339
 3716W        W 7916   5.655   9.438   1.728
 3717W        W 7917   3.835   2.456  11.233
 3718W        W 7918   9.581   5.215   0.740
 3719W        W 7919   8.543   7.435   1.361
 3720W        W 7920   9.524   3.276  11.558
 3721W        W 7921   2.306   3.591  10.519
 3722W        W 7922   9.777   9.567   3.546
 3723W        W 7923   8.574  11.293  10.923
 3724W        W 7924   7.110   2.654  10.322
 3725W        W 7925   3.177   6.185   2.898
 3726W        W 7926   1.130   0.900   0.434
 3727W        W 7927   8.550   5.652   1.845
 3728W        W 7928  10.067   6.165   2.616
 3729W        W 7929   4.162   7.741  10.998
 3730W        W 7930  10.471  11.478   0.938
 3731W        W 7931   0.152   2.636   8.513
 3732W        W 7932   6.120   2.775  11.311
 3733W        W 7933   4.252   0.049   0.437
 3734W        W 7934   6.307   6.922   1.237
 3735W        W 7935   6.068   4.826   1.788
 3736W        W 7936   7.773   5.575   1.104
 3737W        W 7937   7.296   9.391   0.992
 3738W        W 7938   5.141   9.192   0.716
 3739W        W 7939   1.883  10.030   1.852
 3740W        W 7940   5.287   4.632  10.282
 3741W        W 7941   4.304   3.804   0.228
 3742W        W 7942   3.095   2.570   9.472
 3743W        W 7943   6.899   4.710   9.867
 3744W        W 7944   5.078   9.683   0.734
 3745W        W 7945   5.153   0.902   2.989
 3746W        W 7946   9.393   3.555   2.934
 3747W        W 7947   0.291   6.326  10.669
 3748W        W 7948   0.780  11.315   1.392
 3749W        W 7949   3.258   4.238  11.055
 3750W        W 7950   4.059   0.300  10.174
 3751W        W 7951   0.457   5.766   1.571
 3752W        W 7952  10.827   3.223   0.019
 3753W        W 7953   8.118   8.158   2.774
 3754W        W 7954   6.226   8.305  11.820
 3755W        W 7955   9.095   6.496   9.387
 3756W        W 7956   2.165   3.897   2.650
 3757W        W 7957   3.529  10.818   1.178
 3758W        W 7958   9.632   1.881   9.829
 3759W        W 7959   8.301   4.322   2.435
 3760W        W 7960   9.500  10.764   1.820
 3761W        W 7961   9.532   8.542  11.797
 3762W        W 7962   3.311   1.938   0.307
 3763W        W 7963   3.913   9.127   2.510
 3764W        W 7964   9.261   1.378   3.068
 3765W        W 7965   6.110   0.314  10.248
 3766W        W 7966   7.627   4.609  10.961
 3767W        W 7967  10.848  11.065   0.818
 3768W        W 7968   6.051   8.130   0.695
 3769W        W 7969   6.681   4.654  11.216
 3770W        W 7970   2.204   4.270  10.103
 3771W        W 7971   8.522   3.628   9.973
 3772W        W 7972   0.752   9.754   1.151
 3773W        W 7973   3.052   0.458   2.388
 3774W        W 7974   8.433   3.609  10.537
 3775W        W 7975   2.911   5.168   2.071
 3776W        W 7976   6.083   4.107   9.133
 3777W        W 7977   9.254   5.373   3.419
 3778W        W 7978   2.553   5.666   3.127
 3779W        W 7979   6.954  10.698   8.587
 3780W        W 7980   4.167   5.652  10.256
 3781W        W 7981   6.691   3.139   2.330
 3782W        W 7982   0.808  11.251   9.486
 3783W        W 7983   0.268   7.465   8.780
 3784W        W 7984   8.037   1.916   2.417
 3785W        W 7985   9.797   7.896   0.479
 3786W        W 7986   9.830   6.014   9.382
 3787W        W 7987   3.346   3.318  11.566
 3788W        W 7988   5.633   0.905   2.727
 3789W        W 7989  11.033  10.033   3.088
 3790W        W 7990   2.146   8.282   8.724
 3791W        W 7991   8.594  10.094   9.379
 3792W        W 7992   1.819   5.979   9.093
 3793W        W 7993  11.255   7.494   2.155
 3794W        W 7994  10.084   5.352   1.515
 3795W        W 7995   7.956   8.173   9.704
 3796W        W 7996   8.034   1.919   8.925
 3797W        W 7997   9.839   0.906   2.532
 3798W        W 7998   5.698   9.887   0.446
 3799W        W 7999  10.786   2.727  11.277
 3800W        W 8000   9.780   1.536  11.793
 3801W        W 8001   9.000   2.978  11.093
 3802W        W 8002   3.394   5.675   0.575
 3803W        W 8003   0.683   1.194   9.062
 3804W        W 8004   2.558   2.235  10.436
 3805W        W 8005   1.837   3.592   1.305
 3806W        W 8006   3.635   7.867   9.575
 3807W        W 8007   7.900   7.397  10.819
 3808W        W 8008   5.229   3.499  10.529
 3809W        W 8009   4.721  10.035  10.540
 3810W        W 8010   7.952   3.794   9.088
 3811W        W 8011   3.642   8.582   1.222
 3812W        W 8012   6.643   7.424   2.293
 3813W        W 8013   7.587   7.550  11.215
 3814W        W 8014   3.144  10.455  10.361
 3815W        W 8015   0.631   2.789   1.242
 3816W        W 8016   9.800   2.371  10.403
 3817W        W 8017   8.487   9.370  11.137
 3818W        W 8018   8.496  10.571   9.513
 3819W        W 8019   4.454  11.344  10.125
 3820W        W 8020  11.212   9.152  11.537
 3821W        W 8021   1.611   9.414   3.512
 3822W        W 8022   8.102   5.460   8.224
 3823W        W 8023   2.021   8.883   9.547
 3824W        W 8024   8.751   5.317   3.353
 3825W        W 8025   8.429   8.178   1.805
 3826W        W 8026  10.956   1.219   9.671
 3827W        W 8027   9.113   8.092   2.420
 3828W        W 8028   3.950   9.944   1.796
 3829W        W 8029   8.184   5.486   9.490
 3830W        W 8030  10.684   2.270   1.894
 3831W        W 8031   7.384   4.471   1.216
 3832W        W 8032   9.456   6.971  10.822
 3833W        W 8033   0.460   6.877   2.576
 3834W        W 8034  10.370   6.558   0.481
 3835W        W 8035   1.778   4.109  11.834
 3836W        W 8036   4.660   4.095  10.896
 3837W        W 8037   0.552   4.927   3.638
 3838W        W 8038   1.791  10.222   1.404
 3839W        W 8039   7.223  11.423   0.342
 3840W        W 8040   6.304   6.994  10.064
 3841W        W 8041  10.001   9.752   8.788
 3842W        W 8042   2.441  10.524   1.718
 3843W        W 8043   8.923   2.968   0.169
 3844W        W 8044   9.455   0.439   9.325
 3845W        W 8045  10.283   1.293   1.987
 3846W        W 8046   0.804   3.471  10.840
 3847W        W 8047   6.949   1.551   2.604
 3848W        W 8048   8.438  10.505  11.586
 3849W        W 8049  10.995  10.325  10.856
 3850W        W 8050   9.501   1.933  11.965
 3851W        W 8051   3.514   3.344   2.345
 3852W        W 8052  10.005   0.357   0.366
 3853W        W 8053   3.819   8.976  11.974
 3854W        W 8054   9.009  10.352   1.362
 3855W        W 8055   3.758   0.232   0.293
 3856W        W 8056   2.307   1.420  10.033
 3857W        W 8057   9.432   3.626  10.334
 3858W        W 8058   6.995   9.471   9.573
 3859W        W 8059   8.583   5.112   4.110
 3860W        W 8060  10.141   0.804   1.479
 3861W        W 8061   1.429   1.427   2.730
 3862W        W 8062   0.803   9.391   1.501
 3863W        W 8063   7.283  10.951   0.696
 3864W        W 8064   6.479   2.350   2.750
 3865W        W 8065   9.587   1.816   3.005
 3866W        W 8066   4.975   3.387   1.928
 3867W        W 8067   2.474   1.368  11.643
 3868W        W 8068   7.199   3.472   2.202
 3869W        W 8069   8.496  10.955   9.168
 3870W        W 8070  10.419  10.949  10.579
 3871W        W 8071   9.810   3.568   1.826
 3872W        W 8072  11.432   6.676   8.891
 3873W        W 8073   0.331   9.560   3.639
 3874W        W 8074   3.547   5.420   1.371
 3875W        W 8075   6.011   1.874   9.336
 3876W        W 8076   4.715   4.303   0.918
 3877W        W 8077   6.048   1.737   0.523
 3878W        W 8078   3.126   3.454   9.156
 3879W        W 8079   6.073   7.451  10.781
 3880W        W 8080   4.480   8.897  10.579
 3881W        W 8081  10.961   9.418   0.499
 3882W        W 8082   5.127   4.684   0.698
 3883W        W 8083   4.481   8.705   9.009
 3884W        W 8084   5.773   1.862   3.153
 3885W        W 8085  10.333  10.137  11.454
 3886W        W 8086   5.740   4.374   9.423
 3887W        W 8087   9.520   7.379   9.023
 3888W        W 8088   4.765   0.693  10.771
 3889W        W 8089   4.297   4.254   9.581
 3890W        W 8090   7.214   1.837   2.972
 3891W        W 8091   1.314  10.452  11.511
 3892W        W 8092   4.456   1.258   1.281
 3893W        W 8093   4.790   3.628   9.598
 3894W        W 8094   3.374   7.156   3.264
 3895W        W 8095   9.077  10.746  11.720
 3896W        W 8096  11.263   5.802  11.356
 3897W        W 8097   4.793  10.642   0.859
 3898W        W 8098  11.320   0.157   0.189
 3899W        W 8099   4.188   9.863   9.749
 3900W        W 8100   3.531   7.975   2.672
 3901W        W 8101   3.146   9.916  11.983
 3902W        W 8102   2.687   9.077   9.941
 3903W        W 8103   9.445   9.292  10.749
 3904W        W 8104   5.525   4.688   0.175
 3905W        W 8105   8.469   0.506  11.973
 3906W        W 8106  10.843  11.283  11.340
 3907W        W 8107   8.852   5.863  11.463
 3908W        W 8108   9.549   3.629  10.858
 3909W        W 8109   6.351   5.226   2.730
 3910W        W 8110   5.232  10.130   9.454
 3911W        W 8111   0.478   3.314   0.882
 3912W        W 8112  11.401   1.338   3.116
 3913W        W 8113   8.360   1.250  10.544
 3914W        W 8114   4.916  10.860  11.778
 3915W        W 8115   1.770   0.183   9.158
 3916W        W 8116   4.618   8.428  10.737
 3917W        W 8117   5.600  11.279  10.785
 3918W        W 8118   8.551   1.769   2.569
 3919W        W 8119   6.380   7.309   0.935
 3920W        W 8120   0.278   9.003   8.802
 3921W        W 8121  10.495   2.261   2.367
 3922W        W 8122   4.188   9.473   2.017
 3923W        W 8123  10.336   8.501   2.582
 3924W        W 8124  11.325   3.815   9.946
 3925W        W 8125   7.146   0.338  11.576
 3926W        W 8126   2.260   5.765   1.967
 3927W        W 8127   0.448   3.657   1.940
 3928W        W 8128   8.050   2.228   1.244
 3929W        W 8129   7.253   7.823   9.966
 3930W        W 8130   2.727   8.068   2.317
 3931W        W 8131   7.406   5.235   2.265
 3932W        W 8132   8.398   6.432   3.586
 3933W        W 8133   7.659   5.087   2.701
 3934W        W 8134   9.675  10.310   2.025
 3935W        W 8135   6.011   7.820   1.828
 3936W        W 8136  10.469   0.007  10.793
 3937W        W 8137   5.664   1.714  11.185
 3938W        W 8138   7.196   5.188   1.558
 3939W        W 8139   8.565   1.839  11.729
 3940W        W 8140   3.284   2.705   1.848
 3941W        W 8141   0.514   4.332  10.340
 3942W        W 8142   1.195  11.036   1.516
 3943W        W 8143   3.893   4.106   0.356
 3944W        W 8144   9.472   4.790   8.350
 3945W        W 8145   9.037   4.756  11.038
 3946W        W 8146   7.654   1.043   2.506
 3947W        W 8147   4.572  10.817   8.553
 3948W        W 8148   7.184   8.408   0.909
 3949W        W 8149   7.623   8.421   3.223
 3950W        W 8150   5.407   7.770   3.038
 3951W        W 8151   6.283  11.331  11.409
 3952W        W 8152   3.783   2.804   1.676
 3953W        W 8153   7.527   3.103  11.843
 3954W        W 8154   3.260   1.844   1.404
 3955W        W 8155   7.932   3.169   1.634
 3956W        W 8156   1.970   9.465  10.454
 3957W        W 8157   1.020   5.575  10.970
 3958W        W 8158   9.312   2.884   2.092
 3959W        W 8159   2.735   7.568   3.155
 3960W        W 8160   8.455   4.296   0.021
 3961W        W 8161   7.130   7.339   1.617
 3962W        W 8162   7.131   4.568   3.637
 3963W        W 8163   6.658   3.082   1.814
 3964W        W 8164   4.188   3.843   2.865
 3965W        W 8165   4.261   8.848  10.099
 3966W        W 8166   7.878   4.446  11.714
 3967W        W 8167   2.181   7.419  10.860
 3968W        W 8168   9.512   4.616  11.935
 3969W        W 8169   2.139   6.169   2.906
 3970W        W 8170   1.377   8.707  10.623
 3971W        W 8171   8.317   5.074   9.167
 3972W        W 8172   4.814  10.416   1.325
 3973W        W 8173   6.062   3.207   9.880
 3974W        W 8174   9.059   5.609   1.620
 3975W        W 8175   8.456   7.115   1.853
 3976W        W 8176   9.043   4.714   0.351
 3977W        W 8177   5.863   2.633  10.474
 3978W        W 8178   2.069   5.655   2.958
 3979W        W 8179   1.764   8.796  11.820
 3980W        W 8180  11.441   9.024   0.455
 3981W        W 8181   0.723   7.703   2.964
 3982W        W 8182   5.144   9.953   9.931
 3983W        W 8183   8.636   9.299  10.123
 3984W        W 8184   4.785   0.732   9.011
 3985W        W 8185   7.714   2.179   9.239
 3986W        W 8186   4.840   0.814   0.618
 3987W        W 8187   7.646  11.189  11.061
 3988W        W 8188   2.367   3.816   2.188
 3989W        W 8189   8.107   7.205   1.189
 3990W        W 8190   6.736   4.963   0.592
 3991W        W 8191   6.640  10.926   2.759
 3992W        W 8192   1.328   3.807   2.462
 3993W        W 8193   0.718   5.725   0.664
 3994W        W 8194   4.692   1.721   8.923
 3995W        W 8195   8.981   9.613   2.601
 3996W        W 8196   2.028   0.496  10.524
 3997W        W 8197   6.565   1.268   9.084
 3998W        W 8198   6.141   6.936  11.985
 3999W        W 8199   8.926   7.747   0.441
 4000W        W 8200   5.275   8.039   0.042
 4001W        W 8201   2.174   0.884   1.199
 4002W        W 8202   9.478   4.597   3.296
 4003W        W 8203  10.429   0.525   9.742
 4004W        W 8204   7.475   9.286   2.386
 4005W        W 8205  11.257   1.758   1.252
 4006W        W 8206   7.623   8.470  10.997
 4007W        W 8207   1.928  10.800   2.258
 4008W        W 8208   4.304   9.502   3.041
 4009W        W 8209   4.211   2.789   2.827
 4010W        W 8210   9.629   6.001   2.368
 4011W        W 8211   7.967   3.752   9.943
 4012W        W 8212   3.338   5.412   1.897
 4013W        W 8213   4.644   4.380   2.144
 4014W        W 8214   5.918   4.042   3.058
 4015W        W 8215   7.152  10.937   2.784
 4016W        W 8216   9.317   4.613   1.352
 4017W        W 8217   2.646   7.602  10.715
 4018W        W 8218  10.728   2.189  10.610
 4019W        W 8219   1.315   2.275   0.454
 4020W        W 8220   6.112   6.428   0.951
 4021W        W 8221   3.371   1.417   3.323
 4022W        W 8222   6.652   6.994   3.959
 4023W        W 8223   5.703   8.212  10.351
 4024W        W 8224   1.331   5.139   3.330
 4025W        W 8225   2.895   9.275   8.760
 4026W        W 8226   8.233   5.657   3.327
 4027W        W 8227   0.349   2.839   3.356
 4028W        W 8228   2.928   0.637   1.713
 4029W        W 8229   5.695  10.830   8.566
 4030W        W 8230   5.946   1.302  11.304
 4031W        W 8231   6.441   6.144   1.774
 4032W        W 8232   1.268   0.812   8.857
 4033W        W 8233   9.520   4.165   0.853
 4034W        W 8234   3.879   6.904   2.407
 4035W        W 8235   4.320   8.523   9.485
 4036W        W 8236   4.607   8.044   0.493
 4037W        W 8237   3.001   5.108   0.047
 4038W        W 8238   9.389   1.421   9.063
 4039W        W 8239   6.896  10.582   0.505
 4040W        W 8240   5.648   1.140   1.685
 4041W        W 8241  11.323   6.635   1.780
 4042W        W 8242   4.026  10.727   3.527
 4043W        W 8243   3.709   0.266  11.789
 4044W        W 8244   4.038   8.506   0.016
 4045W        W 8245   2.489   0.568   9.652
 4046W        W 8246   2.752  11.392   9.030
 4047W        W 8247   1.784   3.612  11.204
 4048W        W 8248   3.658   6.401   8.608
 4049W        W 8249   1.187   1.878   1.532
 4050W        W 8250  11.300   7.491  10.047
 4051W        W 8251   6.743   7.868   8.275
 4052W        W 8252   0.432  11.240  10.725
 4053W        W 8253   8.776   7.587  11.967
 4054W        W 8254   5.528   3.027  10.685
 4055W        W 8255   6.649   1.876  10.858
 4056W        W 8256  11.268   5.138   9.253
 4057W        W 8257   8.104   9.333  11.968
 4058W        W 8258   7.439   0.530   9.483
 4059W        W 8259   3.243   4.628   0.930
 4060W        W 8260   7.674   9.987   9.534
 4061W        W 8261   4.020   8.471   9.071
 4062W        W 8262   1.745  11.178   0.491
 4063W        W 8263   9.446  11.081   8.730
 4064W        W 8264   0.544   6.202   1.885
 4065W        W 8265   5.027   3.829   1.688
 4066W        W 8266   5.537   5.199  11.856
 4067W        W 8267   2.089   8.390  11.737
 4068W        W 8268   2.359   3.410   8.641
 4069W        W 8269  10.789   5.514  10.465
 4070W        W 8270   3.992   0.939   9.519
 4071W        W 8271   7.625   3.753   1.658
 4072W        W 8272   4.732   9.123  10.194
 4073W        W 8273  10.810   3.906   0.071
 4074W        W 8274   7.947  11.185  11.884
 4075W        W 8275   5.630   0.228  10.487
 4076W        W 8276   3.065   5.123   9.182
 4077W        W 8277   6.761  10.631   0.014
 4078W        W 8278   2.204   9.712  11.757
 4079W        W 8279   4.024   3.174   2.360
 4080W        W 8280   3.246   6.354   3.972
 4081W        W 8281   7.468   0.114   2.568
 4082W        W 8282   3.084  10.003  10.562
 4083W        W 8283   2.902  10.663   1.908
 4084W        W 8284   6.869   2.004   8.435
 4085W        W 8285   8.462   7.495  11.510
 4086W        W 8286   9.521   4.569   8.807
 4087W        W 8287   6.312   8.040  11.381
 4088W        W 8288   1.034   6.266   1.960
 4089W        W 8289  11.009   1.833  11.415
 4090W        W 8290   2.657   7.478   9.391
 4091W        W 8291   8.314   7.761  11.960
 4092W        W 8292   9.532   4.900   0.346
 4093W        W 8293   0.054   2.899  10.826
 4094W        W 8294   6.727  10.286  10.594
 4095W        W 8295   3.772   3.875   8.590
 4096W        W 8296   5.766   8.844   9.478
 4097W        W 8297   3.528   5.335   3.242
 4098W        W 8298   6.626   6.814  11.202
 4099W        W 8299   0.565   9.482   0.759
 4100W        W 8300   3.688   1.738   3.057
 4101W        W 8301   0.554   3.833   0.002
 4102W        W 8302   9.771   1.936  10.851
 4103W        W 8303   5.687   2.165   0.091
 4104W        W 8304   6.484   6.694   2.820
 4105W        W 8305   2.321   4.813  11.875
 4106W        W 8306   0.782   8.460   1.763
 4107W        W 8307  11.080  10.590  11.806
 4108W        W 8308   5.008   4.717   9.845
 4109W        W 8309   2.982   0.777   8.573
 4110W        W 8310   4.487   4.847   9.823
 4111W        W 8311   0.559   7.447   3.736
 4112W        W 8312  10.878   9.529   0.977
 4113W        W 8313   9.826   9.505  11.012
 4114W        W 8314   4.038   0.070   3.182
 4115W        W 8315   9.628   5.948  10.466
 4116W        W 8316   1.957   0.811   1.674
 4117W        W 8317  11.238   2.775   2.398
 4118W        W 8318   3.168   6.668   3.135
 4119W        W 8319   9.938   7.662  10.129
 4120W        W 8320   6.954  11.213   8.669
 4121W        W 8321   2.188   1.369   0.997
 4122W        W 8322   5.264   0.975   1.365
 4123W        W 8323   0.408  10.562   1.398
 4124W        W 8324   8.471   6.177   8.677
 4125W        W 8325  10.833  10.313   8.968
 4126W        W 8326   1.709   8.529   9.336
 4127W        W 8327  10.856   7.875   0.468
 4128W        W 8328   0.049   6.207   1.954
 4129W        W 8329  11.436   7.625   9.576
 4130W        W 8330  10.007   8.497  11.221
 4131W        W 8331  11.356   4.103  11.244
 4132W        W 8332   0.020  10.106   2.878
 4133W        W 8333   6.032   3.765  10.989
 4134W        W 8334   9.818   4.107  10.896
 4135W        W 8335  10.994   6.828  10.612
 4136W        W 8336   2.435  10.502   9.180
 4137W        W 8337   4.336   4.314   0.146
 4138W        W 8338   2.773   0.741  10.986
 4139W        W 8339   6.567   1.256   2.847
 4140W        W 8340   9.456   4.076   8.568
 4141W        W 8341   6.752   2.718   3.154
 4142W        W 8342   6.590  11.047   9.838
 4143W        W 8343   8.811  11.055   0.826
 4144W        W 8344   0.162   2.648  11.528
 4145W        W 8345   6.809   0.821   0.273
 4146W        W 8346   0.324   4.362  11.278
 4147W        W 8347   1.072   4.954   1.800
 4148W        W 8348   6.710  10.336  11.605
 4149W        W 8349   4.024   4.610   0.399
 4150W        W 8350   0.972   3.327   8.864
 4151W        W 8351   0.872  10.837   0.681
 4152W        W 8352   8.200   6.639   1.854
 4153W        W 8353   1.767   9.854   1.044
 4154W        W 8354   7.727   9.578   0.790
 4155W        W 8355  10.092   1.754   0.629
 4156W        W 8356   7.603   4.005   1.154
 4157W        W 8357   9.521   6.220   0.036
 4158W        W 8358   2.830  10.835   9.116
 4159W        W 8359   1.648   4.324  11.314
 4160W        W 8360   7.039   3.222   3.295
 4161W        W 8361   3.685   6.096   2.839
 4162W        W 8362   9.401  11.211   3.312
 4163W        W 8363  10.711   7.105   9.491
 4164W        W 8364   8.140  10.972  10.908
 4165W        W 8365   5.679   7.762   3.508
 4166W        W 8366   2.893   6.453   3.601
 4167W        W 8367  10.512   6.152   0.172
 4168W        W 8368   2.676   3.439   2.003
 4169W        W 8369   6.580   1.866  11.388
 4170W        W 8370  11.269   8.931  10.615
 4171W        W 8371   8.767   6.983   9.059
 4172W        W 8372  10.672  10.348   2.135
 4173W        W 8373  10.009   8.997   3.276
 4174W        W 8374   2.783   6.131  10.850
 4175W        W 8375   9.833   1.066  11.604
 4176W        W 8376   9.584  10.590   8.556
 4177W        W 8377   9.125  10.388   0.878
 4178W        W 8378  10.409   2.162   1.460
 4179W        W 8379   3.507   1.504  11.218
 4180W        W 8380   5.617   1.364   2.486
 4181W        W 8381   4.059   0.682   2.389
 4182W        W 8382  10.815   4.169   8.590
 4183W        W 8383   7.648  10.702  11.905
 4184W        W 8384   7.738   9.029   0.128
 4185W        W 8385  10.658  10.199   8.512
 4186W        W 8386   6.044   4.292  10.964
 4187W        W 8387   8.920   2.745   3.337
 4188W        W 8388   9.853   8.588   2.471
 4189W        W 8389   3.136   3.727  10.867
 4190W        W 8390   2.376   4.641   8.311
 4191W        W 8391   1.898   7.055  11.147
 4192W        W 8392   2.034   1.295   2.326
 4193W        W 8393   2.780   0.464  11.398
 4194W        W 8394   9.950  11.058   1.833
 4195W        W 8395   1.799  10.250  10.211
 4196W        W 8396   9.597   8.583   1.488
 4197W        W 8397  10.689  10.303   9.986
 4198W        W 8398   9.449   7.033   3.304
 4199W        W 8399   5.556   5.270  10.461
 4200W        W 8400   5.707   7.694   8.393
 4201W        W 8401  11.430   6.759  11.425
 4202W        W 8402   9.744   8.294   0.186
 4203W        W 8403   3.766  11.486  11.355
 4204W        W 8404  10.316   8.178  10.585
 4205W        W 8405  10.804   0.952   0.774
 4206W        W 8406   0.806   7.431  10.456
 4207W        W 8407   8.172   6.552   8.457
 4208W        W 8408  10.880   5.176   0.838
 4209W        W 8409   7.608   2.571  10.975
 4210W        W 8410   4.653   7.509  10.831
 4211W        W 8411  10.364   6.434  10.504
 4212W        W 8412   6.062   0.357  10.763
 4213W        W 8413   3.987  11.318   2.671
 4214W        W 8414   2.831   4.533   2.494
 4215W        W 8415   5.010  11.190   8.847
 4216W        W 8416   1.658  11.233   1.412
 4217W        W 8417   2.925   6.040   2.457
 4218W        W 8418   9.885   1.654   2.027
 4219W        W 8419   4.722   1.243   9.127
 4220W        W 8420   4.228   2.769   0.958
 4221W        W 8421   6.607   0.306   2.507
 4222W        W 8422   7.453   0.726   8.710
 4223W        W 8423   7.890   8.271   3.619
 4224W        W 8424   9.446   0.083   2.415
 4225W        W 8425   6.737   5.672   1.017
 4226W        W 8426   9.622   3.435   0.384
 4227W        W 8427  10.865   2.611   2.730
 4228W        W 8428   2.684   9.824   2.168
 4229W        W 8429   8.018   9.387  11.420
 4230W        W 8430   8.269  10.013   3.422
 4231W        W 8431  10.017   3.132   9.262
 4232W        W 8432   4.887   0.033   2.063
 4233W        W 8433   0.013   8.065   0.880
 4234W        W 8434   8.832   6.909   0.968
 4235W        W 8435   3.697   4.462   3.562
 4236W        W 8436  10.422   2.269   9.003
 4237W        W 8437   2.856   7.799  11.200
 4238W        W 8438   3.684   8.437  10.285
 4239W        W 8439   9.116   4.165   1.210
 4240W        W 8440   1.712   5.721   1.642
 4241W        W 8441   8.267   8.389   9.342
 4242W        W 8442  10.903   1.846   0.292
 4243W        W 8443   9.524   7.885   9.898
 4244W        W 8444   7.808   6.103   1.519
 4245W        W 8445   9.719   7.200   1.457
 4246W        W 8446   1.224   4.953   0.944
 4247W        W 8447  10.812   4.986   9.051
 4248W        W 8448   5.084   7.090   2.079
 4249W        W 8449   4.008  10.954   1.295
 4250W        W 8450   4.342   9.619  10.582
 4251W        W 8451  11.154   4.231  10.802
 4252W        W 8452   9.136   0.831   0.343
 4253W        W 8453   0.966   3.126  10.454
 4254W        W 8454   6.828   6.218  11.379
 4255W        W 8455   4.318   1.087   2.557
 4256W        W 8456   8.077   1.163  11.645
 4257W        W 8457   8.362   6.099  11.462
 4258W        W 8458   0.937  10.428   0.384
 4259W        W 8459   0.361   4.689   8.490
 4260W        W 8460   3.886   8.847   8.732
 4261W        W 8461   5.359   9.906   1.708
 4262W        W 8462   0.846   8.173   0.904
 4263W        W 8463   3.478   1.348   2.063
 4264W        W 8464   9.112   1.364   0.457
 4265W        W 8465   8.438   4.306   1.951
 4266W        W 8466  10.268   9.568   9.222
 4267W        W 8467   0.997   8.492   9.803
 4268W        W 8468   7.257   2.326   2.862
 4269W        W 8469   9.440   4.406   0.412
 4270W        W 8470  10.419   6.674  11.482
 4271W        W 8471   2.912   9.056   3.311
 4272W        W 8472   6.084   4.784   2.656
 4273W        W 8473   5.337   3.113   9.364
 4274W        W 8474   0.808   0.149   9.116
 4275W        W 8475   7.230   1.927  10.398
 4276W        W 8476   1.441   7.174   9.055
 4277W        W 8477   4.198   7.427  11.421
 4278W        W 8478  10.975   5.728   2.288
 4279W        W 8479   9.185   9.810   0.097
 4280W        W 8480   7.997   4.067   0.072
 4281W        W 8481  11.051   8.057   1.663
 4282W        W 8482  10.995   5.227   2.990
 4283W        W 8483   1.358   6.598  11.862
 4284W        W 8484   7.931   4.317   9.067
 4285W        W 8485   0.281   8.516   2.475
 4286W        W 8486   0.307   1.830  11.101
 4287W        W 8487   8.867   0.963   0.782
 4288W        W 8488   6.298   2.154   2.282
 4289W        W 8489  10.192   1.033   2.884
 4290W        W 8490   0.063   3.820   9.501
 4291W        W 8491   7.892   7.774   3.735
 4292W        W 8492   9.538   9.057   2.263
 4293W        W 8493  11.242   6.989   2.183
 4294W        W 8494   7.096  10.370   1.950
 4295W        W 8495   7.122  10.127   0.548
 4296W        W 8496   0.937   7.975   1.982
 4297W        W 8497   4.253   8.453   8.616
 4298W        W 8498  10.262   8.988   2.737
 4299W        W 8499   2.404   9.056   3.307
 4300W        W 8500   0.466   0.298   3.588
 4301W        W 8501   8.252   3.243   3.556
 4302W        W 8502   4.073   7.181   1.018
 4303W        W 8503   4.725   6.029   3.519
 4304W        W 8504  10.773   8.670   2.770
 4305W        W 8505   8.176   9.517  10.009
 4306W        W 8506   3.133   6.548   2.187
 4307W        W 8507   0.283   6.490   0.018
 4308W        W 8508   1.675   1.422   0.930
 4309W        W 8509   2.724   8.537   0.934
 4310W        W 8510   7.680   5.130  10.248
 4311W        W 8511   8.156   7.675   2.641
 4312W        W 8512   4.639   0.292  11.489
 4313W        W 8513   6.547   6.224  11.921
 4314W        W 8514   7.052   1.196  10.533
 4315W        W 8515  10.934   1.139   2.702
 4316W        W 8516   0.631   4.682   9.442
 4317W        W 8517   9.518  10.951  11.542
 4318W        W 8518   9.470   9.860   1.869
 4319W        W 8519   9.055   3.632   9.877
 4320W        W 8520   9.969   4.745   2.824
 4321W        W 8521   3.828   5.962   9.524
 4322W        W 8522   8.961   8.993   8.895
 4323W        W 8523   6.814   2.205   3.085
 4324W        W 8524   7.707   6.199   0.464
 4325W        W 8525   4.559   3.437  11.927
 4326W        W 8526   6.473   3.180   3.204
 4327W        W 8527   4.500   2.060   3.565
 4328W        W 8528   7.525   1.890   1.410
 4329W        W 8529   9.827   3.561   2.658
 4330W        W 8530  11.163   9.496   1.993
 4331W        W 8531   9.145   8.563   9.881
 4332W        W 8532   4.527  10.231   0.190
 4333W        W 8533   2.766   4.242   7.748
 4334W        W 8534   2.719  10.618  11.661
 4335W        W 8535  10.481   5.933  10.717
 4336W        W 8536   6.047   3.700   3.598
 4337W        W 8537   6.221   3.656   9.413
 4338W        W 8538   1.189   7.047  10.503
 4339W        W 8539   6.172   0.921  11.567
 4340W        W 8540   7.190  10.514  11.733
 4341W        W 8541   4.687   2.478   1.101
 4342W        W 8542   3.189  11.279  11.109
 4343W        W 8543  10.242   4.154   8.529
 4344W        W 8544   8.403  10.003  11.794
 4345W        W 8545   9.158   3.136  10.222
 4346W        W 8546   6.481   9.840   3.398
 4347W        W 8547   6.115  10.363   3.485
 4348W        W 8548   1.262   5.330   2.867
 4349W        W 8549   9.355   4.742  11.462
 4350W        W 8550   1.752   2.554   0.476
 4351W        W 8551   8.918   4.279  10.885
 4352W        W 8552   2.739   0.260   2.032
 4353W        W 8553   0.710   8.666   2.237
 4354W        W 8554   4.440   0.829   0.290
 4355W        W 8555  10.366   7.929  10.154
 4356W        W 8556   6.983  11.303  10.020
 4357W        W 8557   6.692   0.155  11.473
 4358W        W 8558  10.011   8.385  11.722
 4359W        W 8559   4.070   8.843   0.411
 4360W        W 8560  10.920   6.556   1.188
 4361W        W 8561   8.873   0.518   8.441
 4362W        W 8562   5.038   3.236   9.768
 4363W        W 8563   1.145  10.539   9.121
 4364W        W 8564   3.893  10.354   0.892
 4365W        W 8565   2.988   3.158  11.904
 4366W        W 8566   5.941   6.630   8.964
 4367W        W 8567   8.752   6.848   8.189
 4368W        W 8568   9.846   1.390   9.294
 4369W        W 8569  11.369  10.368   3.365
 4370W        W 8570   2.401   2.001  11.943
 4371W        W 8571   6.138  10.035   9.436
 4372W        W 8572  10.270   2.626   1.291
 4373W        W 8573   5.241   2.587   3.133
 4374W        W 8574   7.608   3.406  11.435
 4375W        W 8575   4.068   7.050  10.431
 4376W        W 8576   4.521   6.648  11.950
 4377W        W 8577   3.827   2.212   2.436
 4378W        W 8578   3.167   1.035   3.024
 4379W        W 8579   6.155   9.038  11.547
 4380W        W 8580   0.732   0.974   3.170
 4381W        W 8581   8.313   6.045   9.134
 4382W        W 8582   2.810  10.381   2.801
 4383W        W 8583   8.134   3.290   9.151
 4384W        W 8584  11.294   9.588   2.956
 4385W        W 8585  11.385   8.467   1.157
 4386W        W 8586   4.414   0.074   1.896
 4387W        W 8587   8.174   7.384   3.078
 4388W        W 8588  11.438   3.208   2.649
 4389W        W 8589   4.810   2.584  10.973
 4390W        W 8590  10.313   7.619   3.228
 4391W        W 8591   9.391   2.673  10.385
 4392W        W 8592  10.961   7.115   1.776
 4393W        W 8593   9.289   8.835   1.847
 4394W        W 8594   0.909   4.085   3.175
 4395W        W 8595   6.066   2.262  11.137
 4396W        W 8596   7.861  10.817   1.075
 4397W        W 8597   7.212  11.353  11.396
 4398W        W 8598   3.098   4.075  10.114
 4399W        W 8599   7.533   7.086  10.985
 4400W        W 8600   9.884   0.009   1.625
 4401W        W 8601  11.410   5.036  11.600
 4402W        W 8602   9.559   6.182   3.872
 4403W        W 8603   3.702   6.780  11.920
 4404W        W 8604  10.924  10.787   2.176
 4405W        W 8605   9.947   6.698   9.832
 4406W        W 8606   4.689   9.415   1.671
 4407W        W 8607   0.575   6.026  10.330
 4408W        W 8608   4.581   2.524   0.260
 4409W        W 8609   4.962   0.379   3.410
 4410W        W 8610   7.739   4.540   9.512
 4411W        W 8611   3.124   1.292   1.062
 4412W        W 8612   8.473   2.216   8.950
 4413W        W 8613   0.810   2.854   0.156
 4414W        W 8614   4.362   9.034   2.818
 4415W        W 8615   7.992   2.850   3.314
 4416W        W 8616   0.355   3.127   1.938
 4417W        W 8617   3.469   6.750   3.566
 4418W        W 8618   0.174   2.581   9.541
 4419W        W 8619   8.926   2.468   9.029
 4420W        W 8620   9.214   8.344   1.833
 4421W        W 8621   9.818   9.935  10.706
 4422W        W 8622  10.338   8.991  10.435
 4423W        W 8623   6.467   8.032   3.687
 4424W        W 8624   5.598   3.347   0.611
 4425W        W 8625   9.952   4.374   3.182
 4426W        W 8626  11.020   3.608   2.242
 4427W        W 8627  10.873   1.973   9.631
 4428W        W 8628   3.457   7.681   1.294
 4429W        W 8629   3.266   1.974  11.736
 4430W        W 8630   9.003   6.124  11.880
 4431W        W 8631   0.681   1.228   2.031
 4432W        W 8632   3.796   9.481   1.697
 4433W        W 8633   5.756   1.364   2.980
 4434W        W 8634  10.720   2.727   2.226
 4435W        W 8635   8.799   8.979   2.889
 4436W        W 8636   1.167   1.548   8.473
 4437W        W 8637  10.285  10.981   9.082
 4438W        W 8638   6.589   0.015   3.449
 4439W        W 8639   1.441   4.837   9.199
 4440W        W 8640   4.597  11.358   8.572
 4441W        W 8641   9.805   3.616   0.848
 4442W        W 8642   2.791   2.454   1.819
 4443W        W 8643   6.810   6.315   9.274
 4444W        W 8644   2.345   8.417  11.266
 4445W        W 8645   3.190   0.056   0.918
 4446W        W 8646   3.063   3.741  11.732
 4447W        W 8647   7.617   0.413   2.151
 4448W        W 8648   0.240   2.843   2.419
 4449W        W 8649   5.136   8.187   2.430
 4450W        W 8650  11.341   0.482   9.077
 4451W        W 8651   1.321   1.836   2.170
 4452W        W 8652   1.201   3.182   9.305
 4453W        W 8653   9.971   4.353   0.408
 4454W        W 8654   9.445   1.568   1.779
 4455W        W 8655   2.610   8.321   0.469
 4456W        W 8656   9.797  10.577   9.934
 4457W        W 8657   1.299   3.311   0.712
 4458W        W 8658   1.639   1.401   3.497
 4459W        W 8659   1.951   9.864   9.311
 4460W        W 8660   2.352   5.829  10.894
 4461W        W 8661   1.060   5.005   9.562
 4462W        W 8662   7.560   3.146   9.189
 4463W        W 8663   0.073   5.949  10.372
 4464W        W 8664   9.250   4.578  10.590
 4465W        W 8665   3.072   0.631   3.296
 4466W        W 8666   9.258   1.191  10.985
 4467W        W 8667  10.402   6.765   2.396
 4468W        W 8668   8.987   1.195   1.272
 4469W        W 8669   4.760   1.715  11.188
 4470W        W 8670   9.412   6.353  10.096
 4471W        W 8671   1.884   3.691   3.297
 4472W        W 8672   9.498   4.992   9.550
 4473W        W 8673  10.921   4.402  11.305
 4474W        W 8674   6.107   9.231   1.536
 4475W        W 8675   4.438   7.792   9.347
 4476W        W 8676   7.031   8.938   9.038
 4477W        W 8677   8.213   0.851  10.259
 4478W        W 8678   8.641   6.658   8.660
 4479W        W 8679   2.887   9.361   2.080
 4480W        W 8680   6.038   6.819   2.617
 4481W        W 8681   3.409   6.227   9.705
 4482W        W 8682   6.773   9.361   0.110
 4483W        W 8683   7.060   3.227  11.614
 4484W        W 8684   1.514   6.096  11.733
 4485W        W 8685   1.168   8.330   3.340
 4486W        W 8686   8.920   6.614   0.018
 4487W        W 8687   3.185   6.101   8.803
 4488W        W 8688   8.043   2.822  10.811
 4489W        W 8689  11.359  10.829   9.167
 4490W        W 8690   1.313   2.218   9.531
 4491W        W 8691   2.547   6.821   3.616
 4492W        W 8692   2.279   3.355   9.143
 4493W        W 8693   0.926   1.663   1.905
 4494W        W 8694   4.061   5.089  11.536
 4495W        W 8695   3.769   0.809  10.011
 4496W        W 8696  10.953   3.969   9.642
 4497W        W 8697   5.691   0.141   9.972
 4498W        W 8698   8.631   1.763   9.852
 4499W        W 8699   7.472   1.866   1.953
 4500W        W 8700  10.783   4.307   3.269
 4501W        W 8701   0.974   2.814   8.954
 4502W        W 8702   4.776   8.039   1.487
 4503W        W 8703   9.102   1.252   2.144
 4504W        W 8704   9.954   5.084  10.799
 4505W        W 8705   5.911   4.107   1.306
 4506W        W 8706   2.136   8.443   0.262
 4507W        W 8707   8.801   3.054   9.800
 4508W        W 8708  10.851   1.862   2.205
 4509W        W 8709   4.280   4.700  10.273
 4510W        W 8710   5.532   5.463  10.945
 4511W        W 8711   1.762   4.189   3.225
 4512W        W 8712   0.464   2.662  11.039
 4513W        W 8713   4.351   0.883   0.844
 4514W        W 8714   4.507  10.573  11.833
 4515W        W 8715  10.384   0.020  11.309
 4516W        W 8716   4.859   6.175   1.518
 4517W        W 8717   8.880   0.682   1.230
 4518W        W 8718  10.797   0.791  11.375
 4519W        W 8719   8.127   2.466   2.375
 4520W        W 8720   7.608  10.908   3.024
 4521W        W 8721   5.636   7.616  10.966
 4522W        W 8722   8.400   2.843   2.613
 4523W        W 8723   4.317   0.728   2.965
 4524W        W 8724   8.541   9.325   9.635
 4525W        W 8725   3.104   1.920  10.352
 4526W        W 8726   8.859   2.929   9.265
 4527W        W 8727   3.384   6.072   0.274
 4528W        W 8728   1.677   9.141   8.597
 4529W        W 8729   3.567   9.046  11.540
 4530W        W 8730   6.109   4.533   8.374
 4531W        W 8731   9.410   5.770   1.971
 4532W        W 8732   4.735  11.335   0.446
 4533W        W 8733   6.306   1.652  10.531
 4534W        W 8734   3.584   1.037  11.396
 4535W        W 8735   0.004   3.156  11.581
 4536W        W 8736   3.965   4.372   8.616
 4537W        W 8737   6.509   2.348   9.843
 4538W        W 8738   5.213   9.132   2.771
 4539W        W 8739   1.881   0.935  11.166
 4540W        W 8740   3.968   0.545   3.385
 4541W        W 8741   6.978   3.635   9.919
 4542W        W 8742   2.140   2.045   1.922
 4543W        W 8743   3.502   4.564   9.863
 4544W        W 8744   6.529   7.296  11.042
 4545W        W 8745   7.167   6.421   9.633
 4546W        W 8746   2.190   3.309  10.972
 4547W        W 8747   7.302   4.979   8.414
 4548W        W 8748   8.571   4.124  11.256
 4549W        W 8749  10.742   9.524  10.591
 4550W        W 8750   4.130   7.088  11.825
 4551W        W 8751   6.874   2.247  10.584
 4552W        W 8752  10.522   1.770  11.353
 4553W        W 8753   3.892   9.350   0.303
 4554W        W 8754   6.523   7.455  10.046
 4555W        W 8755   7.130   0.352   0.616
 4556W        W 8756   4.575   4.158   9.130
 4557W        W 8757   6.948   3.510   1.748
 4558W        W 8758   9.675   3.999   9.364
 4559W        W 8759   8.781  11.136   3.571
 4560W        W 8760   3.582   3.803   3.017
 4561W        W 8761   7.820   3.526   0.704
 4562W        W 8762   4.163   9.929   2.277
 4563W        W 8763   7.199   0.455  10.575
 4564W        W 8764   9.441   6.847   1.682
 4565W        W 8765   2.894   6.515   9.051
 4566W        W 8766   0.062   0.672   0.631
 4567W        W 8767   2.711  10.325   2.288
 4568W        W 8768   3.165   8.611   3.213
 4569W        W 8769   8.614   8.644   9.051
 4570W        W 8770  11.353   7.531  11.096
 4571W        W 8771   4.191   3.369  10.979
 4572W        W 8772   7.129   2.264   1.316
 4573W        W 8773   5.258   3.119   4.000
 4574W        W 8774   6.564   8.807   3.359
 4575W        W 8775   8.852   1.992   0.772
 4576W        W 8776  10.088   7.939  11.950
 4577W        W 8777  11.277   6.835   3.133
 4578W        W 8778   3.293   9.500   9.375
 4579W        W 8779   0.065   7.035   9.250
 4580W        W 8780   4.629  11.259  11.103
 4581W        W 8781   9.895   9.889   2.227
 4582W        W 8782  10.897   3.110  10.452
 4583W        W 8783  10.283  10.334   2.699
 4584W        W 8784   2.403   9.450   1.185
 4585W        W 8785   2.283   7.338   3.569
 4586W        W 8786  10.768   6.789   3.141
 4587W        W 8787  11.280   7.561   3.387
 4588W        W 8788   6.572   4.251  10.309
 4589W        W 8789   9.541   9.468   1.027
 4590W        W 8790   2.152   7.375   9.479
 4591W        W 8791   9.006   1.704   8.372
 4592W        W 8792   0.344   3.136   0.349
 4593W        W 8793   8.947  10.114   2.610
 4594W        W 8794   0.522   3.487   3.665
 4595W        W 8795   8.793   2.862   8.613
 4596W        W 8796  11.353   7.457  10.562
 4597W        W 8797  10.319   2.858   0.828
 4598W        W 8798   5.026   4.796  11.214
 4599W        W 8799   2.841   5.531   9.704
 4600W        W 8800   1.475   2.753   1.991
 4601W        W 8801   6.411   3.537   1.780
 4602W        W 8802   5.180   1.669   8.758
 4603W        W 8803   3.406   3.833   2.529
 4604W        W 8804   9.617  10.451   0.779
 4605W        W 8805   5.634   6.257  10.701
 4606W        W 8806   8.709   8.465  10.160
 4607W        W 8807   1.774   2.232   9.278
 4608W        W 8808  10.517   3.774   9.827
 4609W        W 8809   3.805   4.700   8.987
 4610W        W 8810   5.383   7.405   9.330
 4611W        W 8811   5.538   2.430   1.948
 4612W        W 8812   5.563   0.710  11.212
 4613W        W 8813   6.682   8.512  11.980
 4614W        W 8814   1.852   6.669   0.831
 4615W        W 8815   2.792   9.282  10.402
 4616W        W 8816  10.457   1.151   0.248
 4617W        W 8817   7.004   7.799   9.472
 4618W        W 8818   1.378  10.373  10.994
 4619W        W 8819   3.420   0.931   2.531
 4620W        W 8820  10.794   5.458   0.275
 4621W        W 8821   8.165   3.149   0.674
 4622W        W 8822   3.128   1.399  11.539
 4623W        W 8823   8.282   3.161   9.941
 4624W        W 8824   1.817  10.549  11.737
 4625W        W 8825  10.862   7.533   0.837
 4626W        W 8826   0.039  10.487  10.847
 4627W        W 8827  11.015   2.252  11.081
 4628W        W 8828  11.160   4.152  11.731
 4629W        W 8829   1.470   2.296  11.369
 4630W        W 8830   8.896   0.170  11.751
 4631W        W 8831  10.794   5.753   1.802
 4632W        W 8832   9.216   0.141  10.393
 4633W        W 8833   5.111   7.715   2.598
 4634W        W 8834   9.026   6.749  10.455
 4635W        W 8835   3.545   9.094   9.625
 4636W        W 8836   4.227   6.159  10.272
 4637W        W 8837   2.324   2.569   2.633
 4638W        W 8838   6.550   9.335   3.330
 4639W        W 8839   6.115   8.835   9.852
 4640W        W 8840   8.201   4.073  11.592
 4641W        W 8841   1.321  10.881   0.987
 4642W        W 8842   3.185   2.947   9.065
 4643W        W 8843   6.985   0.130  10.994
 4644W        W 8844   3.784   1.954   0.123
 4645W        W 8845   5.740   2.625  10.974
 4646W        W 8846   3.589   4.935   8.580
 4647W        W 8847  10.373   3.357   9.537
 4648W        W 8848  10.486   7.373   1.159
 4649W        W 8849   2.668   9.691  11.975
 4650W        W 8850  10.441   3.334  10.038
 4651W        W 8851   9.864   2.574   0.964
 4652W        W 8852   6.456   6.596  10.357
 4653W        W 8853  10.769  10.552  10.418
 4654W        W 8854   3.607  10.131  11.947
 4655W        W 8855   4.758   4.071   0.351
 4656W        W 8856  11.222   7.707   2.636
 4657W        W 8857   7.271   9.627   0.535
 4658W        W 8858  10.666   3.390   3.331
 4659W        W 8859  10.294   9.338  10.829
 4660W        W 8860   1.871   6.085   1.948
 4661W        W 8861   8.973   3.759   1.958
 4662W        W 8862  10.264  10.879   1.450
 4663W        W 8863   0.304   6.359   2.374
 4664W        W 8864   5.210   0.690  11.877
 4665W        W 8865   5.754   5.268   1.788
 4666W        W 8866   3.469   1.229   0.335
 4667W        W 8867   9.529   7.775  10.945
 4668W        W 8868  10.000   6.555   9.333
 4669W        W 8869   9.924   0.607  11.404
 4670W        W 8870   2.244   8.898   0.058
 4671W        W 8871  10.015   5.258   1.007
 4672W        W 8872  10.104   6.107   0.501
 4673W        W 8873   9.527   9.869   9.004
 4674W        W 8874   7.731   0.271   9.831
 4675W        W 8875   7.995   0.852   2.893
 4676W        W 8876   4.308   5.366   2.739
 4677W        W 8877   1.333   4.776  10.583
 4678W        W 8878   2.685   4.272   2.961
 4679W        W 8879   1.108   4.866  10.083
 4680W        W 8880   4.778   1.365   1.952
 4681W        W 8881  11.030   9.079   0.136
 4682W        W 8882   9.696   7.151  11.269
 4683W        W 8883   2.634   6.383   8.635
 4684W        W 8884   6.223   7.693   8.376
 4685W        W 8885  10.479   6.658   9.521
 4686W        W 8886   4.834   8.798  11.835
 4687W        W 8887   5.161   2.661   4.206
 4688W        W 8888   5.661   2.738   9.485
 4689W        W 8889   5.894  10.002   2.703
 4690W        W 8890   9.591   6.930   2.827
 4691W        W 8891   5.024   3.235  11.951
 4692W        W 8892   8.883   0.357  10.757
 4693W        W 8893  11.379   8.370   9.974
 4694W        W 8894   1.015   9.294  10.735
 4695W        W 8895   2.622   7.447   0.194
 4696W        W 8896   4.041   3.304   9.408
 4697W        W 8897   5.628   7.553   8.879
 4698W        W 8898   2.526   3.047  11.577
 4699W        W 8899   6.635  11.112   0.044
 4700W        W 8900   8.137   9.610  10.512
 4701W        W 8901  10.213   8.002   1.681
 4702W        W 8902   0.743   0.960   9.537
 4703W        W 8903   7.610   4.863   0.345
 4704W        W 8904   6.488   1.048  11.946
 4705W        W 8905   4.607   3.060  11.069
 4706W        W 8906  10.514   4.133   9.481
 4707W        W 8907   1.440  10.873  11.263
 4708W        W 8908   5.196   0.865   3.491
 4709W        W 8909   9.114  10.310   0.003
 4710W        W 8910   9.979   3.837   2.254
 4711W        W 8911   0.257   6.667   3.014
 4712W        W 8912   3.526   3.379   9.450
 4713W        W 8913   3.726   3.387   3.286
 4714W        W 8914   8.353   4.593   8.921
 4715W        W 8915   3.753   4.112  11.049
 4716W        W 8916   6.867   3.110   2.834
 4717W        W 8917   0.990   1.661   8.966
 4718W        W 8918   8.475   6.365   2.197
 4719W        W 8919   5.265   4.228   9.520
 4720W        W 8920   3.383  10.076   8.678
 4721W        W 8921   5.652   6.612   0.561
 4722W        W 8922   0.298   8.616   1.937
 4723W        W 8923   8.170   8.394   8.463
 4724W        W 8924   1.420   4.315  10.829
 4725W        W 8925   3.567   1.218   9.782
 4726W        W 8926   5.206   8.940   3.607
 4727W        W 8927  10.885   4.414   1.808
 4728W        W 8928  10.466   4.994   9.890
 4729W        W 8929  11.292   7.753  11.548
 4730W        W 8930   0.806   0.753   2.187
 4731W        W 8931   5.557   4.477  10.706
 4732W        W 8932   8.180  11.470   1.139
 4733W        W 8933  11.265   0.906  10.490
 4734W        W 8934   7.021   1.116  11.042
 4735W        W 8935   0.794   0.175  10.049
 4736W        W 8936   2.001  11.315   3.152
 4737W        W 8937   9.013   1.717   1.280
 4738W        W 8938   4.727   2.345   9.532
 4739W        W 8939   9.828   2.880   3.340
 4740W        W 8940   3.808   3.640   0.203
 4741W        W 8941   7.654   0.302   1.174
 4742W        W 8942   8.222   9.008   9.977
 4743W        W 8943  10.043   9.200   8.699
 4744W        W 8944   7.401  10.867   9.552
 4745W        W 8945  11.445   1.162   2.632
 4746W        W 8946  10.951   5.931   0.292
 4747W        W 8947   5.569   2.164   1.505
 4748W        W 8948   4.600   3.259   3.222
 4749W        W 8949   8.564   5.231   0.943
 4750W        W 8950   8.307   7.038   8.833
 4751W        W 8951   3.286  10.468   0.238
 4752W        W 8952  10.367   6.536   1.481
 4753W        W 8953   7.939   2.941   2.387
 4754W        W 8954   3.173   3.864   8.843
 4755W        W 8955   5.534   5.786  10.468
 4756W        W 8956   3.245   8.085   8.655
 4757W        W 8957   9.003   0.158  11.232
 4758W        W 8958   4.208   6.746   1.236
 4759W        W 8959   0.824   0.036  10.565
 4760W        W 8960  10.824   4.702   2.628
 4761W        W 8961  11.076   6.850   9.229
 4762W        W 8962  11.481   3.971   9.003
 4763W        W 8963  10.914   5.373   1.475
 4764W        W 8964  11.420   6.540   9.455
 4765W        W 8965   9.991   1.367   0.260
 4766W        W 8966   4.112   7.005   9.299
 4767W        W 8967   1.798   3.341   1.752
 4768W        W 8968  10.105  10.542   0.739
 4769W        W 8969   8.354   2.202   9.766
 4770W        W 8970   6.735   4.553   9.416
 4771W        W 8971  10.583   2.755   1.704
 4772W        W 8972   4.983   7.044   3.155
 4773W        W 8973   0.216   2.142   9.799
 4774W        W 8974   7.852   8.019   2.319
 4775W        W 8975   3.962   6.007  11.516
 4776W        W 8976  11.344   4.605   1.885
 4777W        W 8977   4.576   7.557   0.356
 4778W        W 8978   5.644   4.585   2.448
 4779W        W 8979  10.471   7.532   9.365
 4780W        W 8980   7.481   4.332  11.396
 4781W        W 8981   8.341   8.755   2.886
 4782W        W 8982   3.662   3.264   1.867
 4783W        W 8983   2.031   6.996  10.300
 4784W        W 8984  10.274   1.775   1.135
 4785W        W 8985  11.408   8.795   8.517
 4786W        W 8986  10.142   2.202   1.941
 4787W        W 8987   7.224   9.890   2.682
 4788W        W 8988   0.294   6.220  11.166
 4789W        W 8989   1.188   1.033   2.037
 4790W        W 8990  10.473   9.920   2.946
 4791W        W 8991   8.708  11.500  10.449
 4792W        W 8992   9.357   2.190  11.120
 4793W        W 8993   8.533   3.487   1.268
 4794W        W 8994   9.135   5.193  10.827
 4795W        W 8995   4.776   7.913   0.028
 4796W        W 8996  11.479  11.439  10.797
 4797W        W 8997   0.713   9.258   3.487
 4798W        W 8998   0.449  11.487   9.733
 4799W        W 8999   1.932   7.908  11.829
 4800W        W 9000  10.448   8.510   8.860
 4801W        W 9001   3.811   2.873  10.334
 4802W        W 9002   4.875   5.001   1.397
 4803W        W 9003   1.138   2.813   0.590
 4804W        W 9004   7.387   3.777   0.743
 4805W        W 9005   8.538   6.771  10.736
 4806W        W 9006   2.127   4.740   0.363
 4807W        W 9007   4.756   1.600  10.700
 4808W        W 9008   1.539   2.859   0.924
 4809W        W 9009   9.022  10.964   0.341
 4810W        W 9010   0.695   7.094   2.175
 4811W        W 9011   1.237   2.783  11.297
 4812W        W 9012  11.030  10.151   1.803
 4813W        W 9013   4.805   1.261   2.457
 4814W        W 9014   9.513   9.796   2.745
 4815W        W 9015  10.808   4.572   0.663
 4816W        W 9016   5.961   6.105   9.737
 4817W        W 9017   9.953   5.302   0.413
 4818W        W 9018   9.195   4.713   9.189
 4819W        W 9019   9.097   7.661  10.138
 4820W        W 9020   0.235   2.253   1.828
 4821W        W 9021   9.954  11.088  11.285
 4822W        W 9022   9.518  10.116   9.468
 4823W        W 9023   9.431   6.631  11.259
 4824W        W 9024   1.123   9.562   3.429
 4825W        W 9025   9.725   8.599   1.992
 4826W        W 9026   8.048   4.564   0.205
 4827W        W 9027   9.964   1.888   0.163
 4828W        W 9028   6.590   7.503   8.695
 4829W        W 9029   7.136   4.559   8.682
 4830W        W 9030   0.498   7.924   9.622
 4831W        W 9031   3.451   6.036   1.239
 4832W        W 9032   1.585   6.160  10.042
 4833W        W 9033   1.691   0.869   2.099
 4834W        W 9034   5.940   1.376   2.035
 4835W        W 9035   1.062   8.372   2.464
 4836W        W 9036   1.854   4.039  10.901
 4837W        W 9037   6.691   2.373   3.547
 4838W        W 9038   6.527   8.530   1.626
 4839W        W 9039   0.906   3.656   0.811
 4840W        W 9040   6.847  11.235   3.113
 4841W        W 9041   1.147   5.528   9.490
 4842W        W 9042   6.900   1.125   1.947
 4843W        W 9043  10.438   9.970  11.932
 4844W        W 9044   6.696   4.690   0.146
 4845W        W 9045   1.625   7.971   0.881
 4846W        W 9046   0.284   3.490  10.798
 4847W        W 9047  10.017   7.561  11.118
 4848W        W 9048   7.108  10.173  11.329
 4849W        W 9049   7.972   5.228   0.299
 4850W        W 9050   5.613   1.361   8.809
 4851W        W 9051   8.957   6.165   8.842
 4852W        W 9052   2.256   4.172   8.525
 4853W        W 9053   5.132   5.645  11.240
 4854W        W 9054   4.730   8.579  10.257
 4855W        W 9055   7.742   1.842   2.996
 4856W        W 9056   0.163   9.452   9.513
 4857W        W 9057   7.676   1.327  11.395
 4858W        W 9058   6.313   4.022   2.234
 4859W        W 9059   0.611   2.213  10.151
 4860W        W 9060   7.596   6.193  11.953
 4861W        W 9061   0.779   5.221  10.257
 4862W        W 9062   7.983   2.456   8.855
 4863W        W 9063   7.403   4.286   0.748
 4864W        W 9064   8.370   3.283  11.767
 4865W        W 9065   8.576   4.561   9.800
 4866W        W 9066   0.388   0.299  11.524
 4867W        W 9067   3.016   3.499   2.372
 4868W        W 9068   8.993   0.451   0.718
 4869W        W 9069   0.334   8.344  11.419
 4870W        W 9070   3.060   5.556   3.203
 4871W        W 9071   2.001   1.019  11.675
 4872W        W 9072  10.518   8.368  11.019
 4873W        W 9073   5.872  10.028   8.938
 4874W        W 9074   2.595   5.986   9.513
 4875W        W 9075   4.115   0.521   0.540
 4876W        W 9076   4.315   8.122   2.774
 4877W        W 9077   8.671   7.134   3.167
 4878W        W 9078   8.045   1.913  11.017
 4879W        W 9079   3.960   8.677   2.231
 4880W        W 9080   2.738  10.829   3.035
 4881W        W 9081   9.652   4.258   2.264
 4882W        W 9082   5.575   1.823   9.045
 4883W        W 9083   3.772   4.628  11.168
 4884W        W 9084   0.411   5.247  11.570
 4885W        W 9085   5.638   4.806   0.674
 4886W        W 9086   7.909   8.749   9.519
 4887W        W 9087   0.799   3.009   8.501
 4888W        W 9088   2.880   7.052   1.494
 4889W        W 9089   5.770  10.878  10.399
 4890W        W 9090   1.278  11.393   9.318
 4891W        W 9091   2.513   2.509   3.145
 4892W        W 9092   0.596   2.621   9.268
 4893W        W 9093   9.747   9.034   1.746
 4894W        W 9094   1.450   6.157   2.214
 4895W        W 9095   9.349   2.838  11.819
 4896W        W 9096   6.154  11.039   9.595
 4897W        W 9097   1.826   3.585  10.695
 4898W        W 9098   1.705   9.915  10.576
 4899W        W 9099   4.391  10.491  10.087
 4900W        W 9100   7.715   0.860  11.933
 4901W        W 9101   5.146   8.513   1.070
 4902W        W 9102   3.234   2.189   1.771
 4903W        W 9103   0.657   9.142  11.077
 4904W        W 9104   9.547   2.339   9.618
 4905W        W 9105   9.931   2.156   1.274
 4906W        W 9106   9.326  11.405  11.689
 4907W        W 9107   7.923   5.507  10.503
 4908W        W 9108  10.600   3.115   0.471
 4909W        W 9109   5.657   8.494   0.734
 4910W        W 9110   5.077   6.348   2.431
 4911W        W 9111   7.453   1.327   8.776
 4912W        W 9112   6.542   1.151  10.341
 4913W        W 9113   7.597   6.516   1.317
 4914W        W 9114   0.592  10.391   0.880
 4915W        W 9115   3.989   7.610   1.350
 4916W        W 9116   5.787   9.956  10.310
 4917W        W 9117   8.488   2.670  10.515
 4918W        W 9118   9.343   7.937   0.219
 4919W        W 9119   2.990   9.155   1.602
 4920W        W 9120   1.780   4.521   3.613
 4921W        W 9121   1.721   0.174   1.203
 4922W        W 9122   7.477   0.910  10.448
 4923W        W 9123   7.379   7.320  10.153
 4924W        W 9124   1.785   1.191   3.066
 4925W        W 9125   9.495   7.627  11.451
 4926W        W 9126   6.592   3.944   2.682
 4927W        W 9127   1.111   5.129  11.864
 4928W        W 9128  11.324   7.190   8.810
 4929W        W 9129   2.083   5.943   9.582
 4930W        W 9130   9.382   9.779  10.919
 4931W        W 9131   1.785   4.910   1.046
 4932W        W 9132   2.720  10.999   2.564
 4933W        W 9133   0.448   1.742   9.602
 4934W        W 9134  10.367   2.227  11.945
 4935W        W 9135   7.020   9.576  11.248
 4936W        W 9136  11.287   6.703   0.841
 4937W        W 9137   6.945   6.092  10.052
 4938W        W 9138   4.632   4.534   3.139
 4939W        W 9139   3.254   3.158   3.598
 4940W        W 9140   5.146   8.886   9.999
 4941W        W 9141   3.884  10.872  10.739
 4942W        W 9142   4.333   0.943  10.852
 4943W        W 9143   4.722   2.801   0.706
 4944W        W 9144   9.827   7.676   1.901
 4945W        W 9145   2.784  11.456  11.353
 4946W        W 9146   7.215  11.394   1.862
 4947W        W 9147  10.868   2.610  10.308
 4948W        W 9148   9.883   6.379  10.312
 4949W        W 9149   2.673   3.092   2.384
 4950W        W 9150   6.415   8.726   8.274
 4951W        W 9151  10.973   9.585  11.956
 4952W        W 9152   0.824   2.433   0.424
 4953W        W 9153   5.469   4.100   9.061
 4954W        W 9154   2.897  10.945  10.810
 4955W        W 9155   8.617   6.410   1.265
 4956W        W 9156   5.140   9.460   2.411
 4957W        W 9157   5.853   6.657   2.170
 4958W        W 9158   9.981   1.960   3.456
 4959W        W 9159   0.811   6.246   0.919
 4960W        W 9160   0.700  10.868   1.706
 4961W        W 9161   5.740   9.194  11.824
 4962W        W 9162   2.666   2.273   9.480
 4963W        W 9163   0.253   1.443   3.461
 4964W        W 9164   9.949   4.236   2.688
 4965W        W 9165   3.811   8.116  11.802
 4966W        W 9166   2.991   5.649   8.597
 4967W        W 9167  10.007   6.168  10.773
 4968W        W 9168   5.510   0.973   9.125
 4969W        W 9169  11.391   2.651   0.531
 4970W        W 9170   9.801  10.936   0.912
 4971W        W 9171  10.009  10.781   2.721
 4972W        W 9172   2.735   7.974   9.490
 4973W        W 9173  10.770   7.618   2.391
 4974W        W 9174   4.782   7.585   1.754
 4975W        W 9175  10.727   4.972   3.601
 4976W        W 9176  10.295   1.921  10.932
 4977W        W 9177   1.616   6.165   0.997
 4978W        W 9178  10.339   6.984   9.056
 4979W        W 9179   8.115   9.949   0.240
 4980W        W 9180   6.940   4.407   1.820
 4981W        W 9181   4.648   4.730   3.613
 4982W        W 9182   6.550   5.443   0.467
 4983W        W 9183   7.920   9.966   9.992
 4984W        W 9184   5.041   4.540   3.897
 4985W        W 9185   2.219   3.301   2.215
 4986W        W 9186   5.667   9.083   3.044
 4987W        W 9187   5.532   4.111   2.567
 4988W        W 9188   2.539   2.671   0.875
 4989W        W 9189  10.249   7.251   2.360
 4990W        W 9190   5.648   3.178   8.870
 4991W        W 9191   8.429  11.013  11.742
 4992W        W 9192   1.039   4.084   0.517
 4993W        W 9193   3.385   6.609  10.324
 4994W        W 9194  10.306   6.572  11.970
 4995W        W 9195   4.161   9.079   9.106
 4996W        W 9196   9.926   5.689   9.928
 4997W        W 9197   3.488   8.509   8.924
 4998W        W 9198   4.368  10.985  10.752
 4999W        W 9199   9.994   1.636  10.083
 5000W        W 9200  10.072   1.321   8.816
 5001W        W 9201  10.068   0.857   0.043
 5002W        W 9202   6.079   5.779   1.704
 5003W        W 9203   1.258   9.444  10.010
 5004W        W 9204   2.550   7.732   2.685
 5005W        W 9205   9.974   0.794   8.862
 5006W        W 9206   3.985   1.362  11.449
 5007W        W 9207   2.043   1.639   3.279
 5008W        W 9208   8.645   3.109  10.289
 5009W        W 9209  10.506  10.852   3.361
 5010W        W 9210   2.210   9.326  11.343
 5011W        W 9211   8.445   2.641   2.025
 5012W        W 9212   7.453  11.320   8.807
 5013W        W 9213   8.128   0.877   8.465
 5014W        W 9214   0.236   6.123   2.805
 5015W        W 9215   8.601   9.896   2.935
 5016W        W 9216   4.561   5.321   9.661
 5017W        W 9217   5.956   6.239   2.652
 5018W        W 9218   3.690  10.877   2.791
 5019W        W 9219   1.599   5.598   3.182
 5020W        W 9220   4.725   4.527   2.626
 5021W        W 9221   8.109   4.614   3.568
 5022W        W 9222   6.851   9.363   0.667
 5023W        W 9223   0.082   5.660  10.831
 5024W        W 9224   0.623   1.472   0.736
 5025W        W 9225   2.345   0.739   0.743
 5026W        W 9226   8.333   2.106   3.754
 5027W        W 9227   4.924   6.116   1.002
 5028W        W 9228  10.223  11.423   9.401
 5029W        W 9229   7.100   2.629   9.796
 5030W        W 9230  10.897   7.546   9.665
 5031W        W 9231   5.544   6.434  11.282
 5032W        W 9232   1.005   2.326   9.111
 5033W        W 9233   5.489  11.499   0.022
 5034W        W 9234   1.636   3.491  10.202
 5035W        W 9235   4.731   2.817   2.004
 5036W        W 9236   4.948   8.071   1.971
 5037W        W 9237   8.548   5.477   9.855
 5038W        W 9238   0.711   4.158  11.006
 5039W        W 9239  11.294   2.252   9.474
 5040W        W 9240   9.626   8.372   9.908
 5041W        W 9241   5.779   9.877   2.019
 5042W        W 9242   6.964   4.563   0.916
 5043W        W 9243   4.795   1.652   0.425
 5044W        W 9244   2.295  11.251  11.424
 5045W        W 9245   1.243   0.516   1.906
 5046W        W 9246   4.085   2.324   0.305
 5047W        W 9247   7.230   4.453   9.561
 5048W        W 9248   9.878  10.492   9.409
 5049W        W 9249   1.933   6.388  10.466
 5050W        W 9250   7.015   8.296   9.728
 5051W        W 9251   0.752   8.399   0.421
 5052W        W 9252   9.384   3.914   1.671
 5053W        W 9253   9.881   2.642   2.869
 5054W        W 9254   6.747  10.747   1.868
 5055W        W 9255   5.469   8.091   2.013
 5056W        W 9256   9.383   0.949  11.877
 5057W        W 9257   5.509  11.034   9.042
 5058W        W 9258   6.233   2.747   9.884
 5059W        W 9259   2.305   7.076   0.063
 5060W        W 9260  11.321  11.347   9.354
 5061W        W 9261   5.667   0.697  10.714
 5062W        W 9262  10.860   8.329   9.628
 5063W        W 9263  10.292   5.962  11.191
 5064W        W 9264   6.980   3.157   1.384
 5065W        W 9265   2.742   8.490   9.456
 5066W        W 9266  10.855   7.619   1.870
 5067W        W 9267   9.409   4.390  11.051
 5068W        W 9268   7.473  11.337   9.325
 5069W        W 9269  10.819   3.915   1.892
 5070W        W 9270   2.584   6.302   9.991
 5071W        W 9271  10.592   7.871   0.010
 5072W        W 9272   0.462  11.345   0.705
 5073W        W 9273  11.431   5.014   2.167
 5074W        W 9274   4.613  11.418   9.119
 5075W        W 9275   8.931   5.358   8.527
 5076W        W 9276   8.873   2.830   2.836
 5077W        W 9277   0.482   3.607  11.539
 5078W        W 9278   8.442   2.956   1.552
 5079W        W 9279   8.065   3.926   1.924
 5080W        W 9280   0.499   5.378  11.017
 5081W        W 9281   2.452   2.525  11.869
 5082W        W 9282   2.774   3.111   1.428
 5083W        W 9283   6.178  10.560   9.408
 5084W        W 9284   4.729  10.913   1.341
 5085W        W 9285   1.055   9.494   0.762
 5086W        W 9286   4.679   6.821   2.312
 5087W        W 9287   5.202   9.856   9.014
 5088W        W 9288   0.300   9.943   0.906
 5089W        W 9289   5.807   7.092   0.364
 5090W        W 9290   7.918   6.948   2.987
 5091W        W 9291   3.844  10.786   9.882
 5092W        W 9292   2.614   6.224  11.884
 5093W        W 9293   1.408   2.022   8.977
 5094W        W 9294   0.829   1.888  10.934
 5095W        W 9295   4.082   0.868  11.306
 5096W        W 9296   2.013  11.100  10.061
 5097W        W 9297   1.432   7.886   8.810
 5098W        W 9298   2.161   4.959   1.500
 5099W        W 9299   2.630   9.767  10.500
 5100W        W 9300  10.539  11.234   2.335
 5101W        W 9301   6.250   0.420   3.324
 5102W        W 9302   3.866   7.357   2.205
 5103W        W 9303   3.860   8.407   2.663
 5104W        W 9304  10.036   3.310   1.428
 5105W        W 9305   3.477   2.226  10.502
 5106W        W 9306   0.350   9.589   1.611
 5107W        W 9307   8.859   4.122   9.889
 5108W        W 9308   0.187   3.646   2.767
 5109W        W 9309   0.511   3.064  10.674
 5110W        W 9310   4.159  10.804   1.799
 5111W        W 9311   4.135  10.906  10.300
 5112W        W 9312   5.360   9.454   0.324
 5113W        W 9313   0.190  10.601   3.021
 5114W        W 9314  10.574   0.880  11.841
 5115W        W 9315   2.858   8.510   2.726
 5116W        W 9316   9.395   2.691   3.517
 5117W        W 9317   5.761   7.792  10.038
 5118W        W 9318   8.541   1.485   1.326
 5119W        W 9319   8.128   9.447   1.063
 5120W        W 9320   9.378   2.724  11.312
 5121W        W 9321   6.755   7.886   9.917
 5122W        W 9322   5.779   4.816  10.370
 5123W        W 9323   7.659  10.292  10.796
 5124W        W 9324   5.103   5.712  10.734
 5125W        W 9325   9.156   3.746   0.206
 5126W        W 9326   2.180   0.790   8.910
 5127W        W 9327   0.338   7.567   3.303
 5128W        W 9328   6.834   8.621   2.941
 5129W        W 9329   0.653  10.343   2.304
 5130W        W 9330   2.937   0.256  10.948
 5131W        W 9331   2.990   4.568   9.987
 5132W        W 9332   6.485   4.029   0.808
 5133W        W 9333   3.792   4.669   8.197
 5134W        W 9334   4.808   2.727   1.530
 5135W        W 9335   8.153   1.797  10.001
 5136W        W 9336   3.365   2.372   0.023
 5137W        W 9337   8.508   1.889  11.243
 5138W        W 9338   3.761  10.350   8.964
 5139W        W 9339   9.613   0.634   0.228
 5140W        W 9340   8.595   5.002  10.138
 5141W        W 9341   6.661  10.369  11.098
 5142W        W 9342   9.550   2.367   2.215
 5143W        W 9343  10.693   1.302  11.518
 5144W        W 9344   1.422   3.887  11.483
 5145W        W 9345   8.053   2.766   0.365
 5146W        W 9346   0.417   5.708   9.962
 5147W        W 9347   4.150   7.463   9.078
 5148W        W 9348  10.359   4.560  11.451
 5149W        W 9349   4.696   3.559   0.431
 5150W        W 9350   6.782   3.142   9.176
 5151W        W 9351   7.686   5.778   8.324
 5152W        W 9352   4.558   6.366   2.509
 5153W        W 9353   5.569   8.973   0.407
 5154W        W 9354   2.762   3.392  10.304
 5155W        W 9355   2.820   2.327   2.770
 5156W        W 9356   5.429   2.377   2.707
 5157W        W 9357   6.725   2.801   0.471
 5158W        W 9358   3.170   0.818   9.110
 5159W        W 9359   8.984  10.019  10.129
 5160W        W 9360  11.370   5.583   0.217
 5161W        W 9361   4.518   3.204   9.555
 5162W        W 9362   8.032   1.812   3.448
 5163W        W 9363   8.476   6.964   0.456
 5164W        W 9364  10.466   8.145   2.925
 5165W        W 9365   7.607   0.723   3.413
 5166W        W 9366   4.088  11.384  10.511
 5167W        W 9367   1.908   5.174  11.212
 5168W        W 9368   4.541   5.447   2.268
 5169W        W 9369   5.590   3.697   3.802
 5170W        W 9370   7.378   4.796  10.531
 5171W        W 9371  11.340   6.423   2.795
 5172W        W 9372   1.705   2.313   0.940
 5173W        W 9373   5.036   9.824   2.099
 5174W        W 9374  11.498  11.456   2.014
 5175W        W 9375   9.389   9.559   2.295
 5176W        W 9376   0.777   7.169   9.930
 5177W        W 9377   6.952   1.244  11.939
 5178W        W 9378   0.762   7.506   1.785
 5179W        W 9379   0.868   9.148   1.059
 5180W        W 9380   5.164   5.578  11.760
 5181W        W 9381  10.119   5.027  10.304
 5182W        W 9382  10.130   1.965  10.452
 5183W        W 9383   4.996   1.514  10.121
 5184W        W 9384   8.839   6.908   9.550
 5185W        W 9385   0.814   2.033  11.624
 5186W        W 9386   0.775   5.505   3.014
 5187W        W 9387   6.283   5.009   0.350
 5188W        W 9388   1.249   5.269  10.461
 5189W        W 9389   5.335   6.714  10.853
 5190W        W 9390   1.616   5.068  11.976
 5191W        W 9391   0.285  11.442   0.230
 5192W        W 9392   0.487   4.592  10.844
 5193W        W 9393  11.360   8.886   1.925
 5194W        W 9394   8.728  11.253   9.574
 5195W        W 9395  10.507   7.363  10.947
 5196W        W 9396   9.050   9.095   2.425
 5197W        W 9397  11.263   4.787   0.823
 5198W        W 9398   3.280   2.641   0.861
 5199W        W 9399   8.558   0.939   9.414
 5200W        W 9400   7.055   8.438   1.875
 5201W        W 9401   5.116   0.050   3.029
 5202W        W 9402   3.041   3.982   4.097
 5203W        W 9403   1.230   8.080   0.578
 5204W        W 9404   1.356   9.565   0.378
 5205W        W 9405   0.728   0.917  10.425
 5206W        W 9406  10.342   2.690   9.286
 5207W        W 9407  10.546   1.557   9.652
 5208W        W 9408  10.251   8.464   0.398
 5209W        W 9409   2.292  10.253   2.727
 5210W        W 9410   9.972   8.066  10.948
 5211W        W 9411   2.276  11.263   0.467
 5212W        W 9412   7.652   2.437   3.165
 5213W        W 9413  10.110   0.336  10.118
 5214W        W 9414   8.493  11.319   3.115
 5215W        W 9415   9.451   6.671   2.161
 5216W        W 9416   4.127   8.078   9.644
 5217W        W 9417   9.850   0.840   9.408
 5218W        W 9418   7.186  10.428   3.446
 5219W        W 9419   0.678   6.934  10.376
 5220W        W 9420  11.304   1.821  10.967
 5221W        W 9421   2.169   2.947   8.803
 5222W        W 9422   7.739   7.720   9.864
 5223W        W 9423   8.600   6.009  11.012
 5224W        W 9424   7.491   7.044   1.860
 5225W        W 9425   1.818  10.998   2.732
 5226W        W 9426   1.799  10.491  11.244
 5227W        W 9427   2.961   7.851  10.375
 5228W        W 9428   1.844   3.691   2.275
 5229W        W 9429   9.466   8.794   0.233
 5230W        W 9430   0.404   6.042   0.248
 5231W        W 9431   0.492   3.870   2.424
 5232W        W 9432   4.739   2.678   2.975
 5233W        W 9433   0.734   0.681   9.970
 5234W        W 9434  10.397   7.464   9.871
 5235W        W 9435   3.217   0.147   9.150
 5236W        W 9436   3.803   0.717   2.843
 5237W        W 9437   1.180   5.740   2.383
 5238W        W 9438   7.519   1.016   1.957
 5239W        W 9439   7.408   8.309   2.343
 5240W        W 9440   8.601   6.453   0.379
 5241W        W 9441  10.204   2.217   0.844
 5242W        W 9442   6.638   9.861   2.018
 5243W        W 9443   3.686  11.467   9.591
 5244W        W 9444   4.646   4.620  10.890
 5245W        W 9445   4.815   9.029   3.096
 5246W        W 9446   2.640   1.145   1.208
 5247W        W 9447   4.771   6.994  10.053
 5248W        W 9448   1.388   9.510  11.886
 5249W        W 9449   2.381   3.797   9.467
 5250W        W 9450   4.655   4.762   1.794
 5251W        W 9451   2.911  10.027  11.518
 5252W        W 9452   9.235   7.359  11.080
 5253W        W 9453   8.774   8.703   0.720
 5254W        W 9454   8.115   1.426   8.723
 5255W        W 9455   9.605   9.499   1.527
 5256W        W 9456   0.702   4.704  11.330
 5257W        W 9457   8.066   8.874  11.743
 5258W        W 9458   1.818   7.397  11.804
 5259W        W 9459   4.731   8.493   0.725
 5260W        W 9460   6.319   7.432   1.459
 5261W        W 9461   3.706   8.863  10.587
 5262W        W 9462  10.350   5.047  11.155
 5263W        W 9463   1.432   5.252   2.386
 5264W        W 9464   1.926   0.475   0.816
 5265W        W 9465   2.830   7.020   2.385
 5266W        W 9466   7.910   5.218  11.425
 5267W        W 9467   1.782   5.233   2.837
 5268W        W 9468   6.417   1.247   1.773
 5269W        W 9469   1.630   3.039   0.446
 5270W        W 9470  11.076   0.939   1.223
 5271W        W 9471   1.455   0.012   0.169
 5272W        W 9472   4.091   3.528  11.796
 5273W        W 9473   5.187   0.826   1.884
 5274W        W 9474  10.061   8.925   9.152
 5275W        W 9475   1.994  10.385   9.403
 5276W        W 9476   2.743   4.615   1.353
 5277W        W 9477   4.546   5.136  11.207
 5278W        W 9478   9.008   5.679   9.784
 5279W        W 9479   4.636   4.017   1.363
 5280W        W 9480   7.813   9.518  10.894
 5281W        W 9481   4.248   1.373   3.000
 5282W        W 9482   9.301   8.602   2.317
 5283W        W 9483   1.422   5.549  11.927
 5284W        W 9484   3.785   1.210   2.946
 5285W        W 9485   9.988   2.744  10.098
 5286W        W 9486   1.202   7.285   2.896
 5287W        W 9487   5.918   5.592   9.068
 5288W        W 9488   6.535   2.856   3.605
 5289W        W 9489   9.706   1.152   2.964
 5290W        W 9490   4.086  11.350   0.869
 5291W        W 9491   0.900  11.025  10.655
 5292W        W 9492   8.314   6.788   0.939
 5293W        W 9493   7.124   7.021  11.933
 5294W        W 9494   9.943  10.925  11.866
 5295W        W 9495   3.721   6.928  11.155
 5296W        W 9496   2.200   8.032   0.568
 5297W        W 9497   9.638   4.212   1.346
 5298W        W 9498  10.640   0.704   1.383
 5299W        W 9499   7.564   7.289   2.298
 5300W        W 9500   1.985   5.341   1.855
 5301W        W 9501  10.570  10.498  11.754
 5302W        W 9502   1.593   7.027   1.912
 5303W        W 9503   8.304   4.019  10.280
 5304W        W 9504   5.655   3.223   2.553
 5305W        W 9505   6.095   0.290   2.275
 5306W        W 9506   9.573   7.682   1.442
 5307W        W 9507   9.954   3.187   9.785
 5308W        W 9508   9.614   4.900   1.720
 5309W        W 9509   8.217   3.646   9.522
 5310W        W 9510   6.680   3.969   1.713
 5311W        W 9511   9.980   8.529  10.709
 5312W        W 9512   8.471  10.260  10.033
 5313W        W 9513   0.351  11.453   9.237
 5314W        W 9514   3.704   3.621  10.955
 5315W        W 9515  11.454  10.702   9.675
 5316W        W 9516   0.175   7.204  11.338
 5317W        W 9517   8.948   9.372  11.430
 5318W        W 9518   2.609   0.836   9.223
 5319W        W 9519   0.559   3.450  10.314
 5320W        W 9520  10.213   2.721   2.102
 5321W        W 9521   5.622   8.543   1.777
 5322W        W 9522   3.952   7.997   1.784
 5323W        W 9523   8.212   3.805   3.985
 5324W        W 9524   1.218   4.026   9.244
 5325W        W 9525   2.247   1.895   9.762
 5326W        W 9526   9.877  10.751   2.224
 5327W        W 9527   5.216   9.822   3.331
 5328W        W 9528   1.965   2.169  11.287
 5329W        W 9529   8.009  10.477   2.434
 5330W        W 9530   1.930   3.208   8.397
 5331W        W 9531   0.394  10.019  10.930
 5332W        W 9532   8.569   3.564   3.132
 5333W        W 9533   9.909   7.668   2.416
 5334W        W 9534   6.582  10.887   9.335
 5335W        W 9535   2.791   5.291  11.348
 5336W        W 9536   4.968   2.510   8.621
 5337W        W 9537   6.724   8.642   0.825
 5338W        W 9538   1.879   6.926   8.767
 5339W        W 9539   3.701   0.229   2.777
 5340W        W 9540   4.980   8.302   8.936
 5341W        W 9541   7.038   9.341   8.586
 5342W        W 9542   1.262   7.569   2.048
 5343W        W 9543   7.990   5.918   0.780
 5344W        W 9544   5.617  10.958   0.955
 5345W        W 9545   0.672   8.771  10.092
 5346W        W 9546   4.003   6.207   1.838
 5347W        W 9547  10.693   7.438   3.549
 5348W        W 9548   1.631   6.662   8.350
 5349W        W 9549   0.286  11.011   9.464
 5350W        W 9550   5.211   4.703   1.663
 5351W        W 9551   2.792   4.827  11.631
 5352W        W 9552   3.147   3.332   1.766
 5353W        W 9553   0.140   7.899  10.002
 5354W        W 9554   6.340   6.459   2.382
 5355W        W 9555   2.167  10.995   1.803
 5356W        W 9556   0.430   0.522   2.430
 5357W        W 9557   9.715   7.051   0.303
 5358W        W 9558   0.885   7.085   1.412
 5359W        W 9559   5.194   1.399   1.659
 5360W        W 9560   1.719   4.798  10.257
 5361W        W 9561   5.796   5.161   0.303
 5362W        W 9562   1.767   8.052   9.628
 5363W        W 9563   1.197   1.882  11.286
 5364W        W 9564  10.971   9.956   9.746
 5365W        W 9565   3.853   9.406   3.309
 5366W        W 9566   6.907   2.627   2.655
 5367W        W 9567   6.381   2.528  10.338
 5368W        W 9568   2.203   1.466   0.057
 5369W        W 9569   1.162   1.285   3.667
 5370W        W 9570   7.816   0.336   3.693
 5371W        W 9571   2.294   5.777   9.140
 5372W        W 9572   8.936   7.466   2.172
 5373W        W 9573  11.250   5.127   1.206
 5374W        W 9574   1.422  10.292   2.977
 5375W        W 9575   2.752   3.292   3.521
 5376W        W 9576  10.534   8.912   3.176
 5377W        W 9577   8.634   7.364   9.434
 5378W        W 9578   1.904   4.530  10.911
 5379W        W 9579  10.083   1.299   1.212
 5380W        W 9580   7.572   1.782   9.582
 5381W        W 9581   3.139   5.613   0.100
 5382W        W 9582   4.048   5.159  11.024
 5383W        W 9583   2.697   3.109   8.997
 5384W        W 9584   0.184   1.797   1.490
 5385W        W 9585   9.796   1.295   0.762
 5386W        W 9586   8.927   0.767   1.868
 5387W        W 9587   7.559   5.062   1.233
 5388W        W 9588   6.691  10.416   2.716
 5389W        W 9589   0.832  10.283  10.098
 5390W        W 9590   0.092   9.373   0.762
 5391W        W 9591   7.663   1.018   9.595
 5392W        W 9592   7.702   6.515   1.835
 5393W        W 9593   8.127   6.706   9.893
 5394W        W 9594   3.740   9.073   2.014
 5395W        W 9595   1.737   8.946  10.890
 5396W        W 9596   7.013   5.995  11.831
 5397W        W 9597   6.228   0.795   2.427
 5398W        W 9598   8.069  10.751   2.873
 5399W        W 9599   0.207   5.448   1.877
 5400W        W 9600   8.103   3.757   1.416
 5401W        W 9601  10.869   1.381  11.996
 5402W        W 9602   8.919   8.512   2.663
 5403W        W 9603   8.468   1.472   9.469
 5404W        W 9604   0.292   7.575  11.704
 5405W        W 9605   7.106   6.683  11.336
 5406W        W 9606   2.322   7.928  10.999
 5407W        W 9607   0.351   1.280  11.840
 5408W        W 9608   3.960   6.299   1.279
 5409W        W 9609   6.714   7.525   3.639
 5410W        W 9610  11.347   8.447   2.214
 5411W        W 9611   9.129  11.443   0.739
 5412W        W 9612   0.164   5.169   0.929
 5413W        W 9613   9.913   0.386  11.856
 5414W        W 9614   5.073   0.246   0.244
 5415W        W 9615   6.242   3.487   2.255
 5416W        W 9616  10.856  10.449   3.388
 5417W        W 9617  11.185   5.267   8.767
 5418W        W 9618   5.741   8.636   3.302
 5419W        W 9619   8.983   3.659   3.449
 5420W        W 9620  11.062   1.380   8.690
 5421W        W 9621   2.735  11.211   0.224
 5422W        W 9622   5.708   2.390   1.027
 5423W        W 9623   5.089   7.734  11.647
 5424W        W 9624   1.140   8.238   0.109
 5425W        W 9625  10.616   7.843   1.413
 5426W        W 9626   7.663   3.049   0.698
 5427W        W 9627  11.408   3.771   3.154
 5428W        W 9628   4.364   5.005   1.404
 5429W        W 9629   0.181   9.236  10.339
 5430W        W 9630   8.730   7.955  10.382
 5431W        W 9631   1.698  10.827   9.415
 5432W        W 9632   9.366   6.651  11.788
 5433W        W 9633   9.143   7.322   9.561
 5434W        W 9634  11.465  11.409   9.844
 5435W        W 9635  10.798   0.212   9.927
 5436W        W 9636   1.984  10.697   8.988
 5437W        W 9637   7.763   6.297   8.265
 5438W        W 9638   0.186   5.527   9.517
 5439W        W 9639  10.803   7.161   8.916
 5440W        W 9640   6.447   2.790   8.981
 5441W        W 9641  10.133   0.741  10.581
 5442W        W 9642   6.793   6.110   1.324
 5443W        W 9643   9.518   3.312   2.286
 5444W        W 9644   5.252   5.807   2.344
 5445W        W 9645   7.314   0.458  10.071
 5446W        W 9646   8.946   0.815   2.377
 5447W        W 9647   3.661   3.599   0.715
 5448W        W 9648   0.227   3.074  10.234
 5449W        W 9649   0.429   8.687  10.889
 5450W        W 9650   7.564   6.373   3.522
 5451W        W 9651   1.293   7.850  10.910
 5452W        W 9652   3.982   1.018   0.466
 5453W        W 9653   9.506   2.790   9.910
 5454W        W 9654   7.279   1.011   0.271
 5455W        W 9655   6.795   0.611   8.470
 5456W        W 9656   5.528   3.784   1.810
 5457W        W 9657   9.516   1.368   1.305
 5458W        W 9658   0.519   7.054   8.992
 5459W        W 9659   0.209   8.718  10.401
 5460W        W 9660   0.302   3.862  11.145
 5461W        W 9661   1.429  10.891  11.788
 5462W        W 9662  10.736   9.385   2.267
 5463W        W 9663   2.152   8.607   3.197
 5464W        W 9664   1.665  10.317   2.202
 5465W        W 9665   4.646   8.114   9.678
 5466W        W 9666   9.448   6.885   9.863
 5467W        W 9667   3.693   5.433  10.359
 5468W        W 9668  11.392   6.054   0.055
 5469W        W 9669   3.348   7.221  10.959
 5470W        W 9670  10.948   8.558   8.636
 5471W        W 9671  10.740   6.987   0.394
 5472W        W 9672   3.298   9.124  11.085
 5473W        W 9673   1.673   9.628  11.466
 5474W        W 9674   5.888   1.522   9.801
 5475W        W 9675   4.900  10.398  10.176
 5476W        W 9676   1.304   5.729   0.384
 5477W        W 9677   2.129   1.749  11.577
 5478W        W 9678   9.827   0.643   3.034
 5479W        W 9679   7.706   9.042   9.915
 5480W        W 9680   7.157   7.095  10.551
 5481W        W 9681  11.444   9.807   8.729
 5482W        W 9682   1.351  10.427   9.979
 5483W        W 9683   5.468  10.764   2.462
 5484W        W 9684   5.018   7.968   3.345
 5485W        W 9685   3.252   0.187  11.473
 5486W        W 9686   2.272   7.505  10.339
 5487W        W 9687   1.488   4.281   2.357
 5488W        W 9688  10.487   2.453   9.980
 5489W        W 9689   4.951   6.411  11.726
 5490W        W 9690   7.079   1.754   1.155
 5491W        W 9691   0.430   0.348   0.519
 5492W        W 9692   8.365   7.184  11.015
 5493W        W 9693   2.354   3.065   2.783
 5494W        W 9694  10.572   6.012   2.198
 5495W        W 9695   4.297  11.379  11.522
 5496W        W 9696   2.411  10.158  11.538
 5497W        W 9697   0.983  11.474   8.564
 5498W        W 9698   9.421   0.782   2.104
 5499W        W 9699   7.714   6.613   8.694
 5500W        W 9700   6.579   8.540   3.819
 5501W        W 9701   2.373   0.386   9.165
 5502W        W 9702   8.466   5.033   9.640
 5503W        W 9703   3.709   0.872   2.053
 5504W        W 9704   1.673   0.387   1.662
 5505W        W 9705   4.274   2.264   9.287
 5506W        W 9706   0.376   8.027   9.120
 5507W        W 9707   9.965  10.023   0.736
 5508W        W 9708   0.420   3.397   1.480
 5509W        W 9709   4.204   0.027  11.008
 5510W        W 9710  11.125   1.445   2.326
 5511W        W 9711   5.094   7.011   1.036
 5512W        W 9712  11.470   5.571   1.418
 5513W        W 9713   1.380   7.055   0.097
 5514W        W 9714   1.403   3.739   1.027
 5515W        W 9715   3.280   7.640   0.792
 5516W        W 9716   6.089   1.702   3.514
 5517W        W 9717   8.357   8.504   3.688
 5518W        W 9718   9.878  10.354   3.496
 5519W        W 9719   9.522   7.743  10.424
 5520W        W 9720   8.049  10.987  10.087
 5521W        W 9721  10.869   8.683  10.001
 5522W        W 9722   2.505   4.319   2.128
 5523W        W 9723   8.682   8.521  11.750
 5524W        W 9724   2.398   6.077  10.438
 5525W        W 9725   2.812   8.942  10.798
 5526W        W 9726   7.122   5.761  11.352
 5527W        W 9727   2.856   9.348   0.305
 5528W        W 9728   5.113   9.078  11.475
 5529W        W 9729   3.439   0.221  10.987
 5530W        W 9730   4.625   4.565   0.497
 5531W        W 9731   0.632   0.532  10.869
 5532W        W 9732   8.417   7.844   3.071
 5533W        W 9733  10.389   5.626   0.902
 5534W        W 9734   1.838   5.691  11.659
 5535W        W 9735   2.049   4.702   9.866
 5536W        W 9736  11.037   5.304   1.972
 5537W        W 9737   4.839  10.458  11.464
 5538W        W 9738   4.405   4.077   3.250
 5539W        W 9739   7.256   2.259   8.774
 5540W        W 9740   3.689   1.815   1.670
 5541W        W 9741   8.391   4.152   9.262
 5542W        W 9742   7.859   3.252   0.244
 5543W        W 9743   4.367   3.244   3.670
 5544W        W 9744   9.006   5.004   1.451
 5545W        W 9745   4.246   7.026   8.790
 5546W        W 9746   7.774   0.928   0.439
 5547W        W 9747   6.119   4.561   1.318
 5548W        W 9748  10.352   6.426   9.996
 5549W        W 9749   5.869   9.404   0.322
 5550W        W 9750   4.190   1.386   0.821
 5551W        W 9751  11.215   9.843  10.200
 5552W        W 9752   7.231   9.545  10.378
 5553W        W 9753   6.031   4.265   2.605
 5554W        W 9754   4.911   2.365   2.618
 5555W        W 9755  10.344   9.481  10.294
 5556W        W 9756   2.612   9.886  11.036
 5557W        W 9757   1.434   1.712   3.139
 5558W        W 9758   5.546   5.387   2.267
 5559W        W 9759   4.884   7.122   1.508
 5560W        W 9760   0.371   1.304  11.307
 5561W        W 9761   5.581   4.621   9.019
 5562W        W 9762   5.916   6.528   9.463
 5563W        W 9763   0.243   6.787   2.090
 5564W        W 9764   9.914  10.515   1.218
 5565W        W 9765   2.299   3.349   1.325
 5566W        W 9766   4.970   9.099   8.575
 5567W        W 9767   8.534   3.874   1.713
 5568W        W 9768   1.516   4.804   2.670
 5569W        W 9769   6.246  11.460   1.403
 5570W        W 9770   1.864   6.886   3.122
 5571W        W 9771   3.155   3.602   0.769
 5572W        W 9772   7.692   9.214   1.301
 5573W        W 9773   7.882   8.071  10.206
 5574W        W 9774   9.590  11.404   0.984
 5575W        W 9775   6.758   6.572   9.945
 5576W        W 9776   3.044   5.513   2.487
 5577W        W 9777   7.321   8.537   2.818
 5578W        W 9778   3.394  10.913  10.804
 5579W        W 9779   8.039   1.319   1.254
 5580W        W 9780   5.932   3.065   0.312
 5581W        W 9781  11.266   1.049   3.552
 5582W        W 9782  10.311   3.692   1.699
 5583W        W 9783   4.612   3.356  10.045
 5584W        W 9784   8.509   7.678   9.053
 5585W        W 9785   7.750   5.232   8.544
 5586W        W 9786   1.726   3.144   2.239
 5587W        W 9787   3.144   7.035   9.909
 5588W        W 9788   2.286   2.476   1.694
 5589W        W 9789   9.490   7.389   9.961
 5590W        W 9790   7.488   0.242  11.155
 5591W        W 9791   6.621   2.340   1.380
 5592W        W 9792   8.647   7.628   9.886
 5593W        W 9793  10.973   3.585   0.456
 5594W        W 9794   3.599   2.342   0.475
 5595W        W 9795   8.127   6.608  11.284
 5596W        W 9796   6.928   0.312   1.089
 5597W        W 9797   0.907   5.726   9.012
 5598W        W 9798  10.291   5.651   2.437
 5599W        W 9799   4.181   6.913  11.350
 5600W        W 9800   0.093   0.777  10.847
 5601W        W 9801   1.469  11.372   0.868
 5602W        W 9802  10.012   0.316   9.111
 5603W        W 9803   2.267   1.938   8.727
 5604W        W 9804   1.365   1.446   1.774
 5605W        W 9805   9.094   9.923   3.071
 5606W        W 9806   8.621   1.162  11.016
 5607W        W 9807   9.275   2.654   2.546
 5608W        W 9808   9.193  11.461   0.213
 5609W        W 9809   7.521   8.773   9.157
 5610W        W 9810   2.808   1.562   1.484
 5611W        W 9811  10.671  10.599   2.933
 5612W        W 9812  10.580   8.017   3.385
 5613W        W 9813   8.382   7.926   1.362
 5614W        W 9814   2.218   0.662   2.885
 5615W        W 9815   6.445   1.153  11.201
 5616W        W 9816   7.198   6.476   1.724
 5617W        W 9817   5.441   5.273   9.558
 5618W        W 9818   0.101   1.627   2.717
 5619W        W 9819   3.175   2.820   9.934
 5620W        W 9820   3.007   4.695   2.981
 5621W        W 9821   2.041   5.155   0.663
 5622W        W 9822   6.046   9.347   9.615
 5623W        W 9823   9.049   5.133   2.390
 5624W        W 9824   8.499   0.358   1.276
 5625W        W 9825  10.334   6.482  11.007
 5626W        W 9826   7.089   8.408  11.099
 5627W        W 9827   4.042   4.759  10.711
 5628W        W 9828   2.358   7.711   8.970
 5629W        W 9829   6.555   3.070   4.132
 5630W        W 9830  11.213  11.061  11.054
 5631W        W 9831   0.007   3.450   9.069
 5632W        W 9832   2.982   8.370   9.001
 5633W        W 9833   6.242   9.328  11.980
 5634W        W 9834   2.254   2.822   9.833
 5635W        W 9835   9.906   6.153  11.464
 5636W        W 9836   8.689   6.574   1.764
 5637W        W 9837  10.443  10.454  10.782
 5638W        W 9838  10.034   4.095   0.896
 5639W        W 9839   7.002   0.787   3.167
 5640W        W 9840  10.415   4.489   2.890
 5641W        W 9841   8.750   2.299   1.805
 5642W        W 9842   9.213   3.791   9.414
 5643W        W 9843   5.482   5.031  10.004
 5644W        W 9844   6.931  10.773   2.355
 5645W        W 9845   3.489   7.748  11.945
 5646W        W 9846   0.220   2.704   1.514
 5647W        W 9847   1.837   8.154   2.013
 5648W        W 9848   9.139   9.080   9.776
 5649W        W 9849   1.187   4.800  11.458
 5650W        W 9850  11.400   9.813   9.239
 5651W        W 9851   8.597   9.342  10.628
 5652W        W 9852   7.972   2.331  10.711
 5653W        W 9853   0.500   8.037  11.822
 5654W        W 9854   4.490   2.814  10.646
 5655W        W 9855   8.925   1.570  11.184
 5656W        W 9856   3.482   3.797   1.170
 5657W        W 9857   6.433   3.518   0.876
 5658W        W 9858   6.564   2.852   1.362
 5659W        W 9859  10.444   3.299  10.624
 5660W        W 9860   3.703   8.291  11.299
 5661W        W 9861   4.133   6.570   0.760
 5662W        W 9862   4.745   0.317  10.357
 5663W        W 9863   9.907   0.108  11.161
 5664W        W 9864  10.982  11.234   9.939
 5665W        W 9865   0.815   5.045   3.211
 5666W        W 9866  10.076   1.374   2.443
 5667W        W 9867   8.887   4.182   0.268
 5668W        W 9868   0.688   9.810   3.361
 5669W        W 9869  10.851   9.680   2.698
 5670W        W 9870   3.433   3.147   0.882
 5671W        W 9871  11.006   6.992   3.564
 5672W        W 9872   1.287   2.321   2.819
 5673W        W 9873   2.195  10.805   1.341
 5674W        W 9874   7.113  10.318   2.453
 5675W        W 9875   3.419  11.068   9.929
 5676W        W 9876   2.208   3.338   9.647
 5677W        W 9877   3.486   3.987  10.625
 5678W        W 9878   1.884   5.547   9.350
 5679W        W 9879   8.687   5.186   2.857
 5680W        W 9880   5.545   7.371   9.813
 5681W        W 9881   4.317   7.559   0.805
 5682W        W 9882   0.954   2.680   2.663
 5683W        W 9883   0.198   6.826  10.514
 5684W        W 9884   5.426   4.138   3.991
 5685W        W 9885   8.212   8.099   8.938
 5686W        W 9886   8.899   5.459  10.231
 5687W        W 9887   7.477   2.363  10.498
 5688W        W 9888   7.708  11.239   9.780
 5689W        W 9889   0.192   5.234   8.994
 5690W        W 9890   1.887   7.002   1.465
 5691W        W 9891   0.975   5.285   2.164
 5692W        W 9892   7.654   0.629   1.664
 5693W        W 9893  11.404   5.690   9.937
 5694W        W 9894   2.629  11.243   9.510
 5695W        W 9895  10.874   7.156  10.001
 5696W        W 9896   3.738   4.769   2.256
 5697W        W 9897   4.674   9.911   0.544
 5698W        W 9898   7.874   1.542  11.926
 5699W        W 9899   0.745   0.427   8.650
 5700W        W 9900  11.304   0.048  11.281
 5701W        W 9901   0.445   7.995   0.616
 5702W        W 9902  10.233  11.352  10.318
 5703W        W 9903   1.441   4.234   0.232
 5704W        W 9904   4.932   1.293   3.273
 5705W        W 9905   7.669   8.976  10.861
 5706W        W 9906   6.883   8.855   8.545
 5707W        W 9907   3.671   5.493  10.872
 5708W        W 9908   4.926   4.339  10.505
 5709W        W 9909   0.384   8.776   0.335
 5710W        W 9910   6.951   4.585  10.353
 5711W        W 9911   8.232   9.594   8.801
 5712W        W 9912   5.028   2.896  10.621
 5713W        W 9913   9.769   4.569  10.623
 5714W        W 9914  11.153   8.473  10.413
 5715W        W 9915   4.453   7.987   1.884
 5716W        W 9916   6.430   1.311   1.259
 5717W        W 9917   1.424   9.065   1.213
 5718W        W 9918   9.917   6.490   3.596
 5719W        W 9919   1.273   7.168   2.349
 5720W        W 9920   8.081   4.170   1.074
 5721W        W 9921   4.803   5.243   1.866
 5722W        W 9922   0.395   3.462   9.423
 5723W        W 9923   6.898   1.658   2.100
 5724W        W 9924   4.428  10.270   0.929
 5725W        W 9925  10.034   8.083   9.816
 5726W        W 9926  10.298   3.975  11.981
 5727W        W 9927   8.382   6.162   1.693
 5728W        W 9928  11.300   3.404   0.856
 5729W        W 9929   4.470   6.310   1.162
 5730W        W 9930   0.018   8.549   0.650
 5731W        W 9931   8.827   1.185   3.367
 5732W        W 9932   3.870   7.107   1.474
 5733W        W 9933   9.019   4.332   0.737
 5734W        W 9934   7.748   1.477   1.647
 5735W        W 9935  11.357  10.125  11.622
 5736W        W 9936   4.171   5.062   2.330
 5737W        W 9937   8.935   7.562   1.672
 5738W        W 9938   3.170   7.705   9.414
 5739W        W 9939   2.290   4.794   0.949
 5740W        W 9940   1.433  11.441   8.822
 5741W        W 9941   1.445  11.332  11.564
 5742W        W 9942   7.133   2.928   8.823
 5743W        W 9943  11.180   9.278  11.007
 5744W        W 9944   0.422   3.745   3.246
 5745W        W 9945   1.038   8.479  10.331
 5746W        W 9946   8.828   5.979   8.369
 5747W        W 9947   6.330   0.800  10.678
 5748W        W 9948   5.517   3.711   8.148
 5749W        W 9949   9.568   8.722   3.211
 5750W        W 9950   5.906   3.385   1.867
 5751W        W 9951   2.273   8.434  10.288
 5752W        W 9952   5.699   9.107   3.572
 5753W        W 9953   3.612   1.889   9.509
 5754W        W 9954   1.345   4.773   2.192
 5755W        W 9955   6.059   8.324   2.704
 5756W        W 9956  10.353   6.612   3.354
 5757W        W 9957   0.290  10.561   9.171
 5758W        W 9958   9.555   5.549   1.130
 5759W        W 9959   8.508   0.969   2.084
 5760W        W 9960   2.907   7.854   1.314
 5761W        W 9961   0.085  10.576  11.746
 5762W        W 9962   5.190   0.968  11.434
 5763W        W 9963   9.075   7.615   2.655
 5764W        W 9964   2.267   0.856  10.843
 5765W        W 9965   6.292  10.510  10.774
 5766W        W 9966   3.499   3.760   3.571
 5767W        W 9967  10.573   9.988  10.991
 5768W        W 9968   6.167   1.742  11.025
 5769W        W 9969   8.104   7.674  11.186
 5770W        W 9970   2.284   8.897  11.051
 5771W        W 9971   8.906   6.048   0.799
 5772W        W 9972  10.192   4.250  10.579
 5773W        W 9973   3.282   9.087   9.084
 5774W        W 9974  10.513   9.026   8.917
 5775W        W 9975  10.039   9.023   2.223
 5776W        W 9976  10.341   5.355  10.638
 5777W        W 9977   1.688   3.807   2.833
 5778W        W 9978  11.277  10.278   0.625
 5779W        W 9979   1.929  11.471   1.822
 5780W        W 9980   4.520  10.916  11.455
 5781W        W 9981   2.755   2.062   9.029
 5782W        W 9982   6.160   9.076   2.324
 5783W        W 9983   8.958   0.359   2.611
 5784W        W 9984   9.557   6.443   9.590
 5785W        W 9985   1.372   3.818  10.953
 5786W        W 9986   7.425   7.601  11.709
 5787W        W 9987   0.998   3.681  10.426
 5788W        W 9988   4.894   7.203   0.569
 5789W        W 9989  10.476  10.729   2.458
 5790W        W 9990   3.313   3.753   9.772
 5791W        W 9991   1.792  11.349   3.604
 5792W        W 9992   7.190   7.472   1.089
 5793W        W 9993   3.127  10.795  11.319
 5794W        W 9994   0.328  10.051   1.406
 5795W        W 9995   8.615   1.998   1.417
 5796W        W 9996   5.169   1.936  10.945
 5797W        W 9997   4.710   6.061  10.779
 5798W        W 9998  10.075   7.597   1.373
 5799W        W 9999   2.347   9.786   2.568
 5800W        W10000  10.361   4.961   8.827
 5801W        W10001   4.646  10.585   1.789
 5802W        W10002   6.994   0.373   0.120
 5803W        W10003   0.592  11.339  11.721
 5804W        W10004   9.214   5.223  11.332
 5805W        W10005   8.017   5.665   8.689
 5806W        W10006   8.584  11.038   1.767
 5807W        W10007   2.518   4.768   2.859
 5808W        W10008   3.717   3.073   9.055
 5809W        W10009   3.548   9.346   3.729
 5810W        W10010   2.575   9.306   0.725
 5811W        W10011   2.669   4.300  10.271
 5812W        W10012   3.701   4.261   2.174
 5813W        W10013   8.485   9.599   0.158
 5814W        W10014   7.722   6.421   9.179
 5815W        W10015   1.900   0.999   0.740
 5816W        W10016   9.023  10.899   2.550
 5817W        W10017   2.834   5.553  10.762
 5818W        W10018  10.887  10.536   0.855
 5819W        W10019   5.652  10.132   9.841
 5820W        W10020   5.671   9.561   3.249
 5821W        W10021   6.566   1.256   2.319
 5822W        W10022   6.096   1.528   8.957
 5823W        W10023   0.863   4.868   8.512
 5824W        W10024   8.697   4.748   9.277
 5825W        W10025   6.210   1.603   3.019
 5826W        W10026   6.664   0.576  11.768
 5827W        W10027   4.694   1.300   0.782
 5828W        W10028   9.449   8.764  10.840
 5829W        W10029   2.690   9.169  11.240
 5830W        W10030   3.684   2.377   1.962
 5831W        W10031   0.026   8.951   2.414
 5832W        W10032   1.778   8.665   1.967
 5833W        W10033   8.946   8.457  11.035
 5834W        W10034   8.031   4.795   1.721
 5835W        W10035   7.107   6.490   1.175
 5836W        W10036   5.965   8.495   0.316
 5837W        W10037   9.901   1.885   2.477
 5838W        W10038   8.649   6.467   9.151
 5839W        W10039   6.230   3.636   3.132
 5840W        W10040   2.629   8.835   1.419
 5841W        W10041   3.675   9.924   1.351
 5842W        W10042   0.879   4.614  11.809
 5843W        W10043  11.419   3.654  11.475
 5844W        W10044  10.474   5.713  11.915
 5845W        W10045   7.492   4.067   9.822
 5846W        W10046   7.914   7.935   3.202
 5847W        W10047   1.451   9.889   9.281
 5848W        W10048  10.522   0.090   2.755
 5849W        W10049   2.247  10.660   0.856
 5850W        W10050   2.894   3.449  11.341
 5851W        W10051  11.420   1.075  11.285
 5852W        W10052   8.287   3.727   0.864
 5853W        W10053   5.332   9.795   1.187
 5854W        W10054   0.332   7.492   9.286
 5855W        W10055  10.406   4.209   1.795
 5856W        W10056   8.911   0.130   8.778
 5857W        W10057   0.374   8.365   1.456
 5858W        W10058  10.762   1.833   1.226
 5859W        W10059   1.164  10.332   2.212
 5860W        W10060  10.079   3.259  11.469
 5861W        W10061   6.413   7.810  10.898
 5862W        W10062   6.049   4.326   0.848
 5863W        W10063   6.644   1.282   0.445
 5864W        W10064   8.003   4.262  11.119
 5865W        W10065   8.747   5.800  10.574
 5866W        W10066   7.412   8.293  10.085
 5867W        W10067   8.924   8.075   9.894
 5868W        W10068   6.741  11.395   1.318
 5869W        W10069   1.633   6.162   9.532
 5870W        W10070   1.703   0.949  10.148
 5871W        W10071   1.745   2.455   3.475
 5872W        W10072   6.853   1.410   1.521
 5873W        W10073   5.237   2.158  11.840
 5874W        W10074  11.372   0.395  11.726
 5875W        W10075   2.063   9.072   2.015
 5876W        W10076   8.828   8.451   2.162
 5877W        W10077   3.907   7.038   3.257
 5878W        W10078  10.769   5.875   3.584
 5879W        W10079   2.487   7.078  10.510
 5880W        W10080  10.492   5.647   1.399
 5881W        W10081   3.187   5.626  11.533
 5882W        W10082   7.931   7.051   9.586
 5883W        W10083   6.668   0.317   3.036
 5884W        W10084   9.423   3.310   8.416
 5885W        W10085   4.727   7.033   9.014
 5886W        W10086   5.080   7.148  10.977
 5887W        W10087   8.330   4.817   2.166
 5888W        W10088  11.301   4.786   0.283
 5889W        W10089   2.369   8.578   2.739
 5890W        W10090   6.474   8.008   8.684
 5891W        W10091  11.058   2.886   1.879
 5892W        W10092   6.536   8.468   9.911
 5893W        W10093   5.558   3.274   9.806
 5894W        W10094  10.567   5.540  11.049
 5895W        W10095  10.305   0.293   1.335
 5896W        W10096   3.416  10.189   0.638
 5897W        W10097   4.923   1.156  10.507
 5898W        W10098   2.658  10.955  11.252
 5899W        W10099   7.528  10.179  11.928
 5900W        W10100   2.119   6.655   0.361
 5901W        W10101  10.436   1.043   9.693
 5902W        W10102   7.338   8.329   1.421
 5903W        W10103   2.585   8.821  10.350
 5904W        W10104   2.679   5.836   1.624
 5905W        W10105   7.639   9.597   2.769
 5906W        W10106   8.660   3.282   2.629
 5907W        W10107   6.444  11.397   2.826
 5908W        W10108   5.304   4.766   9.423
 5909W        W10109   1.685   9.730  10.101
 5910W        W10110   0.309   7.555   2.715
 5911W        W10111   2.837  10.392   1.387
 5912W        W10112  10.388   3.824   1.206
 5913W        W10113   6.227   8.159   9.102
 5914W        W10114   9.530   0.231   0.568
 5915W        W10115   6.095   7.026   1.683
 5916W        W10116   4.481  10.491  10.597
 5917W        W10117   0.364  11.023   8.963
 5918W        W10118  11.076   1.886   0.792
 5919W        W10119   3.381   9.788   0.955
 5920W        W10120   5.438   1.055  10.432
 5921W        W10121   6.546   9.541   1.633
 5922W        W10122   6.196   1.867   8.415
 5923W        W10123   0.275   8.484   8.783
 5924W        W10124   1.661   3.143  11.945
 5925W        W10125   9.085   8.517   3.178
 5926W        W10126   4.665   8.775   9.798
 5927W        W10127   9.280   2.848   8.988
 5928W        W10128   7.254  11.483   1.323
 5929W        W10129   6.281   8.817   0.032
 5930W        W10130   9.451   6.183   8.684
 5931W        W10131  10.006   4.567   1.791
 5932W        W10132   1.726   1.950   3.560
 5933W        W10133   0.990   2.228   3.633
 5934W        W10134  11.255   9.453  10.525
 5935W        W10135   2.591   1.098   8.783
 5936W        W10136  10.885   4.723   9.969
 5937W        W10137   2.128   6.812  10.767
 5938W        W10138   7.137   7.941  11.970
 5939W        W10139   1.442  10.871  10.749
 5940W        W10140   9.270   7.498  11.910
 5941W        W10141   4.259   8.474   1.861
 5942W        W10142  10.008   5.773   1.235
 5943W        W10143   4.456  10.670   2.263
 5944W        W10144  10.068   2.653  11.976
 5945W        W10145   2.816   8.593   1.833
 5946W        W10146  10.511   4.543  10.292
 5947W        W10147   7.405   9.869  10.987
 5948W        W10148   4.133  11.100   2.220
 5949W        W10149   8.198   8.599   0.860
 5950W        W10150   8.967   6.771   0.502
 5951W        W10151   6.708   1.862   9.810
 5952W        W10152   1.612   0.672   0.430
 5953W        W10153   9.166   6.733   2.662
 5954W        W10154   9.005   7.390   0.811
 5955W        W10155   7.109   5.569   9.971
 5956W        W10156   2.635   9.909   1.367
 5957W        W10157  11.323   0.672   0.156
 5958W        W10158   7.123   2.525   0.267
 5959W        W10159   5.305   5.254   1.485
 5960W        W10160   5.216   0.220  10.176
 5961W        W10161  11.035   8.867   2.343
 5962W        W10162   0.710   9.267   8.849
 5963W        W10163   7.522   1.814   2.468
 5964W        W10164  10.972   5.980   8.970
 5965W        W10165   2.685  11.350   3.007
 5966W        W10166   0.693   4.106  11.540
 5967W        W10167   8.888   5.590  11.029
 5968W        W10168  11.182   7.210  11.479
 5969W        W10169   5.794   6.989  10.061
 5970W        W10170   9.152   2.257   3.464
 5971W        W10171   1.756  11.308   2.287
 5972W        W10172   6.932   2.226  10.088
 5973W        W10173  10.422   7.568   8.858
 5974W        W10174   0.882   0.244   1.656
 5975W        W10175   8.615   8.975  11.470
 5976W        W10176   1.432   9.806   2.040
 5977W        W10177   4.277   4.332   2.808
 5978W        W10178  10.065   5.067   1.945
 5979W        W10179  10.381  11.061  11.587
 5980W        W10180  10.622   3.144   2.866
 5981W        W10181  10.963   7.669  10.792
 5982W        W10182   7.028   7.120  11.049
 5983W        W10183   9.368   9.536  11.696
 5984W        W10184  10.610   8.027   0.898
 5985W        W10185   5.056   5.235  10.959
 5986W        W10186   1.582   1.936   2.622
 5987W        W10187   1.455   4.511   1.091
 5988W        W10188   9.244   7.069  11.509
 5989W        W10189   0.173   9.474   2.614
 5990W        W10190   1.069   6.680   0.317
 5991W        W10191  11.419   1.506  11.578
 5992W        W10192   6.245   8.946   9.360
 5993W        W10193   3.686  10.843   2.258
 5994W        W10194   6.163   5.713  11.755
 5995W        W10195   5.568   1.847   2.678
 5996W        W10196   2.515   8.961   9.476
 5997W        W10197  10.029  10.962   0.423
 5998W        W10198   9.891   8.503   3.553
 5999W        W10199   7.104   7.005   3.453
 6000W        W10200   4.217  10.021  10.296
 6001W        W10201   3.327  10.339  11.287
 6002W        W10202   3.013   6.237   1.587
 6003W        W10203   2.757   0.398   2.980
 6004W        W10204   6.151  11.018  11.916
 6005W        W10205   7.993   6.102   2.009
 6006W        W10206   4.563   4.336  11.361
 6007W        W10207   5.037   0.174   0.750
 6008W        W10208   4.067   9.679  11.067
 6009W        W10209  10.007   8.554   2.986
 6010W        W10210   5.124   3.592   3.189
 6011W        W10211  10.423   1.926  10.007
 6012W        W10212   2.726   5.509   3.583
 6013W        W10213   7.673   9.858  10.507
 6014W        W10214   8.267   5.561   1.208
 6015W        W10215   3.881   0.756  11.764
 6016W        W10216   1.041   7.004   3.641
 6017W        W10217   2.167   8.130   3.367
 6018W        W10218   0.566   7.969   3.620
 6019W        W10219   7.935   1.421   9.734
 6020W        W10220   1.373   2.516   8.771
 6021W        W10221   8.249   8.062  10.560
 6022W        W10222  10.841   0.995   2.222
 6023W        W10223   0.503   1.905   0.999
 6024W        W10224   9.368   9.612   9.427
 6025W        W10225   7.929   5.175   2.256
 6026W        W10226   8.799   4.599   2.268
 6027W        W10227   5.132   3.706   0.206
 6028W        W10228   9.293   7.132   2.347
 6029W        W10229   8.343   0.460   9.434
 6030W        W10230   7.888  11.240   0.756
 6031W        W10231   1.022   7.330  10.916
 6032W        W10232   9.151   5.145   9.905
 6033W        W10233   6.516  10.266   0.319
 6034W        W10234   6.986   3.583   2.664
 6035W        W10235   6.197  11.426   1.901
 6036W        W10236   6.097   9.487   3.552
 6037W        W10237   1.501   8.898   3.624
 6038W        W10238   5.543   9.501   0.781
 6039W        W10239  11.022   3.237   9.115
 6040W        W10240   0.726   6.499   3.515
 6041W        W10241  11.490   5.359  11.230
 6042W        W10242   2.729   4.020   2.497
 6043W        W10243   9.771   3.085   0.028
 6044W        W10244   7.099   4.462  10.855
 6045W        W10245   3.801   6.960   0.637
 6046W        W10246   7.432   6.675   2.249
 6047W        W10247  11.028  10.949   9.531
 6048W        W10248   6.988   8.679  11.569
 6049W        W10249   4.633   7.221   1.043
 6050W        W10250   1.746   0.340   2.162
 6051W        W10251   5.506   4.549   9.844
 6052W        W10252  10.390   3.059  11.093
 6053W        W10253  10.188   7.036   1.417
 6054W        W10254   2.433   8.617   9.849
 6055W        W10255   8.437   0.293  10.998
 6056W        W10256  10.945   5.407   3.461
 6057W        W10257  10.602   1.419   2.403
 6058W        W10258   9.596   8.235   0.905
 6059W        W10259   3.623   9.491  11.295
 6060W        W10260   6.581   0.335  10.558
 6061W        W10261   3.678   5.782   9.979
 6062W        W10262   6.979   1.745  11.763
 6063W        W10263   9.857   8.142  10.325
 6064W        W10264  10.373   3.986   2.569
 6065W        W10265   8.246   2.186   2.769
 6066W        W10266  10.214   2.173  11.388
 6067W        W10267   2.442  10.383   3.203
 6068W        W10268   3.810   9.800  10.095
 6069W        W10269   8.639   0.951   8.599
 6070W        W10270   2.598   4.872   1.789
 6071W        W10271   6.047   3.223   2.862
 6072W        W10272   2.685   3.388   9.443
 6073W        W10273  10.011   7.677  10.624
 6074W        W10274   6.896   5.876  10.909
 6075W        W10275   5.929  10.795   2.239
 6076W        W10276   4.492   7.653   1.301
 6077W        W10277   9.656  11.073   1.413
 6078W        W10278   5.904   5.021   2.248
 6079W        W10279   9.952   2.265   9.291
 6080W        W10280   4.553   4.449   4.052
 6081W        W10281   9.079   8.210   0.966
 6082W        W10282   6.071   8.496  10.778
 6083W        W10283  10.172  10.328   2.147
 6084W        W10284   6.270   8.482   8.693
 6085W        W10285   7.702   3.497   1.195
 6086W        W10286   1.836   1.744   2.204
 6087W        W10287   3.135  11.342   9.593
 6088W        W10288   8.960   0.675  11.743
 6089W        W10289   0.773   9.265   9.841
 6090W        W10290   9.353   4.742   0.818
 6091W        W10291   2.204   5.740   1.456
 6092W        W10292   0.781   4.310   9.100
 6093W        W10293   8.905   3.916   9.024
 6094W        W10294   0.292   9.782   0.429
 6095W        W10295   1.959   7.803   8.605
 6096W        W10296   4.861   8.942   1.051
 6097W        W10297  10.865   5.039   9.557
 6098W        W10298   7.378   9.650   9.301
 6099W        W10299   4.307   9.473   2.510
 6100W        W10300  11.079   4.305   1.017
 6101W        W10301   0.879   4.109   2.167
 6102W        W10302   5.804   6.152  10.221
 6103W        W10303   3.458   9.533   9.860
 6104W        W10304   9.928   1.707   1.528
 6105W        W10305   9.504   5.370   0.151
 6106W        W10306   2.833   5.728   0.712
 6107W        W10307   6.986   4.739  11.654
 6108W        W10308   8.737   8.557   1.676
 6109W        W10309   3.894   9.836   0.893
 6110W        W10310   9.562   3.763  11.360
 6111W        W10311   3.683   0.240  10.533
 6112W        W10312   4.616   6.994  11.089
 6113W        W10313   7.835   0.855  11.249
 6114W        W10314   8.478  11.291  10.037
 6115W        W10315   2.750  10.665   0.174
 6116W        W10316   8.961   2.833  10.603
 6117W        W10317   4.479  10.960   3.424
 6118W        W10318  10.370  10.614  11.282
 6119W        W10319   3.737   8.098   0.310
 6120W        W10320   2.811   8.213  11.510
 6121W        W10321   4.719   3.302  10.553
 6122W        W10322   1.168   8.969   9.753
 6123W        W10323  10.123   1.450  11.345
 6124W        W10324   6.242   1.380   9.472
 6125W        W10325   0.489   7.845  10.404
 6126W        W10326   3.096   8.939   0.492
 6127W        W10327   3.318   0.420   0.498
 6128W        W10328   5.186   8.156   9.429
 6129W        W10329  11.220   2.778   9.334
 6130W        W10330   9.371  10.578   2.326
 6131W        W10331   8.934  10.643   3.469
 6132W        W10332   0.338   8.852  11.375
 6133W        W10333   2.181   2.405   9.532
 6134W        W10334   8.044   0.369   1.469
 6135W        W10335   9.693  11.470   9.440
 6136W        W10336   1.684   4.802  11.555
 6137W        W10337   1.923  10.540   1.805
 6138W        W10338   8.158   8.913   0.382
 6139W        W10339   6.298   6.640   1.919
 6140W        W10340   4.199   4.627  11.764
 6141W        W10341   7.086   8.927   0.600
 6142W        W10342   4.186   2.737   3.628
 6143W        W10343   2.980   3.728   3.656
 6144W        W10344   3.724   8.844   9.236
 6145W        W10345   6.432   0.463   0.211
 6146W        W10346   6.160  11.241   2.360
 6147W        W10347   5.139   6.577   0.697
 6148W        W10348   5.166  11.100   2.723
 6149W        W10349   2.736   0.199  10.433
 6150W        W10350   7.726  10.808   2.138
 6151W        W10351   8.135  11.048   1.461
 6152W        W10352   5.444   8.039  10.759
 6153W        W10353  10.295   1.296   0.690
 6154W        W10354   5.564   8.614   3.774
 6155W        W10355   9.521   2.528   0.607
 6156W        W10356   5.205   4.478   2.821
 6157W        W10357   0.966   3.135   3.580
 6158W        W10358   2.381  11.145   0.960
 6159W        W10359   3.641   6.910  10.661
 6160W        W10360   6.598   5.619  10.115
 6161W        W10361   6.439   2.388  11.458
 6162W        W10362   1.987   8.492  10.894
 6163W        W10363   1.176   9.447   9.516
 6164W        W10364   6.302   7.194   0.427
 6165W        W10365   8.828   1.669   0.173
 6166W        W10366   9.773   2.841   2.363
 6167W        W10367   4.025   4.628   1.385
 6168W        W10368   5.455  10.099   2.956
 6169W        W10369   6.305  10.287   8.985
 6170W        W10370   7.068  10.931   9.085
 6171W        W10371   5.690   2.816   2.878
 6172W        W10372   1.161   1.667  11.764
 6173W        W10373  11.499   9.095  11.951
 6174W        W10374   7.876   5.466  11.880
 6175W        W10375   5.572   7.107  11.132
 6176W        W10376   4.295   2.049   8.790
 6177W        W10377   6.216   6.478   1.454
 6178W        W10378   3.416   9.763   2.670
 6179W        W10379   0.721   1.156   0.200
 6180W        W10380   0.279  10.059   9.021
 6181W        W10381   7.129   9.993   9.604
 6182W        W10382  10.926   6.235   2.505
 6183W        W10383   6.646  10.341   2.212
 6184W        W10384  10.878   3.443   9.637
 6185W        W10385   7.941   1.311  10.248
 6186W        W10386   9.818   4.249   9.798
 6187W        W10387   7.276   0.749   2.334
 6188W        W10388   0.964   7.851   2.515
 6189W        W10389  10.383   9.893   9.984
 6190W        W10390   3.733   6.475   0.358
 6191W        W10391   5.387   5.524   2.754
 6192W        W10392   1.854   4.101   1.328
 6193W        W10393   9.125  10.733   8.950
 6194W        W10394  10.027   1.820   9.032
 6195W        W10395  10.278   0.745   3.313
 6196W        W10396   1.341   6.588  11.343
 6197W        W10397   6.518   1.760   9.271
 6198W        W10398   9.308   0.475   8.767
 6199W        W10399   6.618  10.528   9.700
 6200W        W10400   1.808   8.556  10.417
 6201W        W10401   6.564   4.201   0.239
 6202W        W10402   0.641   4.494   3.373
 6203W        W10403   9.314   4.147  11.984
 6204W        W10404   6.700   9.449   1.161
 6205W        W10405   9.969  10.566   1.720
 6206W        W10406   2.106   7.572   0.247
 6207W        W10407   8.893   1.035   2.866
 6208W        W10408   8.571  10.353   3.179
 6209W        W10409   6.974  11.445  11.867
 6210W        W10410   3.429   9.922   1.791
 6211W        W10411   6.199   8.598   0.858
 6212W        W10412  11.205   7.915  10.356
 6213W        W10413  11.236   0.865   3.034
 6214W        W10414   7.741   0.760  10.032
 6215W        W10415   8.131   5.424   0.737
 6216W        W10416   9.057   5.685   1.117
 6217W        W10417   6.186   7.622   3.587
 6218W        W10418   8.827   1.478   0.868
 6219W        W10419   5.973  11.348  10.381
 6220W        W10420   5.964   8.074   8.640
 6221W        W10421   8.439   7.384   2.298
 6222W        W10422   4.583   0.070  11.995
 6223W        W10423  10.015   3.317   2.255
 6224W        W10424   8.719   8.411   9.574
 6225W        W10425  11.373   3.226   2.143
 6226W        W10426   0.686   1.655   0.009
 6227W        W10427   4.886   2.293   0.619
 6228W        W10428   9.367   8.591   3.693
 6229W        W10429  10.280   2.673  11.444
 6230W        W10430  10.581   8.118   9.191
 6231W        W10431   8.646   8.740   3.331
 6232W        W10432   0.936  10.295  11.850
 6233W        W10433   8.219   5.975  10.472
 6234W        W10434   2.253   9.943   3.608
 6235W        W10435   3.618   7.252   0.068
 6236W        W10436   4.747   9.921  11.445
 6237W        W10437   0.376  10.296  10.495
 6238W        W10438   9.295   0.579  10.935
 6239W        W10439   5.073   1.897   2.751
 6240W        W10440   2.003  10.223   0.753
 6241W        W10441   1.014   6.061  10.784
 6242W        W10442   4.894   7.544   3.049
 6243W        W10443   5.434   0.464   3.237
 6244W        W10444   7.947   0.492  10.884
 6245W        W10445   4.561   3.198   1.683
 6246W        W10446   2.266   6.745   1.810
 6247W        W10447   9.328   1.451   0.011
 6248W        W10448   3.765   0.383   1.861
 6249W        W10449   7.485   3.555  10.015
 6250W        W10450   4.504   7.523  11.832
 6251W        W10451   4.598   3.889  10.041
 6252W        W10452   5.742   5.691   9.547
 6253W        W10453   8.893  10.283  11.531
 6254W        W10454   5.477   1.369  11.510
 6255W        W10455   5.181   0.464   9.738
 6256W        W10456  11.456   6.895   2.641
 6257W        W10457   1.911   8.116  11.297
 6258W        W10458   5.981   5.332   0.746
 6259W        W10459  10.814   7.284  10.496
 6260W        W10460   5.673   8.074   1.526
 6261W        W10461   0.902  10.949   2.767
 6262W        W10462   0.805   6.385  11.991
 6263W        W10463   1.334  11.250   2.685
 6264W        W10464   7.277   6.902   1.417
 6265W        W10465   4.765   9.319  11.208
 6266W        W10466   8.808   8.951   2.011
 6267W        W10467   8.576   4.554   0.452
 6268W        W10468   8.896   4.241   1.674
 6269W        W10469   7.849   3.538   3.640
 6270W        W10470   5.620   8.023   0.983
 6271W        W10471   0.863   9.687  11.038
 6272W        W10472   9.881  11.456   2.155
 6273W        W10473   1.838   0.353   3.173
 6274W        W10474   9.065   6.231  11.155
 6275W        W10475   9.846  10.441  10.598
 6276W        W10476   7.832   5.613   2.578
 6277W        W10477  11.322   6.510   2.296
 6278W        W10478   0.148   2.173  10.322
 6279W        W10479   3.541   4.261  11.496
 6280W        W10480  10.498   0.380  10.438
 6281W        W10481   9.670   0.734   1.651
 6282W        W10482   3.975   3.655   1.197
 6283W        W10483   2.602   6.186   0.750
 6284W        W10484  11.079   4.701  11.813
 6285W        W10485   1.637   4.795   0.544
 6286W        W10486   4.154  10.546  11.016
 6287W        W10487   1.616   1.850   8.525
 6288W        W10488   3.679   8.356   9.429
 6289W        W10489   1.424  10.714   2.429
 6290W        W10490   4.296  10.344   9.600
 6291W        W10491   7.291   3.691   3.151
 6292W        W10492   1.183   4.553   0.646
 6293W        W10493   7.592  10.342  11.440
 6294W        W10494   9.006   9.822   9.123
 6295W        W10495   3.308   2.105   0.862
 6296W        W10496   4.219   2.012   2.200
 6297W        W10497   3.375   1.803  10.794
 6298W        W10498   1.376   8.016   2.270
 6299W        W10499   3.097   4.269   9.136
 6300W        W10500   7.141   3.043   1.920
 6301W        W10501   2.658   8.998   2.856
 6302W        W10502   7.666   3.645   9.517
 6303W        W10503  10.962  11.005   3.142
 6304W        W10504   7.719   0.394  10.414
 6305W        W10505   2.324   4.373   2.607
 6306W        W10506   8.376   2.912   9.498
 6307W        W10507   3.402   4.458   8.500
 6308W        W10508   9.212   6.977   3.859
 6309W        W10509   6.703   2.835  10.066
 6310W        W10510   7.848   1.012   8.888
 6311W        W10511   3.865   6.490  10.450
 6312W        W10512   5.701   1.864   1.114
 6313W        W10513   9.582   1.883   9.323
 6314W        W10514   8.947  11.218   9.099
 6315W        W10515   1.430   0.772   2.939
 6316W        W10516   2.666   8.721  11.535
 6317W        W10517   6.839  10.077   3.102
 6318W        W10518   6.923   1.943   8.997
 6319W        W10519   3.631   9.376  10.337
 6320W        W10520   9.367   0.511   3.403
 6321W        W10521   5.042   4.620   8.197
 6322W        W10522   9.999   2.341   0.379
 6323W        W10523   2.150   4.604   1.873
 6324W        W10524   6.755   8.372   8.471
 6325W        W10525  10.665   6.095  10.273
 6326W        W10526   7.485   1.254  10.023
 6327W        W10527   4.114   1.898   9.615
 6328W        W10528   5.942   9.126   9.000
 6329W        W10529   1.382   3.573   9.019
 6330W        W10530   9.583   6.150  11.055
 6331W        W10531   1.075   4.500   2.556
 6332W        W10532   1.730   3.923   8.918
 6333W        W10533   1.938   2.098   1.382
 6334W        W10534   3.748   3.141  10.796
 6335W        W10535   5.660   1.008   0.843
 6336W        W10536   9.413   0.825  11.368
 6337W        W10537   5.499   7.048   1.352
 6338W        W10538   3.618   9.530  11.865
 6339W        W10539  10.377   7.114   3.260
 6340W        W10540   0.162   2.364   3.257
 6341W        W10541  10.384   4.032   3.096
 6342W        W10542   9.415   3.172   3.274
 6343W        W10543   0.914   4.031   2.665
 6344W        W10544   8.190   3.855   2.942
 6345W        W10545   7.926   8.001   0.134
 6346W        W10546   0.754   4.695   0.926
 6347W        W10547   8.172   2.373   9.337
 6348W        W10548   5.601   4.727   1.979
 6349W        W10549   3.929   8.939   0.969
 6350W        W10550   8.871   6.039   1.853
 6351W        W10551   6.703   0.899   9.812
 6352W        W10552   8.807   3.451  11.987
 6353W        W10553   6.556   2.592   0.919
 6354W        W10554   6.934   6.003   1.823
 6355W        W10555   9.552   8.628   9.416
 6356W        W10556   1.333  10.778   0.427
 6357W        W10557   3.712   8.393  10.797
 6358W        W10558   0.807   1.748   9.959
 6359W        W10559   1.810   9.350   0.314
 6360W        W10560   2.348   5.224   9.999
 6361W        W10561   9.304   1.713   0.852
 6362W        W10562   9.836   0.207   2.761
 6363W        W10563   9.434  11.047   9.264
 6364W        W10564   2.023   2.698   3.124
 6365W        W10565   9.297   1.086   1.693
 6366W        W10566  10.420   5.944   9.029
 6367W        W10567   3.087   1.112   9.702
 6368W        W10568   8.458   7.518   0.411
 6369W        W10569   5.575  10.182   3.479
 6370W        W10570   9.104   1.867   3.145
 6371W        W10571   9.483   3.315   9.893
 6372W        W10572   9.326   5.745  11.276
 6373W        W10573   0.545   6.986   3.506
 6374W        W10574  10.236   3.124   3.531
 6375W        W10575   3.644   3.128   9.898
 6376W        W10576   1.391   8.123   9.263
 6377W        W10577   0.435   9.801   2.917
 6378W        W10578   1.329   0.418   3.277
 6379W        W10579   6.666   7.170   2.721
 6380W        W10580   7.353   3.571  11.878
 6381W        W10581   7.649  11.032   0.319
 6382W        W10582   4.804   8.942   1.999
 6383W        W10583   4.231   4.373   3.644
 6384W        W10584   5.464   8.471   0.238
 6385W        W10585   1.766   2.219   9.810
 6386W        W10586   8.613   5.888   2.291
 6387W        W10587   1.201   9.924  10.252
 6388W        W10588   3.039   7.400   1.166
 6389W        W10589   9.817   2.854   1.392
 6390W        W10590   6.062   0.387   1.220
 6391W        W10591   4.353  11.315   1.347
 6392W        W10592   5.938   6.259   1.851
 6393W        W10593   0.797  10.500  11.410
 6394W        W10594   7.133   2.752   1.117
 6395W        W10595   5.335   4.165   8.311
 6396W        W10596   1.388  10.971   9.021
 6397W        W10597   4.614   9.188   8.902
 6398W        W10598   1.161   9.998   0.231
 6399W        W10599   4.928   3.363   0.911
 6400W        W10600  11.148   1.627   3.476
 6401W        W10601   4.902   2.830   9.514
 6402W        W10602  10.145   7.925   9.336
 6403W        W10603   5.211  10.106  11.360
 6404W        W10604   2.752   3.860  10.495
 6405W        W10605   7.190   3.015   2.436
 6406W        W10606   2.847   6.030   0.296
 6407W        W10607   9.426   5.682   8.888
 6408W        W10608   8.480   4.096   8.757
 6409W        W10609  11.008   2.301   0.492
 6410W        W10610   5.238   2.402   9.456
 6411W        W10611   2.145   8.992  10.054
 6412W        W10612   4.013  10.447   2.393
 6413W        W10613   0.439   6.940   0.227
 6414W        W10614   9.581   5.036   1.222
 6415W        W10615   3.322  10.415   1.626
 6416W        W10616   3.380   6.655   0.684
 6417W        W10617   3.280   1.588   0.676
 6418W        W10618   4.612   8.427  11.255
 6419W        W10619   7.944   2.814   9.234
 6420W        W10620  10.375   1.809   3.185
 6421W        W10621   3.687   1.292   0.809
 6422W        W10622   1.664   9.104   9.873
 6423W        W10623   4.594   5.242  10.184
 6424W        W10624   5.141   0.428  11.268
 6425W        W10625   8.201  10.738   1.918
 6426W        W10626   2.398   9.366  10.798
 6427W        W10627  10.432   3.984  11.411
 6428W        W10628   6.146   2.838   9.392
 6429W        W10629   1.350   7.575   0.659
 6430W        W10630   4.039   2.902   8.635
 6431W        W10631  10.114   3.830   0.463
 6432W        W10632  11.336   1.392  10.293
 6433W        W10633   8.015   6.994   0.201
 6434W        W10634   1.128   9.483  11.442
 6435W        W10635  11.326   9.841   2.471
 6436W        W10636   9.558  11.126  10.720
 6437W        W10637   4.179   8.152  11.434
 6438W        W10638   9.421   6.886   1.166
 6439W        W10639   4.734   5.748   1.818
 6440W        W10640   3.144  10.963  10.350
 6441W        W10641   7.179   2.913   0.626
 6442W        W10642   6.672   0.028   9.636
 6443W        W10643   7.156  10.475   0.938
 6444W        W10644   9.628   1.242   2.160
 6445W        W10645   3.834  11.245   0.432
 6446W        W10646   6.873   8.122   3.995
 6447W        W10647   1.244   9.403   1.760
 6448W        W10648   4.187   6.618   3.127
 6449W        W10649   9.529   8.727  11.336
 6450W        W10650   1.198   5.924   0.840
 6451W        W10651  11.495   0.497   2.167
 6452W        W10652   2.912   8.025   1.817
 6453W        W10653   4.748   4.441   8.613
 6454W        W10654  10.448   3.753  10.349
 6455W        W10655   6.072   4.573   8.894
 6456W        W10656   3.404   0.003   8.681
 6457W        W10657   0.924   5.089  10.819
 6458W        W10658   0.211  10.558  10.095
 6459W        W10659   9.143  10.827  10.714
 6460W        W10660   7.588   6.073   1.034
 6461W        W10661   9.537   9.091   3.605
 6462W        W10662   7.698   2.141  11.318
 6463W        W10663   0.465   9.115  11.805
 6464W        W10664  10.364   5.459  10.143
 6465W        W10665   8.904   3.289   2.141
 6466W        W10666   0.415   9.045   2.740
 6467W        W10667   9.172   3.303  10.708
 6468W        W10668   4.810   8.507   9.378
 6469W        W10669  11.245   4.765   2.940
 6470W        W10670   7.183  11.228   2.345
 6471W        W10671   6.108   4.041   0.400
 6472W        W10672   1.855   3.766   9.808
 6473W        W10673  11.284   8.628   2.752
 6474W        W10674   1.540   8.281  11.636
 6475W        W10675   8.006  11.475   8.878
 6476W        W10676   0.700   5.285   8.790
 6477W        W10677   3.797   9.284  10.858
 6478W        W10678   2.767   6.975   9.253
 6479W        W10679   8.058   5.963  11.908
 6480W        W10680   3.898   2.362  10.294
 6481W        W10681   8.413   1.290   9.983
 6482W        W10682   0.455  11.043   2.159
 6483W        W10683   0.894   2.359  11.209
 6484W        W10684   9.645   6.119   3.378
 6485W        W10685   2.720   5.199   3.029
 6486W        W10686   1.754   8.892   0.845
 6487W        W10687   7.005  10.710  11.261
 6488W        W10688  11.064   7.232   2.618
 6489W        W10689   9.852   5.462  10.395
 6490W        W10690   1.315   3.263   3.217
 6491W        W10691   7.546   2.824   0.255
 6492W        W10692   4.387   0.504  11.100
 6493W        W10693   0.916   9.950   2.743
 6494W        W10694  10.336   0.887   0.994
 6495W        W10695   5.586   6.925   9.540
 6496W        W10696   0.221   6.616   3.665
 6497W        W10697   6.411   8.078   2.410
 6498W        W10698   5.613   3.676   2.799
 6499W        W10699   5.275   3.128  10.210
 6500W        W10700   1.336   5.836   1.326
 6501W        W10701   8.425   7.936   9.511
 6502W        W10702   5.731   0.868   8.656
 6503W        W10703   7.446   0.016  10.702
 6504W        W10704   9.021   2.017  11.865
 6505W        W10705   8.838   9.948   1.623
 6506W        W10706   4.176   8.238  10.935
 6507W        W10707  10.034   8.627  10.189
 6508W        W10708   6.413   0.456   9.727
 6509W        W10709   5.141  11.120   2.214
 6510W        W10710   2.866   6.975   0.352
 6511W        W10711   1.809   1.764   9.523
 6512W        W10712   7.882   0.182   9.333
 6513W        W10713   9.314   1.717  10.884
 6514W        W10714   4.008  11.301   1.739
 6515W        W10715   0.476   0.593   0.962
 6516W        W10716  11.396   9.512   0.266
 6517W        W10717   2.241  10.987  11.876
 6518W        W10718  10.427   0.837  10.171
 6519W        W10719   8.792   9.483   8.792
 6520W        W10720   0.033   8.117   9.529
 6521W        W10721   9.585   1.649   0.427
 6522W        W10722   5.239   4.277   0.389
 6523W        W10723   0.646   5.007   0.048
 6524W        W10724   3.474   7.797  10.343
 6525W        W10725  10.093   6.980  11.745
 6526W        W10726   4.075  11.423  11.985
 6527W        W10727   4.174   0.347   1.025
 6528W        W10728   1.763   8.104  10.139
 6529W        W10729   7.467   8.931   3.381
 6530W        W10730  10.409   9.932   2.411
 6531W        W10731   6.083   7.129   2.192
 6532W        W10732  10.344   4.700   0.957
 6533W        W10733  10.491   5.149   1.199
 6534W        W10734   7.830   9.899   3.151
 6535W        W10735  11.474   7.121   1.733
 6536W        W10736   6.148  10.326   9.873
 6537W        W10737   7.622   0.254   3.200
 6538W        W10738   2.879   6.625   0.758
 6539W        W10739   2.735  10.406  11.201
 6540W        W10740   4.213   3.587   3.300
 6541W        W10741  10.523   8.451   1.677
 6542W        W10742   0.217   0.834   9.227
 6543W        W10743   5.563   8.803  11.437
 6544W        W10744   5.982   8.304   9.934
 6545W        W10745   7.363   2.097   0.424
 6546W        W10746   3.131   1.784   3.008
 6547W        W10747   1.423   5.318   1.824
 6548W        W10748   5.946   8.591   9.079
 6549W        W10749   0.312   1.824   0.533
 6550W        W10750   0.328   4.709   2.046
 6551W        W10751   1.755   9.891   3.349
 6552W        W10752   1.229   6.694   2.151
 6553W        W10753   0.554   4.389   2.462
 6554W        W10754   5.748   0.798   1.304
 6555W        W10755   1.595   6.124   2.899
 6556W        W10756   0.482   8.047   2.632
 6557W        W10757   9.037   7.210   1.326
 6558W        W10758   1.749  10.891   3.251
 6559W        W10759   9.798   5.625   8.514
 6560W        W10760   0.593   7.624   2.263
 6561W        W10761   6.255   7.960   3.220
 6562W        W10762   4.397   5.384   0.256
 6563W        W10763   4.918   5.209   0.014
 6564W        W10764   6.576   0.366   9.230
 6565W        W10765   0.879   6.838  10.848
 6566W        W10766   6.514   9.159   1.953
 6567W        W10767   2.700   2.036   9.970
 6568W        W10768   5.020   8.409   9.853
 6569W        W10769   9.291   3.297   0.016
 6570W        W10770   8.330   8.007   3.537
 6571W        W10771   1.237   6.807   1.106
 6572W        W10772   8.922   2.134  11.379
 6573W        W10773   8.566   4.048   1.234
 6574W        W10774  10.146   5.925  10.331
 6575W        W10775   1.716   1.011   2.595
 6576W        W10776   4.205   4.344  10.916
 6577W        W10777   5.996  11.430   0.915
 6578W        W10778   1.049   6.222  11.555
 6579W        W10779   8.950   6.633  11.502
 6580W        W10780   5.467   6.203   0.827
 6581W        W10781   0.833   0.500  11.342
 6582W        W10782   2.672   0.262   1.493
 6583W        W10783   6.881   2.524   9.034
 6584W        W10784   7.818   9.364   1.972
 6585W        W10785   9.506   7.900   2.713
 6586W        W10786   5.612   5.677   1.490
 6587W        W10787   4.176   8.306   0.465
 6588W        W10788   7.711   6.921   1.009
 6589W        W10789   1.245   1.777   3.613
 6590W        W10790   6.155   6.214  10.589
 6591W        W10791   9.461   1.923   1.351
 6592W        W10792   2.311   3.130   0.873
 6593W        W10793   2.226   9.136   1.542
 6594W        W10794   7.112   3.803   0.293
 6595W        W10795   4.032   4.268   9.134
 6596W        W10796   2.800   0.670  11.858
 6597W        W10797   4.165  10.415   2.935
 6598W        W10798   9.529   4.888  10.996
 6599W        W10799   8.982   9.461  10.938
 6600W        W10800  11.264   1.836   8.559
 6601W        W10801   8.029  11.480  10.857
 6602W        W10802   8.637   1.806  10.381
 6603W        W10803   4.751   8.486   1.750
 6604W        W10804   8.630   0.218   9.785
 6605W        W10805   4.087   5.118   9.036
 6606W        W10806   3.194   7.209   9.430
 6607W        W10807   3.707   7.270  11.570
 6608W        W10808   5.537   7.129   0.813
 6609W        W10809   4.930   1.402   1.239
 6610W        W10810   9.733   7.066   3.730
 6611W        W10811   0.963   0.107   3.512
 6612W        W10812   3.791   9.581   9.434
 6613W        W10813  11.333   0.196   1.177
 6614W        W10814   0.928   8.778  10.816
 6615W        W10815   1.463  10.387   9.489
 6616W        W10816   6.196  10.409   2.532
 6617W        W10817   9.436  11.038   0.038
 6618W        W10818   0.371   2.155   9.300
 6619W        W10819   7.378   3.353   0.400
 6620W        W10820   2.422   4.583   8.809
 6621W        W10821   9.949   7.251   0.993
 6622W        W10822   0.485   3.848   9.091
 6623W        W10823   9.546   3.818   9.842
 6624W        W10824   8.605   1.281   0.436
 6625W        W10825   0.294   9.039   9.847
 6626W        W10826   8.001  10.321  11.797
 6627W        W10827   6.258   7.891  10.005
 6628W        W10828   2.821   0.937   0.771
 6629W        W10829   2.898   4.438   1.831
 6630W        W10830   6.087  10.055  10.724
 6631W        W10831  10.448   1.685   1.640
 6632W        W10832   0.437  11.228   2.779
 6633W        W10833   2.124   6.443   2.201
 6634W        W10834   5.408   4.094   3.093
 6635W        W10835   3.107   0.823   0.267
 6636W        W10836   7.615  10.720   3.494
 6637W        W10837   4.549   7.112   0.142
 6638W        W10838  10.830   6.595   1.692
 6639W        W10839   2.453  10.726   8.712
 6640W        W10840   7.017   6.906   1.935
 6641W        W10841   0.278   1.930   2.351
 6642W        W10842   2.662   7.045   1.006
 6643W        W10843   1.570   6.215   8.698
 6644W        W10844   6.063   9.262  10.128
 6645W        W10845   6.122   0.808   0.935
 6646W        W10846   6.154  10.205   0.695
 6647W        W10847   3.651   7.892  10.920
 6648W        W10848   7.435   4.647  11.907
 6649W        W10849   9.791   0.561  10.929
 6650W        W10850   7.135   7.911   0.560
 6651W        W10851   1.440   3.050   8.865
 6652W        W10852  10.863   9.051   1.875
 6653W        W10853   8.585   8.884  10.945
 6654W        W10854   9.061   8.882  11.745
 6655W        W10855   1.716   6.717   2.291
 6656W        W10856   7.463  10.881  11.446
 6657W        W10857   1.780   3.860   1.788
 6658W        W10858   1.504   5.637   8.849
 6659W        W10859   5.453   8.224   3.463
 6660W        W10860   9.424   9.617   0.535
 6661W        W10861   0.837   1.959   0.603
 6662W        W10862   4.872   3.939  11.326
 6663W        W10863  10.156   4.316   2.220
 6664W        W10864   8.532   0.937  11.680
 6665W        W10865   2.176   4.627  10.486
 6666W        W10866   1.101   9.020  10.285
 6667W        W10867   7.974   2.713   0.912
 6668W        W10868   2.236   0.000  10.417
 6669W        W10869   7.055   1.435   9.112
 6670W        W10870   1.001   8.489   1.290
 6671W        W10871   7.457   0.704  10.933
 6672W        W10872   6.469   8.615   2.597
 6673W        W10873  10.239   4.125  10.078
 6674W        W10874   1.481   1.483   8.864
 6675W        W10875   2.258  10.667  11.419
 6676W        W10876   0.994   0.023  11.446
 6677W        W10877   1.264   8.134  10.032
 6678W        W10878   2.311   4.357   3.540
 6679W        W10879   1.649   6.583   1.294
 6680W        W10880   1.387   6.705   8.820
 6681W        W10881   9.265   2.445   1.803
 6682W        W10882   8.364   4.099   9.784
 6683W        W10883   5.033   5.272   9.909
 6684W        W10884   0.262   4.098   0.357
 6685W        W10885   4.152   1.885   0.864
 6686W        W10886   7.033   4.264   9.104
 6687W        W10887   2.371   6.650   0.839
 6688W        W10888   7.017   4.085  10.494
 6689W        W10889   8.901   2.645  11.477
 6690W        W10890   8.980   2.679  10.096
 6691W        W10891  10.498   3.557   0.253
 6692W        W10892   4.031   4.026  11.855
 6693W        W10893   9.851   5.566   2.169
 6694W        W10894   7.935   7.161  11.293
 6695W        W10895   8.194   8.132   4.021
 6696W        W10896   8.702   5.523   9.384
 6697W        W10897   7.522   9.178   0.572
 6698W        W10898   7.996   6.515   3.232
 6699W        W10899   5.451   8.133   8.631
 6700W        W10900   0.078   4.228   1.123
 6701W        W10901   1.201   2.184   0.943
 6702W        W10902   9.974   9.185   1.324
 6703W        W10903   1.350   8.948   2.433
 6704W        W10904   3.704   1.878   0.648
 6705W        W10905   5.093   8.602  11.360
 6706W        W10906  10.872  10.407   0.304
 6707W        W10907   6.161   7.095   9.078
 6708W        W10908   0.928   6.120   0.429
 6709W        W10909   6.213   8.483   3.169
 6710W        W10910  11.301   0.749   9.525
 6711W        W10911   0.922   0.847   1.129
 6712W        W10912   7.505   8.093   1.874
 6713W        W10913   7.610  10.024   9.011
 6714W        W10914   5.330   8.794   4.190
 6715W        W10915  11.174   0.514   3.395
 6716W        W10916   6.054   3.545   0.487
 6717W        W10917   5.269  10.443   1.577
 6718W        W10918   8.503  11.302   8.777
 6719W        W10919   6.703   3.232  11.136
 6720W        W10920  10.880   3.776  11.570
 6721W        W10921   9.799  10.132  10.215
 6722W        W10922   0.396   5.696   9.073
 6723W        W10923   8.596   9.276   1.259
 6724W        W10924   7.571   2.576   9.543
 6725W        W10925   0.753   4.155   1.670
 6726W        W10926   8.687   3.653  11.513
 6727W        W10927   3.980   7.749   2.667
 6728W        W10928   5.765  11.358  11.292
 6729W        W10929   7.101   7.375   0.351
 6730W        W10930   7.415   1.814   9.058
 6731W        W10931   8.817   0.207   9.286
 6732W        W10932   7.438   9.266   8.955
 6733W        W10933   4.246  10.867   2.690
 6734W        W10934  11.164   2.413   0.977
 6735W        W10935   2.970   2.296   3.297
 6736W        W10936  10.953   9.285   1.416
 6737W        W10937   1.411   3.769  11.993
 6738W        W10938   1.574   1.245   8.391
 6739W        W10939   2.789   0.211   9.434
 6740W        W10940   8.454   2.706   9.040
 6741W        W10941   7.038  10.770   9.914
 6742W        W10942   2.393   2.738   2.124
 6743W        W10943   9.114   1.950   1.751
 6744W        W10944   1.582   5.693   9.736
 6745W        W10945   2.023   8.095  10.585
 6746W        W10946   1.056   6.118  10.193
 6747W        W10947  11.196   4.098   3.469
 6748W        W10948   7.496   5.692  10.294
 6749W        W10949   7.904   6.065   2.936
 6750W        W10950   7.667   4.683   8.635
 6751W        W10951   9.426   9.044   1.328
 6752W        W10952   4.057   4.559   3.201
 6753W        W10953   3.171   6.685   9.472
 6754W        W10954   7.819   1.849   0.393
 6755W        W10955   9.304   3.734   0.686
 6756W        W10956  10.560   1.682  10.488
 6757W        W10957   4.142   4.783   1.885
 6758W        W10958   8.122  11.000   2.420
 6759W        W10959   4.640   2.117   2.984
 6760W        W10960   1.800  10.674   0.614
 6761W        W10961   2.002   2.771   0.019
 6762W        W10962  10.663   9.520   1.765
 6763W        W10963  10.830   5.492   9.098
 6764W        W10964   9.849   5.642   2.680
 6765W        W10965   2.809   4.657   8.043
 6766W        W10966  10.094   5.268   9.715
 6767W        W10967   4.344   7.315  10.100
 6768W        W10968   4.222   3.832   1.619
 6769W        W10969   7.940   2.691   1.931
 6770W        W10970   6.165   4.553   2.203
 6771W        W10971   2.893   4.872  10.391
 6772W        W10972   0.678   6.142   9.825
 6773W        W10973   5.221   8.192   0.663
 6774W        W10974   5.189   9.618   9.493
 6775W        W10975   3.788   4.135   9.659
 6776W        W10976  11.043   9.793  10.884
 6777W        W10977   7.071   6.893   2.922
 6778W        W10978   3.347   7.461   2.131
 6779W        W10979   3.742   5.727   0.960
 6780W        W10980   8.727   5.945   0.299
 6781W        W10981   0.275  10.321   0.478
 6782W        W10982   0.116   6.167  11.630
 6783W        W10983   1.669   7.547   9.494
 6784W        W10984   5.105   8.435  10.878
 6785W        W10985   7.516   5.724   0.672
 6786W        W10986  10.824   8.133  10.636
 6787W        W10987   5.644   2.898   0.944
 6788W        W10988  10.660   4.342   2.276
 6789W        W10989  11.046   1.394  11.154
 6790W        W10990   3.711   7.421  10.599
 6791W        W10991   1.322   1.942  10.772
 6792W        W10992   6.756  11.187  11.263
 6793W        W10993   4.129   1.223   9.939
 6794W        W10994   5.815   2.525   0.479
 6795W        W10995  11.496   0.354   2.698
 6796W        W10996   4.328  10.561   1.364
 6797W        W10997   6.974   7.570  10.326
 6798W        W10998   5.779   5.826   2.981
 6799W        W10999   6.800   1.647  10.360
 6800W        W11000   8.813  11.014  10.364
 6801W        W11001   8.415   9.059   0.848
 6802W        W11002  10.954   3.172   2.485
 6803W        W11003   1.830   3.152  11.451
 6804W        W11004   6.218   0.003   9.362
 6805W        W11005   0.885   5.446   0.247
 6806W        W11006   9.961   7.947  11.441
 6807W        W11007   9.634   5.622   3.162
 6808W        W11008   5.573   7.666  11.920
 6809W        W11009   5.129   9.708   2.846
 6810W        W11010   5.251   0.634   8.703
 6811W        W11011   4.093   8.966   9.603
 6812W        W11012   5.195   9.936   0.301
 6813W        W11013  10.772   6.150   1.468
 6814W        W11014   9.635   3.946   0.360
 6815W        W11015   9.896   5.792   1.726
 6816W        W11016   9.114   4.698   1.854
 6817W        W11017   5.373   3.300   3.540
 6818W        W11018   4.114   5.484   1.249
 6819W        W11019   1.779   2.702   9.052
 6820W        W11020   7.843   1.295   0.791
 6821W        W11021  11.094   0.240   2.398
 6822W        W11022   0.347  10.474   1.916
 6823W        W11023   2.138   8.946  10.566
 6824W        W11024   9.956   9.146  10.106
 6825W        W11025   0.903   8.182   2.927
 6826W        W11026   2.382   4.797   2.324
 6827W        W11027   6.959   5.356  11.032
 6828W        W11028   5.790   8.131   3.098
 6829W        W11029   1.832   4.327   2.733
 6830W        W11030   9.838   8.981  10.575
 6831W        W11031  10.894   2.315   1.414
 6832W        W11032   8.844   0.655  11.197
 6833W        W11033   2.227   6.202   8.890
 6834W        W11034   0.670   0.951   0.658
 6835W        W11035  10.030   3.244  10.309
 6836W        W11036   8.010   2.702   1.425
 6837W        W11037   0.140   9.324  11.331
 6838W        W11038   5.231   9.124   8.140
 6839W        W11039   6.201   2.829  10.801
 6840W        W11040   8.390   2.244  10.259
 6841W        W11041   8.446  11.489  11.942
 6842W        W11042   6.652  10.268   1.697
 6843W        W11043   6.492   7.617   9.565
 6844W        W11044   8.484   2.883   1.019
 6845W        W11045   7.440   1.428   2.780
 6846W        W11046   9.649   5.799  11.772
 6847W        W11047   3.166   3.830   1.575
 6848W        W11048   4.518   9.799  11.895
 6849W        W11049   2.281   4.407   1.313
 6850W        W11050   8.868   7.149  10.747
 6851W        W11051   5.378   1.441   9.710
 6852W        W11052   4.262   0.710   9.916
 6853W        W11053   6.104   0.900   2.946
 6854W        W11054   1.865   8.511   2.794
 6855W        W11055   7.031   1.339   3.099
 6856W        W11056   8.476   2.125   2.207
 6857W        W11057   7.270   6.686  10.843
 6858W        W11058  11.333  10.317   9.033
 6859W        W11059   4.382   2.333   0.715
 6860W        W11060   8.849   6.016   9.329
 6861W        W11061   1.431   3.620   9.520
 6862W        W11062  11.254   5.735   8.551
 6863W        W11063   7.470  10.000   0.897
 6864W        W11064  11.431   1.756   9.528
 6865W        W11065   1.668   5.655   2.150
 6866W        W11066   1.023   8.814   3.492
 6867W        W11067  11.331   1.221   9.310
 6868W        W11068  10.866   7.584  11.286
 6869W        W11069   0.681   5.725   9.507
 6870W        W11070   4.463   6.110  11.713
 6871W        W11071   9.315   1.193   0.874
 6872W        W11072   1.497   8.372  11.001
 6873W        W11073   1.261   1.200   3.174
 6874W        W11074   9.938  11.025   8.535
 6875W        W11075   0.763   7.507   8.974
 6876W        W11076   8.996   3.880   2.966
 6877W        W11077  10.460   3.547  11.746
 6878W        W11078   7.144   4.643   0.442
 6879W        W11079  10.844   6.642   2.182
 6880W        W11080   1.366  11.061   3.539
 6881W        W11081   8.393   4.930   1.363
 6882W        W11082   8.711   3.824   9.510
 6883W        W11083   1.867   1.772   9.008
 6884W        W11084   8.075  10.956   8.831
 6885W        W11085   7.865   9.582   9.187
 6886W        W11086   5.925   6.101   0.613
 6887W        W11087   9.368  10.184  10.483
 6888W        W11088   0.861   7.335   3.289
 6889W        W11089   2.825   8.860   9.099
 6890W        W11090   9.547   8.205  11.264
 6891W        W11091   1.194   7.584   1.525
 6892W        W11092   1.261   3.333  11.127
 6893W        W11093   6.110   8.691   1.371
 6894W        W11094   1.493  11.428   3.179
 6895W        W11095   8.690   0.484  10.297
 6896W        W11096  10.502   2.146   0.428
 6897W        W11097   9.475   5.920   1.485
 6898W        W11098  10.919   6.688  11.574
 6899W        W11099   1.715   3.167   9.363
 6900W        W11100   5.900  10.842  10.907
 6901W        W11101   2.182  10.302   2.214
 6902W        W11102   2.285   2.730  10.354
 6903W        W11103   8.511   9.798  10.820
 6904W        W11104   6.398   1.516  10.013
 6905W        W11105  11.437   0.889   1.632
 6906W        W11106   0.426   2.250  11.365
 6907W        W11107   8.133   1.265  11.133
 6908W        W11108   9.620   6.048   2.879
 6909W        W11109   7.041   2.790   3.605
 6910W        W11110   9.637   1.890  10.344
 6911W        W11111   1.888   7.087   0.494
 6912W        W11112   5.130   2.756   3.640
 6913W        W11113   4.864   6.147   9.766
 6914W        W11114   8.046   3.873   2.446
 6915W        W11115   4.652   1.150   9.907
 6916W        W11116   8.406   2.799  11.535
 6917W        W11117   2.763   5.774  11.224
 6918W        W11118   8.365   0.001   1.619
 6919W        W11119   3.816  11.438   1.274
 6920W        W11120  11.375  10.613   0.234
 6921W        W11121   5.816   0.690   0.468
 6922W        W11122   1.767   4.331  10.450
 6923W        W11123   5.104   4.786  10.718
 6924W        W11124  10.590   1.750   0.735
 6925W        W11125   3.575  11.211   0.861
 6926W        W11126   0.106   4.666  10.503
 6927W        W11127   6.215   9.636   1.252
 6928W        W11128  11.430   7.737   9.065
 6929W        W11129   4.543   6.497  10.966
 6930W        W11130   5.265  10.291   2.087
 6931W        W11131   1.489   7.586   2.563
 6932W        W11132   5.973   7.745   1.268
 6933W        W11133   7.332   5.876   0.229
 6934W        W11134   0.185   7.246   2.333
 6935W        W11135   6.088   7.053  11.092
 6936W        W11136   9.569   0.956  10.135
 6937W        W11137   9.915   9.670  10.061
 6938W        W11138   0.944   3.865   8.842
 6939W        W11139   0.733  10.773   9.327
 6940W        W11140   8.666   7.953   2.637
 6941W        W11141  11.183   9.661  11.359
 6942W        W11142   3.365   3.792  11.319
 6943W        W11143  10.424   2.648   0.346
 6944W        W11144   5.704   7.083   2.895
 6945W        W11145   7.262   2.252   2.355
 6946W        W11146   2.490   5.020   7.899
 6947W        W11147  10.004   2.377   2.445
 6948W        W11148   9.598   5.138   2.184
 6949W        W11149   5.253  11.008   1.320
 6950W        W11150   4.405   2.536   8.830
 6951W        W11151  11.486   4.412  11.996
 6952W        W11152   9.032   3.350   0.476
 6953W        W11153   7.554  10.821  10.084
 6954W        W11154   8.877   4.291   9.388
 6955W        W11155  10.289   3.180   1.857
 6956W        W11156   7.435   6.519   0.771
 6957W        W11157  11.025   5.791   1.224
 6958W        W11158   3.222   5.228  10.532
 6959W        W11159  10.720   5.516   2.666
 6960W        W11160  11.439   9.322   8.592
 6961W        W11161   5.217   4.208   0.898
 6962W        W11162   8.996   7.060   8.604
 6963W        W11163   7.435   4.790   0.833
 6964W        W11164   3.143   1.864  11.256
 6965W        W11165  11.046   5.170   2.483
 6966W        W11166   3.646   4.683   1.747
 6967W        W11167   0.736   2.373   0.946
 6968W        W11168   2.717   6.605   1.273
 6969W        W11169   2.302   3.502   3.071
 6970W        W11170   5.706   1.071   9.963
 6971W        W11171   9.580   8.162   2.263
 6972W        W11172   8.063   1.661  11.471
 6973W        W11173  10.421   8.408   9.908
 6974W        W11174   0.358   7.457   9.827
 6975W        W11175   7.234   8.462  10.569
 6976W        W11176  11.443   9.276   1.619
 6977W        W11177  10.489  11.437   8.944
 6978W        W11178   5.144   1.664  11.976
 6979W        W11179  10.866   2.499   3.250
 6980W        W11180   7.878  10.749   9.623
 6981W        W11181   7.431   5.344  11.262
 6982W        W11182   1.712   9.986  11.078
 6983W        W11183  10.474   3.633   2.187
 6984W        W11184  11.232   6.052   9.553
 6985W        W11185   4.205   4.074   2.149
 6986W        W11186   8.253   5.186   8.667
 6987W        W11187   3.252   5.818  11.049
 6988W        W11188   6.075  11.057   9.099
 6989W        W11189   7.342   6.248  11.514
 6990W        W11190   3.213   5.609   1.038
 6991W        W11191   0.687   1.841   1.483
 6992W        W11192   7.453   4.571   9.097
 6993W        W11193   1.080   0.803   3.483
 6994W        W11194   6.906   8.398   2.443
 6995W        W11195   5.621   9.135   9.872
 6996W        W11196   3.013   2.861  11.460
 6997W        W11197   8.639   8.319   8.652
 6998W        W11198   6.029   3.313  10.738
 6999W        W11199  11.474   9.829   9.768
 7000W        W11200   8.462   3.680   9.073
 7001W        W11201   2.340   0.762  11.339
 7002W        W11202   0.272  11.345  11.289
 7003W        W11203   5.357   2.635  10.313
 7004W        W11204   7.994   8.428   0.396
 7005W        W11205   8.841   8.085   3.397
 7006W        W11206   0.002   5.126  10.780
 7007W        W11207   0.509   7.044   9.511
 7008W        W11208   0.856   6.196   9.328
 7009W        W11209   9.345   2.209  10.622
 7010W        W11210   8.668  10.619   0.017
 7011W        W11211   4.173   5.682  10.790
 7012W        W11212   4.855   1.158   0.253
 7013W        W11213  10.892   8.448   3.209
 7014W        W11214   1.520   9.020   9.392
 7015W        W11215   6.112   4.453  10.469
 7016W        W11216  10.436   9.997   8.962
 7017W        W11217  10.409   9.942   1.386
 7018W        W11218   0.391   3.158  11.214
 7019W        W11219   7.610   0.887   1.185
 7020W        W11220   3.424   2.114   2.735
 7021W        W11221   0.621   1.815  10.451
 7022W        W11222   4.733   4.220   3.610
 7023W        W11223   3.092  11.430  11.901
 7024W        W11224   1.130   6.254   2.602
 7025W        W11225   4.704   6.695   8.635
 7026W        W11226   2.575   8.557   2.268
 7027W        W11227   2.352   5.508   9.572
 7028W        W11228   1.365   4.157   1.467
 7029W        W11229  11.439   4.825   8.733
 7030W        W11230   2.409   3.569   0.224
 7031W        W11231   7.062   3.772  10.888
 7032W        W11232   2.598   7.520   1.634
 7033W        W11233   4.605   2.263   1.616
 7034W        W11234   3.704   9.019   1.489
 7035W        W11235   3.938   8.526   9.837
 7036W        W11236  11.458   6.515   1.273
 7037W        W11237   6.931   0.244   1.647
 7038W        W11238   7.235   3.664   1.303
 7039W        W11239  11.079   1.796  10.489
 7040W        W11240   9.669   0.472  10.350
 7041W        W11241   5.464   4.828   3.261
 7042W        W11242   5.711   0.401   2.802
 7043W        W11243   4.118   7.782   0.402
 7044W        W11244   7.985   0.276   2.852
 7045W        W11245   9.361   8.688   0.915
 7046W        W11246   6.021   9.542   2.505
 7047W        W11247   9.243   7.204  10.380
 7048W        W11248   4.556  10.451   3.265
 7049W        W11249   3.062   1.261   2.337
 7050W        W11250  10.915   9.810   1.405
 7051W        W11251   8.512   7.514   3.487
 7052W        W11252  10.695   2.242   0.926
 7053W        W11253   8.114   1.414   0.366
 7054W        W11254   8.587  10.877   2.259
 7055W        W11255   0.322   9.365   3.146
 7056W        W11256   8.856   3.273   1.623
 7057W        W11257   5.969   2.466   1.642
 7058W        W11258   4.289   1.945  11.058
 7059W        W11259   6.720   6.620   0.222
 7060W        W11260   1.396   0.678   3.862
 7061W        W11261   2.528   5.299   0.762
 7062W        W11262   3.910   4.033   3.342
 7063W        W11263   3.780   3.569  10.451
 7064W        W11264   5.266  10.479   9.826
 7065W        W11265   0.704  10.000  11.419
 7066W        W11266   8.991  10.673  11.198
 7067W        W11267   7.944   7.498  11.696
 7068W        W11268   8.217   8.371  11.907
 7069W        W11269  10.854   1.953   3.186
 7070W        W11270  11.472   7.081  10.883
 7071W        W11271   4.310   8.917  11.870
 7072W        W11272   4.969  11.262  10.133
 7073W        W11273   5.216   0.442  10.746
 7074W        W11274   3.710   5.469   9.393
 7075W        W11275   6.865   8.134   1.517
 7076W        W11276   2.940   8.260   3.516
 7077W        W11277   1.885   9.826   2.314
 7078W        W11278   2.925   6.018   1.142
 7079W        W11279   1.859   1.327   1.836
 7080W        W11280   6.064   9.061  10.613
 7081W        W11281   6.079   1.767  11.995
 7082W        W11282   7.608   3.803   2.171
 7083W        W11283   7.564   2.629  10.054
 7084W        W11284   2.002   4.175   2.222
 7085W        W11285  11.023   3.304  11.456
 7086W        W11286  10.732  11.418  10.349
 7087W        W11287   2.604   6.516   0.339
 7088W        W11288  10.519   7.709  10.573
 7089W        W11289   2.280   3.616   0.721
 7090W        W11290   5.939   3.746   8.463
 7091W        W11291   5.277   2.127   0.908
 7092W        W11292   6.947   9.487   9.065
 7093W        W11293  10.609   3.687   9.248
 7094W        W11294   3.424   6.125   2.394
 7095W        W11295   7.233   6.387   0.258
 7096W        W11296   2.894   6.397  10.415
 7097W        W11297   2.654   6.559   3.165
 7098W        W11298   6.754   3.631   3.121
 7099W        W11299   5.135   4.177  10.029
 7100W        W11300   9.608   0.927  10.648
 7101W        W11301   9.025  10.331  10.833
 7102W        W11302   0.986   4.141   0.001
 7103W        W11303   7.992   6.083   3.495
 7104W        W11304   9.282   6.963   9.220
 7105W        W11305   9.449   0.563   2.565
 7106W        W11306   4.981   8.840   9.040
 7107W        W11307   3.328   0.943   0.718
 7108W        W11308   6.698   6.165  10.501
 7109W        W11309   5.734   9.433   1.230
 7110W        W11310   3.809  10.279  11.388
 7111W        W11311   2.551   0.491   2.527
 7112W        W11312   9.477  11.319  11.191
 7113W        W11313   9.577   5.081   3.169
 7114W        W11314   7.592   7.321   1.382
 7115W        W11315   6.541   9.001   1.397
 7116W        W11316   1.391   9.988   2.528
 7117W        W11317  11.355   9.049   9.580
 7118W        W11318   6.582   1.586   0.030
 7119W        W11319   0.348   9.947   2.426
 7120W        W11320   3.316   8.106  11.613
 7121W        W11321   2.744   5.529   9.188
 7122W        W11322  10.114   3.301   0.511
 7123W        W11323   3.518   4.829   3.111
 7124W        W11324   7.891   2.210   0.756
 7125W        W11325   2.226  11.493   8.866
 7126W        W11326   1.141   4.496   9.464
 7127W        W11327   1.859   1.308   9.797
 7128W        W11328   8.217   6.218   9.991
 7129W        W11329   4.145   8.686   1.391
 7130W        W11330   1.500   4.757   9.779
 7131W        W11331   6.108   4.109   9.642
 7132W        W11332   7.198   5.154   0.575
 7133W        W11333   9.865   7.339   3.316
 7134W        W11334   3.040   8.129   0.814
 7135W        W11335   8.480   8.485  11.268
 7136W        W11336   3.673   6.273   0.844
 7137W        W11337   8.387   6.981   2.793
 7138W        W11338  10.772   8.424   2.319
 7139W        W11339   0.466   7.911   1.672
 7140W        W11340  10.262   1.305  11.815
 7141W        W11341   5.291   2.819  11.098
 7142W        W11342  11.454   3.141   1.642
 7143W        W11343   7.628   7.388   9.183
 7144W        W11344   7.592  10.888   9.066
 7145W        W11345   4.648   1.864   1.947
 7146W        W11346   2.372  10.729  10.022
 7147W        W11347   2.874   6.227  11.436
 7148W        W11348  11.343   3.762  10.848
 7149W        W11349   8.495   2.563   3.043
 7150W        W11350   8.616   8.750   1.214
 7151W        W11351   5.635   8.569   2.819
 7152W        W11352   1.789   0.347  11.952
 7153W        W11353   2.349   7.433   2.296
 7154W        W11354   2.186   8.868  11.551
 7155W        W11355   5.668   7.051  10.593
 7156W        W11356   0.999   1.365  10.954
 7157W        W11357   0.329   8.915   3.417
 7158W        W11358   1.289   9.929   9.758
 7159W        W11359   2.209   9.892   0.242
 7160W        W11360  10.551   7.934   9.684
 7161W        W11361   2.642   2.646  10.768
 7162W        W11362   6.109   6.193   8.720
 7163W        W11363   0.036   2.365   2.322
 7164W        W11364  11.336   4.628   1.346
 7165W        W11365   9.878  11.305   8.994
 7166W        W11366   6.200   9.833   0.323
 7167W        W11367   6.088   7.000   9.588
 7168W        W11368   4.658   4.922   2.289
 7169W        W11369   7.951  11.159   9.300
 7170W        W11370   8.952   1.529  11.690
 7171W        W11371   5.183  10.606   2.868
 7172W        W11372   3.854   5.081   0.529
 7173W        W11373   3.089   0.025   3.282
 7174W        W11374   6.916   8.924   1.736
 7175W        W11375  10.443   2.899  10.271
 7176W        W11376   4.444   7.997  10.547
 7177W        W11377  10.996  10.711   8.694
 7178W        W11378   9.467   3.793   2.154
 7179W        W11379   0.061   3.246   3.158
 7180W        W11380   0.446   6.184   1.293
 7181W        W11381   4.322  10.941   9.832
 7182W        W11382   2.856   1.171  11.925
 7183W        W11383   7.330   9.944   3.173
 7184W        W11384   5.256   7.858   9.026
 7185W        W11385   6.723   8.577  10.582
 7186W        W11386   8.968  11.014   3.096
 7187W        W11387   2.111   9.490   3.382
 7188W        W11388  10.058   4.864   1.377
 7189W        W11389  10.477   8.026   2.443
 7190W        W11390   6.048   4.638  11.377
 7191W        W11391   6.554   9.999   9.832
 7192W        W11392   4.682   6.716   0.916
 7193W        W11393   3.067   1.825   3.507
 7194W        W11394   1.672   1.791  11.103
 7195W        W11395   3.679  10.432   3.089
 7196W        W11396   1.306   7.429  11.748
 7197W        W11397   3.930   6.071   2.331
 7198W        W11398   8.487   2.768   0.032
 7199W        W11399   9.044   9.417  10.409
 7200W        W11400   8.516   8.555   0.283
 7201W        W11401   0.263   8.529   9.298
 7202W        W11402   0.823   3.236   0.500
 7203W        W11403   9.133   2.644   9.586
 7204W        W11404   9.345   0.248   2.954
 7205W        W11405   6.500   9.456   9.892
 7206W        W11406   9.311   1.041   3.458
 7207W        W11407   7.011   8.454   0.424
 7208W        W11408   5.582   9.498   2.749
 7209W        W11409  11.405   8.080   3.633
 7210W        W11410   1.453   5.694  10.716
 7211W        W11411   6.959   0.006   2.707
 7212W        W11412   0.465  10.760   2.588
 7213W        W11413   8.660   2.300   3.432
 7214W        W11414  11.386   7.975  10.841
 7215W        W11415   9.171  11.165   1.190
 7216W        W11416   5.268   3.327   8.383
 7217W        W11417  10.405   4.504   9.796
 7218W        W11418   4.647   6.709   3.367
 7219W        W11419   8.512   7.278   0.870
 7220W        W11420   5.673   4.841   1.471
 7221W        W11421   2.823   2.109   1.399
 7222W        W11422   9.552   9.370   9.845
 7223W        W11423   3.258   0.437  11.955
 7224W        W11424   9.408   3.249   0.810
 7225W        W11425   7.776   3.113  10.094
 7226W        W11426   6.984   7.962   1.064
 7227W        W11427   9.476   0.735   0.718
 7228W        W11428   5.884  10.597   8.980
 7229W        W11429  10.727   4.161   1.393
 7230W        W11430   9.905   6.202   0.959
 7231W        W11431   5.332   4.924   1.098
 7232W        W11432   1.338   1.220  11.544
 7233W        W11433   9.799  10.323   2.505
 7234W        W11434   3.668   6.541  11.466
 7235W        W11435  10.156   4.291   1.351
 7236W        W11436   3.099   0.096   2.751
 7237W        W11437   0.669   9.432   9.356
 7238W        W11438   2.114  11.447  10.935
 7239W        W11439  10.417   1.363  10.097
 7240W        W11440   5.213   8.393  10.339
 7241W        W11441   6.185  10.843  10.072
 7242W        W11442   7.625  10.439   9.312
 7243W        W11443   0.462   9.077   1.726
 7244W        W11444  10.382   1.846   2.663
 7245W        W11445   8.557   1.987   8.495
 7246W        W11446   4.739   0.542  11.990
 7247W        W11447  10.262   9.505   2.145
 7248W        W11448   4.811   0.924   1.121
 7249W        W11449   8.465   3.224   0.282
 7250W        W11450   8.349   7.936   2.242
 7251W        W11451   0.693   8.523   3.249
 7252W        W11452   3.847   8.481   3.989
 7253W        W11453   5.928   4.992   3.085
 7254W        W11454   2.306   2.091   2.867
 7255W        W11455   5.285  10.837   0.119
 7256W        W11456  10.421   6.939   9.953
 7257W        W11457   3.215   6.526  11.717
 7258W        W11458   3.600   7.003   1.936
 7259W        W11459   6.457   5.247   0.928
 7260W        W11460   4.648   7.595   9.802
 7261W        W11461   2.019   2.734   0.878
 7262W        W11462   1.699   9.168   1.650
 7263W        W11463   5.126   4.323  10.990
 7264W        W11464   6.362   7.147   3.559
 7265W        W11465   0.491   7.175  10.807
 7266W        W11466   5.682   2.058   0.612
 7267W        W11467   5.482   8.925   9.054
 7268W        W11468   8.628   0.780   0.359
 7269W        W11469   0.852   6.750   0.802
 7270W        W11470   1.307   7.035   0.620
 7271W        W11471   9.689   8.138   9.456
 7272W        W11472   0.131   3.080   1.168
 7273W        W11473   2.748   1.642   2.227
 7274W        W11474   8.501   5.629   8.514
 7275W        W11475   8.584   8.440  10.669
 7276W        W11476   0.622   7.173   0.977
 7277W        W11477   2.113   9.724   9.787
 7278W        W11478   7.760   6.361  10.996
 7279W        W11479   5.125   0.030   1.254
 7280W        W11480   2.399   6.064   2.390
 7281W        W11481   9.930   9.455   3.019
 7282W        W11482   5.608   7.027   1.899
 7283W        W11483   3.604   6.920   9.343
 7284W        W11484   7.121   0.281   3.244
 7285W        W11485   4.744   2.216   9.033
 7286W        W11486   2.308   3.849   1.274
 7287W        W11487  10.968   3.775   1.010
 7288W        W11488   0.414   5.094   0.500
 7289W        W11489   4.105  10.655  11.515
 7290W        W11490   0.832   1.010  11.304
 7291W        W11491   6.378   2.530   8.182
 7292W        W11492   3.682   7.498   1.746
 7293W        W11493   0.925   5.221  11.333
 7294W        W11494   3.131  10.928   0.423
 7295W        W11495   4.338   4.983   0.578
 7296W        W11496   1.525  10.960   9.912
 7297W        W11497   3.915   2.815  11.595
 7298W        W11498   5.326   4.020  10.496
 7299W        W11499   6.676   4.694   2.156
 7300W        W11500   6.611   7.690   2.739
 7301W        W11501   8.999   6.663   9.961
 7302W        W11502   8.115  11.242  11.343
 7303W        W11503   7.580   3.212   3.319
 7304W        W11504   9.488   1.882   8.820
 7305W        W11505   3.052   0.935  10.606
 7306W        W11506   1.742   5.261   1.412
 7307W        W11507   8.773   5.355  11.617
 7308W        W11508   6.207   1.934   9.790
 7309W        W11509   2.897   7.863   9.007
 7310W        W11510   9.538   2.233   2.701
 7311W        W11511   8.567   6.372   8.189
 7312W        W11512   7.893   4.825   9.069
 7313W        W11513   4.725   8.478   2.265
 7314W        W11514   9.518   3.696   3.424
 7315W        W11515   0.364  10.076   9.994
 7316W        W11516   4.770   1.178   3.739
 7317W        W11517   6.427   2.886   2.764
 7318W        W11518   2.000   3.417   2.667
 7319W        W11519   1.429   7.963   1.768
 7320W        W11520   3.116   6.507   0.248
 7321W        W11521   4.257   0.595   1.905
 7322W        W11522   7.020   2.397   0.766
 7323W        W11523   1.725   8.405   0.600
 7324W        W11524   0.033   2.072   0.926
 7325W        W11525   5.577   2.715   3.897
 7326W        W11526   6.539   3.360  11.614
 7327W        W11527   5.598   4.607   8.272
 7328W        W11528   7.439   8.859   0.965
 7329W        W11529   0.447   9.636  11.936
 7330W        W11530   5.737   1.419   9.320
 7331W        W11531   5.560   2.361   9.865
 7332W        W11532   0.812   5.531  11.726
 7333W        W11533   3.601  10.861   0.199
 7334W        W11534   5.288   9.826  10.408
 7335W        W11535   8.862   9.331  11.931
 7336W        W11536  10.883   3.672   8.808
 7337W        W11537   4.256   7.693   2.256
 7338W        W11538   9.593   6.460   2.591
 7339W        W11539   4.466   8.448  11.740
 7340W        W11540   4.135   5.533   0.689
 7341W        W11541  11.360   8.970   0.993
 7342W        W11542   2.996   9.701   8.442
 7343W        W11543   4.206   1.856   3.198
 7344W        W11544   0.005   1.852   3.159
 7345W        W11545   0.488   3.642   0.478
 7346W        W11546   8.952   3.744   1.441
 7347W        W11547   0.890  10.501  10.556
 7348W        W11548   7.675   1.917  10.632
 7349W        W11549   3.096  11.040   0.924
 7350W        W11550   0.643   4.041   3.630
 7351W        W11551   1.716  11.328   9.591
 7352W        W11552   1.076   1.275   0.826
 7353W        W11553   4.385   4.617   8.926
 7354W        W11554   3.661   3.188   0.394
 7355W        W11555   8.177   7.537   9.704
 7356W        W11556   2.232  10.274  11.057
 7357W        W11557   1.918   3.761   0.245
 7358W        W11558  10.866   3.599  10.673
 7359W        W11559   3.566  10.892   3.319
 7360W        W11560   9.412   1.848   2.241
 7361W        W11561   3.286   0.641  10.029
 7362W        W11562  11.492  11.349   1.503
 7363W        W11563   2.284   2.743   0.446
 7364W        W11564  11.342   8.878  10.080
 7365W        W11565   4.758   5.957   4.046
 7366W        W11566   6.379  10.907  11.081
 7367W        W11567   6.646   5.735  11.527
 7368W        W11568   7.858   2.194   9.729
 7369W        W11569  11.127   3.706   9.266
 7370W        W11570  10.826   4.965   0.356
 7371W        W11571   2.494   9.240  11.764
 7372W        W11572   1.712   5.235   8.499
 7373W        W11573   0.862   9.486   2.986
 7374W        W11574   1.851   7.909   1.483
 7375W        W11575   1.811   5.704   1.138
 7376W        W11576   1.859   7.533   0.730
 7377W        W11577   3.835   3.578   2.645
 7378W        W11578   6.125   9.503   1.981
 7379W        W11579   7.631   4.542   3.747
 7380W        W11580   1.265   6.678   1.627
 7381W        W11581   9.859  10.495   0.295
 7382W        W11582   1.821   4.589   1.442
 7383W        W11583   1.648   5.657  11.194
 7384W        W11584   9.354  10.338   9.975
 7385W        W11585   2.729   5.551   1.201
 7386W        W11586   5.682   7.543   2.644
 7387W        W11587   0.984   4.204  10.570
 7388W        W11588   9.518   4.405   1.796
 7389W        W11589   2.660  10.258   9.592
 7390W        W11590   5.341   4.255   1.961
 7391W        W11591   0.435   1.743   1.924
 7392W        W11592   3.714   1.709   2.544
 7393W        W11593   0.856   0.771   1.657
 7394W        W11594   2.323   7.027   8.541
 7395W        W11595   8.355   5.265  11.950
 7396W        W11596  10.398   2.219   9.544
 7397W        W11597   1.181   5.828   2.915
 7398W        W11598   6.040   2.572   2.113
 7399W        W11599   3.549   5.172   9.015
 7400W        W11600   8.035   5.700   3.834
 7401W        W11601   2.401   6.093   3.339
 7402W        W11602  11.046   8.286   0.800
 7403W        W11603   4.440   0.340   3.387
 7404W        W11604   9.227   0.483   1.576
 7405W        W11605   5.594   4.040  10.967
 7406W        W11606   9.567   7.400   2.694
 7407W        W11607   0.049  10.239   9.487
 7408W        W11608   5.958  10.282   0.213
 7409W        W11609   2.895   9.885   2.647
 7410W        W11610   1.822   7.226   2.330
 7411W        W11611   1.438   8.654  10.070
 7412W        W11612   9.010   5.128   9.424
 7413W        W11613   4.068  10.761   9.403
 7414W        W11614   6.372   8.013   1.532
 7415W        W11615  10.372   4.707   0.388
 7416W        W11616   7.312   5.734   2.401
 7417W        W11617   3.282   8.201  10.600
 7418W        W11618   2.654   0.911   3.090
 7419W        W11619  10.555   9.442   3.133
 7420W        W11620   6.648   3.756  10.340
 7421W        W11621   3.224   6.947   8.986
 7422W        W11622   8.437   0.205   8.419
 7423W        W11623   3.753   2.781   0.668
 7424W        W11624   2.642  11.292   3.541
 7425W        W11625  11.142   7.946   9.842
 7426W        W11626   5.014   3.107   2.329
 7427W        W11627   6.753   9.803  10.449
 7428W        W11628   3.541   4.450   9.353
 7429W        W11629  11.110   8.809   1.451
 7430W        W11630   3.098  10.850   1.460
 7431W        W11631   6.994  11.161   9.525
 7432W        W11632   6.394   9.390   0.457
 7433W        W11633   8.333  10.076   1.706
 7434W        W11634   4.954   3.703  11.745
 7435W        W11635   7.659   1.762  10.104
 7436W        W11636   3.654  10.916   1.675
 7437W        W11637   0.333   4.311   8.835
 7438W        W11638   4.718   5.716   0.034
 7439W        W11639  10.798   0.762   9.451
 7440W        W11640   1.185  11.335   9.833
 7441W        W11641   2.376   9.004   2.425
 7442W        W11642  10.546   4.222   0.922
 7443W        W11643   0.170   2.201  11.828
 7444W        W11644   2.937   2.654   0.010
 7445W        W11645  10.717   5.280   8.566
 7446W        W11646   7.602   8.084  11.777
 7447W        W11647   0.590   5.121   1.858
 7448W        W11648   2.242   3.849  11.839
 7449W        W11649  10.303   0.970  11.414
 7450W        W11650  11.378  10.091  11.123
 7451W        W11651  10.553  11.372   3.251
 7452W        W11652   7.055   1.845   3.463
 7453W        W11653   3.000   2.119   2.215
 7454W        W11654   8.139   9.804   2.756
 7455W        W11655   3.172   9.594  10.282
 7456W        W11656  10.670   0.381   3.260
 7457W        W11657   3.281   4.120   0.840
 7458W        W11658   4.106   6.983   1.919
 7459W        W11659  11.023  10.695   9.973
 7460W        W11660   5.110   7.214  11.506
 7461W        W11661   8.013  11.001   3.315
 7462W        W11662   2.202   5.056   8.643
 7463W        W11663  10.867   0.359   8.529
 7464W        W11664   5.843   7.249   3.607
 7465W        W11665  10.343   5.469   8.856
 7466W        W11666   2.922   2.842   3.309
 7467W        W11667  10.739   9.273  11.627
 7468W        W11668  10.371   5.572   3.052
 7469W        W11669   8.101  10.266   9.588
 7470W        W11670   1.765  10.081   9.737
 7471W        W11671   5.517   4.574   3.726
 7472W        W11672   4.697   9.301  11.772
 7473W        W11673   7.605   4.770   2.165
 7474W        W11674   7.137   8.443   9.256
 7475W        W11675   1.052   4.770   3.571
 7476W        W11676   1.629   8.132   3.493
 7477W        W11677   3.989   7.603  11.903
 7478W        W11678   9.160   3.666  11.679
 7479W        W11679   5.617   0.325   9.494
 7480W        W11680   8.621   8.007  11.515
 7481W        W11681  11.332  10.027   1.156
 7482W        W11682  11.388   8.258   9.057
 7483W        W11683   3.415  10.330   1.119
 7484W        W11684   1.851   8.373   1.080
 7485W        W11685   1.247   9.061  11.131
 7486W        W11686   2.625   9.774   0.493
 7487W        W11687   5.037   5.315   2.368
 7488W        W11688   7.751   2.360   0.265
 7489W        W11689  10.338   9.102   1.804
 7490W        W11690   8.969  10.534   2.918
 7491W        W11691   1.078   4.412   8.687
 7492W        W11692   2.899   8.933   2.379
 7493W        W11693   1.705   1.417  11.888
 7494W        W11694   3.496   2.554   9.014
 7495W        W11695   7.095   8.831   2.212
 7496W        W11696   6.783   7.631   1.404
 7497W        W11697   2.701   0.315   3.502
 7498W        W11698   1.231   9.540   1.238
 7499W        W11699   7.824   8.569  10.008
 7500W        W11700   6.169   7.322   2.688
 7501W        W11701   2.630   0.685   0.340
 7502W        W11702   3.107   1.676   9.109
 7503W        W11703   8.046   4.725  11.296
 7504W        W11704   4.661   8.503   1.251
 7505W        W11705   5.057   6.097   1.989
 7506W        W11706   4.710   4.835   0.941
 7507W        W11707   1.217   0.757   9.435
 7508W        W11708   7.502   2.613   9.046
 7509W        W11709   6.569   9.033  10.729
 7510W        W11710   1.806   6.621   9.586
 7511W        W11711  10.471   0.199   0.487
 7512W        W11712   8.213   8.490  10.312
 7513W        W11713   4.491   5.264  11.742
 7514W        W11714   0.936   3.100   0.978
 7515W        W11715   9.979   6.827   0.699
 7516W        W11716   2.403   7.976   0.076
 7517W        W11717   0.741   5.710   1.997
 7518W        W11718   8.672   2.057   2.972
 7519W        W11719   5.057   4.393  11.503
 7520W        W11720   9.316   8.372   0.505
 7521W        W11721   8.876   2.299  10.437
 7522W        W11722   3.939   2.396   8.618
 7523W        W11723  10.950   5.242  10.043
 7524W        W11724   6.781   5.121  10.165
 7525W        W11725   9.039   2.537   0.469
 7526W        W11726   8.869   4.450   8.878
 7527W        W11727   3.280   8.415   1.764
 7528W        W11728   3.565   4.872   1.255
 7529W        W11729  10.548   3.740   0.721
 7530W        W11730   6.570   3.332  10.036
 7531W        W11731   0.969   4.798   9.052
 7532W        W11732   5.441   8.375  11.694
 7533W        W11733   1.906   3.647   9.316
 7534W        W11734   3.895   2.154  10.792
 7535W        W11735  10.440   1.177  10.561
 7536W        W11736   3.393   5.180   4.117
 7537W        W11737   6.127   2.769   3.158
 7538W        W11738   4.045   9.167  11.379
 7539W        W11739   6.037   4.790  10.864
 7540W        W11740   8.249   8.445   1.395
 7541W        W11741   9.315   1.820  11.473
 7542W        W11742   1.652   6.457   3.272
 7543W        W11743   8.160   7.337   9.238
 7544W        W11744   8.253   1.726   2.990
 7545W        W11745   8.565  10.863   2.787
 7546W        W11746   2.251   4.037   3.131
 7547W        W11747  11.465   9.604  11.773
 7548W        W11748   0.473   2.627   2.851
 7549W        W11749   6.175   5.052   1.326
 7550W        W11750   6.526   9.045   2.908
 7551W        W11751   7.688  11.448  11.525
 7552W        W11752   6.314   0.883   0.465
 7553W        W11753   0.855   8.936  11.517
 7554W        W11754   2.154   9.809  11.258
 7555W        W11755   4.991   7.413   0.051
 7556W        W11756  10.749  10.843   1.267
 7557W        W11757   3.968   7.960   9.180
 7558W        W11758   5.062   4.063   8.739
 7559W        W11759   9.067   3.380   9.010
 7560W        W11760   4.348   9.584   0.335
 7561W        W11761   2.361   6.688   8.989
 7562W        W11762   6.152   6.002   2.222
 7563W        W11763   6.242   4.468   3.037
 7564W        W11764   0.857   5.675   1.164
 7565W        W11765   0.367   9.550   9.968
 7566W        W11766   8.560   5.204   8.207
 7567W        W11767   3.349   2.468   2.358
 7568W        W11768  10.405   0.460   8.798
 7569W        W11769   8.556   3.677  11.026
 7570W        W11770  11.359   8.261  11.289
 7571W        W11771  10.192   0.260   3.137
 7572W        W11772   6.194   6.602  11.330
 7573W        W11773  10.787   3.321   1.876
 7574W        W11774   5.129   7.402  10.114
 7575W        W11775   0.485  10.819  10.432
 7576W        W11776   5.183   8.647   2.611
 7577W        W11777  10.031  11.262  10.797
 7578W        W11778   7.124   9.342   1.478
 7579W        W11779   9.190   8.251   9.454
 7580W        W11780   5.233   1.919   0.420
 7581W        W11781   4.205   4.548   2.351
 7582W        W11782   8.979   8.923  10.229
 7583W        W11783   0.674   2.379   3.258
 7584W        W11784   7.594   6.397   4.040
 7585W        W11785   9.013   6.477   7.898
 7586W        W11786   7.981   6.845  10.853
 7587W        W11787   2.802  11.326   1.231
 7588W        W11788   9.624   4.529   9.362
 7589W        W11789   6.903   7.591  10.834
 7590W        W11790   5.643   9.819  10.871
 7591W        W11791   0.400   6.561   9.688
 7592W        W11792   2.151   0.377   1.419
 7593W        W11793   3.012   2.332  10.637
 7594W        W11794  10.839  10.780  11.386
 7595W        W11795   1.236   7.799   2.944
 7596W        W11796   0.446   7.146   3.022
 7597W        W11797   5.041   8.840  10.548
 7598W        W11798   7.427   1.627   0.740
 7599W        W11799   5.603   0.246  11.008
 7600W        W11800   7.925   7.811   9.340
 7601W        W11801   6.437   9.684  10.866
 7602W        W11802   5.206   2.863   2.719
 7603W        W11803   5.185   6.159  10.471
 7604W        W11804   5.213   2.093   8.476
 7605W        W11805   1.465   0.234  11.247
 7606W        W11806   2.689   1.615   0.129
 7607W        W11807   0.881   6.821   3.129
 7608W        W11808   8.221   3.657   8.629
 7609W        W11809   0.899   9.070   2.011
 7610W        W11810   6.106  11.332  10.897
 7611W        W11811   5.625   9.462  10.278
 7612W        W11812   3.567   0.164  10.049
 7613W        W11813  11.177  10.501   2.864
 7614W        W11814   6.611   8.938   0.408
 7615W        W11815   0.341   4.231   9.380
 7616W        W11816   1.505   7.416  11.167
 7617W        W11817   8.517   2.818  10.997
 7618W        W11818   2.847   9.791   8.961
 7619W        W11819   4.824   2.460  10.443
 7620W        W11820   3.515   1.311  10.718
 7621W        W11821   4.805   7.655   0.821
 7622W        W11822   1.548   5.209   9.502
 7623W        W11823   3.472   5.451   8.555
 7624W        W11824  10.323   5.566   1.932
 7625W        W11825   2.728   5.741  11.748
 7626W        W11826   9.216   5.199   1.885
 7627W        W11827   2.695   3.648   8.984
 7628W        W11828   5.965  10.346   8.517
 7629W        W11829   6.655  10.145   9.365
 7630W        W11830   2.256   2.447   9.028
 7631W        W11831   6.317   8.198   8.240
 7632W        W11832   6.977   0.009  10.480
 7633W        W11833   8.630  10.806   9.940
 7634W        W11834   6.025   4.545   9.938
 7635W        W11835   5.645   2.703  11.493
 7636W        W11836   4.098  10.634   8.683
 7637W        W11837   5.762   3.208   3.853
 7638W        W11838   5.065   0.703  10.338
 7639W        W11839   2.645   4.548  10.703
 7640W        W11840  11.083  11.485  11.753
 7641W        W11841   7.442   1.273  11.844
 7642W        W11842   5.553   5.935  11.101
 7643W        W11843   1.818   6.400   0.028
 7644W        W11844   5.457  11.272  10.283
 7645W        W11845   2.930   8.409   8.406
 7646W        W11846   4.223   5.535  11.311
 7647W        W11847   4.750   7.480   2.269
 7648W        W11848   6.062   2.117  10.600
 7649W        W11849   9.281   8.167  10.256
 7650W        W11850   2.781   1.227   1.889
 7651W        W11851   8.886   1.136   0.013
 7652W        W11852   4.743   9.314  10.693
 7653W        W11853   0.918  11.290   1.892
 7654W        W11854   1.128   2.656   1.134
 7655W        W11855   8.205   6.061   1.212
 7656W        W11856   9.962   0.368   9.612
 7657W        W11857   0.290   6.965   9.998
 7658W        W11858   2.590   8.586   8.724
 7659W        W11859   2.682   5.027   8.398
 7660W        W11860   2.737   4.229   8.303
 7661W        W11861  11.393   4.803  10.073
 7662W        W11862   4.272   2.700  10.214
 7663W        W11863   5.042   4.413   9.106
 7664W        W11864   5.636   9.832   9.346
 7665W        W11865   5.855   3.598   1.405
 7666W        W11866   9.512  10.391   9.040
 7667W        W11867   6.216   5.732   2.668
 7668W        W11868  10.423   5.223   9.297
 7669W        W11869   9.323   7.465   8.565
 7670W        W11870  11.420   8.300   3.159
 7671W        W11871  11.496   6.024   1.095
 7672W        W11872  11.287   4.736   9.569
 7673W        W11873  11.312   1.871  10.021
 7674W        W11874   2.955   6.901  10.362
 7675W        W11875   6.838   7.121  11.531
 7676W        W11876   6.443   6.637   9.545
 7677W        W11877   5.164   2.358  11.321
 7678W        W11878   7.754   5.067  10.763
 7679W        W11879   6.743   3.604   1.279
 7680W        W11880   2.655   1.443   0.781
 7681W        W11881   2.836   2.594   2.327
 7682W        W11882   7.179  10.435   2.936
 7683W        W11883   9.785   9.391   9.112
 7684W        W11884  10.605   4.781  11.931
 7685W        W11885   7.654  10.391   3.107
 7686W        W11886   0.875   1.446   9.521
 7687W        W11887   3.626   3.970  10.131
 7688W        W11888  10.529   5.143   1.716
 7689W        W11889   0.671   9.545   2.505
 7690W        W11890   1.817   5.167   9.929
 7691W        W11891   3.820   3.281  11.349
 7692W        W11892   9.963  10.101   9.743
 7693W        W11893  10.313  11.423   1.878
 7694W        W11894   7.130   2.602  10.835
 7695W        W11895   4.747   9.523   9.236
 7696W        W11896   5.156   9.588  11.391
 7697W        W11897  10.004   2.109   2.927
 7698W        W11898   7.981   5.725  11.474
 7699W        W11899   9.949   4.906   0.069
 7700W        W11900   1.201  10.828  10.284
 7701W        W11901   7.582   0.576   0.759
 7702W        W11902   6.798   7.130   1.226
 7703W        W11903  10.330   0.774   9.242
 7704W        W11904   0.049   6.950  11.891
 7705W        W11905   6.496   4.521   0.643
 7706W        W11906   8.155   0.001   9.711
 7707W        W11907   0.705   3.024   2.390
 7708W        W11908   5.130   8.004   1.129
 7709W        W11909  10.356   0.940   2.394
 7710W        W11910   0.224   9.824  11.386
 7711W        W11911   8.470   9.475  11.643
 7712W        W11912   2.264   0.636   3.398
 7713W        W11913   2.289  10.477  11.930
 7714W        W11914   0.084   1.563   0.892
 7715W        W11915   2.312   8.457   1.269
 7716W        W11916   3.790   3.111   2.821
 7717W        W11917   4.407   9.562   3.566
 7718W        W11918   2.264  11.245   2.225
 7719W        W11919   3.633   7.596   0.419
 7720W        W11920   2.626   4.968   0.360
 7721W        W11921   1.387  10.009  11.758
 7722W        W11922   7.919   1.484  10.741
 7723W        W11923  10.487   1.177   1.537
 7724W        W11924   0.705   3.113   9.269
 7725W        W11925   7.110   1.625  10.825
 7726W        W11926   6.175   7.635   2.283
 7727W        W11927   6.606   6.541   1.109
 7728W        W11928   1.764   2.035   0.501
 7729W        W11929   9.399   1.325  11.498
 7730W        W11930   3.688   3.730   1.646
 7731W        W11931   7.450   4.310   1.968
 7732W        W11932   1.908   1.533   0.479
 7733W        W11933   1.136   9.441   2.270
 7734W        W11934   9.964   6.649   8.726
 7735W        W11935   5.950  10.777   3.241
 7736W        W11936   0.274   9.506   9.014
 7737W        W11937   7.860   5.507  11.006
 7738W        W11938   8.255   9.136   2.092
 7739W        W11939   0.993   3.194   2.790
 7740W        W11940   3.016   4.225  11.512
 7741W        W11941  10.203   4.481  11.941
 7742W        W11942   7.573  10.328  10.290
 7743W        W11943   1.626   8.968   2.872
 7744W        W11944  10.816   6.574   0.686
 7745W        W11945   6.708   0.068   0.424
 7746W        W11946  11.270   6.128   1.538
 7747W        W11947   9.593   3.698  11.912
 7748W        W11948   2.008  11.467   0.853
 7749W        W11949   3.725   7.833   2.212
 7750W        W11950   1.732   5.789   0.653
 7751W        W11951   8.865   8.092   1.492
 7752W        W11952   4.935   6.527   9.093
 7753W        W11953   0.031   2.733   1.972
 7754W        W11954  10.441  11.073  11.074
 7755W        W11955   6.709   2.210   9.400
 7756W        W11956   4.398   1.524   2.280
 7757W        W11957   3.567   4.212   8.913
 7758W        W11958   4.785   0.220  10.956
 7759W        W11959   2.859   7.063   3.292
 7760W        W11960   5.729  10.629   9.949
 7761W        W11961  10.927   4.798   8.585
 7762W        W11962   9.248   9.104   0.613
 7763W        W11963  10.581   2.773  10.732
 7764W        W11964   6.193   1.725   1.020
 7765W        W11965   6.481  10.666   0.787
 7766W        W11966   3.168   4.210   2.258
 7767W        W11967   5.214   6.830   8.771
 7768W        W11968   0.408   5.559   0.052
 7769W        W11969  11.451   6.179   9.076
 7770W        W11970  10.910   5.915  11.000
 7771W        W11971   4.244  10.085  10.807
 7772W        W11972   8.994   9.040   1.038
 7773W        W11973   5.050  11.092   9.354
 7774W        W11974   8.543   5.321   2.374
 7775W        W11975   3.170   3.316   9.981
 7776W        W11976   8.207   0.961   0.107
 7777W        W11977   1.380  10.368  10.486
 7778W        W11978   1.916   4.262   0.430
 7779W        W11979   6.546   3.699   0.386
 7780W        W11980   6.433  10.803   2.314
 7781W        W11981   0.698   9.784   8.940
 7782W        W11982   6.177   4.290  11.873
 7783W        W11983   9.572  11.070   9.817
 7784W        W11984   2.423   5.074  10.514
 7785W        W11985   8.221   5.113  10.992
 7786W        W11986   9.405   3.750   1.178
 7787W        W11987   7.066   7.006   2.429
 7788W        W11988   1.777   7.689   2.162
 7789W        W11989  11.326   9.382   9.992
 7790W        W11990   2.480   3.109  10.613
 7791W        W11991   8.869   9.803  11.699
 7792W        W11992   5.163   1.894   1.826
 7793W        W11993   4.821  11.329   1.608
 7794W        W11994   2.917   3.662   0.242
 7795W        W11995   5.369   2.715   9.037
 7796W        W11996   7.980   0.204  11.868
 7797W        W11997   6.408   9.094   3.749
 7798W        W11998   8.364   3.410   1.753
 7799W        W11999   5.991   0.186   0.216
 7800W        W12000   6.508  10.834  11.576
 7801W        W12001  10.495   2.236   3.474
 7802W        W12002   0.790   6.702   1.803
 7803W        W12003   8.428   1.405  11.957
 7804W        W12004   1.772   1.761  10.041
 7805W        W12005   3.251   8.683  10.327
 7806W        W12006   6.595   6.138   0.809
 7807W        W12007   9.513   8.203   3.230
 7808W        W12008   1.416   3.524   2.061
 7809W        W12009   6.273   8.854  11.088
 7810W        W12010   8.879   6.222   3.210
 7811W        W12011   8.933   9.433   3.071
 7812W        W12012   5.710   5.116   9.146
 7813W        W12013   9.324   3.386   1.805
 7814W        W12014   7.636   5.423   9.822
 7815W        W12015   3.126   2.087   9.691
 7816W        W12016   0.942   1.936   3.201
 7817W        W12017   8.908   0.539   3.093
 7818W        W12018  10.397   6.438   1.988
 7819W        W12019   7.914   4.265  10.043
 7820W        W12020   6.681   2.532  11.995
 7821W        W12021   4.531   5.790   1.069
 7822W        W12022  10.842   7.024   0.919
 7823W        W12023   4.447   3.252   0.777
 7824W        W12024  10.651   9.596   9.564
 7825W        W12025  11.385   5.506   3.215
 7826W        W12026   6.656   2.726   9.497
 7827W        W12027   5.481  10.167  11.810
 7828W        W12028   2.787   4.838   0.835
 7829W        W12029   2.510   9.520   1.700
 7830W        W12030   5.164   6.521   1.202
 7831W        W12031   1.810   3.352   0.836
 7832W        W12032  10.458   9.130   9.421
 7833W        W12033   4.245   8.719   3.746
 7834W        W12034   0.837   0.276   1.139
 7835W        W12035   5.974   8.193   3.586
 7836W        W12036   7.646   6.551  10.527
 7837W        W12037   4.436   4.215  10.453
 7838W        W12038   8.947  10.816   9.440
 7839W        W12039   7.866   6.925   9.095
 7840W        W12040   8.526   6.913   1.392
 7841W        W12041   2.689  10.791   1.132
 7842W        W12042  10.024  11.273   3.093
 7843W        W12043   3.095   7.054   1.948
 7844W        W12044   3.784   5.968  11.032
 7845W        W12045   4.814   6.147  11.305
 7846W        W12046   9.540   8.622  10.344
 7847W        W12047   3.389  10.012   9.198
 7848W        W12048   2.240   7.860   9.457
 7849W        W12049   3.350   3.469   0.071
 7850W        W12050   1.451   7.857  11.989
 7851W        W12051   4.482   2.739   9.774
 7852W        W12052   8.602   9.158   0.410
 7853W        W12053   9.086  11.345  10.809
 7854W        W12054   7.188   2.362   3.371
 7855W        W12055   2.554   2.619  11.292
 7856W        W12056   0.320   4.812   1.253
 7857W        W12057   4.687   0.306   2.944
 7858W        W12058   5.776   4.380   1.682
 7859W        W12059   6.668   6.061   2.308
 7860W        W12060   5.878   2.731   8.980
 7861W        W12061   8.289   5.161   3.195
 7862W        W12062   6.919   5.097   2.374
 7863W        W12063   9.127   8.412  11.506
 7864W        W12064   2.248   5.278   9.098
 7865W        W12065   1.284   4.086   9.764
 7866W        W12066   0.858   0.248   2.175
 7867W        W12067   7.463  11.477  10.183
 7868W        W12068   0.745   2.168   1.930
 7869W        W12069   7.175   0.769  11.847
 7870W        W12070   8.353   4.530  10.295
 7871W        W12071  11.116   4.122   2.281
 7872W        W12072   9.899   3.786   1.344
 7873W        W12073   3.115   9.379   0.762
 7874W        W12074   3.816   1.639   9.932
 7875W        W12075  10.845   4.627  10.813
 7876W        W12076   8.249   6.367  10.810
 7877W        W12077  10.104   3.814   9.541
 7878W        W12078  10.701   4.154  10.582
 7879W        W12079   5.137   7.505  10.615
 7880W        W12080  11.417  10.962   2.795
 7881W        W12081   0.429   5.287   1.401
 7882W        W12082  10.210   3.669   3.405
 7883W        W12083   6.346   3.943   8.189
 7884W        W12084   3.225   5.396   3.675
 7885W        W12085   8.475   0.825   3.167
 7886W        W12086   1.817   6.505   9.072
 7887W        W12087   2.314   1.851   0.444
 7888W        W12088  10.863   3.927  11.082
 7889W        W12089   5.229   1.840  11.433
 7890W        W12090   5.455   8.167   9.902
 7891W        W12091   5.882   2.012   1.909
 7892W        W12092   2.308   7.532  11.787
 7893W        W12093   3.189   0.289   1.412
 7894W        W12094   7.655   3.118  10.966
 7895W        W12095   2.437  10.701  10.876
 7896W        W12096   4.190   3.206  10.468
 7897W        W12097   8.588   4.261   2.856
 7898W        W12098   1.398   0.412   0.864
 7899W        W12099   0.296   0.406   0.015
 7900W        W12100   7.069   0.258   2.232
 7901W        W12101   9.110   6.638   8.874
 7902W        W12102   4.211   7.501   1.801
 7903W        W12103   8.606   1.799   3.388
 7904W        W12104   1.516   0.330   9.585
 7905W        W12105   1.439   2.884   8.345
 7906W        W12106   7.342   6.458  10.104
 7907W        W12107  10.568   7.128   2.763
 7908W        W12108  11.485   9.834   3.360
 7909W        W12109   6.455   9.763   0.811
 7910W        W12110   1.934   7.708   3.527
 7911W        W12111   2.846   1.883   0.541
 7912W        W12112   7.018   4.832   9.110
 7913W        W12113   3.291   6.221  10.710
 7914W        W12114   9.609   3.108   2.777
 7915W        W12115   6.453   6.091  10.988
 7916W        W12116  10.357  10.395   0.212
 7917W        W12117   3.124   6.052  11.845
 7918W        W12118   5.358   1.912  10.013
 7919W        W12119   7.724   5.955  10.690
 7920W        W12120   7.492   5.386   0.241
 7921W        W12121   9.390  10.280   2.804
 7922W        W12122   0.994   9.865   1.673
 7923W        W12123   4.601   1.773   1.414
 7924W        W12124   6.152   2.266   0.772
 7925W        W12125   1.839   2.261   8.757
 7926W        W12126   2.185   7.077  11.563
 7927W        W12127   9.444   9.118   9.379
 7928W        W12128   4.657   1.884  10.292
 7929W        W12129   1.376   6.962   3.261
 7930W        W12130   9.976   3.281  10.842
 7931W        W12131   8.953   5.060   3.741
 7932W        W12132   6.471   9.958  11.897
 7933W        W12133   5.205   8.339   1.551
 7934W        W12134   6.604   2.317   0.474
 7935W        W12135  11.282  10.536  10.402
 7936W        W12136   4.767   0.975   1.621
 7937W        W12137   7.694   8.954  11.386
 7938W        W12138   5.524   7.536  11.442
 7939W        W12139   7.623   3.120   2.015
 7940W        W12140   7.942   6.879  11.713
 7941W        W12141   4.692   9.414   2.180
 7942W        W12142   2.260   6.135   0.277
 7943W        W12143   3.929   0.412   8.810
 7944W        W12144   5.931   0.979   9.486
 7945W        W12145   7.504   4.091   9.281
 7946W        W12146   9.495   1.880   3.521
 7947W        W12147   4.613  11.087   2.010
 7948W        W12148   5.711   1.173   0.344
 7949W        W12149   5.406  10.810  10.735
 7950W        W12150   6.988   4.192   9.980
 7951W        W12151   7.686   7.068  10.480
 7952W        W12152   3.681   6.461  10.933
 7953W        W12153  10.055   8.311   8.413
 7954W        W12154  11.004   0.379  10.372
 7955W        W12155  10.819   4.174   2.746
 7956W        W12156   1.349   6.598   2.901
 7957W        W12157   2.296   4.704   9.275
 7958W        W12158   2.413   1.556   2.951
 7959W        W12159   3.018   7.508   2.549
 7960W        W12160   5.482  11.459   0.883
 7961W        W12161   9.582   5.410   1.621
 7962W        W12162   1.003   7.072   8.733
 7963W        W12163   7.091   3.033   0.117
 7964W        W12164   1.776   5.422   0.303
 7965W        W12165   6.819   3.268   3.747
 7966W        W12166   6.676   5.359  10.599
 7967W        W12167   3.576   1.472   1.272
 7968W        W12168   4.102   8.023   0.892
 7969W        W12169   4.340   4.843   2.778
 7970W        W12170   2.231   0.413   1.955
 7971W        W12171   8.352  10.397   0.407
 7972W        W12172   5.235   9.368  11.855
 7973W        W12173   7.652   2.571  11.782
 7974W        W12174   2.825   2.833   2.798
 7975W        W12175   4.834   2.871  10.124
 7976W        W12176   0.765   7.572   1.258
 7977W        W12177   8.488  10.839   3.284
 7978W        W12178   0.800   4.089   9.563
 7979W        W12179   6.144   0.414   1.732
 7980W        W12180  10.531  10.717   0.556
 7981W        W12181   4.970  10.647   2.339
 7982W        W12182   5.605   9.635   9.804
 7983W        W12183   8.037   7.378   1.677
 7984W        W12184   3.031   9.043   9.564
 7985W        W12185  10.291   3.562   2.906
 7986W        W12186   5.125   1.650   0.843
 7987W        W12187   5.125   1.123   8.804
 7988W        W12188  10.005  10.780   3.232
 7989W        W12189   8.522   0.400  11.492
 7990W        W12190   8.597   7.455   2.775
 7991W        W12191   4.519   0.421   2.295
 7992W        W12192   7.453   3.037   9.708
 7993W        W12193   7.243  10.876   1.968
 7994W        W12194   0.004   5.533  11.728
 7995W        W12195   5.096  10.302   3.273
 7996W        W12196   8.678   9.395   2.244
 7997W        W12197   9.554   1.124   0.350
 7998W        W12198   6.567   9.508  11.637
 7999W        W12199   1.795   5.898   0.137
 8000W        W12200   5.629   3.679   3.300
 8001W        W12201   8.663   1.264   2.465
 8002W        W12202   9.003   4.532  11.881
 8003W        W12203  11.016   9.057   8.775
 8004W        W12204   2.467   7.050  11.084
 8005W        W12205   0.920   9.904   2.221
 8006W        W12206   9.668  10.856   3.611
 8007W        W12207   8.812   7.080  11.252
 8008W        W12208   6.545   2.198   8.790
 8009W        W12209   3.238   6.475  11.198
 8010W        W12210   0.702   3.644   9.800
 8011W        W12211   8.111   6.216   3.974
 8012W        W12212  10.486   8.615   9.401
 8013W        W12213  10.769   9.040  10.751
 8014W        W12214   6.556   4.800   1.660
 8015W        W12215   7.953   4.129   3.665
 8016W        W12216   7.542   2.874  11.393
 8017W        W12217   3.344   2.778   0.334
 8018W        W12218   2.698   6.511   9.534
 8019W        W12219   7.165   6.617   3.788
 8020W        W12220   1.485   2.795   3.025
 8021W        W12221   1.363   6.034   3.362
 8022W        W12222   0.671   5.231   0.934
 8023W        W12223   8.344   5.583  10.816
 8024W        W12224   8.682  10.482   1.751
 8025W        W12225   2.603   8.057   8.604
 8026W        W12226   6.924   9.855  11.683
 8027W        W12227   9.144   1.804  10.387
 8028W        W12228   2.717   6.009   8.984
 8029W        W12229   2.261   6.610  11.839
 8030W        W12230   5.270   6.040  11.508
 8031W        W12231   5.842   2.718   8.317
 8032W        W12232   0.296   7.476   1.412
 8033W        W12233  10.807   7.664  10.149
 8034W        W12234   3.419   5.244   0.315
 8035W        W12235   9.223   9.342   1.867
 8036W        W12236   6.985   9.831   1.659
 8037W        W12237   5.942   8.667  10.309
 8038W        W12238   5.833   0.019   9.014
 8039W        W12239  11.051   7.966   3.201
 8040W        W12240   3.244  10.348   2.142
 8041W        W12241   6.498  11.406  10.266
 8042W        W12242   5.425   9.539   3.694
 8043W        W12243   4.476   1.636   9.883
 8044W        W12244   2.445   2.141  11.443
 8045W        W12245   6.159   8.832   1.844
 8046W        W12246   0.358  10.194   3.286
 8047W        W12247   3.424  10.486   9.939
 8048W        W12248   9.080  10.221   8.772
 8049W        W12249   6.988  10.976  11.688
 8050W        W12250   8.689   5.747   3.114
 8051W        W12251  10.316   2.433  10.445
 8052W        W12252   5.019   6.516  10.100
 8053W        W12253   6.948   8.866   3.689
 8054W        W12254   9.903   4.065   1.793
 8055W        W12255   9.348   6.078   9.213
 8056W        W12256   0.356   1.307  10.390
 8057W        W12257  11.269   4.243   2.983
 8058W        W12258   7.238  11.079  10.405
 8059W        W12259  10.353   1.788   2.154
 8060W        W12260   8.657   5.213  10.632
 8061W        W12261   7.575   4.831  11.449
 8062W        W12262   3.113   4.764   0.417
 8063W        W12263   3.439   8.018   9.117
 8064W        W12264   7.786   3.875   3.258
 8065W        W12265   2.473   7.497  11.307
 8066W        W12266   4.207   3.868  11.040
 8067W        W12267   0.420   0.850   8.754
 8068W        W12268   7.897   0.690   9.292
 8069W        W12269   9.800   2.827  11.589
 8070W        W12270  11.393   8.626   0.145
 8071W        W12271   3.415   9.898  11.531
 8072W        W12272   1.764   4.588   0.031
 8073W        W12273   0.904   0.019   2.837
 8074W        W12274   5.218   5.597   1.863
 8075W        W12275   6.735   0.499   3.542
 8076W        W12276   2.412   7.070   0.552
 8077W        W12277   9.561  11.201   0.508
 8078W        W12278   2.769   6.890   8.732
 8079W        W12279  10.347   5.051   3.270
 8080W        W12280   1.460   3.730   0.496
 8081W        W12281  10.395   5.153   0.665
 8082W        W12282  11.406   8.430   1.669
 8083W        W12283   4.139   4.115  10.041
 8084W        W12284   4.750   0.704   2.634
 8085W        W12285   9.588   2.298   3.203
 8086W        W12286   7.561   7.566   1.851
 8087W        W12287   6.597   2.075   0.938
 8088W        W12288  10.149   8.991   0.493
 8089W        W12289   6.537   0.427   1.395
 8090W        W12290   3.286   6.666   1.652
 8091W        W12291   3.556   8.069   0.823
 8092W        W12292   3.229   3.217   2.768
 8093W        W12293   0.768   2.209   2.782
 8094W        W12294   5.948   3.818  11.860
 8095W        W12295   0.424   3.024   9.729
 8096W        W12296  10.443  10.052   9.497
 8097W        W12297   9.057   4.997  10.374
 8098W        W12298   5.608   9.431   2.229
 8099W        W12299   3.108   5.128   8.683
 8100W        W12300   3.632   9.952  11.048
 8101W        W12301   4.291   2.669   1.454
 8102W        W12302   8.514  10.377   2.642
 8103W        W12303   2.189   2.276   0.741
 8104W        W12304   4.743   0.319   8.372
 8105W        W12305   9.799   7.015   2.363
 8106W        W12306   0.455   4.807  10.128
 8107W        W12307   3.784   5.956  10.488
 8108W        W12308  11.057   2.872  11.721
 8109W        W12309   2.797   0.814  10.022
 8110W        W12310   0.510   9.504  10.725
 8111W        W12311   6.961  11.374   0.845
 8112W        W12312   6.859   6.072   0.350
 8113W        W12313   0.820  11.186  10.182
 8114W        W12314   7.386   8.915  11.779
 8115W        W12315  10.419   8.499   3.463
 8116W        W12316   3.828   2.120   9.058
 8117W        W12317   4.160   1.959  10.128
 8118W        W12318   6.303   6.306   9.189
 8119W        W12319   5.178   1.141   0.849
 8120W        W12320   0.674   5.238   9.295
 8121W        W12321   8.067   5.694   1.674
 8122W        W12322   9.074   8.536  10.538
 8123W        W12323  10.916   9.124  10.275
 8124W        W12324   6.325  10.023  10.286
 8125W        W12325   8.190   6.549   8.966
 8126W        W12326   2.102   7.121   2.744
 8127W        W12327   7.073  10.554   1.479
 8128W        W12328   6.081   9.785   9.902
 8129W        W12329  10.984   4.892   1.627
 8130W        W12330   0.350   2.612  10.513
 8131W        W12331  10.001   0.795   9.908
 8132W        W12332   1.862  11.003  11.496
 8133W        W12333   0.217   4.527   9.770
 8134W        W12334   2.463   6.158   1.275
 8135W        W12335   7.534   9.724   1.330
 8136W        W12336  11.119   7.843   0.031
 8137W        W12337   4.367   8.959   8.521
 8138W        W12338   8.144   3.179  10.447
 8139W        W12339   1.226   9.969  11.283
 8140W        W12340   3.966  10.859   0.786
 8141W        W12341   6.277  10.967  10.556
 8142W        W12342   5.108   9.633  10.880
 8143W        W12343   5.148   2.632   2.263
 8144W        W12344   3.670   4.352  11.978
 8145W        W12345   2.692  11.199  10.403
 8146W        W12346   7.518   4.057  11.831
 8147W        W12347   9.064   9.519   0.882
 8148W        W12348   7.964   8.480  11.431
 8149W        W12349   2.240  10.961  10.493
 8150W        W12350   2.816   3.655   9.868
 8151W        W12351   7.451  10.780  10.743
 8152W        W12352   1.259   0.998  10.437
 8153W        W12353   6.015   3.810   0.913
 8154W        W12354   5.723   4.253   8.650
 8155W        W12355   2.929   3.025   0.938
 8156W        W12356  10.451   7.864  11.055
 8157W        W12357   1.476  10.292   0.515
 8158W        W12358   6.090   8.969   0.510
 8159W        W12359   2.681   0.774   2.135
 8160W        W12360   1.038   1.442   2.352
 8161W        W12361   5.543   1.488  10.197
 8162W        W12362   2.549  11.453   9.984
 8163W        W12363   7.276  10.478   8.942
 8164W        W12364  10.392   8.926   9.906
 8165W        W12365   1.656   9.057  10.375
 8166W        W12366   9.581   6.134   0.530
 8167W        W12367   3.616   7.002   2.840
 8168W        W12368   7.889   5.339   9.064
 8169W        W12369   8.529   1.232   9.006
 8170W        W12370  11.285   6.609  10.959
 8171W        W12371   3.661   2.851   2.191
 8172W        W12372  11.368   2.563   0.004
 8173W        W12373   3.562  10.165  10.359
 8174W        W12374  10.767   7.684   2.906
 8175W        W12375  10.244   9.675  11.258
 8176W        W12376   3.691   7.429   9.333
 8177W        W12377  11.418  10.981  10.119
 8178W        W12378   3.214   6.961  11.988
 8179W        W12379   5.559   4.462  11.702
 8180W        W12380   4.758  10.913   2.997
 8181W        W12381   4.590   6.282   0.660
 8182W        W12382   5.919   7.249   1.168
 8183W        W12383   5.699   6.404   3.606
 8184W        W12384   2.079   0.074   9.870
 8185W        W12385   3.896   5.110   1.560
 8186W        W12386   6.681   8.324   3.347
 8187W        W12387   8.927   7.792   9.461
 8188W        W12388   3.373   1.396   2.760
 8189W        W12389  10.609   5.456   9.699
 8190W        W12390   1.280   6.440   0.722
 8191W        W12391   8.118   6.594   0.493
 8192W        W12392   6.668  10.297   3.568
 8193W        W12393   3.464   8.411   3.594
 8194W        W12394   6.200   7.002  10.584
 8195W        W12395   0.179  10.888  11.115
 8196W        W12396   7.495   0.300   9.024
 8197W        W12397  11.203   2.914   0.954
 8198W        W12398   8.083   0.269   1.974
 8199W        W12399   0.366   8.459   9.800
 8200W        W12400   1.484   1.255   0.495
 8201W        W12401   7.687   8.413   0.803
 8202W        W12402   8.246   2.248   1.739
 8203W        W12403  11.105   1.376   0.938
 8204W        W12404   6.887  10.899   1.045
 8205W        W12405  11.414   0.584   3.837
 8206W        W12406   1.896   9.462  10.961
 8207W        W12407   9.953   6.525   2.235
 8208W        W12408   8.004   2.704   9.772
 8209W        W12409   2.188   9.919  10.257
 8210W        W12410   6.644   1.367  10.791
 8211W        W12411   8.687   6.587   2.638
 8212W        W12412   2.206   5.153   3.149
 8213W        W12413   8.116   8.638  10.808
 8214W        W12414   7.521   8.626   1.938
 8215W        W12415   5.170   6.237  10.966
 8216W        W12416   6.121  10.898   2.750
 8217W        W12417   5.339   6.050   1.286
 8218W        W12418   9.994   5.430  11.901
 8219W        W12419   7.116  10.578  10.394
 8220W        W12420   3.143  11.129   2.922
 8221W        W12421   4.479   3.603   9.173
 8222W        W12422   2.131  10.172   8.939
 8223W        W12423   7.246   3.307   0.936
 8224W        W12424   7.381   9.116   1.899
 8225W        W12425   2.151  10.986   9.583
 8226W        W12426   7.589   0.578   2.722
 8227W        W12427   8.939   4.548  10.169
 8228W        W12428   3.391   9.594  10.772
 8229W        W12429   7.191   5.566   1.930
 8230W        W12430   0.464   4.101   2.894
 8231W        W12431  10.318   7.624   2.706
 8232W        W12432   0.681  11.069  11.128
 8233W        W12433   2.322   2.274  10.925
 8234W        W12434   7.091   1.508   0.357
 8235W        W12435   2.240  10.777   0.349
 8236W        W12436   3.186   9.791   2.212
 8237W        W12437  11.056   7.919   1.154
 8238W        W12438   6.567   7.864  10.403
 8239W        W12439   0.076   3.795   3.635
 8240W        W12440  10.894   3.160  10.972
 8241W        W12441  10.958   0.154   8.996
 8242W        W12442   5.457   3.649  11.792
 8243W        W12443   6.221   4.157   3.460
 8244W        W12444   2.374   4.042   0.363
 8245W        W12445   2.107   2.721  11.499
 8246W        W12446  10.342   4.060   9.016
 8247W        W12447   1.365   2.705   0.137
 8248W        W12448   8.237   0.966   0.634
 8249W        W12449   7.941   4.083   9.532
 8250W        W12450   5.881   7.674   3.989
 8251W        W12451   8.080   4.730   9.906
 8252W        W12452   4.140   5.226  10.533
 8253W        W12453   1.130   4.456   1.849
 8254W        W12454  11.383  10.069  10.614
 8255W        W12455  11.208   6.303  11.365
 8256W        W12456   7.093   6.328   4.224
 8257W        W12457   5.013   4.726   0.208
 8258W        W12458   9.960   9.231  11.986
 8259W        W12459   0.936   3.629   3.411
 8260W        W12460   5.253   4.540   8.655
 8261W        W12461  11.481   3.513   0.390
 8262W        W12462   1.396  11.479   1.811
 8263W        W12463   1.293  11.118   2.175
 8264W        W12464   9.557   6.779  10.356
 8265W        W12465   5.624   6.522   9.887
 8266W        W12466   3.374   7.147   1.494
 8267W        W12467   1.315   5.945   9.207
 8268W        W12468   1.320   9.909   0.787
 8269W        W12469   0.413   0.022   2.351
 8270W        W12470   6.463   2.033  10.249
 8271W        W12471  10.252  10.534  10.268
 8272W        W12472   7.943   0.971  10.712
 8273W        W12473   6.622   7.817   9.117
 8274W        W12474   1.765   7.225   3.467
 8275W        W12475   4.077  10.754   0.051
 8276W        W12476   8.541  10.747   1.335
 8277W        W12477   6.592   5.723   0.042
 8278W        W12478   6.761   7.079   0.643
 8279W        W12479   6.640   3.281  10.551
 8280W        W12480   7.924   6.427   0.920
 8281W        W12481  10.083   5.853   3.385
 8282W        W12482   4.619  10.012  10.013
 8283W        W12483   9.407  10.675   1.219
 8284W        W12484   9.069   4.266   2.616
 8285W        W12485   8.972   5.574   2.136
 8286W        W12486   9.915   6.836   3.218
 8287W        W12487  11.081   0.955  11.756
 8288W        W12488   3.824   4.430  10.268
 8289W        W12489   9.250   5.811   0.197
 8290W        W12490   5.443   6.273   1.731
 8291W        W12491  11.446   7.303   2.974
 8292W        W12492  10.350   9.490   2.659
 8293W        W12493   6.538   8.317   1.160
 8294W        W12494   9.743   7.268  10.412
 8295W        W12495   4.328   7.197   2.348
 8296W        W12496  11.138   6.362   8.401
 8297W        W12497   4.102   4.875   8.574
 8298W        W12498  11.115   3.107   0.495
 8299W        W12499   1.586   6.687   0.376
 8300W        W12500   8.143   9.412   0.521
 8301W        W12501   8.042   9.987   2.275
 8302W        W12502   4.759  10.786   0.288
 8303W        W12503   8.693   8.861   9.821
 8304W        W12504   3.814  10.392   0.347
 8305W        W12505   9.762   8.982   2.787
 8306W        W12506   6.097   3.763   2.656
 8307W        W12507   0.712  10.273   9.165
 8308W        W12508   1.793   6.568   1.786
 8309W        W12509   0.020   5.033   1.642
 8310W        W12510   3.940   9.357   9.882
 8311W        W12511   1.668  11.286  11.091
 8312W        W12512   3.520   5.612   2.362
 8313W        W12513   2.217   0.128   3.486
 8314W        W12514   9.434   9.254  11.258
 8315W        W12515   6.376   1.688   2.042
 8316W        W12516  10.437   5.456   3.577
 8317W        W12517   1.948   3.132  10.485
 8318W        W12518   1.785   0.014   2.749
 8319W        W12519   6.908   8.248  10.228
 8320W        W12520   9.306   9.282   0.141
 8321W        W12521   2.474   7.974  10.374
 8322W        W12522   2.363   1.826   1.462
 8323W        W12523   4.813   8.026   2.867
 8324W        W12524  11.455  10.068   0.132
 8325W        W12525   7.649   5.169   1.816
 8326W        W12526   2.617   0.699  10.494
 8327W        W12527   3.417   6.472   9.077
 8328W        W12528   5.718  11.157   3.477
 8329W        W12529   4.724   9.810   2.510
 8330W        W12530   2.154   3.269  11.878
 8331W        W12531   3.852   7.125   9.748
 8332W        W12532   3.781   7.423  11.094
 8333W        W12533   7.734   8.452  10.504
 8334W        W12534   0.134   7.798   0.170
 8335W        W12535   1.615   5.675   2.659
 8336W        W12536  10.402   4.724   9.334
 8337W        W12537   6.091   1.200   3.389
 8338W        W12538   1.743   9.131  11.357
 8339W        W12539   8.556   2.740   0.533
 8340W        W12540   3.913  10.285   9.952
 8341W        W12541   9.039   9.979   0.590
 8342W        W12542   2.295   3.240  10.142
 8343W        W12543   8.613   0.048   0.854
 8344W        W12544   7.775   7.928  10.763
 8345W        W12545   1.608   9.721   1.538
 8346W        W12546  10.368   4.556   3.429
 8347W        W12547   6.121   9.037   3.276
 8348W        W12548   8.001  10.009   1.259
 8349W        W12549   8.860   5.471   0.114
 8350W        W12550  11.021   6.192   1.989
 8351W        W12551  11.325   7.702   0.594
 8352W        W12552   5.524   3.680  10.137
 8353W        W12553   8.456   2.197  10.771
 8354W        W12554   3.165   4.806   1.579
 8355W        W12555   1.497   4.767  11.072
 8356W        W12556   3.103   7.083   2.829
 8357W        W12557  10.838   6.347  10.726
 8358W        W12558   3.426  10.468   3.582
 8359W        W12559   6.235   9.968   1.720
 8360W        W12560   1.805   1.396  11.387
 8361W        W12561  10.897   6.593   8.820
 8362W        W12562   6.923   4.636   3.168
 8363W        W12563  10.349   8.325   1.230
 8364W        W12564   2.338   1.179   0.477
 8365W        W12565   0.565   2.425   2.362
 8366W        W12566   6.657   2.855  11.586
 8367W        W12567  10.870   2.948   3.566
 8368W        W12568   2.605   9.847   9.894
 8369W        W12569   2.251   0.521  11.780
 8370W        W12570   7.797   8.138   1.413
 8371W        W12571   0.288   1.303   1.709
 8372W        W12572  11.040  10.415   9.474
 8373W        W12573   5.487   6.152   9.521
 8374W        W12574   3.481   2.180   3.243
 8375W        W12575   0.473   7.087   1.712
 8376W        W12576   3.900   1.510   0.381
 8377W        W12577   5.564   7.820   9.548
 8378W        W12578   9.093   7.725   1.207
 8379W        W12579   7.483   8.688   0.399
 8380W        W12580  10.440  10.384   1.644
 8381W        W12581   4.182   8.559   3.053
 8382W        W12582   4.266   9.090   3.346
 8383W        W12583   8.605   8.319   3.004
 8384W        W12584   5.524   0.341   1.372
 8385W        W12585  11.086   3.410   2.954
 8386W        W12586   5.815  10.557  11.786
 8387W        W12587   4.529   4.868   0.096
 8388W        W12588   1.708   4.814   3.170
 8389W        W12589   8.094   1.837   9.448
 8390W        W12590   9.875   3.360   3.159
 8391W        W12591   7.857   1.763   1.014
 8392W        W12592  11.333  11.031  11.553
 8393W        W12593   5.176   6.498   0.183
 8394W        W12594   2.186  11.467   9.385
 8395W        W12595   0.662  11.085   0.276
 8396W        W12596   5.181   1.848   1.325
 8397W        W12597   6.471   5.060  10.980
 8398W        W12598   3.137   4.305   1.340
 8399W        W12599   1.823   9.958   2.819
 8400W        W12600   4.630   8.378   3.771
 8401W        W12601   7.000   8.871   0.096
 8402W        W12602   5.078   1.895   9.311
 8403W        W12603   2.051  11.065   8.613
 8404W        W12604   7.428   3.285   1.580
 8405W        W12605   0.234   1.080   0.891
 8406W        W12606   0.999  10.989  11.514
 8407W        W12607   4.475  11.081  11.940
 8408W        W12608   1.144  10.064   8.916
 8409W        W12609   5.615   9.812  11.437
 8410W        W12610   5.206   0.459   2.741
 8411W        W12611   3.310   3.282  11.057
 8412W        W12612  10.076   6.033   2.126
 8413W        W12613   0.515  10.558   0.063
 8414W        W12614   2.142   4.544   3.120
 8415W        W12615   3.374   2.424  11.489
 8416W        W12616   4.282   2.189   1.232
 8417W        W12617   5.843   8.659  11.836
 8418W        W12618   6.037   0.316  11.289
 8419W        W12619   4.214   0.291   2.729
 8420W        W12620   0.795   4.515   0.323
 8421W        W12621   9.923   8.587   1.091
 8422W        W12622   6.031   0.824  11.081
 8423W        W12623   5.200   0.528   9.230
 8424W        W12624   9.008   2.509  11.969
 8425W        W12625   7.761   6.159  10.220
 8426W        W12626   2.063   5.076   9.512
 8427W        W12627   2.434   0.355  10.833
 8428W        W12628   9.964   5.354   3.407
 8429W        W12629   5.099   9.118   9.498
 8430W        W12630   4.372   7.163   1.466
 8431W        W12631   8.429   0.265   0.414
 8432W        W12632   0.873  10.216  10.985
 8433W        W12633   2.087   9.488   0.743
 8434W        W12634   4.833   3.829  10.495
 8435W        W12635   3.528   5.240   0.870
 8436W        W12636   1.209   3.130   2.306
 8437W        W12637   7.253   0.541   1.379
 8438W        W12638   0.285   3.930   1.515
 8439W        W12639   8.840   2.238   9.900
 8440W        W12640   0.161  10.992   0.440
 8441W        W12641   9.472   9.860   9.897
 8442W        W12642  10.401   6.173  11.656
 8443W        W12643   1.307   6.461   9.264
 8444W        W12644   8.815   4.092  10.412
 8445W        W12645   7.968   7.500   0.287
 8446W        W12646   0.718   2.786  11.470
 8447W        W12647   6.411   7.697   4.057
 8448W        W12648   0.486   4.822   8.958
 8449W        W12649   5.036   0.482   2.256
 8450W        W12650   6.978  10.244  10.032
 8451W        W12651   3.826   8.853   3.496
 8452W        W12652   4.523   8.918  11.421
 8453W        W12653   4.624   2.346   2.164
 8454W        W12654   0.569   4.307   1.224
 8455W        W12655   3.736   7.145   8.902
 8456W        W12656   0.369   6.477  10.192
 8457W        W12657   0.269   0.870   9.740
 8458W        W12658   5.781   8.135  11.997
 8459W        W12659   5.609   9.309  10.776
 8460W        W12660   1.894   1.074   0.217
 8461W        W12661   2.805   4.671   9.150
 8462W        W12662  10.736   7.141   2.235
 8463W        W12663  10.379   7.141   0.728
 8464W        W12664  10.606   1.348   1.071
 8465W        W12665   6.155   0.372   0.657
 8466W        W12666  11.460   8.165   2.650
 8467W        W12667   2.568   1.589   9.009
 8468W        W12668   4.397   6.611  10.454
 8469W        W12669   8.592  10.242  10.568
 8470W        W12670   3.313   0.309   9.633
 8471W        W12671   3.215   3.653  10.359
 8472W        W12672   7.106   6.046   0.866
 8473W        W12673   7.054   7.574   8.982
 8474W        W12674   8.152   1.863  10.503
 8475W        W12675  11.401   4.098   1.860
 8476W        W12676   4.797   1.910  11.676
 8477W        W12677   6.983   5.735  10.435
 8478W        W12678   6.020   9.573  10.577
 8479W        W12679   5.102   7.816   9.806
 8480W        W12680   3.814   3.627   9.779
 8481W        W12681   1.026   8.938   1.534
 8482W        W12682   5.177   8.701   0.597
 8483W        W12683   7.959   7.035   2.059
 8484W        W12684   9.149   5.194   0.466
 8485W        W12685   4.801  10.374   9.663
 8486W        W12686   8.391   5.510  10.319
 8487W        W12687   2.666  10.874   0.631
 8488W        W12688   9.365   0.844   1.241
 8489W        W12689   9.803   2.724   9.065
 8490W        W12690  10.857   3.031   9.953
 8491W        W12691  11.305   0.588  11.280
 8492W        W12692   2.780   1.021  11.422
 8493W        W12693   2.198   2.145   3.405
 8494W        W12694   9.446   1.467  10.090
 8495W        W12695   5.935   1.819  10.207
 8496W        W12696   4.496   7.610   2.704
 8497W        W12697   5.416   6.102   2.741
 8498W        W12698   4.752   8.541   2.895
 8499W        W12699   4.211   2.923   1.925
 8500W        W12700   6.052  10.948   0.692
 8501W        W12701   7.896   4.190  10.589
 8502W        W12702   4.306  11.047   0.427
 8503W        W12703   5.188  11.420  11.101
 8504W        W12704   7.243   9.248   9.953
 8505W        W12705   9.391   6.190  11.543
 8506W        W12706  10.655   3.891   3.622
 8507W        W12707   3.937   8.007  10.506
 8508W        W12708   6.790  10.767  10.789
 8509W        W12709   4.908  10.098   0.958
 8510W        W12710   1.612   0.856   3.430
 8511W        W12711   7.077  10.485   9.440
 8512W        W12712   9.810  10.797   8.991
 8513W        W12713   2.152   0.195   2.444
 8514W        W12714   2.385   6.113  11.330
 8515W        W12715   4.163   1.718   9.142
 8516W        W12716  10.466   4.322  11.015
 8517W        W12717   9.803   0.391   1.300
 8518W        W12718   0.908   4.981   0.518
 8519W        W12719   1.317   5.296   9.945
 8520W        W12720   8.471   5.799   0.814
 8521W        W12721   1.167   8.147  11.308
 8522W        W12722   0.213   3.460  11.943
 8523W        W12723   2.728   3.857   0.674
 8524W        W12724   2.608   5.088   9.424
 8525W        W12725   9.878   5.701   0.751
 8526W        W12726   8.577   8.279   1.015
 8527W        W12727   6.036   9.455   8.616
 8528W        W12728   9.597   3.116  10.526
 8529W        W12729   6.342   2.100   1.738
 8530W        W12730   5.809   9.867   1.481
 8531W        W12731   7.124   9.894   2.159
 8532W        W12732   4.643  11.264   9.615
 8533W        W12733   5.704   8.328   9.492
 8534W        W12734   5.660   5.815   1.980
 8535ION    NA+12735   2.767   6.715  11.893
 8536ION    NA+12736   4.180   1.089   2.052
 8537ION    NA+12737   1.031  10.680   3.223
 8538ION    NA+12738   6.812   0.891   1.386
 8539ION    NA+12739   7.203   3.416   9.477
 8540ION    NA+12740  10.313   9.627   3.561
 8541ION    NA+12741  11.466   2.020  11.410
 8542ION    NA+12742   5.637   4.057   0.643
 8543ION    NA+12743  11.250   7.142   9.645
 8544ION    NA+12744   8.226   4.610   9.423
 8545ION    NA+12745   6.825   6.445  10.907
 8546ION    NA+12746   7.746   2.280   1.656
 8547ION    NA+12747   8.052   4.990   0.994
 8548ION    NA+12748   8.125   2.276   3.250
 8549ION    NA+12749   1.854  11.003   0.997
 8550ION    NA+12750   0.923   9.286  11.896
 8551ION    NA+12751   7.857   6.239  11.509
 8552ION    NA+12752   5.350   1.575   3.227
 8553ION    NA+12753   3.994  10.433  10.477
 8554ION    NA+12754   1.839   3.113   9.920
 8555ION    NA+12755   9.850   4.720   2.306
 8556ION    NA+12756   0.866   8.690   0.828
 8557ION    NA+12757   6.331   7.430  11.920
 8558ION    NA+12758   8.033   3.419   3.131
 8559ION    NA+12759   8.892   6.299  10.673
 8560ION    NA+12760   9.752   7.747   0.956
 8561ION    NA+12761   6.413  10.976   3.220
 8562ION    NA+12762   8.251   2.288   0.397
 8563ION    NA+12763   0.933   2.810   9.621
 8564ION    NA+12764   2.114   0.615   0.284
 8565ION    NA+12765   3.398   2.835  11.801
 8566ION    NA+12766   6.522   7.693   1.886
 8567ION    NA+12767   3.203   4.873   8.253
 8568ION    NA+12768   4.708  11.072   2.526
 8569ION    NA+12769   5.686  10.282   1.206
 8570ION    NA+12770   3.165   4.709  10.827
 8571ION    NA+12771  10.408   0.478  11.544
 8572ION    NA+12772   7.192   7.633   3.402
 8573ION    NA+12773   7.637   3.766   0.263
 8574ION    NA+12774  10.238   7.437  11.969
 8575ION    NA+12775   3.653  10.047   2.240
 8576ION    NA+12776   3.220   1.137  10.182
 8577ION    NA+12777   1.471   7.677   9.994
 8578ION    NA+12778   1.400   8.828   8.918
 8579ION    NA+12779   3.099   9.417  11.859
 8580ION    NA+12780   8.956   0.143   1.243
 8581ION    NA+12781   0.549   5.226   9.802
 8582ION    NA+12782   5.585   7.074   2.401
 8583ION    NA+12783   2.915   3.860   9.401
 8584ION    NA+12784   7.017   5.627   0.560
 8585ION    NA+12785   3.510  11.470   1.677
 8586ION    NA+12786   0.899  10.787   2.227
 8587ION    NA+12787   4.813   6.541   1.919
 8588ION    NA+12788   1.008   6.291   3.108
 8589ION    NA+12789   9.986   2.349   8.770
 8590ION    NA+12790   6.657   6.993   3.187
 8591ION    NA+12791   9.195  10.317   1.840
 8592ION    NA+12792   1.499   4.170   0.737
 8593ION    NA+12793   1.664   4.373   1.871
 8594ION    NA+12794   3.332   6.286   3.442
 8595ION    NA+12795   9.704   7.801   3.464
 8596ION    NA+12796   5.772   8.031  11.479
 8597ION    NA+12797   1.169   6.004   9.701
 8598ION    NA+12798   8.477   3.637   2.197
 8599ION    NA+12799   9.668   2.304   3.713
 8600ION    NA+12800   7.411   1.752   0.046
 8601ION    NA+12801   8.440   8.407   2.489
 8602ION    NA+12802   0.096  11.031   3.288
 8603ION    NA+12803   6.906   7.577   4.154
 8604ION    NA+12804   5.314  11.289  11.573
 8605ION    NA+12805   6.039   2.555   2.633
 8606ION    NA+12806   8.297   8.540   9.818
 8607ION    NA+12807   7.354   8.849   1.471
 8608ION    NA+12808   4.681  10.190   2.191
 8609ION    NA+12809   4.270   5.815   2.010
 8610ION    NA+12810   0.016   8.004   1.925
 8611ION    NA+12811   4.160  10.070   1.318
 8612ION    NA+12812   8.144   0.902   9.738
 8613ION    NA+12813   4.357   5.916   0.384
 8614ION    NA+12814  10.098   0.422   0.865
 8615ION    NA+12815   9.735   7.853   9.036
 8616ION    NA+12816   6.022   3.906   1.821
 8617ION    NA+12817   7.323   9.364  10.835
 8618ION    NA+12818   5.912   3.250   3.348
 8619ION    NA+12819   1.757   1.146   1.345
 8620ION    NA+12820   7.657   2.863   8.642
 8621ION    NA+12821   6.197   8.466   9.507
 8622ION    NA+12822   0.644   4.689   1.608
 8623ION    NA+12823   3.176   6.586   8.607
 8624ION    NA+12824   4.130   6.808   0.261
 8625ION    CL-12825   5.527   1.720   2.134
 8626ION    CL-12826   0.204   7.860  11.283
 8627ION    CL-12827  11.331   4.321   8.657
 8628ION    CL-12828   2.089   8.449   2.330
 8629ION    CL-12829   6.959   7.787   1.864
 8630ION    CL-12830   4.643   8.932   1.517
 8631ION    CL-12831   8.187   3.593  11.387
 8632ION    CL-12832   0.119   7.819   2.317
 8633ION    CL-12833   9.267   5.854   3.559
 8634ION    CL-12834   0.280   0.882   0.204
 8635ION    CL-12835   7.456   0.000   0.810
 8636ION    CL-12836   3.326  11.278   1.322
 8637ION    CL-12837   6.935   3.142   9.706
 8638ION    CL-12838   5.029   0.531   1.395
 8639ION    CL-12839   0.025  11.412   3.042
 8640ION    CL-12840   4.771   1.188  11.012
 8641ION    CL-12841   5.803   9.911   0.966
 8642ION    CL-12842  11.137   7.354   9.267
 8643ION    CL-12843   0.259   4.450   1.620
 8644ION    CL-12844   6.055   7.772  11.751
 8645ION    CL-12845  10.596  10.928  10.103
 8646ION    CL-12846   3.572  11.326   0.001
 8647ION    CL-12847   7.220   1.036   1.497
 8648ION    CL-12848   9.124   1.570   3.562
 8649ION    CL-12849   3.246  11.136   9.120
 8650ION    CL-12850   0.972  10.345   9.601
 8651ION    CL-12851   3.456   2.969   3.168
 8652ION    CL-12852   6.921   7.360   3.141
 8653ION    CL-12853   6.706   2.784  10.612
 8654ION    CL-12854  11.461   3.550   1.302
 8655ION    CL-12855   2.362   0.437  10.130
 8656ION    CL-12856   9.466  10.674  10.342
 8657ION    CL-12857   0.978   7.833   3.399
 8658ION    CL-12858   6.592   7.324   4.365
 8659ION    CL-12859   8.466   4.960   3.626
 8660ION    CL-12860   5.395   2.836   8.535
 8661ION    CL-12861   8.200   6.499   2.762
 8662ION    CL-12862   7.003   9.474   2.468
 8663ION    CL-12863   5.201   3.380   2.723
 8664ION    CL-12864  11.200   3.555  11.932
 8665ION    CL-12865  10.532   3.193   1.400
 8666ION    CL-12866   7.500   7.309   9.672
 8667ION    CL-12867   1.017   1.533   0.383
 8668ION    CL-12868   3.337   1.560  10.103
 8669ION    CL-12869  10.879   3.582  10.139
 8670ION    CL-12870   1.345   1.239   9.653
 8671ION    CL-12871  11.425   5.492   2.311
 8672ION    CL-12872   2.659   6.827   9.957
 8673ION    CL-12873   6.888   9.423  10.766
 8674ION    CL-12874   8.320   4.628   0.965
 8675ION    CL-12875   4.242   8.737  11.013
 8676ION    CL-12876   5.299   3.761   0.674
 8677ION    CL-12877   0.225   5.253  10.110
 8678ION    CL-12878   5.823   4.161   2.133
 8679ION    CL-12879   9.164   9.477   3.590
 8680ION    CL-12880  10.973   5.552   8.119
 8681ION    CL-12881   3.027   7.755   9.889
 8682ION    CL-12882   5.323   1.181  11.961
 8683ION    CL-12883   9.907   6.681   1.198
 8684ION    CL-12884   9.124   7.182   2.921
 8685ION    CL-12885   4.077   7.263   0.308
 8686ION    CL-12886   9.332   6.389  10.659
 8687ION    CL-12887   0.693   4.646   2.881
 8688ION    CL-12888  10.438  10.450   1.129
 8689ION    CL-12889   7.147  10.099   1.275
 8690ION    CL-12890   5.303   3.698   9.629
 8691ION    CL-12891   4.531   6.189   1.996
 8692ION    CL-12892   4.233   6.350   0.298
 8693ION    CL-12893  10.900   0.908   8.500
 8694ION    CL-12894   5.536   8.306  11.195
 8695ION    CL-12895   5.333   3.116  11.556
 8696ION    CL-12896   4.476   3.062   8.858
 8697ION    CL-12897   9.963   7.465  11.619
 8698ION    CL-12898   0.757   5.977   3.350
 8699ION    CL-12899  10.108   3.112   2.741
 8700ION    CL-12900   9.352   7.811   0.763
 8701ION    CL-12901   7.483   1.755  11.605
 8702ION    CL-12902   2.733   5.662   2.112
 8703ION    CL-12903   5.674  10.693   1.404
 8704ION    CL-12904   1.239   2.300   1.858
 8705ION    CL-12905   1.159  11.278  11.022
 8706ION    CL-12906   4.893   1.929   9.809
 8707ION    CL-12907   8.077  11.232   1.947
 8708ION    CL-12908   1.311   9.364   2.740
 8709ION    CL-12909   6.630   7.108   0.037
 8710ION    CL-12910   1.752  10.745  10.348
 8711ION    CL-12911   0.863   4.999   1.350
 8712ION    CL-12912   6.047   9.555  11.557
 8713ION    CL-12913   5.461  10.323   8.902
 8714ION    CL-12914   9.535  10.318   1.547
  11.50000  11.50000  12.00000
