Protein in INSANE! Membrane UpperLeaflet>POPC=1.0 LowerLeaflet>POPC=1.0
12914
    1AU     AUC    1   5.746   5.818   5.996
    1AU     AUC    2   6.045   5.820   5.823
    1AU     AUC    3   6.013   5.807   6.169
    1AU     AUC    4   5.460   5.809   5.833
    1AU     AUC    5   5.475   5.848   6.181
    1AU     AUC    6   5.575   6.096   5.995
    1AU     AUC    7   5.929   6.092   5.984
    1AU     AUC    8   5.553   5.541   5.997
    1AU     AUC    9   5.911   5.541   5.998
    1AU     AUC   10   5.746   5.640   6.269
    1AU     AUC   11   5.740   6.007   6.257
    1AU     AUC   12   5.742   5.655   5.722
    1AU     AUC   13   5.771   5.972   5.718
    1AU     AUC   14   6.368   5.818   5.665
    1AU     AUC   15   6.360   5.797   6.017
    1AU     AUC   16   6.300   5.786   6.367
    1AU     AUC   17   5.156   5.811   5.668
    1AU     AUC   18   5.138   5.842   6.032
    1AU     AUC   19   5.191   5.880   6.372
    1AU     AUC   20   5.414   6.406   5.970
    1AU     AUC   21   5.774   6.433   5.943
    1AU     AUC   22   6.099   6.380   5.973
    1AU     AUC   23   5.359   5.263   5.992
    1AU     AUC   24   5.692   5.212   5.970
    1AU     AUC   25   6.076   5.227   5.974
    1AU     AUC   26   5.731   5.458   6.557
    1AU     AUC   27   5.745   5.824   6.590
    1AU     AUC   28   5.766   6.185   6.545
    1AU     AUC   29   5.770   5.489   5.436
    1AU     AUC   30   5.766   5.807   5.386
    1AU     AUC   31   5.766   6.126   5.418
    1AU     AUC   32   6.018   5.591   6.484
    1AU     AUC   33   6.048   5.976   6.484
    1AU     AUC   34   6.095   5.656   5.507
    1AU     AUC   35   6.094   6.000   5.528
    1AU     AUC   36   5.446   5.686   6.508
    1AU     AUC   37   5.468   6.063   6.486
    1AU     AUC   38   5.444   5.638   5.538
    1AU     AUC   39   5.427   5.950   5.496
    1AU     AUC   40   6.279   6.098   5.834
    1AU     AUC   41   6.215   6.087   6.191
    1AU     AUC   42   5.252   6.116   5.831
    1AU     AUC   43   5.277   6.168   6.182
    1AU     AUC   44   6.246   5.506   5.832
    1AU     AUC   45   6.205   5.481   6.167
    1AU     AUC   46   5.216   5.518   5.858
    1AU     AUC   47   5.276   5.561   6.213
    1AU     AUC   48   5.594   6.348   6.252
    1AU     AUC   49   5.933   6.305   6.267
    1AU     AUC   50   5.549   5.343   6.291
    1AU     AUC   51   5.873   5.294   6.261
    1AU     AUC   52   5.571   6.246   5.684
    1AU     AUC   53   5.955   6.279   5.662
    1AU     AUC   54   5.538   5.341   5.698
    1AU     AUC   55   5.926   5.371   5.703
    1AU    AUSL   56   6.282   5.717   6.722
    1AU    AUSL   57   6.010   5.293   6.641
    1AU     AUL   58   6.325   5.317   6.833
    1AU       S   59   6.389   4.959   6.568
    1AU     LIG   60   6.295   4.815   6.954
    1AU     LIG   61   6.375   4.444   7.175
    1AU     LIG   62   6.609   4.123   7.392
    1AU     LIG   63   6.837   3.955   7.770
    1AU     LIG   64   6.879   3.686   8.153
    1AU       S   65   6.510   5.725   6.871
    1AU     LIG   66   6.393   5.749   7.313
    1AU     LIG   67   6.534   5.593   7.743
    1AU     LIG   68   6.832   5.449   8.106
    1AU     LIG   69   7.226   5.491   8.404
    1AU     LIG   70   7.499   5.608   8.782
    1AU    AUSL   71   5.882   5.621   6.889
    1AU    AUSL   72   5.620   6.010   6.918
    1AU     AUL   73   5.817   5.908   7.224
    1AU       S   74   6.011   5.537   7.062
    1AU     LIG   75   5.969   5.492   7.494
    1AU     LIG   76   6.159   5.249   7.844
    1AU     LIG   77   6.424   5.086   8.202
    1AU     LIG   78   6.451   4.860   8.625
    1AU     LIG   79   6.472   4.876   9.096
    1AU       S   80   5.406   5.750   7.130
    1AU     LIG   81   5.474   5.720   7.596
    1AU     LIG   82   5.208   5.655   7.980
    1AU     LIG   83   5.035   5.687   8.417
    1AU     LIG   84   5.070   5.956   8.822
    1AU     LIG   85   5.040   6.068   9.285
    1AU    AUSL   86   5.940   5.995   6.654
    1AU    AUSL   87   6.371   6.121   6.609
    1AU     AUL   88   6.169   6.016   6.940
    1AU       S   89   5.840   6.367   7.094
    1AU     LIG   90   6.178   6.247   7.394
    1AU     LIG   91   6.407   6.381   7.793
    1AU     LIG   92   6.380   6.469   8.281
    1AU     LIG   93   6.390   6.667   8.720
    1AU     LIG   94   6.630   6.778   9.103
    1AU       S   95   6.520   6.271   6.778
    1AU     LIG   96   6.928   6.252   6.839
    1AU     LIG   97   7.222   6.444   7.152
    1AU     LIG   98   7.450   6.653   7.513
    1AU     LIG   99   7.773   6.722   7.862
    1AU     LIG  100   8.217   6.823   8.022
    1AU    AUSL  101   6.297   5.883   5.329
    1AU    AUSL  102   6.163   6.303   5.332
    1AU     AUL  103   6.450   6.155   5.093
    1AU       S  104   6.130   6.003   4.831
    1AU     LIG  105   6.604   5.964   4.644
    1AU     LIG  106   6.719   5.713   4.280
    1AU     LIG  107   6.820   5.535   3.863
    1AU     LIG  108   7.152   5.424   3.547
    1AU     LIG  109   7.587   5.463   3.351
    1AU       S  110   6.498   6.531   5.360
    1AU     LIG  111   6.686   6.613   4.949
    1AU     LIG  112   6.915   6.772   4.548
    1AU     LIG  113   7.178   6.956   4.191
    1AU     LIG  114   7.458   7.080   3.815
    1AU     LIG  115   7.759   7.265   3.486
    1AU    AUSL  116   6.060   5.610   5.089
    1AU    AUSL  117   6.462   5.504   5.416
    1AU     AUL  118   6.470   5.668   5.108
    1AU       S  119   6.543   5.206   5.184
    1AU     LIG  120   6.658   4.837   4.879
    1AU     LIG  121   6.909   4.451   4.840
    1AU     LIG  122   7.219   4.223   4.571
    1AU     LIG  123   7.553   4.280   4.224
    1AU     LIG  124   8.004   4.408   4.088
    1AU       S  125   6.174   5.826   4.803
    1AU     LIG  126   6.326   5.494   4.573
    1AU     LIG  127   6.421   5.310   4.130
    1AU     LIG  128   6.435   5.248   3.648
    1AU     LIG  129   6.535   5.076   3.208
    1AU     LIG  130   6.745   4.902   2.804
    1AU    AUSL  131   5.888   5.984   5.248
    1AU    AUSL  132   5.647   5.610   5.210
    1AU     AUL  133   5.781   5.654   4.927
    1AU       S  134   5.330   5.677   4.807
    1AU     LIG  135   5.419   5.360   4.563
    1AU     LIG  136   5.166   5.182   4.210
    1AU     LIG  137   4.957   5.140   3.781
    1AU     LIG  138   4.966   5.022   3.317
    1AU     LIG  139   4.937   4.950   2.842
    1AU       S  140   5.963   6.095   4.940
    1AU     LIG  141   5.856   5.898   4.442
    1AU     LIG  142   6.212   5.784   4.101
    1AU     LIG  143   6.402   5.767   3.638
    1AU     LIG  144   6.491   5.832   3.158
    1AU     LIG  145   6.474   6.112   2.766
    1AU    AUSL  146   5.224   5.953   6.746
    1AU    AUSL  147   5.512   6.311   6.634
    1AU     AUL  148   5.372   6.242   6.972
    1AU       S  149   5.220   5.846   7.177
    1AU     LIG  150   5.035   5.496   7.392
    1AU     LIG  151   4.791   5.414   7.792
    1AU     LIG  152   4.599   5.437   8.232
    1AU     LIG  153   4.227   5.393   8.534
    1AU     LIG  154   3.875   5.544   8.822
    1AU       S  155   5.131   6.549   6.717
    1AU     LIG  156   5.284   6.748   7.089
    1AU     LIG  157   5.113   6.927   7.495
    1AU     LIG  158   4.813   7.208   7.753
    1AU     LIG  159   4.675   7.386   8.190
    1AU     LIG  160   4.548   7.526   8.643
    1AU    AUSL  161   5.527   5.667   6.664
    1AU    AUSL  162   5.111   5.538   6.638
    1AU     AUL  163   5.017   5.763   6.781
    1AU       S  164   5.024   5.314   6.899
    1AU     LIG  165   4.577   5.241   6.737
    1AU     LIG  166   4.311   4.868   6.861
    1AU     LIG  167   4.056   4.633   7.190
    1AU     LIG  168   3.817   4.400   7.530
    1AU     LIG  169   3.521   4.351   7.904
    1AU       S  170   5.419   5.604   7.033
    1AU     LIG  171   5.517   5.291   7.340
    1AU     LIG  172   5.286   5.201   7.747
    1AU     LIG  173   5.056   5.179   8.172
    1AU     LIG  174   4.885   4.985   8.567
    1AU     LIG  175   4.891   4.890   9.030
    1AU    AUSL  176   5.245   5.739   5.276
    1AU    AUSL  177   5.422   5.357   5.460
    1AU     AUL  178   5.430   5.359   5.115
    1AU       S  179   5.116   5.655   4.948
    1AU     LIG  180   4.907   5.401   4.640
    1AU     LIG  181   4.722   5.447   4.207
    1AU     LIG  182   4.610   5.547   3.761
    1AU     LIG  183   4.323   5.648   3.388
    1AU     LIG  184   3.940   5.657   3.079
    1AU       S  185   5.021   5.220   5.261
    1AU     LIG  186   4.824   4.802   5.138
    1AU     LIG  187   4.581   4.485   4.900
    1AU     LIG  188   4.319   4.245   4.585
    1AU     LIG  189   4.227   4.066   4.148
    1AU     LIG  190   4.276   3.859   3.728
    1AU    AUSL  191   5.514   6.024   5.065
    1AU    AUSL  192   5.028   6.077   5.424
    1AU     AUL  193   5.157   6.084   5.091
    1AU       S  194   4.750   6.249   5.257
    1AU     LIG  195   4.593   6.489   4.881
    1AU     LIG  196   4.611   6.705   4.473
    1AU     LIG  197   4.367   6.827   4.088
    1AU     LIG  198   3.950   6.884   3.855
    1AU     LIG  199   3.639   7.202   3.705
    1AU       S  200   5.413   5.899   4.752
    1AU     LIG  201   5.148   5.767   4.357
    1AU     LIG  202   5.120   5.616   3.923
    1AU     LIG  203   5.040   5.579   3.471
    1AU     LIG  204   5.083   5.811   3.066
    1AU     LIG  205   4.882   5.943   2.665
    1AU    AUSL  206   6.517   6.328   6.015
    1AU    AUSL  207   6.496   6.131   5.608
    1AU     AUL  208   6.806   6.454   5.832
    1AU       S  209   6.601   6.261   5.499
    1AU     LIG  210   6.937   6.250   5.231
    1AU     LIG  211   7.139   6.385   4.823
    1AU     LIG  212   7.418   6.673   4.565
    1AU     LIG  213   7.691   6.854   4.224
    1AU     LIG  214   7.964   7.130   3.950
    1AU       S  215   6.917   6.215   6.216
    1AU     LIG  216   7.363   6.332   6.074
    1AU     LIG  217   7.841   6.448   6.029
    1AU     LIG  218   8.279   6.620   6.045
    1AU     LIG  219   8.609   6.907   6.202
    1AU     LIG  220   8.801   7.286   6.427
    1AU    AUSL  221   6.723   5.926   5.901
    1AU    AUSL  222   6.658   5.599   6.212
    1AU     AUL  223   7.024   5.710   6.230
    1AU       S  224   6.862   6.015   5.950
    1AU     LIG  225   7.295   5.888   5.836
    1AU     LIG  226   7.782   5.981   5.827
    1AU     LIG  227   8.244   6.164   5.763
    1AU     LIG  228   8.677   6.271   5.534
    1AU     LIG  229   9.094   6.343   5.334
    1AU       S  230   6.916   5.300   6.066
    1AU     LIG  231   7.273   5.100   6.273
    1AU     LIG  232   7.711   4.896   6.279
    1AU     LIG  233   8.174   4.744   6.274
    1AU     LIG  234   8.661   4.823   6.267
    1AU     LIG  235   9.107   4.754   6.461
    1AU    AUSL  236   6.444   5.962   6.233
    1AU    AUSL  237   6.186   6.343   6.284
    1AU     AUL  238   6.510   6.401   6.329
    1AU       S  239   6.495   6.566   6.751
    1AU     LIG  240   6.877   6.765   6.934
    1AU     LIG  241   7.218   6.995   7.176
    1AU     LIG  242   7.380   7.416   7.367
    1AU     LIG  243   7.553   7.878   7.401
    1AU     LIG  244   7.905   8.156   7.581
    1AU       S  245   6.769   6.040   6.377
    1AU     LIG  246   7.278   6.048   6.504
    1AU     LIG  247   7.743   6.052   6.344
    1AU     LIG  248   8.231   6.171   6.299
    1AU     LIG  249   8.588   6.462   6.497
    1AU     LIG  250   9.013   6.610   6.666
    1AU    AUSL  251   5.083   6.390   6.019
    1AU    AUSL  252   5.161   6.187   6.407
    1AU     AUL  253   4.860   6.493   6.274
    1AU       S  254   4.993   6.345   6.688
    1AU     LIG  255   4.858   6.460   7.127
    1AU     LIG  256   4.633   6.751   7.435
    1AU     LIG  257   4.385   6.823   7.838
    1AU     LIG  258   4.030   6.817   8.168
    1AU     LIG  259   3.668   7.011   8.401
    1AU       S  260   5.087   6.764   5.953
    1AU     LIG  261   4.632   6.753   5.879
    1AU     LIG  262   4.199   7.004   5.912
    1AU     LIG  263   3.780   7.286   5.924
    1AU     LIG  264   3.346   7.541   5.891
    1AU     LIG  265   2.898   7.743   5.928
    1AU    AUSL  266   5.041   5.998   5.830
    1AU    AUSL  267   5.172   6.445   5.612
    1AU     AUL  268   4.859   6.323   5.709
    1AU       S  269   4.668   5.808   5.488
    1AU     LIG  270   4.287   6.074   5.523
    1AU     LIG  271   3.853   6.195   5.314
    1AU     LIG  272   3.369   6.214   5.425
    1AU     LIG  273   2.966   6.497   5.395
    1AU     LIG  274   2.589   6.641   5.135
    1AU       S  275   5.001   6.696   5.443
    1AU     LIG  276   4.982   7.003   5.060
    1AU     LIG  277   4.921   7.426   4.793
    1AU     LIG  278   4.781   7.904   4.687
    1AU     LIG  279   4.481   8.276   4.551
    1AU     LIG  280   4.115   8.600   4.593
    1AU    AUSL  281   4.827   6.041   6.207
    1AU    AUSL  282   4.792   5.672   5.911
    1AU     AUL  283   4.632   5.989   5.925
    1AU       S  284   4.587   5.586   6.170
    1AU     LIG  285   4.278   5.586   5.794
    1AU     LIG  286   3.897   5.322   5.647
    1AU     LIG  287   3.444   5.153   5.589
    1AU     LIG  288   2.964   5.128   5.721
    1AU     LIG  289   2.523   5.062   5.560
    1AU       S  290   4.686   6.064   6.424
    1AU     LIG  291   4.235   6.173   6.428
    1AU     LIG  292   3.812   6.207   6.676
    1AU     LIG  293   3.390   6.425   6.756
    1AU     LIG  294   2.901   6.391   6.767
    1AU     LIG  295   2.460   6.532   6.612
    1AU    AUSL  296   6.453   5.247   6.041
    1AU    AUSL  297   6.281   5.492   6.371
    1AU     AUL  298   6.611   5.393   6.440
    1AU       S  299   6.734   5.143   6.052
    1AU     LIG  300   6.899   4.767   6.127
    1AU     LIG  301   7.330   4.607   6.060
    1AU     LIG  302   7.771   4.423   6.073
    1AU     LIG  303   8.182   4.220   6.192
    1AU     LIG  304   8.463   3.862   6.348
    1AU       S  305   6.494   4.956   6.437
    1AU     LIG  306   6.735   4.634   6.699
    1AU     LIG  307   6.897   4.414   7.076
    1AU     LIG  308   7.133   4.165   7.396
    1AU     LIG  309   7.429   4.140   7.764
    1AU     LIG  310   7.839   4.153   8.013
    1AU    AUSL  311   6.455   5.616   5.818
    1AU    AUSL  312   6.329   5.152   5.643
    1AU     AUL  313   6.605   5.298   5.647
    1AU       S  314   6.951   5.474   5.848
    1AU     LIG  315   7.235   5.060   5.764
    1AU     LIG  316   7.691   4.839   5.763
    1AU     LIG  317   8.152   4.625   5.779
    1AU     LIG  318   8.644   4.639   5.756
    1AU     LIG  319   9.014   4.686   5.442
    1AU       S  320   6.520   4.963   5.334
    1AU     LIG  321   6.486   4.484   5.303
    1AU     LIG  322   6.677   4.080   5.113
    1AU     LIG  323   6.961   3.824   4.846
    1AU     LIG  324   7.311   3.494   4.783
    1AU     LIG  325   7.669   3.174   4.673
    1AU    AUSL  326   4.985   5.307   6.061
    1AU    AUSL  327   5.079   5.562   5.624
    1AU     AUL  328   4.738   5.376   5.771
    1AU       S  329   4.933   5.398   5.356
    1AU     LIG  330   4.499   5.158   5.341
    1AU     LIG  331   4.236   4.842   5.055
    1AU     LIG  332   3.956   4.572   4.748
    1AU     LIG  333   3.820   4.261   4.405
    1AU     LIG  334   3.593   4.026   4.050
    1AU       S  335   4.558   5.345   6.205
    1AU     LIG  336   4.317   5.078   5.904
    1AU     LIG  337   3.870   4.869   5.900
    1AU     LIG  338   3.391   4.817   6.012
    1AU     LIG  339   3.044   4.589   6.266
    1AU     LIG  340   2.616   4.391   6.380
    1AU    AUSL  341   5.055   5.691   6.254
    1AU    AUSL  342   5.309   5.314   6.334
    1AU     AUL  343   4.967   5.298   6.410
    1AU       S  344   5.043   5.110   6.822
    1AU     LIG  345   4.844   4.823   6.539
    1AU     LIG  346   4.540   4.473   6.609
    1AU     LIG  347   4.201   4.251   6.879
    1AU     LIG  348   3.882   4.016   7.166
    1AU     LIG  349   3.552   3.650   7.240
    1AU       S  350   4.625   5.600   6.351
    1AU     LIG  351   4.120   5.706   6.260
    1AU     LIG  352   3.713   5.607   6.033
    1AU     LIG  353   3.348   5.332   6.043
    1AU     LIG  354   2.983   5.104   6.231
    1AU     LIG  355   2.645   4.905   6.457
    1AU    AUSL  356   5.782   6.537   6.390
    1AU    AUSL  357   5.350   6.558   6.309
    1AU     AUL  358   5.587   6.631   6.678
    1AU       S  359   5.198   6.767   6.458
    1AU     LIG  360   4.909   6.976   6.805
    1AU     LIG  361   4.797   7.212   7.206
    1AU     LIG  362   4.723   7.638   7.416
    1AU     LIG  363   4.442   8.039   7.437
    1AU     LIG  364   4.075   8.357   7.508
    1AU       S  365   5.786   6.957   6.433
    1AU     LIG  366   5.930   7.011   6.821
    1AU     LIG  367   5.964   7.462   6.994
    1AU     LIG  368   5.922   7.831   7.300
    1AU     LIG  369   6.012   8.088   7.712
    1AU     LIG  370   6.008   8.493   7.972
    1AU    AUSL  371   5.615   6.759   6.048
    1AU    AUSL  372   5.908   6.703   5.690
    1AU     AUL  373   5.822   7.044   5.847
    1AU       S  374   5.608   6.991   6.266
    1AU     LIG  375   5.669   7.419   6.547
    1AU     LIG  376   5.607   7.850   6.773
    1AU     LIG  377   5.451   8.310   6.841
    1AU     LIG  378   5.393   8.789   6.897
    1AU     LIG  379   5.388   9.238   6.746
    1AU       S  380   5.646   6.875   5.467
    1AU     LIG  381   6.032   7.165   5.412
    1AU     LIG  382   6.180   7.619   5.332
    1AU     LIG  383   6.470   8.013   5.272
    1AU     LIG  384   6.687   8.448   5.240
    1AU     LIG  385   6.654   8.875   5.053
    1AU    AUSL  386   6.059   6.692   6.093
    1AU    AUSL  387   6.037   6.399   6.692
    1AU     AUL  388   6.141   6.665   6.468
    1AU       S  389   6.276   6.493   6.904
    1AU     LIG  390   6.624   6.442   7.242
    1AU     LIG  391   6.921   6.701   7.490
    1AU     LIG  392   7.170   7.054   7.694
    1AU     LIG  393   7.246   7.401   8.008
    1AU     LIG  394   7.221   7.585   8.451
    1AU       S  395   5.976   7.045   6.276
    1AU     LIG  396   6.195   7.352   6.536
    1AU     LIG  397   6.385   7.763   6.703
    1AU     LIG  398   6.726   8.125   6.696
    1AU     LIG  399   6.901   8.579   6.745
    1AU     LIG  400   6.885   8.970   6.985
    1AU    AUSL  401   5.694   5.103   6.416
    1AU    AUSL  402   6.103   5.120   6.246
    1AU     AUL  403   5.936   4.974   6.626
    1AU       S  404   5.664   4.650   6.461
    1AU     LIG  405   5.532   4.617   6.843
    1AU     LIG  406   5.460   4.158   6.928
    1AU     LIG  407   5.479   3.680   6.993
    1AU     LIG  408   5.537   3.369   7.367
    1AU     LIG  409   5.556   3.268   7.851
    1AU       S  410   6.265   4.882   6.288
    1AU     LIG  411   6.238   4.483   6.555
    1AU     LIG  412   6.540   4.158   6.789
    1AU     LIG  413   6.890   3.888   7.013
    1AU     LIG  414   7.035   3.443   7.155
    1AU     LIG  415   7.341   3.086   7.331
    1AU    AUSL  416   5.380   4.959   6.132
    1AU    AUSL  417   5.483   5.262   6.739
    1AU     AUL  418   5.342   4.987   6.498
    1AU       S  419   5.491   4.586   6.321
    1AU     LIG  420   5.170   4.390   6.545
    1AU     LIG  421   5.142   3.920   6.599
    1AU     LIG  422   5.165   3.446   6.614
    1AU     LIG  423   4.963   3.005   6.637
    1AU     LIG  424   4.896   2.661   6.947
    1AU       S  425   5.282   5.127   6.944
    1AU     LIG  426   5.035   4.661   6.994
    1AU     LIG  427   4.595   4.501   7.124
    1AU     LIG  428   4.305   4.233   7.402
    1AU     LIG  429   4.124   4.095   7.824
    1AU     LIG  430   4.186   3.934   8.275
    1AU    AUSL  431   5.810   4.866   6.077
    1AU    AUSL  432   5.554   5.016   5.745
    1AU     AUL  433   5.441   4.723   5.889
    1AU       S  434   5.803   4.713   5.616
    1AU     LIG  435   5.499   4.339   5.536
    1AU     LIG  436   5.313   3.892   5.459
    1AU     LIG  437   5.133   3.436   5.428
    1AU     LIG  438   4.909   2.991   5.384
    1AU     LIG  439   4.775   2.609   5.108
    1AU       S  440   5.813   4.658   6.210
    1AU     LIG  441   5.842   4.200   6.336
    1AU     LIG  442   5.821   3.815   6.612
    1AU     LIG  443   6.076   3.425   6.761
    1AU     LIG  444   6.176   2.951   6.796
    1AU     LIG  445   6.130   2.457   6.718
    1AU    AUSL  446   5.757   6.435   5.362
    1AU    AUSL  447   6.197   6.408   5.748
    1AU     AUL  448   6.054   6.637   5.382
    1AU       S  449   5.647   6.831   5.248
    1AU     LIG  450   5.844   7.082   4.954
    1AU     LIG  451   5.968   7.515   4.862
    1AU     LIG  452   6.074   7.773   4.479
    1AU     LIG  453   6.134   8.074   4.130
    1AU     LIG  454   5.966   8.493   4.067
    1AU       S  455   6.433   6.619   5.633
    1AU     LIG  456   6.914   6.755   5.421
    1AU     LIG  457   7.143   6.879   5.003
    1AU     LIG  458   7.293   7.197   4.660
    1AU     LIG  459   7.508   7.654   4.625
    1AU     LIG  460   7.666   8.130   4.689
    1AU    AUSL  461   5.558   6.470   5.753
    1AU    AUSL  462   5.456   6.152   5.456
    1AU     AUL  463   5.402   6.458   5.324
    1AU       S  464   5.455   6.841   5.598
    1AU     LIG  465   5.536   7.349   5.457
    1AU     LIG  466   5.675   7.805   5.332
    1AU     LIG  467   5.449   8.243   5.267
    1AU     LIG  468   5.355   8.728   5.378
    1AU     LIG  469   5.368   9.236   5.336
    1AU       S  470   4.961   6.490   5.210
    1AU     LIG  471   5.125   6.567   4.821
    1AU     LIG  472   5.071   6.936   4.513
    1AU     LIG  473   4.973   7.073   4.051
    1AU     LIG  474   4.897   7.328   3.641
    1AU     LIG  475   4.613   7.676   3.479
    1AU    AUSL  476   5.763   5.120   5.378
    1AU    AUSL  477   5.157   5.137   5.716
    1AU     AUL  478   5.412   4.971   5.426
    1AU       S  479   4.983   5.106   5.497
    1AU     LIG  480   4.726   4.827   5.666
    1AU     LIG  481   4.435   4.550   5.425
    1AU     LIG  482   4.163   4.286   5.120
    1AU     LIG  483   3.833   4.034   4.872
    1AU     LIG  484   3.441   3.724   4.827
    1AU       S  485   5.815   4.715   5.406
    1AU     LIG  486   5.957   4.320   5.281
    1AU     LIG  487   5.708   3.962   5.112
    1AU     LIG  488   5.488   3.554   5.049
    1AU     LIG  489   5.475   3.215   4.715
    1AU     LIG  490   5.645   2.997   4.329
    1AU    AUSL  491   5.949   5.142   5.795
    1AU    AUSL  492   6.034   5.430   5.462
    1AU     AUL  493   6.087   5.078   5.411
    1AU       S  494   6.048   4.734   5.708
    1AU     LIG  495   5.934   4.288   5.822
    1AU     LIG  496   5.811   3.897   5.600
    1AU     LIG  497   5.944   3.522   5.307
    1AU     LIG  498   6.216   3.163   5.120
    1AU     LIG  499   6.546   2.808   5.192
    1AU       S  500   6.317   5.211   5.056
    1AU     LIG  501   6.165   4.763   5.014
    1AU     LIG  502   6.377   4.374   4.809
    1AU     LIG  503   6.686   4.127   4.514
    1AU     LIG  504   6.985   4.135   4.127
    1AU     LIG  505   7.138   3.960   3.715
    2POPC   NC3  506   2.088   7.949   8.212
    2POPC   PO4  507   2.452   8.439   8.285
    2POPC   GL1  508   2.351   8.329   7.796
    2POPC   GL2  509   2.255   7.950   7.732
    2POPC   C1A  510   2.260   8.249   7.335
    2POPC   D2A  511   2.187   8.377   6.906
    2POPC   C3A  512   2.220   8.274   6.452
    2POPC   C4A  513   2.381   8.456   6.050
    2POPC   C1B  514   1.857   7.914   7.441
    2POPC   C2B  515   1.717   7.803   7.027
    2POPC   C3B  516   1.773   7.832   6.572
    2POPC   C4B  517   1.715   8.158   6.275
    3POPC   NC3  518   1.930   2.713   8.261
    3POPC   PO4  519   1.597   3.268   8.009
    3POPC   GL1  520   1.805   2.994   7.681
    3POPC   GL2  521   2.127   2.966   7.829
    3POPC   C1A  522   1.730   2.764   7.245
    3POPC   D2A  523   1.788   2.559   6.806
    3POPC   C3A  524   1.665   2.855   6.463
    3POPC   C4A  525   1.768   3.013   6.053
    3POPC   C1B  526   2.250   2.812   7.393
    3POPC   C2B  527   2.408   2.791   6.995
    3POPC   C3B  528   2.325   2.638   6.625
    3POPC   C4B  529   2.156   2.831   6.329
    4POPC   NC3  530   8.135   9.765   8.015
    4POPC   PO4  531   8.079   9.160   8.192
    4POPC   GL1  532   8.380   9.339   7.830
    4POPC   GL2  533   8.125   9.531   7.576
    4POPC   C1A  534   8.516   9.285   7.389
    4POPC   D2A  535   8.276   9.528   7.062
    4POPC   C3A  536   8.355   9.610   6.630
    4POPC   C4A  537   8.391   9.411   6.190
    4POPC   C1B  538   7.846   9.805   7.324
    4POPC   C2B  539   7.720   9.947   6.909
    4POPC   C3B  540   7.651   9.777   6.524
    4POPC   C4B  541   7.992   9.714   6.286
    5POPC   NC3  542   1.934   0.539   7.944
    5POPC   PO4  543   1.511   0.030   8.074
    5POPC   GL1  544   1.644   0.133   7.643
    5POPC   GL2  545   1.977   0.294   7.518
    5POPC   C1A  546   1.706   0.067   7.194
    5POPC   D2A  547   1.834   0.339   6.880
    5POPC   C3A  548   1.852   0.139   6.520
    5POPC   C4A  549   1.722   0.203   6.132
    5POPC   C1B  550   1.902   0.678   7.266
    5POPC   C2B  551   1.813   0.847   6.829
    5POPC   C3B  552   2.003   0.660   6.407
    5POPC   C4B  553   1.926   0.596   5.919
    6POPC   NC3  554   7.344   9.323   8.139
    6POPC   PO4  555   7.573   9.954   8.069
    6POPC   GL1  556   7.504   9.663   7.730
    6POPC   GL2  557   7.178   9.837   7.672
    6POPC   C1A  558   7.631   9.352   7.389
    6POPC   D2A  559   7.784   9.427   6.926
    6POPC   C3A  560   7.617   9.287   6.492
    6POPC   C4A  561   7.709   9.383   6.009
    6POPC   C1B  562   7.321   9.723   7.251
    6POPC   C2B  563   7.215   9.697   6.864
    6POPC   C3B  564   7.174   9.538   6.482
    6POPC   C4B  565   7.241   9.683   6.070
    7POPC   NC3  566  10.872   0.400   8.005
    7POPC   PO4  567   0.040   0.749   8.079
    7POPC   GL1  568   0.121   0.553   7.708
    7POPC   GL2  569  11.289   0.440   7.647
    7POPC   C1A  570   0.133   0.644   7.293
    7POPC   D2A  571  11.299   0.606   7.019
    7POPC   C3A  572  11.448   0.507   6.624
    7POPC   C4A  573  11.261   0.528   6.233
    7POPC   C1B  574  10.925   0.397   7.347
    7POPC   C2B  575  10.815   0.474   6.909
    7POPC   C3B  576  10.917   0.281   6.528
    7POPC   C4B  577  10.649   0.090   6.203
    8POPC   NC3  578  10.566   7.252   8.113
    8POPC   PO4  579  10.591   7.914   8.131
    8POPC   GL1  580  10.653   7.632   7.745
    8POPC   GL2  581  10.364   7.413   7.682
    8POPC   C1A  582  10.684   7.502   7.279
    8POPC   D2A  583  10.664   7.690   6.863
    8POPC   C3A  584  10.458   7.471   6.514
    8POPC   C4A  585  10.635   7.465   6.105
    8POPC   C1B  586  10.148   7.481   7.300
    8POPC   C2B  587  10.283   7.244   6.946
    8POPC   C3B  588  10.108   7.080   6.581
    8POPC   C4B  589   9.956   7.391   6.299
    9POPC   NC3  590   1.914   8.911   8.002
    9POPC   PO4  591   1.874   8.276   7.964
    9POPC   GL1  592   1.936   8.565   7.606
    9POPC   GL2  593   2.263   8.799   7.618
    9POPC   C1A  594   1.775   8.384   7.214
    9POPC   D2A  595   1.710   8.293   6.784
    9POPC   C3A  596   1.814   8.612   6.459
    9POPC   C4A  597   1.861   8.595   6.000
    9POPC   C1B  598   2.135   8.825   7.173
    9POPC   C2B  599   2.217   8.843   6.700
    9POPC   C3B  600   2.128   8.974   6.262
    9POPC   C4B  601   1.920   9.316   6.009
   10POPC   NC3  602   9.398   1.726   8.033
   10POPC   PO4  603   8.747   1.968   8.015
   10POPC   GL1  604   8.858   1.947   7.591
   10POPC   GL2  605   8.977   2.291   7.625
   10POPC   C1A  606   8.948   1.739   7.167
   10POPC   D2A  607   9.201   1.992   6.821
   10POPC   C3A  608   9.328   1.923   6.427
   10POPC   C4A  609   9.010   1.988   6.122
   10POPC   C1B  610   8.967   2.245   7.200
   10POPC   C2B  611   8.717   2.092   6.868
   10POPC   C3B  612   8.587   1.979   6.473
   10POPC   C4B  613   8.505   2.260   6.115
   11POPC   NC3  614  11.274   5.955   8.069
   11POPC   PO4  615  10.680   6.309   8.075
   11POPC   GL1  616  10.932   6.142   7.703
   11POPC   GL2  617  11.040   5.762   7.674
   11POPC   C1A  618  11.057   6.029   7.252
   11POPC   D2A  619  11.338   5.805   6.928
   11POPC   C3A  620  11.181   5.820   6.493
   11POPC   C4A  621  11.068   6.225   6.290
   11POPC   C1B  622  11.252   5.523   7.361
   11POPC   C2B  623  11.450   5.297   7.027
   11POPC   C3B  624  11.463   5.392   6.594
   11POPC   C4B  625  11.237   5.385   6.190
   12POPC   NC3  626   0.364   0.298   8.084
   12POPC   PO4  627   0.857   0.780   7.980
   12POPC   GL1  628   0.639   0.559   7.691
   12POPC   GL2  629   0.766   0.278   7.587
   12POPC   C1A  630   0.666   0.678   7.266
   12POPC   D2A  631   0.468   0.562   6.878
   12POPC   C3A  632   0.629   0.748   6.509
   12POPC   C4A  633   0.770   0.698   6.071
   12POPC   C1B  634   0.437   0.210   7.290
   12POPC   C2B  635   0.257   0.090   6.879
   12POPC   C3B  636   0.390   0.233   6.466
   12POPC   C4B  637   0.270   0.576   6.203
   13POPC   NC3  638   2.963   2.870   8.129
   13POPC   PO4  639   2.391   2.726   8.234
   13POPC   GL1  640   2.596   2.781   7.778
   13POPC   GL2  641   2.829   2.558   7.679
   13POPC   C1A  642   2.749   2.937   7.340
   13POPC   D2A  643   2.736   3.197   6.960
   13POPC   C3A  644   2.720   2.985   6.592
   13POPC   C4A  645   2.888   2.654   6.379
   13POPC   C1B  646   2.634   2.426   7.299
   13POPC   C2B  647   2.745   2.429   6.857
   13POPC   C3B  648   2.597   2.238   6.478
   13POPC   C4B  649   2.484   2.456   6.131
   14POPC   NC3  650  11.282   8.769   8.017
   14POPC   PO4  651  10.632   8.879   7.873
   14POPC   GL1  652  10.879   8.630   7.596
   14POPC   GL2  653  11.203   8.769   7.525
   14POPC   C1A  654  10.892   8.682   7.139
   14POPC   D2A  655  11.224   8.721   6.836
   14POPC   C3A  656  10.989   8.835   6.488
   14POPC   C4A  657  10.890   8.762   6.070
   14POPC   C1B  658  11.401   9.070   7.244
   14POPC   C2B  659  11.285   9.260   6.843
   14POPC   C3B  660  11.467   9.090   6.512
   14POPC   C4B  661  11.376   8.824   6.153
   15POPC   NC3  662   8.606  11.352   8.022
   15POPC   PO4  663   9.065  10.963   8.313
   15POPC   GL1  664   8.915  11.025   7.799
   15POPC   GL2  665   8.999  11.261   7.558
   15POPC   C1A  666   8.743  10.871   7.346
   15POPC   D2A  667   8.865  11.063   6.901
   15POPC   C3A  668   8.926  10.876   6.444
   15POPC   C4A  669   8.907  10.907   5.971
   15POPC   C1B  670   8.585  11.361   7.337
   15POPC   C2B  671   8.481  11.410   6.907
   15POPC   C3B  672   8.725  11.398   6.523
   15POPC   C4B  673   9.158  11.361   6.454
   16POPC   NC3  674   6.887  11.384   7.861
   16POPC   PO4  675   6.873  10.688   8.066
   16POPC   GL1  676   6.652  10.873   7.674
   16POPC   GL2  677   6.639  11.199   7.467
   16POPC   C1A  678   6.797  10.802   7.240
   16POPC   D2A  679   6.757  11.039   6.858
   16POPC   C3A  680   6.729  10.817   6.434
   16POPC   C4A  681   6.508  11.013   6.048
   16POPC   C1B  682   6.323  11.362   7.168
   16POPC   C2B  683   6.234  11.185   6.753
   16POPC   C3B  684   6.555  11.308   6.469
   16POPC   C4B  685   6.573   0.179   6.300
   17POPC   NC3  686   0.509   8.093   8.138
   17POPC   PO4  687   0.025   7.668   7.873
   17POPC   GL1  688   0.217   8.021   7.674
   17POPC   GL2  689   0.574   8.112   7.643
   17POPC   C1A  690   0.215   8.107   7.242
   17POPC   D2A  691   0.449   8.080   6.883
   17POPC   C3A  692   0.209   8.057   6.502
   17POPC   C4A  693   0.187   8.183   6.076
   17POPC   C1B  694   0.652   8.410   7.334
   17POPC   C2B  695   0.743   8.513   6.908
   17POPC   C3B  696   0.882   8.197   6.630
   17POPC   C4B  697   0.707   7.982   6.292
   18POPC   NC3  698   4.020  11.062   7.913
   18POPC   PO4  699   4.657  11.425   8.033
   18POPC   GL1  700   4.426  11.448   7.660
   18POPC   GL2  701   4.411  11.111   7.603
   18POPC   C1A  702   4.408  11.404   7.173
   18POPC   D2A  703   4.288   0.088   6.772
   18POPC   C3A  704   4.214  11.337   6.394
   18POPC   C4A  705   4.212  11.378   5.932
   18POPC   C1B  706   4.302  10.909   7.231
   18POPC   C2B  707   4.352  11.030   6.803
   18POPC   C3B  708   4.605  10.896   6.465
   18POPC   C4B  709   4.429  10.932   6.076
   19POPC   NC3  710   5.811  11.156   8.012
   19POPC   PO4  711   6.508  11.240   8.086
   19POPC   GL1  712   6.216  11.118   7.719
   19POPC   GL2  713   6.035  11.420   7.628
   19POPC   C1A  714   6.163  10.898   7.275
   19POPC   D2A  715   5.801  10.783   6.983
   19POPC   C3A  716   5.789  10.874   6.526
   19POPC   C4A  717   6.019  11.085   6.198
   19POPC   C1B  718   5.785  11.263   7.300
   19POPC   C2B  719   5.724  11.270   6.872
   19POPC   C3B  720   5.670  11.360   6.474
   19POPC   C4B  721   5.474   0.115   6.236
   20POPC   NC3  722   6.451   0.980   8.121
   20POPC   PO4  723   6.256   1.611   8.000
   20POPC   GL1  724   6.491   1.335   7.692
   20POPC   GL2  725   6.563   0.986   7.641
   20POPC   C1A  726   6.587   1.406   7.263
   20POPC   D2A  727   6.547   1.615   6.868
   20POPC   C3A  728   6.431   1.380   6.505
   20POPC   C4A  729   6.323   1.389   6.061
   20POPC   C1B  730   6.828   0.958   7.311
   20POPC   C2B  731   6.680   1.044   6.905
   20POPC   C3B  732   6.864   0.998   6.531
   20POPC   C4B  733   6.770   1.153   6.161
   21POPC   NC3  734   0.390   6.303   8.154
   21POPC   PO4  735   0.586   7.005   8.054
   21POPC   GL1  736   0.269   6.817   7.737
   21POPC   GL2  737   0.395   6.474   7.667
   21POPC   C1A  738   0.105   6.739   7.289
   21POPC   D2A  739   0.231   6.544   6.899
   21POPC   C3A  740   0.061   6.746   6.548
   21POPC   C4A  741   0.217   6.906   6.158
   21POPC   C1B  742   0.593   6.606   7.284
   21POPC   C2B  743   0.736   6.420   6.875
   21POPC   C3B  744   0.561   6.576   6.481
   21POPC   C4B  745   0.539   6.501   6.047
   22POPC   NC3  746   2.385   6.215   8.177
   22POPC   PO4  747   2.204   6.805   8.093
   22POPC   GL1  748   1.883   6.817   7.803
   22POPC   GL2  749   1.861   6.478   7.730
   22POPC   C1A  750   1.872   6.946   7.386
   22POPC   D2A  751   1.906   6.769   6.976
   22POPC   C3A  752   2.103   6.936   6.605
   22POPC   C4A  753   2.207   6.714   6.190
   22POPC   C1B  754   2.041   6.276   7.339
   22POPC   C2B  755   1.886   6.256   6.899
   22POPC   C3B  756   1.895   6.450   6.491
   22POPC   C4B  757   1.796   6.347   6.048
   23POPC   NC3  758  11.089   7.715   8.040
   23POPC   PO4  759  10.943   8.437   8.127
   23POPC   GL1  760  10.919   8.138   7.762
   23POPC   GL2  761  11.252   8.256   7.688
   23POPC   C1A  762  11.069   7.863   7.376
   23POPC   D2A  763  11.163   7.598   6.987
   23POPC   C3A  764  11.086   7.813   6.565
   23POPC   C4A  765  11.055   7.955   6.134
   23POPC   C1B  766  11.251   8.334   7.244
   23POPC   C2B  767  11.312   8.202   6.822
   23POPC   C3B  768  11.272   8.362   6.391
   23POPC   C4B  769  11.243   8.370   5.931
   24POPC   NC3  770   0.117   4.263   8.294
   24POPC   PO4  771   0.740   4.441   8.251
   24POPC   GL1  772   0.427   4.287   7.871
   24POPC   GL2  773   0.290   4.546   7.667
   24POPC   C1A  774   0.337   4.110   7.403
   24POPC   D2A  775   0.459   4.201   6.948
   24POPC   C3A  776   0.291   4.007   6.570
   24POPC   C4A  777   0.377   4.064   6.122
   24POPC   C1B  778   0.561   4.563   7.298
   24POPC   C2B  779   0.618   4.662   6.835
   24POPC   C3B  780   0.414   4.510   6.442
   24POPC   C4B  781   0.087   4.513   6.117
   25POPC   NC3  782   1.147   1.141   8.083
   25POPC   PO4  783   1.525   1.631   8.080
   25POPC   GL1  784   1.227   1.523   7.722
   25POPC   GL2  785   1.211   1.164   7.597
   25POPC   C1A  786   1.240   1.551   7.258
   25POPC   D2A  787   1.018   1.445   6.859
   25POPC   C3A  788   1.226   1.589   6.513
   25POPC   C4A  789   1.346   1.443   6.131
   25POPC   C1B  790   1.137   1.018   7.193
   25POPC   C2B  791   1.175   0.954   6.783
   25POPC   C3B  792   1.061   1.086   6.405
   25POPC   C4B  793   1.177   0.988   5.995
   26POPC   NC3  794   1.221   9.621   8.125
   26POPC   PO4  795   1.666   9.263   7.817
   26POPC   GL1  796   1.452   9.658   7.611
   26POPC   GL2  797   1.158   9.856   7.698
   26POPC   C1A  798   1.411   9.763   7.183
   26POPC   D2A  799   1.252   9.415   6.957
   26POPC   C3A  800   1.350   9.391   6.539
   26POPC   C4A  801   1.260   9.532   6.172
   26POPC   C1B  802   0.947   9.688   7.376
   26POPC   C2B  803   0.937   9.836   6.973
   26POPC   C3B  804   1.135   9.846   6.600
   26POPC   C4B  805   0.874   9.832   6.246
   27POPC   NC3  806   5.291   2.539   8.216
   27POPC   PO4  807   5.468   1.946   8.069
   27POPC   GL1  808   5.406   1.725   7.678
   27POPC   GL2  809   5.765   1.743   7.538
   27POPC   C1A  810   5.304   1.860   7.235
   27POPC   D2A  811   5.617   2.006   6.928
   27POPC   C3A  812   5.494   2.070   6.493
   27POPC   C4A  813   5.721   2.156   6.100
   27POPC   C1B  814   5.652   1.506   7.161
   27POPC   C2B  815   5.536   1.545   6.719
   27POPC   C3B  816   5.867   1.715   6.443
   27POPC   C4B  817   6.111   1.829   6.082
   28POPC   NC3  818   7.711   0.291   7.952
   28POPC   PO4  819   7.150  11.455   8.248
   28POPC   GL1  820   7.162   0.293   7.801
   28POPC   GL2  821   7.316   0.631   7.808
   28POPC   C1A  822   7.203   0.179   7.306
   28POPC   D2A  823   6.951   0.047   6.931
   28POPC   C3A  824   7.100   0.004   6.506
   28POPC   C4A  825   7.025   0.157   6.070
   28POPC   C1B  826   7.255   0.669   7.353
   28POPC   C2B  827   7.395   0.508   6.934
   28POPC   C3B  828   7.454   0.375   6.497
   28POPC   C4B  829   7.284   0.595   6.127
   29POPC   NC3  830   7.950   8.732   8.112
   29POPC   PO4  831   8.579   8.630   8.115
   29POPC   GL1  832   8.334   8.823   7.735
   29POPC   GL2  833   7.992   9.034   7.703
   29POPC   C1A  834   8.047   8.632   7.394
   29POPC   D2A  835   7.902   8.767   6.967
   29POPC   C3A  836   8.150   8.653   6.618
   29POPC   C4A  837   8.019   8.535   6.224
   29POPC   C1B  838   8.058   9.119   7.284
   29POPC   C2B  839   8.371   9.000   6.992
   29POPC   C3B  840   8.386   9.099   6.595
   29POPC   C4B  841   8.031   9.076   6.323
   30POPC   NC3  842   6.392   9.621   8.210
   30POPC   PO4  843   6.902   9.208   8.111
   30POPC   GL1  844   6.766   9.532   7.753
   30POPC   GL2  845   6.482   9.804   7.722
   30POPC   C1A  846   6.804   9.619   7.278
   30POPC   D2A  847   6.750   9.489   6.844
   30POPC   C3A  848   6.721   9.762   6.474
   30POPC   C4A  849   6.782   9.451   6.127
   30POPC   C1B  850   6.291   9.712   7.348
   30POPC   C2B  851   6.359   9.804   6.958
   30POPC   C3B  852   6.211   9.676   6.580
   30POPC   C4B  853   6.105   9.840   6.214
   31POPC   NC3  854   2.319   5.377   8.248
   31POPC   PO4  855   3.032   5.315   8.178
   31POPC   GL1  856   2.700   5.501   7.859
   31POPC   GL2  857   2.570   5.845   7.845
   31POPC   C1A  858   2.655   5.529   7.366
   31POPC   D2A  859   2.815   5.393   6.923
   31POPC   C3A  860   2.676   5.480   6.479
   31POPC   C4A  861   2.910   5.586   6.083
   31POPC   C1B  862   2.604   6.027   7.406
   31POPC   C2B  863   2.717   5.905   6.955
   31POPC   C3B  864   2.667   5.999   6.485
   31POPC   C4B  865   2.281   6.169   6.270
   32POPC   NC3  866   8.098   2.063   8.228
   32POPC   PO4  867   7.905   1.559   7.838
   32POPC   GL1  868   8.125   1.783   7.559
   32POPC   GL2  869   8.325   2.014   7.760
   32POPC   C1A  870   8.441   1.633   7.266
   32POPC   D2A  871   8.496   1.565   6.818
   32POPC   C3A  872   8.061   1.623   6.635
   32POPC   C4A  873   7.767   1.565   6.267
   32POPC   C1B  874   8.441   2.133   7.351
   32POPC   C2B  875   8.239   1.994   6.961
   32POPC   C3B  876   8.102   2.176   6.589
   32POPC   C4B  877   8.133   1.915   6.224
   33POPC   NC3  878   4.592  10.951   8.057
   33POPC   PO4  879   4.198  10.377   8.261
   33POPC   GL1  880   4.540  10.284   7.782
   33POPC   GL2  881   4.276  10.303   7.510
   33POPC   C1A  882   4.719  10.310   7.318
   33POPC   D2A  883   4.620  10.598   6.953
   33POPC   C3A  884   4.740  10.396   6.555
   33POPC   C4A  885   4.751  10.521   6.131
   33POPC   C1B  886   3.980  10.137   7.223
   33POPC   C2B  887   3.905   9.976   6.810
   33POPC   C3B  888   3.945  10.155   6.384
   33POPC   C4B  889   4.280  10.452   6.307
   34POPC   NC3  890   7.303   8.126   8.015
   34POPC   PO4  891   6.743   8.320   7.959
   34POPC   GL1  892   7.106   8.489   7.673
   34POPC   GL2  893   7.439   8.369   7.582
   34POPC   C1A  894   7.116   8.478   7.212
   34POPC   D2A  895   7.261   8.212   6.844
   34POPC   C3A  896   7.128   8.278   6.407
   34POPC   C4A  897   6.796   8.110   6.146
   34POPC   C1B  898   7.640   8.362   7.180
   34POPC   C2B  899   7.753   8.327   6.740
   34POPC   C3B  900   7.626   8.232   6.325
   34POPC   C4B  901   7.660   8.355   5.887
   35POPC   NC3  902   0.961   6.786   7.894
   35POPC   PO4  903   0.936   6.143   8.114
   35POPC   GL1  904   0.983   6.324   7.681
   35POPC   GL2  905   1.336   6.452   7.709
   35POPC   C1A  906   1.081   6.554   7.263
   35POPC   D2A  907   0.986   6.864   6.915
   35POPC   C3A  908   1.080   6.648   6.500
   35POPC   C4A  909   1.049   6.497   6.068
   35POPC   C1B  910   1.573   6.479   7.300
   35POPC   C2B  911   1.446   6.581   6.879
   35POPC   C3B  912   1.572   6.842   6.571
   35POPC   C4B  913   1.502   6.755   6.157
   36POPC   NC3  914   3.252   5.719   8.129
   36POPC   PO4  915   3.033   6.286   8.296
   36POPC   GL1  916   3.008   6.153   7.776
   36POPC   GL2  917   3.044   5.813   7.639
   36POPC   C1A  918   3.088   6.163   7.244
   36POPC   D2A  919   3.196   5.962   6.783
   36POPC   C3A  920   3.148   6.206   6.343
   36POPC   C4A  921   3.301   6.398   5.926
   36POPC   C1B  922   3.156   5.658   7.220
   36POPC   C2B  923   3.555   5.633   6.976
   36POPC   C3B  924   3.669   5.716   6.559
   36POPC   C4B  925   3.310   5.732   6.343
   37POPC   NC3  926   8.319   0.607   8.002
   37POPC   PO4  927   8.123   0.019   8.028
   37POPC   GL1  928   8.317   0.203   7.648
   37POPC   GL2  929   8.053   0.452   7.575
   37POPC   C1A  930   8.424   0.351   7.198
   37POPC   D2A  931   8.120   0.311   6.832
   37POPC   C3A  932   8.211   0.387   6.383
   37POPC   C4A  933   8.317   0.075   6.013
   37POPC   C1B  934   7.827   0.640   7.205
   37POPC   C2B  935   7.822   0.708   6.735
   37POPC   C3B  936   7.796   0.677   6.263
   37POPC   C4B  937   7.680   0.704   5.807
   38POPC   NC3  938   1.549   2.594   7.900
   38POPC   PO4  939   0.997   2.925   8.044
   38POPC   GL1  940   1.030   2.702   7.701
   38POPC   GL2  941   1.302   2.940   7.624
   38POPC   C1A  942   1.193   2.545   7.299
   38POPC   D2A  943   1.280   2.693   6.882
   38POPC   C3A  944   1.353   2.471   6.488
   38POPC   C4A  945   1.397   2.600   6.050
   38POPC   C1B  946   1.009   3.090   7.349
   38POPC   C2B  947   0.873   3.015   6.951
   38POPC   C3B  948   1.008   3.118   6.560
   38POPC   C4B  949   0.815   2.973   6.193
   39POPC   NC3  950   0.577   2.714   8.100
   39POPC   PO4  951   0.742   2.115   7.949
   39POPC   GL1  952   0.542   2.442   7.673
   39POPC   GL2  953   0.266   2.704   7.690
   39POPC   C1A  954   0.669   2.674   7.322
   39POPC   D2A  955   0.806   2.444   6.966
   39POPC   C3A  956   0.877   2.618   6.575
   39POPC   C4A  957   0.885   2.445   6.156
   39POPC   C1B  958   0.139   2.775   7.252
   39POPC   C2B  959   0.391   2.752   6.874
   39POPC   C3B  960   0.410   2.755   6.434
   39POPC   C4B  961   0.073   2.770   6.153
   40POPC   NC3  962   5.001   1.803   8.084
   40POPC   PO4  963   4.765   2.474   8.166
   40POPC   GL1  964   4.914   2.243   7.787
   40POPC   GL2  965   4.688   2.000   7.713
   40POPC   C1A  966   4.899   2.217   7.289
   40POPC   D2A  967   5.132   2.208   6.862
   40POPC   C3A  968   5.019   2.302   6.403
   40POPC   C4A  969   5.270   2.430   6.026
   40POPC   C1B  970   4.841   1.700   7.393
   40POPC   C2B  971   4.806   1.826   6.943
   40POPC   C3B  972   5.028   1.812   6.546
   40POPC   C4B  973   4.846   1.685   6.154
   41POPC   NC3  974   8.854  10.611   8.081
   41POPC   PO4  975   8.355  10.121   8.228
   41POPC   GL1  976   8.455  10.417   7.830
   41POPC   GL2  977   8.773  10.360   7.646
   41POPC   C1A  978   8.374  10.462   7.335
   41POPC   D2A  979   8.527  10.254   6.900
   41POPC   C3A  980   8.548  10.502   6.481
   41POPC   C4A  981   8.459  10.636   6.009
   41POPC   C1B  982   8.904  10.190   7.256
   41POPC   C2B  983   9.035  10.318   6.826
   41POPC   C3B  984   8.919  10.176   6.421
   41POPC   C4B  985   8.922  10.421   6.084
   42POPC   NC3  986   7.526   2.226   8.047
   42POPC   PO4  987   7.828   1.708   8.347
   42POPC   GL1  988   7.457   1.736   7.871
   42POPC   GL2  989   7.626   1.970   7.626
   42POPC   C1A  990   7.517   1.606   7.331
   42POPC   D2A  991   7.747   1.865   6.973
   42POPC   C3A  992   7.638   1.978   6.499
   42POPC   C4A  993   7.330   1.858   6.159
   42POPC   C1B  994   7.354   2.075   7.249
   42POPC   C2B  995   7.253   1.939   6.828
   42POPC   C3B  996   7.170   2.220   6.472
   42POPC   C4B  997   6.902   2.165   6.095
   43POPC   NC3  998   7.605   1.233   7.967
   43POPC   PO4  999   6.906   1.234   8.068
   43POPC   GL1 1000   7.006   1.379   7.661
   43POPC   GL2 1001   7.242   1.126   7.630
   43POPC   C1A 1002   7.088   1.387   7.212
   43POPC   D2A 1003   7.008   1.436   6.796
   43POPC   C3A 1004   7.254   1.422   6.433
   43POPC   C4A 1005   7.154   1.431   5.972
   43POPC   C1B 1006   7.506   1.092   7.278
   43POPC   C2B 1007   7.259   0.997   6.919
   43POPC   C3B 1008   7.376   0.901   6.524
   43POPC   C4B 1009   7.470   1.073   6.124
   44POPC   NC3 1010   1.906   9.675   7.822
   44POPC   PO4 1011   2.320   9.169   8.011
   44POPC   GL1 1012   2.312   9.418   7.642
   44POPC   GL2 1013   2.062   9.249   7.483
   44POPC   C1A 1014   2.350   9.612   7.209
   44POPC   D2A 1015   2.292   9.336   6.847
   44POPC   C3A 1016   2.108   9.456   6.466
   44POPC   C4A 1017   2.135   9.767   6.154
   44POPC   C1B 1018   1.833   9.288   7.098
   44POPC   C2B 1019   1.739   9.622   6.796
   44POPC   C3B 1020   1.666   9.765   6.382
   44POPC   C4B 1021   1.696   9.922   5.976
   45POPC   NC3 1022  11.068   3.457   8.072
   45POPC   PO4 1023   0.089   3.227   7.754
   45POPC   GL1 1024  11.159   3.452   7.577
   45POPC   GL2 1025  11.019   3.824   7.718
   45POPC   C1A 1026  10.821   3.634   7.285
   45POPC   D2A 1027  10.768   3.595   6.845
   45POPC   C3A 1028  11.056   3.290   6.633
   45POPC   C4A 1029  11.082   3.110   6.203
   45POPC   C1B 1030  11.284   3.916   7.376
   45POPC   C2B 1031  11.267   3.706   6.990
   45POPC   C3B 1032  11.179   3.787   6.571
   45POPC   C4B 1033  11.441   3.538   6.278
   46POPC   NC3 1034   8.813   8.235   8.018
   46POPC   PO4 1035   8.475   7.768   7.799
   46POPC   GL1 1036   8.844   7.913   7.578
   46POPC   GL2 1037   8.853   8.261   7.506
   46POPC   C1A 1038   8.992   7.852   7.149
   46POPC   D2A 1039   9.111   7.957   6.707
   46POPC   C3A 1040   8.936   7.790   6.303
   46POPC   C4A 1041   8.662   7.757   5.901
   46POPC   C1B 1042   8.852   8.354   7.058
   46POPC   C2B 1043   9.173   8.468   6.770
   46POPC   C3B 1044   9.119   8.334   6.339
   46POPC   C4B 1045   8.942   8.170   5.956
   47POPC   NC3 1046   1.436   8.279   8.105
   47POPC   PO4 1047   0.946   7.903   8.067
   47POPC   GL1 1048   1.087   8.038   7.681
   47POPC   GL2 1049   0.960   7.735   7.553
   47POPC   C1A 1050   1.278   8.222   7.296
   47POPC   D2A 1051   1.264   8.523   6.957
   47POPC   C3A 1052   1.320   8.440   6.500
   47POPC   C4A 1053   1.084   8.340   6.122
   47POPC   C1B 1054   1.209   7.709   7.176
   47POPC   C2B 1055   1.298   7.989   6.821
   47POPC   C3B 1056   1.260   7.944   6.385
   47POPC   C4B 1057   1.474   7.734   6.115
   48POPC   NC3 1058   0.586  10.441   8.140
   48POPC   PO4 1059   0.049  10.051   8.256
   48POPC   GL1 1060   0.296  10.128   7.805
   48POPC   GL2 1061   0.387  10.482   7.681
   48POPC   C1A 1062   0.617  10.109   7.416
   48POPC   D2A 1063   0.470  10.032   6.974
   48POPC   C3A 1064   0.725  10.183   6.629
   48POPC   C4A 1065   0.707  10.410   6.245
   48POPC   C1B 1066   0.220  10.400   7.283
   48POPC   C2B 1067   0.348  10.524   6.895
   48POPC   C3B 1068   0.265  10.434   6.494
   48POPC   C4B 1069   0.179  10.745   6.215
   49POPC   NC3 1070   1.151   3.349   8.099
   49POPC   PO4 1071   0.756   3.891   7.905
   49POPC   GL1 1072   1.160   3.807   7.679
   49POPC   GL2 1073   1.310   3.476   7.635
   49POPC   C1A 1074   1.289   3.779   7.228
   49POPC   D2A 1075   1.157   3.513   6.885
   49POPC   C3A 1076   1.141   3.732   6.479
   49POPC   C4A 1077   1.039   3.527   6.126
   49POPC   C1B 1078   1.501   3.273   7.291
   49POPC   C2B 1079   1.496   3.138   6.874
   49POPC   C3B 1080   1.468   3.331   6.463
   49POPC   C4B 1081   1.289   3.096   6.122
   50POPC   NC3 1082   1.872   7.086   8.236
   50POPC   PO4 1083   1.263   7.048   8.102
   50POPC   GL1 1084   1.394   6.989   7.679
   50POPC   GL2 1085   1.270   7.340   7.675
   50POPC   C1A 1086   1.399   6.966   7.219
   50POPC   D2A 1087   1.325   7.276   6.909
   50POPC   C3A 1088   1.174   7.156   6.509
   50POPC   C4A 1089   1.405   7.246   6.149
   50POPC   C1B 1090   0.993   7.240   7.359
   50POPC   C2B 1091   0.809   7.380   6.988
   50POPC   C3B 1092   0.986   7.611   6.654
   50POPC   C4B 1093   0.980   7.534   6.211
   51POPC   NC3 1094   3.432   9.488   8.260
   51POPC   PO4 1095   3.467  10.150   8.167
   51POPC   GL1 1096   3.487   9.940   7.775
   51POPC   GL2 1097   3.644   9.625   7.754
   51POPC   C1A 1098   3.515   9.940   7.333
   51POPC   D2A 1099   3.225   9.826   7.018
   51POPC   C3A 1100   3.446   9.801   6.655
   51POPC   C4A 1101   3.481   9.972   6.277
   51POPC   C1B 1102   3.453   9.430   7.363
   51POPC   C2B 1103   3.309   9.333   6.911
   51POPC   C3B 1104   3.495   9.332   6.455
   51POPC   C4B 1105   3.792   9.280   6.088
   52POPC   NC3 1106   8.868   3.330   8.219
   52POPC   PO4 1107   9.153   3.857   8.116
   52POPC   GL1 1108   9.250   3.568   7.737
   52POPC   GL2 1109   9.040   3.269   7.735
   52POPC   C1A 1110   9.132   3.578   7.289
   52POPC   D2A 1111   8.868   3.556   6.903
   52POPC   C3A 1112   8.988   3.664   6.471
   52POPC   C4A 1113   8.876   3.831   6.058
   52POPC   C1B 1114   8.869   3.144   7.332
   52POPC   C2B 1115   9.044   3.085   6.932
   52POPC   C3B 1116   8.795   3.139   6.582
   52POPC   C4B 1117   8.669   3.363   6.192
   53POPC   NC3 1118   1.707   5.289   7.984
   53POPC   PO4 1119   2.162   5.808   8.183
   53POPC   GL1 1120   2.116   5.589   7.765
   53POPC   GL2 1121   1.760   5.682   7.651
   53POPC   C1A 1122   2.124   5.720   7.295
   53POPC   D2A 1123   1.897   5.736   6.882
   53POPC   C3A 1124   2.149   5.703   6.490
   53POPC   C4A 1125   2.005   5.484   6.098
   53POPC   C1B 1126   1.624   5.956   7.286
   53POPC   C2B 1127   1.398   6.078   6.898
   53POPC   C3B 1128   1.452   6.203   6.478
   53POPC   C4B 1129   1.728   5.900   6.271
   54POPC   NC3 1130  11.066   9.801   8.137
   54POPC   PO4 1131   0.001   9.266   8.098
   54POPC   GL1 1132  11.434   9.455   7.668
   54POPC   GL2 1133  11.078   9.590   7.684
   54POPC   C1A 1134  11.274   9.595   7.226
   54POPC   D2A 1135  11.289   9.841   6.828
   54POPC   C3A 1136  11.443   9.621   6.478
   54POPC   C4A 1137  11.467   9.636   6.050
   54POPC   C1B 1138  10.862   9.870   7.379
   54POPC   C2B 1139  10.802   9.702   6.933
   54POPC   C3B 1140  10.920   9.571   6.497
   54POPC   C4B 1141  11.116   9.275   6.220
   55POPC   NC3 1142  10.780   5.086   8.086
   55POPC   PO4 1143  10.171   5.445   8.137
   55POPC   GL1 1144  10.280   5.265   7.728
   55POPC   GL2 1145  10.460   4.951   7.694
   55POPC   C1A 1146  10.378   5.392   7.305
   55POPC   D2A 1147  10.479   5.242   6.890
   55POPC   C3A 1148  10.173   5.267   6.572
   55POPC   C4A 1149  10.207   4.953   6.252
   55POPC   C1B 1150  10.660   4.810   7.308
   55POPC   C2B 1151  10.638   4.748   6.869
   55POPC   C3B 1152  10.678   4.861   6.432
   55POPC   C4B 1153  10.572   4.687   6.012
   56POPC   NC3 1154   5.956   0.458   8.086
   56POPC   PO4 1155   5.285   0.330   8.272
   56POPC   GL1 1156   5.507   0.515   7.818
   56POPC   GL2 1157   5.746   0.754   7.737
   56POPC   C1A 1158   5.744   0.401   7.384
   56POPC   D2A 1159   5.660   0.279   6.940
   56POPC   C3A 1160   6.010   0.215   6.627
   56POPC   C4A 1161   6.015   0.106   6.177
   56POPC   C1B 1162   6.106   0.812   7.457
   56POPC   C2B 1163   6.128   0.895   7.004
   56POPC   C3B 1164   5.848   0.715   6.687
   56POPC   C4B 1165   5.794   0.558   6.276
   57POPC   NC3 1166   9.515  10.970   8.213
   57POPC   PO4 1167   9.208  10.630   7.764
   57POPC   GL1 1168   9.455  10.995   7.657
   57POPC   GL2 1169   9.490  11.369   7.704
   57POPC   C1A 1170   9.460  11.149   7.223
   57POPC   D2A 1171   9.718  11.018   6.865
   57POPC   C3A 1172   9.522  10.947   6.463
   57POPC   C4A 1173   9.768  10.996   6.083
   57POPC   C1B 1174   9.798  11.498   7.369
   57POPC   C2B 1175   9.658   0.044   6.900
   57POPC   C3B 1176   9.680  11.430   6.441
   57POPC   C4B 1177   9.745  11.495   5.990
   58POPC   NC3 1178  10.544   8.321   8.343
   58POPC   PO4 1179   9.971   8.466   7.920
   58POPC   GL1 1180  10.068   8.270   7.575
   58POPC   GL2 1181  10.219   7.943   7.666
   58POPC   C1A 1182  10.161   8.198   7.165
   58POPC   D2A 1183  10.341   8.073   6.799
   58POPC   C3A 1184  10.276   8.312   6.462
   58POPC   C4A 1185  10.279   8.178   6.039
   58POPC   C1B 1186  10.575   7.996   7.375
   58POPC   C2B 1187  10.805   8.185   7.026
   58POPC   C3B 1188  10.793   8.253   6.583
   58POPC   C4B 1189  10.594   7.925   6.337
   59POPC   NC3 1190   4.618   1.213   8.072
   59POPC   PO4 1191   4.123   0.764   8.129
   59POPC   GL1 1192   4.024   1.032   7.770
   59POPC   GL2 1193   4.370   0.997   7.682
   59POPC   C1A 1194   3.909   0.928   7.331
   59POPC   D2A 1195   4.157   0.941   6.939
   59POPC   C3A 1196   3.999   0.924   6.539
   59POPC   C4A 1197   4.293   1.157   6.400
   59POPC   C1B 1198   4.322   1.246   7.310
   59POPC   C2B 1199   4.551   1.370   6.948
   59POPC   C3B 1200   4.564   1.540   6.554
   59POPC   C4B 1201   4.162   1.671   6.360
   60POPC   NC3 1202   1.343   4.840   8.197
   60POPC   PO4 1203   2.039   5.018   8.161
   60POPC   GL1 1204   2.028   4.934   7.719
   60POPC   GL2 1205   1.879   5.188   7.528
   60POPC   C1A 1206   1.999   4.743   7.310
   60POPC   D2A 1207   1.895   5.034   6.971
   60POPC   C3A 1208   1.858   4.818   6.580
   60POPC   C4A 1209   1.804   5.023   6.203
   60POPC   C1B 1210   2.245   5.223   7.312
   60POPC   C2B 1211   2.297   5.376   6.882
   60POPC   C3B 1212   2.231   5.197   6.456
   60POPC   C4B 1213   2.484   5.214   6.056
   61POPC   NC3 1214   9.800   5.152   8.222
   61POPC   PO4 1215   9.748   4.494   8.033
   61POPC   GL1 1216   9.944   4.844   7.756
   61POPC   GL2 1217   9.767   5.177   7.715
   61POPC   C1A 1218  10.072   4.981   7.312
   61POPC   D2A 1219  10.127   4.842   6.863
   61POPC   C3A 1220   9.798   4.920   6.524
   61POPC   C4A 1221   9.616   4.785   6.141
   61POPC   C1B 1222   9.568   5.085   7.316
   61POPC   C2B 1223   9.562   5.208   6.863
   61POPC   C3B 1224   9.370   5.202   6.433
   61POPC   C4B 1225   9.389   5.212   5.982
   62POPC   NC3 1226  11.278  11.122   8.116
   62POPC   PO4 1227  10.729  11.486   8.153
   62POPC   GL1 1228  11.061  11.478   7.800
   62POPC   GL2 1229  10.801  11.422   7.574
   62POPC   C1A 1230  11.277   0.018   7.377
   62POPC   D2A 1231  11.047   0.029   6.986
   62POPC   C3A 1232  11.315  11.476   6.632
   62POPC   C4A 1233  11.252   0.009   6.197
   62POPC   C1B 1234  10.991  11.102   7.316
   62POPC   C2B 1235  11.143  11.037   6.898
   62POPC   C3B 1236  11.248  10.986   6.454
   62POPC   C4B 1237  10.988  10.782   6.108
   63POPC   NC3 1238  10.205   3.446   8.259
   63POPC   PO4 1239  10.686   3.249   7.869
   63POPC   GL1 1240  10.346   3.289   7.590
   63POPC   GL2 1241  10.218   3.587   7.767
   63POPC   C1A 1242  10.400   3.300   7.126
   63POPC   D2A 1243  10.286   3.359   6.678
   63POPC   C3A 1244  10.626   3.491   6.364
   63POPC   C4A 1245  10.632   3.339   5.932
   63POPC   C1B 1246  10.159   3.744   7.368
   63POPC   C2B 1247  10.305   3.779   6.955
   63POPC   C3B 1248  10.199   3.877   6.548
   63POPC   C4B 1249  10.243   3.714   6.130
   64POPC   NC3 1250   6.726   0.051   8.369
   64POPC   PO4 1251   6.417   0.521   8.077
   64POPC   GL1 1252   6.264   0.392   7.675
   64POPC   GL2 1253   6.498   0.151   7.634
   64POPC   C1A 1254   6.247   0.373   7.207
   64POPC   D2A 1255   6.491   0.280   6.827
   64POPC   C3A 1256   6.411   0.617   6.529
   64POPC   C4A 1257   6.270   0.537   6.112
   64POPC   C1B 1258   6.750   0.439   7.371
   64POPC   C2B 1259   6.898   0.578   6.957
   64POPC   C3B 1260   6.935   0.489   6.517
   64POPC   C4B 1261   6.774   0.648   6.113
   65POPC   NC3 1262   4.662  10.376   8.257
   65POPC   PO4 1263   4.994  10.974   8.304
   65POPC   GL1 1264   4.958  10.633   7.886
   65POPC   GL2 1265   4.777  10.750   7.563
   65POPC   C1A 1266   5.180  10.438   7.482
   65POPC   D2A 1267   5.102  10.467   6.979
   65POPC   C3A 1268   5.173  10.133   6.651
   65POPC   C4A 1269   5.049  10.104   6.190
   65POPC   C1B 1270   5.175  10.889   7.269
   65POPC   C2B 1271   5.317  10.914   6.807
   65POPC   C3B 1272   5.172  10.683   6.412
   65POPC   C4B 1273   5.224  10.577   5.939
   66POPC   NC3 1274  11.496   5.440   8.128
   66POPC   PO4 1275   0.009   4.700   8.122
   66POPC   GL1 1276  11.188   4.837   7.860
   66POPC   GL2 1277  11.174   5.212   7.783
   66POPC   C1A 1278  11.152   4.842   7.423
   66POPC   D2A 1279  11.122   4.642   7.020
   66POPC   C3A 1280  11.156   4.883   6.664
   66POPC   C4A 1281  11.155   4.759   6.259
   66POPC   C1B 1282  10.843   5.262   7.466
   66POPC   C2B 1283  10.955   5.155   7.045
   66POPC   C3B 1284  10.928   5.355   6.629
   66POPC   C4B 1285  10.603   5.360   6.312
   67POPC   NC3 1286   7.921  10.285   8.132
   67POPC   PO4 1287   8.451   9.935   7.731
   67POPC   GL1 1288   8.046  10.156   7.644
   67POPC   GL2 1289   7.982  10.546   7.706
   67POPC   C1A 1290   7.844  10.311   7.254
   67POPC   D2A 1291   8.049  10.442   6.871
   67POPC   C3A 1292   8.145  10.147   6.551
   67POPC   C4A 1293   7.785  10.219   6.342
   67POPC   C1B 1294   7.793  10.785   7.405
   67POPC   C2B 1295   7.674  10.791   6.961
   67POPC   C3B 1296   7.925  10.894   6.637
   67POPC   C4B 1297   8.088  10.642   6.344
   68POPC   NC3 1298   4.565   2.830   8.471
   68POPC   PO4 1299   4.003   2.592   8.109
   68POPC   GL1 1300   4.195   2.641   7.696
   68POPC   GL2 1301   4.005   2.942   7.642
   68POPC   C1A 1302   4.491   2.581   7.310
   68POPC   D2A 1303   4.535   2.309   6.928
   68POPC   C3A 1304   4.585   2.546   6.538
   68POPC   C4A 1305   4.476   2.436   6.114
   68POPC   C1B 1306   3.989   2.739   7.229
   68POPC   C2B 1307   4.180   2.761   6.797
   68POPC   C3B 1308   4.160   2.786   6.328
   68POPC   C4B 1309   4.420   2.943   5.979
   69POPC   NC3 1310   1.385   6.213   8.191
   69POPC   PO4 1311   1.225   5.570   7.982
   69POPC   GL1 1312   1.247   5.883   7.675
   69POPC   GL2 1313   1.290   5.609   7.457
   69POPC   C1A 1314   1.053   6.025   7.257
   69POPC   D2A 1315   0.893   5.887   6.814
   69POPC   C3A 1316   0.940   6.129   6.412
   69POPC   C4A 1317   0.786   6.064   5.956
   69POPC   C1B 1318   1.589   5.437   7.192
   69POPC   C2B 1319   1.383   5.560   6.823
   69POPC   C3B 1320   1.257   5.713   6.429
   69POPC   C4B 1321   1.502   5.434   6.210
   70POPC   NC3 1322   3.507   0.088   8.157
   70POPC   PO4 1323   3.320  10.835   8.126
   70POPC   GL1 1324   3.505  10.974   7.716
   70POPC   GL2 1325   3.581  11.333   7.711
   70POPC   C1A 1326   3.768  11.002   7.324
   70POPC   D2A 1327   3.925  11.277   6.991
   70POPC   C3A 1328   3.770  11.144   6.578
   70POPC   C4A 1329   3.759  11.218   6.128
   70POPC   C1B 1330   3.332  11.324   7.321
   70POPC   C2B 1331   3.159  11.369   6.888
   70POPC   C3B 1332   3.305  11.341   6.429
   70POPC   C4B 1333   3.357  10.896   6.269
   71POPC   NC3 1334  11.123   4.450   8.265
   71POPC   PO4 1335  11.425   3.899   8.046
   71POPC   GL1 1336  11.377   4.278   7.805
   71POPC   GL2 1337  11.044   4.348   7.770
   71POPC   C1A 1338  11.431   4.416   7.361
   71POPC   D2A 1339  11.465   4.207   6.973
   71POPC   C3A 1340  11.400   4.343   6.559
   71POPC   C4A 1341  11.376   4.061   6.200
   71POPC   C1B 1342  10.942   4.314   7.369
   71POPC   C2B 1343  10.974   4.135   6.959
   71POPC   C3B 1344  10.911   4.417   6.591
   71POPC   C4B 1345  10.940   4.309   6.165
   72POPC   NC3 1346   9.363   4.261   8.099
   72POPC   PO4 1347  10.003   3.885   8.154
   72POPC   GL1 1348   9.839   3.947   7.731
   72POPC   GL2 1349  10.001   4.197   7.550
   72POPC   C1A 1350   9.614   3.793   7.339
   72POPC   D2A 1351   9.330   3.883   6.937
   72POPC   C3A 1352   9.457   3.889   6.495
   72POPC   C4A 1353   9.810   4.046   6.270
   72POPC   C1B 1354   9.766   4.555   7.360
   72POPC   C2B 1355   9.650   4.678   6.950
   72POPC   C3B 1356   9.613   4.445   6.552
   72POPC   C4B 1357   9.322   4.336   6.242
   73POPC   NC3 1358   2.688   8.106   8.064
   73POPC   PO4 1359   2.148   7.487   8.261
   73POPC   GL1 1360   2.081   7.471   7.826
   73POPC   GL2 1361   1.784   7.322   7.766
   73POPC   C1A 1362   2.123   7.504   7.350
   73POPC   D2A 1363   2.197   7.699   6.907
   73POPC   C3A 1364   2.196   7.512   6.486
   73POPC   C4A 1365   1.988   7.621   6.111
   73POPC   C1B 1366   1.633   7.404   7.340
   73POPC   C2B 1367   1.841   7.294   6.955
   73POPC   C3B 1368   1.723   7.325   6.537
   73POPC   C4B 1369   1.890   7.113   6.179
   74POPC   NC3 1370  10.624   1.288   8.390
   74POPC   PO4 1371  10.086   0.807   8.314
   74POPC   GL1 1372  10.219   0.980   7.890
   74POPC   GL2 1373  10.265   1.361   7.831
   74POPC   C1A 1374  10.296   1.031   7.441
   74POPC   D2A 1375  10.023   0.938   7.101
   74POPC   C3A 1376  10.058   1.052   6.669
   74POPC   C4A 1377  10.443   1.034   6.385
   74POPC   C1B 1378  10.154   1.505   7.368
   74POPC   C2B 1379  10.301   1.390   6.956
   74POPC   C3B 1380  10.239   1.507   6.500
   74POPC   C4B 1381  10.382   1.460   6.044
   75POPC   NC3 1382   0.536   4.778   8.022
   75POPC   PO4 1383   0.451   5.487   7.932
   75POPC   GL1 1384   0.508   5.138   7.659
   75POPC   GL2 1385   0.162   5.036   7.718
   75POPC   C1A 1386   0.627   5.068   7.230
   75POPC   D2A 1387   0.399   5.133   6.836
   75POPC   C3A 1388   0.600   5.046   6.468
   75POPC   C4A 1389   0.868   4.744   6.356
   75POPC   C1B 1390   0.148   4.879   7.278
   75POPC   C2B 1391   0.110   4.711   6.851
   75POPC   C3B 1392   0.112   4.931   6.427
   75POPC   C4B 1393   0.269   5.320   6.184
   76POPC   NC3 1394   0.936   7.413   8.109
   76POPC   PO4 1395   0.405   7.704   8.366
   76POPC   GL1 1396   0.539   7.645   7.868
   76POPC   GL2 1397   0.423   7.342   7.705
   76POPC   C1A 1398   0.502   7.684   7.367
   76POPC   D2A 1399   0.299   7.506   7.021
   76POPC   C3A 1400   0.487   7.634   6.642
   76POPC   C4A 1401   0.463   7.518   6.239
   76POPC   C1B 1402   0.506   7.110   7.361
   76POPC   C2B 1403   0.453   6.993   6.964
   76POPC   C3B 1404   0.406   7.130   6.585
   76POPC   C4B 1405   0.697   7.059   6.271
   77POPC   NC3 1406   2.054   4.447   7.997
   77POPC   PO4 1407   1.506   4.015   8.069
   77POPC   GL1 1408   1.641   4.213   7.679
   77POPC   GL2 1409   1.975   4.232   7.541
   77POPC   C1A 1410   1.582   4.367   7.239
   77POPC   D2A 1411   1.742   4.090   6.905
   77POPC   C3A 1412   1.620   4.144   6.461
   77POPC   C4A 1413   1.681   4.512   6.183
   77POPC   C1B 1414   2.190   4.004   7.193
   77POPC   C2B 1415   2.281   4.139   6.782
   77POPC   C3B 1416   2.100   4.361   6.429
   77POPC   C4B 1417   2.216   4.734   6.180
   78POPC   NC3 1418   7.127  10.275   8.038
   78POPC   PO4 1419   7.596  10.692   8.165
   78POPC   GL1 1420   7.443  10.570   7.736
   78POPC   GL2 1421   7.540  10.252   7.676
   78POPC   C1A 1422   7.293  10.706   7.290
   78POPC   D2A 1423   7.084  10.639   6.852
   78POPC   C3A 1424   7.405  10.539   6.537
   78POPC   C4A 1425   7.616  10.816   6.257
   78POPC   C1B 1426   7.295  10.212   7.339
   78POPC   C2B 1427   7.292  10.196   6.919
   78POPC   C3B 1428   7.235  10.050   6.503
   78POPC   C4B 1429   7.138  10.187   6.127
   79POPC   NC3 1430   1.992   1.120   8.085
   79POPC   PO4 1431   2.266   1.599   7.833
   79POPC   GL1 1432   2.044   1.328   7.586
   79POPC   GL2 1433   1.712   1.334   7.703
   79POPC   C1A 1434   2.172   1.106   7.200
   79POPC   D2A 1435   2.308   0.908   6.795
   79POPC   C3A 1436   2.112   1.159   6.432
   79POPC   C4A 1437   2.231   1.457   6.106
   79POPC   C1B 1438   1.638   1.129   7.307
   79POPC   C2B 1439   1.522   1.289   6.915
   79POPC   C3B 1440   1.568   1.166   6.504
   79POPC   C4B 1441   1.678   0.986   6.137
   80POPC   NC3 1442  10.393   9.108   8.196
   80POPC   PO4 1443  10.633   9.722   8.291
   80POPC   GL1 1444  10.558   9.710   7.810
   80POPC   GL2 1445  10.188   9.780   7.707
   80POPC   C1A 1446  10.485   9.546   7.351
   80POPC   D2A 1447  10.285   9.637   6.937
   80POPC   C3A 1448  10.363   9.581   6.483
   80POPC   C4A 1449  10.587   9.879   6.221
   80POPC   C1B 1450  10.152   9.998   7.293
   80POPC   C2B 1451   9.958  10.033   6.852
   80POPC   C3B 1452  10.133  10.090   6.398
   80POPC   C4B 1453  10.165   9.904   5.938
   81POPC   NC3 1454   1.811   3.672   8.006
   81POPC   PO4 1455   2.393   4.000   8.006
   81POPC   GL1 1456   2.172   3.774   7.652
   81POPC   GL2 1457   2.093   3.434   7.654
   81POPC   C1A 1458   1.799   3.716   7.339
   81POPC   D2A 1459   1.760   3.564   6.898
   81POPC   C3A 1460   1.987   3.787   6.565
   81POPC   C4A 1461   2.345   3.919   6.329
   81POPC   C1B 1462   2.006   3.231   7.247
   81POPC   C2B 1463   1.994   3.045   6.834
   81POPC   C3B 1464   1.979   3.286   6.462
   81POPC   C4B 1465   1.815   3.579   6.140
   82POPC   NC3 1466  10.300   2.157   8.044
   82POPC   PO4 1467   9.854   1.630   8.025
   82POPC   GL1 1468   9.714   1.713   7.618
   82POPC   GL2 1469   9.327   1.594   7.548
   82POPC   C1A 1470   9.943   1.977   7.308
   82POPC   D2A 1471  10.106   1.866   6.893
   82POPC   C3A 1472   9.841   1.852   6.493
   82POPC   C4A 1473   9.926   1.685   6.099
   82POPC   C1B 1474   9.477   1.829   7.192
   82POPC   C2B 1475   9.685   2.124   6.886
   82POPC   C3B 1476   9.610   2.360   6.489
   82POPC   C4B 1477   9.386   2.359   6.081
   83POPC   NC3 1478   0.813   5.688   8.187
   83POPC   PO4 1479   0.185   5.861   8.251
   83POPC   GL1 1480   0.218   5.949   7.786
   83POPC   GL2 1481   0.580   5.985   7.758
   83POPC   C1A 1482   0.207   5.747   7.354
   83POPC   D2A 1483   0.533   5.574   7.069
   83POPC   C3A 1484   0.456   5.589   6.615
   83POPC   C4A 1485   0.721   5.662   6.265
   83POPC   C1B 1486   0.551   6.108   7.312
   83POPC   C2B 1487   0.382   6.046   6.889
   83POPC   C3B 1488   0.441   6.067   6.428
   83POPC   C4B 1489   0.133   5.817   6.225
   84POPC   NC3 1490  10.345  10.103   8.106
   84POPC   PO4 1491  10.017  10.760   8.084
   84POPC   GL1 1492  10.168  10.440   7.724
   84POPC   GL2 1493  10.486  10.201   7.636
   84POPC   C1A 1494  10.314  10.532   7.294
   84POPC   D2A 1495  10.236  10.805   6.952
   84POPC   C3A 1496  10.268  10.642   6.557
   84POPC   C4A 1497  10.219  10.768   6.126
   84POPC   C1B 1498  10.823  10.401   7.405
   84POPC   C2B 1499  10.791  10.690   7.059
   84POPC   C3B 1500  10.815  10.705   6.607
   84POPC   C4B 1501  10.624  10.454   6.248
   85POPC   NC3 1502   4.402   0.464   7.916
   85POPC   PO4 1503   4.020  11.477   8.131
   85POPC   GL1 1504   3.961   0.187   7.697
   85POPC   GL2 1505   3.992   0.541   7.644
   85POPC   C1A 1506   4.040   0.245   7.217
   85POPC   D2A 1507   3.940   0.498   6.830
   85POPC   C3A 1508   4.048   0.360   6.394
   85POPC   C4A 1509   4.136   0.376   5.953
   85POPC   C1B 1510   4.328   0.653   7.323
   85POPC   C2B 1511   4.464   0.521   6.964
   85POPC   C3B 1512   4.434   0.669   6.563
   85POPC   C4B 1513   4.585   0.541   6.195
   86POPC   NC3 1514   1.945   1.820   8.087
   86POPC   PO4 1515   1.993   2.485   7.857
   86POPC   GL1 1516   2.083   2.227   7.575
   86POPC   GL2 1517   1.950   1.880   7.563
   86POPC   C1A 1518   2.124   2.321   7.149
   86POPC   D2A 1519   2.003   2.043   6.829
   86POPC   C3A 1520   2.072   2.213   6.421
   86POPC   C4A 1521   1.872   2.457   6.132
   86POPC   C1B 1522   1.821   1.623   7.212
   86POPC   C2B 1523   1.960   1.506   6.787
   86POPC   C3B 1524   1.809   1.606   6.367
   86POPC   C4B 1525   1.921   1.880   6.024
   87POPC   NC3 1526   9.584   3.704   8.102
   87POPC   PO4 1527   9.865   3.155   8.161
   87POPC   GL1 1528   9.803   3.290   7.715
   87POPC   GL2 1529   9.524   3.113   7.732
   87POPC   C1A 1530   9.876   3.357   7.224
   87POPC   D2A 1531   9.821   3.719   6.867
   87POPC   C3A 1532   9.821   3.538   6.447
   87POPC   C4A 1533   9.822   3.128   6.490
   87POPC   C1B 1534   9.409   3.157   7.318
   87POPC   C2B 1535   9.455   3.370   6.917
   87POPC   C3B 1536   9.322   3.282   6.519
   87POPC   C4B 1537   9.359   3.442   6.134
   88POPC   NC3 1538   8.829   9.043   8.160
   88POPC   PO4 1539   9.224   8.474   8.053
   88POPC   GL1 1540   8.917   8.708   7.748
   88POPC   GL2 1541   8.887   9.075   7.665
   88POPC   C1A 1542   8.701   8.764   7.330
   88POPC   D2A 1543   8.856   8.844   6.900
   88POPC   C3A 1544   8.698   8.676   6.517
   88POPC   C4A 1545   8.439   8.825   6.169
   88POPC   C1B 1546   8.997   9.219   7.234
   88POPC   C2B 1547   8.794   9.328   6.802
   88POPC   C3B 1548   8.833   9.177   6.333
   88POPC   C4B 1549   9.152   9.109   5.960
   89POPC   NC3 1550   2.654   1.365   8.018
   89POPC   PO4 1551   2.290   0.768   8.120
   89POPC   GL1 1552   2.437   0.987   7.672
   89POPC   GL2 1553   2.570   1.340   7.524
   89POPC   C1A 1554   2.715   0.943   7.262
   89POPC   D2A 1555   2.817   0.786   6.847
   89POPC   C3A 1556   2.686   0.945   6.444
   89POPC   C4A 1557   2.410   0.856   6.153
   89POPC   C1B 1558   3.021   1.350   7.370
   89POPC   C2B 1559   3.137   1.219   6.928
   89POPC   C3B 1560   3.079   1.247   6.492
   89POPC   C4B 1561   2.716   1.437   6.252
   90POPC   NC3 1562   9.613   8.229   8.107
   90POPC   PO4 1563   9.436   7.668   8.055
   90POPC   GL1 1564   9.323   8.053   7.712
   90POPC   GL2 1565   9.549   8.346   7.642
   90POPC   C1A 1566   9.295   8.237   7.254
   90POPC   D2A 1567   9.543   8.137   6.940
   90POPC   C3A 1568   9.542   8.178   6.558
   90POPC   C4A 1569   9.452   7.959   6.196
   90POPC   C1B 1570   9.738   7.962   7.365
   90POPC   C2B 1571   9.920   7.792   6.909
   90POPC   C3B 1572   9.955   7.918   6.421
   90POPC   C4B 1573   9.831   8.352   6.197
   91POPC   NC3 1574   6.710   1.649   8.032
   91POPC   PO4 1575   7.060   2.216   7.958
   91POPC   GL1 1576   6.994   1.898   7.626
   91POPC   GL2 1577   6.609   1.826   7.580
   91POPC   C1A 1578   6.889   1.857   7.176
   91POPC   D2A 1579   6.756   2.079   6.813
   91POPC   C3A 1580   6.870   1.816   6.492
   91POPC   C4A 1581   6.740   1.663   6.164
   91POPC   C1B 1582   6.246   1.791   7.290
   91POPC   C2B 1583   6.134   1.926   6.873
   91POPC   C3B 1584   6.358   1.956   6.499
   91POPC   C4B 1585   6.254   2.297   6.223
   92POPC   NC3 1586   6.279   3.394   8.301
   92POPC   PO4 1587   6.598   2.978   8.159
   92POPC   GL1 1588   6.437   3.225   7.770
   92POPC   GL2 1589   6.484   3.571   7.846
   92POPC   C1A 1590   6.381   3.210   7.265
   92POPC   D2A 1591   6.622   3.235   6.853
   92POPC   C3A 1592   6.427   3.223   6.418
   92POPC   C4A 1593   6.485   3.173   5.950
   92POPC   C1B 1594   6.630   3.619   7.427
   92POPC   C2B 1595   6.431   3.690   7.028
   92POPC   C3B 1596   6.581   3.683   6.599
   92POPC   C4B 1597   6.531   3.666   6.146
   93POPC   NC3 1598   8.112   1.353   8.195
   93POPC   PO4 1599   7.792   0.780   7.976
   93POPC   GL1 1600   7.947   1.068   7.622
   93POPC   GL2 1601   8.274   1.242   7.641
   93POPC   C1A 1602   7.960   1.327   7.210
   93POPC   D2A 1603   7.652   1.357   6.838
   93POPC   C3A 1604   7.852   1.139   6.484
   93POPC   C4A 1605   7.950   1.112   6.023
   93POPC   C1B 1606   8.286   0.850   7.320
   93POPC   C2B 1607   8.350   0.773   6.848
   93POPC   C3B 1608   8.309   0.911   6.397
   93POPC   C4B 1609   8.315   1.370   6.278
   94POPC   NC3 1610   6.410  10.751   8.113
   94POPC   PO4 1611   6.581  10.059   8.138
   94POPC   GL1 1612   6.583  10.356   7.785
   94POPC   GL2 1613   6.927  10.454   7.609
   94POPC   C1A 1614   6.445  10.493   7.380
   94POPC   D2A 1615   6.535  10.540   6.900
   94POPC   C3A 1616   6.260  10.676   6.544
   94POPC   C4A 1617   6.235  10.608   6.060
   94POPC   C1B 1618   6.780  10.110   7.366
   94POPC   C2B 1619   6.812  10.041   6.922
   94POPC   C3B 1620   6.803  10.295   6.547
   94POPC   C4B 1621   6.470  10.207   6.321
   95POPC   NC3 1622   6.877   2.634   8.051
   95POPC   PO4 1623   7.558   2.686   8.208
   95POPC   GL1 1624   7.340   2.704   7.778
   95POPC   GL2 1625   7.383   2.419   7.610
   95POPC   C1A 1626   7.031   2.672   7.373
   95POPC   D2A 1627   7.077   2.461   6.934
   95POPC   C3A 1628   7.082   2.724   6.523
   95POPC   C4A 1629   6.912   3.094   6.257
   95POPC   C1B 1630   7.503   2.573   7.207
   95POPC   C2B 1631   7.571   2.348   6.839
   95POPC   C3B 1632   7.608   2.501   6.444
   95POPC   C4B 1633   7.460   2.838   6.168
   96POPC   NC3 1634  11.111   2.086   8.123
   96POPC   PO4 1635  11.447   1.477   8.028
   96POPC   GL1 1636  11.307   1.787   7.741
   96POPC   GL2 1637  11.350   1.546   7.482
   96POPC   C1A 1638  11.091   1.974   7.374
   96POPC   D2A 1639  11.079   1.774   6.961
   96POPC   C3A 1640  11.134   2.025   6.566
   96POPC   C4A 1641  11.155   1.850   6.151
   96POPC   C1B 1642   0.054   1.797   7.183
   96POPC   C2B 1643   0.041   1.785   6.759
   96POPC   C3B 1644   0.144   1.905   6.391
   96POPC   C4B 1645   0.266   1.525   6.258
   97POPC   NC3 1646   5.248   0.779   8.178
   97POPC   PO4 1647   5.066   1.351   8.079
   97POPC   GL1 1648   4.972   1.077   7.725
   97POPC   GL2 1649   5.282   0.968   7.672
   97POPC   C1A 1650   4.976   0.906   7.264
   97POPC   D2A 1651   4.780   0.916   6.867
   97POPC   C3A 1652   4.946   0.819   6.473
   97POPC   C4A 1653   4.759   1.059   6.157
   97POPC   C1B 1654   5.235   1.333   7.377
   97POPC   C2B 1655   5.079   1.393   6.956
   97POPC   C3B 1656   5.037   1.316   6.514
   97POPC   C4B 1657   5.263   1.391   6.122
   98POPC   NC3 1658   0.306   3.648   7.867
   98POPC   PO4 1659   0.334   3.057   8.260
   98POPC   GL1 1660   0.583   3.104   7.773
   98POPC   GL2 1661   0.796   3.393   7.714
   98POPC   C1A 1662   0.494   3.154   7.274
   98POPC   D2A 1663   0.098   3.234   6.997
   98POPC   C3A 1664   0.065   3.115   6.551
   98POPC   C4A 1665   0.356   3.215   6.180
   98POPC   C1B 1666   0.800   3.570   7.272
   98POPC   C2B 1667   0.625   3.492   6.827
   98POPC   C3B 1668   0.611   3.648   6.373
   98POPC   C4B 1669   0.563   3.609   5.894
   99POPC   NC3 1670  10.276   6.559   7.995
   99POPC   PO4 1671  10.750   7.022   7.764
   99POPC   GL1 1672  10.411   6.863   7.597
   99POPC   GL2 1673  10.597   6.544   7.605
   99POPC   C1A 1674  10.412   6.795   7.160
   99POPC   D2A 1675  10.420   6.689   6.718
   99POPC   C3A 1676  10.575   6.975   6.424
   99POPC   C4A 1677  10.322   7.077   6.105
   99POPC   C1B 1678  10.541   6.297   7.250
   99POPC   C2B 1679  10.336   6.205   6.869
   99POPC   C3B 1680  10.401   6.260   6.422
   99POPC   C4B 1681  10.233   6.151   6.031
  100POPC   NC3 1682  10.545   5.810   8.114
  100POPC   PO4 1683   9.954   6.180   7.995
  100POPC   GL1 1684  10.324   6.102   7.721
  100POPC   GL2 1685  10.212   5.771   7.706
  100POPC   C1A 1686  10.618   5.828   7.434
  100POPC   D2A 1687  10.788   5.635   7.068
  100POPC   C3A 1688  10.721   5.884   6.707
  100POPC   C4A 1689  10.706   5.865   6.273
  100POPC   C1B 1690  10.151   5.905   7.272
  100POPC   C2B 1691  10.274   5.703   6.890
  100POPC   C3B 1692  10.239   5.762   6.446
  100POPC   C4B 1693  10.302   5.649   5.989
  101POPC   NC3 1694  11.451   2.877   8.063
  101POPC   PO4 1695  10.847   3.141   8.347
  101POPC   GL1 1696  10.971   2.857   7.855
  101POPC   GL2 1697  11.267   2.843   7.605
  101POPC   C1A 1698  10.872   2.967   7.348
  101POPC   D2A 1699  11.169   2.925   7.015
  101POPC   C3A 1700  11.067   2.619   6.729
  101POPC   C4A 1701  11.004   2.588   6.315
  101POPC   C1B 1702  11.207   2.488   7.325
  101POPC   C2B 1703  11.375   2.256   6.975
  101POPC   C3B 1704   0.032   2.388   6.573
  101POPC   C4B 1705  11.381   2.293   6.160
  102POPC   NC3 1706   3.643   2.947   8.056
  102POPC   PO4 1707   3.152   2.456   8.055
  102POPC   GL1 1708   3.329   2.701   7.726
  102POPC   GL2 1709   3.669   2.553   7.668
  102POPC   C1A 1710   3.270   2.881   7.313
  102POPC   D2A 1711   3.105   2.788   6.886
  102POPC   C3A 1712   3.300   2.935   6.488
  102POPC   C4A 1713   3.301   2.849   6.021
  102POPC   C1B 1714   3.568   2.434   7.223
  102POPC   C2B 1715   3.625   2.592   6.776
  102POPC   C3B 1716   3.680   2.592   6.316
  102POPC   C4B 1717   3.607   2.432   5.897
  103POPC   NC3 1718   9.548   7.232   8.127
  103POPC   PO4 1719  10.176   6.998   8.117
  103POPC   GL1 1720   9.940   7.094   7.741
  103POPC   GL2 1721   9.848   7.455   7.745
  103POPC   C1A 1722   9.868   7.010   7.282
  103POPC   D2A 1723   9.747   7.252   6.886
  103POPC   C3A 1724   9.610   7.054   6.445
  103POPC   C4A 1725   9.783   6.964   6.012
  103POPC   C1B 1726   9.577   7.472   7.382
  103POPC   C2B 1727   9.436   7.646   6.993
  103POPC   C3B 1728   9.536   7.614   6.562
  103POPC   C4B 1729   9.286   7.411   6.251
  104POPC   NC3 1730   5.456  10.361   8.450
  104POPC   PO4 1731   5.939   9.775   8.217
  104POPC   GL1 1732   5.704   9.958   7.873
  104POPC   GL2 1733   5.936   9.748   7.696
  104POPC   C1A 1734   5.590   9.983   7.420
  104POPC   D2A 1735   5.864   9.912   7.032
  104POPC   C3A 1736   5.693   9.925   6.588
  104POPC   C4A 1737   5.529   9.808   6.148
  104POPC   C1B 1738   5.763   9.510   7.323
  104POPC   C2B 1739   5.832   9.446   6.868
  104POPC   C3B 1740   5.767   9.439   6.420
  104POPC   C4B 1741   6.064   9.319   6.106
  105POPC   NC3 1742   1.967  11.395   8.162
  105POPC   PO4 1743   1.720  10.815   8.079
  105POPC   GL1 1744   1.755  11.117   7.730
  105POPC   GL2 1745   2.078  11.296   7.678
  105POPC   C1A 1746   1.864  11.082   7.286
  105POPC   D2A 1747   1.693  11.133   6.898
  105POPC   C3A 1748   1.966  11.090   6.559
  105POPC   C4A 1749   1.951  10.910   6.162
  105POPC   C1B 1750   2.294  11.443   7.309
  105POPC   C2B 1751   2.131  11.413   6.910
  105POPC   C3B 1752   2.345  11.452   6.500
  105POPC   C4B 1753   2.112  11.388   6.150
  106POPC   NC3 1754   4.115  10.067   7.930
  106POPC   PO4 1755   4.680   9.546   7.985
  106POPC   GL1 1756   4.462   9.775   7.706
  106POPC   GL2 1757   4.166   9.582   7.675
  106POPC   C1A 1758   4.423   9.849   7.278
  106POPC   D2A 1759   4.289   9.638   6.890
  106POPC   C3A 1760   4.361   9.895   6.519
  106POPC   C4A 1761   4.624   9.870   6.179
  106POPC   C1B 1762   3.925   9.631   7.286
  106POPC   C2B 1763   3.804   9.463   6.864
  106POPC   C3B 1764   3.914   9.630   6.435
  106POPC   C4B 1765   4.213   9.594   6.087
  107POPC   NC3 1766   2.640   9.527   8.044
  107POPC   PO4 1767   2.273  10.011   7.860
  107POPC   GL1 1768   2.642   9.811   7.620
  107POPC   GL2 1769   3.009   9.700   7.706
  107POPC   C1A 1770   2.790   9.941   7.251
  107POPC   D2A 1771   2.740   9.976   6.830
  107POPC   C3A 1772   2.423   9.814   6.665
  107POPC   C4A 1773   2.577   9.646   6.326
  107POPC   C1B 1774   2.942   9.454   7.321
  107POPC   C2B 1775   2.803   9.480   6.904
  107POPC   C3B 1776   3.020   9.554   6.528
  107POPC   C4B 1777   2.926   9.350   6.109
  108POPC   NC3 1778   6.859   8.753   8.035
  108POPC   PO4 1779   7.539   8.517   8.066
  108POPC   GL1 1780   7.521   8.844   7.762
  108POPC   GL2 1781   7.212   9.004   7.738
  108POPC   C1A 1782   7.513   8.854   7.306
  108POPC   D2A 1783   7.403   8.713   6.878
  108POPC   C3A 1784   7.637   8.773   6.512
  108POPC   C4A 1785   7.382   8.672   6.201
  108POPC   C1B 1786   7.140   9.235   7.362
  108POPC   C2B 1787   7.322   9.213   6.942
  108POPC   C3B 1788   7.174   9.027   6.544
  108POPC   C4B 1789   7.255   9.174   6.130
  109POPC   NC3 1790  10.515   2.889   8.111
  109POPC   PO4 1791  10.730   2.251   7.906
  109POPC   GL1 1792  10.493   2.528   7.657
  109POPC   GL2 1793  10.160   2.423   7.504
  109POPC   C1A 1794  10.702   2.503   7.264
  109POPC   D2A 1795  10.854   2.229   6.974
  109POPC   C3A 1796  10.669   2.252   6.569
  109POPC   C4A 1797  10.458   2.569   6.363
  109POPC   C1B 1798  10.300   2.798   7.239
  109POPC   C2B 1799  10.610   2.848   6.895
  109POPC   C3B 1800  10.645   3.007   6.492
  109POPC   C4B 1801  10.274   3.122   6.231
  110POPC   NC3 1802   9.649   8.782   8.060
  110POPC   PO4 1803   9.295   9.287   7.880
  110POPC   GL1 1804   9.378   8.888   7.637
  110POPC   GL2 1805   9.715   8.816   7.542
  110POPC   C1A 1806   9.293   8.770   7.202
  110POPC   D2A 1807   9.324   9.038   6.821
  110POPC   C3A 1808   9.200   8.854   6.440
  110POPC   C4A 1809   9.414   8.683   6.098
  110POPC   C1B 1810   9.756   8.504   7.221
  110POPC   C2B 1811   9.905   8.467   6.809
  110POPC   C3B 1812   9.687   8.698   6.535
  110POPC   C4B 1813   9.901   8.848   6.172
  111POPC   NC3 1814   3.104  10.415   8.079
  111POPC   PO4 1815   2.536  10.744   8.070
  111POPC   GL1 1816   2.812  10.669   7.739
  111POPC   GL2 1817   2.736  10.306   7.735
  111POPC   C1A 1818   3.009  10.752   7.356
  111POPC   D2A 1819   2.762  10.802   6.973
  111POPC   C3A 1820   2.961  10.717   6.583
  111POPC   C4A 1821   2.784  10.610   6.202
  111POPC   C1B 1822   2.589  10.433   7.335
  111POPC   C2B 1823   2.379  10.423   6.962
  111POPC   C3B 1824   2.544  10.381   6.594
  111POPC   C4B 1825   2.567  10.132   6.246
  112POPC   NC3 1826   7.822  11.141   8.020
  112POPC   PO4 1827   8.452  10.898   7.997
  112POPC   GL1 1828   8.244  11.143   7.662
  112POPC   GL2 1829   7.936  11.351   7.592
  112POPC   C1A 1830   8.214  11.011   7.236
  112POPC   D2A 1831   8.424  10.780   6.934
  112POPC   C3A 1832   8.429  10.985   6.596
  112POPC   C4A 1833   8.481  11.090   6.207
  112POPC   C1B 1834   8.050   0.009   7.245
  112POPC   C2B 1835   8.000  11.318   6.879
  112POPC   C3B 1836   8.142  11.387   6.482
  112POPC   C4B 1837   7.986  11.150   6.150
  113POPC   NC3 1838   2.415   2.330   7.989
  113POPC   PO4 1839   2.499   1.733   8.280
  113POPC   GL1 1840   2.642   1.896   7.811
  113POPC   GL2 1841   2.887   2.076   7.847
  113POPC   C1A 1842   2.437   1.947   7.350
  113POPC   D2A 1843   2.515   1.984   6.916
  113POPC   C3A 1844   2.343   1.776   6.522
  113POPC   C4A 1845   2.422   1.927   6.099
  113POPC   C1B 1846   2.932   1.979   7.387
  113POPC   C2B 1847   3.079   2.029   6.959
  113POPC   C3B 1848   3.098   2.189   6.546
  113POPC   C4B 1849   2.921   1.945   6.200
  114POPC   NC3 1850   4.361   9.212   8.016
  114POPC   PO4 1851   3.747   9.214   8.062
  114POPC   GL1 1852   3.845   9.165   7.622
  114POPC   GL2 1853   4.080   8.916   7.674
  114POPC   C1A 1854   4.086   9.160   7.208
  114POPC   D2A 1855   4.072   8.980   6.781
  114POPC   C3A 1856   4.200   9.175   6.378
  114POPC   C4A 1857   4.262   9.128   5.905
  114POPC   C1B 1858   4.375   8.754   7.362
  114POPC   C2B 1859   4.557   8.771   6.947
  114POPC   C3B 1860   4.565   8.835   6.490
  114POPC   C4B 1861   4.280   8.689   6.151
  115POPC   NC3 1862  11.022   1.376   7.851
  115POPC   PO4 1863  10.805   1.727   8.318
  115POPC   GL1 1864  10.681   1.743   7.803
  115POPC   GL2 1865  10.361   1.853   7.656
  115POPC   C1A 1866  10.685   1.620   7.303
  115POPC   D2A 1867  10.591   1.808   6.850
  115POPC   C3A 1868  10.731   1.715   6.433
  115POPC   C4A 1869  10.672   1.863   5.988
  115POPC   C1B 1870  10.450   2.067   7.277
  115POPC   C2B 1871  10.311   2.350   6.959
  115POPC   C3B 1872  10.114   2.273   6.579
  115POPC   C4B 1873  10.301   1.981   6.301
  116POPC   NC3 1874  10.940   6.726   8.049
  116POPC   PO4 1875  11.466   6.360   7.997
  116POPC   GL1 1876  11.393   6.379   7.630
  116POPC   GL2 1877  11.251   6.717   7.647
  116POPC   C1A 1878   0.021   6.231   7.253
  116POPC   D2A 1879  11.265   6.327   6.892
  116POPC   C3A 1880  11.488   6.213   6.582
  116POPC   C4A 1881   0.073   6.363   6.210
  116POPC   C1B 1882  11.024   6.546   7.316
  116POPC   C2B 1883  10.884   6.682   6.930
  116POPC   C3B 1884  11.048   6.806   6.527
  116POPC   C4B 1885  11.224   6.711   6.128
  117POPC   NC3 1886   2.143  10.446   7.967
  117POPC   PO4 1887   1.546   9.966   8.040
  117POPC   GL1 1888   1.529  10.212   7.651
  117POPC   GL2 1889   1.694  10.537   7.655
  117POPC   C1A 1890   1.688  10.192   7.220
  117POPC   D2A 1891   2.031  10.038   6.939
  117POPC   C3A 1892   2.041  10.113   6.492
  117POPC   C4A 1893   1.809  10.366   6.175
  117POPC   C1B 1894   2.001  10.585   7.321
  117POPC   C2B 1895   1.842  10.595   6.908
  117POPC   C3B 1896   2.048  10.596   6.563
  117POPC   C4B 1897   2.278  10.533   6.184
  118POPC   NC3 1898   2.778   0.517   8.066
  118POPC   PO4 1899   2.235   0.191   7.957
  118POPC   GL1 1900   2.426   0.466   7.697
  118POPC   GL2 1901   2.704   0.261   7.623
  118POPC   C1A 1902   2.398   0.554   7.271
  118POPC   D2A 1903   2.376   0.345   6.894
  118POPC   C3A 1904   2.487   0.483   6.514
  118POPC   C4A 1905   2.322   0.354   6.141
  118POPC   C1B 1906   2.775   0.199   7.192
  118POPC   C2B 1907   2.890   0.282   6.772
  118POPC   C3B 1908   2.866   0.171   6.347
  118POPC   C4B 1909   3.096   0.129   5.975
  119POPC   NC3 1910   2.895  11.029   8.102
  119POPC   PO4 1911   3.043   0.112   8.079
  119POPC   GL1 1912   2.968  11.324   7.701
  119POPC   GL2 1913   2.594  11.228   7.731
  119POPC   C1A 1914   2.818  11.211   7.283
  119POPC   D2A 1915   2.620  11.301   6.904
  119POPC   C3A 1916   2.820  11.209   6.534
  119POPC   C4A 1917   2.935  11.132   6.126
  119POPC   C1B 1918   2.395  10.934   7.413
  119POPC   C2B 1919   2.252  10.919   6.978
  119POPC   C3B 1920   2.445  10.889   6.576
  119POPC   C4B 1921   2.457  11.011   6.164
  120POPC   NC3 1922   1.505  10.416   8.137
  120POPC   PO4 1923   0.924  10.749   8.134
  120POPC   GL1 1924   1.188  10.642   7.797
  120POPC   GL2 1925   1.000  10.346   7.742
  120POPC   C1A 1926   1.089  10.708   7.361
  120POPC   D2A 1927   0.864  10.550   6.977
  120POPC   C3A 1928   1.105  10.593   6.567
  120POPC   C4A 1929   1.545  10.706   6.438
  120POPC   C1B 1930   1.120  10.193   7.327
  120POPC   C2B 1931   1.269  10.239   6.933
  120POPC   C3B 1932   1.553  10.211   6.631
  120POPC   C4B 1933   1.337  10.174   6.255
  121POPC   NC3 1934   9.798   1.166   8.124
  121POPC   PO4 1935   9.142   1.349   7.993
  121POPC   GL1 1936   9.450   1.112   7.710
  121POPC   GL2 1937   9.808   1.200   7.627
  121POPC   C1A 1938   9.571   0.847   7.342
  121POPC   D2A 1939   9.563   0.987   6.900
  121POPC   C3A 1940   9.306   1.057   6.563
  121POPC   C4A 1941   9.535   0.928   6.213
  121POPC   C1B 1942   9.678   1.352   7.248
  121POPC   C2B 1943   9.781   1.477   6.854
  121POPC   C3B 1944   9.702   1.363   6.442
  121POPC   C4B 1945   9.992   1.167   6.155
  122POPC   NC3 1946   9.886   0.347   8.162
  122POPC   PO4 1947   9.460   0.852   8.159
  122POPC   GL1 1948   9.761   0.725   7.839
  122POPC   GL2 1949   9.585   0.441   7.756
  122POPC   C1A 1950  10.000   0.558   7.473
  122POPC   D2A 1951  10.035   0.334   7.068
  122POPC   C3A 1952   9.813   0.542   6.722
  122POPC   C4A 1953   9.997   0.686   6.333
  122POPC   C1B 1954   9.441   0.337   7.360
  122POPC   C2B 1955   9.335   0.507   6.983
  122POPC   C3B 1956   9.333   0.333   6.577
  122POPC   C4B 1957   9.597   0.411   6.234
  123POPC   NC3 1958   5.088  11.417   8.396
  123POPC   PO4 1959   5.570   0.038   7.906
  123POPC   GL1 1960   5.343  11.275   7.604
  123POPC   GL2 1961   5.031  11.133   7.788
  123POPC   C1A 1962   5.289  11.379   7.146
  123POPC   D2A 1963   5.241   0.031   6.723
  123POPC   C3A 1964   5.165  11.234   6.413
  123POPC   C4A 1965   5.435  11.038   6.132
  123POPC   C1B 1966   4.847  11.255   7.391
  123POPC   C2B 1967   4.837  11.125   6.953
  123POPC   C3B 1968   4.716  11.367   6.606
  123POPC   C4B 1969   4.675  11.368   6.184
  124POPC   NC3 1970   0.388   9.103   8.296
  124POPC   PO4 1971   0.556   8.558   8.042
  124POPC   GL1 1972   0.522   8.828   7.684
  124POPC   GL2 1973   0.169   8.953   7.700
  124POPC   C1A 1974   0.528   8.889   7.224
  124POPC   D2A 1975   0.353   9.053   6.859
  124POPC   C3A 1976   0.654   8.902   6.570
  124POPC   C4A 1977   0.664   8.535   6.336
  124POPC   C1B 1978   0.160   8.596   7.401
  124POPC   C2B 1979   0.208   8.540   6.942
  124POPC   C3B 1980   0.203   8.641   6.494
  124POPC   C4B 1981   0.346   9.018   6.183
  125POPC   NC3 1982   4.191   0.357   8.364
  125POPC   PO4 1983   3.580   0.546   8.233
  125POPC   GL1 1984   3.496   0.497   7.768
  125POPC   GL2 1985   3.250   0.259   7.631
  125POPC   C1A 1986   3.603   0.482   7.302
  125POPC   D2A 1987   3.566   0.173   6.950
  125POPC   C3A 1988   3.532   0.328   6.501
  125POPC   C4A 1989   3.628   0.218   6.059
  125POPC   C1B 1990   3.100   0.563   7.307
  125POPC   C2B 1991   3.290   0.621   6.873
  125POPC   C3B 1992   3.109   0.631   6.423
  125POPC   C4B 1993   3.295   0.609   5.996
  126POPC   NC3 1994   0.916   8.862   8.048
  126POPC   PO4 1995   1.480   8.632   8.419
  126POPC   GL1 1996   1.441   8.753   7.878
  126POPC   GL2 1997   1.230   9.041   7.707
  126POPC   C1A 1998   1.541   8.808   7.372
  126POPC   D2A 1999   1.693   8.800   6.924
  126POPC   C3A 2000   1.755   9.103   6.610
  126POPC   C4A 2001   1.555   9.034   6.205
  126POPC   C1B 2002   1.019   8.794   7.379
  126POPC   C2B 2003   0.976   8.969   6.980
  126POPC   C3B 2004   1.208   8.928   6.640
  126POPC   C4B 2005   1.092   8.827   6.266
  127POPC   NC3 2006   9.655  10.519   7.906
  127POPC   PO4 2007   9.174  10.232   8.185
  127POPC   GL1 2008   9.357  10.149   7.684
  127POPC   GL2 2009   9.742  10.200   7.530
  127POPC   C1A 2010   9.407  10.169   7.178
  127POPC   D2A 2011   9.435   9.989   6.767
  127POPC   C3A 2012   9.411  10.273   6.402
  127POPC   C4A 2013   9.377  10.191   5.954
  127POPC   C1B 2014   9.804  10.516   7.205
  127POPC   C2B 2015   9.740  10.509   6.759
  127POPC   C3B 2016   9.819  10.545   6.332
  127POPC   C4B 2017   9.874  10.313   5.992
  128POPC   NC3 2018   3.398   8.972   7.897
  128POPC   PO4 2019   2.948   8.477   7.877
  128POPC   GL1 2020   3.245   8.654   7.522
  128POPC   GL2 2021   3.628   8.677   7.548
  128POPC   C1A 2022   3.123   8.770   7.090
  128POPC   D2A 2023   3.178   8.468   6.742
  128POPC   C3A 2024   3.222   8.670   6.386
  128POPC   C4A 2025   3.068   9.052   6.502
  128POPC   C1B 2026   3.601   8.965   7.194
  128POPC   C2B 2027   3.529   8.905   6.755
  128POPC   C3B 2028   3.747   8.863   6.380
  128POPC   C4B 2029   3.795   8.777   5.957
  129POPC   NC3 2030  10.521   0.687   8.345
  129POPC   PO4 2031  10.292   0.216   7.981
  129POPC   GL1 2032  10.483   0.317   7.622
  129POPC   GL2 2033  10.566   0.650   7.665
  129POPC   C1A 2034  10.507   0.108   7.201
  129POPC   D2A 2035  10.478   0.111   6.750
  129POPC   C3A 2036  10.120   0.175   6.504
  129POPC   C4A 2037  10.179   0.277   6.060
  129POPC   C1B 2038  10.439   0.614   7.211
  129POPC   C2B 2039  10.327   0.630   6.782
  129POPC   C3B 2040  10.474   0.525   6.418
  129POPC   C4B 2041  10.773   0.634   6.186
  130POPC   NC3 2042   2.461   7.184   8.080
  130POPC   PO4 2043   2.672   7.674   7.933
  130POPC   GL1 2044   2.546   7.391   7.599
  130POPC   GL2 2045   2.314   7.076   7.605
  130POPC   C1A 2046   2.602   7.560   7.183
  130POPC   D2A 2047   2.592   8.013   7.016
  130POPC   C3A 2048   2.633   7.978   6.579
  130POPC   C4A 2049   2.703   7.562   6.386
  130POPC   C1B 2050   2.307   7.091   7.132
  130POPC   C2B 2051   2.513   7.223   6.758
  130POPC   C3B 2052   2.558   7.048   6.335
  130POPC   C4B 2053   2.585   6.896   5.867
  131POPC   NC3 2054   1.117   1.872   8.090
  131POPC   PO4 2055   1.680   2.299   8.242
  131POPC   GL1 2056   1.567   2.094   7.826
  131POPC   GL2 2057   1.233   2.214   7.718
  131POPC   C1A 2058   1.594   2.178   7.346
  131POPC   D2A 2059   1.372   2.189   6.944
  131POPC   C3A 2060   1.555   2.003   6.584
  131POPC   C4A 2061   1.482   2.088   6.171
  131POPC   C1B 2062   1.041   2.032   7.340
  131POPC   C2B 2063   0.914   1.947   6.912
  131POPC   C3B 2064   1.034   2.075   6.491
  131POPC   C4B 2065   1.044   1.861   6.085
  132POPC   NC3 2066   5.141   9.620   8.009
  132POPC   PO4 2067   5.087  10.222   8.183
  132POPC   GL1 2068   4.982  10.030   7.709
  132POPC   GL2 2069   4.936   9.680   7.548
  132POPC   C1A 2070   5.124  10.005   7.226
  132POPC   D2A 2071   5.377   9.754   6.967
  132POPC   C3A 2072   5.073   9.627   6.673
  132POPC   C4A 2073   5.085   9.586   6.265
  132POPC   C1B 2074   5.007   9.429   7.154
  132POPC   C2B 2075   4.894   9.134   6.792
  132POPC   C3B 2076   5.032   9.072   6.352
  132POPC   C4B 2077   5.155   9.219   5.896
  133POPC   NC3 2078   5.787   1.611   8.052
  133POPC   PO4 2079   5.960   0.923   8.162
  133POPC   GL1 2080   6.015   1.190   7.808
  133POPC   GL2 2081   5.690   1.264   7.681
  133POPC   C1A 2082   6.088   1.307   7.362
  133POPC   D2A 2083   6.085   1.425   6.919
  133POPC   C3A 2084   5.915   1.212   6.584
  133POPC   C4A 2085   6.099   0.981   6.263
  133POPC   C1B 2086   5.654   1.005   7.300
  133POPC   C2B 2087   5.474   1.053   6.906
  133POPC   C3B 2088   5.447   1.013   6.474
  133POPC   C4B 2089   5.624   1.026   6.070
  134POPC   NC3 2090   9.451   9.609   8.173
  134POPC   PO4 2091   9.879  10.090   8.000
  134POPC   GL1 2092   9.666   9.740   7.725
  134POPC   GL2 2093   9.753   9.386   7.692
  134POPC   C1A 2094   9.714   9.726   7.276
  134POPC   D2A 2095   9.811   9.487   6.932
  134POPC   C3A 2096   9.732   9.640   6.541
  134POPC   C4A 2097   9.720   9.881   6.191
  134POPC   C1B 2098   9.565   9.214   7.288
  134POPC   C2B 2099   9.803   8.963   6.981
  134POPC   C3B 2100   9.912   9.151   6.575
  134POPC   C4B 2101   9.550   9.208   6.298
  135POPC   NC3 2102   8.742   1.529   7.847
  135POPC   PO4 2103   8.476   1.023   8.119
  135POPC   GL1 2104   8.656   0.911   7.690
  135POPC   GL2 2105   8.931   1.097   7.635
  135POPC   C1A 2106   8.655   1.168   7.239
  135POPC   D2A 2107   8.867   1.162   6.852
  135POPC   C3A 2108   8.792   1.120   6.412
  135POPC   C4A 2109   8.738   1.319   6.010
  135POPC   C1B 2110   9.186   1.187   7.259
  135POPC   C2B 2111   9.273   1.458   6.903
  135POPC   C3B 2112   8.973   1.593   6.593
  135POPC   C4B 2113   9.171   1.459   6.248
  136POPC   NC3 2114   9.000   0.900   8.123
  136POPC   PO4 2115   8.680   0.325   7.982
  136POPC   GL1 2116   9.034   0.514   7.809
  136POPC   GL2 2117   9.134   0.211   7.765
  136POPC   C1A 2118   9.094   0.697   7.420
  136POPC   D2A 2119   8.808   0.692   7.088
  136POPC   C3A 2120   8.971   0.696   6.673
  136POPC   C4A 2121   9.104   0.668   6.255
  136POPC   C1B 2122   8.929   0.230   7.363
  136POPC   C2B 2123   8.910   0.196   6.939
  136POPC   C3B 2124   8.614   0.358   6.676
  136POPC   C4B 2125   8.702   0.349   6.228
  137POPC   NC3 2126   3.599   1.047   8.097
  137POPC   PO4 2127   2.886   0.959   7.947
  137POPC   GL1 2128   3.269   0.970   7.677
  137POPC   GL2 2129   3.512   1.270   7.626
  137POPC   C1A 2130   3.408   0.960   7.255
  137POPC   D2A 2131   3.650   1.063   6.907
  137POPC   C3A 2132   3.497   0.939   6.522
  137POPC   C4A 2133   3.475   1.155   6.160
  137POPC   C1B 2134   3.814   1.421   7.305
  137POPC   C2B 2135   4.020   1.433   6.877
  137POPC   C3B 2136   3.779   1.387   6.499
  137POPC   C4B 2137   3.681   1.659   6.152
  138POPC   NC3 2138   3.727  10.504   8.285
  138POPC   PO4 2139   4.259  10.675   7.855
  138POPC   GL1 2140   3.840  10.526   7.690
  138POPC   GL2 2141   3.485  10.459   7.759
  138POPC   C1A 2142   3.603  10.492   7.278
  138POPC   D2A 2143   3.495  10.255   6.906
  138POPC   C3A 2144   3.553  10.467   6.511
  138POPC   C4A 2145   3.845  10.713   6.236
  138POPC   C1B 2146   3.156  10.274   7.434
  138POPC   C2B 2147   3.010  10.355   6.991
  138POPC   C3B 2148   3.077  10.219   6.522
  138POPC   C4B 2149   3.254  10.393   6.109
  139POPC   NC3 2150  11.198  10.220   8.542
  139POPC   PO4 2151  10.826  10.175   8.033
  139POPC   GL1 2152  11.198  10.101   7.729
  139POPC   GL2 2153  11.364  10.416   7.686
  139POPC   C1A 2154  11.275  10.133   7.258
  139POPC   D2A 2155  10.938  10.211   6.933
  139POPC   C3A 2156  10.959  10.087   6.490
  139POPC   C4A 2157  10.983  10.190   6.017
  139POPC   C1B 2158  11.270  10.656   7.287
  139POPC   C2B 2159  11.313  10.565   6.845
  139POPC   C3B 2160  11.264  10.478   6.416
  139POPC   C4B 2161  11.421  10.111   6.241
  140POPC   NC3 2162   3.369   2.058   8.117
  140POPC   PO4 2163   3.451   1.502   8.076
  140POPC   GL1 2164   3.291   1.761   7.698
  140POPC   GL2 2165   3.328   2.168   7.623
  140POPC   C1A 2166   3.369   1.721   7.261
  140POPC   D2A 2167   3.503   1.570   6.877
  140POPC   C3A 2168   3.297   1.699   6.488
  140POPC   C4A 2169   3.171   1.532   6.056
  140POPC   C1B 2170   3.715   2.007   7.502
  140POPC   C2B 2171   3.854   1.874   7.093
  140POPC   C3B 2172   3.785   1.925   6.622
  140POPC   C4B 2173   3.519   2.110   6.278
  141POPC   NC3 2174   2.805   3.786   8.001
  141POPC   PO4 2175   3.237   3.232   8.065
  141POPC   GL1 2176   2.976   3.171   7.715
  141POPC   GL2 2177   2.616   3.304   7.703
  141POPC   C1A 2178   3.042   3.369   7.331
  141POPC   D2A 2179   3.261   3.279   6.944
  141POPC   C3A 2180   3.038   3.392   6.569
  141POPC   C4A 2181   3.005   3.245   6.152
  141POPC   C1B 2182   2.457   3.483   7.296
  141POPC   C2B 2183   2.298   3.461   6.846
  141POPC   C3B 2184   2.504   3.433   6.415
  141POPC   C4B 2185   2.822   3.759   6.256
  142POPC   NC3 2186   8.784  10.035   8.039
  142POPC   PO4 2187   9.060   9.420   8.334
  142POPC   GL1 2188   9.084   9.713   7.846
  142POPC   GL2 2189   8.818   9.591   7.653
  142POPC   C1A 2190   9.216   9.746   7.388
  142POPC   D2A 2191   9.309   9.535   6.990
  142POPC   C3A 2192   9.222   9.483   6.570
  142POPC   C4A 2193   9.253   9.800   6.316
  142POPC   C1B 2194   8.756   9.692   7.188
  142POPC   C2B 2195   8.909   9.822   6.794
  142POPC   C3B 2196   8.774   9.694   6.375
  142POPC   C4B 2197   8.462   9.919   6.129
  143POPC   NC3 2198   7.205  10.975   8.231
  143POPC   PO4 2199   7.468  11.407   7.835
  143POPC   GL1 2200   7.466  11.088   7.624
  143POPC   GL2 2201   7.141  10.975   7.695
  143POPC   C1A 2202   7.617  11.224   7.219
  143POPC   D2A 2203   7.548   0.035   6.908
  143POPC   C3A 2204   7.621  11.337   6.521
  143POPC   C4A 2205   7.465  11.301   6.132
  143POPC   C1B 2206   7.112  11.184   7.270
  143POPC   C2B 2207   7.269  11.115   6.870
  143POPC   C3B 2208   7.202  11.010   6.486
  143POPC   C4B 2209   6.976  11.161   6.134
  144POPC   NC3 2210   8.633   2.413   8.021
  144POPC   PO4 2211   9.075   2.920   8.160
  144POPC   GL1 2212   9.160   2.756   7.761
  144POPC   GL2 2213   8.814   2.790   7.706
  144POPC   C1A 2214   9.135   2.719   7.305
  144POPC   D2A 2215   8.870   2.629   6.894
  144POPC   C3A 2216   9.026   2.662   6.466
  144POPC   C4A 2217   9.029   3.017   6.168
  144POPC   C1B 2218   8.626   2.613   7.348
  144POPC   C2B 2219   8.401   2.470   6.979
  144POPC   C3B 2220   8.514   2.500   6.563
  144POPC   C4B 2221   8.580   2.769   6.207
  145POPC   NC3 2222  11.299   1.087   8.326
  145POPC   PO4 2223  10.712   1.039   8.006
  145POPC   GL1 2224  11.038   0.882   7.716
  145POPC   GL2 2225  11.400   1.047   7.694
  145POPC   C1A 2226  10.849   0.898   7.301
  145POPC   D2A 2227  10.688   0.985   6.895
  145POPC   C3A 2228  11.008   0.840   6.604
  145POPC   C4A 2229  11.100   1.014   6.220
  145POPC   C1B 2230  11.310   1.077   7.254
  145POPC   C2B 2231  11.218   1.270   6.847
  145POPC   C3B 2232  11.279   1.453   6.433
  145POPC   C4B 2233  11.389   1.390   5.971
  146POPC   NC3 2234   5.091   0.116   7.907
  146POPC   PO4 2235   4.777   0.703   8.050
  146POPC   GL1 2236   4.755   0.633   7.624
  146POPC   GL2 2237   5.043   0.530   7.634
  146POPC   C1A 2238   4.696   0.285   7.361
  146POPC   D2A 2239   4.844   0.137   7.019
  146POPC   C3A 2240   4.838   0.358   6.650
  146POPC   C4A 2241   4.991   0.245   6.264
  146POPC   C1B 2242   5.225   0.390   7.288
  146POPC   C2B 2243   5.217   0.589   6.919
  146POPC   C3B 2244   5.367   0.503   6.559
  146POPC   C4B 2245   5.313   0.624   6.169
  147POPC   NC3 2246   5.212   7.681   8.537
  147POPC   PO4 2247   5.279   7.750   8.078
  147POPC   GL1 2248   5.178   7.826   7.613
  147POPC   GL2 2249   4.952   8.113   7.513
  147POPC   C1A 2250   5.250   7.914   7.154
  147POPC   D2A 2251   5.015   8.047   6.786
  147POPC   C3A 2252   5.223   8.121   6.393
  147POPC   C4A 2253   5.005   8.076   5.990
  147POPC   C1B 2254   5.029   8.418   7.150
  147POPC   C2B 2255   4.975   8.572   6.713
  147POPC   C3B 2256   4.927   8.528   6.277
  147POPC   C4B 2257   5.149   8.606   5.888
  148POPC   NC3 2258   0.774  11.182   8.173
  148POPC   PO4 2259   0.148  11.380   8.129
  148POPC   GL1 2260   0.205  11.484   7.690
  148POPC   GL2 2261   0.526  11.333   7.712
  148POPC   C1A 2262   0.211  11.244   7.263
  148POPC   D2A 2263   0.138  11.003   6.857
  148POPC   C3A 2264   0.245  11.219   6.487
  148POPC   C4A 2265   0.248  11.419   6.077
  148POPC   C1B 2266   0.585  10.936   7.435
  148POPC   C2B 2267   0.627  11.002   6.981
  148POPC   C3B 2268   0.618  10.826   6.565
  148POPC   C4B 2269   0.591  11.027   6.171
  149POPC   NC3 2270   0.843   5.542   7.690
  149POPC   PO4 2271   0.965   4.954   7.979
  149POPC   GL1 2272   1.061   5.100   7.602
  149POPC   GL2 2273   1.372   5.144   7.655
  149POPC   C1A 2274   1.136   5.197   7.179
  149POPC   D2A 2275   0.969   5.023   6.849
  149POPC   C3A 2276   0.928   5.373   6.654
  149POPC   C4A 2277   1.032   5.262   6.270
  149POPC   C1B 2278   1.517   4.896   7.335
  149POPC   C2B 2279   1.438   4.810   6.937
  149POPC   C3B 2280   1.403   5.063   6.579
  149POPC   C4B 2281   1.336   4.882   6.190
  150POPC   NC3 2282   1.078   4.231   8.018
  150POPC   PO4 2283   1.655   4.670   7.921
  150POPC   GL1 2284   1.259   4.621   7.692
  150POPC   GL2 2285   1.164   4.301   7.530
  150POPC   C1A 2286   1.046   4.705   7.275
  150POPC   D2A 2287   1.063   4.429   6.930
  150POPC   C3A 2288   1.276   4.513   6.549
  150POPC   C4A 2289   1.171   4.397   6.120
  150POPC   C1B 2290   0.863   4.098   7.281
  150POPC   C2B 2291   0.879   3.949   6.859
  150POPC   C3B 2292   0.813   4.161   6.453
  150POPC   C4B 2293   0.871   3.985   6.035
  151POPC   NC3 2294   0.430   0.964   7.930
  151POPC   PO4 2295   0.807   1.510   8.098
  151POPC   GL1 2296   0.690   1.389   7.716
  151POPC   GL2 2297   0.329   1.439   7.653
  151POPC   C1A 2298   0.769   1.338   7.300
  151POPC   D2A 2299   0.680   1.062   6.929
  151POPC   C3A 2300   0.597   1.252   6.541
  151POPC   C4A 2301   0.790   1.419   6.135
  151POPC   C1B 2302   0.306   1.142   7.291
  151POPC   C2B 2303   0.158   0.976   6.873
  151POPC   C3B 2304   0.095   1.019   6.429
  151POPC   C4B 2305   0.408   1.071   6.104
  152POPC   NC3 2306   0.406   1.810   8.027
  152POPC   PO4 2307   0.003   2.403   8.081
  152POPC   GL1 2308   0.038   2.252   7.634
  152POPC   GL2 2309   0.257   1.987   7.600
  152POPC   C1A 2310   0.310   2.307   7.234
  152POPC   D2A 2311   0.414   2.090   6.887
  152POPC   C3A 2312   0.537   2.250   6.528
  152POPC   C4A 2313   0.373   2.334   6.155
  152POPC   C1B 2314   0.556   1.809   7.320
  152POPC   C2B 2315   0.514   1.590   6.921
  152POPC   C3B 2316   0.646   1.752   6.508
  152POPC   C4B 2317   0.554   1.885   6.061
  153POPC   NC3 2318   9.484   6.284   8.054
  153POPC   PO4 2319   9.268   6.880   8.197
  153POPC   GL1 2320   9.490   6.743   7.776
  153POPC   GL2 2321   9.820   6.594   7.741
  153POPC   C1A 2322   9.537   6.574   7.306
  153POPC   D2A 2323   9.544   6.766   6.861
  153POPC   C3A 2324   9.479   6.553   6.441
  153POPC   C4A 2325   9.147   6.321   6.253
  153POPC   C1B 2326  10.046   6.432   7.388
  153POPC   C2B 2327   9.985   6.561   7.005
  153POPC   C3B 2328   9.942   6.437   6.616
  153POPC   C4B 2329  10.063   6.653   6.294
  154POPC   NC3 2330   2.615   8.779   8.032
  154POPC   PO4 2331   3.057   9.293   8.057
  154POPC   GL1 2332   2.755   9.168   7.698
  154POPC   GL2 2333   2.785   8.848   7.560
  154POPC   C1A 2334   2.539   9.140   7.258
  154POPC   D2A 2335   2.693   8.981   6.850
  154POPC   C3A 2336   2.562   9.169   6.442
  154POPC   C4A 2337   2.417   9.340   5.968
  154POPC   C1B 2338   2.610   8.606   7.213
  154POPC   C2B 2339   2.662   8.475   6.776
  154POPC   C3B 2340   2.703   8.671   6.393
  154POPC   C4B 2341   2.645   8.904   6.016
  155POPC   NC3 2342   0.216   7.348   8.151
  155POPC   PO4 2343  11.034   7.232   8.227
  155POPC   GL1 2344  11.293   7.204   7.824
  155POPC   GL2 2345  11.092   7.392   7.603
  155POPC   C1A 2346   0.009   7.230   7.372
  155POPC   D2A 2347  11.451   7.132   6.895
  155POPC   C3A 2348   0.001   7.493   6.591
  155POPC   C4A 2349  11.491   7.706   6.176
  155POPC   C1B 2350  11.035   7.119   7.209
  155POPC   C2B 2351  10.807   7.191   6.837
  155POPC   C3B 2352  10.975   7.323   6.454
  155POPC   C4B 2353  11.321   7.210   6.214
  156POPC   NC3 2354  10.165   4.300   8.020
  156POPC   PO4 2355  10.734   4.621   8.078
  156POPC   GL1 2356  10.526   4.432   7.673
  156POPC   GL2 2357  10.499   4.046   7.717
  156POPC   C1A 2358  10.267   4.508   7.267
  156POPC   D2A 2359  10.004   4.265   6.975
  156POPC   C3A 2360  10.127   4.407   6.568
  156POPC   C4A 2361  10.030   4.488   6.169
  156POPC   C1B 2362  10.522   4.079   7.281
  156POPC   C2B 2363  10.505   4.229   6.862
  156POPC   C3B 2364  10.678   3.991   6.505
  156POPC   C4B 2365  10.446   4.200   6.199
  157POPC   NC3 2366  10.323  11.243   8.078
  157POPC   PO4 2367   9.722  11.387   8.169
  157POPC   GL1 2368   9.938  11.166   7.774
  157POPC   GL2 2369  10.228  11.363   7.597
  157POPC   C1A 2370   9.957  11.012   7.340
  157POPC   D2A 2371  10.124  11.307   6.996
  157POPC   C3A 2372  10.133  11.149   6.560
  157POPC   C4A 2373  10.184  11.283   6.141
  157POPC   C1B 2374  10.469  11.083   7.336
  157POPC   C2B 2375  10.641  11.165   6.938
  157POPC   C3B 2376  10.825  11.263   6.564
  157POPC   C4B 2377  10.610  11.060   6.275
  158POPC   NC3 2378   1.342  11.090   8.055
  158POPC   PO4 2379   0.814   0.117   8.061
  158POPC   GL1 2380   1.116  11.433   7.750
  158POPC   GL2 2381   0.985  11.106   7.693
  158POPC   C1A 2382   1.350  11.229   7.369
  158POPC   D2A 2383   1.136  11.052   6.990
  158POPC   C3A 2384   1.293  11.110   6.602
  158POPC   C4A 2385   1.575  11.238   6.285
  158POPC   C1B 2386   0.846  11.358   7.311
  158POPC   C2B 2387   0.774   0.015   6.902
  158POPC   C3B 2388   0.832  11.298   6.518
  158POPC   C4B 2389   1.085  11.073   6.149
  159POPC   NC3 2390   0.224   9.665   8.059
  159POPC   PO4 2391   0.795   9.320   8.177
  159POPC   GL1 2392   0.503   9.329   7.817
  159POPC   GL2 2393   0.544   9.678   7.679
  159POPC   C1A 2394   0.352   9.320   7.377
  159POPC   D2A 2395   0.683   9.395   7.059
  159POPC   C3A 2396   0.846   9.377   6.641
  159POPC   C4A 2397   0.826   9.254   6.225
  159POPC   C1B 2398   0.212   9.804   7.366
  159POPC   C2B 2399   0.213   9.577   6.943
  159POPC   C3B 2400   0.453   9.691   6.565
  159POPC   C4B 2401   0.400   9.994   6.233
  160POPC   NC3 2402   9.810   5.727   8.014
  160POPC   PO4 2403   9.159   5.969   7.972
  160POPC   GL1 2404   9.519   5.944   7.649
  160POPC   GL2 2405   9.741   5.656   7.536
  160POPC   C1A 2406   9.669   6.055   7.233
  160POPC   D2A 2407   9.532   6.250   6.868
  160POPC   C3A 2408   9.533   6.029   6.478
  160POPC   C4A 2409   9.324   5.721   6.210
  160POPC   C1B 2410   9.886   5.474   7.189
  160POPC   C2B 2411   9.773   5.689   6.841
  160POPC   C3B 2412   9.749   5.543   6.450
  160POPC   C4B 2413   9.844   5.807   6.130
  161POPC   NC3 2414   6.145  10.145   8.053
  161POPC   PO4 2415   5.947  10.729   8.128
  161POPC   GL1 2416   6.063  10.566   7.737
  161POPC   GL2 2417   5.803  10.832   7.613
  161POPC   C1A 2418   6.068  10.180   7.431
  161POPC   D2A 2419   6.078  10.369   7.049
  161POPC   C3A 2420   6.140  10.183   6.698
  161POPC   C4A 2421   5.972  10.305   6.355
  161POPC   C1B 2422   5.676  10.494   7.392
  161POPC   C2B 2423   5.563  10.304   7.030
  161POPC   C3B 2424   5.579  10.438   6.653
  161POPC   C4B 2425   5.486  10.295   6.270
  162POPC   NC3 2426   4.342   2.280   8.042
  162POPC   PO4 2427   4.537   1.673   8.081
  162POPC   GL1 2428   4.383   1.590   7.676
  162POPC   GL2 2429   4.179   1.893   7.691
  162POPC   C1A 2430   4.363   1.769   7.230
  162POPC   D2A 2431   4.282   1.887   6.809
  162POPC   C3A 2432   4.553   2.035   6.459
  162POPC   C4A 2433   4.423   1.926   6.036
  162POPC   C1B 2434   4.149   2.223   7.368
  162POPC   C2B 2435   4.022   2.313   6.955
  162POPC   C3B 2436   4.121   2.314   6.536
  162POPC   C4B 2437   4.010   2.190   6.152
  163POPC   NC3 2438   8.918   5.590   8.047
  163POPC   PO4 2439   9.473   5.430   8.087
  163POPC   GL1 2440   9.295   5.455   7.664
  163POPC   GL2 2441   9.058   5.713   7.549
  163POPC   C1A 2442   9.376   5.563   7.189
  163POPC   D2A 2443   9.280   5.638   6.726
  163POPC   C3A 2444   8.934   5.491   6.424
  163POPC   C4A 2445   8.938   5.471   5.948
  163POPC   C1B 2446   9.154   6.025   7.194
  163POPC   C2B 2447   9.056   6.094   6.733
  163POPC   C3B 2448   8.791   5.997   6.374
  163POPC   C4B 2449   8.675   6.302   6.033
  164POPC   NC3 2450   7.810   2.974   7.932
  164POPC   PO4 2451   8.175   2.491   8.077
  164POPC   GL1 2452   7.950   2.353   7.692
  164POPC   GL2 2453   7.842   2.639   7.568
  164POPC   C1A 2454   7.951   2.330   7.195
  164POPC   D2A 2455   7.963   2.670   6.821
  164POPC   C3A 2456   8.081   2.655   6.362
  164POPC   C4A 2457   7.986   2.360   6.064
  164POPC   C1B 2458   8.162   2.815   7.282
  164POPC   C2B 2459   8.411   2.963   6.885
  164POPC   C3B 2460   8.293   3.115   6.445
  164POPC   C4B 2461   8.286   3.103   5.953
  165POPC   NC3 2462   1.160   0.411   7.984
  165POPC   PO4 2463   1.592   0.900   7.993
  165POPC   GL1 2464   1.499   0.669   7.588
  165POPC   GL2 2465   1.136   0.641   7.533
  165POPC   C1A 2466   1.422   0.608   7.104
  165POPC   D2A 2467   1.003   0.490   6.888
  165POPC   C3A 2468   1.102   0.579   6.457
  165POPC   C4A 2469   1.520   0.598   6.472
  165POPC   C1B 2470   1.207   0.223   7.328
  165POPC   C2B 2471   1.300   0.044   6.907
  165POPC   C3B 2472   1.265   0.108   6.468
  165POPC   C4B 2473   0.870   0.201   6.214
  166POPC   NC3 2474   9.536   2.821   8.146
  166POPC   PO4 2475  10.111   2.502   8.337
  166POPC   GL1 2476   9.971   2.715   7.887
  166POPC   GL2 2477   9.663   2.506   7.752
  166POPC   C1A 2478   9.829   2.840   7.427
  166POPC   D2A 2479   9.851   2.599   7.036
  166POPC   C3A 2480  10.113   2.771   6.707
  166POPC   C4A 2481   9.973   2.686   6.280
  166POPC   C1B 2482   9.492   2.336   7.342
  166POPC   C2B 2483   9.350   2.483   6.928
  166POPC   C3B 2484   9.462   2.824   6.707
  166POPC   C4B 2485   9.479   2.828   6.263
  167POPC   NC3 2486  10.451   8.459   7.841
  167POPC   PO4 2487  10.045   8.841   8.303
  167POPC   GL1 2488  10.124   8.930   7.800
  167POPC   GL2 2489  10.257   9.261   7.729
  167POPC   C1A 2490  10.190   8.756   7.325
  167POPC   D2A 2491  10.404   8.597   6.925
  167POPC   C3A 2492  10.298   8.810   6.528
  167POPC   C4A 2493  10.386   8.670   6.108
  167POPC   C1B 2494  10.074   9.255   7.320
  167POPC   C2B 2495  10.287   9.126   6.951
  167POPC   C3B 2496  10.637   9.178   6.679
  167POPC   C4B 2497  10.608   9.162   6.227
  168POPC   NC3 2498   1.602   1.184   3.950
  168POPC   PO4 2499   0.961   0.947   3.943
  168POPC   GL1 2500   1.182   1.183   4.225
  168POPC   GL2 2501   0.997   1.420   4.407
  168POPC   C1A 2502   1.428   1.141   4.602
  168POPC   D2A 2503   1.334   1.190   5.062
  168POPC   C3A 2504   1.643   1.368   5.365
  168POPC   C4A 2505   1.640   0.964   5.623
  168POPC   C1B 2506   0.914   1.023   4.644
  168POPC   C2B 2507   0.917   0.857   5.081
  168POPC   C3B 2508   1.140   0.887   5.473
  168POPC   C4B 2509   1.214   1.333   5.629
  169POPC   NC3 2510  10.864   3.425   3.829
  169POPC   PO4 2511  10.193   3.432   3.798
  169POPC   GL1 2512  10.194   3.671   4.196
  169POPC   GL2 2513  10.557   3.692   4.244
  169POPC   C1A 2514  10.102   3.510   4.624
  169POPC   D2A 2515  10.214   3.221   4.990
  169POPC   C3A 2516   9.972   3.222   5.381
  169POPC   C4A 2517  10.149   3.342   5.772
  169POPC   C1B 2518  10.580   3.578   4.711
  169POPC   C2B 2519  10.391   3.700   5.138
  169POPC   C3B 2520  10.421   3.753   5.616
  169POPC   C4B 2521  10.716   3.839   5.979
  170POPC   NC3 2522   9.711   5.706   3.705
  170POPC   PO4 2523   9.323   5.339   3.923
  170POPC   GL1 2524   9.640   5.443   4.195
  170POPC   GL2 2525   9.675   5.793   4.235
  170POPC   C1A 2526   9.664   5.440   4.624
  170POPC   D2A 2527   9.444   5.453   4.992
  170POPC   C3A 2528   9.652   5.629   5.335
  170POPC   C4A 2529   9.556   5.636   5.760
  170POPC   C1B 2530   9.867   5.917   4.683
  170POPC   C2B 2531   9.854   6.059   5.141
  170POPC   C3B 2532   9.579   6.201   5.496
  170POPC   C4B 2533   9.500   6.119   5.937
  171POPC   NC3 2534   3.749  10.265   3.976
  171POPC   PO4 2535   3.891  10.819   4.017
  171POPC   GL1 2536   3.709  10.637   4.333
  171POPC   GL2 2537   3.356  10.591   4.224
  171POPC   C1A 2538   3.880  10.616   4.741
  171POPC   D2A 2539   3.906  10.804   5.133
  171POPC   C3A 2540   3.846  10.500   5.486
  171POPC   C4A 2541   3.767  10.313   5.911
  171POPC   C1B 2542   3.394  10.384   4.662
  171POPC   C2B 2543   3.462  10.529   5.100
  171POPC   C3B 2544   3.331  10.368   5.510
  171POPC   C4B 2545   3.358  10.024   5.769
  172POPC   NC3 2546  10.504   2.101   4.045
  172POPC   PO4 2547   9.873   1.944   4.085
  172POPC   GL1 2548  10.098   2.178   4.379
  172POPC   GL2 2549  10.292   1.891   4.465
  172POPC   C1A 2550  10.324   2.274   4.784
  172POPC   D2A 2551  10.389   2.033   5.160
  172POPC   C3A 2552  10.306   2.327   5.497
  172POPC   C4A 2553  10.426   2.325   5.927
  172POPC   C1B 2554  10.569   1.615   4.711
  172POPC   C2B 2555  10.563   1.450   5.120
  172POPC   C3B 2556  10.536   1.597   5.546
  172POPC   C4B 2557  10.225   1.881   5.737
  173POPC   NC3 2558  10.152  11.190   3.904
  173POPC   PO4 2559  10.681  10.678   3.812
  173POPC   GL1 2560  10.501  10.916   4.223
  173POPC   GL2 2561  10.399  11.277   4.341
  173POPC   C1A 2562  10.398  10.931   4.698
  173POPC   D2A 2563  10.126  10.794   5.035
  173POPC   C3A 2564  10.374  10.782   5.411
  173POPC   C4A 2565  10.569  10.915   5.787
  173POPC   C1B 2566  10.217  11.457   4.723
  173POPC   C2B 2567  10.038  11.366   5.139
  173POPC   C3B 2568  10.149   0.119   5.494
  173POPC   C4B 2569  10.462  11.432   5.744
  174POPC   NC3 2570   6.419  11.369   3.889
  174POPC   PO4 2571   7.090  11.439   4.004
  174POPC   GL1 2572   6.768  11.285   4.250
  174POPC   GL2 2573   6.764  10.933   4.313
  174POPC   C1A 2574   6.504  11.327   4.595
  174POPC   D2A 2575   6.614  11.307   5.044
  174POPC   C3A 2576   6.364  11.496   5.367
  174POPC   C4A 2577   6.224  11.379   5.782
  174POPC   C1B 2578   6.608  10.859   4.753
  174POPC   C2B 2579   6.297  10.881   5.106
  174POPC   C3B 2580   6.465  10.940   5.515
  174POPC   C4B 2581   6.870  10.869   5.710
  175POPC   NC3 2582   2.958   9.655   4.009
  175POPC   PO4 2583   3.562   9.916   3.734
  175POPC   GL1 2584   3.695   9.811   4.203
  175POPC   GL2 2585   3.702   9.456   4.192
  175POPC   C1A 2586   3.743   9.975   4.661
  175POPC   D2A 2587   3.542  10.006   5.098
  175POPC   C3A 2588   3.799   9.954   5.491
  175POPC   C4A 2589   3.794   9.806   5.930
  175POPC   C1B 2590   3.442   9.532   4.588
  175POPC   C2B 2591   3.387   9.501   5.057
  175POPC   C3B 2592   3.451   9.574   5.507
  175POPC   C4B 2593   3.375   9.537   5.972
  176POPC   NC3 2594  10.541   7.977   3.881
  176POPC   PO4 2595  10.708   8.604   3.967
  176POPC   GL1 2596  10.459   8.424   4.320
  176POPC   GL2 2597  10.462   8.058   4.378
  176POPC   C1A 2598  10.406   8.328   4.782
  176POPC   D2A 2599  10.668   8.121   5.089
  176POPC   C3A 2600  10.496   8.354   5.386
  176POPC   C4A 2601  10.201   8.474   5.648
  176POPC   C1B 2602  10.383   7.806   4.770
  176POPC   C2B 2603  10.198   7.924   5.150
  176POPC   C3B 2604  10.246   7.947   5.578
  176POPC   C4B 2605  10.197   7.693   5.976
  177POPC   NC3 2606   9.578   2.245   4.274
  177POPC   PO4 2607   9.589   2.895   3.959
  177POPC   GL1 2608   9.584   2.754   4.317
  177POPC   GL2 2609   9.913   2.649   4.290
  177POPC   C1A 2610   9.440   2.786   4.720
  177POPC   D2A 2611   9.354   3.023   5.060
  177POPC   C3A 2612   9.497   2.919   5.418
  177POPC   C4A 2613   9.299   2.934   5.777
  177POPC   C1B 2614   9.897   2.550   4.725
  177POPC   C2B 2615   9.875   2.813   5.054
  177POPC   C3B 2616   9.953   2.696   5.449
  177POPC   C4B 2617   9.727   2.651   5.832
  178POPC   NC3 2618  10.825   0.410   3.734
  178POPC   PO4 2619  11.284   0.182   4.149
  178POPC   GL1 2620  11.300   0.559   4.401
  178POPC   GL2 2621   0.145   0.611   4.301
  178POPC   C1A 2622  11.035   0.557   4.812
  178POPC   D2A 2623  10.958   0.184   5.098
  178POPC   C3A 2624  11.079   0.264   5.546
  178POPC   C4A 2625  11.051   0.677   5.745
  178POPC   C1B 2626   0.173   0.378   4.695
  178POPC   C2B 2627  11.468   0.461   5.060
  178POPC   C3B 2628   0.050   0.480   5.464
  178POPC   C4B 2629   0.003   0.317   5.850
  179POPC   NC3 2630   6.660   9.544   3.849
  179POPC   PO4 2631   6.183   9.924   3.792
  179POPC   GL1 2632   6.387   9.891   4.208
  179POPC   GL2 2633   6.617   9.645   4.359
  179POPC   C1A 2634   6.371  10.014   4.655
  179POPC   D2A 2635   6.406   9.790   5.034
  179POPC   C3A 2636   6.259   9.855   5.450
  179POPC   C4A 2637   6.383   9.610   5.824
  179POPC   C1B 2638   6.844   9.843   4.733
  179POPC   C2B 2639   6.848  10.021   5.152
  179POPC   C3B 2640   6.768   9.815   5.539
  179POPC   C4B 2641   6.750   9.929   5.970
  180POPC   NC3 2642   9.228   8.914   3.834
  180POPC   PO4 2643   9.888   8.925   3.863
  180POPC   GL1 2644   9.576   9.075   4.200
  180POPC   GL2 2645   9.343   8.800   4.313
  180POPC   C1A 2646   9.565   9.305   4.602
  180POPC   D2A 2647   9.783   9.183   4.987
  180POPC   C3A 2648   9.616   9.228   5.398
  180POPC   C4A 2649   9.679   9.129   5.818
  180POPC   C1B 2650   9.452   8.835   4.738
  180POPC   C2B 2651   9.317   8.864   5.152
  180POPC   C3B 2652   9.368   8.792   5.586
  180POPC   C4B 2653   9.745   8.618   5.732
  181POPC   NC3 2654  11.215   8.406   4.035
  181POPC   PO4 2655  10.948   7.854   3.722
  181POPC   GL1 2656  10.959   7.963   4.175
  181POPC   GL2 2657  11.279   7.892   4.180
  181POPC   C1A 2658  10.928   8.142   4.628
  181POPC   D2A 2659  11.180   8.196   5.045
  181POPC   C3A 2660  10.987   8.325   5.470
  181POPC   C4A 2661  10.724   8.348   5.853
  181POPC   C1B 2662  11.319   7.770   4.615
  181POPC   C2B 2663  11.101   7.635   4.999
  181POPC   C3B 2664  11.031   7.820   5.416
  181POPC   C4B 2665  11.398   7.926   5.698
  182POPC   NC3 2666   5.720  10.904   3.927
  182POPC   PO4 2667   6.410  10.932   3.661
  182POPC   GL1 2668   6.228  10.924   4.124
  182POPC   GL2 2669   6.022  11.252   4.200
  182POPC   C1A 2670   6.140  10.968   4.593
  182POPC   D2A 2671   6.092  11.327   4.923
  182POPC   C3A 2672   5.946  11.208   5.354
  182POPC   C4A 2673   5.995  10.923   5.703
  182POPC   C1B 2674   5.716  11.247   4.574
  182POPC   C2B 2675   5.558  11.293   5.014
  182POPC   C3B 2676   5.477  11.418   5.455
  182POPC   C4B 2677   5.703  11.345   5.845
  183POPC   NC3 2678   1.122   8.044   3.768
  183POPC   PO4 2679   1.650   8.399   3.943
  183POPC   GL1 2680   1.396   8.311   4.268
  183POPC   GL2 2681   1.106   8.144   4.280
  183POPC   C1A 2682   1.463   8.112   4.659
  183POPC   D2A 2683   1.275   8.172   5.073
  183POPC   C3A 2684   1.351   7.939   5.438
  183POPC   C4A 2685   1.494   8.160   5.812
  183POPC   C1B 2686   0.960   8.003   4.707
  183POPC   C2B 2687   0.767   8.165   5.113
  183POPC   C3B 2688   0.905   8.163   5.516
  183POPC   C4B 2689   1.021   7.918   5.876
  184POPC   NC3 2690  11.001  10.957   4.030
  184POPC   PO4 2691  10.632   0.040   3.976
  184POPC   GL1 2692  10.908  11.358   4.330
  184POPC   GL2 2693  11.272  11.230   4.369
  184POPC   C1A 2694  10.834  11.225   4.738
  184POPC   D2A 2695  10.570  11.279   5.113
  184POPC   C3A 2696  10.867  11.304   5.454
  184POPC   C4A 2697  10.923  11.269   5.905
  184POPC   C1B 2698  11.329  11.442   4.792
  184POPC   C2B 2699  11.421  11.486   5.240
  184POPC   C3B 2700  11.385  11.352   5.657
  184POPC   C4B 2701  11.388  11.056   5.964
  185POPC   NC3 2702   1.942  11.192   4.019
  185POPC   PO4 2703   2.419  10.814   3.972
  185POPC   GL1 2704   2.241  10.850   4.340
  185POPC   GL2 2705   2.152  11.191   4.485
  185POPC   C1A 2706   2.406  10.821   4.745
  185POPC   D2A 2707   2.241  11.115   5.009
  185POPC   C3A 2708   2.125  10.973   5.382
  185POPC   C4A 2709   2.197  11.104   5.747
  185POPC   C1B 2710   1.790  11.076   4.698
  185POPC   C2B 2711   1.637  11.092   5.089
  185POPC   C3B 2712   1.637  11.047   5.488
  185POPC   C4B 2713   1.734  11.323   5.799
  186POPC   NC3 2714   3.616   2.891   3.854
  186POPC   PO4 2715   3.020   3.159   4.036
  186POPC   GL1 2716   3.345   2.947   4.320
  186POPC   GL2 2717   3.380   2.582   4.257
  186POPC   C1A 2718   3.381   2.776   4.769
  186POPC   D2A 2719   3.237   2.804   5.221
  186POPC   C3A 2720   3.575   2.811   5.561
  186POPC   C4A 2721   3.791   2.972   5.969
  186POPC   C1B 2722   3.118   2.372   4.615
  186POPC   C2B 2723   3.234   2.278   5.069
  186POPC   C3B 2724   3.221   2.401   5.554
  186POPC   C4B 2725   3.135   2.374   6.047
  187POPC   NC3 2726   9.702   1.522   4.186
  187POPC   PO4 2727   9.298   2.138   3.938
  187POPC   GL1 2728   9.158   1.955   4.363
  187POPC   GL2 2729   9.483   1.820   4.534
  187POPC   C1A 2730   9.063   1.799   4.817
  187POPC   D2A 2731   9.459   1.825   5.089
  187POPC   C3A 2732   9.559   1.729   5.529
  187POPC   C4A 2733   9.492   1.882   5.945
  187POPC   C1B 2734   9.870   1.967   4.799
  187POPC   C2B 2735   9.911   2.238   5.169
  187POPC   C3B 2736   9.812   2.186   5.625
  187POPC   C4B 2737   9.904   2.210   6.076
  188POPC   NC3 2738   2.718   7.275   3.852
  188POPC   PO4 2739   3.042   6.879   3.835
  188POPC   GL1 2740   2.921   7.125   4.304
  188POPC   GL2 2741   2.607   7.344   4.349
  188POPC   C1A 2742   2.899   7.277   4.785
  188POPC   D2A 2743   2.817   7.094   5.224
  188POPC   C3A 2744   2.904   7.300   5.646
  188POPC   C4A 2745   2.970   7.236   6.089
  188POPC   C1B 2746   2.480   7.025   4.659
  188POPC   C2B 2747   2.293   7.093   5.081
  188POPC   C3B 2748   2.413   7.242   5.506
  188POPC   C4B 2749   2.452   7.388   5.965
  189POPC   NC3 2750   8.487  11.282   4.129
  189POPC   PO4 2751   8.352  10.703   3.740
  189POPC   GL1 2752   8.307  10.798   4.190
  189POPC   GL2 2753   8.058  11.018   4.256
  189POPC   C1A 2754   8.350  10.927   4.653
  189POPC   D2A 2755   8.139  11.216   4.933
  189POPC   C3A 2756   8.090  11.106   5.354
  189POPC   C4A 2757   8.342  11.080   5.724
  189POPC   C1B 2758   7.825  11.292   4.519
  189POPC   C2B 2759   7.628  11.299   4.904
  189POPC   C3B 2760   7.584  11.271   5.329
  189POPC   C4B 2761   7.775  11.293   5.720
  190POPC   NC3 2762   5.720   0.171   3.585
  190POPC   PO4 2763   5.274   0.459   3.950
  190POPC   GL1 2764   4.993   0.432   4.327
  190POPC   GL2 2765   4.901   0.087   4.477
  190POPC   C1A 2766   5.114   0.492   4.764
  190POPC   D2A 2767   5.283   0.228   5.055
  190POPC   C3A 2768   5.311   0.423   5.421
  190POPC   C4A 2769   5.083   0.432   5.780
  190POPC   C1B 2770   4.644   0.304   4.719
  190POPC   C2B 2771   4.655   0.539   5.039
  190POPC   C3B 2772   4.726   0.504   5.418
  190POPC   C4B 2773   4.705   0.770   5.750
  191POPC   NC3 2774   4.775   1.770   3.908
  191POPC   PO4 2775   4.795   2.449   3.940
  191POPC   GL1 2776   4.892   2.207   4.308
  191POPC   GL2 2777   5.028   1.868   4.340
  191POPC   C1A 2778   4.723   2.169   4.739
  191POPC   D2A 2779   4.520   2.147   5.150
  191POPC   C3A 2780   4.823   2.249   5.484
  191POPC   C4A 2781   4.848   2.156   5.920
  191POPC   C1B 2782   4.858   1.674   4.732
  191POPC   C2B 2783   4.918   1.828   5.164
  191POPC   C3B 2784   5.088   1.811   5.621
  191POPC   C4B 2785   5.274   1.914   6.051
  192POPC   NC3 2786   4.170   0.210   3.840
  192POPC   PO4 2787   4.681  11.432   4.033
  192POPC   GL1 2788   4.388   0.209   4.311
  192POPC   GL2 2789   4.189   0.518   4.288
  192POPC   C1A 2790   4.147   0.165   4.722
  192POPC   D2A 2791   4.394   0.059   5.099
  192POPC   C3A 2792   4.328   0.171   5.506
  192POPC   C4A 2793   4.629   0.209   5.823
  192POPC   C1B 2794   4.273   0.667   4.725
  192POPC   C2B 2795   4.155   0.534   5.150
  192POPC   C3B 2796   4.237   0.685   5.561
  192POPC   C4B 2797   4.268   0.877   5.980
  193POPC   NC3 2798   1.385   2.160   3.954
  193POPC   PO4 2799   1.672   1.645   3.951
  193POPC   GL1 2800   1.508   1.598   4.340
  193POPC   GL2 2801   1.261   1.877   4.355
  193POPC   C1A 2802   1.340   1.605   4.764
  193POPC   D2A 2803   1.064   1.654   5.114
  193POPC   C3A 2804   1.264   1.918   5.390
  193POPC   C4A 2805   1.432   1.776   5.761
  193POPC   C1B 2806   0.907   1.888   4.667
  193POPC   C2B 2807   0.778   2.106   5.056
  193POPC   C3B 2808   0.957   2.363   5.353
  193POPC   C4B 2809   1.157   2.241   5.766
  194POPC   NC3 2810   5.819   0.497   4.067
  194POPC   PO4 2811   5.591  11.390   3.937
  194POPC   GL1 2812   5.515   0.167   4.354
  194POPC   GL2 2813   5.488   0.544   4.433
  194POPC   C1A 2814   5.722   0.239   4.782
  194POPC   D2A 2815   6.000   0.297   5.147
  194POPC   C3A 2816   5.898   0.224   5.554
  194POPC   C4A 2817   5.598   0.360   5.830
  194POPC   C1B 2818   5.880   0.721   4.649
  194POPC   C2B 2819   6.164   0.739   4.954
  194POPC   C3B 2820   6.089   0.883   5.391
  194POPC   C4B 2821   5.938   0.730   5.792
  195POPC   NC3 2822   3.984   9.699   3.797
  195POPC   PO4 2823   4.622   9.466   4.053
  195POPC   GL1 2824   4.212   9.544   4.206
  195POPC   GL2 2825   4.211   9.850   4.336
  195POPC   C1A 2826   3.970   9.515   4.615
  195POPC   D2A 2827   3.984   9.644   5.040
  195POPC   C3A 2828   4.218   9.362   5.340
  195POPC   C4A 2829   3.945   9.432   5.640
  195POPC   C1B 2830   4.447   9.721   4.728
  195POPC   C2B 2831   4.463   9.766   5.194
  195POPC   C3B 2832   4.497   9.765   5.652
  195POPC   C4B 2833   4.708  10.170   5.783
  196POPC   NC3 2834   2.978   1.813   4.005
  196POPC   PO4 2835   2.479   1.504   3.655
  196POPC   GL1 2836   2.434   1.831   4.138
  196POPC   GL2 2837   2.468   2.135   4.230
  196POPC   C1A 2838   2.283   1.768   4.590
  196POPC   D2A 2839   2.560   1.608   4.929
  196POPC   C3A 2840   2.529   1.760   5.373
  196POPC   C4A 2841   2.734   1.670   5.781
  196POPC   C1B 2842   2.728   2.007   4.580
  196POPC   C2B 2843   2.607   2.120   4.974
  196POPC   C3B 2844   2.828   2.153   5.346
  196POPC   C4B 2845   2.740   2.191   5.769
  197POPC   NC3 2846   7.574  11.418   3.867
  197POPC   PO4 2847   7.242   0.527   3.690
  197POPC   GL1 2848   7.419   0.496   4.162
  197POPC   GL2 2849   7.657   0.230   4.239
  197POPC   C1A 2850   7.229   0.596   4.611
  197POPC   D2A 2851   7.382   0.839   4.973
  197POPC   C3A 2852   7.299   0.726   5.405
  197POPC   C4A 2853   7.025   0.490   5.676
  197POPC   C1B 2854   7.406   0.121   4.577
  197POPC   C2B 2855   7.473   0.286   4.985
  197POPC   C3B 2856   7.371   0.219   5.395
  197POPC   C4B 2857   7.462   0.236   5.819
  198POPC   NC3 2858   1.112   7.521   3.682
  198POPC   PO4 2859   1.536   6.976   3.896
  198POPC   GL1 2860   1.351   7.324   4.166
  198POPC   GL2 2861   1.197   7.141   4.433
  198POPC   C1A 2862   1.416   7.590   4.557
  198POPC   D2A 2863   1.268   7.654   4.997
  198POPC   C3A 2864   1.477   7.396   5.330
  198POPC   C4A 2865   1.484   7.054   5.677
  198POPC   C1B 2866   0.905   7.471   4.636
  198POPC   C2B 2867   0.720   7.651   5.020
  198POPC   C3B 2868   0.902   7.669   5.430
  198POPC   C4B 2869   1.206   7.477   5.738
  199POPC   NC3 2870   0.826   3.695   3.951
  199POPC   PO4 2871   0.533   3.057   3.889
  199POPC   GL1 2872   0.556   3.336   4.243
  199POPC   GL2 2873   0.642   3.680   4.425
  199POPC   C1A 2874   0.454   3.254   4.656
  199POPC   D2A 2875   0.646   3.525   4.930
  199POPC   C3A 2876   0.629   3.378   5.337
  199POPC   C4A 2877   0.417   3.177   5.658
  199POPC   C1B 2878   0.238   3.715   4.646
  199POPC   C2B 2879   0.140   3.504   5.049
  199POPC   C3B 2880   0.218   3.613   5.491
  199POPC   C4B 2881   0.070   3.767   5.836
  200POPC   NC3 2882  10.465   5.791   4.002
  200POPC   PO4 2883  10.004   5.279   3.883
  200POPC   GL1 2884  10.153   5.509   4.277
  200POPC   GL2 2885  10.541   5.520   4.411
  200POPC   C1A 2886  10.159   5.391   4.699
  200POPC   D2A 2887  10.093   5.621   5.053
  200POPC   C3A 2888  10.152   5.529   5.484
  200POPC   C4A 2889   9.974   5.920   5.654
  200POPC   C1B 2890  10.425   5.840   4.722
  200POPC   C2B 2891  10.380   6.018   5.162
  200POPC   C3B 2892  10.478   5.924   5.581
  200POPC   C4B 2893  10.726   6.145   5.864
  201POPC   NC3 2894   8.952   5.600   3.786
  201POPC   PO4 2895   8.471   5.829   4.103
  201POPC   GL1 2896   8.812   5.561   4.314
  201POPC   GL2 2897   9.169   5.582   4.330
  201POPC   C1A 2898   8.942   5.616   4.787
  201POPC   D2A 2899   8.824   5.922   5.136
  201POPC   C3A 2900   8.673   5.759   5.556
  201POPC   C4A 2901   8.523   5.796   5.995
  201POPC   C1B 2902   9.349   5.883   4.619
  201POPC   C2B 2903   9.355   5.972   5.062
  201POPC   C3B 2904   9.193   5.851   5.479
  201POPC   C4B 2905   9.018   5.976   5.873
  202POPC   NC3 2906   6.023   1.483   3.961
  202POPC   PO4 2907   5.690   0.923   3.983
  202POPC   GL1 2908   5.528   1.053   4.365
  202POPC   GL2 2909   5.573   1.381   4.276
  202POPC   C1A 2910   5.445   0.931   4.801
  202POPC   D2A 2911   5.654   0.706   5.143
  202POPC   C3A 2912   5.578   0.960   5.516
  202POPC   C4A 2913   5.382   1.380   5.587
  202POPC   C1B 2914   5.958   1.238   4.548
  202POPC   C2B 2915   5.937   1.184   4.976
  202POPC   C3B 2916   5.848   1.385   5.343
  202POPC   C4B 2917   5.946   1.250   5.757
  203POPC   NC3 2918   7.021   1.415   3.959
  203POPC   PO4 2919   6.943   2.119   3.906
  203POPC   GL1 2920   7.292   1.949   4.197
  203POPC   GL2 2921   7.548   2.180   4.310
  203POPC   C1A 2922   7.471   1.804   4.625
  203POPC   D2A 2923   7.338   1.671   5.050
  203POPC   C3A 2924   7.323   1.722   5.474
  203POPC   C4A 2925   7.006   1.836   5.723
  203POPC   C1B 2926   7.659   2.277   4.757
  203POPC   C2B 2927   7.512   2.160   5.179
  203POPC   C3B 2928   7.322   2.228   5.590
  203POPC   C4B 2929   7.417   2.343   6.008
  204POPC   NC3 2930   8.006   1.479   3.803
  204POPC   PO4 2931   7.918   0.816   3.864
  204POPC   GL1 2932   8.245   0.976   4.133
  204POPC   GL2 2933   7.992   1.203   4.241
  204POPC   C1A 2934   8.432   1.114   4.544
  204POPC   D2A 2935   8.449   0.936   4.982
  204POPC   C3A 2936   8.483   1.155   5.355
  204POPC   C4A 2937   8.368   1.112   5.759
  204POPC   C1B 2938   7.949   1.197   4.677
  204POPC   C2B 2939   8.150   1.383   5.037
  204POPC   C3B 2940   8.035   1.380   5.477
  204POPC   C4B 2941   8.118   1.573   5.852
  205POPC   NC3 2942   8.752   9.293   3.807
  205POPC   PO4 2943   8.843   8.646   3.852
  205POPC   GL1 2944   8.870   8.977   4.204
  205POPC   GL2 2945   8.631   8.963   4.476
  205POPC   C1A 2946   9.069   9.159   4.608
  205POPC   D2A 2947   8.850   9.039   4.992
  205POPC   C3A 2948   8.954   9.081   5.443
  205POPC   C4A 2949   8.662   8.996   5.751
  205POPC   C1B 2950   8.951   8.662   4.655
  205POPC   C2B 2951   8.926   8.533   5.108
  205POPC   C3B 2952   8.915   8.555   5.586
  205POPC   C4B 2953   8.906   8.670   6.036
  206POPC   NC3 2954   4.896  11.131   3.759
  206POPC   PO4 2955   4.223  11.261   3.740
  206POPC   GL1 2956   4.241  11.240   4.216
  206POPC   GL2 2957   4.057  11.023   4.429
  206POPC   C1A 2958   4.463  11.270   4.619
  206POPC   D2A 2959   4.305  11.084   4.962
  206POPC   C3A 2960   4.615  11.091   5.278
  206POPC   C4A 2961   4.639  11.204   5.691
  206POPC   C1B 2962   3.823  11.231   4.725
  206POPC   C2B 2963   3.884  11.393   5.130
  206POPC   C3B 2964   4.118  11.199   5.451
  206POPC   C4B 2965   4.009  10.924   5.784
  207POPC   NC3 2966   0.538  10.805   3.881
  207POPC   PO4 2967   0.729  11.490   4.008
  207POPC   GL1 2968   0.629  11.151   4.247
  207POPC   GL2 2969   0.271  11.120   4.179
  207POPC   C1A 2970   0.729  11.041   4.682
  207POPC   D2A 2971   0.928  11.298   5.004
  207POPC   C3A 2972   0.750  11.187   5.417
  207POPC   C4A 2973   0.789  11.356   5.823
  207POPC   C1B 2974   0.244  11.191   4.609
  207POPC   C2B 2975   0.305  10.975   4.987
  207POPC   C3B 2976   0.241  11.099   5.373
  207POPC   C4B 2977   0.341  11.053   5.743
  208POPC   NC3 2978   8.731  10.493   3.933
  208POPC   PO4 2979   9.335  10.534   3.723
  208POPC   GL1 2980   9.143  10.580   4.262
  208POPC   GL2 2981   8.946  10.348   4.387
  208POPC   C1A 2982   8.797  10.673   4.702
  208POPC   D2A 2983   8.534  10.757   5.093
  208POPC   C3A 2984   8.720  10.766   5.513
  208POPC   C4A 2985   9.110  10.526   5.620
  208POPC   C1B 2986   9.233  10.416   4.733
  208POPC   C2B 2987   9.016  10.461   5.118
  208POPC   C3B 2988   8.655  10.307   5.317
  208POPC   C4B 2989   8.577  10.245   5.737
  209POPC   NC3 2990   5.129   0.012   4.045
  209POPC   PO4 2991   5.317  10.967   3.703
  209POPC   GL1 2992   5.213  11.022   4.182
  209POPC   GL2 2993   4.837  11.032   4.319
  209POPC   C1A 2994   5.199  11.213   4.643
  209POPC   D2A 2995   4.882  11.404   4.964
  209POPC   C3A 2996   4.957   0.016   5.428
  209POPC   C4A 2997   5.135  11.431   5.872
  209POPC   C1B 2998   4.808  10.905   4.796
  209POPC   C2B 2999   5.044  10.807   5.190
  209POPC   C3B 3000   5.191  10.984   5.610
  209POPC   C4B 3001   4.945  10.979   6.031
  210POPC   NC3 3002   0.585  10.208   3.709
  210POPC   PO4 3003  11.484  10.092   3.925
  210POPC   GL1 3004   0.365  10.168   4.214
  210POPC   GL2 3005   0.422  10.476   4.229
  210POPC   C1A 3006   0.299  10.101   4.669
  210POPC   D2A 3007   0.102  10.062   5.102
  210POPC   C3A 3008   0.370  10.205   5.460
  210POPC   C4A 3009   0.323  10.374   5.892
  210POPC   C1B 3010   0.320  10.629   4.608
  210POPC   C2B 3011   0.462  10.482   5.017
  210POPC   C3B 3012   0.562  10.687   5.397
  210POPC   C4B 3013   0.698  10.707   5.804
  211POPC   NC3 3014   2.112   1.732   3.801
  211POPC   PO4 3015   2.250   2.409   3.869
  211POPC   GL1 3016   1.977   2.296   4.206
  211POPC   GL2 3017   1.931   1.964   4.246
  211POPC   C1A 3018   2.149   2.275   4.628
  211POPC   D2A 3019   1.996   2.231   5.044
  211POPC   C3A 3020   2.291   2.231   5.369
  211POPC   C4A 3021   2.190   2.242   5.777
  211POPC   C1B 3022   1.726   1.964   4.648
  211POPC   C2B 3023   1.666   1.828   5.075
  211POPC   C3B 3024   1.841   1.913   5.465
  211POPC   C4B 3025   1.675   2.204   5.721
  212POPC   NC3 3026  10.910   8.883   3.668
  212POPC   PO4 3027  11.459   8.704   3.782
  212POPC   GL1 3028  11.406   8.824   4.233
  212POPC   GL2 3029  11.124   8.983   4.185
  212POPC   C1A 3030  11.255   8.642   4.668
  212POPC   D2A 3031  11.301   8.711   5.110
  212POPC   C3A 3032  11.471   8.438   5.435
  212POPC   C4A 3033  11.219   8.774   5.659
  212POPC   C1B 3034  11.249   9.133   4.623
  212POPC   C2B 3035  11.031   9.137   4.979
  212POPC   C3B 3036  11.095   9.185   5.391
  212POPC   C4B 3037  10.901   9.183   5.781
  213POPC   NC3 3038   7.113  10.942   3.889
  213POPC   PO4 3039   7.832  11.020   3.812
  213POPC   GL1 3040   7.578  10.870   4.153
  213POPC   GL2 3041   7.400  11.145   4.267
  213POPC   C1A 3042   7.565  10.852   4.626
  213POPC   D2A 3043   7.494  10.831   5.070
  213POPC   C3A 3044   7.682  10.782   5.430
  213POPC   C4A 3045   7.467  10.895   5.785
  213POPC   C1B 3046   7.128  11.180   4.611
  213POPC   C2B 3047   7.125  11.365   4.983
  213POPC   C3B 3048   7.081  11.140   5.334
  213POPC   C4B 3049   7.216  11.318   5.698
  214POPC   NC3 3050   4.017   1.421   4.059
  214POPC   PO4 3051   3.372   1.565   3.850
  214POPC   GL1 3052   3.288   1.449   4.264
  214POPC   GL2 3053   3.539   1.192   4.205
  214POPC   C1A 3054   3.554   1.436   4.668
  214POPC   D2A 3055   3.940   1.524   4.933
  214POPC   C3A 3056   3.748   1.506   5.321
  214POPC   C4A 3057   3.536   1.496   5.696
  214POPC   C1B 3058   3.288   0.981   4.513
  214POPC   C2B 3059   3.368   0.883   4.928
  214POPC   C3B 3060   3.306   0.831   5.347
  214POPC   C4B 3061   3.465   0.984   5.699
  215POPC   NC3 3062   9.735   6.643   4.036
  215POPC   PO4 3063  10.088   6.075   3.876
  215POPC   GL1 3064   9.900   6.242   4.288
  215POPC   GL2 3065   9.513   6.319   4.367
  215POPC   C1A 3066   9.863   6.464   4.699
  215POPC   D2A 3067   9.637   6.519   5.096
  215POPC   C3A 3068   9.871   6.716   5.477
  215POPC   C4A 3069   9.861   6.460   5.854
  215POPC   C1B 3070   9.431   6.753   4.643
  215POPC   C2B 3071   9.403   6.956   5.087
  215POPC   C3B 3072   9.370   6.733   5.502
  215POPC   C4B 3073   9.394   6.616   5.924
  216POPC   NC3 3074   4.484   9.014   4.057
  216POPC   PO4 3075   3.900   9.025   3.964
  216POPC   GL1 3076   4.063   9.070   4.389
  216POPC   GL2 3077   4.401   9.213   4.518
  216POPC   C1A 3078   4.029   9.069   4.851
  216POPC   D2A 3079   3.778   9.172   5.197
  216POPC   C3A 3080   3.995   8.936   5.526
  216POPC   C4A 3081   4.132   8.521   5.664
  216POPC   C1B 3082   4.521   8.877   4.765
  216POPC   C2B 3083   4.367   8.836   5.183
  216POPC   C3B 3084   4.535   8.828   5.590
  216POPC   C4B 3085   4.729   8.897   5.981
  217POPC   NC3 3086   1.158   4.330   3.852
  217POPC   PO4 3087   1.716   4.737   4.091
  217POPC   GL1 3088   1.321   4.449   4.300
  217POPC   GL2 3089   1.133   4.037   4.263
  217POPC   C1A 3090   1.134   4.332   4.667
  217POPC   D2A 3091   1.300   4.498   4.974
  217POPC   C3A 3092   1.276   4.502   5.374
  217POPC   C4A 3093   1.429   4.628   5.755
  217POPC   C1B 3094   1.058   3.832   4.703
  217POPC   C2B 3095   1.157   4.003   5.148
  217POPC   C3B 3096   1.156   4.089   5.630
  217POPC   C4B 3097   1.384   3.951   6.030
  218POPC   NC3 3098   1.709   3.695   3.823
  218POPC   PO4 3099   2.152   3.850   4.245
  218POPC   GL1 3100   1.907   3.597   4.416
  218POPC   GL2 3101   2.130   3.312   4.346
  218POPC   C1A 3102   1.909   3.722   4.826
  218POPC   D2A 3103   1.824   3.911   5.195
  218POPC   C3A 3104   1.945   3.690   5.569
  218POPC   C4A 3105   2.236   3.756   5.876
  218POPC   C1B 3106   1.943   3.206   4.757
  218POPC   C2B 3107   2.110   3.212   5.169
  218POPC   C3B 3108   1.992   3.181   5.607
  218POPC   C4B 3109   2.190   3.265   5.994
  219POPC   NC3 3110  10.596   1.133   3.811
  219POPC   PO4 3111   9.948   1.242   3.894
  219POPC   GL1 3112  10.219   1.057   4.245
  219POPC   GL2 3113  10.617   1.050   4.307
  219POPC   C1A 3114  10.306   1.141   4.701
  219POPC   D2A 3115  10.071   1.258   5.062
  219POPC   C3A 3116  10.044   1.629   5.295
  219POPC   C4A 3117   9.999   1.405   5.677
  219POPC   C1B 3118  10.814   1.042   4.718
  219POPC   C2B 3119  10.647   0.945   5.109
  219POPC   C3B 3120  10.434   1.079   5.491
  219POPC   C4B 3121  10.632   1.020   5.897
  220POPC   NC3 3122   8.696   3.569   3.876
  220POPC   PO4 3123   9.277   3.297   3.688
  220POPC   GL1 3124   9.155   3.335   4.169
  220POPC   GL2 3125   8.837   3.401   4.330
  220POPC   C1A 3126   9.254   3.529   4.622
  220POPC   D2A 3127   9.233   3.817   5.016
  220POPC   C3A 3128   9.123   3.588   5.396
  220POPC   C4A 3129   8.993   3.404   5.787
  220POPC   C1B 3130   8.554   3.319   4.681
  220POPC   C2B 3131   8.480   3.213   5.133
  220POPC   C3B 3132   8.526   3.365   5.550
  220POPC   C4B 3133   8.378   3.641   5.886
  221POPC   NC3 3134   0.864   0.498   3.869
  221POPC   PO4 3135   1.420   0.205   3.690
  221POPC   GL1 3136   1.222   0.340   4.163
  221POPC   GL2 3137   1.172   0.672   4.326
  221POPC   C1A 3138   1.059   0.261   4.585
  221POPC   D2A 3139   1.006   0.355   5.009
  221POPC   C3A 3140   0.857   0.178   5.365
  221POPC   C4A 3141   1.001   0.368   5.731
  221POPC   C1B 3142   1.340   0.671   4.771
  221POPC   C2B 3143   1.488   0.598   5.210
  221POPC   C3B 3144   1.566   0.363   5.605
  221POPC   C4B 3145   1.397   0.544   5.984
  222POPC   NC3 3146   1.496   8.812   4.111
  222POPC   PO4 3147   0.836   8.944   3.969
  222POPC   GL1 3148   1.031   8.677   4.268
  222POPC   GL2 3149   1.120   8.993   4.423
  222POPC   C1A 3150   1.204   8.542   4.687
  222POPC   D2A 3151   1.019   8.632   5.095
  222POPC   C3A 3152   1.255   8.518   5.466
  222POPC   C4A 3153   1.372   8.663   5.870
  222POPC   C1B 3154   1.316   9.009   4.826
  222POPC   C2B 3155   1.358   9.000   5.247
  222POPC   C3B 3156   1.025   8.981   5.509
  222POPC   C4B 3157   1.166   9.136   5.867
  223POPC   NC3 3158   9.970   0.614   3.864
  223POPC   PO4 3159   9.764  11.449   3.849
  223POPC   GL1 3160   9.714   0.258   4.175
  223POPC   GL2 3161   9.386   0.309   4.205
  223POPC   C1A 3162   9.674   0.332   4.632
  223POPC   D2A 3163   9.918   0.329   4.977
  223POPC   C3A 3164   9.720   0.393   5.341
  223POPC   C4A 3165   9.816   0.433   5.756
  223POPC   C1B 3166   9.236   0.552   4.546
  223POPC   C2B 3167   9.294   0.460   4.999
  223POPC   C3B 3168   9.330   0.705   5.400
  223POPC   C4B 3169   9.367   0.634   5.814
  224POPC   NC3 3170   8.088   2.942   4.016
  224POPC   PO4 3171   7.882   2.342   3.642
  224POPC   GL1 3172   8.133   2.443   4.050
  224POPC   GL2 3173   7.954   2.467   4.333
  224POPC   C1A 3174   8.444   2.537   4.434
  224POPC   D2A 3175   8.518   2.805   4.822
  224POPC   C3A 3176   8.532   2.725   5.310
  224POPC   C4A 3177   8.379   2.584   5.743
  224POPC   C1B 3178   7.965   2.713   4.690
  224POPC   C2B 3179   8.030   2.957   5.042
  224POPC   C3B 3180   8.082   2.912   5.479
  224POPC   C4B 3181   7.879   2.797   5.861
  225POPC   NC3 3182   7.454   0.903   3.848
  225POPC   PO4 3183   7.571   1.611   3.895
  225POPC   GL1 3184   7.487   1.368   4.291
  225POPC   GL2 3185   7.425   0.995   4.354
  225POPC   C1A 3186   7.455   1.300   4.748
  225POPC   D2A 3187   7.651   1.262   5.151
  225POPC   C3A 3188   7.551   1.154   5.576
  225POPC   C4A 3189   7.621   1.475   5.809
  225POPC   C1B 3190   7.015   1.083   4.648
  225POPC   C2B 3191   6.913   1.356   5.011
  225POPC   C3B 3192   7.076   1.252   5.425
  225POPC   C4B 3193   7.089   0.969   5.804
  226POPC   NC3 3194  10.292   4.898   3.825
  226POPC   PO4 3195  10.802   5.389   3.961
  226POPC   GL1 3196  10.580   5.054   4.226
  226POPC   GL2 3197  10.172   5.006   4.300
  226POPC   C1A 3198  10.605   5.096   4.691
  226POPC   D2A 3199  10.434   5.244   5.093
  226POPC   C3A 3200  10.637   5.279   5.487
  226POPC   C4A 3201  10.415   5.175   5.856
  226POPC   C1B 3202  10.320   4.688   4.564
  226POPC   C2B 3203  10.325   4.744   5.018
  226POPC   C3B 3204  10.237   4.918   5.439
  226POPC   C4B 3205  10.000   4.781   5.774
  227POPC   NC3 3206   2.139   4.252   4.030
  227POPC   PO4 3207   1.543   4.119   3.748
  227POPC   GL1 3208   1.639   4.024   4.243
  227POPC   GL2 3209   1.795   4.283   4.383
  227POPC   C1A 3210   1.568   4.097   4.775
  227POPC   D2A 3211   1.742   4.393   5.175
  227POPC   C3A 3212   1.664   4.180   5.604
  227POPC   C4A 3213   1.876   4.079   6.007
  227POPC   C1B 3214   2.063   4.246   4.747
  227POPC   C2B 3215   2.229   4.212   5.138
  227POPC   C3B 3216   2.186   4.146   5.554
  227POPC   C4B 3217   2.338   4.276   5.963
  228POPC   NC3 3218  11.050   4.254   3.927
  228POPC   PO4 3219  11.474   4.739   3.930
  228POPC   GL1 3220   0.013   4.542   4.299
  228POPC   GL2 3221  11.151   4.549   4.351
  228POPC   C1A 3222   0.201   4.455   4.707
  228POPC   D2A 3223   0.227   4.362   5.156
  228POPC   C3A 3224  11.332   4.371   5.395
  228POPC   C4A 3225  11.156   4.575   5.776
  228POPC   C1B 3226  11.300   4.138   4.556
  228POPC   C2B 3227  11.443   3.975   4.967
  228POPC   C3B 3228  11.289   3.850   5.369
  228POPC   C4B 3229  11.133   4.038   5.748
  229POPC   NC3 3230   3.474   5.694   4.000
  229POPC   PO4 3231   3.866   5.467   4.296
  229POPC   GL1 3232   3.624   5.777   4.551
  229POPC   GL2 3233   3.372   5.998   4.414
  229POPC   C1A 3234   3.526   5.909   5.004
  229POPC   D2A 3235   3.611   5.749   5.454
  229POPC   C3A 3236   3.756   6.045   5.780
  229POPC   C4A 3237   3.652   6.104   6.206
  229POPC   C1B 3238   3.138   5.696   4.707
  229POPC   C2B 3239   3.132   5.618   5.170
  229POPC   C3B 3240   3.154   5.589   5.613
  229POPC   C4B 3241   3.273   5.899   5.871
  230POPC   NC3 3242   9.112   2.902   3.848
  230POPC   PO4 3243   8.511   3.138   3.979
  230POPC   GL1 3244   8.792   2.886   4.255
  230POPC   GL2 3245   8.882   2.512   4.134
  230POPC   C1A 3246   9.001   3.037   4.637
  230POPC   D2A 3247   8.966   3.318   4.984
  230POPC   C3A 3248   8.945   3.095   5.374
  230POPC   C4A 3249   8.744   2.949   5.747
  230POPC   C1B 3250   8.966   2.522   4.595
  230POPC   C2B 3251   8.976   2.682   5.033
  230POPC   C3B 3252   9.042   2.600   5.482
  230POPC   C4B 3253   8.922   2.502   5.923
  231POPC   NC3 3254   9.974   3.143   4.085
  231POPC   PO4 3255  10.244   2.463   3.948
  231POPC   GL1 3256  10.430   2.572   4.320
  231POPC   GL2 3257  10.783   2.583   4.270
  231POPC   C1A 3258  10.317   2.820   4.681
  231POPC   D2A 3259  10.385   2.718   5.121
  231POPC   C3A 3260  10.407   2.980   5.492
  231POPC   C4A 3261  10.222   2.801   5.855
  231POPC   C1B 3262  10.750   2.554   4.738
  231POPC   C2B 3263  10.779   2.400   5.155
  231POPC   C3B 3264  10.723   2.595   5.593
  231POPC   C4B 3265  10.698   2.821   5.994
  232POPC   NC3 3266   1.778   7.393   3.925
  232POPC   PO4 3267   2.447   7.676   3.940
  232POPC   GL1 3268   2.144   7.552   4.248
  232POPC   GL2 3269   2.113   7.182   4.230
  232POPC   C1A 3270   2.130   7.390   4.676
  232POPC   D2A 3271   1.809   7.397   4.944
  232POPC   C3A 3272   2.013   7.544   5.287
  232POPC   C4A 3273   2.227   7.706   5.646
  232POPC   C1B 3274   1.715   7.115   4.513
  232POPC   C2B 3275   1.638   6.902   4.916
  232POPC   C3B 3276   1.831   7.021   5.312
  232POPC   C4B 3277   1.958   7.256   5.704
  233POPC   NC3 3278   0.359   8.875   3.965
  233POPC   PO4 3279   0.118   8.313   4.264
  233POPC   GL1 3280   0.298   8.681   4.513
  233POPC   GL2 3281   0.589   8.875   4.424
  233POPC   C1A 3282   0.244   9.075   4.756
  233POPC   D2A 3283   0.034   9.188   5.126
  233POPC   C3A 3284   0.180   8.899   5.435
  233POPC   C4A 3285   0.228   8.657   5.830
  233POPC   C1B 3286   0.774   9.043   4.813
  233POPC   C2B 3287   0.585   9.149   5.222
  233POPC   C3B 3288   0.553   9.156   5.681
  233POPC   C4B 3289   0.736   8.831   5.919
  234POPC   NC3 3290   3.491   8.834   3.892
  234POPC   PO4 3291   3.209   8.310   4.070
  234POPC   GL1 3292   3.366   8.671   4.373
  234POPC   GL2 3293   3.444   9.042   4.353
  234POPC   C1A 3294   3.605   8.776   4.772
  234POPC   D2A 3295   3.749   8.655   5.193
  234POPC   C3A 3296   3.473   8.586   5.578
  234POPC   C4A 3297   3.448   8.386   6.011
  234POPC   C1B 3298   3.206   9.091   4.762
  234POPC   C2B 3299   3.300   8.988   5.224
  234POPC   C3B 3300   3.521   9.090   5.645
  234POPC   C4B 3301   3.350   9.035   6.060
  235POPC   NC3 3302   2.646   2.656   3.792
  235POPC   PO4 3303   3.179   2.204   3.798
  235POPC   GL1 3304   2.897   2.380   4.160
  235POPC   GL2 3305   2.885   2.741   4.270
  235POPC   C1A 3306   2.619   2.497   4.589
  235POPC   D2A 3307   2.828   2.576   5.006
  235POPC   C3A 3308   2.656   2.610   5.415
  235POPC   C4A 3309   2.855   2.704   5.798
  235POPC   C1B 3310   2.898   2.973   4.712
  235POPC   C2B 3311   2.624   3.061   5.138
  235POPC   C3B 3312   2.526   3.050   5.615
  235POPC   C4B 3313   2.581   2.982   6.103
  236POPC   NC3 3314   1.843   0.421   3.749
  236POPC   PO4 3315   1.621  11.475   4.179
  236POPC   GL1 3316   1.615   0.332   4.461
  236POPC   GL2 3317   1.699   0.644   4.295
  236POPC   C1A 3318   1.761   0.357   4.852
  236POPC   D2A 3319   2.102   0.112   4.968
  236POPC   C3A 3320   1.999  11.468   5.358
  236POPC   C4A 3321   2.157   0.147   5.712
  236POPC   C1B 3322   2.112   0.538   4.507
  236POPC   C2B 3323   2.186   0.639   4.958
  236POPC   C3B 3324   2.033   0.536   5.376
  236POPC   C4B 3325   2.374   0.629   5.683
  237POPC   NC3 3326   1.900   2.706   3.888
  237POPC   PO4 3327   2.395   3.044   3.751
  237POPC   GL1 3328   2.391   2.885   4.204
  237POPC   GL2 3329   2.065   2.776   4.366
  237POPC   C1A 3330   2.392   2.960   4.682
  237POPC   D2A 3331   2.326   2.634   4.997
  237POPC   C3A 3332   2.154   2.739   5.381
  237POPC   C4A 3333   2.206   2.751   5.836
  237POPC   C1B 3334   1.862   2.681   4.774
  237POPC   C2B 3335   1.511   2.471   4.992
  237POPC   C3B 3336   1.419   2.542   5.424
  237POPC   C4B 3337   1.750   2.678   5.681
  238POPC   NC3 3338   0.247   0.121   4.071
  238POPC   PO4 3339   0.438   0.742   3.840
  238POPC   GL1 3340   0.647   0.697   4.278
  238POPC   GL2 3341   0.635   0.366   4.314
  238POPC   C1A 3342   0.640   0.600   4.740
  238POPC   D2A 3343   0.489   0.453   5.117
  238POPC   C3A 3344   0.646   0.635   5.459
  238POPC   C4A 3345   0.390   0.751   5.725
  238POPC   C1B 3346   0.599   0.070   4.676
  238POPC   C2B 3347   0.425  11.461   5.069
  238POPC   C3B 3348   0.368   0.068   5.518
  238POPC   C4B 3349   0.517   0.288   5.860
  239POPC   NC3 3350   1.972   9.559   3.874
  239POPC   PO4 3351   2.599   9.379   4.142
  239POPC   GL1 3352   2.201   9.603   4.343
  239POPC   GL2 3353   1.795   9.649   4.318
  239POPC   C1A 3354   2.033   9.618   4.757
  239POPC   D2A 3355   2.186   9.549   5.117
  239POPC   C3A 3356   2.256   9.920   5.339
  239POPC   C4A 3357   2.064   9.677   5.673
  239POPC   C1B 3358   1.642   9.334   4.622
  239POPC   C2B 3359   1.499   9.446   5.020
  239POPC   C3B 3360   1.674   9.496   5.385
  239POPC   C4B 3361   1.518   9.517   5.755
  240POPC   NC3 3362   0.434   1.933   4.163
  240POPC   PO4 3363   0.005   2.357   3.824
  240POPC   GL1 3364   0.223   2.376   4.324
  240POPC   GL2 3365   0.557   2.254   4.523
  240POPC   C1A 3366   0.185   2.390   4.815
  240POPC   D2A 3367   0.338   2.353   5.240
  240POPC   C3A 3368   0.271   1.970   5.475
  240POPC   C4A 3369   0.075   1.877   5.873
  240POPC   C1B 3370   0.375   1.900   4.828
  240POPC   C2B 3371   0.535   1.639   5.196
  240POPC   C3B 3372   0.767   1.844   5.562
  240POPC   C4B 3373   0.635   2.264   5.722
  241POPC   NC3 3374   9.159   7.447   3.891
  241POPC   PO4 3375   8.644   7.767   3.972
  241POPC   GL1 3376   8.864   7.540   4.315
  241POPC   GL2 3377   9.041   7.207   4.385
  241POPC   C1A 3378   8.944   7.622   4.732
  241POPC   D2A 3379   8.824   7.555   5.162
  241POPC   C3A 3380   9.072   7.382   5.490
  241POPC   C4A 3381   8.882   7.291   5.922
  241POPC   C1B 3382   8.975   7.123   4.872
  241POPC   C2B 3383   8.929   6.915   5.323
  241POPC   C3B 3384   8.928   6.781   5.799
  241POPC   C4B 3385   9.117   6.896   6.244
  242POPC   NC3 3386   2.859  10.939   3.889
  242POPC   PO4 3387   2.351  11.454   3.920
  242POPC   GL1 3388   2.592  11.215   4.246
  242POPC   GL2 3389   2.927  11.227   4.290
  242POPC   C1A 3390   2.623  11.314   4.691
  242POPC   D2A 3391   2.805  11.461   5.065
  242POPC   C3A 3392   2.530  11.323   5.387
  242POPC   C4A 3393   2.706  11.070   5.667
  242POPC   C1B 3394   2.930  10.915   4.597
  242POPC   C2B 3395   2.929  10.951   5.030
  242POPC   C3B 3396   3.123  10.833   5.403
  242POPC   C4B 3397   3.043  10.730   5.799
  243POPC   NC3 3398   6.445   2.054   3.922
  243POPC   PO4 3399   6.454   1.349   3.834
  243POPC   GL1 3400   6.469   1.600   4.198
  243POPC   GL2 3401   6.782   1.782   4.276
  243POPC   C1A 3402   6.334   1.661   4.617
  243POPC   D2A 3403   6.289   1.578   5.058
  243POPC   C3A 3404   6.585   1.766   5.369
  243POPC   C4A 3405   6.517   1.923   5.801
  243POPC   C1B 3406   6.967   1.871   4.712
  243POPC   C2B 3407   6.998   2.030   5.171
  243POPC   C3B 3408   6.794   2.248   5.513
  243POPC   C4B 3409   6.550   2.454   5.836
  244POPC   NC3 3410   9.504   1.377   3.747
  244POPC   PO4 3411   9.510   0.707   3.875
  244POPC   GL1 3412   9.656   0.972   4.225
  244POPC   GL2 3413   9.347   1.076   4.414
  244POPC   C1A 3414   9.785   1.066   4.663
  244POPC   D2A 3415   9.658   0.811   4.985
  244POPC   C3A 3416   9.807   0.927   5.364
  244POPC   C4A 3417   9.770   0.936   5.769
  244POPC   C1B 3418   9.386   1.373   4.776
  244POPC   C2B 3419   9.559   1.325   5.156
  244POPC   C3B 3420   9.434   1.236   5.540
  244POPC   C4B 3421   9.555   1.371   5.940
  245POPC   NC3 3422   8.271   8.870   4.118
  245POPC   PO4 3423   8.077   9.276   3.719
  245POPC   GL1 3424   7.957   9.305   4.224
  245POPC   GL2 3425   7.827   9.035   4.279
  245POPC   C1A 3426   8.055   9.155   4.686
  245POPC   D2A 3427   7.944   8.991   5.063
  245POPC   C3A 3428   8.265   8.980   5.401
  245POPC   C4A 3429   8.179   9.132   5.831
  245POPC   C1B 3430   7.845   8.675   4.654
  245POPC   C2B 3431   7.716   8.510   5.055
  245POPC   C3B 3432   7.909   8.411   5.443
  245POPC   C4B 3433   8.184   8.617   5.749
  246POPC   NC3 3434   7.667   8.137   4.047
  246POPC   PO4 3435   7.181   7.725   3.865
  246POPC   GL1 3436   7.222   7.929   4.302
  246POPC   GL2 3437   7.226   8.284   4.304
  246POPC   C1A 3438   7.175   8.025   4.780
  246POPC   D2A 3439   7.471   8.065   5.161
  246POPC   C3A 3440   7.372   7.978   5.612
  246POPC   C4A 3441   7.294   7.925   6.066
  246POPC   C1B 3442   7.310   8.522   4.711
  246POPC   C2B 3443   7.183   8.498   5.101
  246POPC   C3B 3444   7.377   8.471   5.472
  246POPC   C4B 3445   7.145   8.380   5.863
  247POPC   NC3 3446   4.324   2.359   3.952
  247POPC   PO4 3447   4.138   1.732   3.709
  247POPC   GL1 3448   4.137   1.916   4.130
  247POPC   GL2 3449   4.441   1.946   4.347
  247POPC   C1A 3450   3.955   1.891   4.547
  247POPC   D2A 3451   4.035   2.152   4.927
  247POPC   C3A 3452   4.068   1.917   5.310
  247POPC   C4A 3453   4.114   1.603   5.660
  247POPC   C1B 3454   4.375   1.781   4.804
  247POPC   C2B 3455   4.446   1.580   5.209
  247POPC   C3B 3456   4.574   1.796   5.567
  247POPC   C4B 3457   4.342   2.201   5.640
  248POPC   NC3 3458  10.865   0.359   4.231
  248POPC   PO4 3459  10.446   0.678   3.788
  248POPC   GL1 3460  10.416   0.581   4.229
  248POPC   GL2 3461  10.223   0.295   4.293
  248POPC   C1A 3462  10.509   0.525   4.714
  248POPC   D2A 3463  10.433   0.300   5.083
  248POPC   C3A 3464  10.672   0.512   5.380
  248POPC   C4A 3465  10.595   0.418   5.781
  248POPC   C1B 3466  10.054   0.656   4.573
  248POPC   C2B 3467  10.171   0.761   5.025
  248POPC   C3B 3468  10.191   0.623   5.456
  248POPC   C4B 3469  10.220   0.755   5.890
  249POPC   NC3 3470   9.151   0.436   3.773
  249POPC   PO4 3471   8.772  11.360   3.765
  249POPC   GL1 3472   9.036  11.443   4.154
  249POPC   GL2 3473   8.868   0.231   4.312
  249POPC   C1A 3474   9.189   0.018   4.652
  249POPC   D2A 3475   9.016   0.036   5.137
  249POPC   C3A 3476   9.220   0.212   5.525
  249POPC   C4A 3477   9.192   0.214   6.011
  249POPC   C1B 3478   8.809   0.342   4.778
  249POPC   C2B 3479   8.842   0.578   5.204
  249POPC   C3B 3480   8.867   0.572   5.677
  249POPC   C4B 3481   8.679   0.808   6.016
  250POPC   NC3 3482   7.833   1.999   3.946
  250POPC   PO4 3483   8.438   1.659   3.832
  250POPC   GL1 3484   8.213   1.685   4.241
  250POPC   GL2 3485   8.189   2.016   4.327
  250POPC   C1A 3486   7.986   1.726   4.679
  250POPC   D2A 3487   8.086   1.905   5.116
  250POPC   C3A 3488   7.820   1.839   5.462
  250POPC   C4A 3489   7.740   1.962   5.877
  250POPC   C1B 3490   8.170   2.224   4.728
  250POPC   C2B 3491   8.092   2.448   5.121
  250POPC   C3B 3492   7.966   2.340   5.536
  250POPC   C4B 3493   8.241   2.051   5.718
  251POPC   NC3 3494   2.803   8.120   4.022
  251POPC   PO4 3495   2.267   8.469   3.931
  251POPC   GL1 3496   2.382   8.372   4.379
  251POPC   GL2 3497   2.360   8.003   4.393
  251POPC   C1A 3498   2.529   8.360   4.858
  251POPC   D2A 3499   2.839   8.201   5.226
  251POPC   C3A 3500   3.044   8.201   5.677
  251POPC   C4A 3501   2.866   8.245   6.123
  251POPC   C1B 3502   2.326   7.870   4.843
  251POPC   C2B 3503   2.347   8.047   5.267
  251POPC   C3B 3504   2.545   8.088   5.703
  251POPC   C4B 3505   2.433   7.908   6.114
  252POPC   NC3 3506   6.539   3.614   4.036
  252POPC   PO4 3507   6.922   3.444   4.234
  252POPC   GL1 3508   6.608   3.606   4.543
  252POPC   GL2 3509   6.331   3.385   4.490
  252POPC   C1A 3510   6.404   3.643   4.977
  252POPC   D2A 3511   6.265   3.911   5.348
  252POPC   C3A 3512   6.589   3.880   5.660
  252POPC   C4A 3513   6.855   3.502   5.779
  252POPC   C1B 3514   6.628   3.173   4.797
  252POPC   C2B 3515   6.736   3.291   5.218
  252POPC   C3B 3516   6.430   3.426   5.497
  252POPC   C4B 3517   6.160   3.591   5.802
  253POPC   NC3 3518   8.173   9.664   3.961
  253POPC   PO4 3519   7.646  10.067   4.052
  253POPC   GL1 3520   7.918   9.876   4.345
  253POPC   GL2 3521   8.295   9.849   4.400
  253POPC   C1A 3522   7.961  10.040   4.759
  253POPC   D2A 3523   7.937   9.777   5.117
  253POPC   C3A 3524   7.697   9.815   5.492
  253POPC   C4A 3525   7.670   9.913   5.942
  253POPC   C1B 3526   8.235   9.614   4.717
  253POPC   C2B 3527   8.266   9.395   5.092
  253POPC   C3B 3528   7.987   9.399   5.452
  253POPC   C4B 3529   8.111   9.665   5.802
  254POPC   NC3 3530   9.318   9.909   3.649
  254POPC   PO4 3531   9.192   9.346   3.982
  254POPC   GL1 3532   9.295   9.662   4.264
  254POPC   GL2 3533   9.689   9.705   4.317
  254POPC   C1A 3534   9.203   9.669   4.694
  254POPC   D2A 3535   9.245   9.375   5.052
  254POPC   C3A 3536   9.212   9.531   5.490
  254POPC   C4A 3537   9.404   9.559   5.904
  254POPC   C1B 3538   9.923   9.653   4.755
  254POPC   C2B 3539   9.914   9.633   5.233
  254POPC   C3B 3540  10.014   9.489   5.649
  254POPC   C4B 3541   9.984   9.446   6.124
  255POPC   NC3 3542   5.215   0.938   3.982
  255POPC   PO4 3543   5.122   1.568   3.645
  255POPC   GL1 3544   5.051   1.396   4.124
  255POPC   GL2 3545   4.787   1.126   4.237
  255POPC   C1A 3546   5.127   1.280   4.581
  255POPC   D2A 3547   5.234   1.376   5.020
  255POPC   C3A 3548   4.897   1.354   5.330
  255POPC   C4A 3549   4.885   1.369   5.761
  255POPC   C1B 3550   4.771   0.851   4.595
  255POPC   C2B 3551   4.947   0.949   4.995
  255POPC   C3B 3552   5.082   0.886   5.412
  255POPC   C4B 3553   5.171   0.964   5.841
  256POPC   NC3 3554   0.246   7.962   4.004
  256POPC   PO4 3555   0.898   7.734   4.028
  256POPC   GL1 3556   0.622   7.989   4.328
  256POPC   GL2 3557   0.625   8.352   4.225
  256POPC   C1A 3558   0.432   8.038   4.755
  256POPC   D2A 3559   0.165   7.913   5.109
  256POPC   C3A 3560   0.369   8.076   5.490
  256POPC   C4A 3561   0.503   7.838   5.843
  256POPC   C1B 3562   0.715   8.455   4.668
  256POPC   C2B 3563   0.501   8.642   5.035
  256POPC   C3B 3564   0.616   8.596   5.476
  256POPC   C4B 3565   0.625   8.334   5.879
  257POPC   NC3 3566  10.207   7.336   4.225
  257POPC   PO4 3567   9.622   7.514   3.891
  257POPC   GL1 3568   9.722   7.549   4.339
  257POPC   GL2 3569   9.381   7.588   4.339
  257POPC   C1A 3570   9.927   7.476   4.794
  257POPC   D2A 3571  10.092   7.426   5.225
  257POPC   C3A 3572   9.832   7.656   5.498
  257POPC   C4A 3573   9.658   7.540   5.916
  257POPC   C1B 3574   9.407   7.397   4.733
  257POPC   C2B 3575   9.503   7.458   5.157
  257POPC   C3B 3576   9.599   7.199   5.510
  257POPC   C4B 3577   9.341   7.119   5.842
  258POPC   NC3 3578   8.296  11.151   3.677
  258POPC   PO4 3579   8.790  10.932   4.120
  258POPC   GL1 3580   8.810  11.133   4.479
  258POPC   GL2 3581   9.131  11.042   4.490
  258POPC   C1A 3582   8.624  11.360   4.819
  258POPC   D2A 3583   8.599  11.237   5.260
  258POPC   C3A 3584   8.683   0.038   5.593
  258POPC   C4A 3585   8.811  11.403   6.005
  258POPC   C1B 3586   9.023  11.067   4.923
  258POPC   C2B 3587   9.143  10.950   5.275
  258POPC   C3B 3588   9.092  11.215   5.604
  258POPC   C4B 3589   9.315  11.222   6.000
  259POPC   NC3 3590   1.721   6.570   3.745
  259POPC   PO4 3591   2.196   6.227   3.782
  259POPC   GL1 3592   1.922   6.359   4.162
  259POPC   GL2 3593   1.912   6.720   4.192
  259POPC   C1A 3594   1.812   6.303   4.635
  259POPC   D2A 3595   1.718   6.178   5.080
  259POPC   C3A 3596   1.927   6.305   5.497
  259POPC   C4A 3597   2.295   6.385   5.807
  259POPC   C1B 3598   2.053   6.756   4.630
  259POPC   C2B 3599   2.075   6.605   5.066
  259POPC   C3B 3600   2.218   6.756   5.480
  259POPC   C4B 3601   1.896   6.762   5.789
  260POPC   NC3 3602  11.170   5.642   3.845
  260POPC   PO4 3603  10.760   6.192   3.978
  260POPC   GL1 3604  10.919   5.849   4.262
  260POPC   GL2 3605  11.275   5.774   4.325
  260POPC   C1A 3606  10.929   5.724   4.706
  260POPC   D2A 3607  10.735   5.652   5.113
  260POPC   C3A 3608  10.924   5.728   5.504
  260POPC   C4A 3609  10.795   5.563   5.885
  260POPC   C1B 3610  11.458   5.922   4.710
  260POPC   C2B 3611  11.335   5.985   5.126
  260POPC   C3B 3612  11.421   5.859   5.548
  260POPC   C4B 3613  11.201   5.851   5.955
  261POPC   NC3 3614   5.100   9.257   4.018
  261POPC   PO4 3615   5.186   9.985   3.835
  261POPC   GL1 3616   5.126   9.798   4.220
  261POPC   GL2 3617   5.249   9.521   4.427
  261POPC   C1A 3618   4.969   9.906   4.623
  261POPC   D2A 3619   4.952   9.730   5.019
  261POPC   C3A 3620   4.919   9.926   5.396
  261POPC   C4A 3621   4.995   9.733   5.794
  261POPC   C1B 3622   4.865   9.374   4.666
  261POPC   C2B 3623   4.660   9.290   5.086
  261POPC   C3B 3624   4.712   9.311   5.569
  261POPC   C4B 3625   4.678   9.390   6.033
  262POPC   NC3 3626  10.871   6.642   3.944
  262POPC   PO4 3627  11.341   7.008   3.971
  262POPC   GL1 3628  11.210   6.792   4.315
  262POPC   GL2 3629  11.227   6.432   4.256
  262POPC   C1A 3630  11.298   6.711   4.719
  262POPC   D2A 3631  11.195   6.505   5.062
  262POPC   C3A 3632  11.197   6.744   5.424
  262POPC   C4A 3633  11.325   7.023   5.743
  262POPC   C1B 3634  11.055   6.229   4.614
  262POPC   C2B 3635  10.849   6.139   4.998
  262POPC   C3B 3636  10.990   6.217   5.431
  262POPC   C4B 3637  11.209   6.330   5.791
  263POPC   NC3 3638  11.122   7.431   3.831
  263POPC   PO4 3639  10.541   6.941   3.756
  263POPC   GL1 3640  10.855   7.124   4.150
  263POPC   GL2 3641  11.089   7.405   4.320
  263POPC   C1A 3642  10.947   7.076   4.671
  263POPC   D2A 3643  10.836   7.005   5.120
  263POPC   C3A 3644  10.888   7.173   5.523
  263POPC   C4A 3645  10.862   7.044   5.979
  263POPC   C1B 3646  11.417   7.229   4.621
  263POPC   C2B 3647  11.339   7.136   5.071
  263POPC   C3B 3648  11.344   7.425   5.440
  263POPC   C4B 3649  11.106   7.513   5.851
  264POPC   NC3 3650   5.254  10.501   3.755
  264POPC   PO4 3651   5.850  10.425   3.954
  264POPC   GL1 3652   5.899  10.530   4.364
  264POPC   GL2 3653   6.015  10.196   4.370
  264POPC   C1A 3654   5.742  10.689   4.797
  264POPC   D2A 3655   5.571  10.813   5.231
  264POPC   C3A 3656   5.637  10.574   5.614
  264POPC   C4A 3657   5.739  10.658   6.051
  264POPC   C1B 3658   5.839  10.176   4.761
  264POPC   C2B 3659   5.668  10.286   5.139
  264POPC   C3B 3660   5.791  10.096   5.502
  264POPC   C4B 3661   5.816  10.174   5.905
  265POPC   NC3 3662   0.133   3.443   3.973
  265POPC   PO4 3663  11.115   3.807   3.893
  265POPC   GL1 3664  11.210   3.511   4.221
  265POPC   GL2 3665  10.943   3.363   4.349
  265POPC   C1A 3666  11.416   3.324   4.593
  265POPC   D2A 3667  11.220   3.199   4.984
  265POPC   C3A 3668  11.348   3.284   5.417
  265POPC   C4A 3669  11.454   3.180   5.857
  265POPC   C1B 3670  11.074   3.675   4.689
  265POPC   C2B 3671  10.922   3.608   5.099
  265POPC   C3B 3672  10.886   3.564   5.525
  265POPC   C4B 3673  11.110   3.540   5.895
  266POPC   NC3 3674   1.215  11.388   3.976
  266POPC   PO4 3675   1.345  10.719   3.844
  266POPC   GL1 3676   1.206  10.940   4.282
  266POPC   GL2 3677   1.106  11.276   4.443
  266POPC   C1A 3678   1.245  10.897   4.771
  266POPC   D2A 3679   1.025  10.818   5.183
  266POPC   C3A 3680   1.155  10.912   5.628
  266POPC   C4A 3681   1.506  10.863   5.936
  266POPC   C1B 3682   1.391  11.427   4.776
  266POPC   C2B 3683   1.415   0.072   5.181
  266POPC   C3B 3684   1.257  11.414   5.552
  266POPC   C4B 3685   1.279   0.012   5.967
  267POPC   NC3 3686   1.489   4.971   3.783
  267POPC   PO4 3687   0.928   5.339   3.748
  267POPC   GL1 3688   1.071   5.350   4.199
  267POPC   GL2 3689   1.331   5.094   4.246
  267POPC   C1A 3690   1.274   5.405   4.635
  267POPC   D2A 3691   1.115   5.390   5.065
  267POPC   C3A 3692   1.330   5.448   5.444
  267POPC   C4A 3693   1.479   5.164   5.781
  267POPC   C1B 3694   1.209   4.867   4.625
  267POPC   C2B 3695   0.985   4.891   5.023
  267POPC   C3B 3696   1.098   4.974   5.445
  267POPC   C4B 3697   0.969   4.857   5.856
  268POPC   NC3 3698   1.147   6.727   4.051
  268POPC   PO4 3699   1.481   6.168   3.830
  268POPC   GL1 3700   1.418   6.278   4.284
  268POPC   GL2 3701   1.468   6.627   4.431
  268POPC   C1A 3702   1.187   6.241   4.707
  268POPC   D2A 3703   1.246   6.413   5.140
  268POPC   C3A 3704   1.038   6.344   5.546
  268POPC   C4A 3705   1.422   6.528   5.718
  268POPC   C1B 3706   1.151   6.755   4.753
  268POPC   C2B 3707   1.167   6.968   5.151
  268POPC   C3B 3708   1.028   6.842   5.543
  268POPC   C4B 3709   1.045   6.984   5.935
  269POPC   NC3 3710   0.567   5.259   4.044
  269POPC   PO4 3711   0.754   4.541   3.899
  269POPC   GL1 3712   0.494   4.770   4.219
  269POPC   GL2 3713   0.807   4.908   4.327
  269POPC   C1A 3714   0.399   4.946   4.670
  269POPC   D2A 3715   0.490   4.788   5.124
  269POPC   C3A 3716   0.497   4.963   5.550
  269POPC   C4A 3717   0.448   4.866   6.015
  269POPC   C1B 3718   0.807   5.232   4.669
  269POPC   C2B 3719   0.617   5.283   5.089
  269POPC   C3B 3720   0.783   5.379   5.486
  269POPC   C4B 3721   0.710   5.277   5.904
  270POPC   NC3 3722   6.420   0.861   3.767
  270POPC   PO4 3723   7.018   0.937   4.029
  270POPC   GL1 3724   6.666   0.802   4.291
  270POPC   GL2 3725   6.374   1.051   4.257
  270POPC   C1A 3726   6.675   0.692   4.743
  270POPC   D2A 3727   6.891   0.850   5.117
  270POPC   C3A 3728   6.687   0.868   5.512
  270POPC   C4A 3729   6.411   0.940   5.841
  270POPC   C1B 3730   6.476   1.168   4.686
  270POPC   C2B 3731   6.455   1.110   5.118
  270POPC   C3B 3732   6.372   1.313   5.491
  270POPC   C4B 3733   6.704   1.408   5.727
  271POPC   NC3 3734  10.281   7.393   3.662
  271POPC   PO4 3735  10.576   7.618   4.173
  271POPC   GL1 3736  10.597   7.378   4.521
  271POPC   GL2 3737  10.494   7.003   4.471
  271POPC   C1A 3738  10.480   7.308   4.904
  271POPC   D2A 3739  10.616   7.571   5.199
  271POPC   C3A 3740  10.523   7.527   5.598
  271POPC   C4A 3741  10.684   7.860   5.811
  271POPC   C1B 3742  10.264   6.847   4.796
  271POPC   C2B 3743  10.323   6.927   5.217
  271POPC   C3B 3744  10.396   7.035   5.591
  271POPC   C4B 3745  10.065   7.274   5.729
  272POPC   NC3 3746   9.531   7.972   3.980
  272POPC   PO4 3747  10.123   7.846   3.678
  272POPC   GL1 3748  10.051   7.878   4.123
  272POPC   GL2 3749   9.974   8.242   4.177
  272POPC   C1A 3750   9.924   7.951   4.589
  272POPC   D2A 3751   9.703   7.921   5.001
  272POPC   C3A 3752   9.803   8.165   5.404
  272POPC   C4A 3753   9.823   8.023   5.839
  272POPC   C1B 3754   9.623   8.379   4.504
  272POPC   C2B 3755   9.381   8.367   4.916
  272POPC   C3B 3756   9.322   8.329   5.354
  272POPC   C4B 3757   9.387   8.269   5.784
  273POPC   NC3 3758   0.987   9.385   3.872
  273POPC   PO4 3759   1.623   9.232   3.982
  273POPC   GL1 3760   1.306   9.464   4.259
  273POPC   GL2 3761   1.288   9.838   4.295
  273POPC   C1A 3762   1.110   9.466   4.660
  273POPC   D2A 3763   0.901   9.519   5.043
  273POPC   C3A 3764   1.125   9.493   5.420
  273POPC   C4A 3765   0.885   9.552   5.797
  273POPC   C1B 3766   1.482   9.829   4.683
  273POPC   C2B 3767   1.250   9.894   5.030
  273POPC   C3B 3768   1.330   9.997   5.425
  273POPC   C4B 3769   1.207   9.935   5.832
  274POPC   NC3 3770   0.566   6.079   3.759
  274POPC   PO4 3771   0.685   6.760   3.957
  274POPC   GL1 3772   0.397   6.463   4.146
  274POPC   GL2 3773   0.601   6.197   4.273
  274POPC   C1A 3774   0.181   6.390   4.568
  274POPC   D2A 3775   0.226   6.596   4.997
  274POPC   C3A 3776   0.069   6.384   5.389
  274POPC   C4A 3777   0.115   6.615   5.761
  274POPC   C1B 3778   0.698   6.457   4.649
  274POPC   C2B 3779   0.739   6.420   5.103
  274POPC   C3B 3780   0.562   6.535   5.504
  274POPC   C4B 3781   0.536   6.914   5.756
  275POPC   NC3 3782   4.709   9.985   3.983
  275POPC   PO4 3783   4.873  10.695   3.927
  275POPC   GL1 3784   5.032  10.365   4.209
  275POPC   GL2 3785   5.407  10.298   4.188
  275POPC   C1A 3786   4.837  10.395   4.621
  275POPC   D2A 3787   4.649  10.167   4.954
  275POPC   C3A 3788   4.713  10.392   5.321
  275POPC   C4A 3789   4.783  10.687   5.642
  275POPC   C1B 3790   5.359  10.303   4.626
  275POPC   C2B 3791   5.152  10.255   5.019
  275POPC   C3B 3792   5.208  10.365   5.438
  275POPC   C4B 3793   5.333  10.119   5.764
  276POPC   NC3 3794   4.609   2.881   3.967
  276POPC   PO4 3795   4.016   3.073   4.003
  276POPC   GL1 3796   4.219   2.726   4.300
  276POPC   GL2 3797   4.103   2.372   4.406
  276POPC   C1A 3798   4.404   2.586   4.733
  276POPC   D2A 3799   4.237   2.573   5.163
  276POPC   C3A 3800   4.496   2.674   5.534
  276POPC   C4A 3801   4.846   2.667   5.824
  276POPC   C1B 3802   3.882   2.619   4.711
  276POPC   C2B 3803   3.691   2.501   5.111
  276POPC   C3B 3804   3.890   2.393   5.482
  276POPC   C4B 3805   4.081   2.588   5.835
  277POPC   NC3 3806   8.715   4.631   3.856
  277POPC   PO4 3807   8.772   4.018   3.850
  277POPC   GL1 3808   8.976   3.890   4.248
  277POPC   GL2 3809   9.090   4.185   4.426
  277POPC   C1A 3810   8.835   3.808   4.699
  277POPC   D2A 3811   8.682   3.700   5.138
  277POPC   C3A 3812   8.730   3.844   5.572
  277POPC   C4A 3813   8.522   4.143   5.823
  277POPC   C1B 3814   9.007   4.301   4.865
  277POPC   C2B 3815   8.969   4.186   5.305
  277POPC   C3B 3816   9.038   4.266   5.761
  277POPC   C4B 3817   8.824   4.348   6.173
  278POPC   NC3 3818   1.078   2.954   4.054
  278POPC   PO4 3819   1.260   3.600   3.869
  278POPC   GL1 3820   1.362   3.577   4.285
  278POPC   GL2 3821   1.065   3.396   4.349
  278POPC   C1A 3822   1.461   3.509   4.722
  278POPC   D2A 3823   1.635   3.447   5.145
  278POPC   C3A 3824   1.459   3.696   5.457
  278POPC   C4A 3825   1.442   3.502   5.827
  278POPC   C1B 3826   1.016   3.225   4.764
  278POPC   C2B 3827   1.113   3.469   5.147
  278POPC   C3B 3828   0.990   3.604   5.584
  278POPC   C4B 3829   0.913   3.217   5.759
  279POPC   NC3 3830   3.102   1.191   3.728
  279POPC   PO4 3831   2.717   1.443   4.153
  279POPC   GL1 3832   2.807   1.134   4.423
  279POPC   GL2 3833   2.526   0.892   4.358
  279POPC   C1A 3834   2.932   1.219   4.876
  279POPC   D2A 3835   3.253   1.328   5.202
  279POPC   C3A 3836   3.055   1.266   5.621
  279POPC   C4A 3837   2.999   1.029   6.026
  279POPC   C1B 3838   2.338   1.214   4.615
  279POPC   C2B 3839   2.334   1.154   4.995
  279POPC   C3B 3840   2.591   1.261   5.359
  279POPC   C4B 3841   2.575   1.183   5.796
  280POPC   NC3 3842   3.803  11.264   3.953
  280POPC   PO4 3843   3.102  11.396   3.807
  280POPC   GL1 3844   3.359  11.443   4.193
  280POPC   GL2 3845   3.464  11.106   4.302
  280POPC   C1A 3846   3.243  11.391   4.674
  280POPC   D2A 3847   3.334   0.042   5.113
  280POPC   C3A 3848   3.126  11.350   5.476
  280POPC   C4A 3849   3.335  11.209   5.849
  280POPC   C1B 3850   3.432  10.895   4.687
  280POPC   C2B 3851   3.455  11.058   5.075
  280POPC   C3B 3852   3.608  11.029   5.472
  280POPC   C4B 3853   3.539  10.747   5.816
  281POPC   NC3 3854   5.127   8.265   3.899
  281POPC   PO4 3855   4.874   8.802   3.956
  281POPC   GL1 3856   4.888   8.524   4.328
  281POPC   GL2 3857   5.145   8.252   4.407
  281POPC   C1A 3858   4.892   8.448   4.798
  281POPC   D2A 3859   4.968   8.136   5.121
  281POPC   C3A 3860   4.946   8.310   5.530
  281POPC   C4A 3861   4.627   8.404   5.868
  281POPC   C1B 3862   5.291   7.947   4.744
  281POPC   C2B 3863   5.225   7.689   5.122
  281POPC   C3B 3864   5.208   7.854   5.546
  281POPC   C4B 3865   5.450   8.182   5.777
  282POPC   NC3 3866   6.945   0.419   4.014
  282POPC   PO4 3867   6.265   0.367   3.850
  282POPC   GL1 3868   6.479   0.252   4.275
  282POPC   GL2 3869   6.137   0.202   4.448
  282POPC   C1A 3870   6.856   0.197   4.619
  282POPC   D2A 3871   6.981   0.359   5.032
  282POPC   C3A 3872   6.864   0.111   5.388
  282POPC   C4A 3873   6.723  11.340   5.716
  282POPC   C1B 3874   6.392   0.266   4.826
  282POPC   C2B 3875   6.512   0.477   5.197
  282POPC   C3B 3876   6.343   0.484   5.569
  282POPC   C4B 3877   6.574   0.292   5.809
  283POPC   NC3 3878   7.943  10.563   3.892
  283POPC   PO4 3879   8.482  10.046   3.945
  283POPC   GL1 3880   8.445  10.318   4.312
  283POPC   GL2 3881   8.120  10.328   4.298
  283POPC   C1A 3882   8.412  10.304   4.772
  283POPC   D2A 3883   8.425   9.931   5.077
  283POPC   C3A 3884   8.181  10.057   5.472
  283POPC   C4A 3885   8.096  10.220   5.923
  283POPC   C1B 3886   7.990  10.578   4.600
  283POPC   C2B 3887   8.020  10.700   5.028
  283POPC   C3B 3888   8.174  10.591   5.468
  283POPC   C4B 3889   7.964  10.725   5.856
  284POPC   NC3 3890   2.513   5.903   3.822
  284POPC   PO4 3891   3.209   5.913   3.689
  284POPC   GL1 3892   2.966   5.896   4.122
  284POPC   GL2 3893   2.645   5.768   4.303
  284POPC   C1A 3894   2.891   6.116   4.578
  284POPC   D2A 3895   2.746   6.140   5.052
  284POPC   C3A 3896   2.882   6.003   5.491
  284POPC   C4A 3897   2.783   6.087   5.941
  284POPC   C1B 3898   2.562   5.745   4.768
  284POPC   C2B 3899   2.629   5.652   5.219
  284POPC   C3B 3900   2.636   5.563   5.666
  284POPC   C4B 3901   2.441   5.726   6.059
  285POPC   NC3 3902   1.861   5.897   3.846
  285POPC   PO4 3903   2.343   5.508   3.982
  285POPC   GL1 3904   2.026   5.572   4.268
  285POPC   GL2 3905   1.958   5.889   4.351
  285POPC   C1A 3906   1.774   5.414   4.590
  285POPC   D2A 3907   1.637   5.474   5.019
  285POPC   C3A 3908   1.787   5.745   5.358
  285POPC   C4A 3909   1.632   5.673   5.790
  285POPC   C1B 3910   2.030   5.835   4.781
  285POPC   C2B 3911   2.234   6.025   5.126
  285POPC   C3B 3912   2.333   5.952   5.538
  285POPC   C4B 3913   2.040   5.943   5.859
  286POPC   NC3 3914   7.261   9.942   4.265
  286POPC   PO4 3915   7.297  10.520   3.869
  286POPC   GL1 3916   7.165  10.591   4.351
  286POPC   GL2 3917   7.179  10.286   4.603
  286POPC   C1A 3918   7.087  10.707   4.823
  286POPC   D2A 3919   7.214  10.398   5.187
  286POPC   C3A 3920   7.179  10.493   5.640
  286POPC   C4A 3921   7.138  10.683   6.105
  286POPC   C1B 3922   7.561  10.372   4.799
  286POPC   C2B 3923   7.768  10.277   5.181
  286POPC   C3B 3924   7.712  10.309   5.597
  286POPC   C4B 3925   7.554  10.417   5.960
  287POPC   NC3 3926   2.060   5.124   4.024
  287POPC   PO4 3927   2.374   4.638   3.948
  287POPC   GL1 3928   2.147   4.648   4.390
  287POPC   GL2 3929   2.060   4.978   4.502
  287POPC   C1A 3930   1.732   4.663   4.724
  287POPC   D2A 3931   1.514   4.956   5.045
  287POPC   C3A 3932   1.730   4.869   5.433
  287POPC   C4A 3933   1.960   4.575   5.744
  287POPC   C1B 3934   2.251   5.334   4.725
  287POPC   C2B 3935   2.164   5.499   5.141
  287POPC   C3B 3936   2.140   5.463   5.597
  287POPC   C4B 3937   2.062   5.073   5.786
  288POPC   NC3 3938   0.308   4.422   3.868
  288POPC   PO4 3939   0.395   3.835   4.007
  288POPC   GL1 3940   0.402   4.141   4.337
  288POPC   GL2 3941   0.705   4.308   4.336
  288POPC   C1A 3942   0.574   4.077   4.776
  288POPC   D2A 3943   0.462   3.912   5.175
  288POPC   C3A 3944   0.460   4.106   5.584
  288POPC   C4A 3945   0.269   4.514   5.654
  288POPC   C1B 3946   0.709   4.564   4.704
  288POPC   C2B 3947   0.809   4.393   5.112
  288POPC   C3B 3948   0.783   4.517   5.529
  288POPC   C4B 3949   0.682   4.438   5.967
  289POPC   NC3 3950   1.927   8.587   3.643
  289POPC   PO4 3951   2.218   9.153   3.770
  289POPC   GL1 3952   2.035   9.126   4.230
  289POPC   GL2 3953   1.985   8.749   4.287
  289POPC   C1A 3954   2.114   9.117   4.682
  289POPC   D2A 3955   1.870   9.094   5.090
  289POPC   C3A 3956   2.096   9.196   5.486
  289POPC   C4A 3957   2.200   8.894   5.768
  289POPC   C1B 3958   1.749   8.748   4.692
  289POPC   C2B 3959   1.607   8.565   5.064
  289POPC   C3B 3960   1.741   8.670   5.478
  289POPC   C4B 3961   1.655   9.036   5.684
  290POPC   NC3 3962   0.643   1.116   3.675
  290POPC   PO4 3963   0.188   1.520   3.958
  290POPC   GL1 3964   0.303   1.419   4.340
  290POPC   GL2 3965   0.557   1.188   4.218
  290POPC   C1A 3966   0.115   1.443   4.762
  290POPC   D2A 3967  11.462   1.691   5.116
  290POPC   C3A 3968   0.043   1.501   5.495
  290POPC   C4A 3969   0.405   1.486   5.764
  290POPC   C1B 3970   0.340   0.983   4.597
  290POPC   C2B 3971   0.258   0.914   5.043
  290POPC   C3B 3972   0.457   1.133   5.384
  290POPC   C4B 3973   0.756   1.106   5.726
  291POPC   NC3 3974   8.311   0.588   3.776
  291POPC   PO4 3975   8.088  11.487   3.955
  291POPC   GL1 3976   8.135   0.421   4.218
  291POPC   GL2 3977   7.882   0.668   4.380
  291POPC   C1A 3978   8.361   0.584   4.600
  291POPC   D2A 3979   8.374   0.405   5.054
  291POPC   C3A 3980   8.379   0.644   5.480
  291POPC   C4A 3981   8.201   0.640   5.931
  291POPC   C1B 3982   7.920   0.286   4.711
  291POPC   C2B 3983   7.933   0.137   5.193
  291POPC   C3B 3984   7.956   0.262   5.668
  291POPC   C4B 3985   7.830   0.164   6.143
  292POPC   NC3 3986   8.912   1.928   3.746
  292POPC   PO4 3987   9.236   1.489   4.125
  292POPC   GL1 3988   8.758   1.649   4.283
  292POPC   GL2 3989   8.665   2.001   4.173
  292POPC   C1A 3990   8.499   1.631   4.698
  292POPC   D2A 3991   8.598   1.820   5.124
  292POPC   C3A 3992   8.571   1.630   5.555
  292POPC   C4A 3993   8.571   1.775   5.992
  292POPC   C1B 3994   8.670   2.100   4.609
  292POPC   C2B 3995   8.592   2.317   5.010
  292POPC   C3B 3996   8.681   2.226   5.469
  292POPC   C4B 3997   9.112   2.087   5.628
  293POPC   NC3 3998   9.716  10.323   3.880
  293POPC   PO4 3999   9.132  10.135   4.000
  293POPC   GL1 4000   9.434  10.156   4.318
  293POPC   GL2 4001   9.678  10.395   4.368
  293POPC   C1A 4002   9.570  10.030   4.723
  293POPC   D2A 4003   9.469   9.838   5.096
  293POPC   C3A 4004   9.345  10.031   5.464
  293POPC   C4A 4005   9.706   9.907   5.683
  293POPC   C1B 4006   9.768  10.498   4.780
  293POPC   C2B 4007   9.531  10.430   5.152
  293POPC   C3B 4008   9.626  10.438   5.561
  293POPC   C4B 4009   9.954  10.688   5.684
  294POPC   NC3 4010   2.566   1.099   3.881
  294POPC   PO4 4011   1.945   0.867   3.863
  294POPC   GL1 4012   2.008   1.071   4.257
  294POPC   GL2 4013   2.021   1.441   4.268
  294POPC   C1A 4014   1.896   0.960   4.677
  294POPC   D2A 4015   1.818   0.979   5.098
  294POPC   C3A 4016   2.120   1.035   5.424
  294POPC   C4A 4017   2.094   1.053   5.838
  294POPC   C1B 4018   1.880   1.468   4.730
  294POPC   C2B 4019   2.093   1.566   5.147
  294POPC   C3B 4020   2.132   1.517   5.601
  294POPC   C4B 4021   1.771   1.422   5.867
  295POPC   NC3 4022   3.574   1.967   3.713
  295POPC   PO4 4023   3.885   2.502   3.952
  295POPC   GL1 4024   3.686   2.178   4.200
  295POPC   GL2 4025   3.367   2.044   4.236
  295POPC   C1A 4026   3.588   2.210   4.663
  295POPC   D2A 4027   3.579   1.889   4.981
  295POPC   C3A 4028   3.559   2.018   5.388
  295POPC   C4A 4029   3.791   1.971   5.761
  295POPC   C1B 4030   3.219   1.845   4.617
  295POPC   C2B 4031   3.037   1.788   5.022
  295POPC   C3B 4032   3.126   1.756   5.462
  295POPC   C4B 4033   3.286   1.957   5.823
  296POPC   NC3 4034   1.166   5.746   3.858
  296POPC   PO4 4035   1.718   5.390   3.847
  296POPC   GL1 4036   1.506   5.677   4.231
  296POPC   GL2 4037   1.152   5.841   4.346
  296POPC   C1A 4038   1.525   5.860   4.686
  296POPC   D2A 4039   1.293   5.876   5.108
  296POPC   C3A 4040   1.439   6.056   5.519
  296POPC   C4A 4041   1.327   6.073   5.980
  296POPC   C1B 4042   0.936   5.768   4.734
  296POPC   C2B 4043   0.760   5.787   5.131
  296POPC   C3B 4044   0.962   5.840   5.533
  296POPC   C4B 4045   1.113   5.611   5.901
  297POPC   NC3 4046   0.193   9.717   4.106
  297POPC   PO4 4047   0.850   9.844   3.838
  297POPC   GL1 4048   0.784   9.711   4.262
  297POPC   GL2 4049   0.734   9.359   4.330
  297POPC   C1A 4050   0.855   9.921   4.661
  297POPC   D2A 4051   0.629   9.977   5.037
  297POPC   C3A 4052   0.824   9.925   5.417
  297POPC   C4A 4053   0.724  10.076   5.828
  297POPC   C1B 4054   0.500   9.534   4.718
  297POPC   C2B 4055   0.327   9.598   5.167
  297POPC   C3B 4056   0.399   9.691   5.624
  297POPC   C4B 4057   0.446   9.522   6.051
  298POPC   NC3 4058   0.126   2.808   3.868
  298POPC   PO4 4059   0.652   2.310   4.003
  298POPC   GL1 4060   0.641   2.695   4.250
  298POPC   GL2 4061   0.315   2.881   4.321
  298POPC   C1A 4062   0.609   2.735   4.700
  298POPC   D2A 4063   0.623   2.973   5.053
  298POPC   C3A 4064   0.603   2.744   5.439
  298POPC   C4A 4065   0.507   2.733   5.883
  298POPC   C1B 4066   0.077   2.862   4.688
  298POPC   C2B 4067   0.128   2.934   5.137
  298POPC   C3B 4068   0.109   2.794   5.550
  298POPC   C4B 4069   0.112   2.391   5.720
  299POPC   NC3 4070   7.331   2.359   3.848
  299POPC   PO4 4071   7.664   2.787   4.093
  299POPC   GL1 4072   7.436   2.664   4.441
  299POPC   GL2 4073   7.134   2.465   4.325
  299POPC   C1A 4074   7.476   2.748   4.889
  299POPC   D2A 4075   7.650   2.647   5.285
  299POPC   C3A 4076   7.413   2.734   5.650
  299POPC   C4A 4077   7.184   3.103   5.810
  299POPC   C1B 4078   7.149   2.362   4.782
  299POPC   C2B 4079   7.122   2.542   5.215
  299POPC   C3B 4080   6.908   2.740   5.568
  299POPC   C4B 4081   7.003   2.654   6.002
  300POPC   NC3 4082   1.422  10.282   3.959
  300POPC   PO4 4083   0.852  10.570   3.635
  300POPC   GL1 4084   0.919  10.542   4.113
  300POPC   GL2 4085   0.923  10.210   4.217
  300POPC   C1A 4086   0.823  10.534   4.618
  300POPC   D2A 4087   0.988  10.330   5.053
  300POPC   C3A 4088   1.025  10.410   5.541
  300POPC   C4A 4089   1.117  10.562   6.019
  300POPC   C1B 4090   1.239  10.266   4.588
  300POPC   C2B 4091   1.515  10.357   4.941
  300POPC   C3B 4092   1.539  10.532   5.364
  300POPC   C4B 4093   1.497  10.365   5.776
  301POPC   NC3 4094   8.855   1.386   3.863
  301POPC   PO4 4095   8.756   0.700   3.742
  301POPC   GL1 4096   8.734   0.751   4.227
  301POPC   GL2 4097   8.856   1.087   4.262
  301POPC   C1A 4098   8.851   0.830   4.700
  301POPC   D2A 4099   9.144   0.985   5.026
  301POPC   C3A 4100   8.964   1.058   5.474
  301POPC   C4A 4101   9.136   1.057   5.911
  301POPC   C1B 4102   8.899   1.321   4.643
  301POPC   C2B 4103   8.823   1.374   5.045
  301POPC   C3B 4104   9.069   1.572   5.339
  301POPC   C4B 4105   9.097   1.589   5.769
  302POPC   NC3 4106   0.074   1.022   3.990
  302POPC   PO4 4107  10.949   0.847   3.942
  302POPC   GL1 4108  11.166   1.053   4.317
  302POPC   GL2 4109  11.273   1.419   4.353
  302POPC   C1A 4110  11.328   0.991   4.745
  302POPC   D2A 4111  11.183   0.881   5.180
  302POPC   C3A 4112  11.469   0.985   5.501
  302POPC   C4A 4113  11.469   0.888   5.926
  302POPC   C1B 4114  11.086   1.501   4.790
  302POPC   C2B 4115  11.066   1.374   5.237
  302POPC   C3B 4116  11.028   1.201   5.650
  302POPC   C4B 4117  10.890   1.420   6.046
  303POPC   NC3 4118   2.093   8.030   3.932
  303POPC   PO4 4119   1.511   7.746   3.800
  303POPC   GL1 4120   1.699   7.883   4.217
  303POPC   GL2 4121   1.886   8.224   4.349
  303POPC   C1A 4122   1.874   7.813   4.625
  303POPC   D2A 4123   1.727   7.910   5.036
  303POPC   C3A 4124   1.855   8.032   5.416
  303POPC   C4A 4125   1.719   7.702   5.688
  303POPC   C1B 4126   1.999   8.299   4.783
  303POPC   C2B 4127   2.135   8.556   5.147
  303POPC   C3B 4128   2.176   8.421   5.580
  303POPC   C4B 4129   2.027   8.110   5.888
  304POPC   NC3 4130   0.589   5.493   3.479
  304POPC   PO4 4131   0.737   5.753   4.038
  304POPC   GL1 4132   0.608   5.624   4.380
  304POPC   GL2 4133   0.285   5.773   4.303
  304POPC   C1A 4134   0.338   5.464   4.702
  304POPC   D2A 4135   0.212   5.626   5.090
  304POPC   C3A 4136   0.256   5.436   5.488
  304POPC   C4A 4137   0.436   5.672   5.831
  304POPC   C1B 4138   0.466   5.973   4.698
  304POPC   C2B 4139   0.341   6.109   5.051
  304POPC   C3B 4140   0.438   6.018   5.454
  304POPC   C4B 4141   0.258   6.133   5.821
  305POPC   NC3 4142  10.385   6.434   3.830
  305POPC   PO4 4143  10.079   6.905   4.150
  305POPC   GL1 4144  10.316   6.539   4.334
  305POPC   GL2 4145  10.680   6.521   4.383
  305POPC   C1A 4146  10.350   6.335   4.743
  305POPC   D2A 4147  10.148   6.465   5.122
  305POPC   C3A 4148  10.263   6.377   5.532
  305POPC   C4A 4149  10.324   6.628   5.873
  305POPC   C1B 4150  10.758   6.622   4.800
  305POPC   C2B 4151  10.657   6.545   5.241
  305POPC   C3B 4152  10.779   6.634   5.680
  305POPC   C4B 4153  10.729   6.573   6.157
  306POPC   NC3 4154   9.236  10.940   3.945
  306POPC   PO4 4155   9.952  10.714   4.015
  306POPC   GL1 4156   9.611  10.898   4.326
  306POPC   GL2 4157   9.522  11.260   4.249
  306POPC   C1A 4158   9.484  10.899   4.814
  306POPC   D2A 4159   9.685  10.962   5.234
  306POPC   C3A 4160   9.496  10.913   5.646
  306POPC   C4A 4161   9.375  10.686   6.039
  306POPC   C1B 4162   9.697  11.334   4.667
  306POPC   C2B 4163   9.524  11.473   5.072
  306POPC   C3B 4164   9.637  11.402   5.503
  306POPC   C4B 4165  10.007  11.174   5.660
  307POPC   NC3 4166   7.467   9.083   3.795
  307POPC   PO4 4167   7.866   8.543   4.039
  307POPC   GL1 4168   7.467   8.727   4.301
  307POPC   GL2 4169   7.208   8.948   4.224
  307POPC   C1A 4170   7.508   9.032   4.709
  307POPC   D2A 4171   7.448   8.919   5.176
  307POPC   C3A 4172   7.755   8.896   5.517
  307POPC   C4A 4173   7.761   8.872   5.948
  307POPC   C1B 4174   7.008   9.023   4.659
  307POPC   C2B 4175   7.036   9.202   5.115
  307POPC   C3B 4176   7.011   8.906   5.442
  307POPC   C4B 4177   7.294   8.875   5.743
  308POPC   NC3 4178   9.647   4.981   3.942
  308POPC   PO4 4179   9.131   4.552   4.052
  308POPC   GL1 4180   9.399   4.630   4.411
  308POPC   GL2 4181   9.590   4.956   4.435
  308POPC   C1A 4182   9.452   4.710   4.864
  308POPC   D2A 4183   9.449   4.964   5.239
  308POPC   C3A 4184   9.479   4.759   5.641
  308POPC   C4A 4185   9.133   4.741   5.954
  308POPC   C1B 4186   9.895   4.963   4.760
  308POPC   C2B 4187   9.904   5.171   5.149
  308POPC   C3B 4188   9.771   5.192   5.590
  308POPC   C4B 4189   9.906   5.291   6.019
  309POPC   NC3 4190  11.007   9.392   3.885
  309POPC   PO4 4191   0.059   9.277   4.023
  309POPC   GL1 4192  11.285   9.518   4.321
  309POPC   GL2 4193  10.925   9.429   4.374
  309POPC   C1A 4194  11.452   9.598   4.760
  309POPC   D2A 4195  11.256   9.658   5.155
  309POPC   C3A 4196  11.414   9.545   5.543
  309POPC   C4A 4197  11.499   9.188   5.815
  309POPC   C1B 4198  10.921   9.600   4.745
  309POPC   C2B 4199  10.753   9.543   5.122
  309POPC   C3B 4200  10.875   9.616   5.517
  309POPC   C4B 4201  10.981   9.684   5.945
  310POPC   NC3 4202   9.742   3.305   3.616
  310POPC   PO4 4203   9.753   3.880   3.985
  310POPC   GL1 4204   9.677   3.647   4.352
  310POPC   GL2 4205   9.611   3.272   4.385
  310POPC   C1A 4206   9.699   3.769   4.781
  310POPC   D2A 4207   9.865   4.003   5.125
  310POPC   C3A 4208   9.909   3.758   5.503
  310POPC   C4A 4209   9.792   3.676   5.932
  310POPC   C1B 4210   9.713   3.254   4.812
  310POPC   C2B 4211   9.578   3.475   5.192
  310POPC   C3B 4212   9.526   3.381   5.634
  310POPC   C4B 4213   9.746   3.145   5.979
  311POPC   NC3 4214   3.190   0.341   3.691
  311POPC   PO4 4215   3.732   0.230   3.963
  311POPC   GL1 4216   3.493   0.438   4.327
  311POPC   GL2 4217   3.718   0.730   4.391
  311POPC   C1A 4218   3.283   0.413   4.758
  311POPC   D2A 4219   3.015   0.440   5.156
  311POPC   C3A 4220   3.254   0.348   5.539
  311POPC   C4A 4221   3.628   0.048   5.570
  311POPC   C1B 4222   3.773   0.541   4.795
  311POPC   C2B 4223   3.642   0.457   5.215
  311POPC   C3B 4224   3.737   0.559   5.660
  311POPC   C4B 4225   3.783   0.739   6.099
  312POPC   NC3 4226   4.368  10.843   3.933
  312POPC   PO4 4227   4.195  10.102   3.905
  312POPC   GL1 4228   4.175  10.373   4.243
  312POPC   GL2 4229   4.515  10.438   4.221
  312POPC   C1A 4230   4.216  10.223   4.674
  312POPC   D2A 4231   4.019  10.205   5.078
  312POPC   C3A 4232   4.263  10.173   5.462
  312POPC   C4A 4233   4.219  10.074   5.941
  312POPC   C1B 4234   4.403  10.692   4.582
  312POPC   C2B 4235   4.365  10.592   5.007
  312POPC   C3B 4236   4.315  10.709   5.421
  312POPC   C4B 4237   4.321  10.533   5.807
  313POPC   NC3 4238   0.023   1.898   3.732
  313POPC   PO4 4239  10.867   2.006   3.795
  313POPC   GL1 4240  11.003   2.113   4.240
  313POPC   GL2 4241  11.354   2.036   4.210
  313POPC   C1A 4242  10.876   2.057   4.715
  313POPC   D2A 4243  10.886   1.856   5.149
  313POPC   C3A 4244  10.750   2.074   5.535
  313POPC   C4A 4245  10.955   2.258   5.894
  313POPC   C1B 4246  11.385   1.949   4.655
  313POPC   C2B 4247  11.293   2.166   5.057
  313POPC   C3B 4248  11.264   2.051   5.485
  313POPC   C4B 4249  11.080   1.705   5.665
  314POPC   NC3 4250  11.099   5.018   3.978
  314POPC   PO4 4251   0.109   5.473   3.833
  314POPC   GL1 4252  11.453   5.256   4.258
  314POPC   GL2 4253  11.075   5.305   4.396
  314POPC   C1A 4254  11.404   4.952   4.634
  314POPC   D2A 4255   0.096   5.104   5.064
  314POPC   C3A 4256  11.483   4.912   5.469
  314POPC   C4A 4257  11.464   4.983   5.920
  314POPC   C1B 4258  11.328   5.433   4.763
  314POPC   C2B 4259  11.248   5.469   5.213
  314POPC   C3B 4260  11.212   5.340   5.656
  314POPC   C4B 4261  10.924   5.067   5.927
  315POPC   NC3 4262  11.126  10.405   3.914
  315POPC   PO4 4263   0.114  10.852   3.700
  315POPC   GL1 4264  11.448  10.731   4.194
  315POPC   GL2 4265  11.411  10.392   4.362
  315POPC   C1A 4266  11.365  10.850   4.685
  315POPC   D2A 4267  11.307  10.969   5.149
  315POPC   C3A 4268   0.024  10.659   5.486
  315POPC   C4A 4269  11.346  10.514   5.883
  315POPC   C1B 4270  11.200  10.057   4.650
  315POPC   C2B 4271  10.919  10.033   5.042
  315POPC   C3B 4272  11.087  10.069   5.482
  315POPC   C4B 4273  11.466  10.030   5.729
  316POPC   NC3 4274   6.316  10.336   3.950
  316POPC   PO4 4275   6.875   9.930   4.015
  316POPC   GL1 4276   6.735  10.244   4.347
  316POPC   GL2 4277   6.463  10.514   4.387
  316POPC   C1A 4278   6.718  10.354   4.798
  316POPC   D2A 4279   6.708  10.573   5.187
  316POPC   C3A 4280   6.693  10.329   5.549
  316POPC   C4A 4281   6.715  10.457   5.968
  316POPC   C1B 4282   6.231  10.496   4.758
  316POPC   C2B 4283   6.211  10.295   5.136
  316POPC   C3B 4284   6.180  10.439   5.553
  316POPC   C4B 4285   6.308  10.145   5.854
  317POPC   NC3 4286   5.728   9.904   3.898
  317POPC   PO4 4287   5.561   9.263   4.093
  317POPC   GL1 4288   5.766   9.601   4.309
  317POPC   GL2 4289   5.604   9.890   4.399
  317POPC   C1A 4290   5.982   9.691   4.684
  317POPC   D2A 4291   5.888   9.790   5.107
  317POPC   C3A 4292   5.881   9.419   5.377
  317POPC   C4A 4293   5.678   9.201   5.759
  317POPC   C1B 4294   5.448   9.829   4.818
  317POPC   C2B 4295   5.396   9.858   5.262
  317POPC   C3B 4296   5.490   9.663   5.629
  317POPC   C4B 4297   5.883   9.684   5.799
  318POPC   NC3 4298   2.648   3.400   3.927
  318POPC   PO4 4299   2.531   4.014   3.865
  318POPC   GL1 4300   2.607   3.701   4.339
  318POPC   GL2 4301   2.667   3.311   4.405
  318POPC   C1A 4302   2.383   3.509   4.763
  318POPC   D2A 4303   2.280   3.701   5.158
  318POPC   C3A 4304   2.444   3.511   5.480
  318POPC   C4A 4305   2.635   3.464   5.891
  318POPC   C1B 4306   2.900   3.504   4.738
  318POPC   C2B 4307   3.064   3.316   5.110
  318POPC   C3B 4308   2.985   3.295   5.555
  318POPC   C4B 4309   3.092   3.665   5.828
  319POPC   NC3 4310  11.028   2.439   3.814
  319POPC   PO4 4311  11.235   3.099   3.859
  319POPC   GL1 4312  11.301   2.966   4.241
  319POPC   GL2 4313  11.294   2.621   4.212
  319POPC   C1A 4314  11.051   2.931   4.579
  319POPC   D2A 4315  10.730   3.077   4.861
  319POPC   C3A 4316  10.861   2.950   5.255
  319POPC   C4A 4317  10.963   3.080   5.658
  319POPC   C1B 4318  11.230   2.445   4.589
  319POPC   C2B 4319  11.205   2.659   4.989
  319POPC   C3B 4320  11.194   2.554   5.416
  319POPC   C4B 4321  11.196   2.690   5.845
  320POPC   NC3 4322   9.370   4.152   3.996
  320POPC   PO4 4323   9.952   4.563   3.869
  320POPC   GL1 4324   9.893   4.538   4.319
  320POPC   GL2 4325   9.750   4.210   4.373
  320POPC   C1A 4326   9.931   4.452   4.797
  320POPC   D2A 4327   9.856   4.641   5.200
  320POPC   C3A 4328   9.790   4.360   5.506
  320POPC   C4A 4329   9.646   4.324   5.872
  320POPC   C1B 4330   9.490   4.217   4.730
  320POPC   C2B 4331   9.439   4.288   5.161
  320POPC   C3B 4332   9.428   3.987   5.511
  320POPC   C4B 4333   9.356   3.913   5.955
  321POPC   NC3 4334   7.261  10.061   3.769
  321POPC   PO4 4335   7.085   9.360   3.813
  321POPC   GL1 4336   7.110   9.458   4.269
  321POPC   GL2 4337   7.462   9.407   4.286
  321POPC   C1A 4338   7.228   9.477   4.746
  321POPC   D2A 4339   7.585   9.394   5.102
  321POPC   C3A 4340   7.460   9.326   5.530
  321POPC   C4A 4341   7.048   9.385   5.684
  321POPC   C1B 4342   7.712   9.562   4.650
  321POPC   C2B 4343   7.479   9.875   4.936
  321POPC   C3B 4344   7.238   9.737   5.293
  321POPC   C4B 4345   7.231   9.992   5.663
  322POPC   NC3 4346  10.332  10.432   3.990
  322POPC   PO4 4347  10.910  10.593   4.288
  322POPC   GL1 4348  10.523  10.452   4.484
  322POPC   GL2 4349  10.170  10.557   4.453
  322POPC   C1A 4350  10.414  10.383   4.909
  322POPC   D2A 4351  10.541  10.266   5.318
  322POPC   C3A 4352  10.821  10.493   5.617
  322POPC   C4A 4353  11.071  10.867   5.607
  322POPC   C1B 4354  10.079  10.132   4.610
  322POPC   C2B 4355   9.957  10.113   5.071
  322POPC   C3B 4356  10.078  10.199   5.505
  322POPC   C4B 4357  10.354  10.400   5.810
  323POPC   NC3 4358   2.487  10.369   3.856
  323POPC   PO4 4359   1.830  10.033   3.900
  323POPC   GL1 4360   1.955  10.341   4.186
  323POPC   GL2 4361   1.702  10.175   4.383
  323POPC   C1A 4362   1.902  10.585   4.583
  323POPC   D2A 4363   1.947  10.674   5.006
  323POPC   C3A 4364   2.087  10.463   5.367
  323POPC   C4A 4365   1.939  10.634   5.742
  323POPC   C1B 4366   1.941  10.110   4.752
  323POPC   C2B 4367   1.778   9.924   5.117
  323POPC   C3B 4368   1.812  10.079   5.517
  323POPC   C4B 4369   2.154  10.178   5.824
  324POPC   NC3 4370   2.665   9.230   3.710
  324POPC   PO4 4371   2.767   9.922   3.684
  324POPC   GL1 4372   2.610   9.915   4.247
  324POPC   GL2 4373   2.853   9.657   4.497
  324POPC   C1A 4374   2.502   9.876   4.756
  324POPC   D2A 4375   2.704   9.548   5.061
  324POPC   C3A 4376   2.548   9.545   5.495
  324POPC   C4A 4377   2.527   9.836   5.835
  324POPC   C1B 4378   3.078   9.875   4.843
  324POPC   C2B 4379   3.076   9.902   5.303
  324POPC   C3B 4380   2.984   9.704   5.696
  324POPC   C4B 4381   3.000   9.869   6.129
  325POPC   NC3 4382  10.258   8.652   3.884
  325POPC   PO4 4383  10.623   9.256   3.670
  325POPC   GL1 4384  10.624   9.102   4.109
  325POPC   GL2 4385  10.341   8.973   4.260
  325POPC   C1A 4386  10.763   8.960   4.555
  325POPC   D2A 4387  10.799   8.633   4.898
  325POPC   C3A 4388  10.810   8.778   5.304
  325POPC   C4A 4389  10.585   8.805   5.655
  325POPC   C1B 4390  10.266   8.926   4.702
  325POPC   C2B 4391  10.313   8.808   5.143
  325POPC   C3B 4392  10.072   8.962   5.488
  325POPC   C4B 4393  10.223   9.083   5.875
  326POPC   NC3 4394  10.129   4.108   3.869
  326POPC   PO4 4395  10.668   4.531   3.879
  326POPC   GL1 4396  10.581   4.196   4.157
  326POPC   GL2 4397  10.274   4.191   4.336
  326POPC   C1A 4398  10.718   4.059   4.580
  326POPC   D2A 4399  10.950   4.110   4.970
  326POPC   C3A 4400  10.763   4.044   5.365
  326POPC   C4A 4401  10.679   4.276   5.732
  326POPC   C1B 4402  10.200   4.007   4.713
  326POPC   C2B 4403  10.348   4.221   5.068
  326POPC   C3B 4404  10.279   4.393   5.463
  326POPC   C4B 4405  10.125   4.123   5.817
  327POPC   NC3 4406   2.453   8.908   4.096
  327POPC   PO4 4407   3.076   9.047   3.820
  327POPC   GL1 4408   2.930   8.977   4.280
  327POPC   GL2 4409   2.842   8.619   4.279
  327POPC   C1A 4410   2.682   9.044   4.718
  327POPC   D2A 4411   2.403   9.047   5.104
  327POPC   C3A 4412   2.616   9.057   5.508
  327POPC   C4A 4413   3.025   9.177   5.647
  327POPC   C1B 4414   2.975   8.618   4.727
  327POPC   C2B 4415   2.799   8.713   5.154
  327POPC   C3B 4416   2.704   8.574   5.597
  327POPC   C4B 4417   3.052   8.671   5.883
  328POPC   NC3 4418   0.692   2.656   3.710
  328POPC   PO4 4419   1.406   2.620   3.920
  328POPC   GL1 4420   1.129   2.456   4.261
  328POPC   GL2 4421   1.471   2.352   4.427
  328POPC   C1A 4422   1.032   2.399   4.697
  328POPC   D2A 4423   1.061   2.735   4.968
  328POPC   C3A 4424   1.063   2.936   5.334
  328POPC   C4A 4425   1.018   2.731   5.744
  328POPC   C1B 4426   1.396   2.774   4.577
  328POPC   C2B 4427   1.478   3.023   4.902
  328POPC   C3B 4428   1.662   2.957   5.264
  328POPC   C4B 4429   1.436   3.049   5.641
  329POPC   NC3 4430   5.355   2.227   3.983
  329POPC   PO4 4431   5.987   1.948   3.971
  329POPC   GL1 4432   5.895   1.771   4.362
  329POPC   GL2 4433   5.554   1.890   4.360
  329POPC   C1A 4434   5.828   1.661   4.801
  329POPC   D2A 4435   5.912   1.899   5.166
  329POPC   C3A 4436   6.087   1.782   5.555
  329POPC   C4A 4437   6.090   2.202   5.739
  329POPC   C1B 4438   5.343   1.832   4.771
  329POPC   C2B 4439   5.426   1.797   5.226
  329POPC   C3B 4440   5.597   1.923   5.622
  329POPC   C4B 4441   5.678   1.633   5.944
  330POPC   NC3 4442  10.022   9.321   4.045
  330POPC   PO4 4443  10.011   9.912   3.760
  330POPC   GL1 4444  10.214   9.764   4.200
  330POPC   GL2 4445  10.544   9.638   4.103
  330POPC   C1A 4446  10.400   9.456   4.585
  330POPC   D2A 4447  10.282   9.331   5.040
  330POPC   C3A 4448  10.488   9.271   5.456
  330POPC   C4A 4449  10.495   9.509   5.864
  330POPC   C1B 4450  10.579   9.927   4.518
  330POPC   C2B 4451  10.387   9.856   4.947
  330POPC   C3B 4452  10.381   9.782   5.404
  330POPC   C4B 4453  10.622   9.990   5.727
  331POPC   NC3 4454   3.178  10.041   3.481
  331POPC   PO4 4455   2.955  10.489   3.846
  331POPC   GL1 4456   2.892  10.344   4.239
  331POPC   GL2 4457   2.685  10.586   4.313
  331POPC   C1A 4458   2.865  10.327   4.702
  331POPC   D2A 4459   2.951  10.407   5.124
  331POPC   C3A 4460   2.680  10.219   5.436
  331POPC   C4A 4461   2.849  10.245   5.827
  331POPC   C1B 4462   2.373  10.339   4.532
  331POPC   C2B 4463   2.401  10.352   4.980
  331POPC   C3B 4464   2.540  10.695   5.279
  331POPC   C4B 4465   2.478  10.627   5.732
  332POPC   NC3 4466   8.689   8.200   3.845
  332POPC   PO4 4467   9.247   7.832   3.651
  332POPC   GL1 4468   9.075   7.976   4.143
  332POPC   GL2 4469   9.074   8.330   4.247
  332POPC   C1A 4470   9.289   7.982   4.606
  332POPC   D2A 4471   9.206   7.894   5.072
  332POPC   C3A 4472   9.031   7.927   5.498
  332POPC   C4A 4473   9.182   7.719   5.852
  332POPC   C1B 4474   8.827   8.161   4.650
  332POPC   C2B 4475   8.710   8.070   5.120
  332POPC   C3B 4476   8.563   8.181   5.585
  332POPC   C4B 4477   8.475   8.321   6.049
  333POPC   NC3 4478   2.759   4.395   3.947
  333POPC   PO4 4479   3.237   4.596   4.268
  333POPC   GL1 4480   2.729   4.578   4.410
  333POPC   GL2 4481   2.510   4.241   4.379
  333POPC   C1A 4482   2.513   4.510   4.810
  333POPC   D2A 4483   2.711   4.322   5.197
  333POPC   C3A 4484   2.565   4.510   5.578
  333POPC   C4A 4485   2.672   4.738   5.955
  333POPC   C1B 4486   2.564   3.988   4.786
  333POPC   C2B 4487   2.768   3.804   5.181
  333POPC   C3B 4488   2.670   3.948   5.626
  333POPC   C4B 4489   2.846   4.210   5.953
  334POPC   NC3 4490   8.870   9.777   3.953
  334POPC   PO4 4491   8.448   9.317   4.149
  334POPC   GL1 4492   8.775   9.490   4.363
  334POPC   GL2 4493   8.799   9.860   4.423
  334POPC   C1A 4494   8.726   9.528   4.803
  334POPC   D2A 4495   8.758   9.487   5.210
  334POPC   C3A 4496   8.513   9.449   5.556
  334POPC   C4A 4497   8.798   9.467   5.898
  334POPC   C1B 4498   8.855  10.055   4.783
  334POPC   C2B 4499   8.971   9.932   5.135
  334POPC   C3B 4500   8.832   9.865   5.536
  334POPC   C4B 4501   8.949   9.938   5.940
  335POPC   NC3 4502   0.297   7.018   3.971
  335POPC   PO4 4503   0.046   7.611   3.804
  335POPC   GL1 4504   0.128   7.501   4.229
  335POPC   GL2 4505   0.479   7.480   4.236
  335POPC   C1A 4506   0.292   7.567   4.682
  335POPC   D2A 4507   0.315   7.334   5.052
  335POPC   C3A 4508   0.349   7.544   5.450
  335POPC   C4A 4509   0.190   7.363   5.845
  335POPC   C1B 4510   0.534   7.118   4.567
  335POPC   C2B 4511   0.669   6.943   4.977
  335POPC   C3B 4512   0.722   7.197   5.363
  335POPC   C4B 4513   0.713   7.375   5.806
  336POPC   NC3 4514   4.435   1.497   3.458
  336POPC   PO4 4515   4.471   1.493   4.091
  336POPC   GL1 4516   4.365   1.402   4.468
  336POPC   GL2 4517   4.243   1.069   4.413
  336POPC   C1A 4518   4.527   1.238   4.838
  336POPC   D2A 4519   4.355   1.018   5.182
  336POPC   C3A 4520   4.444   1.194   5.591
  336POPC   C4A 4521   4.438   1.418   5.995
  336POPC   C1B 4522   3.919   1.043   4.758
  336POPC   C2B 4523   3.811   0.966   5.204
  336POPC   C3B 4524   3.943   1.105   5.612
  336POPC   C4B 4525   3.950   1.260   6.026
  337POPC   NC3 4526   2.765   0.126   4.002
  337POPC   PO4 4527   2.933   0.746   3.766
  337POPC   GL1 4528   2.972   0.613   4.264
  337POPC   GL2 4529   2.910   0.266   4.459
  337POPC   C1A 4530   2.879   0.728   4.732
  337POPC   D2A 4531   2.663   0.802   5.153
  337POPC   C3A 4532   2.863   0.751   5.588
  337POPC   C4A 4533   2.786   0.554   6.014
  337POPC   C1B 4534   2.566   0.329   4.788
  337POPC   C2B 4535   2.492   0.328   5.250
  337POPC   C3B 4536   2.726   0.233   5.614
  337POPC   C4B 4537   2.590  11.470   5.958
  338W        W 4538   4.588   7.124   1.907
  339W        W 4539   5.147   6.015   0.002
  340W        W 4540   7.845   4.660  10.372
  341W        W 4541  10.038   0.237  10.631
  342W        W 4542   0.153   4.712   3.440
  343W        W 4543   7.478   3.857  10.486
  344W        W 4544  10.854   8.797  11.761
  345W        W 4545   8.574   3.197   8.927
  346W        W 4546   1.427   0.935   0.942
  347W        W 4547   1.256   6.503  10.840
  348W        W 4548   4.350   9.014   2.231
  349W        W 4549   7.657   6.529   2.734
  350W        W 4550  11.341   1.018   2.121
  351W        W 4551  10.027   2.844   3.675
  352W        W 4552   0.503  11.424   3.233
  353W        W 4553   2.236  10.434  10.431
  354W        W 4554  10.717   5.803  11.466
  355W        W 4555   3.812   7.627   0.885
  356W        W 4556  11.497   8.169  11.808
  357W        W 4557  11.099   8.001   2.225
  358W        W 4558   5.983   3.639   7.950
  359W        W 4559   5.975   4.073   3.946
  360W        W 4560   2.536   3.021   0.103
  361W        W 4561   9.180   5.281   2.895
  362W        W 4562   2.417  10.329   0.431
  363W        W 4563   2.599  10.746   3.517
  364W        W 4564   4.627   0.369   0.466
  365W        W 4565   6.215   0.387   2.808
  366W        W 4566   2.351   5.767   0.955
  367W        W 4567   9.319  11.153  10.288
  368W        W 4568   7.267   6.151  10.505
  369W        W 4569   5.807   6.846  11.522
  370W        W 4570  11.296  10.568  11.302
  371W        W 4571   2.213  10.844   3.213
  372W        W 4572   7.954   8.417   1.845
  373W        W 4573   7.008   4.730   1.430
  374W        W 4574   0.900   1.395  10.455
  375W        W 4575   5.655   0.496   0.011
  376W        W 4576  10.448   2.781   3.158
  377W        W 4577   2.686   8.711   3.681
  378W        W 4578   3.269   8.594   0.845
  379W        W 4579   5.251   2.424  10.767
  380W        W 4580   2.704   2.567   9.892
  381W        W 4581   2.611   4.720   3.349
  382W        W 4582   3.913   9.026   3.036
  383W        W 4583   6.076   0.503   9.318
  384W        W 4584   6.763   6.475   2.010
  385W        W 4585   5.847   4.136   8.161
  386W        W 4586   0.615   2.467  11.840
  387W        W 4587   1.741   5.375  10.376
  388W        W 4588   0.583   2.806   0.695
  389W        W 4589   3.210   1.535   0.020
  390W        W 4590   6.609   1.005   0.889
  391W        W 4591   6.071   7.403  10.280
  392W        W 4592   4.444   8.926   0.756
  393W        W 4593   2.655   4.130   9.787
  394W        W 4594   3.696   4.747  11.660
  395W        W 4595  10.778   6.740  11.081
  396W        W 4596   0.945  10.515   2.762
  397W        W 4597   9.555   0.313   1.958
  398W        W 4598   8.934   2.465  10.959
  399W        W 4599   9.216   8.956   2.996
  400W        W 4600   9.137  10.832   9.941
  401W        W 4601   8.997  11.301   1.675
  402W        W 4602   9.048   9.548   9.916
  403W        W 4603   5.255   9.286   1.359
  404W        W 4604   9.384  10.432  11.443
  405W        W 4605   7.669   5.230   0.730
  406W        W 4606   1.493   2.799   1.472
  407W        W 4607   3.851   4.648   2.741
  408W        W 4608   5.685  10.344  11.322
  409W        W 4609  10.480   3.219   9.036
  410W        W 4610   9.875  10.588  11.407
  411W        W 4611   4.257   1.766  10.591
  412W        W 4612   3.200   8.196   9.579
  413W        W 4613  10.509   4.645   1.472
  414W        W 4614   1.113   8.349   8.840
  415W        W 4615  11.361   4.365   0.552
  416W        W 4616  10.462   7.401   1.665
  417W        W 4617   6.563   7.582  11.465
  418W        W 4618   5.524   6.161   0.313
  419W        W 4619   4.209   2.816   0.449
  420W        W 4620   4.713   6.230   0.156
  421W        W 4621   8.049   9.980  10.877
  422W        W 4622   9.466  11.305   1.899
  423W        W 4623   4.306   0.157   9.742
  424W        W 4624   7.088   4.294   0.086
  425W        W 4625   9.087   7.207   3.455
  426W        W 4626   9.463   4.241  11.528
  427W        W 4627   5.419   3.562   9.135
  428W        W 4628  10.607   8.854   0.336
  429W        W 4629   5.659  11.246   2.207
  430W        W 4630   5.705   4.500   2.947
  431W        W 4631   5.113  11.475  10.598
  432W        W 4632   5.762   3.262  10.299
  433W        W 4633  10.936   8.055  11.113
  434W        W 4634   1.808   3.247   3.112
  435W        W 4635  11.244   0.397  10.825
  436W        W 4636   5.993  10.066  11.716
  437W        W 4637   3.593   5.176   8.110
  438W        W 4638   4.756   8.925   8.160
  439W        W 4639   2.242  10.246   9.873
  440W        W 4640   1.772   9.812   0.021
  441W        W 4641   6.970   2.672   1.611
  442W        W 4642  10.031   2.374  10.870
  443W        W 4643   0.352   0.400   9.004
  444W        W 4644   6.465   0.170  11.028
  445W        W 4645   6.484   3.819   9.851
  446W        W 4646   0.997   6.245   3.954
  447W        W 4647   9.296   9.394   8.927
  448W        W 4648   5.262   7.343   1.677
  449W        W 4649  10.232   7.675   0.846
  450W        W 4650   9.127   5.043  11.947
  451W        W 4651   4.981  10.537  10.646
  452W        W 4652   1.360   3.406  10.632
  453W        W 4653   2.696   4.034  11.953
  454W        W 4654   4.472   0.342   8.826
  455W        W 4655   4.734   3.161   2.752
  456W        W 4656   4.060   4.274  11.416
  457W        W 4657   2.616  10.315   0.910
  458W        W 4658  10.802   1.799  10.929
  459W        W 4659   6.936   9.751   3.483
  460W        W 4660  10.900   0.918   0.256
  461W        W 4661   9.820   1.254   9.786
  462W        W 4662   8.463   9.147   9.001
  463W        W 4663   2.471   5.360   1.663
  464W        W 4664   7.736   3.843   4.043
  465W        W 4665   1.090   6.612   8.381
  466W        W 4666   7.400   7.507  10.721
  467W        W 4667   2.133   6.540   3.336
  468W        W 4668   8.746   9.458   1.782
  469W        W 4669   9.534   0.568   9.819
  470W        W 4670   8.138   4.638  10.782
  471W        W 4671   2.118   2.304   0.237
  472W        W 4672  11.167   4.950  11.132
  473W        W 4673   8.375   5.591   0.331
  474W        W 4674   1.357   3.386  11.622
  475W        W 4675   2.347   3.752  10.011
  476W        W 4676   6.222   1.040   9.899
  477W        W 4677   6.564   6.901   2.231
  478W        W 4678  11.041  11.280   2.206
  479W        W 4679   3.510   6.198   1.721
  480W        W 4680   4.671   2.215  11.292
  481W        W 4681   9.483   0.310  11.379
  482W        W 4682   9.448   9.134  10.273
  483W        W 4683  10.433   8.682  11.451
  484W        W 4684   6.023   6.917   0.824
  485W        W 4685   2.503   8.186   9.103
  486W        W 4686   2.965  10.464   3.321
  487W        W 4687   5.749   3.640  11.377
  488W        W 4688   9.648   7.200   9.508
  489W        W 4689  10.566   7.020  11.893
  490W        W 4690   3.305   6.951  11.449
  491W        W 4691  11.298  11.127   0.058
  492W        W 4692   2.743   4.541   0.065
  493W        W 4693   6.559   4.071   9.388
  494W        W 4694   3.998   8.343   3.475
  495W        W 4695   1.228   9.936  10.756
  496W        W 4696   7.616  11.073   1.677
  497W        W 4697  10.004   3.759  11.622
  498W        W 4698  11.116   5.470  10.870
  499W        W 4699   7.224   3.996   2.463
  500W        W 4700   1.862   6.119  11.347
  501W        W 4701   9.744   9.025   0.894
  502W        W 4702   8.447   1.627  10.844
  503W        W 4703   9.618  11.222   2.762
  504W        W 4704   1.362   1.751   0.693
  505W        W 4705   4.335   9.173   1.198
  506W        W 4706   0.331   4.742  11.708
  507W        W 4707   0.594   4.218   0.726
  508W        W 4708  10.488  10.228   0.677
  509W        W 4709   0.805   0.311  11.839
  510W        W 4710   8.469   5.454   3.739
  511W        W 4711   0.860  10.773   9.873
  512W        W 4712   4.674   0.877   2.135
  513W        W 4713   3.593   8.568  11.738
  514W        W 4714   3.360   8.109   3.140
  515W        W 4715   4.254   3.328   2.826
  516W        W 4716   1.169   7.820   1.068
  517W        W 4717   8.756   1.524   2.994
  518W        W 4718   5.275   8.673   8.642
  519W        W 4719   8.103   1.171   9.302
  520W        W 4720   0.923  11.322   0.899
  521W        W 4721   6.678   5.551   2.477
  522W        W 4722   4.365   1.351   9.477
  523W        W 4723   2.179   6.596   1.315
  524W        W 4724   0.896   7.963   9.109
  525W        W 4725   3.580   0.444   2.351
  526W        W 4726   1.979   3.732   8.492
  527W        W 4727   7.154   1.397  11.437
  528W        W 4728   3.669   6.572   3.118
  529W        W 4729   0.831   6.595  10.025
  530W        W 4730   1.591   5.328   0.833
  531W        W 4731   1.606   2.699  11.672
  532W        W 4732   6.419   8.867  10.268
  533W        W 4733   3.073  10.989   3.415
  534W        W 4734  10.616   0.324   1.763
  535W        W 4735  10.017   8.622   9.681
  536W        W 4736   5.245   3.562  11.335
  537W        W 4737  10.575   3.091  11.567
  538W        W 4738   1.807   0.513   2.653
  539W        W 4739   5.515   3.498   4.259
  540W        W 4740   2.470   8.507  10.754
  541W        W 4741   1.782   7.949   3.032
  542W        W 4742   7.994   3.452   2.114
  543W        W 4743   9.675   9.636   0.081
  544W        W 4744   7.905  11.314   2.969
  545W        W 4745  10.015   7.424   0.467
  546W        W 4746   5.562   8.562  10.698
  547W        W 4747   2.121   0.969   9.390
  548W        W 4748   7.261   1.289   2.291
  549W        W 4749   7.151  10.390  10.879
  550W        W 4750   0.685   6.456   2.744
  551W        W 4751   2.296   1.727   2.443
  552W        W 4752   5.703   4.206   0.122
  553W        W 4753   2.027   5.225  11.724
  554W        W 4754   0.503   5.140   2.799
  555W        W 4755   4.141   8.522  10.507
  556W        W 4756   3.356   9.411   1.929
  557W        W 4757   5.246   8.289   2.988
  558W        W 4758  10.032   3.519   0.058
  559W        W 4759   0.678   3.613   2.799
  560W        W 4760   9.607   1.436  10.579
  561W        W 4761   4.329   6.568   1.711
  562W        W 4762  11.140   9.502   9.532
  563W        W 4763   9.262   9.443   3.148
  564W        W 4764   4.068  11.070   3.129
  565W        W 4765   7.037  11.062   1.540
  566W        W 4766   2.179   9.862  10.757
  567W        W 4767   4.111   2.639   2.332
  568W        W 4768   6.219   4.120   8.649
  569W        W 4769   3.124  11.450   2.243
  570W        W 4770   6.075   7.196   3.946
  571W        W 4771  10.475   6.495   2.844
  572W        W 4772   3.426   9.019   3.290
  573W        W 4773   6.731  11.060   0.546
  574W        W 4774   6.122   3.020   8.637
  575W        W 4775   5.575   5.552  10.010
  576W        W 4776   1.358   4.203   2.888
  577W        W 4777   7.626   0.498  11.575
  578W        W 4778   6.920   6.514   0.687
  579W        W 4779   2.307   4.826  10.956
  580W        W 4780   0.501   1.300   9.891
  581W        W 4781   5.932   0.595   9.826
  582W        W 4782   7.595   2.475   1.207
  583W        W 4783   3.801   2.324  11.765
  584W        W 4784   8.239   1.309   1.742
  585W        W 4785   0.747   9.036   3.053
  586W        W 4786   9.954  11.419   9.871
  587W        W 4787   4.861   1.807   3.297
  588W        W 4788   3.634   1.638   9.048
  589W        W 4789   7.375   7.133  11.486
  590W        W 4790   3.175   4.235   2.757
  591W        W 4791   5.622   7.546  10.459
  592W        W 4792  10.458   4.710   1.963
  593W        W 4793   5.151   5.597   0.306
  594W        W 4794   9.447   7.688   9.426
  595W        W 4795   4.958   1.418  11.550
  596W        W 4796   4.960   3.074   8.688
  597W        W 4797   0.315   9.040   9.275
  598W        W 4798   3.767   5.170   2.647
  599W        W 4799  10.344   4.738   2.445
  600W        W 4800   4.361   1.710  11.505
  601W        W 4801   2.228   3.604   1.753
  602W        W 4802  10.895   8.457  11.405
  603W        W 4803   3.720  11.323  10.877
  604W        W 4804   5.732   0.109   1.812
  605W        W 4805   1.634   1.889   1.758
  606W        W 4806   6.220   3.403   0.023
  607W        W 4807   5.055   8.109  11.277
  608W        W 4808   2.852   7.379   0.674
  609W        W 4809   3.526   2.867  11.262
  610W        W 4810   4.247   9.558   8.927
  611W        W 4811   5.672   6.607   1.103
  612W        W 4812  10.712   9.452  11.119
  613W        W 4813   3.740   7.519   3.083
  614W        W 4814   1.294   8.663  11.923
  615W        W 4815   0.196   3.008   9.267
  616W        W 4816   2.708   3.607   1.527
  617W        W 4817   3.184   2.959   2.320
  618W        W 4818   1.915   8.533   9.904
  619W        W 4819   4.655   2.908  11.830
  620W        W 4820   1.977   9.380   2.549
  621W        W 4821   4.094  10.270  11.840
  622W        W 4822   3.631   6.270  11.889
  623W        W 4823   1.263   9.023   0.728
  624W        W 4824   5.170   1.029   9.958
  625W        W 4825   9.042   8.067   2.914
  626W        W 4826   2.788   8.331   1.398
  627W        W 4827   0.861   3.010  11.037
  628W        W 4828   9.153   0.957   8.631
  629W        W 4829   4.287   8.036  11.987
  630W        W 4830   6.105   8.711   3.638
  631W        W 4831   7.790   2.059  11.859
  632W        W 4832   1.366   9.830   3.028
  633W        W 4833   3.262   0.332   1.937
  634W        W 4834   4.198   5.888   8.304
  635W        W 4835   3.155   6.167   0.716
  636W        W 4836   7.614   6.873   9.976
  637W        W 4837  11.231   5.665   2.765
  638W        W 4838   1.416   9.498  10.493
  639W        W 4839   7.425  11.171  11.870
  640W        W 4840   2.038   2.305  10.481
  641W        W 4841   9.284   9.939  11.395
  642W        W 4842   2.353  11.042   9.114
  643W        W 4843   8.356   6.143   3.133
  644W        W 4844   3.532   3.373   4.065
  645W        W 4845   6.529   1.821   0.462
  646W        W 4846   5.306   7.622   0.807
  647W        W 4847  10.830   6.392   3.507
  648W        W 4848   9.471   0.889   9.046
  649W        W 4849   3.596   4.988  10.786
  650W        W 4850   6.050   9.938  11.209
  651W        W 4851   1.694   4.097   9.432
  652W        W 4852   1.647   7.105   0.990
  653W        W 4853   8.157   3.386   2.615
  654W        W 4854   7.355   0.924  11.403
  655W        W 4855   7.042   1.881   1.647
  656W        W 4856   5.225   2.667  11.798
  657W        W 4857   7.924   8.967   0.860
  658W        W 4858  10.078   4.324   9.368
  659W        W 4859   9.873   3.918   3.010
  660W        W 4860   7.427   5.987   9.868
  661W        W 4861   8.514   1.400  11.452
  662W        W 4862   1.431   8.177   1.326
  663W        W 4863   8.019  10.789   0.561
  664W        W 4864   5.226   0.635   0.924
  665W        W 4865   8.231   6.102   0.367
  666W        W 4866   9.078   8.075  10.740
  667W        W 4867   5.473   6.544   9.171
  668W        W 4868   6.257   9.951   8.581
  669W        W 4869   9.904   5.615   9.046
  670W        W 4870  11.200   3.822   2.681
  671W        W 4871   7.524   4.705   1.643
  672W        W 4872   8.528   8.966  11.986
  673W        W 4873   2.714   6.148   1.998
  674W        W 4874   1.244   6.565  10.326
  675W        W 4875   4.800   9.439   1.166
  676W        W 4876   5.186   9.404   9.971
  677W        W 4877   5.193   8.529   2.054
  678W        W 4878  11.398   2.970   8.850
  679W        W 4879   0.805   9.091   0.504
  680W        W 4880   6.058   2.046   2.770
  681W        W 4881   4.077   2.887  11.095
  682W        W 4882   7.050   0.104   9.243
  683W        W 4883   1.737   7.926   0.395
  684W        W 4884  10.880   6.373   9.303
  685W        W 4885   1.293   6.485   9.788
  686W        W 4886   8.996  10.829   2.020
  687W        W 4887   8.046   7.152   0.675
  688W        W 4888   1.203  10.896   9.508
  689W        W 4889   1.391   6.961  10.995
  690W        W 4890   8.598   9.803   9.808
  691W        W 4891   8.838   4.065  11.757
  692W        W 4892   6.271   2.238   3.214
  693W        W 4893   6.049   9.456   0.817
  694W        W 4894   1.105   0.305  10.905
  695W        W 4895   4.738   5.645   0.620
  696W        W 4896   4.208   7.550  10.520
  697W        W 4897   8.974   8.666   8.482
  698W        W 4898   2.962   5.286   1.588
  699W        W 4899   6.311   3.300   1.341
  700W        W 4900   6.529   8.367  11.028
  701W        W 4901   4.055   7.255   2.770
  702W        W 4902  10.762   4.163  10.066
  703W        W 4903   2.668   1.206  10.828
  704W        W 4904   9.213   5.901  10.787
  705W        W 4905   7.002   0.611  11.185
  706W        W 4906   7.159   6.246   2.255
  707W        W 4907   3.083   3.106   9.528
  708W        W 4908   4.947   5.224  11.486
  709W        W 4909   4.127   0.273   1.523
  710W        W 4910   0.868   1.287   1.509
  711W        W 4911   4.655   2.785   3.465
  712W        W 4912  10.417   6.465   9.031
  713W        W 4913   2.634   6.138   2.859
  714W        W 4914   9.970   8.876  11.577
  715W        W 4915   8.256   0.296  10.502
  716W        W 4916   8.834   0.247   1.841
  717W        W 4917   6.584   8.157   1.966
  718W        W 4918   4.152   6.050   0.850
  719W        W 4919   6.311   1.447  11.624
  720W        W 4920   8.014   6.465   0.010
  721W        W 4921   2.659   3.286   0.545
  722W        W 4922   1.260   0.775   9.955
  723W        W 4923   4.689   5.684  11.511
  724W        W 4924   3.001   3.753   2.811
  725W        W 4925  11.072   1.620   2.843
  726W        W 4926   6.923   7.505  11.852
  727W        W 4927   3.771  10.880   8.992
  728W        W 4928   4.945  10.735   3.430
  729W        W 4929   4.402   0.711  11.659
  730W        W 4930  10.476   6.907  10.688
  731W        W 4931   6.657   1.559   0.881
  732W        W 4932   0.228   3.493   9.909
  733W        W 4933   5.010  10.373  11.968
  734W        W 4934   0.814   7.152   0.507
  735W        W 4935   6.101   2.686   1.216
  736W        W 4936   8.906   1.460   1.721
  737W        W 4937   1.198  10.135   3.511
  738W        W 4938  10.934   1.323  10.662
  739W        W 4939   1.645  11.445  10.116
  740W        W 4940   1.141   7.305   1.033
  741W        W 4941   2.112   6.216   0.920
  742W        W 4942   4.517   3.220   2.226
  743W        W 4943  10.042  10.768  10.911
  744W        W 4944  10.347   8.833  10.940
  745W        W 4945   8.102  10.169  10.416
  746W        W 4946  10.012   7.215   1.877
  747W        W 4947   5.463   8.414   9.054
  748W        W 4948   3.825  10.458   1.423
  749W        W 4949   4.806   1.001  11.784
  750W        W 4950   1.308  10.651   1.943
  751W        W 4951   1.789   2.439   2.783
  752W        W 4952   6.681   5.227   1.384
  753W        W 4953  10.037   8.421   9.213
  754W        W 4954   3.355   4.692   2.611
  755W        W 4955   4.583   3.728   1.988
  756W        W 4956   4.302   2.443  10.973
  757W        W 4957   8.598   1.977   9.378
  758W        W 4958  11.303   4.247   9.389
  759W        W 4959   9.449   5.544  10.016
  760W        W 4960   8.388   8.078  10.009
  761W        W 4961   6.931   4.178   0.584
  762W        W 4962   1.262   5.342   1.255
  763W        W 4963   3.436   3.202  10.391
  764W        W 4964   4.711   0.369   9.388
  765W        W 4965   9.757   6.702   8.240
  766W        W 4966   8.199   0.430   9.983
  767W        W 4967   6.313   6.125  11.478
  768W        W 4968   5.185   4.833  11.738
  769W        W 4969   2.237   3.834   8.939
  770W        W 4970  11.489  11.220   0.979
  771W        W 4971   9.941   6.163   8.915
  772W        W 4972   1.129   9.536   9.008
  773W        W 4973   6.286   5.299   1.746
  774W        W 4974   7.921   9.793  11.798
  775W        W 4975   4.555   2.294  10.020
  776W        W 4976   0.412   0.311   1.934
  777W        W 4977   7.467   0.993   3.009
  778W        W 4978   7.474   1.469  10.483
  779W        W 4979   0.080   7.314   0.352
  780W        W 4980  10.750   2.970   9.447
  781W        W 4981   8.494   2.391  11.241
  782W        W 4982   5.755   3.670   2.281
  783W        W 4983   7.229   8.448  11.947
  784W        W 4984   7.801   4.234   1.583
  785W        W 4985   0.148   6.142   9.879
  786W        W 4986   4.785   4.127   9.612
  787W        W 4987   7.676   9.547   9.783
  788W        W 4988   5.566   0.285  11.542
  789W        W 4989   5.567   9.883   8.554
  790W        W 4990  11.240   2.268  10.593
  791W        W 4991   7.788   7.912   0.604
  792W        W 4992  11.056   7.010  11.949
  793W        W 4993   7.971   4.292   2.820
  794W        W 4994   6.766   8.062   0.267
  795W        W 4995  11.281   0.386   9.937
  796W        W 4996   7.495  10.598   2.584
  797W        W 4997   4.535   0.843  10.341
  798W        W 4998   7.444   5.210  11.761
  799W        W 4999   7.215   0.876   9.796
  800W        W 5000   6.643  11.337   9.103
  801W        W 5001   7.956   6.161   8.742
  802W        W 5002   4.610   3.086   0.300
  803W        W 5003   3.064   9.021  11.549
  804W        W 5004   7.554   1.703  11.080
  805W        W 5005   8.825   7.996   2.021
  806W        W 5006  11.304  10.789   0.754
  807W        W 5007   0.796   7.492  11.739
  808W        W 5008   4.706   7.492  11.337
  809W        W 5009   1.040   7.967   9.609
  810W        W 5010   9.844   6.541  11.772
  811W        W 5011   0.089  11.438  11.758
  812W        W 5012  10.549   0.320   9.287
  813W        W 5013   5.347   6.647   2.119
  814W        W 5014   2.910  10.140   1.838
  815W        W 5015   5.324   6.753  11.622
  816W        W 5016  10.220   5.682   9.443
  817W        W 5017  11.077   4.475  10.365
  818W        W 5018   6.449   3.764   8.963
  819W        W 5019   4.199   6.547   2.210
  820W        W 5020   4.038   6.722  10.032
  821W        W 5021   8.858   9.913  11.153
  822W        W 5022   8.951   1.093  11.426
  823W        W 5023   9.708   8.156   1.771
  824W        W 5024   3.721   9.518   2.328
  825W        W 5025   0.241   7.521   1.921
  826W        W 5026   4.704   9.817   8.818
  827W        W 5027   7.090   9.351  11.697
  828W        W 5028   5.430  10.346  10.322
  829W        W 5029   5.484   3.772   8.658
  830W        W 5030  10.459  11.359   9.854
  831W        W 5031  11.479   8.477  10.821
  832W        W 5032   1.330  10.853   2.937
  833W        W 5033   8.890   1.445  10.676
  834W        W 5034   7.250   0.097   9.714
  835W        W 5035  10.328   5.658   0.402
  836W        W 5036   8.605   3.799   8.221
  837W        W 5037  10.297   7.308  10.357
  838W        W 5038  10.369   2.891   9.763
  839W        W 5039   0.455   2.199  10.782
  840W        W 5040  10.933   0.073   0.805
  841W        W 5041   7.870   5.731   0.317
  842W        W 5042  10.870   0.707   9.947
  843W        W 5043   4.064   5.538  11.788
  844W        W 5044   3.737   8.936  10.089
  845W        W 5045   9.568  10.564  11.891
  846W        W 5046   4.676   0.479   0.962
  847W        W 5047   0.999   2.676   2.136
  848W        W 5048   1.965   0.436  11.044
  849W        W 5049  10.907   6.173  11.795
  850W        W 5050   9.361   5.672   0.666
  851W        W 5051   5.917   3.636   8.960
  852W        W 5052   1.623   9.321   2.169
  853W        W 5053   0.028   7.190   3.503
  854W        W 5054   8.011   7.208   2.539
  855W        W 5055   0.862   3.282  11.462
  856W        W 5056   6.574   0.269   2.007
  857W        W 5057   8.104   0.480   3.321
  858W        W 5058  10.704   9.781  11.518
  859W        W 5059   7.732   2.238   2.165
  860W        W 5060   5.118   7.007  10.460
  861W        W 5061   9.642   2.061   1.808
  862W        W 5062   6.634  11.265  10.765
  863W        W 5063   4.397   9.736   0.959
  864W        W 5064   5.932   6.622  10.403
  865W        W 5065   1.227   7.589   9.241
  866W        W 5066   1.880  10.609   9.852
  867W        W 5067  10.749   8.353   0.369
  868W        W 5068   8.867   9.962   1.060
  869W        W 5069   0.692   5.965   2.813
  870W        W 5070  10.802   9.579  10.049
  871W        W 5071   9.977  10.080   1.677
  872W        W 5072   2.651   2.107   3.724
  873W        W 5073   5.595  11.498   3.114
  874W        W 5074  11.013  11.162   8.977
  875W        W 5075   7.983   1.847   1.928
  876W        W 5076   2.972   0.664   9.544
  877W        W 5077  10.861   9.141   9.763
  878W        W 5078   4.645   1.947   2.481
  879W        W 5079   5.436   7.167  11.918
  880W        W 5080   8.570   3.223  11.291
  881W        W 5081   9.981  10.019   9.232
  882W        W 5082   0.336   6.098   9.409
  883W        W 5083   4.121   1.611  11.937
  884W        W 5084   8.517   1.716   8.936
  885W        W 5085  10.504   9.799   0.414
  886W        W 5086   4.206   7.230  10.911
  887W        W 5087   5.426   9.889   2.405
  888W        W 5088   4.977   6.909  11.955
  889W        W 5089   5.041   4.529   1.228
  890W        W 5090   4.478  11.351   2.903
  891W        W 5091   7.101   7.469   2.657
  892W        W 5092  11.138  10.315   2.333
  893W        W 5093   0.506  10.000   1.899
  894W        W 5094   0.810   0.681   9.103
  895W        W 5095   5.657   0.889  11.672
  896W        W 5096   7.852  10.396   0.281
  897W        W 5097   6.603   7.153   1.763
  898W        W 5098   9.417   7.339   1.865
  899W        W 5099   6.443   3.199   9.560
  900W        W 5100   6.180   6.998   3.054
  901W        W 5101   6.183   3.556  10.296
  902W        W 5102   3.379   9.356   0.297
  903W        W 5103   3.873   1.658  10.919
  904W        W 5104   2.009   0.464   9.528
  905W        W 5105   1.916   1.589   2.754
  906W        W 5106   5.165   6.951   9.263
  907W        W 5107  10.626   5.027  10.371
  908W        W 5108   8.947   9.311   9.316
  909W        W 5109   1.349   3.153   9.789
  910W        W 5110   3.813   3.741   2.175
  911W        W 5111   5.888   7.465   9.318
  912W        W 5112   6.736   7.812   3.213
  913W        W 5113   6.350   9.991   2.832
  914W        W 5114   0.907   3.616   9.317
  915W        W 5115   5.688  10.376  10.789
  916W        W 5116   3.530   0.810  10.479
  917W        W 5117   7.125   6.923   9.814
  918W        W 5118   9.736  11.440  10.350
  919W        W 5119   4.958   8.373   0.260
  920W        W 5120   7.061   0.499   2.714
  921W        W 5121   0.305   7.347  10.344
  922W        W 5122   3.508  10.443   2.583
  923W        W 5123   6.983   7.418   9.823
  924W        W 5124   9.069   6.445   8.407
  925W        W 5125   3.939   9.816  11.558
  926W        W 5126  10.426   7.654  11.531
  927W        W 5127   9.873   6.658  10.766
  928W        W 5128   2.828   1.361   3.302
  929W        W 5129   2.966   9.868   9.476
  930W        W 5130   7.640   6.685   0.317
  931W        W 5131   9.371  10.595   0.358
  932W        W 5132   0.252   4.613   0.793
  933W        W 5133  11.074   2.699  10.801
  934W        W 5134   1.866  10.462   2.612
  935W        W 5135   2.457   0.749   1.614
  936W        W 5136   9.815   4.166  11.910
  937W        W 5137  10.023   3.691  11.130
  938W        W 5138   1.415   7.723   3.304
  939W        W 5139   5.038   3.640  10.069
  940W        W 5140   8.665  10.549   0.896
  941W        W 5141   1.898   8.381   1.567
  942W        W 5142   9.341   2.894   1.575
  943W        W 5143   9.278   5.755   8.422
  944W        W 5144   6.789   7.587   0.776
  945W        W 5145   3.135   7.469   0.222
  946W        W 5146   4.788   9.546   3.208
  947W        W 5147   4.485   1.201  11.445
  948W        W 5148   7.620   3.338   2.453
  949W        W 5149   3.168  10.386  11.762
  950W        W 5150   6.681   8.976   9.841
  951W        W 5151   0.309   2.607  10.017
  952W        W 5152   2.323   7.195   9.050
  953W        W 5153   6.251   3.756  11.444
  954W        W 5154   0.745   7.302   2.646
  955W        W 5155   3.635   9.418   0.744
  956W        W 5156   0.483   1.689   9.095
  957W        W 5157  11.471   0.006   8.882
  958W        W 5158   6.747   9.801   0.379
  959W        W 5159   5.884   7.302  11.717
  960W        W 5160   4.944   7.986  10.665
  961W        W 5161   3.277   2.142   9.210
  962W        W 5162   3.716   1.972  11.315
  963W        W 5163   7.226   3.116  10.152
  964W        W 5164   7.729   9.548   0.247
  965W        W 5165   9.923   5.107   9.259
  966W        W 5166   4.434  10.986   0.944
  967W        W 5167   9.772   2.399  11.305
  968W        W 5168  10.809   9.400   9.100
  969W        W 5169   5.302   5.112   0.338
  970W        W 5170   9.141   5.936  10.252
  971W        W 5171   6.120   9.522   3.006
  972W        W 5172  11.281   6.522  11.885
  973W        W 5173   1.007   0.278   9.583
  974W        W 5174   1.019   0.506  10.428
  975W        W 5175   7.340   7.949  10.452
  976W        W 5176   0.215   0.785   2.846
  977W        W 5177   6.068   7.564  11.281
  978W        W 5178   4.548   4.543   1.333
  979W        W 5179  10.362  10.814   1.972
  980W        W 5180   3.044   0.836   1.273
  981W        W 5181   8.633   4.707   1.738
  982W        W 5182   4.706   7.593  10.329
  983W        W 5183   8.601   4.821  11.993
  984W        W 5184   3.207   7.389  11.715
  985W        W 5185   7.266   2.321   1.833
  986W        W 5186   8.452   2.738   3.553
  987W        W 5187   5.712  10.818   9.465
  988W        W 5188  11.369   8.655  11.638
  989W        W 5189   9.006   4.550   8.364
  990W        W 5190   9.318   0.355   1.057
  991W        W 5191   7.057   5.510  11.994
  992W        W 5192   3.909   2.198   2.944
  993W        W 5193   8.122   6.537   1.366
  994W        W 5194   3.901   6.659   8.988
  995W        W 5195   5.262  11.468   9.701
  996W        W 5196   6.921   8.616   1.310
  997W        W 5197  10.920  10.109  11.886
  998W        W 5198   1.861   5.008  10.723
  999W        W 5199   4.283   8.162   1.398
 1000W        W 5200   0.963   5.018   2.587
 1001W        W 5201  10.380   8.962  11.879
 1002W        W 5202   2.681   1.195  10.320
 1003W        W 5203   8.881   2.799   1.810
 1004W        W 5204   8.010   9.057   2.650
 1005W        W 5205   7.136   3.086  10.678
 1006W        W 5206  11.024   5.672  11.843
 1007W        W 5207   2.707   3.104   9.880
 1008W        W 5208   3.930   0.802   1.595
 1009W        W 5209   7.227   9.009  11.267
 1010W        W 5210   7.597   3.625  10.951
 1011W        W 5211   2.675   4.121   1.506
 1012W        W 5212   1.405   3.860   3.338
 1013W        W 5213  10.868  10.632   1.710
 1014W        W 5214   0.747   6.066   2.321
 1015W        W 5215  10.170   8.070   8.838
 1016W        W 5216   3.745  10.421   1.928
 1017W        W 5217  10.827   2.386   9.286
 1018W        W 5218   0.541   0.471   9.498
 1019W        W 5219   6.113  11.430   3.265
 1020W        W 5220   5.256   7.285   2.785
 1021W        W 5221   9.482  10.687   3.248
 1022W        W 5222   0.063   5.917   3.603
 1023W        W 5223   5.956  10.016   3.168
 1024W        W 5224   5.180   6.556   9.606
 1025W        W 5225   6.741  10.955  10.322
 1026W        W 5226   7.877   2.209  10.226
 1027W        W 5227   0.178  10.911   1.759
 1028W        W 5228   9.094   5.074   8.149
 1029W        W 5229   5.640   3.718   0.261
 1030W        W 5230   0.854   2.850   3.133
 1031W        W 5231   1.271   2.565  10.396
 1032W        W 5232   9.092   2.129   9.430
 1033W        W 5233   6.882   8.104  10.706
 1034W        W 5234   2.919   8.076   0.020
 1035W        W 5235   4.023   0.166   2.236
 1036W        W 5236   9.460   3.743   8.963
 1037W        W 5237  10.794   6.585   0.091
 1038W        W 5238   8.225   4.893   0.542
 1039W        W 5239   0.891  11.163   8.980
 1040W        W 5240  10.951   9.767   8.713
 1041W        W 5241   8.906   7.609   3.169
 1042W        W 5242   1.063   2.058   8.599
 1043W        W 5243   5.926   1.283   1.215
 1044W        W 5244   5.756   5.796   2.483
 1045W        W 5245   7.458   8.570   9.646
 1046W        W 5246  11.213   0.734   2.529
 1047W        W 5247   9.011   9.007  10.727
 1048W        W 5248   5.548   4.547  11.207
 1049W        W 5249   2.856   0.419   0.753
 1050W        W 5250   4.203  10.093   8.750
 1051W        W 5251   3.183   6.738  10.781
 1052W        W 5252   0.485  11.467   8.720
 1053W        W 5253   7.123   0.680   1.857
 1054W        W 5254   5.254  11.464   3.548
 1055W        W 5255   1.584   7.223  10.216
 1056W        W 5256   4.760   8.631   8.594
 1057W        W 5257   3.528   0.330   3.264
 1058W        W 5258   3.181   5.745   1.540
 1059W        W 5259   7.288   6.081   1.426
 1060W        W 5260   6.126   2.153   1.276
 1061W        W 5261   3.664   8.563   3.111
 1062W        W 5262   7.565   9.724   2.305
 1063W        W 5263   4.830   9.624  10.271
 1064W        W 5264   5.500   7.568   1.249
 1065W        W 5265   7.416   4.944   9.470
 1066W        W 5266  11.325   0.910  10.002
 1067W        W 5267   3.438   9.523   3.196
 1068W        W 5268   5.761   7.457   1.648
 1069W        W 5269   2.788   4.577  11.184
 1070W        W 5270   9.805   1.871  11.377
 1071W        W 5271   0.165   1.298   8.919
 1072W        W 5272   9.517   3.142  11.052
 1073W        W 5273   1.444   3.929  10.444
 1074W        W 5274   4.310   4.167   0.640
 1075W        W 5275   5.712  10.327   2.289
 1076W        W 5276   9.150   3.172   2.580
 1077W        W 5277   5.813  11.077   1.740
 1078W        W 5278   1.190   2.677   3.463
 1079W        W 5279  10.971  11.448  10.817
 1080W        W 5280   7.642  11.322   2.130
 1081W        W 5281   7.038   1.027   2.676
 1082W        W 5282   2.531   4.375  11.591
 1083W        W 5283   1.004   4.597  10.937
 1084W        W 5284   2.010   1.502   8.505
 1085W        W 5285   7.309   2.218  11.888
 1086W        W 5286   0.776   3.783   1.319
 1087W        W 5287   9.737   9.511   2.011
 1088W        W 5288   7.771   3.894  11.383
 1089W        W 5289   6.394   7.438   3.148
 1090W        W 5290   8.645   5.123   0.416
 1091W        W 5291   4.755   9.123   3.582
 1092W        W 5292   4.251   6.533   9.541
 1093W        W 5293   4.173   4.163   1.208
 1094W        W 5294   8.093   5.142   3.908
 1095W        W 5295   7.071   3.956   9.524
 1096W        W 5296   2.852   1.276   9.294
 1097W        W 5297   5.519   3.238   3.059
 1098W        W 5298   6.929   0.978   9.349
 1099W        W 5299   8.024   9.448   3.037
 1100W        W 5300   4.529   6.522   9.964
 1101W        W 5301   5.138   2.385   1.329
 1102W        W 5302   4.536   6.562  11.461
 1103W        W 5303   7.671   7.471   0.882
 1104W        W 5304   5.449  10.378   0.282
 1105W        W 5305  10.910   2.283  11.984
 1106W        W 5306   5.112   2.030  10.444
 1107W        W 5307   4.662   5.590  11.004
 1108W        W 5308   2.873   0.881   2.623
 1109W        W 5309   1.190   0.440   0.218
 1110W        W 5310  10.473   0.798   1.908
 1111W        W 5311   6.052   7.877  10.496
 1112W        W 5312   5.117   4.466   3.384
 1113W        W 5313   0.539   6.171   8.913
 1114W        W 5314   3.811   4.080   0.851
 1115W        W 5315   4.847   2.733   9.033
 1116W        W 5316   3.252   9.137  10.578
 1117W        W 5317   6.656   9.036  11.693
 1118W        W 5318   5.831   3.245  11.685
 1119W        W 5319   5.097   4.669   2.176
 1120W        W 5320   5.344   6.102   9.999
 1121W        W 5321   4.615   5.116  10.696
 1122W        W 5322   5.248   0.299   1.807
 1123W        W 5323   2.631  10.982   1.599
 1124W        W 5324   1.798   7.774  10.924
 1125W        W 5325   3.630   0.735   0.218
 1126W        W 5326   9.358   0.374  11.893
 1127W        W 5327   4.969   0.213   8.841
 1128W        W 5328   8.166   8.922  11.235
 1129W        W 5329   7.456   0.166  11.937
 1130W        W 5330  10.387  10.328   3.146
 1131W        W 5331   0.597   8.792   1.294
 1132W        W 5332   7.539   9.381   3.317
 1133W        W 5333   0.494   8.171   2.154
 1134W        W 5334  10.449   6.930   1.871
 1135W        W 5335   6.426   0.044  11.909
 1136W        W 5336   5.732   7.545   2.151
 1137W        W 5337   7.001   6.507  11.803
 1138W        W 5338   9.886   8.111   1.301
 1139W        W 5339   6.069   9.606   9.155
 1140W        W 5340   7.198  10.868   3.313
 1141W        W 5341   5.251  11.276   0.472
 1142W        W 5342   4.602  11.401  10.606
 1143W        W 5343  10.464   0.987   8.788
 1144W        W 5344   6.181   2.955   1.721
 1145W        W 5345  11.231   2.719   1.416
 1146W        W 5346   0.895   7.053   0.004
 1147W        W 5347   9.499  10.735   2.743
 1148W        W 5348  10.880   1.146  10.187
 1149W        W 5349   3.424   0.723   1.641
 1150W        W 5350   8.848   2.482   0.936
 1151W        W 5351   8.484  10.249   1.290
 1152W        W 5352   0.975   7.106   9.267
 1153W        W 5353   7.386   1.117   0.744
 1154W        W 5354   6.647   7.571   0.282
 1155W        W 5355   5.068   9.855  11.825
 1156W        W 5356  11.055   3.224   1.341
 1157W        W 5357   1.421   1.456  10.640
 1158W        W 5358   5.025   1.669   2.304
 1159W        W 5359   0.111   6.468   0.526
 1160W        W 5360   0.404   6.596  11.527
 1161W        W 5361   4.819   3.303  11.465
 1162W        W 5362   4.800  11.325  11.579
 1163W        W 5363   7.962   4.424   2.048
 1164W        W 5364   5.195   0.910   2.473
 1165W        W 5365   9.835   0.880   1.061
 1166W        W 5366   8.754   3.591   8.654
 1167W        W 5367   4.100   2.375   9.809
 1168W        W 5368   2.474   1.891   0.949
 1169W        W 5369   0.530  10.896   3.358
 1170W        W 5370   0.119   8.200  10.421
 1171W        W 5371   2.298   9.668   8.950
 1172W        W 5372   5.028   5.681   1.362
 1173W        W 5373   9.304   4.217   9.091
 1174W        W 5374  11.287   5.221   0.539
 1175W        W 5375   1.742   1.048   8.822
 1176W        W 5376   3.557   7.231   1.031
 1177W        W 5377   3.634   4.932   9.461
 1178W        W 5378   7.378  10.875   1.223
 1179W        W 5379   3.130   1.187  11.061
 1180W        W 5380   9.881   8.999  11.081
 1181W        W 5381   3.448   7.451   9.828
 1182W        W 5382  11.230   1.893  11.884
 1183W        W 5383  11.490   1.340   9.805
 1184W        W 5384   7.867   4.613   1.252
 1185W        W 5385   7.880  10.678  10.494
 1186W        W 5386  10.019   5.251   2.935
 1187W        W 5387   7.486   4.116  10.933
 1188W        W 5388   0.075   0.855  11.726
 1189W        W 5389   5.848   1.330  11.851
 1190W        W 5390   2.770   4.069  10.978
 1191W        W 5391   6.769   8.213  11.566
 1192W        W 5392   9.210   1.156  10.429
 1193W        W 5393   4.802   0.163   9.865
 1194W        W 5394   7.983   5.232   1.438
 1195W        W 5395   5.039  10.878   1.784
 1196W        W 5396   8.320  10.983   0.936
 1197W        W 5397  10.282   8.969   0.995
 1198W        W 5398  11.314   5.095   3.523
 1199W        W 5399   1.744   5.209   9.010
 1200W        W 5400   2.556   8.042   0.947
 1201W        W 5401   6.159   6.712   3.815
 1202W        W 5402   7.031   5.651   1.447
 1203W        W 5403   8.731   4.076   2.291
 1204W        W 5404  11.442   1.938   9.053
 1205W        W 5405   9.053   2.381   2.980
 1206W        W 5406   1.439   1.747   0.190
 1207W        W 5407   1.766   2.382   1.791
 1208W        W 5408   0.814   9.804   9.878
 1209W        W 5409   6.893   9.934  10.924
 1210W        W 5410   4.518   4.771   8.277
 1211W        W 5411   7.929   8.925  10.394
 1212W        W 5412   4.647   3.812   0.859
 1213W        W 5413   8.972   9.874  10.620
 1214W        W 5414   1.980   7.571  11.358
 1215W        W 5415   6.021   3.573   4.103
 1216W        W 5416   0.020   0.377  10.407
 1217W        W 5417   8.000  10.778  11.546
 1218W        W 5418   5.827   3.091   1.389
 1219W        W 5419   2.294   4.123  10.594
 1220W        W 5420   0.682   8.717   9.036
 1221W        W 5421   6.220   4.541   9.396
 1222W        W 5422  11.391   9.814   1.620
 1223W        W 5423   1.872  10.088  11.580
 1224W        W 5424   0.889   1.935   9.411
 1225W        W 5425   8.448   9.512   2.734
 1226W        W 5426   5.486   0.820   9.590
 1227W        W 5427   5.431   3.365   1.093
 1228W        W 5428   9.241   2.056   0.403
 1229W        W 5429   5.706   8.994   2.011
 1230W        W 5430  10.008   9.924   2.713
 1231W        W 5431   6.654   4.161   3.151
 1232W        W 5432   9.925   9.844   1.206
 1233W        W 5433   9.195   0.644  10.400
 1234W        W 5434   3.802   8.036  10.019
 1235W        W 5435   8.722   2.176   0.256
 1236W        W 5436   9.082   9.485   1.378
 1237W        W 5437   1.819   2.632  10.125
 1238W        W 5438   8.926   7.178   9.988
 1239W        W 5439   5.620   9.545   8.921
 1240W        W 5440   3.113   2.364  10.126
 1241W        W 5441   1.253   4.723   0.153
 1242W        W 5442  11.416   1.899   1.986
 1243W        W 5443   9.428   5.178   9.071
 1244W        W 5444  11.226  11.261   0.537
 1245W        W 5445   2.608  10.754   9.573
 1246W        W 5446   8.564   9.540   0.809
 1247W        W 5447   3.872   0.431   9.694
 1248W        W 5448   5.946   4.754  11.892
 1249W        W 5449   0.800   0.082   0.304
 1250W        W 5450   7.216   2.280   9.337
 1251W        W 5451   2.587   2.327   0.422
 1252W        W 5452   3.181   1.755   2.492
 1253W        W 5453  10.858   7.983  11.607
 1254W        W 5454   8.494   1.752   1.854
 1255W        W 5455   9.402   7.533   3.145
 1256W        W 5456   8.516   5.747  11.837
 1257W        W 5457   5.641   2.121  10.891
 1258W        W 5458   2.133   6.554   8.527
 1259W        W 5459  10.877   4.118   9.110
 1260W        W 5460   4.827  10.228   9.152
 1261W        W 5461   3.346   6.108  10.205
 1262W        W 5462  11.245   2.322   2.938
 1263W        W 5463   1.177   1.797  10.313
 1264W        W 5464   8.922   9.893   2.057
 1265W        W 5465   3.218   1.588   9.600
 1266W        W 5466   0.738  10.692   8.804
 1267W        W 5467  10.521   1.384  11.019
 1268W        W 5468  11.357   8.828  11.159
 1269W        W 5469   8.770   3.193   3.525
 1270W        W 5470   2.135  11.340   1.351
 1271W        W 5471   3.483  11.342   2.589
 1272W        W 5472   5.893   4.143  11.439
 1273W        W 5473   2.314   8.959   1.024
 1274W        W 5474   0.922   0.489   2.664
 1275W        W 5475   7.646  11.095   2.577
 1276W        W 5476   3.802   8.157   8.723
 1277W        W 5477   6.084   6.505   0.305
 1278W        W 5478  11.362   7.416  11.914
 1279W        W 5479   1.526   4.378   9.020
 1280W        W 5480   5.435   0.014   2.597
 1281W        W 5481  11.402   7.566   1.108
 1282W        W 5482   6.128   4.842   0.838
 1283W        W 5483   4.675   3.580  10.989
 1284W        W 5484   8.519   2.487   1.366
 1285W        W 5485   1.955  10.884  10.948
 1286W        W 5486   7.717   4.377   3.264
 1287W        W 5487   6.691   8.353   9.003
 1288W        W 5488   7.732   2.238   2.681
 1289W        W 5489   1.569   7.029  11.547
 1290W        W 5490   7.095   1.883  11.288
 1291W        W 5491   5.568   6.605   2.604
 1292W        W 5492   9.028   3.330   1.135
 1293W        W 5493   9.382   7.454   0.415
 1294W        W 5494   8.010   2.935  11.870
 1295W        W 5495   0.493   7.091  11.721
 1296W        W 5496  10.989  10.945   2.632
 1297W        W 5497   5.497   2.371   3.525
 1298W        W 5498   1.113   2.453  11.704
 1299W        W 5499   9.922   9.468   2.482
 1300W        W 5500   0.965   8.374   8.321
 1301W        W 5501   9.175   4.224   2.116
 1302W        W 5502   6.169  10.392   2.006
 1303W        W 5503   5.693   4.123   3.523
 1304W        W 5504   3.788   9.820   8.921
 1305W        W 5505  11.011  11.001  10.443
 1306W        W 5506   3.850   9.785  10.606
 1307W        W 5507   2.536   7.529   1.140
 1308W        W 5508  10.891  10.020   0.884
 1309W        W 5509   0.936   3.683   1.822
 1310W        W 5510   2.139   0.856   9.885
 1311W        W 5511   7.021   1.259   1.062
 1312W        W 5512   6.686   4.330  11.757
 1313W        W 5513  10.933   8.538   1.877
 1314W        W 5514   1.040   0.834  10.869
 1315W        W 5515   3.602  11.236  10.383
 1316W        W 5516   9.318   1.041   2.584
 1317W        W 5517   9.534   2.442   0.109
 1318W        W 5518   1.761  10.820   0.146
 1319W        W 5519  10.028   6.103  11.981
 1320W        W 5520   6.561   4.782   1.120
 1321W        W 5521   2.779   7.374   8.896
 1322W        W 5522   8.938  11.445   3.246
 1323W        W 5523  11.038   9.960   3.666
 1324W        W 5524   1.100   5.608   3.361
 1325W        W 5525   2.398   7.964   1.442
 1326W        W 5526   0.440   3.132   2.801
 1327W        W 5527   6.435   6.693   0.625
 1328W        W 5528   3.268  10.147   2.975
 1329W        W 5529   3.704   0.445   1.306
 1330W        W 5530   2.553   1.105   9.684
 1331W        W 5531   3.316   7.152   0.576
 1332W        W 5532  10.990   1.619   9.261
 1333W        W 5533   2.626   3.502  11.786
 1334W        W 5534   5.726   5.267   1.199
 1335W        W 5535   6.166   2.883  11.810
 1336W        W 5536   6.012   1.310  10.298
 1337W        W 5537   4.624   7.958  11.552
 1338W        W 5538  11.327   9.287   9.111
 1339W        W 5539  11.312   9.769   0.711
 1340W        W 5540   7.483   6.825   9.449
 1341W        W 5541   3.323  10.610   9.122
 1342W        W 5542   2.274   6.940   2.313
 1343W        W 5543   8.713   4.689  10.621
 1344W        W 5544   8.968   3.286   3.054
 1345W        W 5545   7.515   7.014   2.646
 1346W        W 5546   9.094   6.490   0.946
 1347W        W 5547   5.320   0.013   9.176
 1348W        W 5548   0.927   9.785  11.823
 1349W        W 5549  10.719  11.130   1.817
 1350W        W 5550   5.756  10.496   2.835
 1351W        W 5551   3.932   1.606   2.088
 1352W        W 5552   3.222   4.655  11.860
 1353W        W 5553   7.086   9.497   3.038
 1354W        W 5554   4.057   1.289  10.614
 1355W        W 5555   3.599  10.722  10.347
 1356W        W 5556   5.393   4.033  11.427
 1357W        W 5557   6.953   9.037   1.054
 1358W        W 5558   8.907   1.431  10.133
 1359W        W 5559   1.940   3.881  10.295
 1360W        W 5560   0.231   5.002   9.468
 1361W        W 5561   3.347   7.649  11.298
 1362W        W 5562   6.499   2.578   1.825
 1363W        W 5563   4.147  11.271   9.413
 1364W        W 5564   1.311   4.400   3.366
 1365W        W 5565   4.118   8.186   2.264
 1366W        W 5566   5.628   1.201  10.907
 1367W        W 5567   1.822   7.101   9.783
 1368W        W 5568   1.810   3.608  11.717
 1369W        W 5569   3.144   8.713   1.355
 1370W        W 5570   8.159   7.639   0.822
 1371W        W 5571   4.576   1.854   9.410
 1372W        W 5572   7.741   1.456   2.181
 1373W        W 5573   7.662   1.407   9.243
 1374W        W 5574   9.338   0.350   8.226
 1375W        W 5575   3.365   2.591   3.526
 1376W        W 5576   2.986   9.667   1.697
 1377W        W 5577   1.287   0.285  10.049
 1378W        W 5578   3.979   4.037  10.564
 1379W        W 5579   2.171   5.319   1.133
 1380W        W 5580   5.096   3.606   3.905
 1381W        W 5581   3.727   8.811  11.111
 1382W        W 5582   7.110   8.925   9.549
 1383W        W 5583   9.059  10.333   9.286
 1384W        W 5584   6.582   1.390   3.348
 1385W        W 5585   2.252   9.911   3.102
 1386W        W 5586   4.158   6.217  10.768
 1387W        W 5587   4.144   9.350   0.744
 1388W        W 5588   4.436  11.429   2.376
 1389W        W 5589   1.437   1.135  11.044
 1390W        W 5590   2.707  11.124  11.732
 1391W        W 5591   8.466   0.996   1.102
 1392W        W 5592   5.084   3.266  10.967
 1393W        W 5593   9.302   0.754   3.000
 1394W        W 5594   3.246   2.680   2.809
 1395W        W 5595  11.230   2.181   3.437
 1396W        W 5596   8.494   9.660   3.588
 1397W        W 5597   5.984   7.285   8.624
 1398W        W 5598   3.086   2.361   0.469
 1399W        W 5599   3.631  10.618  11.750
 1400W        W 5600   2.336   4.137   0.862
 1401W        W 5601   8.443   0.739  10.713
 1402W        W 5602  10.291  10.495   9.748
 1403W        W 5603   2.761   7.845   0.479
 1404W        W 5604   8.471   8.836   8.575
 1405W        W 5605   8.184   5.991   8.295
 1406W        W 5606   5.728  10.305   1.746
 1407W        W 5607   6.612   8.103   0.728
 1408W        W 5608   5.640   2.366   8.665
 1409W        W 5609   3.495   1.927   2.138
 1410W        W 5610   3.318   5.725  10.554
 1411W        W 5611  11.310   2.715   3.472
 1412W        W 5612   6.034   2.811   3.659
 1413W        W 5613   6.165  10.557   1.531
 1414W        W 5614   9.692   1.447  11.092
 1415W        W 5615  10.446   0.707   0.483
 1416W        W 5616   2.577   5.661   2.590
 1417W        W 5617   6.087   8.858   2.802
 1418W        W 5618   5.593   8.640   9.933
 1419W        W 5619  10.992   9.903   0.355
 1420W        W 5620   6.536   4.369   8.973
 1421W        W 5621   8.683   8.100   0.072
 1422W        W 5622   7.436   4.328  10.312
 1423W        W 5623   4.639   5.637  10.494
 1424W        W 5624   8.826   4.814   0.815
 1425W        W 5625   4.929   9.586   3.683
 1426W        W 5626   2.394   7.073   1.439
 1427W        W 5627   9.934   2.844  11.107
 1428W        W 5628   1.345   1.662   9.332
 1429W        W 5629   9.703   9.185   0.415
 1430W        W 5630  10.424   1.658   0.225
 1431W        W 5631   4.159   4.694   9.365
 1432W        W 5632   2.223   6.388   9.388
 1433W        W 5633   9.561   6.523   9.069
 1434W        W 5634   7.720   9.400  10.284
 1435W        W 5635   2.430   8.200   1.902
 1436W        W 5636   8.107   8.625   8.920
 1437W        W 5637   9.708   2.071   0.707
 1438W        W 5638   8.977   7.510  11.502
 1439W        W 5639   8.477   4.749   2.669
 1440W        W 5640   8.595   6.473   9.691
 1441W        W 5641   1.660  11.003   1.839
 1442W        W 5642   8.150   6.401   9.467
 1443W        W 5643  11.337   6.028   3.145
 1444W        W 5644   8.042   0.264  11.335
 1445W        W 5645   7.572   7.174   0.481
 1446W        W 5646   0.302   5.842   2.225
 1447W        W 5647   5.210  10.814  10.258
 1448W        W 5648   7.337   7.838   2.322
 1449W        W 5649   6.025   2.035   8.861
 1450W        W 5650   6.324   6.067  10.136
 1451W        W 5651   8.685   4.061   3.338
 1452W        W 5652   5.597   9.304  11.310
 1453W        W 5653   7.260   9.743   0.052
 1454W        W 5654   8.666   3.716   0.422
 1455W        W 5655   8.888  11.184  11.896
 1456W        W 5656   4.972  11.144   0.904
 1457W        W 5657   4.877   3.259   9.184
 1458W        W 5658   1.912   4.739   8.921
 1459W        W 5659   5.436   6.607  10.362
 1460W        W 5660   1.250   1.231   0.051
 1461W        W 5661   6.232   8.016   0.241
 1462W        W 5662   9.769   8.621   0.578
 1463W        W 5663  10.759   2.797   1.200
 1464W        W 5664   0.289  10.365  11.314
 1465W        W 5665   6.018   0.874   0.044
 1466W        W 5666   1.345   9.073  11.653
 1467W        W 5667   2.295   1.461  10.610
 1468W        W 5668   2.078   9.359   9.344
 1469W        W 5669   5.238   9.307   3.254
 1470W        W 5670   6.526   9.499   2.309
 1471W        W 5671   5.994   5.514  10.362
 1472W        W 5672   8.452   3.067   3.089
 1473W        W 5673   3.913   0.449  10.928
 1474W        W 5674   7.254   5.077   9.964
 1475W        W 5675   7.593   5.892  11.208
 1476W        W 5676   2.960   1.283   0.415
 1477W        W 5677   8.430   9.754   1.286
 1478W        W 5678  10.688   5.276  11.764
 1479W        W 5679   3.172   4.537   3.442
 1480W        W 5680   0.572   0.793  11.754
 1481W        W 5681   8.584   6.913  10.250
 1482W        W 5682   0.716   8.153  10.041
 1483W        W 5683   0.353   0.759  11.292
 1484W        W 5684   5.915   8.992   0.985
 1485W        W 5685   4.765   0.479   1.822
 1486W        W 5686   2.844   0.443   8.968
 1487W        W 5687   7.805   3.079   2.865
 1488W        W 5688   9.146   3.290   9.504
 1489W        W 5689   2.741   4.233   3.457
 1490W        W 5690   1.725   2.697  10.629
 1491W        W 5691  10.887   9.886   9.221
 1492W        W 5692   0.279   7.635  10.819
 1493W        W 5693   9.157   6.187   2.268
 1494W        W 5694   7.482   5.746  11.718
 1495W        W 5695   5.936   5.169  11.372
 1496W        W 5696   1.467   6.192   1.660
 1497W        W 5697   1.917   6.153   1.413
 1498W        W 5698  10.934   4.069   0.587
 1499W        W 5699   9.460   5.954   9.728
 1500W        W 5700   2.566   5.264  11.816
 1501W        W 5701   7.897   1.334   3.138
 1502W        W 5702   2.386   0.977  11.997
 1503W        W 5703   6.125   1.258  10.801
 1504W        W 5704   5.260   1.546  10.602
 1505W        W 5705   0.064   0.299   9.499
 1506W        W 5706   0.405   8.432   0.953
 1507W        W 5707   2.063   4.030  11.402
 1508W        W 5708   2.876   0.332   9.931
 1509W        W 5709   0.273   5.613   2.689
 1510W        W 5710   6.468   2.068  11.869
 1511W        W 5711   4.255   2.554  11.875
 1512W        W 5712   3.551   2.075  10.007
 1513W        W 5713   1.024   2.060   0.092
 1514W        W 5714   6.576   8.133   9.504
 1515W        W 5715   0.120  10.424   2.436
 1516W        W 5716   1.315   4.000   1.962
 1517W        W 5717   4.340  10.977   9.009
 1518W        W 5718  10.963   6.713   9.719
 1519W        W 5719   1.659  10.393   3.521
 1520W        W 5720   2.504   5.788  10.001
 1521W        W 5721   4.914   2.328   3.421
 1522W        W 5722   3.294   5.015  10.065
 1523W        W 5723   2.104   4.577  11.421
 1524W        W 5724  11.347   3.307  10.582
 1525W        W 5725   1.671   7.478   1.718
 1526W        W 5726   6.575   0.780   8.919
 1527W        W 5727   7.823   9.864  11.302
 1528W        W 5728  10.668   4.294  11.763
 1529W        W 5729   6.823   0.989  11.511
 1530W        W 5730   3.151   9.776   0.466
 1531W        W 5731   3.743   2.789   1.170
 1532W        W 5732   7.352   5.628  10.817
 1533W        W 5733   7.156   4.881  11.173
 1534W        W 5734   8.570   8.475   4.265
 1535W        W 5735   8.012   5.738  10.030
 1536W        W 5736  10.542   5.988   2.747
 1537W        W 5737   6.457   4.723  10.187
 1538W        W 5738   2.493   0.523   8.583
 1539W        W 5739   3.302   2.720  10.448
 1540W        W 5740   5.686   1.819   8.533
 1541W        W 5741   5.825   6.137   1.360
 1542W        W 5742   1.869   7.457   9.046
 1543W        W 5743   9.980   9.854  11.719
 1544W        W 5744   1.471   3.299   2.705
 1545W        W 5745   7.739   0.063   0.355
 1546W        W 5746   8.479  11.439   2.136
 1547W        W 5747   5.194   3.974   3.563
 1548W        W 5748   3.780   8.508   0.715
 1549W        W 5749   7.955   1.454   2.654
 1550W        W 5750   3.802   0.735   0.868
 1551W        W 5751   8.025   8.439   2.359
 1552W        W 5752  10.481   2.293   2.980
 1553W        W 5753   2.219   8.098   9.919
 1554W        W 5754  10.987   7.187  10.984
 1555W        W 5755   4.561   3.529   8.650
 1556W        W 5756   5.044   3.559   8.798
 1557W        W 5757   3.830   1.293   1.683
 1558W        W 5758  11.053   0.412   2.901
 1559W        W 5759  10.561   5.202   2.253
 1560W        W 5760   7.203   5.275  10.450
 1561W        W 5761   4.803   3.576   2.442
 1562W        W 5762   8.970   1.962   8.920
 1563W        W 5763   8.625   3.328   0.785
 1564W        W 5764   5.695   2.716   0.012
 1565W        W 5765   4.580  10.778   9.435
 1566W        W 5766   0.832   4.707  10.466
 1567W        W 5767   2.848   1.381   2.791
 1568W        W 5768   5.276   5.097   1.961
 1569W        W 5769   3.283   7.474   8.984
 1570W        W 5770   5.543   2.677   1.445
 1571W        W 5771   4.249   0.748   9.077
 1572W        W 5772   5.556   4.962  10.873
 1573W        W 5773  10.343   4.757  10.720
 1574W        W 5774  10.894   9.857   2.191
 1575W        W 5775   7.948   6.553   2.292
 1576W        W 5776   0.353   5.659   1.054
 1577W        W 5777   8.613   0.742   9.871
 1578W        W 5778  10.513   2.375  11.035
 1579W        W 5779   7.999   7.899   1.780
 1580W        W 5780   5.543   3.859   1.105
 1581W        W 5781   9.109   8.397   0.036
 1582W        W 5782   9.706   5.101  10.005
 1583W        W 5783   9.920   9.120   9.573
 1584W        W 5784  11.284   7.213   0.763
 1585W        W 5785   4.667  10.697  11.033
 1586W        W 5786   9.520  10.097   0.355
 1587W        W 5787   0.722   0.637   0.227
 1588W        W 5788   2.775   6.646   1.804
 1589W        W 5789   3.187   0.428  10.517
 1590W        W 5790   4.823   5.129   0.522
 1591W        W 5791   0.810   4.509   9.897
 1592W        W 5792   1.529   1.863   1.158
 1593W        W 5793   3.976   2.636   9.096
 1594W        W 5794   4.420   6.623   9.071
 1595W        W 5795   9.472   0.072   9.937
 1596W        W 5796  10.575   8.562   0.820
 1597W        W 5797  10.804   2.708   0.704
 1598W        W 5798   0.987  11.114   3.242
 1599W        W 5799   9.009  11.333   2.197
 1600W        W 5800  10.412   3.826  10.849
 1601W        W 5801   1.715   7.264  10.714
 1602W        W 5802   0.871  11.406   2.452
 1603W        W 5803   3.996   1.099   1.192
 1604W        W 5804   0.085   4.617   9.175
 1605W        W 5805  11.368  10.830   1.318
 1606W        W 5806   1.257   8.634  11.403
 1607W        W 5807   1.849   3.384   8.870
 1608W        W 5808   4.347   2.272  10.499
 1609W        W 5809   0.674   3.307   3.200
 1610W        W 5810   3.003   9.426   2.946
 1611W        W 5811   7.605   7.198  11.966
 1612W        W 5812   1.623   0.164  10.742
 1613W        W 5813   7.406   9.828  11.567
 1614W        W 5814  11.408   4.544  11.480
 1615W        W 5815  10.891   1.992   8.915
 1616W        W 5816   8.629   6.410  10.239
 1617W        W 5817   0.272  11.000  11.960
 1618W        W 5818   2.505   6.868   4.133
 1619W        W 5819   4.616   7.057  11.612
 1620W        W 5820   9.844   1.220   1.685
 1621W        W 5821   5.194   1.388   2.765
 1622W        W 5822   1.720   4.908   1.842
 1623W        W 5823   3.806  10.066   2.739
 1624W        W 5824   8.838   2.819   2.321
 1625W        W 5825   4.472   8.209   9.075
 1626W        W 5826   6.727   3.590   9.437
 1627W        W 5827   9.820   6.969   9.096
 1628W        W 5828   4.420   2.776   9.284
 1629W        W 5829   8.621   8.898   2.453
 1630W        W 5830   2.209   0.988  10.360
 1631W        W 5831   2.526   4.498   0.544
 1632W        W 5832   6.065   7.936   9.533
 1633W        W 5833   1.532   1.342   2.247
 1634W        W 5834   4.326   1.466   1.751
 1635W        W 5835   1.458   8.652   1.523
 1636W        W 5836   2.889   2.343  11.612
 1637W        W 5837   8.353   1.393   3.400
 1638W        W 5838   5.002   7.233   9.649
 1639W        W 5839   2.534   3.553   2.574
 1640W        W 5840  10.324   7.952   0.423
 1641W        W 5841   3.839   5.964   0.469
 1642W        W 5842   3.794   0.944  10.907
 1643W        W 5843   5.428   3.314   1.602
 1644W        W 5844   7.278   3.811  11.357
 1645W        W 5845   3.567   0.863   3.274
 1646W        W 5846   2.200   1.768  11.036
 1647W        W 5847   2.226   5.216   0.195
 1648W        W 5848   0.029   4.223  10.253
 1649W        W 5849   2.817   5.065   2.560
 1650W        W 5850   7.926   5.043   9.528
 1651W        W 5851   2.896   9.897   0.905
 1652W        W 5852   4.017   9.832   0.062
 1653W        W 5853   9.088   3.953  11.260
 1654W        W 5854  10.753  10.775   9.158
 1655W        W 5855  11.490   0.063   3.573
 1656W        W 5856   0.544   7.459   0.190
 1657W        W 5857   4.712   2.098  10.796
 1658W        W 5858   8.112   3.191   1.171
 1659W        W 5859   9.154   6.230   2.790
 1660W        W 5860   1.642   8.268   8.775
 1661W        W 5861  10.897   5.748   9.988
 1662W        W 5862   5.526   0.261   0.464
 1663W        W 5863   2.219   8.111   2.822
 1664W        W 5864   0.402  11.268   3.699
 1665W        W 5865   1.075   2.248   2.375
 1666W        W 5866   8.022   7.546   2.141
 1667W        W 5867   9.078   1.992   2.647
 1668W        W 5868   2.317   5.577  11.440
 1669W        W 5869   6.320   8.312  10.350
 1670W        W 5870   8.093   8.000  11.577
 1671W        W 5871   0.201   4.208   3.366
 1672W        W 5872  11.482   5.208   2.782
 1673W        W 5873   2.907  10.216   0.459
 1674W        W 5874   6.090   3.007   2.366
 1675W        W 5875   2.027   4.817   2.711
 1676W        W 5876   9.019  11.149  11.375
 1677W        W 5877   4.749  10.024   2.979
 1678W        W 5878   8.366   7.613  10.730
 1679W        W 5879   4.728   9.400   9.744
 1680W        W 5880   8.096   0.661  11.660
 1681W        W 5881   1.664   9.565   9.623
 1682W        W 5882   7.551   1.997   3.477
 1683W        W 5883   8.946   1.429   8.797
 1684W        W 5884   1.982   7.629   9.924
 1685W        W 5885   0.008  10.954  10.622
 1686W        W 5886   0.203   0.314  11.052
 1687W        W 5887   4.346  10.450   9.096
 1688W        W 5888   6.619   4.388   8.458
 1689W        W 5889   8.581  11.404  11.429
 1690W        W 5890   4.704   2.053   8.468
 1691W        W 5891   9.424   4.126   3.125
 1692W        W 5892   9.022   8.777   9.382
 1693W        W 5893   2.097   7.236   1.880
 1694W        W 5894   9.562   2.618  10.852
 1695W        W 5895   3.269   2.915   1.356
 1696W        W 5896   7.066   1.809   9.462
 1697W        W 5897   3.556   3.849  11.810
 1698W        W 5898  11.117   4.980  10.486
 1699W        W 5899   8.960   9.079   3.406
 1700W        W 5900  11.225   9.362   2.428
 1701W        W 5901   4.320   2.453   3.205
 1702W        W 5902   0.302   7.518   0.780
 1703W        W 5903   3.062   6.151   9.345
 1704W        W 5904   1.318   0.324  11.731
 1705W        W 5905  10.461   9.388   1.269
 1706W        W 5906   8.993   3.768  10.796
 1707W        W 5907   6.010   2.308  10.100
 1708W        W 5908  11.288   3.302  10.079
 1709W        W 5909   8.809   7.075   2.492
 1710W        W 5910   8.353   9.864  11.307
 1711W        W 5911   2.768  11.394   0.696
 1712W        W 5912   7.530   2.707   2.662
 1713W        W 5913  10.463   9.532   8.738
 1714W        W 5914   4.592   8.659   3.338
 1715W        W 5915   0.444   1.943   3.400
 1716W        W 5916   2.355   2.835   1.321
 1717W        W 5917   6.062   9.353  11.062
 1718W        W 5918   7.317   7.823   1.456
 1719W        W 5919   6.156   0.493   8.803
 1720W        W 5920   6.524  10.912   8.812
 1721W        W 5921   7.937   0.488   8.815
 1722W        W 5922   7.104   7.220   9.364
 1723W        W 5923   5.953   7.569   0.242
 1724W        W 5924   1.733   7.432   3.028
 1725W        W 5925  10.462   3.138   2.382
 1726W        W 5926   1.423   9.744   3.830
 1727W        W 5927  10.675   6.975   1.390
 1728W        W 5928   8.356   6.865   9.354
 1729W        W 5929   7.077  10.026   9.093
 1730W        W 5930   4.459   8.164   3.253
 1731W        W 5931   4.586   7.094  10.537
 1732W        W 5932   2.905   9.475  10.869
 1733W        W 5933   3.115   9.942  11.057
 1734W        W 5934   8.145   6.643  10.394
 1735W        W 5935  11.285   1.430   1.805
 1736W        W 5936   4.236   7.685   3.124
 1737W        W 5937   2.153   7.154   0.987
 1738W        W 5938   0.330   1.292   9.414
 1739W        W 5939  11.038  11.252   1.271
 1740W        W 5940   4.487   5.287   0.957
 1741W        W 5941   5.237   7.831   1.619
 1742W        W 5942   9.684   5.506   9.510
 1743W        W 5943   9.128   4.899   8.724
 1744W        W 5944  11.327   5.460  10.390
 1745W        W 5945  10.722   0.569   2.507
 1746W        W 5946   8.264   1.484   2.224
 1747W        W 5947   9.627   7.141  11.803
 1748W        W 5948   1.775   0.573  11.503
 1749W        W 5949   8.538   0.468   2.244
 1750W        W 5950  10.988   7.210   3.113
 1751W        W 5951  10.872   9.147   2.719
 1752W        W 5952   1.723   2.681  11.151
 1753W        W 5953   2.578   7.226   2.757
 1754W        W 5954   6.481   0.148   0.963
 1755W        W 5955   8.639   1.019   1.578
 1756W        W 5956   7.089   8.907  10.771
 1757W        W 5957   9.012   7.444   9.071
 1758W        W 5958   4.879   3.218   3.648
 1759W        W 5959   0.361   8.607  11.851
 1760W        W 5960   5.623   2.737   2.371
 1761W        W 5961  11.411   5.963   0.566
 1762W        W 5962   1.434   2.713   2.503
 1763W        W 5963   1.469   7.163   8.549
 1764W        W 5964   7.201   3.342  11.124
 1765W        W 5965  10.840   7.465  11.804
 1766W        W 5966   6.664   0.540   0.684
 1767W        W 5967   4.367   2.061  11.928
 1768W        W 5968  10.082   6.847  10.332
 1769W        W 5969   1.802  11.286  11.930
 1770W        W 5970   2.206   5.652   0.484
 1771W        W 5971   3.108  11.437  10.128
 1772W        W 5972   3.212   6.450   1.154
 1773W        W 5973  10.888   3.838   3.115
 1774W        W 5974   3.662   9.810   0.409
 1775W        W 5975   3.326   3.738   2.029
 1776W        W 5976   3.399  11.168  11.547
 1777W        W 5977   3.380   4.235   1.780
 1778W        W 5978   3.604   4.811   0.165
 1779W        W 5979   2.968   4.244   0.439
 1780W        W 5980   2.438  11.426   1.762
 1781W        W 5981   8.399   3.127   2.184
 1782W        W 5982   6.270  10.923   1.877
 1783W        W 5983   3.253  11.031   1.964
 1784W        W 5984   0.859   3.194   9.962
 1785W        W 5985   7.989  10.481  10.033
 1786W        W 5986   7.416   8.981  10.383
 1787W        W 5987   8.165   5.168   2.714
 1788W        W 5988   5.706  10.327   9.372
 1789W        W 5989   6.625   7.303   9.179
 1790W        W 5990   2.084   5.637   2.426
 1791W        W 5991   5.423   5.105  11.344
 1792W        W 5992   6.253   0.861   1.429
 1793W        W 5993   7.869   4.547   0.710
 1794W        W 5994   4.133   5.151  10.042
 1795W        W 5995   6.185   3.294  11.234
 1796W        W 5996  10.391   0.258   2.254
 1797W        W 5997   4.298  10.548   0.525
 1798W        W 5998   2.830   5.045   9.876
 1799W        W 5999   7.677   7.569   2.759
 1800W        W 6000   0.520   1.497  10.821
 1801W        W 6001   2.460   9.858   9.384
 1802W        W 6002   9.071   0.395   9.955
 1803W        W 6003   8.953  10.510  10.313
 1804W        W 6004   9.388   1.481   9.576
 1805W        W 6005  11.285   0.945   8.860
 1806W        W 6006   8.622   3.346   9.423
 1807W        W 6007   0.301   5.741  11.354
 1808W        W 6008   4.343   8.325  10.065
 1809W        W 6009   1.534   7.803  11.482
 1810W        W 6010   6.880   3.311   0.483
 1811W        W 6011   8.052   0.672   1.024
 1812W        W 6012   9.935  11.000   9.461
 1813W        W 6013   2.835   3.928   1.966
 1814W        W 6014   5.460   5.292   0.773
 1815W        W 6015   9.530   7.094   4.210
 1816W        W 6016   8.115  10.577   9.175
 1817W        W 6017   5.602   5.722  11.971
 1818W        W 6018  10.014  10.001   0.213
 1819W        W 6019   3.669  11.311   2.134
 1820W        W 6020   3.790   1.219  11.950
 1821W        W 6021   6.306   4.330   1.748
 1822W        W 6022   1.915   2.648   2.269
 1823W        W 6023   3.708   0.211   0.809
 1824W        W 6024  11.470   2.142   0.313
 1825W        W 6025   0.818   9.583   0.307
 1826W        W 6026   9.334   5.506  10.497
 1827W        W 6027   4.251   9.582   1.496
 1828W        W 6028   7.898   4.940  11.869
 1829W        W 6029   7.760   8.658   1.292
 1830W        W 6030   0.387   5.228   2.312
 1831W        W 6031   5.032   0.978   9.440
 1832W        W 6032   2.095   7.478   1.403
 1833W        W 6033   5.052   8.520   3.472
 1834W        W 6034   0.588   8.379  10.497
 1835W        W 6035   6.116   4.054  10.140
 1836W        W 6036   9.993   4.629  11.079
 1837W        W 6037   5.979   3.291   0.943
 1838W        W 6038   7.613  10.483   0.724
 1839W        W 6039   5.298   6.954   0.381
 1840W        W 6040   6.019   2.376  11.756
 1841W        W 6041   4.669   4.795  11.587
 1842W        W 6042   1.563   0.828  11.904
 1843W        W 6043   3.613   5.095  11.288
 1844W        W 6044   5.417   5.741   9.168
 1845W        W 6045  10.271   0.449  11.040
 1846W        W 6046   6.281   6.588   3.340
 1847W        W 6047   6.491   5.572  11.041
 1848W        W 6048   7.992   0.566   2.432
 1849W        W 6049   8.663   2.484   9.473
 1850W        W 6050  11.302   7.024  10.256
 1851W        W 6051   9.538   3.280   1.313
 1852W        W 6052   9.116   6.009   4.057
 1853W        W 6053  11.426  10.348   1.521
 1854W        W 6054   7.166   6.864   0.415
 1855W        W 6055   1.944   5.522  10.812
 1856W        W 6056   8.680   3.246  10.780
 1857W        W 6057   9.072   3.690   2.479
 1858W        W 6058   4.107   0.346  11.486
 1859W        W 6059   3.351   2.383   1.313
 1860W        W 6060   0.374   4.184   2.027
 1861W        W 6061   5.204   6.757   1.654
 1862W        W 6062   6.747   6.697   1.543
 1863W        W 6063  10.083   8.171   0.807
 1864W        W 6064   3.094   1.236   8.835
 1865W        W 6065   4.548   9.447   8.471
 1866W        W 6066   6.159   2.183   0.268
 1867W        W 6067  10.756   0.430  10.911
 1868W        W 6068   8.594   9.980   8.852
 1869W        W 6069   1.183   5.270   9.049
 1870W        W 6070   3.734   9.312   8.981
 1871W        W 6071   5.019  11.280   0.027
 1872W        W 6072  10.318   3.095   0.028
 1873W        W 6073   6.886   2.237  11.628
 1874W        W 6074   2.283   1.264  11.175
 1875W        W 6075   7.138   2.700  11.747
 1876W        W 6076   4.159   3.330   0.376
 1877W        W 6077   4.481   3.521   1.250
 1878W        W 6078   5.310   2.081   3.160
 1879W        W 6079   3.514   2.856   9.470
 1880W        W 6080   9.648   6.236   1.893
 1881W        W 6081   3.124   8.780   8.699
 1882W        W 6082   2.613   9.628  11.465
 1883W        W 6083  10.278  10.036  10.482
 1884W        W 6084   0.301   6.710  11.015
 1885W        W 6085   2.344   9.879   0.926
 1886W        W 6086  10.098   9.511   0.363
 1887W        W 6087   0.358   2.316   0.630
 1888W        W 6088   1.891   0.172   0.411
 1889W        W 6089   9.480   9.368   2.695
 1890W        W 6090  11.411   6.611   9.967
 1891W        W 6091   3.090   8.466   2.255
 1892W        W 6092   3.078   8.532  11.819
 1893W        W 6093   5.634   1.665   0.227
 1894W        W 6094   3.046   4.875   3.865
 1895W        W 6095   4.727   6.124  10.267
 1896W        W 6096   1.632   6.780  10.583
 1897W        W 6097   2.300   6.257   1.739
 1898W        W 6098   1.163   3.668   2.940
 1899W        W 6099   4.311   3.160  11.489
 1900W        W 6100   7.453   6.129   8.656
 1901W        W 6101   9.917  10.929  10.406
 1902W        W 6102   5.868   7.119   3.435
 1903W        W 6103   2.266   8.657   1.766
 1904W        W 6104   1.860   6.115   2.474
 1905W        W 6105   1.314   0.962   1.521
 1906W        W 6106   6.976   4.243  11.331
 1907W        W 6107   6.123   1.284   2.591
 1908W        W 6108   8.641   5.349   1.458
 1909W        W 6109   5.804   3.826  10.530
 1910W        W 6110   3.196   0.716  11.486
 1911W        W 6111   4.711   3.699   3.483
 1912W        W 6112   5.912   4.576   3.417
 1913W        W 6113   0.449   1.448   1.235
 1914W        W 6114   9.535  10.064  11.821
 1915W        W 6115   2.789   8.096  10.807
 1916W        W 6116   2.248   3.509  11.434
 1917W        W 6117   3.632   5.246  11.828
 1918W        W 6118   2.489   4.740  10.107
 1919W        W 6119   7.942   9.723   3.511
 1920W        W 6120   1.106   2.216  10.019
 1921W        W 6121   1.615   9.416   9.131
 1922W        W 6122   7.201   4.212   3.258
 1923W        W 6123   2.259   1.475   9.464
 1924W        W 6124   7.370  11.357   3.019
 1925W        W 6125   3.252   5.250   9.620
 1926W        W 6126   2.510   7.682   9.878
 1927W        W 6127   1.418   8.295   2.840
 1928W        W 6128   2.022   5.625   9.977
 1929W        W 6129   2.379   2.319   1.222
 1930W        W 6130   2.177   6.663   9.930
 1931W        W 6131   0.753   9.952  10.536
 1932W        W 6132   4.642   8.001   2.379
 1933W        W 6133   2.098   6.164  10.031
 1934W        W 6134  10.728   5.879   9.433
 1935W        W 6135   0.299   8.411   3.558
 1936W        W 6136   1.443   2.307   1.389
 1937W        W 6137   3.061   5.034   3.365
 1938W        W 6138   0.668   8.603   2.749
 1939W        W 6139   1.400   4.879   1.428
 1940W        W 6140   9.086   8.473   8.967
 1941W        W 6141   3.152   4.040   3.239
 1942W        W 6142   5.618   8.104   3.951
 1943W        W 6143   9.990   4.662   9.000
 1944W        W 6144   8.154   9.760   9.562
 1945W        W 6145  10.757  11.364   9.409
 1946W        W 6146   0.322   6.596   1.608
 1947W        W 6147   7.372   2.178   9.852
 1948W        W 6148   9.517   9.137   8.450
 1949W        W 6149   8.112   5.234   9.977
 1950W        W 6150   3.874   9.570   2.849
 1951W        W 6151   0.382   6.568   0.963
 1952W        W 6152  10.920   9.047   3.204
 1953W        W 6153   0.452   2.866   8.846
 1954W        W 6154   3.290  11.409   0.432
 1955W        W 6155   0.778   5.903  11.277
 1956W        W 6156   6.461   8.463   0.413
 1957W        W 6157   6.448   1.703   2.562
 1958W        W 6158   6.594   2.735  11.104
 1959W        W 6159   2.840   8.386  10.399
 1960W        W 6160   6.050   5.507   2.172
 1961W        W 6161   0.946   2.197  10.535
 1962W        W 6162   4.656  10.492   2.741
 1963W        W 6163   4.667   9.384   0.684
 1964W        W 6164   8.897  10.403   9.776
 1965W        W 6165   2.022   2.161   2.435
 1966W        W 6166   8.643  10.748  10.783
 1967W        W 6167   1.250   0.488   1.365
 1968W        W 6168   5.646   0.966   3.245
 1969W        W 6169   8.351  10.341   2.125
 1970W        W 6170   4.383   1.339   0.356
 1971W        W 6171   0.393   1.274   2.979
 1972W        W 6172   1.187   5.846   8.500
 1973W        W 6173   4.166   3.691   0.727
 1974W        W 6174   7.451   5.065   8.931
 1975W        W 6175   4.771   4.410  11.916
 1976W        W 6176   2.681   3.512  10.867
 1977W        W 6177   3.101   9.519  11.352
 1978W        W 6178   5.619   8.500   1.268
 1979W        W 6179  10.575   0.021  11.780
 1980W        W 6180   9.005   4.415   3.126
 1981W        W 6181  11.101   4.576   9.041
 1982W        W 6182  11.121   0.553   0.878
 1983W        W 6183   1.507   0.634  10.935
 1984W        W 6184   2.776   5.382  10.265
 1985W        W 6185   3.109   5.106   1.138
 1986W        W 6186   8.242   5.246   1.867
 1987W        W 6187   9.821   0.949   3.476
 1988W        W 6188   1.893   7.988   9.127
 1989W        W 6189   2.215   4.339  11.991
 1990W        W 6190   2.829   2.266   0.906
 1991W        W 6191   4.365   9.522  10.088
 1992W        W 6192   8.535   9.916   2.370
 1993W        W 6193   0.089  10.441   1.019
 1994W        W 6194   5.133   7.651  11.099
 1995W        W 6195   1.876   1.379  10.880
 1996W        W 6196   4.122   3.152   1.399
 1997W        W 6197   7.275   9.256   0.176
 1998W        W 6198   6.742   1.396   9.583
 1999W        W 6199  10.198   1.800  11.732
 2000W        W 6200  10.482  10.938   9.564
 2001W        W 6201   1.875   1.375  10.351
 2002W        W 6202   4.747   6.713   0.401
 2003W        W 6203   0.236   6.971   0.699
 2004W        W 6204  11.278   4.585   2.417
 2005W        W 6205  10.084   8.122   2.148
 2006W        W 6206   3.347   5.133   2.354
 2007W        W 6207  10.096   8.738   1.512
 2008W        W 6208   5.649  11.004   2.936
 2009W        W 6209  10.981  11.422   2.791
 2010W        W 6210  10.918  10.316   1.319
 2011W        W 6211   5.015  10.965  11.291
 2012W        W 6212   8.170   8.957   1.312
 2013W        W 6213   8.716   8.145   9.138
 2014W        W 6214   6.048   8.239   1.220
 2015W        W 6215   8.851   3.778   0.917
 2016W        W 6216   2.296   3.806  11.004
 2017W        W 6217   9.789   2.562   1.817
 2018W        W 6218   1.172   4.768   3.037
 2019W        W 6219   4.256   4.595   0.909
 2020W        W 6220   7.114  10.947   0.200
 2021W        W 6221   8.981  11.380   9.999
 2022W        W 6222  11.321   2.389  10.000
 2023W        W 6223   7.264   4.114   1.544
 2024W        W 6224   1.227   6.942   9.992
 2025W        W 6225   3.132   8.909   2.823
 2026W        W 6226   2.464   0.154   1.033
 2027W        W 6227   3.730   5.768   1.956
 2028W        W 6228   9.987   3.638   9.071
 2029W        W 6229   6.078   0.896   1.922
 2030W        W 6230  10.008   3.670  10.029
 2031W        W 6231   8.466  10.050   0.771
 2032W        W 6232   4.826   2.081   0.156
 2033W        W 6233   6.684   8.644   9.431
 2034W        W 6234   1.703   8.830   0.321
 2035W        W 6235   4.396   5.894   2.490
 2036W        W 6236  10.844   1.148   9.110
 2037W        W 6237  11.043   7.390   0.315
 2038W        W 6238  11.095   5.547   9.537
 2039W        W 6239   9.088   7.938  11.233
 2040W        W 6240   5.811   4.866   9.584
 2041W        W 6241   5.743   3.835   9.399
 2042W        W 6242   0.244   5.568   0.559
 2043W        W 6243   9.591   8.861   9.872
 2044W        W 6244   1.812   6.261   0.517
 2045W        W 6245   3.869   7.522  10.116
 2046W        W 6246   7.181   1.703   9.946
 2047W        W 6247   0.140   5.118   0.055
 2048W        W 6248   3.488   0.778   9.547
 2049W        W 6249   3.632   3.291   1.342
 2050W        W 6250  10.461  10.604   8.741
 2051W        W 6251   6.914   4.933  10.725
 2052W        W 6252   9.115   8.582   1.355
 2053W        W 6253   9.596   3.253   8.975
 2054W        W 6254   1.432   5.246  10.952
 2055W        W 6255   4.660   3.663   2.942
 2056W        W 6256   0.576   5.996  11.747
 2057W        W 6257   2.342   4.316  11.068
 2058W        W 6258   1.837   4.652   2.279
 2059W        W 6259   6.523   8.849   8.938
 2060W        W 6260   8.183   3.309  10.939
 2061W        W 6261   9.217   5.546  11.746
 2062W        W 6262   8.294   4.414   1.475
 2063W        W 6263   3.275   4.678  11.336
 2064W        W 6264   9.551   5.031  10.492
 2065W        W 6265   8.506   0.576   0.786
 2066W        W 6266   8.313   8.028   0.477
 2067W        W 6267   5.443   3.285   2.104
 2068W        W 6268   8.170  10.461   0.929
 2069W        W 6269   6.823   0.769  10.734
 2070W        W 6270   8.275   3.769   3.483
 2071W        W 6271   7.539  10.267   2.169
 2072W        W 6272   9.123   5.205   0.984
 2073W        W 6273   8.792  10.077   3.529
 2074W        W 6274   0.111   8.005   8.662
 2075W        W 6275   3.732   7.660   8.841
 2076W        W 6276   9.888   5.160   8.752
 2077W        W 6277   3.534  11.404   3.556
 2078W        W 6278   8.018   3.102  11.377
 2079W        W 6279  10.098   0.427   1.844
 2080W        W 6280   1.046   4.128   1.022
 2081W        W 6281   7.760  11.162  10.521
 2082W        W 6282   9.978   3.717  10.565
 2083W        W 6283   6.620   3.169   8.665
 2084W        W 6284   7.613   8.097   2.740
 2085W        W 6285   4.478   1.373  10.331
 2086W        W 6286   8.363   2.391   0.879
 2087W        W 6287   3.246  10.672   2.964
 2088W        W 6288   4.045   8.658  11.503
 2089W        W 6289  11.192   6.970   1.316
 2090W        W 6290  10.852   2.073   2.708
 2091W        W 6291   5.851   6.599   3.042
 2092W        W 6292   6.180   9.450   4.041
 2093W        W 6293   6.257  10.479   2.997
 2094W        W 6294   2.340   9.432   2.923
 2095W        W 6295   8.947   4.065   8.533
 2096W        W 6296   3.314   8.949   0.001
 2097W        W 6297   4.785   4.792  10.313
 2098W        W 6298   0.310   6.248   3.303
 2099W        W 6299   1.614   2.969   3.519
 2100W        W 6300   9.590   8.018  11.775
 2101W        W 6301   2.336   9.457   2.171
 2102W        W 6302   8.616   8.034  10.981
 2103W        W 6303   2.723   8.174   9.960
 2104W        W 6304   2.903   9.486   1.212
 2105W        W 6305   6.123   1.654   1.552
 2106W        W 6306   6.567   1.890   3.456
 2107W        W 6307  10.351   2.692   2.634
 2108W        W 6308   3.142   3.413   1.245
 2109W        W 6309   7.990   2.586  11.315
 2110W        W 6310   5.978   6.213  11.087
 2111W        W 6311   2.768   3.313   2.961
 2112W        W 6312   0.473  10.476   9.660
 2113W        W 6313  11.357   9.525   1.174
 2114W        W 6314   6.324   7.116  11.523
 2115W        W 6315   0.328   2.620   0.233
 2116W        W 6316   9.417   6.067   0.999
 2117W        W 6317   2.568   8.462  11.966
 2118W        W 6318   4.622   8.087   1.003
 2119W        W 6319   6.842   3.486   0.005
 2120W        W 6320   2.011   5.587   8.737
 2121W        W 6321  10.868   0.289  11.398
 2122W        W 6322   9.075   7.597  10.651
 2123W        W 6323   5.313   0.839   0.399
 2124W        W 6324   7.344  10.498   0.277
 2125W        W 6325  10.700   1.834  11.824
 2126W        W 6326   5.663   6.730   0.060
 2127W        W 6327   9.840   4.145   8.907
 2128W        W 6328   7.706   6.424   9.730
 2129W        W 6329   9.391   2.949   0.375
 2130W        W 6330   7.950   7.240  10.059
 2131W        W 6331   1.790   8.067   2.536
 2132W        W 6332   5.570   3.524  10.902
 2133W        W 6333   9.792   1.713   1.045
 2134W        W 6334   1.380   6.226   0.233
 2135W        W 6335   5.295   8.655   9.489
 2136W        W 6336   3.418   0.507   8.772
 2137W        W 6337   3.378   9.483   1.394
 2138W        W 6338   8.018   2.628   2.853
 2139W        W 6339   2.320   1.562   1.951
 2140W        W 6340   9.858   9.395  11.502
 2141W        W 6341   5.003   3.770   8.323
 2142W        W 6342   0.265   1.332   0.412
 2143W        W 6343   2.565   4.235   9.273
 2144W        W 6344   3.687   5.273   9.867
 2145W        W 6345   5.928   5.807  10.778
 2146W        W 6346   5.603   6.230   2.255
 2147W        W 6347   2.169   0.758   2.368
 2148W        W 6348   8.932   6.665   2.196
 2149W        W 6349   3.695   5.585  11.389
 2150W        W 6350   5.777   1.651  10.668
 2151W        W 6351   0.789   7.907   0.243
 2152W        W 6352  11.292   1.932   2.487
 2153W        W 6353   7.007   5.055   1.037
 2154W        W 6354  11.184   2.412  11.541
 2155W        W 6355   7.051   7.979   2.811
 2156W        W 6356   9.482   6.432   1.366
 2157W        W 6357   1.189   3.621   9.966
 2158W        W 6358   7.701   5.627   2.062
 2159W        W 6359   3.418   9.062   1.059
 2160W        W 6360   2.930   3.881   1.135
 2161W        W 6361   9.493   9.966   0.869
 2162W        W 6362   5.278   8.792   3.125
 2163W        W 6363   8.797   8.215   0.558
 2164W        W 6364   6.954   9.396   2.004
 2165W        W 6365   5.644   1.517   0.739
 2166W        W 6366   7.461   8.057   9.556
 2167W        W 6367   1.985  10.760   3.702
 2168W        W 6368   8.364   1.183   2.932
 2169W        W 6369   9.214   5.589   9.336
 2170W        W 6370  10.491   9.328   0.683
 2171W        W 6371   8.602   5.947   3.594
 2172W        W 6372   2.268   6.332  10.867
 2173W        W 6373   8.000   4.759   3.041
 2174W        W 6374   5.317   2.407   0.339
 2175W        W 6375   9.523   6.509   3.065
 2176W        W 6376  11.291   3.972   0.218
 2177W        W 6377  10.809   3.653   1.481
 2178W        W 6378   6.537   7.377  10.541
 2179W        W 6379   9.526  10.772  11.071
 2180W        W 6380   5.669   0.516   8.993
 2181W        W 6381   1.872   5.870  10.391
 2182W        W 6382   6.941   9.712  10.003
 2183W        W 6383   3.711   1.951   1.164
 2184W        W 6384   6.405   4.233  11.344
 2185W        W 6385   2.423  10.760   2.213
 2186W        W 6386   1.905   8.965   9.038
 2187W        W 6387   5.344   4.174   1.452
 2188W        W 6388   6.153   5.448   3.134
 2189W        W 6389  10.808  10.032  10.462
 2190W        W 6390   4.533   0.861   9.486
 2191W        W 6391   5.775   2.371   3.092
 2192W        W 6392   1.681   6.680  10.083
 2193W        W 6393   4.620   5.716   9.973
 2194W        W 6394   3.031   7.991   2.735
 2195W        W 6395   1.398  10.202   1.736
 2196W        W 6396   0.840   3.186   1.925
 2197W        W 6397   7.837   8.597   2.809
 2198W        W 6398   8.985   3.147  11.608
 2199W        W 6399  10.484   4.200   0.395
 2200W        W 6400   9.081   7.958  11.756
 2201W        W 6401  10.024   1.550   2.915
 2202W        W 6402   0.689   8.832   9.556
 2203W        W 6403   9.309   9.930   1.334
 2204W        W 6404   6.257   2.362   9.178
 2205W        W 6405   8.861   5.555   0.635
 2206W        W 6406  10.586   1.530   8.839
 2207W        W 6407   3.932  10.271   3.505
 2208W        W 6408   3.780   8.528   1.728
 2209W        W 6409   8.721   0.992  10.309
 2210W        W 6410   5.217   7.624   2.106
 2211W        W 6411   7.192  10.052  10.498
 2212W        W 6412  10.320   6.188   9.477
 2213W        W 6413   2.833   1.499   9.929
 2214W        W 6414  10.351   6.037   1.691
 2215W        W 6415  10.077   2.467   3.314
 2216W        W 6416   5.595   2.187  10.383
 2217W        W 6417   0.830   2.689  10.140
 2218W        W 6418   5.686   8.963   1.484
 2219W        W 6419   9.097   6.272   0.387
 2220W        W 6420  11.022   8.344  11.928
 2221W        W 6421  10.867   1.628  10.043
 2222W        W 6422  10.986   8.047   8.827
 2223W        W 6423   3.638   1.641  11.713
 2224W        W 6424  10.058  10.258  11.038
 2225W        W 6425  10.862   4.759   1.139
 2226W        W 6426   9.969   0.889   2.051
 2227W        W 6427   7.425   4.790   3.273
 2228W        W 6428   1.602   7.562   1.199
 2229W        W 6429   7.156   2.841   9.339
 2230W        W 6430  10.527  11.302   1.390
 2231W        W 6431   1.272   9.092   0.215
 2232W        W 6432   1.293   2.924  10.786
 2233W        W 6433   5.651   9.699  11.951
 2234W        W 6434   2.395  10.017   1.802
 2235W        W 6435   5.655  11.036  11.825
 2236W        W 6436   8.886   1.960  10.846
 2237W        W 6437   3.832   6.264   9.971
 2238W        W 6438   7.464   1.509   3.337
 2239W        W 6439   7.274   1.440   1.792
 2240W        W 6440  10.038   3.227   8.714
 2241W        W 6441   3.228   8.150  11.108
 2242W        W 6442   6.574   0.746   1.820
 2243W        W 6443   7.607   1.386   0.332
 2244W        W 6444   6.395   3.181   0.497
 2245W        W 6445   6.143   5.550   1.241
 2246W        W 6446   3.326   0.715  10.976
 2247W        W 6447   4.191   2.420   1.880
 2248W        W 6448   9.863   3.086   0.935
 2249W        W 6449   4.229   9.915   3.297
 2250W        W 6450   3.451   6.072  11.444
 2251W        W 6451   4.936   4.077   4.055
 2252W        W 6452   0.596   6.508   0.452
 2253W        W 6453   9.947   7.595   8.646
 2254W        W 6454   4.792   8.948   2.510
 2255W        W 6455   8.157   9.161  10.785
 2256W        W 6456   3.703   2.384   9.474
 2257W        W 6457   3.953   3.791   9.271
 2258W        W 6458   5.237   2.132   2.290
 2259W        W 6459   9.970   4.763   9.669
 2260W        W 6460   9.374   0.015   9.026
 2261W        W 6461   4.807  10.729   9.001
 2262W        W 6462   3.719   1.250  10.260
 2263W        W 6463   5.941   3.674   9.844
 2264W        W 6464   9.708   4.181   3.566
 2265W        W 6465   0.403   8.156  10.915
 2266W        W 6466   0.171   4.172  10.753
 2267W        W 6467   0.117   8.822   1.430
 2268W        W 6468   3.785   8.087   1.294
 2269W        W 6469   8.188  11.263   0.329
 2270W        W 6470   5.723  11.327   9.475
 2271W        W 6471   2.787   9.996   3.144
 2272W        W 6472  10.297   5.490  11.476
 2273W        W 6473   5.930   0.701   3.587
 2274W        W 6474   1.520   0.553  10.426
 2275W        W 6475   8.253  10.346   8.698
 2276W        W 6476   1.877   6.048   3.351
 2277W        W 6477   5.622   7.938   0.453
 2278W        W 6478   0.642   6.982  11.258
 2279W        W 6479   5.864   5.315   2.672
 2280W        W 6480   6.682   4.143  10.906
 2281W        W 6481   2.167   2.792  10.907
 2282W        W 6482   9.279  10.868   0.782
 2283W        W 6483   8.971   7.051   1.846
 2284W        W 6484   6.487   0.630  11.265
 2285W        W 6485   5.201   0.928  10.903
 2286W        W 6486   3.189   0.884   2.063
 2287W        W 6487   8.089   5.963  11.050
 2288W        W 6488   3.631   2.600   9.931
 2289W        W 6489   5.566   0.391   2.251
 2290W        W 6490   6.074   1.909  11.506
 2291W        W 6491   0.978   1.732   1.059
 2292W        W 6492  10.711   6.284  11.281
 2293W        W 6493   0.788   7.514   9.512
 2294W        W 6494   0.196   8.505   2.998
 2295W        W 6495   3.863   9.413   1.194
 2296W        W 6496   2.256   2.334  10.024
 2297W        W 6497   4.888   4.318   1.696
 2298W        W 6498   6.016   4.559   0.376
 2299W        W 6499  10.221   6.996   0.261
 2300W        W 6500   3.163   4.238   9.636
 2301W        W 6501   0.824   7.635   0.716
 2302W        W 6502   1.090   7.493   0.219
 2303W        W 6503   0.216   4.804   2.550
 2304W        W 6504   6.978   6.598  10.422
 2305W        W 6505   8.381   1.900   1.004
 2306W        W 6506   2.258   0.174   2.933
 2307W        W 6507   9.788   5.765   0.259
 2308W        W 6508  10.006  11.429   0.663
 2309W        W 6509   5.084   0.218  11.740
 2310W        W 6510   1.466   3.015  10.285
 2311W        W 6511   7.634  11.182   3.397
 2312W        W 6512   3.146   9.991   1.362
 2313W        W 6513  10.485  11.061   2.870
 2314W        W 6514   4.011   5.043   1.022
 2315W        W 6515   9.438  11.023   2.315
 2316W        W 6516   2.812   6.761  11.364
 2317W        W 6517   4.388   0.715   1.358
 2318W        W 6518  10.013   5.672  10.842
 2319W        W 6519   0.751   6.571   2.257
 2320W        W 6520   5.632   8.524   2.315
 2321W        W 6521   4.138   9.389  11.851
 2322W        W 6522   2.838   1.854  10.813
 2323W        W 6523   1.919   2.579   1.342
 2324W        W 6524   2.846   2.612   1.305
 2325W        W 6525   2.809   2.829  10.314
 2326W        W 6526  11.362   5.648   9.102
 2327W        W 6527  10.334  10.979   0.955
 2328W        W 6528   1.817   4.598   9.419
 2329W        W 6529  10.845   1.381   0.504
 2330W        W 6530   4.446   7.151   3.096
 2331W        W 6531   4.176   0.272   9.262
 2332W        W 6532   9.059   4.915   3.248
 2333W        W 6533  10.506   8.951   2.413
 2334W        W 6534   8.474   0.707   2.710
 2335W        W 6535   8.181   5.646   2.203
 2336W        W 6536  10.647   0.815   2.954
 2337W        W 6537  10.395   6.137   1.158
 2338W        W 6538   1.002   7.946  10.427
 2339W        W 6539   8.605   6.493  11.166
 2340W        W 6540   0.537   1.018  10.886
 2341W        W 6541   6.006   2.369   9.605
 2342W        W 6542   6.462   8.609  11.505
 2343W        W 6543   3.229  10.890   2.476
 2344W        W 6544  10.834   6.574  10.200
 2345W        W 6545   6.083   7.846   2.741
 2346W        W 6546   0.870   4.042  10.089
 2347W        W 6547   9.426   5.269   8.563
 2348W        W 6548   7.723  11.289   1.234
 2349W        W 6549   6.338  10.759   0.305
 2350W        W 6550   7.845   5.037   3.464
 2351W        W 6551   2.942   7.287  11.282
 2352W        W 6552   9.131   1.818   9.856
 2353W        W 6553   3.630  10.430  10.850
 2354W        W 6554   0.472  10.271   2.821
 2355W        W 6555   0.103   3.718  10.372
 2356W        W 6556   4.671  10.894  10.341
 2357W        W 6557   1.817   1.814  10.602
 2358W        W 6558   1.977   1.840   0.922
 2359W        W 6559   9.236   7.031   0.099
 2360W        W 6560   3.220   9.106  10.050
 2361W        W 6561   5.191   8.848   1.639
 2362W        W 6562   3.169  10.329   9.540
 2363W        W 6563   1.205   6.321   1.239
 2364W        W 6564  11.221   3.446   3.469
 2365W        W 6565   3.388   3.892   0.379
 2366W        W 6566   0.093   2.517   9.040
 2367W        W 6567   0.219   9.768  10.402
 2368W        W 6568   2.138   1.321   8.986
 2369W        W 6569   7.771  10.488   8.791
 2370W        W 6570   7.848   4.033   0.640
 2371W        W 6571  11.177   6.162  10.072
 2372W        W 6572   5.273   1.267   2.130
 2373W        W 6573   9.738   7.585   0.063
 2374W        W 6574   2.670   5.495   0.274
 2375W        W 6575   7.339   3.265   2.866
 2376W        W 6576   5.263   8.993   2.252
 2377W        W 6577   2.866   5.365   4.061
 2378W        W 6578   7.382   8.551   3.834
 2379W        W 6579   3.879   4.209   1.685
 2380W        W 6580  10.344   8.556   2.143
 2381W        W 6581   0.369   9.285   0.309
 2382W        W 6582  11.393   2.224   1.394
 2383W        W 6583   7.587   4.321   0.279
 2384W        W 6584   2.270   1.284   1.517
 2385W        W 6585   3.678   6.733   1.132
 2386W        W 6586   1.132  10.991   8.546
 2387W        W 6587   9.536   2.977   9.431
 2388W        W 6588   1.406  10.437   0.031
 2389W        W 6589   4.274   3.631   2.405
 2390W        W 6590   0.459   5.044  10.599
 2391W        W 6591   3.224   7.352  10.418
 2392W        W 6592   4.114   5.598   9.759
 2393W        W 6593  10.400   5.898   9.879
 2394W        W 6594   2.600   5.071   1.258
 2395W        W 6595   0.863   6.649   9.019
 2396W        W 6596   4.433   3.650  11.433
 2397W        W 6597   2.380   6.649   2.739
 2398W        W 6598   1.614   7.447   0.267
 2399W        W 6599   2.326   9.391   0.246
 2400W        W 6600   0.896   3.544   2.330
 2401W        W 6601   8.170   6.073   2.500
 2402W        W 6602   7.675  10.105   2.632
 2403W        W 6603   6.417   5.148   2.225
 2404W        W 6604   7.147   4.872   1.953
 2405W        W 6605   1.584   7.033   2.753
 2406W        W 6606   4.192   1.814   2.689
 2407W        W 6607   3.658  10.783  11.247
 2408W        W 6608   1.565   2.280   2.247
 2409W        W 6609   6.456   0.671  10.189
 2410W        W 6610   4.654   9.891   1.365
 2411W        W 6611   5.492   9.175   8.603
 2412W        W 6612   0.886   6.673   9.530
 2413W        W 6613   9.599  10.200   3.367
 2414W        W 6614   1.360   4.399  11.743
 2415W        W 6615   1.049   5.915  11.970
 2416W        W 6616   0.536   1.427   2.496
 2417W        W 6617   8.522   9.616   9.226
 2418W        W 6618   7.179   4.539   2.354
 2419W        W 6619   0.967   1.180   9.999
 2420W        W 6620   5.160   2.943   1.227
 2421W        W 6621   0.441   7.934   1.142
 2422W        W 6622   9.465   9.692  10.376
 2423W        W 6623   9.079  11.368   2.728
 2424W        W 6624  10.640   8.097   1.991
 2425W        W 6625   9.435   7.642   2.290
 2426W        W 6626   9.575   8.343   8.988
 2427W        W 6627  10.793  10.168   2.664
 2428W        W 6628   3.326   0.532   0.990
 2429W        W 6629   7.219   8.033  11.452
 2430W        W 6630   7.551   2.747   3.571
 2431W        W 6631   8.373  10.667  10.357
 2432W        W 6632   9.524   2.430   1.375
 2433W        W 6633   5.465  10.643   3.302
 2434W        W 6634  11.375   2.872   9.834
 2435W        W 6635   5.205   2.895   1.810
 2436W        W 6636   7.073   9.040   3.282
 2437W        W 6637  11.395   3.314  11.094
 2438W        W 6638   4.600   2.756   2.482
 2439W        W 6639   6.422   0.875   9.397
 2440W        W 6640   0.814  10.261   1.381
 2441W        W 6641   8.646   4.868   8.581
 2442W        W 6642   2.286   1.180   3.299
 2443W        W 6643  10.277   3.383   0.984
 2444W        W 6644   2.605   8.831   0.486
 2445W        W 6645   5.531   8.957  10.363
 2446W        W 6646   6.579   4.286   1.275
 2447W        W 6647  10.905   6.274   3.011
 2448W        W 6648   8.424   3.780  11.943
 2449W        W 6649   8.897   0.373   0.199
 2450W        W 6650   4.618   3.023   1.188
 2451W        W 6651   9.291   2.220   0.951
 2452W        W 6652   1.977   9.526   1.818
 2453W        W 6653   1.025   9.058   9.219
 2454W        W 6654   4.799   8.069  10.169
 2455W        W 6655   2.368   5.023  11.407
 2456W        W 6656   0.996   2.778   1.631
 2457W        W 6657   4.304   6.079   9.778
 2458W        W 6658   0.551   2.670   1.911
 2459W        W 6659   9.501   3.986   2.639
 2460W        W 6660   3.878   3.786  11.419
 2461W        W 6661   2.236   7.962   2.316
 2462W        W 6662   0.255   4.918  11.200
 2463W        W 6663   8.393   6.985  11.511
 2464W        W 6664   3.441   3.919   9.311
 2465W        W 6665   0.973   3.705  11.736
 2466W        W 6666   8.131   8.184  11.045
 2467W        W 6667   6.551   9.920  11.326
 2468W        W 6668   1.101   1.843   2.741
 2469W        W 6669  10.121  10.956   9.941
 2470W        W 6670   2.712   4.141   8.802
 2471W        W 6671   0.642   8.091   8.661
 2472W        W 6672   4.955   3.368   1.421
 2473W        W 6673   9.816   3.679   8.583
 2474W        W 6674   5.992   8.492  11.346
 2475W        W 6675   5.189   9.316  10.476
 2476W        W 6676  11.084   5.920  10.515
 2477W        W 6677  10.874  10.254  11.374
 2478W        W 6678   4.363   4.316   1.728
 2479W        W 6679   1.313   1.410   1.270
 2480W        W 6680   6.493   3.437   2.709
 2481W        W 6681   7.452  10.078   1.695
 2482W        W 6682  10.012   7.442   9.150
 2483W        W 6683   4.139   3.432   1.923
 2484W        W 6684   6.908   2.041   0.169
 2485W        W 6685   6.268   2.680   0.268
 2486W        W 6686  11.370   6.109  10.894
 2487W        W 6687   2.604   3.889  11.437
 2488W        W 6688   1.715   1.284   9.292
 2489W        W 6689   8.913   2.842   1.298
 2490W        W 6690   6.584   1.815   1.371
 2491W        W 6691   2.907   6.582   2.693
 2492W        W 6692   8.462   4.527  11.580
 2493W        W 6693   0.303   4.651   0.293
 2494W        W 6694   1.851  11.191   9.088
 2495W        W 6695   0.490   4.326  11.954
 2496W        W 6696  10.694   2.260  11.513
 2497W        W 6697   8.361   7.268  11.966
 2498W        W 6698   2.719   1.760   9.490
 2499W        W 6699   6.241   3.027  10.328
 2500W        W 6700   9.969   8.105   3.221
 2501W        W 6701   2.859   2.269  11.111
 2502W        W 6702   9.195  11.448   9.523
 2503W        W 6703   2.693   3.771   3.217
 2504W        W 6704   6.641   8.637   2.132
 2505W        W 6705   1.895   1.607   1.396
 2506W        W 6706   7.134  11.143  10.915
 2507W        W 6707   4.197   3.044  11.975
 2508W        W 6708   1.709  10.719   1.378
 2509W        W 6709   4.782   8.851  10.994
 2510W        W 6710   3.208   5.117  11.585
 2511W        W 6711   5.699  10.508   0.704
 2512W        W 6712   6.485   3.844  11.881
 2513W        W 6713   3.504   4.954   3.632
 2514W        W 6714   2.297  10.738   2.723
 2515W        W 6715   4.760   2.416  11.760
 2516W        W 6716   3.088   8.445   0.352
 2517W        W 6717   0.774   6.593   1.303
 2518W        W 6718  10.039  11.317   1.209
 2519W        W 6719   7.588   2.850  10.523
 2520W        W 6720   7.922  10.300   1.841
 2521W        W 6721   5.442   1.418   1.200
 2522W        W 6722   0.994   6.858   2.604
 2523W        W 6723   3.128   2.725  10.963
 2524W        W 6724   3.063   4.257  10.592
 2525W        W 6725   5.569   1.858   3.641
 2526W        W 6726  10.016   6.658   2.710
 2527W        W 6727   6.646   9.946   1.303
 2528W        W 6728   8.233   7.644  10.223
 2529W        W 6729   4.303  10.138  11.330
 2530W        W 6730   3.518   0.971   1.214
 2531W        W 6731  10.780   1.426   1.933
 2532W        W 6732   3.310   5.745   9.560
 2533W        W 6733   0.976   3.665   0.264
 2534W        W 6734   2.955   1.773   1.028
 2535W        W 6735  10.034   2.823  10.608
 2536W        W 6736   7.085   9.034   2.760
 2537W        W 6737   8.500   6.256  11.928
 2538W        W 6738   2.400   0.260   0.531
 2539W        W 6739  11.250   3.608   1.780
 2540W        W 6740  10.263   9.414   9.790
 2541W        W 6741   7.486   6.675  11.823
 2542W        W 6742   5.471   7.221   8.524
 2543W        W 6743   3.618   4.464  10.725
 2544W        W 6744   0.932   3.301   1.437
 2545W        W 6745   6.279   3.276   3.730
 2546W        W 6746   1.418   1.384  10.131
 2547W        W 6747  10.206   7.110  11.277
 2548W        W 6748   6.689   9.152   9.352
 2549W        W 6749   3.106  10.472  10.856
 2550W        W 6750   2.619   1.883   3.253
 2551W        W 6751   3.685   2.632  10.781
 2552W        W 6752   9.488   4.623   9.981
 2553W        W 6753   8.110   0.863   1.493
 2554W        W 6754   2.405   6.589  10.382
 2555W        W 6755   5.836   6.100   9.164
 2556W        W 6756   0.888   6.028   1.512
 2557W        W 6757   6.965   5.262  11.545
 2558W        W 6758  10.000   2.242   9.909
 2559W        W 6759   3.353   7.011   2.396
 2560W        W 6760   4.617   0.238   1.396
 2561W        W 6761  11.023   0.554   1.993
 2562W        W 6762  10.434   9.954   1.919
 2563W        W 6763   6.439   5.265  11.471
 2564W        W 6764   5.929  11.475  11.757
 2565W        W 6765   9.538   0.139  10.792
 2566W        W 6766   1.260   8.410   1.952
 2567W        W 6767   6.407   4.898   9.710
 2568W        W 6768   5.037   9.045   0.243
 2569W        W 6769  11.223   3.995   1.406
 2570W        W 6770  10.026   6.306   3.095
 2571W        W 6771   1.098   7.131  11.394
 2572W        W 6772   8.693  10.044   0.221
 2573W        W 6773   7.611   2.988   1.198
 2574W        W 6774   2.630   4.612   9.635
 2575W        W 6775   8.294  11.021   9.637
 2576W        W 6776   0.257   6.999   8.544
 2577W        W 6777   7.513   1.207  10.923
 2578W        W 6778   5.331  10.622  11.613
 2579W        W 6779  10.937   0.980   1.728
 2580W        W 6780  10.571   3.510  11.231
 2581W        W 6781   6.895   3.699   0.795
 2582W        W 6782   8.137   2.954   8.749
 2583W        W 6783   1.901   8.819   1.314
 2584W        W 6784   1.716   0.658   1.239
 2585W        W 6785   2.695   9.419   2.541
 2586W        W 6786  10.784   2.790   8.963
 2587W        W 6787   1.219   5.726  11.479
 2588W        W 6788   4.991   5.303   1.000
 2589W        W 6789  10.772   6.242   9.781
 2590W        W 6790  10.757   5.118  10.856
 2591W        W 6791   0.622   9.478  11.473
 2592W        W 6792   7.661   6.117   2.399
 2593W        W 6793   1.409   7.133   1.450
 2594W        W 6794   5.636   2.194  11.422
 2595W        W 6795   5.796  11.138   9.939
 2596W        W 6796   0.311   1.001   2.331
 2597W        W 6797   6.051   5.692  11.254
 2598W        W 6798   0.776   1.487   3.340
 2599W        W 6799   6.713   1.734   2.996
 2600W        W 6800   8.659   6.097   2.740
 2601W        W 6801   4.087   5.145   9.547
 2602W        W 6802   0.010   2.400  11.046
 2603W        W 6803  11.460   4.579  10.975
 2604W        W 6804   1.402   3.251   1.221
 2605W        W 6805   9.412  10.621   9.550
 2606W        W 6806   1.925   4.430   0.910
 2607W        W 6807   8.531   0.221   3.492
 2608W        W 6808   4.931   7.652   9.351
 2609W        W 6809   5.283   2.795   9.822
 2610W        W 6810   8.588   2.338  11.751
 2611W        W 6811   5.792   8.741   8.627
 2612W        W 6812   6.951   2.632   2.135
 2613W        W 6813   4.735   9.387   2.734
 2614W        W 6814   8.961   6.365   3.702
 2615W        W 6815   2.803   8.926   0.013
 2616W        W 6816  10.537   7.478   0.384
 2617W        W 6817   3.061   6.508   9.938
 2618W        W 6818  10.775   4.793   3.126
 2619W        W 6819   0.345  10.128  11.782
 2620W        W 6820   7.517   4.188   8.765
 2621W        W 6821   1.366   3.641   1.548
 2622W        W 6822  10.953   4.398   0.194
 2623W        W 6823   1.234  10.551   1.389
 2624W        W 6824   6.539   6.151   9.688
 2625W        W 6825   3.603   1.203   8.743
 2626W        W 6826   3.338   1.019  11.862
 2627W        W 6827  10.406   6.696   0.999
 2628W        W 6828   2.102   3.219   0.401
 2629W        W 6829   9.012   4.775   2.752
 2630W        W 6830   2.478   9.422   9.647
 2631W        W 6831   1.665   8.347   0.105
 2632W        W 6832   1.229   7.355   9.701
 2633W        W 6833   0.306   5.755   3.166
 2634W        W 6834  10.922   4.827   2.129
 2635W        W 6835   3.513  10.689   0.681
 2636W        W 6836   6.632   6.221   8.782
 2637W        W 6837   1.515   2.231  11.964
 2638W        W 6838   3.860   2.337   1.462
 2639W        W 6839   8.432   5.569  11.311
 2640W        W 6840   7.907   3.598  11.836
 2641W        W 6841   7.987  11.489  10.194
 2642W        W 6842   0.248   0.914   3.364
 2643W        W 6843   6.740   3.092   0.926
 2644W        W 6844   9.895  10.377   3.007
 2645W        W 6845  11.040   0.299   9.484
 2646W        W 6846   2.027   6.975   3.713
 2647W        W 6847   6.430   9.079   0.906
 2648W        W 6848   5.598   5.572  11.472
 2649W        W 6849   8.140   1.767   1.459
 2650W        W 6850   4.679   4.593   9.422
 2651W        W 6851   7.604   9.386  11.780
 2652W        W 6852   8.729   6.827   3.587
 2653W        W 6853   5.700   0.458   0.896
 2654W        W 6854  10.486   5.077   2.790
 2655W        W 6855   0.518   2.106   0.182
 2656W        W 6856   1.463   6.161  10.532
 2657W        W 6857   0.384   0.810   1.873
 2658W        W 6858   5.464   2.882   0.458
 2659W        W 6859   6.182   1.335   0.236
 2660W        W 6860   7.089   3.534  10.420
 2661W        W 6861   6.089   6.143   3.128
 2662W        W 6862   5.010   2.793   0.239
 2663W        W 6863  10.889   0.461  11.894
 2664W        W 6864  10.378   5.188   0.153
 2665W        W 6865   6.362   6.052   0.362
 2666W        W 6866  11.126   3.943  10.392
 2667W        W 6867   5.589   8.079   2.629
 2668W        W 6868   5.929   8.069   2.251
 2669W        W 6869   4.039   5.990   0.004
 2670W        W 6870   1.845   6.906  11.972
 2671W        W 6871  11.152   6.381   0.375
 2672W        W 6872   6.786   2.171   1.981
 2673W        W 6873   1.061   0.788  11.852
 2674W        W 6874   8.220   7.166  10.498
 2675W        W 6875   1.730   2.244  10.864
 2676W        W 6876   6.243   9.950   2.290
 2677W        W 6877   9.094   0.909   9.971
 2678W        W 6878   6.897   9.115  10.324
 2679W        W 6879   6.788   0.732   2.289
 2680W        W 6880   9.964   4.206  11.384
 2681W        W 6881   9.928   6.706   1.733
 2682W        W 6882   8.521  10.895  11.258
 2683W        W 6883   7.246   4.669   4.130
 2684W        W 6884  10.885   2.138  10.125
 2685W        W 6885   9.286   4.151  10.155
 2686W        W 6886   3.807   6.634   1.641
 2687W        W 6887   5.626   1.795  11.740
 2688W        W 6888   4.352   6.982   9.745
 2689W        W 6889   2.989  11.408   1.717
 2690W        W 6890   8.491   8.893  10.427
 2691W        W 6891   3.886  11.077  11.670
 2692W        W 6892   6.548   7.886  11.861
 2693W        W 6893   4.200   2.210  11.477
 2694W        W 6894   8.075   3.810  10.914
 2695W        W 6895   5.709   2.905   1.882
 2696W        W 6896   6.432   7.801   1.077
 2697W        W 6897   8.710   5.138  11.131
 2698W        W 6898   0.733   5.553   2.497
 2699W        W 6899   3.649   0.528  11.351
 2700W        W 6900   4.945  11.034  10.768
 2701W        W 6901   2.890   9.002   1.001
 2702W        W 6902   8.036   2.694  10.289
 2703W        W 6903   7.096   0.765   0.946
 2704W        W 6904   4.753   7.186   2.671
 2705W        W 6905   6.717   3.679   2.220
 2706W        W 6906  10.086   1.504  10.734
 2707W        W 6907   4.710   9.994   3.481
 2708W        W 6908   8.880   5.621   2.640
 2709W        W 6909   8.228   4.252   3.249
 2710W        W 6910   1.762   6.531  11.024
 2711W        W 6911   0.780   1.848   2.358
 2712W        W 6912   1.308   7.542  10.512
 2713W        W 6913   8.819   7.091  11.797
 2714W        W 6914   0.016   3.756   2.241
 2715W        W 6915   4.725   6.649   1.423
 2716W        W 6916   7.501   4.088   2.878
 2717W        W 6917   7.785  10.679  11.099
 2718W        W 6918   7.913   7.701   1.274
 2719W        W 6919   0.783   6.443  10.535
 2720W        W 6920   7.542   4.665   9.952
 2721W        W 6921   6.515   0.887   3.258
 2722W        W 6922   6.097   5.599   0.274
 2723W        W 6923   9.049   6.722   3.185
 2724W        W 6924   5.420   8.915   1.030
 2725W        W 6925   5.516  10.924  11.238
 2726W        W 6926   6.532  10.945   1.442
 2727W        W 6927   9.046   9.953   9.617
 2728W        W 6928   2.887   6.030   3.305
 2729W        W 6929   3.226   5.548  10.066
 2730W        W 6930   8.438   5.937   9.621
 2731W        W 6931   2.174   5.626   3.492
 2732W        W 6932   5.054   3.797   1.168
 2733W        W 6933   5.586   9.311   9.375
 2734W        W 6934   7.572  10.001   0.400
 2735W        W 6935  10.595   4.510   8.919
 2736W        W 6936   2.561   9.022   1.932
 2737W        W 6937   2.789   7.699  11.703
 2738W        W 6938  11.266  11.437  10.327
 2739W        W 6939   7.517  10.579   1.690
 2740W        W 6940   0.426   9.152   2.252
 2741W        W 6941   4.766  10.211  11.016
 2742W        W 6942   1.891   0.068  11.502
 2743W        W 6943   9.025   6.711  10.965
 2744W        W 6944   3.806   2.723   0.119
 2745W        W 6945   7.880   9.795   1.750
 2746W        W 6946  10.242   5.018  11.664
 2747W        W 6947  10.984   2.962   3.168
 2748W        W 6948   7.101   8.715  10.043
 2749W        W 6949  10.348   7.681   2.087
 2750W        W 6950   6.955   1.268  10.036
 2751W        W 6951   9.102   0.368   2.248
 2752W        W 6952   4.735  11.408   3.359
 2753W        W 6953   8.896   3.564  10.347
 2754W        W 6954   0.004   8.003   1.398
 2755W        W 6955   7.408   7.255   3.087
 2756W        W 6956   5.241  10.774   0.618
 2757W        W 6957  10.685   7.131  11.415
 2758W        W 6958   1.777   9.825   0.527
 2759W        W 6959   2.204   1.873  10.274
 2760W        W 6960   8.453   7.664   1.845
 2761W        W 6961   8.415   4.191  10.759
 2762W        W 6962   2.123   9.806   1.414
 2763W        W 6963   5.059   7.776   0.406
 2764W        W 6964   3.166  11.409  10.627
 2765W        W 6965   5.289   6.929   9.964
 2766W        W 6966   8.648   5.863   1.365
 2767W        W 6967   1.790   8.620  11.343
 2768W        W 6968   1.876   9.363   1.233
 2769W        W 6969   7.542   9.183   9.452
 2770W        W 6970   2.368   6.993   3.171
 2771W        W 6971   1.893   9.019   3.340
 2772W        W 6972   0.839   9.072   2.554
 2773W        W 6973   2.613  11.361  10.882
 2774W        W 6974   6.215  10.427  11.358
 2775W        W 6975   1.232  11.493   1.283
 2776W        W 6976   8.000   7.619   8.851
 2777W        W 6977   6.535   6.695  11.712
 2778W        W 6978   4.238   3.917   8.816
 2779W        W 6979   2.709  10.193  11.979
 2780W        W 6980   6.823   6.556   2.524
 2781W        W 6981   1.112   7.112   1.872
 2782W        W 6982   0.720   8.335   9.403
 2783W        W 6983   7.514   2.545   0.696
 2784W        W 6984   3.541  10.010   9.703
 2785W        W 6985   9.774   1.481   3.347
 2786W        W 6986   9.045   6.169   1.358
 2787W        W 6987   7.665   4.268   2.423
 2788W        W 6988   5.629   5.672   0.484
 2789W        W 6989   2.645   5.059   8.900
 2790W        W 6990  10.101  11.250   2.552
 2791W        W 6991   4.769   0.662   9.914
 2792W        W 6992   1.301   4.399  10.204
 2793W        W 6993   1.311   1.781   9.815
 2794W        W 6994   3.884   8.083   3.048
 2795W        W 6995   3.953   6.479   2.667
 2796W        W 6996  11.288   8.557   9.511
 2797W        W 6997   2.180   7.740   1.856
 2798W        W 6998   5.680   4.294  10.259
 2799W        W 6999   5.214  10.734   8.712
 2800W        W 7000  11.275   2.841  11.249
 2801W        W 7001  10.929   8.465   9.145
 2802W        W 7002   2.517   5.519   8.714
 2803W        W 7003   0.176   9.129  10.851
 2804W        W 7004   8.902   5.677   8.921
 2805W        W 7005   2.627   9.549   3.319
 2806W        W 7006   5.791   8.888  11.008
 2807W        W 7007   0.391   8.944   0.817
 2808W        W 7008   8.561   9.785  10.310
 2809W        W 7009   4.536   3.983  11.794
 2810W        W 7010   6.835   2.284  11.119
 2811W        W 7011   0.355   4.029   9.895
 2812W        W 7012   4.194   0.422   0.034
 2813W        W 7013   4.915   2.806  11.419
 2814W        W 7014   1.775   0.948  10.649
 2815W        W 7015   6.011   5.114  10.003
 2816W        W 7016   9.565   9.875   2.453
 2817W        W 7017  11.473   0.355   1.653
 2818W        W 7018   8.895   1.760   2.183
 2819W        W 7019  11.052   0.039   1.730
 2820W        W 7020   2.848   8.522  11.096
 2821W        W 7021   6.524   3.641  10.888
 2822W        W 7022  10.319   9.172  11.333
 2823W        W 7023   3.890   1.398   3.425
 2824W        W 7024   5.219   4.120  11.907
 2825W        W 7025   1.815   2.024   3.069
 2826W        W 7026   3.288   8.612  11.343
 2827W        W 7027   6.694   6.708   3.656
 2828W        W 7028   2.647  11.482   2.469
 2829W        W 7029   1.102   5.421   0.759
 2830W        W 7030   9.986   1.171  10.320
 2831W        W 7031   2.875   5.888  10.359
 2832W        W 7032   4.861   9.540   0.217
 2833W        W 7033   6.234   5.830   9.404
 2834W        W 7034   5.543   1.927   9.546
 2835W        W 7035   0.445   0.960   1.364
 2836W        W 7036   9.098   5.044   4.264
 2837W        W 7037   6.749   2.594   4.003
 2838W        W 7038   3.318   0.549   2.841
 2839W        W 7039   0.228   2.166   2.804
 2840W        W 7040   6.441  11.151   0.970
 2841W        W 7041   4.513   8.602   0.239
 2842W        W 7042   8.134  10.039   9.117
 2843W        W 7043   0.917  11.072   3.739
 2844W        W 7044  10.043  10.358  11.826
 2845W        W 7045   2.663   8.088   3.087
 2846W        W 7046   9.944   6.244   1.467
 2847W        W 7047   3.224   9.313   2.423
 2848W        W 7048   8.313   0.785   8.989
 2849W        W 7049   0.024   0.673   1.187
 2850W        W 7050   5.232  10.128  10.810
 2851W        W 7051   8.923   9.512   0.408
 2852W        W 7052   9.333   2.247  10.094
 2853W        W 7053   5.630   7.056   9.026
 2854W        W 7054   6.613   9.544   2.832
 2855W        W 7055   8.465   9.009   1.730
 2856W        W 7056   4.591   9.739  10.993
 2857W        W 7057   4.383   9.563  11.443
 2858W        W 7058   4.165  10.037   0.519
 2859W        W 7059   7.949  10.061   0.732
 2860W        W 7060   4.327   1.441  11.024
 2861W        W 7061   8.980   0.649   9.504
 2862W        W 7062   7.591  10.380   1.232
 2863W        W 7063   0.443   9.898   9.503
 2864W        W 7064  10.816   0.221   1.294
 2865W        W 7065   2.767   7.367  10.189
 2866W        W 7066   9.902   6.523   0.282
 2867W        W 7067  10.359   1.302   9.244
 2868W        W 7068   8.379   5.037  11.503
 2869W        W 7069   7.406   0.957   9.166
 2870W        W 7070   8.747   7.553  11.056
 2871W        W 7071   0.710   2.341   9.673
 2872W        W 7072   2.106   8.995   2.876
 2873W        W 7073   8.418   3.227   8.428
 2874W        W 7074   0.284   1.717  10.083
 2875W        W 7075   8.332   4.116   0.497
 2876W        W 7076   6.270   5.740   0.776
 2877W        W 7077   6.075   0.993   8.990
 2878W        W 7078   6.062   7.457   9.788
 2879W        W 7079   2.338   0.244  11.335
 2880W        W 7080   4.337   6.823   2.682
 2881W        W 7081   2.093   7.857   1.045
 2882W        W 7082   8.043   9.256   9.566
 2883W        W 7083   7.620   6.708  11.328
 2884W        W 7084  10.847  11.435   0.219
 2885W        W 7085   2.241   7.540   3.076
 2886W        W 7086   2.413   5.290   2.167
 2887W        W 7087   3.291   4.714   8.960
 2888W        W 7088   2.161   2.897   9.328
 2889W        W 7089  10.574   9.940   3.438
 2890W        W 7090   8.845   0.636   8.974
 2891W        W 7091   3.396  10.944   3.822
 2892W        W 7092   0.110   1.463   2.214
 2893W        W 7093   6.803   7.939  11.169
 2894W        W 7094   2.696  10.691  10.413
 2895W        W 7095   4.588   4.026   2.550
 2896W        W 7096   8.155   3.650   0.351
 2897W        W 7097   2.369   7.566   0.676
 2898W        W 7098   6.467   9.395  10.404
 2899W        W 7099   4.098   6.417  11.240
 2900W        W 7100  10.975   5.368  11.356
 2901W        W 7101   0.900   6.713  11.610
 2902W        W 7102   0.287   0.405   9.957
 2903W        W 7103   7.167  11.352   3.516
 2904W        W 7104   5.944   8.036  10.989
 2905W        W 7105   7.415   9.585   1.822
 2906W        W 7106   5.663  11.352   1.342
 2907W        W 7107   7.944   3.672  10.439
 2908W        W 7108   2.212   1.138   2.771
 2909W        W 7109   0.076   4.177   2.559
 2910W        W 7110   4.084   3.416   8.883
 2911W        W 7111   9.417   6.581   3.561
 2912W        W 7112   5.332  11.293   1.758
 2913W        W 7113   9.024   2.300   1.377
 2914W        W 7114   8.953   9.025   1.547
 2915W        W 7115   9.916   0.461   2.329
 2916W        W 7116   0.346   9.262   1.216
 2917W        W 7117   0.678   9.526   1.981
 2918W        W 7118   5.127   9.593   8.555
 2919W        W 7119   0.479   8.082   3.203
 2920W        W 7120   8.000   9.533   2.487
 2921W        W 7121  11.434  11.367   2.523
 2922W        W 7122   7.121   2.950   4.088
 2923W        W 7123   4.849  10.836   9.866
 2924W        W 7124   6.440   2.358  10.812
 2925W        W 7125   5.234   6.927   3.573
 2926W        W 7126   4.091  11.057  11.181
 2927W        W 7127   2.744  11.141   2.078
 2928W        W 7128  10.614   0.476   0.906
 2929W        W 7129   5.215   2.625   0.830
 2930W        W 7130   0.207   6.982   1.248
 2931W        W 7131   0.566   1.765   2.905
 2932W        W 7132   0.899   7.667  10.003
 2933W        W 7133   1.561   2.159  10.306
 2934W        W 7134   0.142   9.576   2.087
 2935W        W 7135   2.887   2.111   0.065
 2936W        W 7136   8.430   6.763  11.980
 2937W        W 7137  10.634   8.582  10.480
 2938W        W 7138   1.934   9.288  11.816
 2939W        W 7139   6.300  10.470  11.878
 2940W        W 7140   0.368   3.396   2.373
 2941W        W 7141   7.279   2.410  11.350
 2942W        W 7142   3.387   5.687   2.862
 2943W        W 7143   3.569   4.337   3.064
 2944W        W 7144  11.059   0.902  10.955
 2945W        W 7145   3.218   5.177   2.861
 2946W        W 7146   0.828   9.495  10.301
 2947W        W 7147  10.397   0.433   0.048
 2948W        W 7148   5.061  10.188   2.590
 2949W        W 7149   9.564   5.035   2.657
 2950W        W 7150   9.499   6.931   8.678
 2951W        W 7151   2.655   1.957   1.849
 2952W        W 7152   3.868   1.446   9.464
 2953W        W 7153  10.894   5.684   0.732
 2954W        W 7154   3.956  11.298   9.990
 2955W        W 7155   2.650  10.264  10.712
 2956W        W 7156   0.255   5.188   3.245
 2957W        W 7157   7.562   3.349  10.506
 2958W        W 7158   9.862   9.641   9.547
 2959W        W 7159   5.166   9.328   9.018
 2960W        W 7160   5.521   6.323  11.828
 2961W        W 7161   1.225   3.230   0.188
 2962W        W 7162   5.978   1.741   2.375
 2963W        W 7163   0.887  10.363   1.880
 2964W        W 7164   3.821   1.221   2.439
 2965W        W 7165   9.386   2.793   1.048
 2966W        W 7166   7.401   5.011   3.750
 2967W        W 7167   5.052   6.079   0.507
 2968W        W 7168   4.903  10.132   1.722
 2969W        W 7169   9.369   8.132   1.379
 2970W        W 7170   7.946   9.078   9.099
 2971W        W 7171   3.855   5.511   0.246
 2972W        W 7172   1.711   3.150  10.945
 2973W        W 7173   8.945   8.828   0.271
 2974W        W 7174   2.905  10.282   9.113
 2975W        W 7175   9.083   1.495   2.591
 2976W        W 7176   5.128   7.337   8.907
 2977W        W 7177  10.784   3.275   0.909
 2978W        W 7178   2.722   1.873   2.685
 2979W        W 7179   5.845   3.293   9.377
 2980W        W 7180  10.026   9.456   0.860
 2981W        W 7181   8.973   2.946   0.774
 2982W        W 7182   0.178   4.042  11.669
 2983W        W 7183   5.204   1.436  11.092
 2984W        W 7184   2.169   4.261   9.598
 2985W        W 7185   6.810   2.056   2.489
 2986W        W 7186   0.521   0.413  10.403
 2987W        W 7187  10.166   7.094   9.513
 2988W        W 7188   3.548   6.704   9.835
 2989W        W 7189   6.142   6.526   9.946
 2990W        W 7190   2.687   6.716   8.247
 2991W        W 7191   0.337   0.069   1.172
 2992W        W 7192   2.067   4.281   9.088
 2993W        W 7193  11.406   3.897   0.750
 2994W        W 7194   3.715   0.841   9.083
 2995W        W 7195   6.530   4.599  10.708
 2996W        W 7196   8.643  10.478   9.020
 2997W        W 7197   0.178   0.401   3.205
 2998W        W 7198   8.862   4.872  11.530
 2999W        W 7199   9.855  11.412  11.655
 3000W        W 7200   0.470   3.371   8.888
 3001W        W 7201   2.225   0.054   0.040
 3002W        W 7202  10.925   0.430   0.419
 3003W        W 7203   4.876   1.463   9.575
 3004W        W 7204   0.909   1.383   2.856
 3005W        W 7205   4.327   2.320   2.648
 3006W        W 7206   7.267   2.799   3.101
 3007W        W 7207   3.519   9.218   2.803
 3008W        W 7208   4.359   3.691  10.591
 3009W        W 7209  10.776   0.797  10.540
 3010W        W 7210   9.901   7.667   2.979
 3011W        W 7211   1.218   5.788   1.853
 3012W        W 7212   0.773   8.507  11.225
 3013W        W 7213   2.975   5.997   9.863
 3014W        W 7214   1.312   3.165   1.749
 3015W        W 7215   7.417   2.089   0.936
 3016W        W 7216   1.377   8.555   0.955
 3017W        W 7217   4.094   9.200  10.430
 3018W        W 7218   0.802   8.480   3.756
 3019W        W 7219   3.752   4.927  10.292
 3020W        W 7220   9.593   5.119  11.726
 3021W        W 7221   9.988   8.104   2.684
 3022W        W 7222   2.276   1.970   9.254
 3023W        W 7223   5.692   9.031   2.532
 3024W        W 7224   5.131   3.813  10.915
 3025W        W 7225   6.718   2.652   8.563
 3026W        W 7226   4.278   1.124  11.905
 3027W        W 7227   6.547   1.676   8.747
 3028W        W 7228   3.213   5.297  11.048
 3029W        W 7229   2.611   0.624   1.150
 3030W        W 7230   3.859   5.844   1.482
 3031W        W 7231   3.628   4.334   1.253
 3032W        W 7232   5.084   5.708  10.205
 3033W        W 7233   0.692   7.993  11.339
 3034W        W 7234   8.676   7.423  10.363
 3035W        W 7235   4.614   7.966  11.047
 3036W        W 7236  11.199  11.034   1.779
 3037W        W 7237  10.062   5.175   2.443
 3038W        W 7238   6.270   3.267   9.070
 3039W        W 7239   1.386   5.726  10.213
 3040W        W 7240   2.658   1.702  10.360
 3041W        W 7241  10.127   9.596   1.640
 3042W        W 7242   2.650   0.173  11.801
 3043W        W 7243   0.148   2.605   0.999
 3044W        W 7244   3.113   7.543   1.679
 3045W        W 7245   3.704   9.934   3.219
 3046W        W 7246   0.979  10.796   0.013
 3047W        W 7247   6.291   7.679   0.613
 3048W        W 7248   6.039   1.379   8.455
 3049W        W 7249   9.870   5.137  11.304
 3050W        W 7250   9.206   7.945   9.037
 3051W        W 7251   7.969   4.710   2.519
 3052W        W 7252   6.768   8.820  11.149
 3053W        W 7253   7.724   3.644   2.817
 3054W        W 7254   3.156  10.891  11.905
 3055W        W 7255   7.747   7.599  10.366
 3056W        W 7256  11.046   0.017   3.302
 3057W        W 7257   7.053   0.577   9.061
 3058W        W 7258   0.464  10.855  11.531
 3059W        W 7259   9.925   7.599   9.633
 3060W        W 7260   0.912   0.475   0.677
 3061W        W 7261   2.318   7.200   9.937
 3062W        W 7262   1.183   1.200   9.172
 3063W        W 7263   4.427   2.670  11.410
 3064W        W 7264   3.704  11.385   9.091
 3065W        W 7265  10.414   8.174  11.481
 3066W        W 7266  10.934   2.742   0.211
 3067W        W 7267   9.936   4.846   3.444
 3068W        W 7268   8.872   7.253   0.334
 3069W        W 7269   2.785   1.796  11.653
 3070W        W 7270   7.458  10.390   9.798
 3071W        W 7271   9.499   8.879   8.931
 3072W        W 7272   7.499   6.750   3.196
 3073W        W 7273   5.498  10.734   1.958
 3074W        W 7274   1.462   5.264  11.487
 3075W        W 7275   0.010  10.091   2.034
 3076W        W 7276   5.523   0.622  10.129
 3077W        W 7277   5.823   7.571   0.782
 3078W        W 7278   5.247   3.743   2.255
 3079W        W 7279  10.527   1.391   2.909
 3080W        W 7280   8.186   5.044  10.459
 3081W        W 7281   6.594  10.481   1.229
 3082W        W 7282   6.757   3.760  11.331
 3083W        W 7283   6.043  11.020   1.270
 3084W        W 7284   9.863   4.677  11.577
 3085W        W 7285  11.364   9.201   3.521
 3086W        W 7286   0.536   5.893  10.832
 3087W        W 7287   7.452   8.505  11.474
 3088W        W 7288   5.200   5.726   9.676
 3089W        W 7289   8.026   0.001   3.444
 3090W        W 7290   2.654  10.220  10.214
 3091W        W 7291   8.333   0.783  11.213
 3092W        W 7292   9.434   7.380   1.052
 3093W        W 7293   8.957   1.613   9.301
 3094W        W 7294   5.604   4.471   1.099
 3095W        W 7295   2.898   4.638   8.624
 3096W        W 7296   5.338  10.980   9.785
 3097W        W 7297   1.878   6.607   2.824
 3098W        W 7298   4.156  11.436   8.857
 3099W        W 7299   6.592   9.855   8.950
 3100W        W 7300   5.810   6.038  11.547
 3101W        W 7301   0.842   2.661  10.678
 3102W        W 7302   4.595   5.444   1.439
 3103W        W 7303   4.287   7.827  10.079
 3104W        W 7304   2.815   7.596   2.099
 3105W        W 7305   1.447   8.189  10.531
 3106W        W 7306   7.499   2.757   1.643
 3107W        W 7307  11.381   1.247   0.055
 3108W        W 7308   8.031   0.841   1.999
 3109W        W 7309   6.137   0.453  11.775
 3110W        W 7310   5.257  10.537   1.067
 3111W        W 7311   8.122   2.441  11.928
 3112W        W 7312   7.036   4.085   1.089
 3113W        W 7313   3.257   8.653   9.360
 3114W        W 7314   3.583   5.763  11.869
 3115W        W 7315   5.801  10.786   0.265
 3116W        W 7316   4.038   0.770  10.454
 3117W        W 7317  11.364   5.197   9.761
 3118W        W 7318   6.440   4.786  11.695
 3119W        W 7319   1.181   8.575   9.315
 3120W        W 7320   3.257   7.950   0.382
 3121W        W 7321   3.284   8.204   1.278
 3122W        W 7322   1.801  11.217  10.564
 3123W        W 7323   4.573  11.490   0.915
 3124W        W 7324   8.412  11.323   2.651
 3125W        W 7325   6.175   1.290   0.751
 3126W        W 7326   0.868   7.218   4.048
 3127W        W 7327   0.371   3.811   0.991
 3128W        W 7328   3.731   3.202  11.883
 3129W        W 7329   1.626  10.313   9.014
 3130W        W 7330   3.621  11.342   3.068
 3131W        W 7331  11.042   8.740   0.567
 3132W        W 7332   5.703   2.296   9.198
 3133W        W 7333   2.581   5.060   3.743
 3134W        W 7334   6.770  10.509   9.033
 3135W        W 7335   5.746   2.824  10.014
 3136W        W 7336   3.992   4.677   9.840
 3137W        W 7337   4.531   9.114   0.274
 3138W        W 7338   7.769   8.324   9.234
 3139W        W 7339   0.245   0.825  10.280
 3140W        W 7340  11.460   1.261   1.306
 3141W        W 7341  11.132  10.781   3.545
 3142W        W 7342   1.291  11.322  10.481
 3143W        W 7343   6.833   7.863   2.340
 3144W        W 7344   6.507   4.479   2.598
 3145W        W 7345   1.028   4.519   1.338
 3146W        W 7346   4.248  10.316   1.935
 3147W        W 7347   0.636  10.053   0.185
 3148W        W 7348   1.400   9.540  11.016
 3149W        W 7349   9.002   1.083   9.180
 3150W        W 7350   2.879   0.231   0.270
 3151W        W 7351  11.304   8.724   3.301
 3152W        W 7352  11.149   4.603   3.479
 3153W        W 7353  11.217   4.336   9.880
 3154W        W 7354   1.910   1.875   0.043
 3155W        W 7355   6.974   9.796   0.921
 3156W        W 7356   5.287   8.951  10.994
 3157W        W 7357   1.883   3.875   0.856
 3158W        W 7358  10.496   8.438  11.926
 3159W        W 7359   4.393   9.940   9.234
 3160W        W 7360   2.541   1.215   2.389
 3161W        W 7361   8.394   5.556   9.001
 3162W        W 7362   1.583  10.385   0.990
 3163W        W 7363   3.741   1.772  10.424
 3164W        W 7364   5.615   1.663   1.626
 3165W        W 7365   8.178   1.039   2.462
 3166W        W 7366  10.568   9.347   0.166
 3167W        W 7367   6.252   5.072  10.483
 3168W        W 7368   3.606  10.987   9.458
 3169W        W 7369   8.484   2.670   9.970
 3170W        W 7370   2.306   8.663   9.106
 3171W        W 7371  10.976   9.534   3.379
 3172W        W 7372   9.315   4.241   9.648
 3173W        W 7373   5.751   7.989   9.103
 3174W        W 7374   3.160   6.929   1.066
 3175W        W 7375   9.996   4.568  10.156
 3176W        W 7376   2.827   2.801   0.484
 3177W        W 7377   5.598   2.853   3.389
 3178W        W 7378   6.959   0.784  10.242
 3179W        W 7379  11.452  10.944   2.252
 3180W        W 7380   2.128   6.110  11.770
 3181W        W 7381  11.315   7.608   1.649
 3182W        W 7382   1.687   0.692   9.176
 3183W        W 7383  10.598   8.862   1.386
 3184W        W 7384   3.221   8.908   1.985
 3185W        W 7385   6.092   8.310   1.772
 3186W        W 7386   0.358  11.059   1.305
 3187W        W 7387   5.992  10.898  11.434
 3188W        W 7388   9.873   2.223  11.774
 3189W        W 7389   8.932   0.880  10.753
 3190W        W 7390   8.591   3.780   2.668
 3191W        W 7391   1.219   6.527   3.562
 3192W        W 7392   8.897   1.251   9.659
 3193W        W 7393   3.820   7.788  11.429
 3194W        W 7394   8.298   9.592   2.038
 3195W        W 7395   9.306   7.850   1.859
 3196W        W 7396   0.946   9.875   9.376
 3197W        W 7397   8.772   4.553   1.260
 3198W        W 7398   1.068  11.320  11.927
 3199W        W 7399   1.175   1.005   2.630
 3200W        W 7400   5.761   3.267   8.364
 3201W        W 7401   9.932   6.183   9.845
 3202W        W 7402   5.649   0.918   2.203
 3203W        W 7403   2.697   7.189  11.723
 3204W        W 7404   5.757  11.283   0.436
 3205W        W 7405   2.643   2.836   9.455
 3206W        W 7406   3.819   2.625   3.226
 3207W        W 7407  10.939   8.946   9.295
 3208W        W 7408   2.255  11.232   2.700
 3209W        W 7409   9.060   4.684   9.684
 3210W        W 7410   8.144   9.391   1.586
 3211W        W 7411   7.569   9.049   2.909
 3212W        W 7412   2.019   7.623   2.635
 3213W        W 7413   8.719  11.354   0.382
 3214W        W 7414   0.787   1.590  11.354
 3215W        W 7415   8.449   0.575   1.749
 3216W        W 7416   7.500   7.977   1.012
 3217W        W 7417   4.001   2.818   9.582
 3218W        W 7418   0.826   8.803   0.069
 3219W        W 7419  10.759   4.884  11.436
 3220W        W 7420  11.288   8.177   0.371
 3221W        W 7421   2.733   1.531  11.215
 3222W        W 7422   6.601   0.753   2.769
 3223W        W 7423   4.257   1.021   3.368
 3224W        W 7424  10.816  10.799  10.876
 3225W        W 7425   7.259   1.340   9.570
 3226W        W 7426  10.926   2.567   9.747
 3227W        W 7427   9.424   6.633   0.328
 3228W        W 7428   1.854   2.932   2.697
 3229W        W 7429   3.479   4.401   0.460
 3230W        W 7430   9.571   6.553   0.815
 3231W        W 7431  10.250   1.267   3.350
 3232W        W 7432   7.517   9.424  11.292
 3233W        W 7433   9.897   9.467  10.513
 3234W        W 7434   3.923  10.069   9.355
 3235W        W 7435   3.438   7.947   1.758
 3236W        W 7436  10.509   1.831   9.239
 3237W        W 7437  10.800   0.831   3.439
 3238W        W 7438   3.600   8.962   0.559
 3239W        W 7439   6.987   4.314   2.780
 3240W        W 7440   3.141   3.214   0.450
 3241W        W 7441   6.503   9.190   8.473
 3242W        W 7442   6.110   5.229  11.886
 3243W        W 7443   4.325   8.596   2.537
 3244W        W 7444   6.279  11.290   0.385
 3245W        W 7445   3.665   6.506   2.145
 3246W        W 7446   2.809   4.328   0.933
 3247W        W 7447   1.281  10.049   1.265
 3248W        W 7448  11.303  10.281   9.945
 3249W        W 7449   8.082  10.306  11.286
 3250W        W 7450   0.923   5.636   9.960
 3251W        W 7451   8.423   7.112   9.819
 3252W        W 7452   0.777   7.783  10.865
 3253W        W 7453   3.951   3.212   0.893
 3254W        W 7454   6.396   5.766  10.570
 3255W        W 7455  10.413   9.786   0.926
 3256W        W 7456   0.806   9.970   0.666
 3257W        W 7457   0.398  11.011   9.951
 3258W        W 7458   4.632   4.396  10.014
 3259W        W 7459   0.852   1.256  11.730
 3260W        W 7460  11.484   0.165   0.699
 3261W        W 7461  10.907   1.270   3.218
 3262W        W 7462   1.955  10.386   3.103
 3263W        W 7463   6.301   6.031   1.209
 3264W        W 7464   0.313  11.442  10.250
 3265W        W 7465  10.250   0.537   2.730
 3266W        W 7466   5.376  10.120   0.765
 3267W        W 7467   5.942  11.425   2.760
 3268W        W 7468   2.798   9.382   9.262
 3269W        W 7469   8.421   9.225   3.326
 3270W        W 7470   9.914   2.833   0.467
 3271W        W 7471   9.396   0.046   1.454
 3272W        W 7472   4.893   0.064   2.579
 3273W        W 7473   9.690   0.005   0.130
 3274W        W 7474   8.394   8.627   2.065
 3275W        W 7475   3.344   8.439   2.724
 3276W        W 7476   0.369   6.088   0.757
 3277W        W 7477   4.201   6.533   8.586
 3278W        W 7478   5.059   2.369   9.990
 3279W        W 7479   1.142   8.718   2.951
 3280W        W 7480   2.656   8.604   3.176
 3281W        W 7481   0.388  11.012   8.448
 3282W        W 7482   7.500   1.408   1.204
 3283W        W 7483   1.362   2.201   3.298
 3284W        W 7484   9.956   7.186   9.958
 3285W        W 7485   1.356   0.616   2.381
 3286W        W 7486   2.681   3.465   1.021
 3287W        W 7487  11.318   6.872   0.356
 3288W        W 7488   7.478   8.195   0.306
 3289W        W 7489   6.972  10.176   0.068
 3290W        W 7490   0.457   0.469   1.462
 3291W        W 7491   5.507   3.235   0.089
 3292W        W 7492   8.639   5.919  10.092
 3293W        W 7493   2.211   4.116   1.736
 3294W        W 7494   0.395   2.962  11.853
 3295W        W 7495   7.655   0.092   1.675
 3296W        W 7496   1.928   5.151   2.316
 3297W        W 7497   7.469   2.673   2.157
 3298W        W 7498   1.400   6.911   9.505
 3299W        W 7499   8.541   0.269   2.985
 3300W        W 7500   1.570   9.422   0.822
 3301W        W 7501  11.330   1.614   0.432
 3302W        W 7502   6.621   7.099   9.665
 3303W        W 7503   9.049   8.905  11.235
 3304W        W 7504   3.750   4.631   0.835
 3305W        W 7505   1.800   0.467  10.012
 3306W        W 7506   8.384   8.886   9.428
 3307W        W 7507   1.025   7.931  11.738
 3308W        W 7508   0.425   5.547  10.469
 3309W        W 7509   2.959   9.489   9.814
 3310W        W 7510  10.847   0.657   8.958
 3311W        W 7511   3.242   8.203  10.092
 3312W        W 7512   7.471   0.535   0.270
 3313W        W 7513  11.323   6.444  10.465
 3314W        W 7514   3.230   1.225   1.599
 3315W        W 7515   3.183   7.695  10.808
 3316W        W 7516   6.723   9.051   2.412
 3317W        W 7517   8.005   0.516   0.278
 3318W        W 7518   1.882   3.076   1.279
 3319W        W 7519   4.964  10.342   0.492
 3320W        W 7520  10.362   3.644   8.714
 3321W        W 7521   3.894   2.350   0.909
 3322W        W 7522   7.545   5.624   1.556
 3323W        W 7523   1.345   8.921   1.965
 3324W        W 7524   6.192  10.142   1.224
 3325W        W 7525  10.586   6.093   0.677
 3326W        W 7526   3.988   2.222   3.527
 3327W        W 7527   9.759   3.068   1.860
 3328W        W 7528   0.197   4.528   2.967
 3329W        W 7529   0.557   3.885  10.592
 3330W        W 7530   6.061  10.585   1.039
 3331W        W 7531  10.477  11.207   0.500
 3332W        W 7532  10.351  10.466   9.224
 3333W        W 7533   4.362   5.993  11.176
 3334W        W 7534   9.375   0.981   9.550
 3335W        W 7535   3.056   1.451  10.567
 3336W        W 7536   4.732   6.785   9.493
 3337W        W 7537   4.641   1.094   2.929
 3338W        W 7538  10.721   3.626   2.664
 3339W        W 7539   0.614   9.034  10.527
 3340W        W 7540   8.558   1.449   8.443
 3341W        W 7541   0.741   0.457   3.225
 3342W        W 7542   0.559   2.350   8.828
 3343W        W 7543   6.185  11.477   9.869
 3344W        W 7544   4.081   1.614   1.308
 3345W        W 7545   9.937   6.667  11.284
 3346W        W 7546   4.055   5.049   0.052
 3347W        W 7547   8.061  10.536   1.421
 3348W        W 7548   7.270   5.480   1.035
 3349W        W 7549  11.373   6.022   2.420
 3350W        W 7550   9.469   8.385   2.773
 3351W        W 7551   0.582   7.491  11.249
 3352W        W 7552   7.464   6.043   1.905
 3353W        W 7553   3.080   9.502   3.541
 3354W        W 7554   6.789   4.201   2.268
 3355W        W 7555   3.430   6.570   2.652
 3356W        W 7556   4.998   7.525   1.259
 3357W        W 7557   0.857   8.422  11.715
 3358W        W 7558   7.412   9.908  10.038
 3359W        W 7559   0.932   5.674  10.474
 3360W        W 7560   8.011   8.943   3.182
 3361W        W 7561   5.708   3.118  11.180
 3362W        W 7562  11.463   2.815   2.960
 3363W        W 7563   5.205  10.537  11.108
 3364W        W 7564   2.225   8.528   0.757
 3365W        W 7565   0.377   1.761  11.604
 3366W        W 7566   2.887   7.166  10.791
 3367W        W 7567   8.356   5.656   2.745
 3368W        W 7568   0.915   8.028   1.460
 3369W        W 7569   6.723   9.140   4.160
 3370W        W 7570   1.135  11.214   0.446
 3371W        W 7571   6.589   3.048   0.047
 3372W        W 7572   9.185   6.423   1.798
 3373W        W 7573   2.841   2.949   1.925
 3374W        W 7574   6.505   4.360   9.821
 3375W        W 7575   3.191   3.505   3.206
 3376W        W 7576   4.756   0.769  11.298
 3377W        W 7577   9.368   4.073  10.648
 3378W        W 7578   7.803   3.359   8.763
 3379W        W 7579   3.769   6.458   9.445
 3380W        W 7580  10.315   9.494  11.746
 3381W        W 7581   3.817   4.125   2.650
 3382W        W 7582   4.540   7.294   9.400
 3383W        W 7583   6.929   0.493   9.585
 3384W        W 7584   1.066   6.227   8.825
 3385W        W 7585   1.275   2.440  10.899
 3386W        W 7586   4.898   6.559  10.606
 3387W        W 7587   9.365   2.323  11.629
 3388W        W 7588  10.947   6.746   2.669
 3389W        W 7589   4.277   5.303   1.846
 3390W        W 7590   5.044   2.381   1.840
 3391W        W 7591   5.491   4.963   2.762
 3392W        W 7592   9.769   9.922  11.273
 3393W        W 7593   4.392   7.026   0.636
 3394W        W 7594   8.229   6.961   3.390
 3395W        W 7595  10.834  11.050  11.828
 3396W        W 7596  10.483   6.115   3.246
 3397W        W 7597   5.248   2.216   8.962
 3398W        W 7598   7.017   1.024   8.805
 3399W        W 7599   7.057   2.866  11.253
 3400W        W 7600   6.796   7.046  10.193
 3401W        W 7601   5.229   5.738   0.853
 3402W        W 7602  10.032   7.152  10.803
 3403W        W 7603   9.002   6.181   9.801
 3404W        W 7604   4.182   1.952   1.687
 3405W        W 7605   2.945   8.638   9.923
 3406W        W 7606   0.397   9.559   8.531
 3407W        W 7607   9.932   8.637   8.755
 3408W        W 7608   6.516   9.644   9.416
 3409W        W 7609   3.117   1.680   1.883
 3410W        W 7610   8.400   2.514   8.537
 3411W        W 7611   5.234   1.416   9.202
 3412W        W 7612   4.158   3.144   9.936
 3413W        W 7613   9.526  10.271  10.976
 3414W        W 7614   3.010   3.143  10.670
 3415W        W 7615   3.576   8.573   0.244
 3416W        W 7616   1.350   2.644   9.887
 3417W        W 7617   1.793   7.670  10.414
 3418W        W 7618   4.105   6.742  10.848
 3419W        W 7619   7.847   6.921   1.538
 3420W        W 7620   1.936   2.861   1.785
 3421W        W 7621   8.413   6.300   0.815
 3422W        W 7622   6.680  11.268   2.372
 3423W        W 7623   2.786   2.580   9.042
 3424W        W 7624   2.332   6.893   9.503
 3425W        W 7625   4.322   0.365  10.617
 3426W        W 7626   3.126  10.834   9.553
 3427W        W 7627   7.106   5.009   0.091
 3428W        W 7628  10.826   9.018   0.952
 3429W        W 7629   9.593   1.469   2.628
 3430W        W 7630   4.288   9.912   2.788
 3431W        W 7631   0.672   0.948   2.688
 3432W        W 7632   6.704  10.577   3.230
 3433W        W 7633  10.923  10.911   0.320
 3434W        W 7634  10.910   8.091   2.740
 3435W        W 7635   5.832   6.671  10.916
 3436W        W 7636   8.966   4.409  11.391
 3437W        W 7637   2.188   8.363   9.486
 3438W        W 7638   4.099   3.068   3.249
 3439W        W 7639   2.497   2.204   2.287
 3440W        W 7640   4.171   3.618  10.134
 3441W        W 7641   6.534  10.498  10.193
 3442W        W 7642   3.482   8.831   2.424
 3443W        W 7643   6.628   5.197  11.978
 3444W        W 7644   9.929   2.687   9.588
 3445W        W 7645  10.827   8.945  11.242
 3446W        W 7646   1.331   5.200   0.366
 3447W        W 7647   7.199   6.974   0.919
 3448W        W 7648   2.286   1.053   1.970
 3449W        W 7649   8.655   7.792   0.880
 3450W        W 7650   6.991   3.916  11.766
 3451W        W 7651   7.119   8.527   3.392
 3452W        W 7652   9.805   4.567   1.027
 3453W        W 7653   8.643  11.227   1.278
 3454W        W 7654   1.678   0.843   9.653
 3455W        W 7655   8.104   0.968   3.425
 3456W        W 7656   8.195  10.473  10.820
 3457W        W 7657  10.871   5.767   3.105
 3458W        W 7658   2.135   4.880   3.562
 3459W        W 7659   5.279   7.881  10.285
 3460W        W 7660   1.767   2.701   9.597
 3461W        W 7661   0.117   1.740  10.578
 3462W        W 7662   9.411   2.717   3.018
 3463W        W 7663   3.410   1.234   9.279
 3464W        W 7664   7.120   3.926   1.981
 3465W        W 7665   8.777   5.178   8.979
 3466W        W 7666   0.278   8.285   0.242
 3467W        W 7667   7.696   8.046  11.267
 3468W        W 7668   5.128   6.854   2.544
 3469W        W 7669   2.382   9.449  10.155
 3470W        W 7670   6.699   6.920  10.704
 3471W        W 7671   5.055   4.208   2.385
 3472W        W 7672   0.045   9.640  10.916
 3473W        W 7673   5.887   7.530   3.112
 3474W        W 7674  11.379   8.778   9.057
 3475W        W 7675   7.733   8.548  11.937
 3476W        W 7676   5.183   9.346   1.885
 3477W        W 7677   1.788   9.462   3.020
 3478W        W 7678   3.029   5.257   0.635
 3479W        W 7679   5.957   6.062   0.063
 3480W        W 7680  10.847   4.503   9.491
 3481W        W 7681   9.011   6.705   1.408
 3482W        W 7682   0.815  10.798   1.215
 3483W        W 7683   5.968   0.805  10.315
 3484W        W 7684  11.468   1.297  10.811
 3485W        W 7685   9.576   5.415  10.945
 3486W        W 7686   4.288   9.450   9.458
 3487W        W 7687  10.285   2.779   8.779
 3488W        W 7688   4.027   5.551   2.359
 3489W        W 7689  10.816   8.185  10.141
 3490W        W 7690   4.723   0.792   3.316
 3491W        W 7691   1.381   6.104  11.148
 3492W        W 7692   6.044   6.466  11.786
 3493W        W 7693   9.769   4.110  10.307
 3494W        W 7694   8.322   1.428   0.852
 3495W        W 7695   5.741   5.763   0.987
 3496W        W 7696   3.582   8.324   2.203
 3497W        W 7697   8.542   4.688   3.182
 3498W        W 7698   1.241   8.605   0.446
 3499W        W 7699   8.883  10.465   0.454
 3500W        W 7700   0.817   4.732   2.166
 3501W        W 7701   0.538  10.597  10.914
 3502W        W 7702  10.076   1.801   9.566
 3503W        W 7703   4.300   3.725   9.648
 3504W        W 7704   2.447   3.006   3.235
 3505W        W 7705   3.311   9.585   8.860
 3506W        W 7706   2.390   5.333  10.982
 3507W        W 7707   9.370   7.022   0.677
 3508W        W 7708   7.516   4.592   2.797
 3509W        W 7709  11.099  11.400   8.520
 3510W        W 7710   1.617   8.581   3.224
 3511W        W 7711  10.854   8.380   1.293
 3512W        W 7712   6.788   5.237   1.882
 3513W        W 7713  11.315   5.767   1.913
 3514W        W 7714   8.299  11.186  10.493
 3515W        W 7715   2.788   5.036  10.884
 3516W        W 7716   2.258   6.628  11.289
 3517W        W 7717   1.561   8.486   2.366
 3518W        W 7718   3.053  10.544   0.818
 3519W        W 7719   3.243   5.604   9.043
 3520W        W 7720   1.026  10.720  11.026
 3521W        W 7721   1.817   6.585  11.553
 3522W        W 7722   8.141   8.439   3.212
 3523W        W 7723   4.598   9.036   9.380
 3524W        W 7724  11.376   3.315   9.553
 3525W        W 7725   3.191   4.166  11.992
 3526W        W 7726   9.037   2.283   2.232
 3527W        W 7727   1.289   0.731  11.384
 3528W        W 7728   3.140   4.751   9.531
 3529W        W 7729   5.256   1.397   0.422
 3530W        W 7730   9.332   4.682   2.329
 3531W        W 7731   0.496   0.231   2.827
 3532W        W 7732   0.784   6.421  11.139
 3533W        W 7733   3.734   2.617   2.691
 3534W        W 7734   1.093  10.385   0.884
 3535W        W 7735   6.146   7.673   8.926
 3536W        W 7736   0.726   3.326  11.979
 3537W        W 7737   1.737   9.830   8.841
 3538W        W 7738   4.314   1.854   0.386
 3539W        W 7739   3.337   4.605  10.347
 3540W        W 7740  10.418  10.893   0.086
 3541W        W 7741   6.569   9.293  11.191
 3542W        W 7742   8.165   2.144  11.527
 3543W        W 7743   0.943   3.758  11.237
 3544W        W 7744   4.629   1.508  11.936
 3545W        W 7745   5.247  10.618   9.291
 3546W        W 7746   8.836  10.381   2.268
 3547W        W 7747  11.132   5.185  11.999
 3548W        W 7748   8.036  10.396   2.948
 3549W        W 7749   9.373   5.519   2.451
 3550W        W 7750   1.625   1.861  11.611
 3551W        W 7751   6.453   9.356   8.951
 3552W        W 7752   6.001  10.428  10.358
 3553W        W 7753   7.881   8.934   1.735
 3554W        W 7754  10.949   7.432   1.350
 3555W        W 7755   1.834   8.907   2.435
 3556W        W 7756   4.951   8.303  11.744
 3557W        W 7757  10.192  11.403   0.113
 3558W        W 7758   6.696  11.283   1.850
 3559W        W 7759   4.773   9.888   9.560
 3560W        W 7760   8.581  10.340  11.114
 3561W        W 7761   5.404   7.331   3.285
 3562W        W 7762   6.315   3.833   1.359
 3563W        W 7763   2.701   3.052  11.079
 3564W        W 7764  11.354   5.564   0.912
 3565W        W 7765   7.919   3.202   9.596
 3566W        W 7766   5.230  11.089   3.221
 3567W        W 7767   1.309   0.116   2.264
 3568W        W 7768   1.266   9.188   3.177
 3569W        W 7769   7.119   7.403   2.115
 3570W        W 7770   4.091   6.474  11.767
 3571W        W 7771  10.977   1.878   1.701
 3572W        W 7772   9.282  11.431   3.679
 3573W        W 7773   6.163   2.493   8.648
 3574W        W 7774   6.743   9.930   2.508
 3575W        W 7775   3.596   3.573   8.969
 3576W        W 7776   3.101  10.045   9.992
 3577W        W 7777   8.027   0.253   0.743
 3578W        W 7778  10.005  10.342   8.840
 3579W        W 7779   8.687   2.401   2.582
 3580W        W 7780   0.391   2.275   1.320
 3581W        W 7781   3.657   0.371   9.244
 3582W        W 7782  11.425  11.025   8.676
 3583W        W 7783  11.024   2.328   2.306
 3584W        W 7784   1.841   6.034  10.860
 3585W        W 7785   3.440   8.610   9.833
 3586W        W 7786   2.596   7.125   1.944
 3587W        W 7787   9.948   4.848   0.634
 3588W        W 7788   7.742   8.843   2.232
 3589W        W 7789  11.333  10.568   1.950
 3590W        W 7790   0.915   5.434   1.610
 3591W        W 7791   6.986   1.894   0.672
 3592W        W 7792   1.982   2.298  11.759
 3593W        W 7793   6.544   5.700   1.512
 3594W        W 7794   9.115   3.455  11.205
 3595W        W 7795   3.550   7.460   2.600
 3596W        W 7796   3.596   7.080  10.186
 3597W        W 7797   7.262   6.210  11.015
 3598W        W 7798   4.004   9.336   8.518
 3599W        W 7799   6.127   2.829   0.739
 3600W        W 7800   9.531   9.050  11.742
 3601W        W 7801   2.408   9.159   8.991
 3602W        W 7802   9.199   5.784   3.030
 3603W        W 7803   4.992   6.656  11.235
 3604W        W 7804   4.262   4.727  11.242
 3605W        W 7805   5.354   8.849  11.905
 3606W        W 7806   3.218   7.945   2.244
 3607W        W 7807   8.450   1.796   0.509
 3608W        W 7808   0.044   7.885   3.023
 3609W        W 7809   0.986   8.266  10.824
 3610W        W 7810   1.128   4.269  11.299
 3611W        W 7811   6.082   5.295   9.492
 3612W        W 7812   6.685  10.209   0.816
 3613W        W 7813   6.811   0.302  10.066
 3614W        W 7814   5.628   4.065   9.827
 3615W        W 7815   4.683   1.595   2.855
 3616W        W 7816   8.085   8.119   0.978
 3617W        W 7817   1.913  10.322   0.218
 3618W        W 7818   1.335   2.690   9.311
 3619W        W 7819   6.486   2.642   2.329
 3620W        W 7820   4.115   7.548   9.649
 3621W        W 7821   2.303   5.564  10.432
 3622W        W 7822   9.541   8.262  10.727
 3623W        W 7823   1.884   6.989   9.270
 3624W        W 7824   9.970   0.866   0.559
 3625W        W 7825   6.144   8.535   2.241
 3626W        W 7826  11.302   1.101   0.546
 3627W        W 7827   7.493   7.678   0.220
 3628W        W 7828  11.064   6.180   0.867
 3629W        W 7829   2.139   9.005   0.538
 3630W        W 7830   8.372   6.871   2.299
 3631W        W 7831   3.245   4.703   2.096
 3632W        W 7832  10.940   1.400   1.442
 3633W        W 7833   4.673   1.907   0.908
 3634W        W 7834   5.658   0.622   1.777
 3635W        W 7835   3.242   7.594   2.998
 3636W        W 7836   1.067   7.640  11.320
 3637W        W 7837  10.042   9.950   3.237
 3638W        W 7838   5.756   2.204   2.364
 3639W        W 7839   9.035  10.825   1.524
 3640W        W 7840   6.547   8.171   2.893
 3641W        W 7841   1.832  10.401  10.739
 3642W        W 7842   9.942   8.746   0.087
 3643W        W 7843   1.732   4.276   9.923
 3644W        W 7844   4.247   8.495   0.937
 3645W        W 7845   9.839   5.659  11.322
 3646W        W 7846   0.170   1.712   0.059
 3647W        W 7847   3.660  10.475   9.486
 3648W        W 7848   8.518  10.872   0.442
 3649W        W 7849   5.013   3.878   9.212
 3650W        W 7850   7.989   0.039   2.428
 3651W        W 7851   5.450   7.445   0.360
 3652W        W 7852  10.514   0.881  10.962
 3653W        W 7853   8.219   1.902   0.071
 3654W        W 7854   0.668   0.069  11.060
 3655W        W 7855   8.081  10.319   3.454
 3656W        W 7856   8.538   6.627   3.127
 3657W        W 7857  10.975   8.571  10.899
 3658W        W 7858   1.369   0.257   2.753
 3659W        W 7859   5.048   5.242  10.437
 3660W        W 7860   8.540   4.636  11.099
 3661W        W 7861   2.322   5.230   2.664
 3662W        W 7862   9.444   2.344   9.104
 3663W        W 7863   4.056   1.226   9.048
 3664W        W 7864   2.610   6.548   2.282
 3665W        W 7865   7.295   7.947  10.962
 3666W        W 7866   5.103   3.870   2.745
 3667W        W 7867   4.488   9.849   1.870
 3668W        W 7868   8.373  11.446   9.263
 3669W        W 7869   8.438   0.305   8.919
 3670W        W 7870   0.887   2.311   1.456
 3671W        W 7871   2.910  10.551   9.934
 3672W        W 7872   5.113   3.255   0.457
 3673W        W 7873   9.656   3.489   9.441
 3674W        W 7874  10.050   7.180   2.826
 3675W        W 7875  10.593   2.671  11.845
 3676W        W 7876   5.060   3.062   3.184
 3677W        W 7877   6.332   6.591  10.852
 3678W        W 7878   0.385  10.833   0.859
 3679W        W 7879  11.395   3.067   0.076
 3680W        W 7880   1.272   0.363   9.111
 3681W        W 7881  11.204   2.362   1.837
 3682W        W 7882   3.771   5.239   2.044
 3683W        W 7883   2.377   3.102   1.765
 3684W        W 7884   4.315   9.244  10.949
 3685W        W 7885   6.023   5.314  10.873
 3686W        W 7886   5.628   1.333   3.621
 3687W        W 7887   3.276   8.669  10.837
 3688W        W 7888   8.729   5.151   1.938
 3689W        W 7889   6.280   3.990  10.616
 3690W        W 7890   2.293  10.294   1.305
 3691W        W 7891   4.891   4.081   3.143
 3692W        W 7892   8.156  10.743   0.066
 3693W        W 7893   7.296   2.125  10.903
 3694W        W 7894   2.844  11.044   9.936
 3695W        W 7895   6.517   5.675   2.010
 3696W        W 7896   7.077   7.545  11.331
 3697W        W 7897   4.361   5.986   1.528
 3698W        W 7898   9.744   0.089   3.354
 3699W        W 7899   4.188   9.070   1.729
 3700W        W 7900   9.506   4.524   2.796
 3701W        W 7901   3.390   2.268  11.008
 3702W        W 7902   6.126   5.636   9.887
 3703W        W 7903   2.361   7.968  11.530
 3704W        W 7904   2.263   5.669  11.969
 3705W        W 7905   0.370   6.585   9.187
 3706W        W 7906  10.009   1.042  10.995
 3707W        W 7907   0.425  11.352   1.743
 3708W        W 7908  11.359   2.753  10.363
 3709W        W 7909   7.947   6.651   3.732
 3710W        W 7910   2.673   6.660  10.822
 3711W        W 7911   3.188   5.932   2.017
 3712W        W 7912   5.741   6.663   1.614
 3713W        W 7913  11.361   9.068   2.912
 3714W        W 7914   1.117   2.961  11.767
 3715W        W 7915  11.055   7.946   9.345
 3716W        W 7916   5.668   9.434   1.726
 3717W        W 7917   3.836   2.456  11.233
 3718W        W 7918   9.580   5.219   0.736
 3719W        W 7919   8.532   7.426   1.376
 3720W        W 7920   9.524   3.275  11.557
 3721W        W 7921   2.305   3.590  10.520
 3722W        W 7922   9.706   9.600   3.452
 3723W        W 7923   8.574  11.293  10.920
 3724W        W 7924   7.110   2.655  10.322
 3725W        W 7925   3.167   6.181   2.899
 3726W        W 7926   1.127   0.900   0.437
 3727W        W 7927   8.543   5.658   1.839
 3728W        W 7928  10.069   6.147   2.606
 3729W        W 7929   4.161   7.741  10.996
 3730W        W 7930  10.441  11.493   0.940
 3731W        W 7931   0.151   2.636   8.512
 3732W        W 7932   6.120   2.775  11.311
 3733W        W 7933   4.251   0.049   0.442
 3734W        W 7934   6.345   6.944   1.292
 3735W        W 7935   6.072   4.824   1.782
 3736W        W 7936   7.773   5.575   1.104
 3737W        W 7937   7.303   9.388   1.003
 3738W        W 7938   5.144   9.194   0.715
 3739W        W 7939   1.888  10.020   1.847
 3740W        W 7940   5.286   4.632  10.282
 3741W        W 7941   4.304   3.804   0.229
 3742W        W 7942   3.097   2.568   9.472
 3743W        W 7943   6.899   4.710   9.866
 3744W        W 7944   5.086   9.684   0.734
 3745W        W 7945   5.146   0.910   2.985
 3746W        W 7946   9.386   3.562   2.910
 3747W        W 7947   0.289   6.324  10.669
 3748W        W 7948   0.786  11.298   1.398
 3749W        W 7949   3.260   4.237  11.055
 3750W        W 7950   4.057   0.300  10.175
 3751W        W 7951   0.447   5.764   1.562
 3752W        W 7952  10.827   3.224   0.015
 3753W        W 7953   8.149   8.174   2.773
 3754W        W 7954   6.223   8.299  11.818
 3755W        W 7955   9.095   6.496   9.390
 3756W        W 7956   2.146   3.896   2.641
 3757W        W 7957   3.525  10.816   1.181
 3758W        W 7958   9.632   1.881   9.829
 3759W        W 7959   8.301   4.321   2.432
 3760W        W 7960   9.476  10.772   1.851
 3761W        W 7961   9.538   8.535  11.787
 3762W        W 7962   3.310   1.937   0.307
 3763W        W 7963   3.931   9.077   2.525
 3764W        W 7964   9.254   1.390   3.068
 3765W        W 7965   6.107   0.315  10.246
 3766W        W 7966   7.628   4.609  10.962
 3767W        W 7967  10.845  11.059   0.824
 3768W        W 7968   6.052   8.115   0.717
 3769W        W 7969   6.682   4.655  11.215
 3770W        W 7970   2.207   4.269  10.102
 3771W        W 7971   8.522   3.628   9.972
 3772W        W 7972   0.764   9.793   1.159
 3773W        W 7973   3.066   0.480   2.378
 3774W        W 7974   8.432   3.610  10.538
 3775W        W 7975   2.913   5.130   2.071
 3776W        W 7976   6.082   4.108   9.131
 3777W        W 7977   9.269   5.379   3.410
 3778W        W 7978   2.550   5.671   3.105
 3779W        W 7979   6.955  10.687   8.585
 3780W        W 7980   4.169   5.652  10.256
 3781W        W 7981   6.689   3.138   2.329
 3782W        W 7982   0.809  11.255   9.482
 3783W        W 7983   0.276   7.469   8.790
 3784W        W 7984   8.026   1.897   2.425
 3785W        W 7985   9.794   7.887   0.479
 3786W        W 7986   9.830   6.014   9.381
 3787W        W 7987   3.347   3.317  11.566
 3788W        W 7988   5.634   0.912   2.733
 3789W        W 7989  10.995   9.985   3.106
 3790W        W 7990   2.170   8.205   8.704
 3791W        W 7991   8.593  10.094   9.380
 3792W        W 7992   1.820   5.974   9.090
 3793W        W 7993  11.258   7.502   2.159
 3794W        W 7994  10.085   5.352   1.510
 3795W        W 7995   7.955   8.173   9.702
 3796W        W 7996   8.036   1.920   8.927
 3797W        W 7997   9.813   0.919   2.539
 3798W        W 7998   5.698   9.890   0.445
 3799W        W 7999  10.786   2.726  11.275
 3800W        W 8000   9.780   1.533  11.795
 3801W        W 8001   9.001   2.977  11.092
 3802W        W 8002   3.397   5.675   0.575
 3803W        W 8003   0.682   1.195   9.062
 3804W        W 8004   2.559   2.235  10.436
 3805W        W 8005   1.836   3.591   1.307
 3806W        W 8006   3.646   7.865   9.580
 3807W        W 8007   7.901   7.398  10.819
 3808W        W 8008   5.232   3.499  10.530
 3809W        W 8009   4.719  10.037  10.539
 3810W        W 8010   7.952   3.794   9.087
 3811W        W 8011   3.643   8.580   1.215
 3812W        W 8012   6.661   7.381   2.310
 3813W        W 8013   7.586   7.552  11.212
 3814W        W 8014   3.145  10.456  10.361
 3815W        W 8015   0.624   2.794   1.234
 3816W        W 8016   9.800   2.370  10.402
 3817W        W 8017   8.488   9.371  11.140
 3818W        W 8018   8.498  10.571   9.514
 3819W        W 8019   4.456  11.346  10.126
 3820W        W 8020  11.209   9.153  11.540
 3821W        W 8021   1.618   9.408   3.502
 3822W        W 8022   8.104   5.462   8.224
 3823W        W 8023   2.013   8.868   9.533
 3824W        W 8024   8.762   5.317   3.354
 3825W        W 8025   8.426   8.199   1.777
 3826W        W 8026  10.955   1.217   9.672
 3827W        W 8027   9.129   8.104   2.417
 3828W        W 8028   3.955   9.936   1.807
 3829W        W 8029   8.186   5.486   9.488
 3830W        W 8030  10.685   2.288   1.896
 3831W        W 8031   7.385   4.469   1.217
 3832W        W 8032   9.456   6.968  10.821
 3833W        W 8033   0.461   6.870   2.563
 3834W        W 8034  10.366   6.556   0.482
 3835W        W 8035   1.777   4.108  11.834
 3836W        W 8036   4.661   4.094  10.896
 3837W        W 8037   0.543   4.953   3.653
 3838W        W 8038   1.794  10.213   1.402
 3839W        W 8039   7.222  11.422   0.345
 3840W        W 8040   6.304   6.993  10.062
 3841W        W 8041   9.993   9.755   8.787
 3842W        W 8042   2.426  10.524   1.754
 3843W        W 8043   8.924   2.967   0.162
 3844W        W 8044   9.454   0.438   9.326
 3845W        W 8045  10.282   1.294   1.988
 3846W        W 8046   0.803   3.472  10.840
 3847W        W 8047   6.959   1.548   2.603
 3848W        W 8048   8.436  10.506  11.588
 3849W        W 8049  10.995  10.324  10.859
 3850W        W 8050   9.501   1.930  11.962
 3851W        W 8051   3.522   3.337   2.346
 3852W        W 8052  10.008   0.358   0.371
 3853W        W 8053   3.819   8.974  11.978
 3854W        W 8054   8.991  10.362   1.357
 3855W        W 8055   3.759   0.230   0.292
 3856W        W 8056   2.307   1.421  10.034
 3857W        W 8057   9.430   3.626  10.334
 3858W        W 8058   6.996   9.467   9.577
 3859W        W 8059   8.606   5.117   4.105
 3860W        W 8060  10.131   0.800   1.482
 3861W        W 8061   1.423   1.444   2.724
 3862W        W 8062   0.796   9.393   1.494
 3863W        W 8063   7.274  10.952   0.702
 3864W        W 8064   6.477   2.347   2.747
 3865W        W 8065   9.580   1.813   3.008
 3866W        W 8066   4.971   3.385   1.929
 3867W        W 8067   2.471   1.364  11.641
 3868W        W 8068   7.197   3.473   2.204
 3869W        W 8069   8.497  10.955   9.170
 3870W        W 8070  10.418  10.949  10.582
 3871W        W 8071   9.809   3.569   1.823
 3872W        W 8072  11.438   6.679   8.902
 3873W        W 8073   0.298   9.574   3.631
 3874W        W 8074   3.551   5.418   1.371
 3875W        W 8075   6.008   1.871   9.341
 3876W        W 8076   4.713   4.305   0.918
 3877W        W 8077   6.048   1.737   0.521
 3878W        W 8078   3.126   3.454   9.157
 3879W        W 8079   6.072   7.449  10.780
 3880W        W 8080   4.480   8.898  10.579
 3881W        W 8081  10.970   9.392   0.512
 3882W        W 8082   5.128   4.681   0.698
 3883W        W 8083   4.482   8.705   9.009
 3884W        W 8084   5.781   1.864   3.164
 3885W        W 8085  10.336  10.137  11.454
 3886W        W 8086   5.740   4.374   9.423
 3887W        W 8087   9.519   7.377   9.017
 3888W        W 8088   4.765   0.692  10.770
 3889W        W 8089   4.294   4.249   9.573
 3890W        W 8090   7.222   1.834   2.982
 3891W        W 8091   1.316  10.447  11.508
 3892W        W 8092   4.456   1.255   1.286
 3893W        W 8093   4.792   3.629   9.597
 3894W        W 8094   3.371   7.154   3.267
 3895W        W 8095   9.080  10.742  11.733
 3896W        W 8096  11.264   5.801  11.355
 3897W        W 8097   4.786  10.640   0.856
 3898W        W 8098  11.322   0.151   0.190
 3899W        W 8099   4.188   9.864   9.748
 3900W        W 8100   3.537   7.979   2.661
 3901W        W 8101   3.145   9.915  11.982
 3902W        W 8102   2.684   9.076   9.940
 3903W        W 8103   9.444   9.293  10.745
 3904W        W 8104   5.525   4.687   0.177
 3905W        W 8105   8.451   0.505  11.976
 3906W        W 8106  10.841  11.284  11.340
 3907W        W 8107   8.853   5.864  11.463
 3908W        W 8108   9.549   3.628  10.857
 3909W        W 8109   6.355   5.198   2.728
 3910W        W 8110   5.235  10.129   9.454
 3911W        W 8111   0.483   3.310   0.889
 3912W        W 8112  11.406   1.341   3.124
 3913W        W 8113   8.360   1.249  10.544
 3914W        W 8114   4.917  10.859  11.780
 3915W        W 8115   1.768   0.183   9.157
 3916W        W 8116   4.620   8.429  10.737
 3917W        W 8117   5.601  11.279  10.783
 3918W        W 8118   8.545   1.759   2.564
 3919W        W 8119   6.381   7.302   0.942
 3920W        W 8120   0.245   9.020   8.781
 3921W        W 8121  10.508   2.258   2.375
 3922W        W 8122   4.165   9.479   2.030
 3923W        W 8123  10.387   8.516   2.660
 3924W        W 8124  11.324   3.814   9.947
 3925W        W 8125   7.147   0.333  11.575
 3926W        W 8126   2.296   5.772   1.968
 3927W        W 8127   0.437   3.663   1.933
 3928W        W 8128   8.050   2.219   1.249
 3929W        W 8129   7.252   7.823   9.962
 3930W        W 8130   2.732   8.079   2.322
 3931W        W 8131   7.410   5.241   2.265
 3932W        W 8132   8.399   6.423   3.575
 3933W        W 8133   7.654   5.083   2.700
 3934W        W 8134   9.656  10.258   2.047
 3935W        W 8135   6.066   7.799   1.834
 3936W        W 8136  10.469   0.007  10.795
 3937W        W 8137   5.664   1.714  11.185
 3938W        W 8138   7.198   5.191   1.553
 3939W        W 8139   8.564   1.838  11.729
 3940W        W 8140   3.289   2.703   1.846
 3941W        W 8141   0.513   4.334  10.339
 3942W        W 8142   1.186  11.029   1.590
 3943W        W 8143   3.892   4.105   0.356
 3944W        W 8144   9.468   4.783   8.347
 3945W        W 8145   9.037   4.755  11.038
 3946W        W 8146   7.673   1.029   2.515
 3947W        W 8147   4.563  10.814   8.555
 3948W        W 8148   7.193   8.406   0.893
 3949W        W 8149   7.590   8.345   3.188
 3950W        W 8150   5.379   7.786   3.037
 3951W        W 8151   6.282  11.331  11.410
 3952W        W 8152   3.782   2.801   1.672
 3953W        W 8153   7.527   3.103  11.843
 3954W        W 8154   3.262   1.844   1.407
 3955W        W 8155   7.931   3.163   1.633
 3956W        W 8156   1.970   9.468  10.457
 3957W        W 8157   1.024   5.575  10.976
 3958W        W 8158   9.313   2.880   2.089
 3959W        W 8159   2.751   7.524   3.146
 3960W        W 8160   8.454   4.296   0.020
 3961W        W 8161   7.122   7.354   1.618
 3962W        W 8162   7.135   4.548   3.642
 3963W        W 8163   6.656   3.085   1.812
 3964W        W 8164   4.186   3.845   2.864
 3965W        W 8165   4.263   8.849  10.099
 3966W        W 8166   7.878   4.445  11.714
 3967W        W 8167   2.181   7.418  10.867
 3968W        W 8168   9.512   4.615  11.934
 3969W        W 8169   2.129   6.175   2.904
 3970W        W 8170   1.376   8.727  10.613
 3971W        W 8171   8.319   5.075   9.164
 3972W        W 8172   4.807  10.416   1.321
 3973W        W 8173   6.061   3.207   9.879
 3974W        W 8174   9.052   5.608   1.617
 3975W        W 8175   8.453   7.134   1.858
 3976W        W 8176   9.044   4.709   0.351
 3977W        W 8177   5.862   2.636  10.472
 3978W        W 8178   2.062   5.661   2.950
 3979W        W 8179   1.768   8.798  11.820
 3980W        W 8180  11.438   9.025   0.454
 3981W        W 8181   0.734   7.721   2.938
 3982W        W 8182   5.144   9.953   9.930
 3983W        W 8183   8.636   9.298  10.126
 3984W        W 8184   4.790   0.733   9.007
 3985W        W 8185   7.714   2.180   9.240
 3986W        W 8186   4.842   0.812   0.618
 3987W        W 8187   7.644  11.190  11.064
 3988W        W 8188   2.364   3.829   2.178
 3989W        W 8189   8.094   7.216   1.181
 3990W        W 8190   6.736   4.960   0.598
 3991W        W 8191   6.660  10.904   2.775
 3992W        W 8192   1.358   3.802   2.483
 3993W        W 8193   0.717   5.728   0.658
 3994W        W 8194   4.697   1.723   8.926
 3995W        W 8195   8.987   9.540   2.717
 3996W        W 8196   2.028   0.494  10.525
 3997W        W 8197   6.564   1.269   9.086
 3998W        W 8198   6.139   6.937  11.986
 3999W        W 8199   8.929   7.748   0.432
 4000W        W 8200   5.278   8.043   0.045
 4001W        W 8201   2.172   0.882   1.198
 4002W        W 8202   9.482   4.600   3.326
 4003W        W 8203  10.428   0.525   9.743
 4004W        W 8204   7.467   9.227   2.421
 4005W        W 8205  11.262   1.745   1.254
 4006W        W 8206   7.615   8.467  10.991
 4007W        W 8207   1.916  10.825   2.254
 4008W        W 8208   4.324   9.465   3.047
 4009W        W 8209   4.215   2.804   2.824
 4010W        W 8210   9.629   5.980   2.354
 4011W        W 8211   7.968   3.753   9.942
 4012W        W 8212   3.310   5.439   1.936
 4013W        W 8213   4.639   4.377   2.147
 4014W        W 8214   5.914   4.041   3.055
 4015W        W 8215   7.171  10.972   2.781
 4016W        W 8216   9.315   4.614   1.346
 4017W        W 8217   2.645   7.603  10.720
 4018W        W 8218  10.730   2.189  10.611
 4019W        W 8219   1.319   2.273   0.451
 4020W        W 8220   6.110   6.411   0.913
 4021W        W 8221   3.368   1.402   3.313
 4022W        W 8222   6.621   7.122   3.979
 4023W        W 8223   5.702   8.212  10.350
 4024W        W 8224   1.333   5.164   3.343
 4025W        W 8225   2.896   9.271   8.765
 4026W        W 8226   8.243   5.660   3.316
 4027W        W 8227   0.366   2.880   3.361
 4028W        W 8228   2.928   0.637   1.716
 4029W        W 8229   5.693  10.831   8.567
 4030W        W 8230   5.943   1.300  11.302
 4031W        W 8231   6.445   6.156   1.748
 4032W        W 8232   1.268   0.813   8.856
 4033W        W 8233   9.521   4.158   0.850
 4034W        W 8234   3.874   6.904   2.408
 4035W        W 8235   4.321   8.527   9.488
 4036W        W 8236   4.608   8.048   0.493
 4037W        W 8237   3.002   5.109   0.047
 4038W        W 8238   9.388   1.419   9.064
 4039W        W 8239   6.896  10.584   0.506
 4040W        W 8240   5.642   1.137   1.683
 4041W        W 8241  11.323   6.639   1.784
 4042W        W 8242   4.027  10.764   3.533
 4043W        W 8243   3.710   0.263  11.788
 4044W        W 8244   4.039   8.505   0.018
 4045W        W 8245   2.488   0.568   9.653
 4046W        W 8246   2.752  11.392   9.031
 4047W        W 8247   1.784   3.613  11.203
 4048W        W 8248   3.659   6.433   8.590
 4049W        W 8249   1.184   1.880   1.520
 4050W        W 8250  11.301   7.490  10.050
 4051W        W 8251   6.741   7.877   8.266
 4052W        W 8252   0.433  11.239  10.722
 4053W        W 8253   8.774   7.589  11.963
 4054W        W 8254   5.527   3.028  10.685
 4055W        W 8255   6.648   1.876  10.858
 4056W        W 8256  11.267   5.138   9.252
 4057W        W 8257   8.102   9.321  11.956
 4058W        W 8258   7.441   0.531   9.485
 4059W        W 8259   3.244   4.628   0.930
 4060W        W 8260   7.675   9.988   9.535
 4061W        W 8261   4.023   8.471   9.072
 4062W        W 8262   1.780  11.178   0.490
 4063W        W 8263   9.443  11.081   8.729
 4064W        W 8264   0.542   6.199   1.863
 4065W        W 8265   5.022   3.828   1.692
 4066W        W 8266   5.536   5.201  11.856
 4067W        W 8267   2.090   8.391  11.736
 4068W        W 8268   2.363   3.410   8.641
 4069W        W 8269  10.788   5.515  10.464
 4070W        W 8270   3.995   0.937   9.519
 4071W        W 8271   7.627   3.751   1.661
 4072W        W 8272   4.732   9.125  10.195
 4073W        W 8273  10.810   3.905   0.069
 4074W        W 8274   7.945  11.180  11.882
 4075W        W 8275   5.629   0.229  10.485
 4076W        W 8276   3.062   5.124   9.184
 4077W        W 8277   6.761  10.630   0.015
 4078W        W 8278   2.203   9.715  11.759
 4079W        W 8279   4.025   3.167   2.374
 4080W        W 8280   3.239   6.350   3.965
 4081W        W 8281   7.483   0.091   2.579
 4082W        W 8282   3.084  10.004  10.560
 4083W        W 8283   2.900  10.655   1.914
 4084W        W 8284   6.822   2.018   8.404
 4085W        W 8285   8.462   7.500  11.511
 4086W        W 8286   9.523   4.573   8.809
 4087W        W 8287   6.308   8.041  11.374
 4088W        W 8288   1.033   6.274   1.928
 4089W        W 8289  11.009   1.835  11.415
 4090W        W 8290   2.653   7.480   9.391
 4091W        W 8291   8.317   7.769  11.964
 4092W        W 8292   9.532   4.902   0.343
 4093W        W 8293   0.054   2.899  10.825
 4094W        W 8294   6.726  10.285  10.595
 4095W        W 8295   3.773   3.875   8.592
 4096W        W 8296   5.767   8.843   9.480
 4097W        W 8297   3.518   5.337   3.258
 4098W        W 8298   6.625   6.818  11.202
 4099W        W 8299   0.567   9.495   0.773
 4100W        W 8300   3.690   1.736   3.072
 4101W        W 8301   0.554   3.831   0.004
 4102W        W 8302   9.772   1.932  10.850
 4103W        W 8303   5.687   2.165   0.092
 4104W        W 8304   6.409   6.597   2.836
 4105W        W 8305   2.322   4.813  11.876
 4106W        W 8306   0.773   8.468   1.765
 4107W        W 8307  11.077  10.595  11.813
 4108W        W 8308   5.007   4.719   9.845
 4109W        W 8309   2.978   0.774   8.585
 4110W        W 8310   4.485   4.846   9.823
 4111W        W 8311   0.558   7.476   3.727
 4112W        W 8312  10.872   9.531   0.979
 4113W        W 8313   9.827   9.499  11.006
 4114W        W 8314   4.082   0.085   3.171
 4115W        W 8315   9.627   5.948  10.463
 4116W        W 8316   1.956   0.805   1.674
 4117W        W 8317  11.235   2.768   2.428
 4118W        W 8318   3.162   6.663   3.134
 4119W        W 8319   9.936   7.663  10.126
 4120W        W 8320   6.952  11.199   8.667
 4121W        W 8321   2.192   1.367   0.997
 4122W        W 8322   5.265   0.971   1.361
 4123W        W 8323   0.393  10.567   1.423
 4124W        W 8324   8.470   6.176   8.676
 4125W        W 8325  10.829  10.314   8.984
 4126W        W 8326   1.737   8.498   9.262
 4127W        W 8327  10.858   7.876   0.465
 4128W        W 8328   0.055   6.223   1.965
 4129W        W 8329  11.437   7.623   9.578
 4130W        W 8330  10.007   8.491  11.228
 4131W        W 8331  11.356   4.103  11.242
 4132W        W 8332  11.500  10.049   2.900
 4133W        W 8333   6.033   3.765  10.988
 4134W        W 8334   9.818   4.107  10.897
 4135W        W 8335  10.993   6.827  10.613
 4136W        W 8336   2.437  10.500   9.177
 4137W        W 8337   4.335   4.314   0.146
 4138W        W 8338   2.774   0.741  10.986
 4139W        W 8339   6.575   1.254   2.849
 4140W        W 8340   9.459   4.079   8.566
 4141W        W 8341   6.744   2.723   3.150
 4142W        W 8342   6.590  11.048   9.838
 4143W        W 8343   8.808  11.051   0.820
 4144W        W 8344   0.161   2.648  11.527
 4145W        W 8345   6.810   0.824   0.269
 4146W        W 8346   0.326   4.363  11.278
 4147W        W 8347   1.067   4.952   1.787
 4148W        W 8348   6.711  10.339  11.604
 4149W        W 8349   4.024   4.609   0.401
 4150W        W 8350   0.974   3.331   8.866
 4151W        W 8351   0.883  10.835   0.709
 4152W        W 8352   8.198   6.655   1.846
 4153W        W 8353   1.772   9.851   1.040
 4154W        W 8354   7.731   9.604   0.800
 4155W        W 8355  10.090   1.748   0.629
 4156W        W 8356   7.603   4.004   1.155
 4157W        W 8357   9.519   6.222   0.035
 4158W        W 8358   2.829  10.835   9.115
 4159W        W 8359   1.649   4.323  11.314
 4160W        W 8360   7.038   3.218   3.293
 4161W        W 8361   3.679   6.105   2.865
 4162W        W 8362   9.435  11.211   3.230
 4163W        W 8363  10.708   7.109   9.493
 4164W        W 8364   8.140  10.972  10.908
 4165W        W 8365   5.661   7.744   3.518
 4166W        W 8366   2.883   6.457   3.600
 4167W        W 8367  10.512   6.152   0.172
 4168W        W 8368   2.674   3.442   2.008
 4169W        W 8369   6.581   1.866  11.389
 4170W        W 8370  11.272   8.931  10.612
 4171W        W 8371   8.766   6.986   9.059
 4172W        W 8372  10.664  10.344   2.160
 4173W        W 8373   9.984   9.009   3.212
 4174W        W 8374   2.785   6.129  10.848
 4175W        W 8375   9.834   1.066  11.602
 4176W        W 8376   9.593  10.590   8.556
 4177W        W 8377   9.147  10.368   0.879
 4178W        W 8378  10.417   2.156   1.460
 4179W        W 8379   3.508   1.503  11.219
 4180W        W 8380   5.629   1.359   2.478
 4181W        W 8381   4.074   0.660   2.371
 4182W        W 8382  10.814   4.174   8.592
 4183W        W 8383   7.647  10.703  11.911
 4184W        W 8384   7.734   9.026   0.115
 4185W        W 8385  10.669  10.174   8.525
 4186W        W 8386   6.047   4.292  10.964
 4187W        W 8387   8.994   2.779   3.335
 4188W        W 8388   9.909   8.551   2.438
 4189W        W 8389   3.136   3.726  10.867
 4190W        W 8390   2.378   4.654   8.321
 4191W        W 8391   1.897   7.052  11.149
 4192W        W 8392   2.031   1.292   2.326
 4193W        W 8393   2.779   0.465  11.400
 4194W        W 8394   9.934  11.077   1.832
 4195W        W 8395   1.801  10.250  10.212
 4196W        W 8396   9.615   8.577   1.456
 4197W        W 8397  10.705  10.293   9.986
 4198W        W 8398   9.481   7.009   3.232
 4199W        W 8399   5.556   5.270  10.461
 4200W        W 8400   5.706   7.696   8.397
 4201W        W 8401  11.424   6.757  11.420
 4202W        W 8402   9.738   8.292   0.188
 4203W        W 8403   3.768  11.486  11.354
 4204W        W 8404  10.312   8.178  10.584
 4205W        W 8405  10.803   0.952   0.775
 4206W        W 8406   0.806   7.429  10.457
 4207W        W 8407   8.172   6.550   8.454
 4208W        W 8408  10.882   5.185   0.854
 4209W        W 8409   7.607   2.572  10.975
 4210W        W 8410   4.652   7.509  10.830
 4211W        W 8411  10.364   6.434  10.503
 4212W        W 8412   6.062   0.356  10.762
 4213W        W 8413   4.002  11.319   2.665
 4214W        W 8414   2.838   4.549   2.480
 4215W        W 8415   5.009  11.188   8.852
 4216W        W 8416   1.634  11.214   1.387
 4217W        W 8417   2.916   6.057   2.448
 4218W        W 8418   9.877   1.645   2.034
 4219W        W 8419   4.721   1.242   9.123
 4220W        W 8420   4.228   2.770   0.957
 4221W        W 8421   6.612   0.286   2.511
 4222W        W 8422   7.457   0.728   8.708
 4223W        W 8423   7.876   8.273   3.605
 4224W        W 8424   9.463   0.041   2.401
 4225W        W 8425   6.742   5.671   1.017
 4226W        W 8426   9.622   3.434   0.383
 4227W        W 8427  10.850   2.637   2.769
 4228W        W 8428   2.676   9.828   2.178
 4229W        W 8429   8.020   9.395  11.412
 4230W        W 8430   8.323   9.918   3.198
 4231W        W 8431  10.016   3.134   9.262
 4232W        W 8432   4.890   0.027   2.076
 4233W        W 8433   0.012   8.066   0.878
 4234W        W 8434   8.832   6.917   0.975
 4235W        W 8435   3.676   4.452   3.559
 4236W        W 8436  10.424   2.271   9.002
 4237W        W 8437   2.858   7.796  11.201
 4238W        W 8438   3.684   8.438  10.288
 4239W        W 8439   9.118   4.162   1.210
 4240W        W 8440   1.708   5.722   1.636
 4241W        W 8441   8.266   8.390   9.340
 4242W        W 8442  10.901   1.844   0.292
 4243W        W 8443   9.520   7.883   9.896
 4244W        W 8444   7.802   6.108   1.520
 4245W        W 8445   9.713   7.197   1.449
 4246W        W 8446   1.227   4.950   0.939
 4247W        W 8447  10.814   4.987   9.047
 4248W        W 8448   5.075   7.090   2.078
 4249W        W 8449   3.998  10.964   1.293
 4250W        W 8450   4.342   9.620  10.582
 4251W        W 8451  11.153   4.231  10.801
 4252W        W 8452   9.140   0.820   0.335
 4253W        W 8453   0.966   3.127  10.453
 4254W        W 8454   6.828   6.217  11.378
 4255W        W 8455   4.296   1.075   2.570
 4256W        W 8456   8.077   1.165  11.643
 4257W        W 8457   8.363   6.099  11.462
 4258W        W 8458   0.909  10.434   0.391
 4259W        W 8459   0.362   4.687   8.490
 4260W        W 8460   3.885   8.846   8.733
 4261W        W 8461   5.363   9.887   1.727
 4262W        W 8462   0.843   8.173   0.917
 4263W        W 8463   3.478   1.354   2.063
 4264W        W 8464   9.112   1.362   0.461
 4265W        W 8465   8.443   4.306   1.952
 4266W        W 8466  10.265   9.565   9.220
 4267W        W 8467   1.002   8.497   9.797
 4268W        W 8468   7.255   2.322   2.860
 4269W        W 8469   9.448   4.409   0.414
 4270W        W 8470  10.416   6.675  11.481
 4271W        W 8471   2.918   9.049   3.301
 4272W        W 8472   6.056   4.777   2.652
 4273W        W 8473   5.339   3.112   9.362
 4274W        W 8474   0.806   0.153   9.114
 4275W        W 8475   7.230   1.928  10.397
 4276W        W 8476   1.442   7.152   9.055
 4277W        W 8477   4.199   7.427  11.418
 4278W        W 8478  10.972   5.715   2.298
 4279W        W 8479   9.180   9.797   0.091
 4280W        W 8480   7.997   4.066   0.073
 4281W        W 8481  11.044   8.057   1.666
 4282W        W 8482  11.003   5.232   2.995
 4283W        W 8483   1.356   6.592  11.863
 4284W        W 8484   7.932   4.318   9.065
 4285W        W 8485   0.256   8.520   2.468
 4286W        W 8486   0.308   1.828  11.102
 4287W        W 8487   8.867   0.967   0.766
 4288W        W 8488   6.298   2.149   2.284
 4289W        W 8489  10.169   1.031   2.886
 4290W        W 8490   0.061   3.820   9.502
 4291W        W 8491   7.972   7.770   3.704
 4292W        W 8492   9.542   9.090   2.225
 4293W        W 8493  11.249   6.995   2.185
 4294W        W 8494   7.083  10.358   1.930
 4295W        W 8495   7.109  10.124   0.550
 4296W        W 8496   0.934   7.970   1.970
 4297W        W 8497   4.254   8.452   8.618
 4298W        W 8498  10.065   9.013   2.681
 4299W        W 8499   2.403   9.047   3.303
 4300W        W 8500   0.464   0.276   3.626
 4301W        W 8501   8.259   3.233   3.554
 4302W        W 8502   4.068   7.172   1.017
 4303W        W 8503   4.715   6.023   3.523
 4304W        W 8504  10.775   8.513   3.057
 4305W        W 8505   8.176   9.516  10.010
 4306W        W 8506   3.133   6.544   2.190
 4307W        W 8507   0.277   6.488   0.023
 4308W        W 8508   1.682   1.422   0.930
 4309W        W 8509   2.723   8.536   0.929
 4310W        W 8510   7.680   5.131  10.247
 4311W        W 8511   8.170   7.691   2.626
 4312W        W 8512   4.639   0.292  11.489
 4313W        W 8513   6.552   6.223  11.915
 4314W        W 8514   7.052   1.195  10.533
 4315W        W 8515  10.936   1.141   2.707
 4316W        W 8516   0.630   4.680   9.444
 4317W        W 8517   9.518  10.947  11.546
 4318W        W 8518   9.388   9.859   1.852
 4319W        W 8519   9.055   3.632   9.877
 4320W        W 8520   9.978   4.771   2.819
 4321W        W 8521   3.833   5.960   9.521
 4322W        W 8522   8.968   8.991   8.895
 4323W        W 8523   6.811   2.208   3.084
 4324W        W 8524   7.704   6.199   0.466
 4325W        W 8525   4.559   3.437  11.927
 4326W        W 8526   6.468   3.184   3.200
 4327W        W 8527   4.501   2.072   3.568
 4328W        W 8528   7.527   1.889   1.415
 4329W        W 8529   9.831   3.569   2.643
 4330W        W 8530  11.139   9.470   1.927
 4331W        W 8531   9.143   8.563   9.883
 4332W        W 8532   4.531  10.228   0.194
 4333W        W 8533   2.766   4.248   7.753
 4334W        W 8534   2.728  10.619  11.657
 4335W        W 8535  10.480   5.933  10.717
 4336W        W 8536   6.047   3.700   3.596
 4337W        W 8537   6.221   3.657   9.413
 4338W        W 8538   1.187   7.045  10.505
 4339W        W 8539   6.171   0.921  11.564
 4340W        W 8540   7.192  10.512  11.736
 4341W        W 8541   4.689   2.478   1.101
 4342W        W 8542   3.185  11.281  11.108
 4343W        W 8543  10.234   4.148   8.530
 4344W        W 8544   8.408  10.010  11.799
 4345W        W 8545   9.157   3.137  10.221
 4346W        W 8546   6.433   9.833   3.332
 4347W        W 8547   6.216  10.332   3.467
 4348W        W 8548   1.252   5.327   2.872
 4349W        W 8549   9.355   4.741  11.461
 4350W        W 8550   1.753   2.553   0.479
 4351W        W 8551   8.917   4.279  10.885
 4352W        W 8552   2.735   0.257   2.032
 4353W        W 8553   0.685   8.668   2.239
 4354W        W 8554   4.441   0.829   0.290
 4355W        W 8555  10.365   7.927  10.153
 4356W        W 8556   6.982  11.303  10.021
 4357W        W 8557   6.690   0.154  11.474
 4358W        W 8558  10.018   8.386  11.730
 4359W        W 8559   4.076   8.843   0.413
 4360W        W 8560  10.902   6.557   1.185
 4361W        W 8561   8.872   0.517   8.440
 4362W        W 8562   5.036   3.234   9.765
 4363W        W 8563   1.147  10.538   9.120
 4364W        W 8564   3.899  10.354   0.890
 4365W        W 8565   2.987   3.159  11.904
 4366W        W 8566   5.942   6.630   8.964
 4367W        W 8567   8.753   6.849   8.188
 4368W        W 8568   9.845   1.391   9.296
 4369W        W 8569  11.332  10.309   3.388
 4370W        W 8570   2.400   1.999  11.944
 4371W        W 8571   6.141  10.034   9.435
 4372W        W 8572  10.276   2.613   1.280
 4373W        W 8573   5.243   2.589   3.136
 4374W        W 8574   7.606   3.406  11.436
 4375W        W 8575   4.068   7.049  10.429
 4376W        W 8576   4.522   6.649  11.950
 4377W        W 8577   3.823   2.202   2.428
 4378W        W 8578   3.155   1.027   3.020
 4379W        W 8579   6.140   9.028  11.546
 4380W        W 8580   0.764   0.987   3.186
 4381W        W 8581   8.314   6.046   9.134
 4382W        W 8582   2.829  10.407   2.795
 4383W        W 8583   8.132   3.291   9.150
 4384W        W 8584  11.282   9.568   2.930
 4385W        W 8585  11.376   8.464   1.153
 4386W        W 8586   4.426   0.072   1.877
 4387W        W 8587   8.165   7.399   3.064
 4388W        W 8588  11.454   3.232   2.645
 4389W        W 8589   4.810   2.584  10.973
 4390W        W 8590  10.350   7.684   3.236
 4391W        W 8591   9.392   2.673  10.385
 4392W        W 8592  10.959   7.129   1.778
 4393W        W 8593   9.329   8.815   1.822
 4394W        W 8594   0.918   4.103   3.173
 4395W        W 8595   6.065   2.262  11.135
 4396W        W 8596   7.841  10.824   1.050
 4397W        W 8597   7.214  11.350  11.396
 4398W        W 8598   3.102   4.078  10.113
 4399W        W 8599   7.532   7.087  10.984
 4400W        W 8600   9.863   0.037   1.629
 4401W        W 8601  11.408   5.035  11.597
 4402W        W 8602   9.567   6.176   3.869
 4403W        W 8603   3.703   6.780  11.920
 4404W        W 8604  10.916  10.789   2.173
 4405W        W 8605   9.948   6.699   9.830
 4406W        W 8606   4.716   9.432   1.678
 4407W        W 8607   0.576   6.025  10.326
 4408W        W 8608   4.582   2.524   0.260
 4409W        W 8609   4.990   0.379   3.438
 4410W        W 8610   7.740   4.540   9.511
 4411W        W 8611   3.124   1.292   1.066
 4412W        W 8612   8.474   2.216   8.948
 4413W        W 8613   0.808   2.851   0.161
 4414W        W 8614   4.376   9.014   2.814
 4415W        W 8615   7.995   2.846   3.314
 4416W        W 8616   0.342   3.135   1.946
 4417W        W 8617   3.461   6.750   3.571
 4418W        W 8618   0.173   2.581   9.540
 4419W        W 8619   8.927   2.468   9.030
 4420W        W 8620   9.214   8.334   1.838
 4421W        W 8621   9.821   9.934  10.707
 4422W        W 8622  10.342   8.993  10.433
 4423W        W 8623   6.418   7.976   3.693
 4424W        W 8624   5.600   3.345   0.610
 4425W        W 8625   9.954   4.398   3.172
 4426W        W 8626  11.021   3.607   2.246
 4427W        W 8627  10.869   1.977   9.632
 4428W        W 8628   3.458   7.681   1.295
 4429W        W 8629   3.264   1.973  11.737
 4430W        W 8630   9.002   6.127  11.880
 4431W        W 8631   0.681   1.235   2.002
 4432W        W 8632   3.789   9.481   1.692
 4433W        W 8633   5.762   1.378   2.972
 4434W        W 8634  10.724   2.727   2.246
 4435W        W 8635   8.731   9.099   2.918
 4436W        W 8636   1.164   1.542   8.473
 4437W        W 8637  10.284  10.978   9.079
 4438W        W 8638   6.606   0.019   3.438
 4439W        W 8639   1.440   4.838   9.190
 4440W        W 8640   4.595  11.354   8.576
 4441W        W 8641   9.800   3.613   0.844
 4442W        W 8642   2.788   2.452   1.841
 4443W        W 8643   6.811   6.314   9.273
 4444W        W 8644   2.344   8.418  11.266
 4445W        W 8645   3.194   0.055   0.923
 4446W        W 8646   3.063   3.740  11.732
 4447W        W 8647   7.594   0.346   2.142
 4448W        W 8648   0.230   2.845   2.430
 4449W        W 8649   5.129   8.175   2.444
 4450W        W 8650  11.338   0.484   9.079
 4451W        W 8651   1.315   1.825   2.193
 4452W        W 8652   1.203   3.186   9.308
 4453W        W 8653   9.974   4.349   0.408
 4454W        W 8654   9.442   1.566   1.772
 4455W        W 8655   2.608   8.321   0.467
 4456W        W 8656   9.799  10.573   9.933
 4457W        W 8657   1.301   3.311   0.713
 4458W        W 8658   1.650   1.420   3.499
 4459W        W 8659   1.956   9.864   9.309
 4460W        W 8660   2.354   5.829  10.895
 4461W        W 8661   1.060   5.005   9.567
 4462W        W 8662   7.562   3.146   9.190
 4463W        W 8663   0.073   5.948  10.371
 4464W        W 8664   9.250   4.577  10.590
 4465W        W 8665   3.076   0.610   3.286
 4466W        W 8666   9.258   1.191  10.987
 4467W        W 8667  10.402   6.772   2.398
 4468W        W 8668   9.002   1.198   1.272
 4469W        W 8669   4.760   1.715  11.187
 4470W        W 8670   9.412   6.352  10.096
 4471W        W 8671   1.913   3.723   3.345
 4472W        W 8672   9.498   4.991   9.549
 4473W        W 8673  10.921   4.402  11.304
 4474W        W 8674   6.131   9.219   1.517
 4475W        W 8675   4.441   7.790   9.347
 4476W        W 8676   7.030   8.939   9.035
 4477W        W 8677   8.214   0.849  10.261
 4478W        W 8678   8.640   6.658   8.660
 4479W        W 8679   2.871   9.370   2.074
 4480W        W 8680   6.032   6.832   2.593
 4481W        W 8681   3.409   6.221   9.704
 4482W        W 8682   6.765   9.359   0.108
 4483W        W 8683   7.059   3.228  11.614
 4484W        W 8684   1.514   6.094  11.733
 4485W        W 8685   1.165   8.381   3.375
 4486W        W 8686   8.921   6.617   0.021
 4487W        W 8687   3.172   6.114   8.788
 4488W        W 8688   8.043   2.822  10.811
 4489W        W 8689  11.364  10.837   9.164
 4490W        W 8690   1.311   2.220   9.531
 4491W        W 8691   2.508   6.805   3.628
 4492W        W 8692   2.277   3.357   9.142
 4493W        W 8693   0.933   1.669   1.902
 4494W        W 8694   4.060   5.089  11.536
 4495W        W 8695   3.771   0.808  10.011
 4496W        W 8696  10.954   3.968   9.642
 4497W        W 8697   5.690   0.143   9.966
 4498W        W 8698   8.631   1.764   9.853
 4499W        W 8699   7.467   1.866   1.956
 4500W        W 8700  10.785   4.312   3.262
 4501W        W 8701   0.973   2.816   8.953
 4502W        W 8702   4.782   8.049   1.490
 4503W        W 8703   9.064   1.223   2.152
 4504W        W 8704   9.954   5.084  10.799
 4505W        W 8705   5.913   4.108   1.309
 4506W        W 8706   2.138   8.444   0.261
 4507W        W 8707   8.801   3.055   9.801
 4508W        W 8708  10.843   1.863   2.215
 4509W        W 8709   4.278   4.695  10.271
 4510W        W 8710   5.532   5.464  10.944
 4511W        W 8711   1.774   4.209   3.231
 4512W        W 8712   0.462   2.662  11.039
 4513W        W 8713   4.351   0.881   0.843
 4514W        W 8714   4.508  10.572  11.838
 4515W        W 8715  10.380   0.019  11.311
 4516W        W 8716   4.864   6.167   1.521
 4517W        W 8717   8.896   0.683   1.202
 4518W        W 8718  10.797   0.791  11.376
 4519W        W 8719   8.124   2.464   2.377
 4520W        W 8720   7.626  10.849   3.017
 4521W        W 8721   5.633   7.610  10.959
 4522W        W 8722   8.403   2.842   2.607
 4523W        W 8723   4.316   0.702   2.970
 4524W        W 8724   8.544   9.324   9.638
 4525W        W 8725   3.104   1.920  10.352
 4526W        W 8726   8.859   2.930   9.265
 4527W        W 8727   3.383   6.072   0.274
 4528W        W 8728   1.955   9.363   8.726
 4529W        W 8729   3.569   9.047  11.543
 4530W        W 8730   6.109   4.538   8.374
 4531W        W 8731   9.405   5.755   1.964
 4532W        W 8732   4.736  11.337   0.450
 4533W        W 8733   6.305   1.652  10.530
 4534W        W 8734   3.584   1.037  11.397
 4535W        W 8735   0.005   3.157  11.582
 4536W        W 8736   3.960   4.375   8.612
 4537W        W 8737   6.509   2.349   9.845
 4538W        W 8738   5.233   9.140   2.767
 4539W        W 8739   1.881   0.934  11.167
 4540W        W 8740   3.988   0.560   3.359
 4541W        W 8741   6.978   3.635   9.919
 4542W        W 8742   2.134   2.039   1.917
 4543W        W 8743   3.499   4.564   9.861
 4544W        W 8744   6.531   7.304  11.047
 4545W        W 8745   7.168   6.420   9.632
 4546W        W 8746   2.190   3.309  10.972
 4547W        W 8747   7.303   4.978   8.409
 4548W        W 8748   8.570   4.125  11.255
 4549W        W 8749  10.744   9.523  10.586
 4550W        W 8750   4.131   7.088  11.824
 4551W        W 8751   6.874   2.246  10.584
 4552W        W 8752  10.522   1.770  11.353
 4553W        W 8753   3.892   9.351   0.302
 4554W        W 8754   6.523   7.454  10.045
 4555W        W 8755   7.136   0.346   0.628
 4556W        W 8756   4.576   4.159   9.126
 4557W        W 8757   6.950   3.511   1.749
 4558W        W 8758   9.675   4.000   9.364
 4559W        W 8759   9.061  10.991   3.497
 4560W        W 8760   3.543   3.828   3.001
 4561W        W 8761   7.820   3.526   0.705
 4562W        W 8762   4.188   9.934   2.289
 4563W        W 8763   7.199   0.455  10.575
 4564W        W 8764   9.427   6.854   1.674
 4565W        W 8765   2.892   6.520   9.045
 4566W        W 8766   0.055   0.670   0.633
 4567W        W 8767   2.701  10.329   2.290
 4568W        W 8768   3.159   8.583   3.205
 4569W        W 8769   8.613   8.645   9.050
 4570W        W 8770  11.355   7.528  11.097
 4571W        W 8771   4.191   3.368  10.977
 4572W        W 8772   7.129   2.267   1.317
 4573W        W 8773   5.260   3.123   4.001
 4574W        W 8774   6.608   8.798   3.371
 4575W        W 8775   8.859   1.987   0.768
 4576W        W 8776  10.087   7.937  11.953
 4577W        W 8777  11.329   6.829   3.166
 4578W        W 8778   3.291   9.497   9.378
 4579W        W 8779   0.066   7.034   9.263
 4580W        W 8780   4.627  11.259  11.105
 4581W        W 8781   9.994   9.902   2.185
 4582W        W 8782  10.897   3.111  10.451
 4583W        W 8783  10.303  10.329   2.646
 4584W        W 8784   2.398   9.442   1.186
 4585W        W 8785   2.322   7.351   3.543
 4586W        W 8786  10.798   6.759   3.154
 4587W        W 8787  11.239   7.631   3.357
 4588W        W 8788   6.571   4.251  10.307
 4589W        W 8789   9.542   9.473   1.026
 4590W        W 8790   2.145   7.376   9.491
 4591W        W 8791   9.003   1.705   8.373
 4592W        W 8792   0.344   3.133   0.352
 4593W        W 8793   9.084  10.014   2.528
 4594W        W 8794   0.497   3.482   3.632
 4595W        W 8795   8.789   2.860   8.614
 4596W        W 8796  11.353   7.453  10.564
 4597W        W 8797  10.319   2.863   0.826
 4598W        W 8798   5.030   4.795  11.214
 4599W        W 8799   2.838   5.530   9.706
 4600W        W 8800   1.475   2.749   1.992
 4601W        W 8801   6.414   3.545   1.782
 4602W        W 8802   5.183   1.669   8.750
 4603W        W 8803   3.409   3.836   2.511
 4604W        W 8804   9.627  10.452   0.777
 4605W        W 8805   5.634   6.258  10.700
 4606W        W 8806   8.709   8.463  10.163
 4607W        W 8807   1.774   2.233   9.279
 4608W        W 8808  10.518   3.773   9.827
 4609W        W 8809   3.801   4.703   8.985
 4610W        W 8810   5.384   7.403   9.331
 4611W        W 8811   5.538   2.427   1.952
 4612W        W 8812   5.564   0.710  11.211
 4613W        W 8813   6.694   8.473  11.973
 4614W        W 8814   1.857   6.668   0.830
 4615W        W 8815   2.792   9.281  10.402
 4616W        W 8816  10.457   1.150   0.249
 4617W        W 8817   7.003   7.799   9.470
 4618W        W 8818   1.378  10.373  10.993
 4619W        W 8819   3.406   0.929   2.524
 4620W        W 8820  10.797   5.460   0.275
 4621W        W 8821   8.165   3.152   0.675
 4622W        W 8822   3.129   1.399  11.540
 4623W        W 8823   8.281   3.160   9.942
 4624W        W 8824   1.829  10.557  11.738
 4625W        W 8825  10.865   7.533   0.834
 4626W        W 8826   0.037  10.486  10.846
 4627W        W 8827  11.012   2.252  11.079
 4628W        W 8828  11.160   4.150  11.729
 4629W        W 8829   1.474   2.298  11.370
 4630W        W 8830   8.904   0.166  11.736
 4631W        W 8831  10.807   5.752   1.802
 4632W        W 8832   9.216   0.140  10.393
 4633W        W 8833   5.053   7.697   2.592
 4634W        W 8834   9.026   6.749  10.453
 4635W        W 8835   3.542   9.092   9.627
 4636W        W 8836   4.227   6.159  10.272
 4637W        W 8837   2.313   2.573   2.643
 4638W        W 8838   6.635   9.345   3.335
 4639W        W 8839   6.114   8.834   9.854
 4640W        W 8840   8.201   4.072  11.594
 4641W        W 8841   1.356  10.867   0.970
 4642W        W 8842   3.184   2.947   9.063
 4643W        W 8843   6.985   0.131  10.996
 4644W        W 8844   3.784   1.954   0.124
 4645W        W 8845   5.740   2.625  10.972
 4646W        W 8846   3.587   4.933   8.575
 4647W        W 8847  10.373   3.355   9.537
 4648W        W 8848  10.488   7.385   1.157
 4649W        W 8849   2.668   9.691  11.976
 4650W        W 8850  10.441   3.333  10.038
 4651W        W 8851   9.866   2.567   0.959
 4652W        W 8852   6.456   6.596  10.357
 4653W        W 8853  10.768  10.553  10.416
 4654W        W 8854   3.608  10.128  11.949
 4655W        W 8855   4.757   4.071   0.351
 4656W        W 8856  11.251   7.705   2.646
 4657W        W 8857   7.270   9.618   0.544
 4658W        W 8858  10.719   3.405   3.329
 4659W        W 8859  10.296   9.340  10.825
 4660W        W 8860   1.885   6.068   1.956
 4661W        W 8861   8.979   3.763   1.960
 4662W        W 8862  10.244  10.867   1.452
 4663W        W 8863   0.309   6.364   2.388
 4664W        W 8864   5.212   0.690  11.878
 4665W        W 8865   5.756   5.266   1.781
 4666W        W 8866   3.470   1.227   0.335
 4667W        W 8867   9.525   7.775  10.945
 4668W        W 8868  10.000   6.552   9.331
 4669W        W 8869   9.925   0.604  11.408
 4670W        W 8870   2.249   8.895   0.053
 4671W        W 8871  10.016   5.256   1.000
 4672W        W 8872  10.104   6.106   0.495
 4673W        W 8873   9.522   9.871   9.005
 4674W        W 8874   7.730   0.269   9.831
 4675W        W 8875   7.986   0.830   2.926
 4676W        W 8876   4.316   5.365   2.733
 4677W        W 8877   1.333   4.779  10.586
 4678W        W 8878   2.702   4.275   2.950
 4679W        W 8879   1.122   4.870  10.094
 4680W        W 8880   4.779   1.359   1.966
 4681W        W 8881  11.031   9.082   0.126
 4682W        W 8882   9.694   7.152  11.266
 4683W        W 8883   2.636   6.384   8.627
 4684W        W 8884   6.221   7.692   8.377
 4685W        W 8885  10.479   6.661   9.518
 4686W        W 8886   4.835   8.800  11.836
 4687W        W 8887   5.166   2.666   4.209
 4688W        W 8888   5.657   2.734   9.485
 4689W        W 8889   5.868   9.982   2.656
 4690W        W 8890   9.591   6.906   2.759
 4691W        W 8891   5.024   3.236  11.952
 4692W        W 8892   8.881   0.358  10.755
 4693W        W 8893  11.382   8.368   9.981
 4694W        W 8894   1.018   9.291  10.735
 4695W        W 8895   2.621   7.449   0.194
 4696W        W 8896   4.041   3.303   9.404
 4697W        W 8897   5.625   7.552   8.881
 4698W        W 8898   2.526   3.048  11.576
 4699W        W 8899   6.638  11.112   0.050
 4700W        W 8900   8.134   9.610  10.512
 4701W        W 8901  10.214   7.991   1.677
 4702W        W 8902   0.742   0.960   9.536
 4703W        W 8903   7.610   4.863   0.345
 4704W        W 8904   6.489   1.050  11.942
 4705W        W 8905   4.607   3.060  11.068
 4706W        W 8906  10.514   4.131   9.481
 4707W        W 8907   1.438  10.872  11.260
 4708W        W 8908   5.204   0.877   3.489
 4709W        W 8909   9.111  10.300   0.012
 4710W        W 8910   9.994   3.832   2.236
 4711W        W 8911   0.282   6.642   2.993
 4712W        W 8912   3.525   3.378   9.451
 4713W        W 8913   3.716   3.412   3.243
 4714W        W 8914   8.355   4.595   8.918
 4715W        W 8915   3.754   4.112  11.048
 4716W        W 8916   6.864   3.113   2.831
 4717W        W 8917   0.990   1.659   8.966
 4718W        W 8918   8.459   6.373   2.190
 4719W        W 8919   5.264   4.228   9.520
 4720W        W 8920   3.375  10.080   8.685
 4721W        W 8921   5.657   6.616   0.577
 4722W        W 8922   0.278   8.616   1.933
 4723W        W 8923   8.176   8.407   8.447
 4724W        W 8924   1.420   4.316  10.827
 4725W        W 8925   3.568   1.217   9.783
 4726W        W 8926   5.251   8.966   3.631
 4727W        W 8927  10.885   4.422   1.800
 4728W        W 8928  10.465   4.992   9.892
 4729W        W 8929  11.294   7.753  11.548
 4730W        W 8930   0.822   0.807   2.228
 4731W        W 8931   5.557   4.478  10.705
 4732W        W 8932   8.195  11.480   1.147
 4733W        W 8933  11.265   0.907  10.493
 4734W        W 8934   7.021   1.117  11.043
 4735W        W 8935   0.792   0.175  10.048
 4736W        W 8936   1.997  11.292   3.144
 4737W        W 8937   9.011   1.722   1.280
 4738W        W 8938   4.727   2.343   9.535
 4739W        W 8939   9.858   2.923   3.209
 4740W        W 8940   3.809   3.640   0.202
 4741W        W 8941   7.675   0.293   1.170
 4742W        W 8942   8.222   9.007   9.980
 4743W        W 8943  10.032   9.208   8.681
 4744W        W 8944   7.403  10.867   9.554
 4745W        W 8945  11.443   1.171   2.637
 4746W        W 8946  10.953   5.934   0.290
 4747W        W 8947   5.568   2.162   1.509
 4748W        W 8948   4.589   3.241   3.222
 4749W        W 8949   8.564   5.232   0.942
 4750W        W 8950   8.306   7.040   8.833
 4751W        W 8951   3.289  10.467   0.238
 4752W        W 8952  10.366   6.548   1.486
 4753W        W 8953   7.939   2.942   2.387
 4754W        W 8954   3.173   3.863   8.843
 4755W        W 8955   5.534   5.785  10.467
 4756W        W 8956   3.233   8.069   8.666
 4757W        W 8957   9.005   0.154  11.223
 4758W        W 8958   4.210   6.746   1.249
 4759W        W 8959   0.826   0.035  10.565
 4760W        W 8960  10.825   4.709   2.623
 4761W        W 8961  11.073   6.849   9.232
 4762W        W 8962  11.483   3.970   9.004
 4763W        W 8963  10.917   5.375   1.461
 4764W        W 8964  11.417   6.538   9.455
 4765W        W 8965   9.989   1.364   0.261
 4766W        W 8966   4.114   7.003   9.299
 4767W        W 8967   1.790   3.345   1.758
 4768W        W 8968  10.108  10.554   0.761
 4769W        W 8969   8.354   2.202   9.767
 4770W        W 8970   6.735   4.553   9.415
 4771W        W 8971  10.575   2.766   1.697
 4772W        W 8972   4.974   7.032   3.125
 4773W        W 8973   0.218   2.142   9.798
 4774W        W 8974   7.817   7.979   2.282
 4775W        W 8975   3.962   6.007  11.514
 4776W        W 8976  11.342   4.611   1.888
 4777W        W 8977   4.575   7.562   0.349
 4778W        W 8978   5.615   4.578   2.449
 4779W        W 8979  10.462   7.535   9.370
 4780W        W 8980   7.479   4.332  11.397
 4781W        W 8981   8.348   8.727   2.844
 4782W        W 8982   3.653   3.259   1.864
 4783W        W 8983   2.027   6.997  10.305
 4784W        W 8984  10.279   1.773   1.139
 4785W        W 8985  11.387   8.746   8.531
 4786W        W 8986  10.149   2.193   1.914
 4787W        W 8987   7.206   9.924   2.754
 4788W        W 8988   0.298   6.219  11.167
 4789W        W 8989   1.220   1.014   2.023
 4790W        W 8990  10.464   9.865   2.939
 4791W        W 8991   8.708  11.500  10.448
 4792W        W 8992   9.355   2.191  11.119
 4793W        W 8993   8.534   3.492   1.269
 4794W        W 8994   9.135   5.193  10.828
 4795W        W 8995   4.777   7.918   0.026
 4796W        W 8996  11.480  11.438  10.797
 4797W        W 8997   0.708   9.367   3.428
 4798W        W 8998   0.448  11.485   9.733
 4799W        W 8999   1.932   7.910  11.830
 4800W        W 9000  10.442   8.518   8.891
 4801W        W 9001   3.812   2.873  10.335
 4802W        W 9002   4.877   4.992   1.401
 4803W        W 9003   1.141   2.813   0.588
 4804W        W 9004   7.386   3.777   0.744
 4805W        W 9005   8.536   6.772  10.738
 4806W        W 9006   2.125   4.739   0.363
 4807W        W 9007   4.757   1.600  10.700
 4808W        W 9008   1.536   2.853   0.926
 4809W        W 9009   9.024  10.958   0.339
 4810W        W 9010   0.691   7.100   2.167
 4811W        W 9011   1.238   2.788  11.298
 4812W        W 9012  11.024  10.151   1.804
 4813W        W 9013   4.799   1.240   2.471
 4814W        W 9014   9.601   9.794   2.986
 4815W        W 9015  10.807   4.570   0.661
 4816W        W 9016   5.960   6.104   9.737
 4817W        W 9017   9.955   5.303   0.412
 4818W        W 9018   9.194   4.714   9.190
 4819W        W 9019   9.097   7.659  10.137
 4820W        W 9020   0.235   2.262   1.817
 4821W        W 9021   9.950  11.089  11.284
 4822W        W 9022   9.517  10.117   9.468
 4823W        W 9023   9.430   6.630  11.258
 4824W        W 9024   1.152   9.611   3.434
 4825W        W 9025   9.807   8.614   1.949
 4826W        W 9026   8.047   4.563   0.204
 4827W        W 9027   9.963   1.887   0.164
 4828W        W 9028   6.588   7.500   8.696
 4829W        W 9029   7.136   4.561   8.682
 4830W        W 9030   0.505   7.921   9.625
 4831W        W 9031   3.456   6.030   1.235
 4832W        W 9032   1.588   6.159  10.038
 4833W        W 9033   1.725   0.877   2.118
 4834W        W 9034   5.933   1.389   2.018
 4835W        W 9035   1.074   8.445   2.479
 4836W        W 9036   1.854   4.041  10.902
 4837W        W 9037   6.685   2.379   3.544
 4838W        W 9038   6.538   8.546   1.642
 4839W        W 9039   0.907   3.653   0.813
 4840W        W 9040   6.862  11.208   3.131
 4841W        W 9041   1.150   5.528   9.486
 4842W        W 9042   6.901   1.129   1.945
 4843W        W 9043  10.440   9.963  11.929
 4844W        W 9044   6.696   4.690   0.148
 4845W        W 9045   1.620   7.970   0.886
 4846W        W 9046   0.283   3.491  10.798
 4847W        W 9047  10.014   7.564  11.117
 4848W        W 9048   7.110  10.174  11.330
 4849W        W 9049   7.972   5.228   0.299
 4850W        W 9050   5.622   1.369   8.800
 4851W        W 9051   8.957   6.167   8.844
 4852W        W 9052   2.257   4.178   8.519
 4853W        W 9053   5.131   5.646  11.239
 4854W        W 9054   4.731   8.581  10.256
 4855W        W 9055   7.749   1.829   2.994
 4856W        W 9056   0.165   9.450   9.514
 4857W        W 9057   7.677   1.329  11.393
 4858W        W 9058   6.310   4.019   2.232
 4859W        W 9059   0.613   2.214  10.147
 4860W        W 9060   7.597   6.192  11.952
 4861W        W 9061   0.781   5.222  10.255
 4862W        W 9062   7.982   2.455   8.856
 4863W        W 9063   7.403   4.286   0.749
 4864W        W 9064   8.369   3.283  11.768
 4865W        W 9065   8.576   4.561   9.799
 4866W        W 9066   0.386   0.297  11.527
 4867W        W 9067   3.026   3.491   2.371
 4868W        W 9068   8.990   0.454   0.692
 4869W        W 9069   0.333   8.342  11.421
 4870W        W 9070   3.049   5.547   3.206
 4871W        W 9071   1.999   1.020  11.676
 4872W        W 9072  10.517   8.369  11.018
 4873W        W 9073   5.878  10.033   8.939
 4874W        W 9074   2.594   5.987   9.513
 4875W        W 9075   4.113   0.522   0.537
 4876W        W 9076   4.310   8.131   2.756
 4877W        W 9077   8.669   7.138   3.185
 4878W        W 9078   8.045   1.911  11.017
 4879W        W 9079   3.953   8.674   2.199
 4880W        W 9080   2.725  10.844   3.047
 4881W        W 9081   9.666   4.254   2.241
 4882W        W 9082   5.576   1.822   9.043
 4883W        W 9083   3.772   4.627  11.166
 4884W        W 9084   0.410   5.245  11.570
 4885W        W 9085   5.637   4.805   0.675
 4886W        W 9086   7.910   8.749   9.517
 4887W        W 9087   0.799   3.016   8.500
 4888W        W 9088   2.883   7.050   1.497
 4889W        W 9089   5.769  10.879  10.400
 4890W        W 9090   1.281  11.393   9.318
 4891W        W 9091   2.505   2.488   3.160
 4892W        W 9092   0.596   2.624   9.268
 4893W        W 9093   9.762   9.080   1.743
 4894W        W 9094   1.444   6.146   2.185
 4895W        W 9095   9.351   2.836  11.822
 4896W        W 9096   6.154  11.039   9.595
 4897W        W 9097   1.825   3.588  10.693
 4898W        W 9098   1.704   9.916  10.579
 4899W        W 9099   4.392  10.491  10.087
 4900W        W 9100   7.710   0.855  11.937
 4901W        W 9101   5.132   8.490   1.081
 4902W        W 9102   3.229   2.189   1.775
 4903W        W 9103   0.655   9.143  11.075
 4904W        W 9104   9.547   2.339   9.618
 4905W        W 9105   9.936   2.158   1.286
 4906W        W 9106   9.337  11.403  11.697
 4907W        W 9107   7.923   5.507  10.503
 4908W        W 9108  10.600   3.112   0.464
 4909W        W 9109   5.662   8.510   0.748
 4910W        W 9110   5.106   6.340   2.439
 4911W        W 9111   7.455   1.324   8.775
 4912W        W 9112   6.542   1.149  10.339
 4913W        W 9113   7.588   6.519   1.312
 4914W        W 9114   0.589  10.367   0.934
 4915W        W 9115   3.995   7.609   1.354
 4916W        W 9116   5.787   9.957  10.310
 4917W        W 9117   8.489   2.669  10.516
 4918W        W 9118   9.344   7.943   0.218
 4919W        W 9119   2.986   9.156   1.602
 4920W        W 9120   1.757   4.557   3.606
 4921W        W 9121   1.715   0.164   1.195
 4922W        W 9122   7.478   0.910  10.449
 4923W        W 9123   7.379   7.321  10.152
 4924W        W 9124   1.804   1.202   3.077
 4925W        W 9125   9.495   7.624  11.451
 4926W        W 9126   6.589   3.951   2.682
 4927W        W 9127   1.109   5.135  11.863
 4928W        W 9128  11.337   7.192   8.820
 4929W        W 9129   2.081   5.946   9.581
 4930W        W 9130   9.383   9.779  10.913
 4931W        W 9131   1.785   4.908   1.043
 4932W        W 9132   2.732  10.991   2.569
 4933W        W 9133   0.449   1.742   9.601
 4934W        W 9134  10.367   2.226  11.944
 4935W        W 9135   7.022   9.572  11.249
 4936W        W 9136  11.281   6.705   0.843
 4937W        W 9137   6.946   6.092  10.052
 4938W        W 9138   4.633   4.532   3.137
 4939W        W 9139   3.322   3.250   3.619
 4940W        W 9140   5.147   8.887  10.005
 4941W        W 9141   3.884  10.871  10.740
 4942W        W 9142   4.334   0.943  10.853
 4943W        W 9143   4.722   2.800   0.706
 4944W        W 9144   9.829   7.688   1.913
 4945W        W 9145   2.784  11.457  11.357
 4946W        W 9146   7.220  11.400   1.867
 4947W        W 9147  10.870   2.610  10.308
 4948W        W 9148   9.883   6.378  10.310
 4949W        W 9149   2.688   3.095   2.391
 4950W        W 9150   6.411   8.718   8.267
 4951W        W 9151  10.977   9.588  11.945
 4952W        W 9152   0.828   2.430   0.428
 4953W        W 9153   5.470   4.101   9.063
 4954W        W 9154   2.898  10.944  10.808
 4955W        W 9155   8.610   6.411   1.267
 4956W        W 9156   5.126   9.455   2.403
 4957W        W 9157   5.863   6.674   2.144
 4958W        W 9158   9.984   1.970   3.432
 4959W        W 9159   0.812   6.235   0.930
 4960W        W 9160   0.706  10.859   1.739
 4961W        W 9161   5.734   9.196  11.825
 4962W        W 9162   2.666   2.275   9.481
 4963W        W 9163   0.266   1.449   3.459
 4964W        W 9164   9.953   4.285   2.665
 4965W        W 9165   3.812   8.115  11.802
 4966W        W 9166   2.988   5.661   8.586
 4967W        W 9167  10.006   6.168  10.772
 4968W        W 9168   5.506   0.979   9.112
 4969W        W 9169  11.386   2.653   0.525
 4970W        W 9170   9.793  10.935   0.932
 4971W        W 9171  10.034  10.791   2.756
 4972W        W 9172   2.745   7.973   9.501
 4973W        W 9173  10.777   7.637   2.399
 4974W        W 9174   4.779   7.582   1.733
 4975W        W 9175  10.762   4.945   3.609
 4976W        W 9176  10.297   1.921  10.929
 4977W        W 9177   1.619   6.165   0.995
 4978W        W 9178  10.346   6.986   9.057
 4979W        W 9179   8.110   9.945   0.253
 4980W        W 9180   6.943   4.410   1.823
 4981W        W 9181   4.631   4.726   3.610
 4982W        W 9182   6.555   5.438   0.459
 4983W        W 9183   7.920   9.965   9.993
 4984W        W 9184   5.031   4.564   3.897
 4985W        W 9185   2.220   3.297   2.219
 4986W        W 9186   5.690   9.101   3.052
 4987W        W 9187   5.530   4.102   2.569
 4988W        W 9188   2.539   2.669   0.878
 4989W        W 9189  10.258   7.261   2.350
 4990W        W 9190   5.643   3.176   8.875
 4991W        W 9191   8.431  11.013  11.744
 4992W        W 9192   1.038   4.082   0.516
 4993W        W 9193   3.386   6.608  10.322
 4994W        W 9194  10.306   6.571  11.970
 4995W        W 9195   4.163   9.080   9.103
 4996W        W 9196   9.927   5.688   9.928
 4997W        W 9197   3.497   8.503   8.933
 4998W        W 9198   4.369  10.986  10.752
 4999W        W 9199   9.995   1.636  10.080
 5000W        W 9200  10.067   1.322   8.816
 5001W        W 9201  10.069   0.857   0.042
 5002W        W 9202   6.081   5.779   1.703
 5003W        W 9203   1.263   9.449  10.003
 5004W        W 9204   2.558   7.738   2.683
 5005W        W 9205   9.971   0.794   8.863
 5006W        W 9206   3.985   1.362  11.450
 5007W        W 9207   2.067   1.647   3.299
 5008W        W 9208   8.644   3.108  10.290
 5009W        W 9209  10.501  10.812   3.340
 5010W        W 9210   2.210   9.329  11.345
 5011W        W 9211   8.444   2.643   2.029
 5012W        W 9212   7.442  11.322   8.813
 5013W        W 9213   8.127   0.872   8.469
 5014W        W 9214   0.217   6.111   2.809
 5015W        W 9215   8.692   9.994   2.853
 5016W        W 9216   4.561   5.320   9.660
 5017W        W 9217   5.961   6.261   2.642
 5018W        W 9218   3.697  10.894   2.784
 5019W        W 9219   1.593   5.617   3.174
 5020W        W 9220   4.721   4.528   2.625
 5021W        W 9221   8.114   4.620   3.563
 5022W        W 9222   6.838   9.370   0.672
 5023W        W 9223   0.084   5.658  10.827
 5024W        W 9224   0.619   1.467   0.747
 5025W        W 9225   2.346   0.739   0.743
 5026W        W 9226   8.360   2.145   3.723
 5027W        W 9227   4.925   6.125   1.002
 5028W        W 9228  10.221  11.423   9.399
 5029W        W 9229   7.100   2.630   9.797
 5030W        W 9230  10.893   7.552   9.665
 5031W        W 9231   5.544   6.434  11.282
 5032W        W 9232   1.003   2.329   9.112
 5033W        W 9233   5.488  11.499   0.022
 5034W        W 9234   1.631   3.491  10.201
 5035W        W 9235   4.727   2.822   2.002
 5036W        W 9236   4.953   8.062   1.976
 5037W        W 9237   8.548   5.476   9.854
 5038W        W 9238   0.711   4.158  11.005
 5039W        W 9239  11.294   2.251   9.475
 5040W        W 9240   9.622   8.370   9.909
 5041W        W 9241   5.801   9.876   2.026
 5042W        W 9242   6.965   4.561   0.918
 5043W        W 9243   4.795   1.651   0.425
 5044W        W 9244   2.294  11.250  11.418
 5045W        W 9245   1.261   0.510   1.893
 5046W        W 9246   4.086   2.325   0.305
 5047W        W 9247   7.231   4.454   9.560
 5048W        W 9248   9.882  10.492   9.409
 5049W        W 9249   1.933   6.388  10.467
 5050W        W 9250   7.016   8.296   9.724
 5051W        W 9251   0.753   8.396   0.423
 5052W        W 9252   9.389   3.912   1.672
 5053W        W 9253   9.873   2.610   2.819
 5054W        W 9254   6.747  10.755   1.883
 5055W        W 9255   5.469   8.085   2.028
 5056W        W 9256   9.387   0.947  11.877
 5057W        W 9257   5.508  11.032   9.044
 5058W        W 9258   6.231   2.747   9.886
 5059W        W 9259   2.309   7.074   0.064
 5060W        W 9260  11.319  11.354   9.351
 5061W        W 9261   5.667   0.696  10.713
 5062W        W 9262  10.862   8.327   9.641
 5063W        W 9263  10.292   5.962  11.191
 5064W        W 9264   6.980   3.155   1.386
 5065W        W 9265   2.746   8.490   9.466
 5066W        W 9266  10.849   7.634   1.882
 5067W        W 9267   9.408   4.389  11.053
 5068W        W 9268   7.475  11.338   9.329
 5069W        W 9269  10.816   3.924   1.906
 5070W        W 9270   2.585   6.302   9.991
 5071W        W 9271  10.592   7.870   0.010
 5072W        W 9272   0.437  11.347   0.715
 5073W        W 9273  11.429   5.022   2.166
 5074W        W 9274   4.614  11.419   9.120
 5075W        W 9275   8.932   5.362   8.528
 5076W        W 9276   8.877   2.836   2.835
 5077W        W 9277   0.480   3.605  11.540
 5078W        W 9278   8.442   2.955   1.550
 5079W        W 9279   8.067   3.928   1.926
 5080W        W 9280   0.501   5.378  11.017
 5081W        W 9281   2.453   2.523  11.870
 5082W        W 9282   2.775   3.110   1.431
 5083W        W 9283   6.179  10.560   9.411
 5084W        W 9284   4.732  10.914   1.349
 5085W        W 9285   1.056   9.492   0.758
 5086W        W 9286   4.674   6.830   2.304
 5087W        W 9287   5.207   9.856   9.014
 5088W        W 9288   0.287   9.936   0.900
 5089W        W 9289   5.812   7.088   0.378
 5090W        W 9290   7.906   6.955   2.973
 5091W        W 9291   3.844  10.787   9.882
 5092W        W 9292   2.615   6.224  11.881
 5093W        W 9293   1.405   2.025   8.981
 5094W        W 9294   0.830   1.885  10.930
 5095W        W 9295   4.083   0.868  11.306
 5096W        W 9296   2.012  11.101  10.062
 5097W        W 9297   1.337   7.845   8.801
 5098W        W 9298   2.159   4.960   1.497
 5099W        W 9299   2.630   9.765  10.503
 5100W        W 9300  10.542  11.247   2.301
 5101W        W 9301   6.267   0.427   3.324
 5102W        W 9302   3.865   7.357   2.205
 5103W        W 9303   3.853   8.422   2.649
 5104W        W 9304  10.034   3.303   1.436
 5105W        W 9305   3.477   2.226  10.502
 5106W        W 9306   0.351   9.603   1.600
 5107W        W 9307   8.860   4.122   9.889
 5108W        W 9308   0.187   3.680   2.749
 5109W        W 9309   0.511   3.064  10.674
 5110W        W 9310   4.161  10.801   1.782
 5111W        W 9311   4.134  10.906  10.300
 5112W        W 9312   5.362   9.455   0.324
 5113W        W 9313   0.175  10.585   3.104
 5114W        W 9314  10.575   0.879  11.843
 5115W        W 9315   2.847   8.479   2.711
 5116W        W 9316   9.524   2.709   3.510
 5117W        W 9317   5.761   7.793  10.036
 5118W        W 9318   8.545   1.475   1.329
 5119W        W 9319   8.122   9.416   1.064
 5120W        W 9320   9.377   2.726  11.316
 5121W        W 9321   6.755   7.886   9.915
 5122W        W 9322   5.779   4.815  10.369
 5123W        W 9323   7.657  10.291  10.798
 5124W        W 9324   5.103   5.712  10.733
 5125W        W 9325   9.154   3.745   0.206
 5126W        W 9326   2.180   0.792   8.913
 5127W        W 9327   0.343   7.570   3.281
 5128W        W 9328   6.853   8.592   2.965
 5129W        W 9329   0.650  10.331   2.343
 5130W        W 9330   2.938   0.256  10.950
 5131W        W 9331   2.989   4.568   9.987
 5132W        W 9332   6.483   4.028   0.810
 5133W        W 9333   3.806   4.671   8.195
 5134W        W 9334   4.810   2.725   1.530
 5135W        W 9335   8.153   1.798  10.002
 5136W        W 9336   3.365   2.371   0.024
 5137W        W 9337   8.507   1.888  11.243
 5138W        W 9338   3.758  10.350   8.963
 5139W        W 9339   9.618   0.635   0.232
 5140W        W 9340   8.594   5.002  10.138
 5141W        W 9341   6.662  10.371  11.098
 5142W        W 9342   9.546   2.361   2.217
 5143W        W 9343  10.693   1.302  11.518
 5144W        W 9344   1.420   3.885  11.483
 5145W        W 9345   8.053   2.768   0.366
 5146W        W 9346   0.416   5.708   9.958
 5147W        W 9347   4.151   7.462   9.078
 5148W        W 9348  10.359   4.560  11.450
 5149W        W 9349   4.696   3.558   0.430
 5150W        W 9350   6.782   3.142   9.174
 5151W        W 9351   7.685   5.777   8.323
 5152W        W 9352   4.585   6.371   2.501
 5153W        W 9353   5.572   8.979   0.434
 5154W        W 9354   2.762   3.393  10.302
 5155W        W 9355   2.874   2.326   2.808
 5156W        W 9356   5.425   2.372   2.710
 5157W        W 9357   6.726   2.801   0.471
 5158W        W 9358   3.178   0.810   9.111
 5159W        W 9359   8.984  10.018  10.130
 5160W        W 9360  11.372   5.584   0.214
 5161W        W 9361   4.520   3.205   9.552
 5162W        W 9362   8.045   1.835   3.446
 5163W        W 9363   8.476   6.968   0.456
 5164W        W 9364  10.426   8.109   2.964
 5165W        W 9365   7.645   0.724   3.396
 5166W        W 9366   4.089  11.385  10.511
 5167W        W 9367   1.908   5.181  11.215
 5168W        W 9368   4.542   5.451   2.261
 5169W        W 9369   5.589   3.690   3.799
 5170W        W 9370   7.378   4.795  10.531
 5171W        W 9371  11.336   6.433   2.808
 5172W        W 9372   1.707   2.314   0.943
 5173W        W 9373   5.004   9.802   2.080
 5174W        W 9374  11.492  11.455   2.013
 5175W        W 9375   9.230   9.530   2.268
 5176W        W 9376   0.778   7.168   9.936
 5177W        W 9377   6.955   1.246  11.938
 5178W        W 9378   0.764   7.496   1.790
 5179W        W 9379   0.866   9.146   1.057
 5180W        W 9380   5.162   5.579  11.758
 5181W        W 9381  10.118   5.028  10.305
 5182W        W 9382  10.130   1.964  10.450
 5183W        W 9383   4.997   1.511  10.121
 5184W        W 9384   8.838   6.909   9.550
 5185W        W 9385   0.813   2.034  11.624
 5186W        W 9386   0.763   5.517   3.002
 5187W        W 9387   6.286   5.004   0.347
 5188W        W 9388   1.251   5.270  10.458
 5189W        W 9389   5.335   6.714  10.852
 5190W        W 9390   1.613   5.069  11.972
 5191W        W 9391   0.290  11.439   0.229
 5192W        W 9392   0.487   4.592  10.843
 5193W        W 9393  11.336   8.899   1.900
 5194W        W 9394   8.728  11.255   9.574
 5195W        W 9395  10.506   7.363  10.949
 5196W        W 9396   9.108   9.055   2.505
 5197W        W 9397  11.263   4.789   0.821
 5198W        W 9398   3.281   2.641   0.862
 5199W        W 9399   8.556   0.942   9.416
 5200W        W 9400   7.059   8.350   1.978
 5201W        W 9401   5.107   0.042   3.038
 5202W        W 9402   3.083   3.658   4.143
 5203W        W 9403   1.223   8.083   0.586
 5204W        W 9404   1.356   9.576   0.375
 5205W        W 9405   0.729   0.919  10.427
 5206W        W 9406  10.340   2.694   9.282
 5207W        W 9407  10.546   1.556   9.651
 5208W        W 9408  10.240   8.468   0.401
 5209W        W 9409   2.337  10.247   2.711
 5210W        W 9410   9.969   8.065  10.948
 5211W        W 9411   2.297  11.267   0.466
 5212W        W 9412   7.650   2.440   3.164
 5213W        W 9413  10.111   0.334  10.120
 5214W        W 9414   8.408  11.298   3.169
 5215W        W 9415   9.452   6.685   2.149
 5216W        W 9416   4.132   8.080   9.643
 5217W        W 9417   9.846   0.837   9.410
 5218W        W 9418   7.143  10.364   3.392
 5219W        W 9419   0.675   6.932  10.378
 5220W        W 9420  11.305   1.823  10.967
 5221W        W 9421   2.167   2.949   8.802
 5222W        W 9422   7.738   7.721   9.863
 5223W        W 9423   8.600   6.008  11.011
 5224W        W 9424   7.487   7.078   1.867
 5225W        W 9425   1.805  10.977   2.758
 5226W        W 9426   1.799  10.493  11.246
 5227W        W 9427   2.961   7.854  10.381
 5228W        W 9428   1.850   3.692   2.242
 5229W        W 9429   9.444   8.785   0.216
 5230W        W 9430   0.413   6.043   0.252
 5231W        W 9431   0.505   3.890   2.408
 5232W        W 9432   4.738   2.686   2.979
 5233W        W 9433   0.732   0.682   9.971
 5234W        W 9434  10.398   7.465   9.874
 5235W        W 9435   3.217   0.147   9.151
 5236W        W 9436   3.816   0.744   2.808
 5237W        W 9437   1.181   5.735   2.369
 5238W        W 9438   7.538   1.029   1.949
 5239W        W 9439   7.479   8.374   2.314
 5240W        W 9440   8.603   6.455   0.381
 5241W        W 9441  10.202   2.205   0.848
 5242W        W 9442   6.648   9.878   1.999
 5243W        W 9443   3.684  11.464   9.590
 5244W        W 9444   4.647   4.621  10.893
 5245W        W 9445   4.822   9.027   3.075
 5246W        W 9446   2.638   1.142   1.209
 5247W        W 9447   4.771   6.994  10.052
 5248W        W 9448   1.398   9.506  11.886
 5249W        W 9449   2.377   3.798   9.468
 5250W        W 9450   4.654   4.760   1.799
 5251W        W 9451   2.910  10.029  11.517
 5252W        W 9452   9.234   7.357  11.077
 5253W        W 9453   8.801   8.685   0.754
 5254W        W 9454   8.114   1.427   8.728
 5255W        W 9455   9.622   9.549   1.515
 5256W        W 9456   0.703   4.707  11.329
 5257W        W 9457   8.106   8.849  11.751
 5258W        W 9458   1.815   7.400  11.809
 5259W        W 9459   4.728   8.500   0.724
 5260W        W 9460   6.321   7.458   1.474
 5261W        W 9461   3.707   8.864  10.589
 5262W        W 9462  10.350   5.047  11.155
 5263W        W 9463   1.431   5.248   2.394
 5264W        W 9464   1.923   0.480   0.814
 5265W        W 9465   2.832   7.002   2.382
 5266W        W 9466   7.910   5.218  11.425
 5267W        W 9467   1.773   5.243   2.816
 5268W        W 9468   6.416   1.251   1.768
 5269W        W 9469   1.632   3.038   0.448
 5270W        W 9470  11.064   0.931   1.230
 5271W        W 9471   1.454   0.017   0.203
 5272W        W 9472   4.092   3.528  11.795
 5273W        W 9473   5.189   0.823   1.884
 5274W        W 9474  10.061   8.937   9.133
 5275W        W 9475   1.996  10.386   9.402
 5276W        W 9476   2.744   4.612   1.351
 5277W        W 9477   4.545   5.136  11.206
 5278W        W 9478   9.008   5.677   9.784
 5279W        W 9479   4.640   4.019   1.362
 5280W        W 9480   7.812   9.520  10.897
 5281W        W 9481   4.237   1.397   2.996
 5282W        W 9482   9.394   8.595   2.295
 5283W        W 9483   1.424   5.553  11.925
 5284W        W 9484   3.778   1.218   2.962
 5285W        W 9485   9.989   2.743  10.098
 5286W        W 9486   1.191   7.318   2.909
 5287W        W 9487   5.920   5.592   9.067
 5288W        W 9488   6.537   2.863   3.604
 5289W        W 9489   9.676   1.117   3.000
 5290W        W 9490   4.086  11.349   0.876
 5291W        W 9491   0.900  11.024  10.655
 5292W        W 9492   8.312   6.791   0.940
 5293W        W 9493   7.124   7.019  11.937
 5294W        W 9494   9.942  10.925  11.871
 5295W        W 9495   3.723   6.927  11.155
 5296W        W 9496   2.196   8.032   0.568
 5297W        W 9497   9.639   4.207   1.340
 5298W        W 9498  10.631   0.695   1.392
 5299W        W 9499   7.580   7.365   2.298
 5300W        W 9500   1.993   5.354   1.849
 5301W        W 9501  10.568  10.502  11.755
 5302W        W 9502   1.613   7.005   1.918
 5303W        W 9503   8.304   4.019  10.279
 5304W        W 9504   5.645   3.217   2.551
 5305W        W 9505   6.099   0.281   2.281
 5306W        W 9506   9.564   7.680   1.457
 5307W        W 9507   9.955   3.186   9.785
 5308W        W 9508   9.610   4.899   1.711
 5309W        W 9509   8.217   3.646   9.520
 5310W        W 9510   6.690   3.972   1.700
 5311W        W 9511   9.978   8.531  10.717
 5312W        W 9512   8.471  10.260  10.034
 5313W        W 9513   0.349  11.457   9.237
 5314W        W 9514   3.703   3.620  10.957
 5315W        W 9515  11.456  10.705   9.675
 5316W        W 9516   0.175   7.200  11.339
 5317W        W 9517   8.942   9.371  11.428
 5318W        W 9518   2.608   0.836   9.225
 5319W        W 9519   0.558   3.452  10.315
 5320W        W 9520  10.224   2.716   2.099
 5321W        W 9521   5.638   8.538   1.788
 5322W        W 9522   3.955   7.999   1.778
 5323W        W 9523   8.268   3.851   3.990
 5324W        W 9524   1.217   4.029   9.245
 5325W        W 9525   2.247   1.895   9.762
 5326W        W 9526   9.893  10.791   2.252
 5327W        W 9527   5.209   9.816   3.332
 5328W        W 9528   1.966   2.165  11.288
 5329W        W 9529   7.976  10.479   2.431
 5330W        W 9530   1.938   3.212   8.389
 5331W        W 9531   0.394  10.019  10.930
 5332W        W 9532   8.568   3.567   3.135
 5333W        W 9533   9.926   7.669   2.421
 5334W        W 9534   6.582  10.889   9.334
 5335W        W 9535   2.791   5.290  11.347
 5336W        W 9536   4.974   2.507   8.623
 5337W        W 9537   6.731   8.638   0.819
 5338W        W 9538   1.860   6.921   8.767
 5339W        W 9539   3.748   0.247   2.792
 5340W        W 9540   4.980   8.307   8.937
 5341W        W 9541   7.024   9.342   8.595
 5342W        W 9542   1.255   7.565   2.064
 5343W        W 9543   7.991   5.917   0.778
 5344W        W 9544   5.608  10.965   0.953
 5345W        W 9545   0.675   8.775  10.088
 5346W        W 9546   4.002   6.210   1.845
 5347W        W 9547  10.747   7.459   3.475
 5348W        W 9548   1.622   6.656   8.352
 5349W        W 9549   0.289  11.015   9.463
 5350W        W 9550   5.223   4.695   1.659
 5351W        W 9551   2.792   4.827  11.632
 5352W        W 9552   3.142   3.332   1.758
 5353W        W 9553   0.144   7.896  10.006
 5354W        W 9554   6.324   6.465   2.338
 5355W        W 9555   2.163  10.979   1.802
 5356W        W 9556   0.448   0.529   2.423
 5357W        W 9557   9.717   7.051   0.295
 5358W        W 9558   0.893   7.083   1.419
 5359W        W 9559   5.186   1.390   1.658
 5360W        W 9560   1.719   4.795  10.263
 5361W        W 9561   5.799   5.155   0.300
 5362W        W 9562   1.767   8.077   9.632
 5363W        W 9563   1.196   1.888  11.286
 5364W        W 9564  10.974   9.954   9.720
 5365W        W 9565   3.920   9.438   3.360
 5366W        W 9566   6.904   2.627   2.655
 5367W        W 9567   6.379   2.529  10.339
 5368W        W 9568   2.203   1.467   0.056
 5369W        W 9569   1.177   1.274   3.638
 5370W        W 9570   7.776   0.357   3.730
 5371W        W 9571   2.292   5.779   9.138
 5372W        W 9572   8.953   7.496   2.175
 5373W        W 9573  11.263   5.118   1.215
 5374W        W 9574   1.437  10.335   2.879
 5375W        W 9575   2.826   3.259   3.476
 5376W        W 9576  10.470   8.930   2.956
 5377W        W 9577   8.633   7.364   9.435
 5378W        W 9578   1.902   4.533  10.912
 5379W        W 9579  10.083   1.303   1.218
 5380W        W 9580   7.572   1.782   9.581
 5381W        W 9581   3.141   5.614   0.101
 5382W        W 9582   4.047   5.157  11.025
 5383W        W 9583   2.694   3.107   9.000
 5384W        W 9584   0.179   1.808   1.507
 5385W        W 9585   9.797   1.306   0.762
 5386W        W 9586   8.932   0.754   1.911
 5387W        W 9587   7.562   5.061   1.232
 5388W        W 9588   6.655  10.401   2.701
 5389W        W 9589   0.833  10.287  10.099
 5390W        W 9590   0.097   9.373   0.758
 5391W        W 9591   7.663   1.019   9.596
 5392W        W 9592   7.702   6.518   1.829
 5393W        W 9593   8.129   6.704   9.894
 5394W        W 9594   3.740   9.089   2.024
 5395W        W 9595   1.740   8.954  10.883
 5396W        W 9596   7.015   5.993  11.827
 5397W        W 9597   6.222   0.790   2.420
 5398W        W 9598   8.084  10.871   2.775
 5399W        W 9599   0.209   5.451   1.886
 5400W        W 9600   8.104   3.760   1.418
 5401W        W 9601  10.867   1.380  11.997
 5402W        W 9602   8.978   8.576   2.713
 5403W        W 9603   8.470   1.473   9.469
 5404W        W 9604   0.291   7.578  11.704
 5405W        W 9605   7.104   6.683  11.333
 5406W        W 9606   2.322   7.926  11.005
 5407W        W 9607   0.351   1.278  11.840
 5408W        W 9608   3.956   6.297   1.280
 5409W        W 9609   6.676   7.506   3.630
 5410W        W 9610  11.328   8.464   2.195
 5411W        W 9611   9.126  11.443   0.731
 5412W        W 9612   0.162   5.163   0.917
 5413W        W 9613   9.909   0.384  11.861
 5414W        W 9614   5.071   0.245   0.246
 5415W        W 9615   6.241   3.483   2.255
 5416W        W 9616  10.827  10.392   3.401
 5417W        W 9617  11.191   5.269   8.763
 5418W        W 9618   5.734   8.628   3.304
 5419W        W 9619   8.990   3.659   3.444
 5420W        W 9620  11.055   1.383   8.692
 5421W        W 9621   2.751  11.210   0.223
 5422W        W 9622   5.707   2.389   1.030
 5423W        W 9623   5.092   7.739  11.646
 5424W        W 9624   1.147   8.237   0.112
 5425W        W 9625  10.618   7.846   1.408
 5426W        W 9626   7.664   3.049   0.699
 5427W        W 9627  11.415   3.791   3.142
 5428W        W 9628   4.365   5.005   1.404
 5429W        W 9629   0.185   9.233  10.337
 5430W        W 9630   8.731   7.954  10.382
 5431W        W 9631   1.700  10.829   9.414
 5432W        W 9632   9.366   6.653  11.789
 5433W        W 9633   9.141   7.324   9.566
 5434W        W 9634  11.463  11.407   9.841
 5435W        W 9635  10.795   0.213   9.931
 5436W        W 9636   1.984  10.697   8.987
 5437W        W 9637   7.760   6.297   8.265
 5438W        W 9638   0.184   5.525   9.516
 5439W        W 9639  10.812   7.155   8.908
 5440W        W 9640   6.444   2.791   8.981
 5441W        W 9641  10.131   0.741  10.581
 5442W        W 9642   6.789   6.117   1.322
 5443W        W 9643   9.516   3.309   2.274
 5444W        W 9644   5.265   5.814   2.351
 5445W        W 9645   7.314   0.459  10.072
 5446W        W 9646   8.895   0.812   2.416
 5447W        W 9647   3.663   3.601   0.714
 5448W        W 9648   0.228   3.074  10.235
 5449W        W 9649   0.431   8.687  10.889
 5450W        W 9650   7.572   6.360   3.520
 5451W        W 9651   1.295   7.853  10.910
 5452W        W 9652   3.983   1.019   0.465
 5453W        W 9653   9.506   2.789   9.909
 5454W        W 9654   7.281   1.011   0.267
 5455W        W 9655   6.769   0.634   8.454
 5456W        W 9656   5.525   3.779   1.809
 5457W        W 9657   9.522   1.362   1.302
 5458W        W 9658   0.515   7.049   8.999
 5459W        W 9659   0.209   8.715  10.397
 5460W        W 9660   0.303   3.862  11.146
 5461W        W 9661   1.425  10.886  11.782
 5462W        W 9662  10.751   9.366   2.248
 5463W        W 9663   2.152   8.589   3.194
 5464W        W 9664   1.636  10.291   2.195
 5465W        W 9665   4.650   8.113   9.677
 5466W        W 9666   9.449   6.885   9.860
 5467W        W 9667   3.693   5.434  10.355
 5468W        W 9668  11.399   6.057   0.059
 5469W        W 9669   3.349   7.218  10.960
 5470W        W 9670  10.910   8.547   8.642
 5471W        W 9671  10.737   6.991   0.394
 5472W        W 9672   3.301   9.126  11.086
 5473W        W 9673   1.677   9.627  11.464
 5474W        W 9674   5.883   1.527   9.799
 5475W        W 9675   4.901  10.397  10.175
 5476W        W 9676   1.298   5.726   0.381
 5477W        W 9677   2.130   1.748  11.578
 5478W        W 9678   9.821   0.624   3.011
 5479W        W 9679   7.708   9.043   9.915
 5480W        W 9680   7.156   7.098  10.551
 5481W        W 9681  11.469   9.824   8.719
 5482W        W 9682   1.355  10.427   9.978
 5483W        W 9683   5.476  10.772   2.477
 5484W        W 9684   4.980   8.010   3.360
 5485W        W 9685   3.253   0.187  11.469
 5486W        W 9686   2.269   7.503  10.349
 5487W        W 9687   1.478   4.289   2.358
 5488W        W 9688  10.486   2.452   9.982
 5489W        W 9689   4.952   6.412  11.724
 5490W        W 9690   7.077   1.757   1.155
 5491W        W 9691   0.426   0.345   0.521
 5492W        W 9692   8.363   7.186  11.015
 5493W        W 9693   2.329   3.092   2.744
 5494W        W 9694  10.575   6.006   2.195
 5495W        W 9695   4.296  11.379  11.525
 5496W        W 9696   2.410  10.164  11.541
 5497W        W 9697   0.976  11.484   8.551
 5498W        W 9698   9.408   0.777   2.136
 5499W        W 9699   7.714   6.613   8.693
 5500W        W 9700   6.552   8.518   3.822
 5501W        W 9701   2.371   0.387   9.165
 5502W        W 9702   8.465   5.033   9.639
 5503W        W 9703   3.704   0.870   2.065
 5504W        W 9704   1.688   0.374   1.655
 5505W        W 9705   4.274   2.266   9.288
 5506W        W 9706   0.371   8.029   9.125
 5507W        W 9707   9.990  10.039   0.721
 5508W        W 9708   0.427   3.388   1.483
 5509W        W 9709   4.203   0.028  11.008
 5510W        W 9710  11.118   1.446   2.332
 5511W        W 9711   5.097   7.021   1.023
 5512W        W 9712  11.463   5.573   1.428
 5513W        W 9713   1.379   7.050   0.091
 5514W        W 9714   1.404   3.739   1.028
 5515W        W 9715   3.280   7.639   0.794
 5516W        W 9716   6.103   1.700   3.517
 5517W        W 9717   8.318   8.548   3.716
 5518W        W 9718  10.082  10.385   3.539
 5519W        W 9719   9.521   7.739  10.424
 5520W        W 9720   8.050  10.986  10.088
 5521W        W 9721  10.868   8.683  10.012
 5522W        W 9722   2.505   4.328   2.116
 5523W        W 9723   8.677   8.522  11.762
 5524W        W 9724   2.399   6.075  10.440
 5525W        W 9725   2.813   8.941  10.797
 5526W        W 9726   7.123   5.760  11.351
 5527W        W 9727   2.855   9.346   0.305
 5528W        W 9728   5.114   9.079  11.474
 5529W        W 9729   3.441   0.221  10.986
 5530W        W 9730   4.626   4.565   0.496
 5531W        W 9731   0.632   0.532  10.870
 5532W        W 9732   8.450   7.843   3.052
 5533W        W 9733  10.400   5.618   0.906
 5534W        W 9734   1.840   5.692  11.657
 5535W        W 9735   2.043   4.699   9.868
 5536W        W 9736  11.046   5.310   1.965
 5537W        W 9737   4.837  10.457  11.465
 5538W        W 9738   4.400   4.078   3.253
 5539W        W 9739   7.257   2.262   8.777
 5540W        W 9740   3.690   1.818   1.675
 5541W        W 9741   8.392   4.152   9.261
 5542W        W 9742   7.858   3.253   0.244
 5543W        W 9743   4.365   3.246   3.672
 5544W        W 9744   9.009   5.008   1.455
 5545W        W 9745   4.248   7.023   8.788
 5546W        W 9746   7.771   0.928   0.443
 5547W        W 9747   6.120   4.562   1.314
 5548W        W 9748  10.352   6.426   9.994
 5549W        W 9749   5.870   9.408   0.332
 5550W        W 9750   4.190   1.384   0.822
 5551W        W 9751  11.209   9.845  10.195
 5552W        W 9752   7.230   9.546  10.381
 5553W        W 9753   6.024   4.264   2.602
 5554W        W 9754   4.909   2.369   2.626
 5555W        W 9755  10.347   9.481  10.286
 5556W        W 9756   2.611   9.886  11.038
 5557W        W 9757   1.409   1.707   3.151
 5558W        W 9758   5.552   5.386   2.259
 5559W        W 9759   4.869   7.109   1.491
 5560W        W 9760   0.371   1.305  11.306
 5561W        W 9761   5.580   4.623   9.020
 5562W        W 9762   5.916   6.528   9.463
 5563W        W 9763   0.245   6.788   2.086
 5564W        W 9764   9.912  10.472   1.239
 5565W        W 9765   2.300   3.346   1.327
 5566W        W 9766   4.981   9.102   8.581
 5567W        W 9767   8.538   3.872   1.715
 5568W        W 9768   1.516   4.793   2.666
 5569W        W 9769   6.238  11.460   1.398
 5570W        W 9770   1.852   6.960   3.214
 5571W        W 9771   3.156   3.603   0.767
 5572W        W 9772   7.706   9.210   1.297
 5573W        W 9773   7.884   8.071  10.204
 5574W        W 9774   9.587  11.415   0.991
 5575W        W 9775   6.760   6.571   9.944
 5576W        W 9776   3.051   5.529   2.494
 5577W        W 9777   7.327   8.567   2.776
 5578W        W 9778   3.394  10.913  10.805
 5579W        W 9779   8.036   1.302   1.257
 5580W        W 9780   5.932   3.065   0.312
 5581W        W 9781  11.272   1.035   3.550
 5582W        W 9782  10.312   3.694   1.704
 5583W        W 9783   4.611   3.357  10.043
 5584W        W 9784   8.510   7.676   9.052
 5585W        W 9785   7.749   5.235   8.542
 5586W        W 9786   1.720   3.145   2.242
 5587W        W 9787   3.145   7.032   9.907
 5588W        W 9788   2.287   2.477   1.701
 5589W        W 9789   9.491   7.387   9.963
 5590W        W 9790   7.488   0.241  11.154
 5591W        W 9791   6.620   2.340   1.380
 5592W        W 9792   8.648   7.627   9.886
 5593W        W 9793  10.971   3.586   0.455
 5594W        W 9794   3.600   2.341   0.475
 5595W        W 9795   8.127   6.610  11.284
 5596W        W 9796   6.931   0.322   1.104
 5597W        W 9797   0.904   5.726   9.007
 5598W        W 9798  10.288   5.650   2.438
 5599W        W 9799   4.183   6.913  11.349
 5600W        W 9800   0.092   0.776  10.850
 5601W        W 9801   1.470  11.370   0.843
 5602W        W 9802  10.005   0.317   9.114
 5603W        W 9803   2.264   1.934   8.724
 5604W        W 9804   1.364   1.442   1.771
 5605W        W 9805   9.123   9.949   3.152
 5606W        W 9806   8.622   1.162  11.017
 5607W        W 9807   9.274   2.650   2.544
 5608W        W 9808   9.194  11.462   0.212
 5609W        W 9809   7.522   8.774   9.154
 5610W        W 9810   2.808   1.560   1.480
 5611W        W 9811  10.728  10.608   2.913
 5612W        W 9812  10.424   8.246   3.463
 5613W        W 9813   8.375   7.914   1.357
 5614W        W 9814   2.247   0.661   2.883
 5615W        W 9815   6.444   1.154  11.200
 5616W        W 9816   7.199   6.476   1.729
 5617W        W 9817   5.440   5.273   9.557
 5618W        W 9818   0.110   1.629   2.727
 5619W        W 9819   3.174   2.820   9.932
 5620W        W 9820   3.001   4.703   2.975
 5621W        W 9821   2.040   5.155   0.662
 5622W        W 9822   6.045   9.354   9.611
 5623W        W 9823   9.032   5.124   2.382
 5624W        W 9824   8.473   0.417   1.254
 5625W        W 9825  10.333   6.483  11.006
 5626W        W 9826   7.081   8.414  11.093
 5627W        W 9827   4.042   4.758  10.710
 5628W        W 9828   2.341   7.716   8.960
 5629W        W 9829   6.556   3.073   4.131
 5630W        W 9830  11.211  11.059  11.053
 5631W        W 9831   0.008   3.449   9.068
 5632W        W 9832   3.007   8.349   9.039
 5633W        W 9833   6.235   9.312  11.981
 5634W        W 9834   2.254   2.822   9.833
 5635W        W 9835   9.905   6.153  11.461
 5636W        W 9836   8.687   6.573   1.764
 5637W        W 9837  10.440  10.452  10.778
 5638W        W 9838  10.036   4.087   0.893
 5639W        W 9839   7.007   0.780   3.151
 5640W        W 9840  10.415   4.501   2.890
 5641W        W 9841   8.751   2.300   1.814
 5642W        W 9842   9.213   3.791   9.414
 5643W        W 9843   5.482   5.031  10.004
 5644W        W 9844   6.943  10.766   2.373
 5645W        W 9845   3.490   7.746  11.947
 5646W        W 9846   0.223   2.714   1.520
 5647W        W 9847   1.841   8.159   2.011
 5648W        W 9848   9.137   9.080   9.777
 5649W        W 9849   1.188   4.802  11.464
 5650W        W 9850  11.394   9.815   9.236
 5651W        W 9851   8.598   9.343  10.630
 5652W        W 9852   7.972   2.330  10.713
 5653W        W 9853   0.503   8.039  11.826
 5654W        W 9854   4.490   2.814  10.645
 5655W        W 9855   8.925   1.570  11.184
 5656W        W 9856   3.484   3.796   1.170
 5657W        W 9857   6.432   3.517   0.878
 5658W        W 9858   6.562   2.853   1.362
 5659W        W 9859  10.444   3.299  10.624
 5660W        W 9860   3.703   8.291  11.300
 5661W        W 9861   4.130   6.571   0.767
 5662W        W 9862   4.744   0.315  10.350
 5663W        W 9863   9.904   0.108  11.163
 5664W        W 9864  10.981  11.236   9.940
 5665W        W 9865   0.800   5.069   3.226
 5666W        W 9866  10.071   1.367   2.444
 5667W        W 9867   8.884   4.180   0.270
 5668W        W 9868   0.775   9.912   3.298
 5669W        W 9869  10.858   9.660   2.675
 5670W        W 9870   3.433   3.147   0.881
 5671W        W 9871  11.020   6.990   3.572
 5672W        W 9872   1.284   2.333   2.826
 5673W        W 9873   2.217  10.807   1.337
 5674W        W 9874   7.103  10.297   2.439
 5675W        W 9875   3.420  11.071   9.929
 5676W        W 9876   2.205   3.337   9.646
 5677W        W 9877   3.488   3.984  10.626
 5678W        W 9878   1.883   5.546   9.353
 5679W        W 9879   8.676   5.189   2.860
 5680W        W 9880   5.545   7.372   9.814
 5681W        W 9881   4.314   7.541   0.791
 5682W        W 9882   0.945   2.683   2.658
 5683W        W 9883   0.194   6.826  10.515
 5684W        W 9884   5.447   4.128   4.006
 5685W        W 9885   8.210   8.095   8.939
 5686W        W 9886   8.899   5.458  10.230
 5687W        W 9887   7.478   2.364  10.498
 5688W        W 9888   7.709  11.238   9.783
 5689W        W 9889   0.191   5.232   8.993
 5690W        W 9890   1.893   7.001   1.466
 5691W        W 9891   0.989   5.291   2.143
 5692W        W 9892   7.669   0.614   1.693
 5693W        W 9893  11.404   5.689   9.935
 5694W        W 9894   2.627  11.243   9.511
 5695W        W 9895  10.869   7.161  10.002
 5696W        W 9896   3.737   4.778   2.257
 5697W        W 9897   4.674   9.907   0.550
 5698W        W 9898   7.876   1.544  11.926
 5699W        W 9899   0.737   0.433   8.646
 5700W        W 9900  11.303   0.046  11.282
 5701W        W 9901   0.449   7.992   0.620
 5702W        W 9902  10.233  11.351  10.318
 5703W        W 9903   1.438   4.236   0.231
 5704W        W 9904   4.933   1.294   3.263
 5705W        W 9905   7.678   8.982  10.904
 5706W        W 9906   6.880   8.854   8.543
 5707W        W 9907   3.672   5.492  10.869
 5708W        W 9908   4.927   4.339  10.506
 5709W        W 9909   0.384   8.777   0.335
 5710W        W 9910   6.951   4.585  10.352
 5711W        W 9911   8.232   9.590   8.805
 5712W        W 9912   5.028   2.896  10.623
 5713W        W 9913   9.768   4.569  10.622
 5714W        W 9914  11.153   8.471  10.418
 5715W        W 9915   4.456   7.979   1.881
 5716W        W 9916   6.428   1.313   1.255
 5717W        W 9917   1.423   9.062   1.212
 5718W        W 9918   9.923   6.473   3.584
 5719W        W 9919   1.319   7.143   2.339
 5720W        W 9920   8.082   4.169   1.074
 5721W        W 9921   4.805   5.242   1.864
 5722W        W 9922   0.395   3.463   9.423
 5723W        W 9923   6.906   1.658   2.101
 5724W        W 9924   4.430  10.256   0.926
 5725W        W 9925  10.033   8.085   9.816
 5726W        W 9926  10.298   3.974  11.979
 5727W        W 9927   8.379   6.165   1.690
 5728W        W 9928  11.290   3.409   0.862
 5729W        W 9929   4.465   6.311   1.155
 5730W        W 9930   0.018   8.552   0.652
 5731W        W 9931   8.816   1.165   3.387
 5732W        W 9932   3.870   7.109   1.478
 5733W        W 9933   9.023   4.333   0.737
 5734W        W 9934   7.755   1.467   1.657
 5735W        W 9935  11.351  10.123  11.622
 5736W        W 9936   4.171   5.062   2.321
 5737W        W 9937   8.926   7.582   1.674
 5738W        W 9938   3.182   7.703   9.425
 5739W        W 9939   2.290   4.796   0.947
 5740W        W 9940   1.421  11.442   8.819
 5741W        W 9941   1.439  11.327  11.552
 5742W        W 9942   7.132   2.923   8.822
 5743W        W 9943  11.180   9.278  11.004
 5744W        W 9944   0.436   3.766   3.231
 5745W        W 9945   1.039   8.485  10.331
 5746W        W 9946   8.836   5.985   8.375
 5747W        W 9947   6.330   0.799  10.675
 5748W        W 9948   5.518   3.711   8.150
 5749W        W 9949   9.546   8.642   3.229
 5750W        W 9950   5.906   3.384   1.864
 5751W        W 9951   2.271   8.433  10.293
 5752W        W 9952   5.740   9.106   3.574
 5753W        W 9953   3.612   1.889   9.513
 5754W        W 9954   1.340   4.778   2.186
 5755W        W 9955   6.052   8.346   2.705
 5756W        W 9956  10.369   6.610   3.358
 5757W        W 9957   0.292  10.565   9.174
 5758W        W 9958   9.567   5.553   1.128
 5759W        W 9959   8.520   1.001   2.080
 5760W        W 9960   2.907   7.854   1.311
 5761W        W 9961   0.080  10.577  11.746
 5762W        W 9962   5.190   0.968  11.434
 5763W        W 9963   9.089   7.608   2.665
 5764W        W 9964   2.268   0.855  10.844
 5765W        W 9965   6.291  10.510  10.776
 5766W        W 9966   3.488   3.767   3.551
 5767W        W 9967  10.574   9.989  10.992
 5768W        W 9968   6.166   1.741  11.024
 5769W        W 9969   8.104   7.677  11.184
 5770W        W 9970   2.277   8.902  11.046
 5771W        W 9971   8.909   6.050   0.801
 5772W        W 9972  10.192   4.250  10.579
 5773W        W 9973   3.285   9.087   9.085
 5774W        W 9974  10.504   9.032   8.881
 5775W        W 9975  10.051   9.015   2.170
 5776W        W 9976  10.340   5.356  10.638
 5777W        W 9977   1.689   3.797   2.884
 5778W        W 9978  11.283  10.271   0.630
 5779W        W 9979   1.923  11.454   1.811
 5780W        W 9980   4.521  10.915  11.459
 5781W        W 9981   2.757   2.063   9.031
 5782W        W 9982   6.185   9.048   2.314
 5783W        W 9983   8.974   0.427   2.752
 5784W        W 9984   9.558   6.442   9.590
 5785W        W 9985   1.372   3.821  10.953
 5786W        W 9986   7.429   7.609  11.705
 5787W        W 9987   0.997   3.685  10.426
 5788W        W 9988   4.892   7.210   0.562
 5789W        W 9989  10.483  10.758   2.461
 5790W        W 9990   3.316   3.755   9.770
 5791W        W 9991   1.813  11.414   3.589
 5792W        W 9992   7.188   7.488   1.083
 5793W        W 9993   3.130  10.796  11.310
 5794W        W 9994   0.329  10.061   1.389
 5795W        W 9995   8.615   1.992   1.435
 5796W        W 9996   5.169   1.935  10.945
 5797W        W 9997   4.709   6.061  10.778
 5798W        W 9998  10.066   7.595   1.370
 5799W        W 9999   2.318   9.782   2.559
 5800W        W10000  10.363   4.962   8.824
 5801W        W10001   4.642  10.581   1.781
 5802W        W10002   6.994   0.372   0.128
 5803W        W10003   0.593  11.335  11.722
 5804W        W10004   9.215   5.223  11.333
 5805W        W10005   8.018   5.666   8.688
 5806W        W10006   8.567  11.044   1.782
 5807W        W10007   2.514   4.768   2.840
 5808W        W10008   3.715   3.074   9.052
 5809W        W10009   3.547   9.335   3.707
 5810W        W10010   2.576   9.307   0.726
 5811W        W10011   2.671   4.300  10.271
 5812W        W10012   3.703   4.268   2.175
 5813W        W10013   8.471   9.586   0.171
 5814W        W10014   7.722   6.422   9.178
 5815W        W10015   1.902   1.000   0.736
 5816W        W10016   8.994  10.883   2.514
 5817W        W10017   2.834   5.555  10.762
 5818W        W10018  10.881  10.532   0.859
 5819W        W10019   5.651  10.133   9.842
 5820W        W10020   5.669   9.598   3.249
 5821W        W10021   6.579   1.244   2.327
 5822W        W10022   6.101   1.523   8.969
 5823W        W10023   0.864   4.868   8.512
 5824W        W10024   8.697   4.747   9.277
 5825W        W10025   6.218   1.603   3.022
 5826W        W10026   6.669   0.576  11.769
 5827W        W10027   4.694   1.298   0.780
 5828W        W10028   9.450   8.767  10.835
 5829W        W10029   2.687   9.168  11.240
 5830W        W10030   3.690   2.363   1.949
 5831W        W10031  11.490   8.936   2.397
 5832W        W10032   1.771   8.670   1.948
 5833W        W10033   8.942   8.457  11.036
 5834W        W10034   8.034   4.799   1.718
 5835W        W10035   7.094   6.501   1.176
 5836W        W10036   5.971   8.484   0.327
 5837W        W10037   9.891   1.861   2.495
 5838W        W10038   8.649   6.469   9.151
 5839W        W10039   6.234   3.643   3.130
 5840W        W10040   2.627   8.837   1.415
 5841W        W10041   3.678   9.921   1.360
 5842W        W10042   0.878   4.608  11.806
 5843W        W10043  11.417   3.654  11.473
 5844W        W10044  10.472   5.712  11.917
 5845W        W10045   7.493   4.068   9.820
 5846W        W10046   7.941   7.926   3.176
 5847W        W10047   1.451   9.892   9.280
 5848W        W10048  10.477   0.071   2.768
 5849W        W10049   2.250  10.658   0.853
 5850W        W10050   2.894   3.448  11.342
 5851W        W10051  11.421   1.074  11.287
 5852W        W10052   8.288   3.726   0.864
 5853W        W10053   5.340   9.797   1.191
 5854W        W10054   0.337   7.494   9.293
 5855W        W10055  10.409   4.212   1.778
 5856W        W10056   8.912   0.129   8.777
 5857W        W10057   0.364   8.362   1.464
 5858W        W10058  10.770   1.837   1.228
 5859W        W10059   1.159  10.333   2.338
 5860W        W10060  10.079   3.259  11.469
 5861W        W10061   6.408   7.812  10.892
 5862W        W10062   6.046   4.326   0.848
 5863W        W10063   6.644   1.283   0.443
 5864W        W10064   8.005   4.261  11.119
 5865W        W10065   8.747   5.798  10.574
 5866W        W10066   7.414   8.292  10.080
 5867W        W10067   8.925   8.074   9.894
 5868W        W10068   6.737  11.406   1.333
 5869W        W10069   1.628   6.160   9.525
 5870W        W10070   1.702   0.950  10.148
 5871W        W10071   1.740   2.460   3.484
 5872W        W10072   6.852   1.410   1.518
 5873W        W10073   5.237   2.158  11.841
 5874W        W10074  11.372   0.391  11.726
 5875W        W10075   2.058   9.068   2.019
 5876W        W10076   8.903   8.522   2.200
 5877W        W10077   3.909   7.045   3.256
 5878W        W10078  10.774   5.869   3.594
 5879W        W10079   2.486   7.075  10.513
 5880W        W10080  10.495   5.648   1.404
 5881W        W10081   3.187   5.625  11.532
 5882W        W10082   7.932   7.048   9.586
 5883W        W10083   6.679   0.326   3.032
 5884W        W10084   9.426   3.308   8.424
 5885W        W10085   4.727   7.032   9.014
 5886W        W10086   5.083   7.149  10.980
 5887W        W10087   8.332   4.818   2.161
 5888W        W10088  11.302   4.788   0.283
 5889W        W10089   2.367   8.590   2.729
 5890W        W10090   6.474   8.006   8.683
 5891W        W10091  11.050   2.869   1.877
 5892W        W10092   6.537   8.469   9.911
 5893W        W10093   5.557   3.275   9.805
 5894W        W10094  10.566   5.541  11.049
 5895W        W10095  10.282   0.283   1.357
 5896W        W10096   3.417  10.186   0.638
 5897W        W10097   4.922   1.154  10.507
 5898W        W10098   2.662  10.957  11.252
 5899W        W10099   7.527  10.169  11.925
 5900W        W10100   2.121   6.655   0.361
 5901W        W10101  10.432   1.043   9.692
 5902W        W10102   7.334   8.350   1.406
 5903W        W10103   2.586   8.819  10.348
 5904W        W10104   2.683   5.831   1.606
 5905W        W10105   7.565   9.565   2.808
 5906W        W10106   8.661   3.282   2.624
 5907W        W10107   6.454  11.388   2.844
 5908W        W10108   5.302   4.766   9.423
 5909W        W10109   1.687   9.736  10.105
 5910W        W10110   0.307   7.574   2.716
 5911W        W10111   2.823  10.395   1.411
 5912W        W10112  10.400   3.823   1.212
 5913W        W10113   6.227   8.159   9.101
 5914W        W10114   9.530   0.228   0.571
 5915W        W10115   6.063   7.060   1.689
 5916W        W10116   4.480  10.493  10.598
 5917W        W10117   0.368  11.026   8.963
 5918W        W10118  11.075   1.878   0.793
 5919W        W10119   3.384   9.788   0.960
 5920W        W10120   5.438   1.053  10.430
 5921W        W10121   6.552   9.526   1.645
 5922W        W10122   6.230   1.919   8.411
 5923W        W10123   0.280   8.485   8.793
 5924W        W10124   1.662   3.144  11.947
 5925W        W10125   9.045   8.522   3.236
 5926W        W10126   4.669   8.781   9.798
 5927W        W10127   9.281   2.847   8.989
 5928W        W10128   7.260  11.483   1.324
 5929W        W10129   6.311   8.804   0.021
 5930W        W10130   9.450   6.184   8.683
 5931W        W10131  10.003   4.568   1.787
 5932W        W10132   1.719   1.955   3.562
 5933W        W10133   0.994   2.238   3.643
 5934W        W10134  11.260   9.456  10.522
 5935W        W10135   2.590   1.103   8.789
 5936W        W10136  10.885   4.721   9.966
 5937W        W10137   2.127   6.810  10.770
 5938W        W10138   7.134   7.953  11.954
 5939W        W10139   1.441  10.870  10.748
 5940W        W10140   9.268   7.501  11.913
 5941W        W10141   4.278   8.472   1.851
 5942W        W10142  10.020   5.782   1.228
 5943W        W10143   4.460  10.660   2.269
 5944W        W10144  10.067   2.650  11.977
 5945W        W10145   2.816   8.596   1.825
 5946W        W10146  10.511   4.544  10.291
 5947W        W10147   7.403   9.865  10.986
 5948W        W10148   4.124  11.069   2.221
 5949W        W10149   8.250   8.573   0.795
 5950W        W10150   8.966   6.776   0.507
 5951W        W10151   6.709   1.862   9.813
 5952W        W10152   1.611   0.673   0.427
 5953W        W10153   9.148   6.716   2.659
 5954W        W10154   9.000   7.394   0.808
 5955W        W10155   7.109   5.569   9.971
 5956W        W10156   2.637   9.905   1.361
 5957W        W10157  11.321   0.667   0.155
 5958W        W10158   7.124   2.526   0.267
 5959W        W10159   5.302   5.254   1.483
 5960W        W10160   5.216   0.221  10.173
 5961W        W10161  11.001   8.896   2.288
 5962W        W10162   0.694   9.252   8.862
 5963W        W10163   7.502   1.825   2.474
 5964W        W10164  10.969   5.985   8.965
 5965W        W10165   2.669  11.358   2.995
 5966W        W10166   0.693   4.105  11.540
 5967W        W10167   8.889   5.590  11.030
 5968W        W10168  11.183   7.210  11.480
 5969W        W10169   5.794   6.989  10.062
 5970W        W10170   9.204   2.325   3.483
 5971W        W10171   1.740  11.316   2.271
 5972W        W10172   6.932   2.228  10.089
 5973W        W10173  10.436   7.567   8.863
 5974W        W10174   0.888   0.237   1.652
 5975W        W10175   8.604   8.979  11.486
 5976W        W10176   1.432   9.786   2.017
 5977W        W10177   4.273   4.335   2.811
 5978W        W10178  10.069   5.069   1.942
 5979W        W10179  10.376  11.058  11.590
 5980W        W10180  10.617   3.164   2.876
 5981W        W10181  10.964   7.669  10.793
 5982W        W10182   7.028   7.120  11.050
 5983W        W10183   9.364   9.534  11.685
 5984W        W10184  10.606   8.020   0.891
 5985W        W10185   5.056   5.235  10.958
 5986W        W10186   1.579   1.948   2.627
 5987W        W10187   1.457   4.507   1.090
 5988W        W10188   9.242   7.066  11.504
 5989W        W10189   0.184   9.459   2.613
 5990W        W10190   1.071   6.678   0.318
 5991W        W10191  11.420   1.506  11.578
 5992W        W10192   6.243   8.950   9.361
 5993W        W10193   3.682  10.811   2.249
 5994W        W10194   6.162   5.711  11.752
 5995W        W10195   5.569   1.835   2.689
 5996W        W10196   2.507   8.957   9.474
 5997W        W10197  10.025  10.963   0.432
 5998W        W10198   9.990   8.553   3.469
 5999W        W10199   7.106   6.994   3.455
 6000W        W10200   4.219  10.022  10.296
 6001W        W10201   3.327  10.339  11.287
 6002W        W10202   3.010   6.238   1.591
 6003W        W10203   2.721   0.384   3.004
 6004W        W10204   6.153  11.028  11.914
 6005W        W10205   7.991   6.104   2.009
 6006W        W10206   4.562   4.334  11.361
 6007W        W10207   5.036   0.173   0.753
 6008W        W10208   4.067   9.680  11.067
 6009W        W10209   9.967   8.557   2.948
 6010W        W10210   5.127   3.597   3.194
 6011W        W10211  10.424   1.925  10.004
 6012W        W10212   2.709   5.515   3.573
 6013W        W10213   7.672   9.858  10.509
 6014W        W10214   8.267   5.564   1.205
 6015W        W10215   3.882   0.755  11.764
 6016W        W10216   1.040   7.006   3.620
 6017W        W10217   2.168   8.109   3.376
 6018W        W10218   0.606   8.018   3.695
 6019W        W10219   7.933   1.422   9.736
 6020W        W10220   1.373   2.517   8.772
 6021W        W10221   8.250   8.062  10.558
 6022W        W10222  10.839   0.992   2.229
 6023W        W10223   0.500   1.903   1.001
 6024W        W10224   9.366   9.612   9.426
 6025W        W10225   7.932   5.180   2.261
 6026W        W10226   8.801   4.602   2.270
 6027W        W10227   5.133   3.708   0.208
 6028W        W10228   9.292   7.132   2.354
 6029W        W10229   8.346   0.460   9.433
 6030W        W10230   7.908  11.250   0.756
 6031W        W10231   1.017   7.326  10.919
 6032W        W10232   9.157   5.143   9.909
 6033W        W10233   6.514  10.272   0.325
 6034W        W10234   6.991   3.591   2.668
 6035W        W10235   6.199  11.428   1.896
 6036W        W10236   6.100   9.488   3.531
 6037W        W10237   1.474   8.893   3.606
 6038W        W10238   5.551   9.497   0.779
 6039W        W10239  11.022   3.237   9.114
 6040W        W10240   0.716   6.506   3.495
 6041W        W10241  11.491   5.359  11.228
 6042W        W10242   2.731   4.034   2.482
 6043W        W10243   9.771   3.084   0.028
 6044W        W10244   7.100   4.460  10.854
 6045W        W10245   3.798   6.961   0.631
 6046W        W10246   7.423   6.696   2.232
 6047W        W10247  11.034  10.955   9.530
 6048W        W10248   6.980   8.667  11.572
 6049W        W10249   4.632   7.220   1.035
 6050W        W10250   1.750   0.350   2.158
 6051W        W10251   5.505   4.550   9.843
 6052W        W10252  10.389   3.058  11.092
 6053W        W10253  10.187   7.048   1.409
 6054W        W10254   2.435   8.616   9.856
 6055W        W10255   8.438   0.293  11.002
 6056W        W10256  10.900   5.399   3.459
 6057W        W10257  10.594   1.414   2.410
 6058W        W10258   9.588   8.251   0.910
 6059W        W10259   3.624   9.492  11.296
 6060W        W10260   6.581   0.335  10.557
 6061W        W10261   3.672   5.780   9.971
 6062W        W10262   6.979   1.748  11.763
 6063W        W10263   9.853   8.141  10.326
 6064W        W10264  10.360   3.985   2.581
 6065W        W10265   8.242   2.178   2.770
 6066W        W10266  10.212   2.172  11.386
 6067W        W10267   2.463  10.386   3.190
 6068W        W10268   3.812   9.800  10.095
 6069W        W10269   8.640   0.951   8.599
 6070W        W10270   2.591   4.862   1.784
 6071W        W10271   6.044   3.235   2.853
 6072W        W10272   2.683   3.388   9.443
 6073W        W10273  10.012   7.677  10.622
 6074W        W10274   6.896   5.875  10.909
 6075W        W10275   5.930  10.797   2.245
 6076W        W10276   4.496   7.666   1.281
 6077W        W10277   9.623  11.080   1.427
 6078W        W10278   5.917   5.023   2.237
 6079W        W10279   9.952   2.265   9.289
 6080W        W10280   4.551   4.448   4.055
 6081W        W10281   9.080   8.228   0.976
 6082W        W10282   6.075   8.494  10.780
 6083W        W10283  10.166  10.367   2.145
 6084W        W10284   6.272   8.481   8.693
 6085W        W10285   7.704   3.497   1.197
 6086W        W10286   1.832   1.746   2.210
 6087W        W10287   3.133  11.343   9.593
 6088W        W10288   8.959   0.675  11.750
 6089W        W10289   0.778   9.269   9.841
 6090W        W10290   9.352   4.746   0.815
 6091W        W10291   2.203   5.735   1.459
 6092W        W10292   0.780   4.312   9.099
 6093W        W10293   8.906   3.915   9.023
 6094W        W10294   0.288   9.780   0.424
 6095W        W10295   1.862   7.778   8.646
 6096W        W10296   4.872   8.932   1.049
 6097W        W10297  10.862   5.038   9.555
 6098W        W10298   7.379   9.650   9.306
 6099W        W10299   4.271   9.464   2.527
 6100W        W10300  11.084   4.305   1.011
 6101W        W10301   0.885   4.168   2.171
 6102W        W10302   5.804   6.151  10.220
 6103W        W10303   3.457   9.533   9.861
 6104W        W10304   9.932   1.707   1.535
 6105W        W10305   9.501   5.371   0.153
 6106W        W10306   2.838   5.728   0.711
 6107W        W10307   6.986   4.739  11.654
 6108W        W10308   8.766   8.579   1.720
 6109W        W10309   3.896   9.837   0.899
 6110W        W10310   9.561   3.761  11.358
 6111W        W10311   3.680   0.239  10.533
 6112W        W10312   4.617   6.995  11.086
 6113W        W10313   7.835   0.857  11.247
 6114W        W10314   8.478  11.291  10.038
 6115W        W10315   2.758  10.665   0.170
 6116W        W10316   8.962   2.833  10.602
 6117W        W10317   4.492  10.958   3.436
 6118W        W10318  10.375  10.611  11.279
 6119W        W10319   3.734   8.097   0.308
 6120W        W10320   2.814   8.212  11.509
 6121W        W10321   4.721   3.302  10.551
 6122W        W10322   1.169   8.972   9.742
 6123W        W10323  10.124   1.450  11.346
 6124W        W10324   6.242   1.382   9.477
 6125W        W10325   0.496   7.846  10.402
 6126W        W10326   3.101   8.938   0.488
 6127W        W10327   3.321   0.418   0.498
 6128W        W10328   5.185   8.157   9.429
 6129W        W10329  11.221   2.779   9.334
 6130W        W10330   9.320  10.507   2.329
 6131W        W10331   9.012  10.487   3.314
 6132W        W10332   0.341   8.850  11.377
 6133W        W10333   2.180   2.405   9.533
 6134W        W10334   8.049   0.350   1.491
 6135W        W10335   9.693  11.470   9.440
 6136W        W10336   1.688   4.805  11.552
 6137W        W10337   1.899  10.532   1.815
 6138W        W10338   8.144   8.905   0.378
 6139W        W10339   6.308   6.661   1.866
 6140W        W10340   4.200   4.627  11.763
 6141W        W10341   7.101   8.954   0.571
 6142W        W10342   4.179   2.741   3.627
 6143W        W10343   2.969   3.735   3.646
 6144W        W10344   3.729   8.846   9.238
 6145W        W10345   6.438   0.460   0.211
 6146W        W10346   6.172  11.243   2.356
 6147W        W10347   5.140   6.569   0.695
 6148W        W10348   5.175  11.108   2.730
 6149W        W10349   2.736   0.199  10.434
 6150W        W10350   7.700  10.788   2.132
 6151W        W10351   8.144  11.048   1.425
 6152W        W10352   5.444   8.039  10.760
 6153W        W10353  10.297   1.293   0.692
 6154W        W10354   5.562   8.589   3.775
 6155W        W10355   9.517   2.524   0.608
 6156W        W10356   5.195   4.471   2.830
 6157W        W10357   0.945   3.145   3.599
 6158W        W10358   2.392  11.145   0.960
 6159W        W10359   3.642   6.910  10.660
 6160W        W10360   6.599   5.618  10.114
 6161W        W10361   6.438   2.388  11.457
 6162W        W10362   1.983   8.493  10.896
 6163W        W10363   1.186   9.445   9.507
 6164W        W10364   6.306   7.190   0.429
 6165W        W10365   8.829   1.671   0.176
 6166W        W10366   9.774   2.827   2.343
 6167W        W10367   4.026   4.627   1.385
 6168W        W10368   5.457  10.086   2.959
 6169W        W10369   6.308  10.296   8.985
 6170W        W10370   7.071  10.931   9.087
 6171W        W10371   5.693   2.817   2.877
 6172W        W10372   1.162   1.668  11.761
 6173W        W10373   0.003   9.095  11.950
 6174W        W10374   7.877   5.466  11.880
 6175W        W10375   5.576   7.106  11.131
 6176W        W10376   4.297   2.048   8.791
 6177W        W10377   6.187   6.483   1.418
 6178W        W10378   3.398   9.726   2.700
 6179W        W10379   0.720   1.153   0.199
 6180W        W10380   0.280  10.065   9.036
 6181W        W10381   7.128   9.991   9.605
 6182W        W10382  10.918   6.245   2.502
 6183W        W10383   6.638  10.344   2.204
 6184W        W10384  10.879   3.442   9.637
 6185W        W10385   7.940   1.307  10.249
 6186W        W10386   9.820   4.249   9.798
 6187W        W10387   7.306   0.736   2.328
 6188W        W10388   0.883   7.968   2.494
 6189W        W10389  10.384   9.894   9.979
 6190W        W10390   3.732   6.476   0.357
 6191W        W10391   5.380   5.498   2.742
 6192W        W10392   1.852   4.102   1.316
 6193W        W10393   9.123  10.734   8.953
 6194W        W10394  10.026   1.819   9.032
 6195W        W10395  10.273   0.742   3.306
 6196W        W10396   1.336   6.593  11.345
 6197W        W10397   6.516   1.762   9.272
 6198W        W10398   9.309   0.473   8.764
 6199W        W10399   6.619  10.530   9.699
 6200W        W10400   1.806   8.559  10.418
 6201W        W10401   6.565   4.201   0.240
 6202W        W10402   0.644   4.522   3.378
 6203W        W10403   9.314   4.148  11.988
 6204W        W10404   6.685   9.453   1.161
 6205W        W10405   9.934  10.582   1.745
 6206W        W10406   2.103   7.570   0.249
 6207W        W10407   8.876   1.016   2.895
 6208W        W10408   8.522  10.397   3.146
 6209W        W10409   6.974  11.446  11.869
 6210W        W10410   3.427   9.931   1.800
 6211W        W10411   6.205   8.588   0.840
 6212W        W10412  11.206   7.913  10.361
 6213W        W10413  11.228   0.873   3.042
 6214W        W10414   7.741   0.759  10.032
 6215W        W10415   8.131   5.424   0.736
 6216W        W10416   9.068   5.690   1.117
 6217W        W10417   6.139   7.555   3.577
 6218W        W10418   8.827   1.476   0.872
 6219W        W10419   5.974  11.348  10.382
 6220W        W10420   5.963   8.077   8.641
 6221W        W10421   8.466   7.402   2.305
 6222W        W10422   4.583   0.070  11.998
 6223W        W10423  10.012   3.305   2.259
 6224W        W10424   8.717   8.409   9.576
 6225W        W10425  11.359   3.219   2.145
 6226W        W10426   0.690   1.654   0.013
 6227W        W10427   4.886   2.291   0.620
 6228W        W10428   9.228   8.343   3.704
 6229W        W10429  10.280   2.672  11.443
 6230W        W10430  10.585   8.094   9.176
 6231W        W10431   8.579   8.736   3.314
 6232W        W10432   0.937  10.299  11.852
 6233W        W10433   8.219   5.974  10.472
 6234W        W10434   2.256   9.945   3.617
 6235W        W10435   3.621   7.251   0.069
 6236W        W10436   4.748   9.921  11.444
 6237W        W10437   0.374  10.295  10.495
 6238W        W10438   9.294   0.575  10.937
 6239W        W10439   5.074   1.903   2.760
 6240W        W10440   2.011  10.220   0.741
 6241W        W10441   1.015   6.060  10.790
 6242W        W10442   4.888   7.545   3.064
 6243W        W10443   5.451   0.482   3.228
 6244W        W10444   7.946   0.490  10.886
 6245W        W10445   4.553   3.207   1.684
 6246W        W10446   2.269   6.758   1.812
 6247W        W10447   9.327   1.448   0.013
 6248W        W10448   3.766   0.386   1.858
 6249W        W10449   7.486   3.557  10.016
 6250W        W10450   4.506   7.525  11.829
 6251W        W10451   4.601   3.889  10.040
 6252W        W10452   5.743   5.690   9.546
 6253W        W10453   8.894  10.289  11.534
 6254W        W10454   5.476   1.370  11.511
 6255W        W10455   5.186   0.467   9.734
 6256W        W10456  11.461   6.907   2.662
 6257W        W10457   1.911   8.116  11.302
 6258W        W10458   5.975   5.332   0.744
 6259W        W10459  10.816   7.284  10.497
 6260W        W10460   5.684   8.060   1.549
 6261W        W10461   0.882  11.018   2.757
 6262W        W10462   0.801   6.386  11.993
 6263W        W10463   1.347  11.255   2.634
 6264W        W10464   7.270   6.906   1.432
 6265W        W10465   4.764   9.319  11.209
 6266W        W10466   8.900   9.012   2.040
 6267W        W10467   8.576   4.555   0.451
 6268W        W10468   8.904   4.241   1.677
 6269W        W10469   7.851   3.527   3.646
 6270W        W10470   5.620   8.030   0.992
 6271W        W10471   0.862   9.685  11.039
 6272W        W10472   9.907  11.483   2.149
 6273W        W10473   1.783   0.320   3.178
 6274W        W10474   9.064   6.231  11.154
 6275W        W10475   9.848  10.439  10.597
 6276W        W10476   7.831   5.617   2.577
 6277W        W10477  11.325   6.520   2.309
 6278W        W10478   0.151   2.173  10.321
 6279W        W10479   3.541   4.260  11.496
 6280W        W10480  10.498   0.380  10.441
 6281W        W10481   9.666   0.726   1.674
 6282W        W10482   3.976   3.654   1.197
 6283W        W10483   2.608   6.187   0.752
 6284W        W10484  11.080   4.701  11.813
 6285W        W10485   1.635   4.800   0.539
 6286W        W10486   4.154  10.546  11.019
 6287W        W10487   1.611   1.855   8.528
 6288W        W10488   3.685   8.355   9.432
 6289W        W10489   1.439  10.737   2.456
 6290W        W10490   4.296  10.345   9.599
 6291W        W10491   7.291   3.689   3.148
 6292W        W10492   1.186   4.550   0.641
 6293W        W10493   7.591  10.343  11.442
 6294W        W10494   9.004   9.822   9.125
 6295W        W10495   3.312   2.107   0.864
 6296W        W10496   4.224   2.016   2.200
 6297W        W10497   3.375   1.804  10.795
 6298W        W10498   1.352   8.015   2.299
 6299W        W10499   3.095   4.269   9.134
 6300W        W10500   7.140   3.045   1.919
 6301W        W10501   2.641   9.013   2.853
 6302W        W10502   7.666   3.645   9.517
 6303W        W10503  10.950  11.030   3.137
 6304W        W10504   7.719   0.394  10.415
 6305W        W10505   2.329   4.367   2.599
 6306W        W10506   8.378   2.913   9.499
 6307W        W10507   3.390   4.463   8.492
 6308W        W10508   9.166   6.901   3.885
 6309W        W10509   6.702   2.834  10.066
 6310W        W10510   7.851   1.012   8.891
 6311W        W10511   3.865   6.489  10.449
 6312W        W10512   5.700   1.862   1.118
 6313W        W10513   9.581   1.883   9.323
 6314W        W10514   8.948  11.219   9.100
 6315W        W10515   1.451   0.726   2.967
 6316W        W10516   2.667   8.720  11.536
 6317W        W10517   6.826  10.065   3.075
 6318W        W10518   6.920   1.947   8.997
 6319W        W10519   3.631   9.379  10.338
 6320W        W10520   9.498   0.526   3.403
 6321W        W10521   5.041   4.621   8.196
 6322W        W10522   9.999   2.339   0.382
 6323W        W10523   2.143   4.604   1.869
 6324W        W10524   6.754   8.372   8.470
 6325W        W10525  10.665   6.093  10.274
 6326W        W10526   7.484   1.254  10.023
 6327W        W10527   4.113   1.899   9.616
 6328W        W10528   5.946   9.123   8.989
 6329W        W10529   1.386   3.576   9.022
 6330W        W10530   9.582   6.150  11.054
 6331W        W10531   1.070   4.516   2.565
 6332W        W10532   1.731   3.926   8.909
 6333W        W10533   1.937   2.097   1.388
 6334W        W10534   3.748   3.141  10.797
 6335W        W10535   5.660   1.006   0.839
 6336W        W10536   9.416   0.826  11.366
 6337W        W10537   5.499   7.039   1.350
 6338W        W10538   3.617   9.532  11.864
 6339W        W10539  10.408   7.125   3.236
 6340W        W10540   0.165   2.391   3.274
 6341W        W10541  10.375   4.051   3.119
 6342W        W10542   9.414   3.163   3.237
 6343W        W10543   0.930   4.035   2.656
 6344W        W10544   8.188   3.855   2.943
 6345W        W10545   7.912   7.988   0.125
 6346W        W10546   0.755   4.692   0.920
 6347W        W10547   8.173   2.371   9.336
 6348W        W10548   5.607   4.729   1.981
 6349W        W10549   3.930   8.938   0.966
 6350W        W10550   8.870   6.039   1.847
 6351W        W10551   6.703   0.899   9.810
 6352W        W10552   8.806   3.449  11.986
 6353W        W10553   6.554   2.594   0.919
 6354W        W10554   6.935   6.009   1.825
 6355W        W10555   9.555   8.628   9.418
 6356W        W10556   1.322  10.750   0.435
 6357W        W10557   3.715   8.395  10.800
 6358W        W10558   0.808   1.747   9.959
 6359W        W10559   1.804   9.343   0.316
 6360W        W10560   2.347   5.224   9.997
 6361W        W10561   9.310   1.703   0.857
 6362W        W10562   9.861   0.173   2.755
 6363W        W10563   9.432  11.048   9.266
 6364W        W10564   2.011   2.741   3.152
 6365W        W10565   9.292   1.078   1.706
 6366W        W10566  10.417   5.943   9.029
 6367W        W10567   3.087   1.111   9.702
 6368W        W10568   8.458   7.526   0.416
 6369W        W10569   5.565  10.165   3.487
 6370W        W10570   9.105   1.912   3.180
 6371W        W10571   9.485   3.315   9.895
 6372W        W10572   9.327   5.745  11.276
 6373W        W10573   0.526   6.999   3.502
 6374W        W10574  10.249   3.217   3.343
 6375W        W10575   3.644   3.127   9.898
 6376W        W10576   1.393   8.101   9.247
 6377W        W10577   0.456   9.769   2.921
 6378W        W10578   1.252   0.339   3.237
 6379W        W10579   6.599   7.096   2.717
 6380W        W10580   7.352   3.570  11.880
 6381W        W10581   7.639  11.045   0.325
 6382W        W10582   4.820   8.957   2.000
 6383W        W10583   4.220   4.362   3.652
 6384W        W10584   5.469   8.475   0.246
 6385W        W10585   1.765   2.219   9.810
 6386W        W10586   8.612   5.899   2.285
 6387W        W10587   1.202   9.926  10.251
 6388W        W10588   3.039   7.398   1.167
 6389W        W10589   9.822   2.845   1.389
 6390W        W10590   6.066   0.393   1.222
 6391W        W10591   4.356  11.311   1.359
 6392W        W10592   5.952   6.262   1.851
 6393W        W10593   0.795  10.502  11.411
 6394W        W10594   7.138   2.753   1.117
 6395W        W10595   5.337   4.167   8.309
 6396W        W10596   1.387  10.971   9.019
 6397W        W10597   4.614   9.188   8.898
 6398W        W10598   1.149  10.008   0.236
 6399W        W10599   4.929   3.361   0.913
 6400W        W10600  11.158   1.630   3.493
 6401W        W10601   4.903   2.828   9.507
 6402W        W10602  10.138   7.933   9.331
 6403W        W10603   5.211  10.108  11.361
 6404W        W10604   2.751   3.859  10.496
 6405W        W10605   7.189   3.014   2.435
 6406W        W10606   2.847   6.030   0.295
 6407W        W10607   9.430   5.680   8.891
 6408W        W10608   8.482   4.096   8.756
 6409W        W10609  11.008   2.298   0.490
 6410W        W10610   5.237   2.396   9.457
 6411W        W10611   2.143   8.999  10.041
 6412W        W10612   4.012  10.427   2.409
 6413W        W10613   0.432   6.943   0.223
 6414W        W10614   9.579   5.038   1.216
 6415W        W10615   3.323  10.419   1.626
 6416W        W10616   3.382   6.654   0.688
 6417W        W10617   3.278   1.586   0.675
 6418W        W10618   4.615   8.428  11.255
 6419W        W10619   7.946   2.813   9.236
 6420W        W10620  10.383   1.799   3.186
 6421W        W10621   3.687   1.293   0.811
 6422W        W10622   1.662   9.104   9.849
 6423W        W10623   4.595   5.242  10.183
 6424W        W10624   5.141   0.428  11.269
 6425W        W10625   8.155  10.761   1.881
 6426W        W10626   2.397   9.366  10.796
 6427W        W10627  10.431   3.983  11.410
 6428W        W10628   6.143   2.839   9.394
 6429W        W10629   1.349   7.578   0.664
 6430W        W10630   4.036   2.900   8.635
 6431W        W10631  10.112   3.827   0.459
 6432W        W10632  11.336   1.391  10.293
 6433W        W10633   8.014   6.993   0.197
 6434W        W10634   1.130   9.483  11.444
 6435W        W10635  11.330   9.853   2.466
 6436W        W10636   9.559  11.125  10.722
 6437W        W10637   4.180   8.153  11.435
 6438W        W10638   9.409   6.890   1.160
 6439W        W10639   4.733   5.745   1.817
 6440W        W10640   3.145  10.963  10.349
 6441W        W10641   7.179   2.914   0.626
 6442W        W10642   6.673   0.028   9.635
 6443W        W10643   7.143  10.477   0.942
 6444W        W10644   9.596   1.246   2.164
 6445W        W10645   3.834  11.244   0.435
 6446W        W10646   6.793   8.049   4.031
 6447W        W10647   1.241   9.386   1.752
 6448W        W10648   4.191   6.627   3.128
 6449W        W10649   9.526   8.725  11.330
 6450W        W10650   1.202   5.922   0.836
 6451W        W10651   0.006   0.511   2.163
 6452W        W10652   2.918   8.034   1.815
 6453W        W10653   4.749   4.439   8.612
 6454W        W10654  10.448   3.752  10.349
 6455W        W10655   6.072   4.575   8.894
 6456W        W10656   3.394  11.494   8.679
 6457W        W10657   0.926   5.090  10.817
 6458W        W10658   0.206  10.555  10.095
 6459W        W10659   9.146  10.824  10.714
 6460W        W10660   7.592   6.071   1.037
 6461W        W10661   9.514   9.111   3.455
 6462W        W10662   7.697   2.142  11.316
 6463W        W10663   0.471   9.112  11.809
 6464W        W10664  10.364   5.458  10.143
 6465W        W10665   8.905   3.292   2.139
 6466W        W10666   0.340   8.987   2.761
 6467W        W10667   9.172   3.303  10.707
 6468W        W10668   4.811   8.510   9.380
 6469W        W10669  11.250   4.773   2.923
 6470W        W10670   7.189  11.234   2.347
 6471W        W10671   6.108   4.040   0.401
 6472W        W10672   1.865   3.749   9.804
 6473W        W10673  11.173   8.632   2.716
 6474W        W10674   1.534   8.279  11.637
 6475W        W10675   8.005  11.474   8.879
 6476W        W10676   0.697   5.284   8.789
 6477W        W10677   3.796   9.287  10.858
 6478W        W10678   2.767   6.977   9.250
 6479W        W10679   8.059   5.963  11.907
 6480W        W10680   3.899   2.363  10.295
 6481W        W10681   8.413   1.292   9.986
 6482W        W10682   0.463  11.049   2.180
 6483W        W10683   0.891   2.358  11.204
 6484W        W10684   9.635   6.111   3.366
 6485W        W10685   2.700   5.189   3.051
 6486W        W10686   1.753   8.899   0.838
 6487W        W10687   7.007  10.711  11.261
 6488W        W10688  11.077   7.242   2.608
 6489W        W10689   9.851   5.463  10.396
 6490W        W10690   1.262   3.238   3.207
 6491W        W10691   7.546   2.826   0.256
 6492W        W10692   4.387   0.503  11.100
 6493W        W10693   0.907   9.992   2.711
 6494W        W10694  10.338   0.891   1.003
 6495W        W10695   5.586   6.925   9.541
 6496W        W10696   0.215   6.614   3.661
 6497W        W10697   6.408   8.121   2.424
 6498W        W10698   5.613   3.670   2.797
 6499W        W10699   5.273   3.129  10.208
 6500W        W10700   1.334   5.833   1.320
 6501W        W10701   8.422   7.935   9.509
 6502W        W10702   5.708   0.884   8.620
 6503W        W10703   7.446   0.016  10.702
 6504W        W10704   9.020   2.016  11.865
 6505W        W10705   8.839   9.927   1.567
 6506W        W10706   4.178   8.239  10.936
 6507W        W10707  10.036   8.627  10.201
 6508W        W10708   6.413   0.456   9.723
 6509W        W10709   5.153  11.118   2.222
 6510W        W10710   2.865   6.977   0.349
 6511W        W10711   1.809   1.764   9.524
 6512W        W10712   7.883   0.184   9.333
 6513W        W10713   9.315   1.717  10.886
 6514W        W10714   4.008  11.302   1.747
 6515W        W10715   0.470   0.594   0.963
 6516W        W10716  11.391   9.510   0.262
 6517W        W10717   2.227  11.002  11.880
 6518W        W10718  10.428   0.836  10.171
 6519W        W10719   8.793   9.483   8.791
 6520W        W10720   0.039   8.116   9.537
 6521W        W10721   9.582   1.648   0.423
 6522W        W10722   5.239   4.276   0.387
 6523W        W10723   0.647   5.003   0.043
 6524W        W10724   3.476   7.801  10.342
 6525W        W10725  10.090   6.980  11.749
 6526W        W10726   4.075  11.420  11.989
 6527W        W10727   4.174   0.349   1.022
 6528W        W10728   1.768   8.104  10.145
 6529W        W10729   7.545   8.821   3.369
 6530W        W10730  10.441   9.874   2.424
 6531W        W10731   6.095   7.153   2.190
 6532W        W10732  10.342   4.698   0.953
 6533W        W10733  10.488   5.145   1.202
 6534W        W10734   7.827   9.926   3.075
 6535W        W10735  11.470   7.126   1.732
 6536W        W10736   6.148  10.325   9.873
 6537W        W10737   7.649   0.242   3.204
 6538W        W10738   2.882   6.627   0.758
 6539W        W10739   2.735  10.406  11.200
 6540W        W10740   4.214   3.585   3.297
 6541W        W10741  10.484   8.451   1.673
 6542W        W10742   0.212   0.836   9.227
 6543W        W10743   5.570   8.807  11.444
 6544W        W10744   5.982   8.304   9.934
 6545W        W10745   7.363   2.098   0.424
 6546W        W10746   3.128   1.799   3.011
 6547W        W10747   1.415   5.319   1.805
 6548W        W10748   5.949   8.592   9.081
 6549W        W10749   0.314   1.821   0.535
 6550W        W10750   0.324   4.713   2.056
 6551W        W10751   1.771   9.894   3.375
 6552W        W10752   1.246   6.671   2.155
 6553W        W10753   0.539   4.411   2.464
 6554W        W10754   5.750   0.800   1.301
 6555W        W10755   1.591   6.130   2.908
 6556W        W10756   0.424   8.089   2.690
 6557W        W10757   9.034   7.217   1.340
 6558W        W10758   1.707  10.873   3.276
 6559W        W10759   9.800   5.620   8.515
 6560W        W10760   0.597   7.623   2.266
 6561W        W10761   6.231   7.931   3.223
 6562W        W10762   4.400   5.384   0.254
 6563W        W10763   4.917   5.208   0.013
 6564W        W10764   6.578   0.365   9.227
 6565W        W10765   0.877   6.835  10.847
 6566W        W10766   6.530   9.112   1.935
 6567W        W10767   2.700   2.036   9.971
 6568W        W10768   5.021   8.412   9.854
 6569W        W10769   9.292   3.296   0.016
 6570W        W10770   8.346   8.063   3.499
 6571W        W10771   1.240   6.807   1.108
 6572W        W10772   8.921   2.135  11.379
 6573W        W10773   8.567   4.048   1.237
 6574W        W10774  10.146   5.924  10.331
 6575W        W10775   1.707   1.015   2.614
 6576W        W10776   4.206   4.344  10.916
 6577W        W10777   5.998  11.437   0.913
 6578W        W10778   1.048   6.225  11.559
 6579W        W10779   8.950   6.631  11.503
 6580W        W10780   5.472   6.198   0.825
 6581W        W10781   0.830   0.500  11.347
 6582W        W10782   2.680   0.263   1.491
 6583W        W10783   6.877   2.522   9.037
 6584W        W10784   7.823   9.357   2.033
 6585W        W10785   9.509   7.889   2.750
 6586W        W10786   5.605   5.676   1.490
 6587W        W10787   4.173   8.302   0.466
 6588W        W10788   7.708   6.922   1.004
 6589W        W10789   1.239   1.779   3.632
 6590W        W10790   6.156   6.214  10.588
 6591W        W10791   9.461   1.920   1.356
 6592W        W10792   2.313   3.129   0.874
 6593W        W10793   2.219   9.129   1.544
 6594W        W10794   7.111   3.802   0.295
 6595W        W10795   4.030   4.269   9.126
 6596W        W10796   2.803   0.671  11.859
 6597W        W10797   4.166  10.396   2.933
 6598W        W10798   9.528   4.887  10.996
 6599W        W10799   8.983   9.464  10.938
 6600W        W10800  11.265   1.835   8.558
 6601W        W10801   8.029  11.479  10.859
 6602W        W10802   8.638   1.805  10.382
 6603W        W10803   4.773   8.497   1.756
 6604W        W10804   8.630   0.218   9.786
 6605W        W10805   4.078   5.124   9.039
 6606W        W10806   3.194   7.206   9.429
 6607W        W10807   3.708   7.272  11.569
 6608W        W10808   5.547   7.133   0.822
 6609W        W10809   4.928   1.402   1.235
 6610W        W10810   9.651   7.033   3.708
 6611W        W10811   0.935   0.052   3.531
 6612W        W10812   3.789   9.582   9.434
 6613W        W10813  11.317   0.189   1.180
 6614W        W10814   0.932   8.777  10.824
 6615W        W10815   1.466  10.389   9.487
 6616W        W10816   6.168  10.402   2.515
 6617W        W10817   9.440  11.034   0.044
 6618W        W10818   0.373   2.156   9.299
 6619W        W10819   7.378   3.353   0.401
 6620W        W10820   2.420   4.578   8.814
 6621W        W10821   9.935   7.256   0.983
 6622W        W10822   0.488   3.848   9.091
 6623W        W10823   9.546   3.818   9.843
 6624W        W10824   8.604   1.289   0.438
 6625W        W10825   0.297   9.042   9.845
 6626W        W10826   7.998  10.317  11.797
 6627W        W10827   6.258   7.890  10.003
 6628W        W10828   2.821   0.937   0.773
 6629W        W10829   2.907   4.436   1.827
 6630W        W10830   6.086  10.055  10.725
 6631W        W10831  10.451   1.680   1.639
 6632W        W10832   0.404  11.230   2.764
 6633W        W10833   2.115   6.462   2.196
 6634W        W10834   5.405   4.089   3.097
 6635W        W10835   3.109   0.821   0.269
 6636W        W10836   7.631  10.647   3.494
 6637W        W10837   4.550   7.113   0.141
 6638W        W10838  10.832   6.611   1.693
 6639W        W10839   2.451  10.730   8.709
 6640W        W10840   7.017   6.915   1.927
 6641W        W10841   0.294   1.933   2.362
 6642W        W10842   2.666   7.044   1.007
 6643W        W10843   1.565   6.205   8.700
 6644W        W10844   6.063   9.265  10.125
 6645W        W10845   6.124   0.811   0.932
 6646W        W10846   6.153  10.206   0.699
 6647W        W10847   3.651   7.894  10.922
 6648W        W10848   7.435   4.646  11.907
 6649W        W10849   9.790   0.561  10.933
 6650W        W10850   7.156   7.906   0.584
 6651W        W10851   1.439   3.052   8.867
 6652W        W10852  10.819   9.041   1.837
 6653W        W10853   8.583   8.882  10.952
 6654W        W10854   9.053   8.884  11.767
 6655W        W10855   1.711   6.724   2.351
 6656W        W10856   7.465  10.880  11.450
 6657W        W10857   1.770   3.866   1.770
 6658W        W10858   1.506   5.635   8.844
 6659W        W10859   5.446   8.201   3.465
 6660W        W10860   9.428   9.600   0.523
 6661W        W10861   0.834   1.955   0.603
 6662W        W10862   4.872   3.938  11.326
 6663W        W10863  10.169   4.315   2.206
 6664W        W10864   8.530   0.937  11.687
 6665W        W10865   2.178   4.624  10.488
 6666W        W10866   1.102   9.028  10.275
 6667W        W10867   7.976   2.713   0.912
 6668W        W10868   2.235  11.499  10.416
 6669W        W10869   7.056   1.436   9.112
 6670W        W10870   1.009   8.494   1.297
 6671W        W10871   7.456   0.704  10.933
 6672W        W10872   6.488   8.613   2.615
 6673W        W10873  10.240   4.124  10.079
 6674W        W10874   1.481   1.483   8.862
 6675W        W10875   2.260  10.674  11.418
 6676W        W10876   0.990   0.025  11.445
 6677W        W10877   1.272   8.146  10.033
 6678W        W10878   2.247   4.338   3.549
 6679W        W10879   1.654   6.583   1.293
 6680W        W10880   1.374   6.693   8.812
 6681W        W10881   9.263   2.443   1.806
 6682W        W10882   8.365   4.098   9.784
 6683W        W10883   5.033   5.273   9.908
 6684W        W10884   0.262   4.096   0.358
 6685W        W10885   4.151   1.884   0.865
 6686W        W10886   7.034   4.265   9.104
 6687W        W10887   2.375   6.649   0.838
 6688W        W10888   7.016   4.085  10.493
 6689W        W10889   8.898   2.646  11.474
 6690W        W10890   8.981   2.678  10.094
 6691W        W10891  10.497   3.555   0.251
 6692W        W10892   4.030   4.026  11.856
 6693W        W10893   9.858   5.554   2.148
 6694W        W10894   7.933   7.165  11.294
 6695W        W10895   8.205   8.137   4.012
 6696W        W10896   8.702   5.525   9.384
 6697W        W10897   7.569   9.183   0.578
 6698W        W10898   7.994   6.521   3.231
 6699W        W10899   5.450   8.135   8.626
 6700W        W10900   0.083   4.235   1.113
 6701W        W10901   1.202   2.183   0.938
 6702W        W10902   9.968   9.223   1.312
 6703W        W10903   1.316   8.936   2.468
 6704W        W10904   3.703   1.876   0.649
 6705W        W10905   5.099   8.602  11.360
 6706W        W10906  10.877  10.403   0.320
 6707W        W10907   6.162   7.097   9.075
 6708W        W10908   0.929   6.130   0.434
 6709W        W10909   6.219   8.490   3.172
 6710W        W10910  11.297   0.751   9.527
 6711W        W10911   0.920   0.836   1.137
 6712W        W10912   7.506   8.094   1.864
 6713W        W10913   7.610  10.023   9.012
 6714W        W10914   5.329   8.792   4.180
 6715W        W10915  11.199   0.503   3.391
 6716W        W10916   6.055   3.545   0.489
 6717W        W10917   5.260  10.453   1.577
 6718W        W10918   8.503  11.301   8.778
 6719W        W10919   6.701   3.232  11.136
 6720W        W10920  10.880   3.774  11.570
 6721W        W10921   9.797  10.128  10.215
 6722W        W10922   0.395   5.693   9.072
 6723W        W10923   8.589   9.283   1.304
 6724W        W10924   7.571   2.576   9.544
 6725W        W10925   0.757   4.162   1.672
 6726W        W10926   8.686   3.655  11.513
 6727W        W10927   3.981   7.747   2.670
 6728W        W10928   5.765  11.357  11.291
 6729W        W10929   7.102   7.374   0.358
 6730W        W10930   7.413   1.816   9.058
 6731W        W10931   8.817   0.207   9.286
 6732W        W10932   7.434   9.268   8.955
 6733W        W10933   4.256  10.861   2.697
 6734W        W10934  11.164   2.415   0.970
 6735W        W10935   2.969   2.265   3.318
 6736W        W10936  10.963   9.288   1.415
 6737W        W10937   1.409   3.770  11.992
 6738W        W10938   1.571   1.237   8.389
 6739W        W10939   2.788   0.210   9.436
 6740W        W10940   8.454   2.706   9.041
 6741W        W10941   7.038  10.770   9.915
 6742W        W10942   2.398   2.739   2.136
 6743W        W10943   9.113   1.949   1.755
 6744W        W10944   1.580   5.695   9.735
 6745W        W10945   2.024   8.094  10.592
 6746W        W10946   1.057   6.118  10.187
 6747W        W10947  11.183   4.084   3.471
 6748W        W10948   7.496   5.692  10.294
 6749W        W10949   7.885   6.091   2.929
 6750W        W10950   7.667   4.684   8.634
 6751W        W10951   9.431   9.060   1.337
 6752W        W10952   4.048   4.553   3.208
 6753W        W10953   3.173   6.682   9.467
 6754W        W10954   7.819   1.852   0.391
 6755W        W10955   9.299   3.730   0.686
 6756W        W10956  10.561   1.682  10.488
 6757W        W10957   4.142   4.775   1.883
 6758W        W10958   8.099  11.059   2.306
 6759W        W10959   4.637   2.119   2.987
 6760W        W10960   1.792  10.671   0.625
 6761W        W10961   2.004   2.771   0.020
 6762W        W10962  10.652   9.533   1.749
 6763W        W10963  10.833   5.494   9.092
 6764W        W10964   9.831   5.619   2.657
 6765W        W10965   2.802   4.670   8.041
 6766W        W10966  10.097   5.267   9.713
 6767W        W10967   4.344   7.315  10.098
 6768W        W10968   4.226   3.827   1.617
 6769W        W10969   7.940   2.691   1.932
 6770W        W10970   6.163   4.549   2.199
 6771W        W10971   2.892   4.872  10.390
 6772W        W10972   0.678   6.143   9.821
 6773W        W10973   5.223   8.187   0.665
 6774W        W10974   5.191   9.617   9.491
 6775W        W10975   3.784   4.136   9.661
 6776W        W10976  11.042   9.791  10.884
 6777W        W10977   7.090   6.872   2.903
 6778W        W10978   3.346   7.462   2.131
 6779W        W10979   3.748   5.721   0.961
 6780W        W10980   8.727   5.946   0.301
 6781W        W10981   0.292  10.321   0.498
 6782W        W10982   0.112   6.167  11.628
 6783W        W10983   1.667   7.575   9.514
 6784W        W10984   5.106   8.436  10.877
 6785W        W10985   7.516   5.724   0.672
 6786W        W10986  10.821   8.133  10.639
 6787W        W10987   5.643   2.897   0.946
 6788W        W10988  10.668   4.350   2.268
 6789W        W10989  11.048   1.394  11.155
 6790W        W10990   3.711   7.421  10.598
 6791W        W10991   1.322   1.946  10.771
 6792W        W10992   6.757  11.187  11.264
 6793W        W10993   4.130   1.220   9.939
 6794W        W10994   5.815   2.525   0.479
 6795W        W10995   0.023   0.343   2.678
 6796W        W10996   4.325  10.573   1.336
 6797W        W10997   6.974   7.571  10.322
 6798W        W10998   5.769   5.754   2.985
 6799W        W10999   6.800   1.647  10.359
 6800W        W11000   8.815  11.015  10.366
 6801W        W11001   8.434   9.040   0.888
 6802W        W11002  10.955   3.173   2.497
 6803W        W11003   1.830   3.152  11.450
 6804W        W11004   6.221   0.004   9.363
 6805W        W11005   0.879   5.442   0.246
 6806W        W11006   9.964   7.950  11.443
 6807W        W11007   9.654   5.621   3.148
 6808W        W11008   5.573   7.667  11.917
 6809W        W11009   5.131   9.701   2.842
 6810W        W11010   5.244   0.635   8.705
 6811W        W11011   4.095   8.968   9.603
 6812W        W11012   5.197   9.936   0.300
 6813W        W11013  10.787   6.159   1.487
 6814W        W11014   9.632   3.945   0.363
 6815W        W11015   9.898   5.795   1.714
 6816W        W11016   9.118   4.704   1.862
 6817W        W11017   5.372   3.297   3.538
 6818W        W11018   4.118   5.482   1.255
 6819W        W11019   1.779   2.703   9.054
 6820W        W11020   7.842   1.296   0.793
 6821W        W11021  11.104   0.244   2.393
 6822W        W11022   0.360  10.487   1.952
 6823W        W11023   2.138   8.948  10.556
 6824W        W11024   9.958   9.143  10.101
 6825W        W11025   0.913   8.212   2.954
 6826W        W11026   2.378   4.802   2.317
 6827W        W11027   6.958   5.355  11.032
 6828W        W11028   5.783   8.134   3.094
 6829W        W11029   1.837   4.329   2.730
 6830W        W11030   9.840   8.981  10.571
 6831W        W11031  10.887   2.333   1.411
 6832W        W11032   8.844   0.653  11.198
 6833W        W11033   2.224   6.208   8.887
 6834W        W11034   0.667   0.949   0.659
 6835W        W11035  10.029   3.243  10.309
 6836W        W11036   8.014   2.697   1.425
 6837W        W11037   0.139   9.321  11.332
 6838W        W11038   5.240   9.126   8.145
 6839W        W11039   6.201   2.828  10.800
 6840W        W11040   8.392   2.243  10.259
 6841W        W11041   8.455  11.491  11.938
 6842W        W11042   6.619  10.292   1.693
 6843W        W11043   6.491   7.616   9.564
 6844W        W11044   8.483   2.880   1.020
 6845W        W11045   7.449   1.426   2.773
 6846W        W11046   9.648   5.801  11.771
 6847W        W11047   3.166   3.828   1.569
 6848W        W11048   4.520   9.799  11.894
 6849W        W11049   2.280   4.407   1.309
 6850W        W11050   8.868   7.148  10.746
 6851W        W11051   5.374   1.441   9.708
 6852W        W11052   4.264   0.706   9.915
 6853W        W11053   6.107   0.900   2.951
 6854W        W11054   1.868   8.519   2.782
 6855W        W11055   7.039   1.334   3.094
 6856W        W11056   8.466   2.120   2.209
 6857W        W11057   7.269   6.687  10.842
 6858W        W11058  11.333  10.325   9.031
 6859W        W11059   4.383   2.332   0.716
 6860W        W11060   8.849   6.017   9.329
 6861W        W11061   1.432   3.624   9.523
 6862W        W11062  11.242   5.743   8.546
 6863W        W11063   7.455  10.012   0.902
 6864W        W11064  11.433   1.755   9.528
 6865W        W11065   1.652   5.644   2.140
 6866W        W11066   0.979   8.897   3.485
 6867W        W11067  11.329   1.222   9.309
 6868W        W11068  10.868   7.584  11.287
 6869W        W11069   0.682   5.721   9.505
 6870W        W11070   4.464   6.110  11.711
 6871W        W11071   9.322   1.180   0.872
 6872W        W11072   1.485   8.395  10.996
 6873W        W11073   1.282   1.178   3.151
 6874W        W11074   9.935  11.028   8.534
 6875W        W11075   0.772   7.492   8.974
 6876W        W11076   8.992   3.885   2.966
 6877W        W11077  10.459   3.546  11.744
 6878W        W11078   7.143   4.642   0.444
 6879W        W11079  10.848   6.655   2.183
 6880W        W11080   1.386  11.153   3.565
 6881W        W11081   8.395   4.927   1.361
 6882W        W11082   8.712   3.824   9.509
 6883W        W11083   1.865   1.774   9.010
 6884W        W11084   8.077  10.956   8.834
 6885W        W11085   7.865   9.580   9.188
 6886W        W11086   5.922   6.073   0.599
 6887W        W11087   9.367  10.184  10.485
 6888W        W11088   0.832   7.343   3.276
 6889W        W11089   2.830   8.857   9.108
 6890W        W11090   9.544   8.203  11.267
 6891W        W11091   1.195   7.582   1.533
 6892W        W11092   1.261   3.335  11.128
 6893W        W11093   6.159   8.719   1.337
 6894W        W11094   1.471  11.373   3.119
 6895W        W11095   8.688   0.484  10.296
 6896W        W11096  10.500   2.143   0.427
 6897W        W11097   9.469   5.920   1.484
 6898W        W11098  10.915   6.686  11.576
 6899W        W11099   1.718   3.171   9.367
 6900W        W11100   5.900  10.843  10.908
 6901W        W11101   2.170  10.288   2.208
 6902W        W11102   2.286   2.731  10.352
 6903W        W11103   8.507   9.797  10.821
 6904W        W11104   6.398   1.514  10.011
 6905W        W11105  11.433   0.876   1.644
 6906W        W11106   0.425   2.250  11.365
 6907W        W11107   8.134   1.267  11.131
 6908W        W11108   9.632   6.040   2.866
 6909W        W11109   7.040   2.784   3.600
 6910W        W11110   9.638   1.888  10.343
 6911W        W11111   1.893   7.086   0.497
 6912W        W11112   5.137   2.758   3.640
 6913W        W11113   4.866   6.146   9.765
 6914W        W11114   8.043   3.872   2.449
 6915W        W11115   4.653   1.149   9.907
 6916W        W11116   8.405   2.799  11.536
 6917W        W11117   2.764   5.773  11.225
 6918W        W11118   8.436   0.040   1.616
 6919W        W11119   3.813  11.448   1.278
 6920W        W11120  11.378  10.609   0.238
 6921W        W11121   5.821   0.689   0.465
 6922W        W11122   1.771   4.327  10.452
 6923W        W11123   5.103   4.786  10.717
 6924W        W11124  10.588   1.749   0.735
 6925W        W11125   3.579  11.210   0.867
 6926W        W11126   0.106   4.667  10.503
 6927W        W11127   6.215   9.644   1.264
 6928W        W11128  11.431   7.735   9.069
 6929W        W11129   4.544   6.497  10.966
 6930W        W11130   5.243  10.279   2.083
 6931W        W11131   1.515   7.555   2.566
 6932W        W11132   5.970   7.749   1.264
 6933W        W11133   7.333   5.875   0.229
 6934W        W11134   0.187   7.250   2.342
 6935W        W11135   6.093   7.052  11.090
 6936W        W11136   9.569   0.956  10.137
 6937W        W11137   9.917   9.668  10.056
 6938W        W11138   0.947   3.867   8.841
 6939W        W11139   0.736  10.775   9.327
 6940W        W11140   8.672   7.900   2.579
 6941W        W11141  11.184   9.659  11.359
 6942W        W11142   3.365   3.791  11.319
 6943W        W11143  10.425   2.645   0.345
 6944W        W11144   5.698   7.080   2.922
 6945W        W11145   7.253   2.260   2.353
 6946W        W11146   2.489   5.039   7.902
 6947W        W11147  10.013   2.347   2.408
 6948W        W11148   9.603   5.129   2.172
 6949W        W11149   5.251  11.006   1.328
 6950W        W11150   4.400   2.536   8.833
 6951W        W11151  11.484   4.410  11.996
 6952W        W11152   9.029   3.346   0.474
 6953W        W11153   7.554  10.819  10.085
 6954W        W11154   8.878   4.291   9.387
 6955W        W11155  10.298   3.187   1.865
 6956W        W11156   7.428   6.517   0.774
 6957W        W11157  11.022   5.803   1.221
 6958W        W11158   3.222   5.228  10.531
 6959W        W11159  10.716   5.513   2.680
 6960W        W11160  11.398   9.341   8.594
 6961W        W11161   5.212   4.203   0.895
 6962W        W11162   8.994   7.058   8.605
 6963W        W11163   7.435   4.790   0.834
 6964W        W11164   3.143   1.864  11.256
 6965W        W11165  11.048   5.177   2.485
 6966W        W11166   3.646   4.678   1.748
 6967W        W11167   0.737   2.370   0.951
 6968W        W11168   2.722   6.604   1.274
 6969W        W11169   2.281   3.518   3.040
 6970W        W11170   5.706   1.072   9.957
 6971W        W11171   9.611   8.127   2.288
 6972W        W11172   8.065   1.660  11.472
 6973W        W11173  10.421   8.407   9.924
 6974W        W11174   0.362   7.457   9.829
 6975W        W11175   7.235   8.461  10.565
 6976W        W11176  11.463   9.275   1.593
 6977W        W11177  10.487  11.437   8.943
 6978W        W11178   5.144   1.663  11.976
 6979W        W11179  10.854   2.483   3.296
 6980W        W11180   7.881  10.748   9.624
 6981W        W11181   7.431   5.343  11.261
 6982W        W11182   1.712   9.989  11.080
 6983W        W11183  10.481   3.619   2.190
 6984W        W11184  11.232   6.049   9.553
 6985W        W11185   4.203   4.070   2.147
 6986W        W11186   8.252   5.190   8.665
 6987W        W11187   3.253   5.819  11.048
 6988W        W11188   6.073  11.064   9.098
 6989W        W11189   7.344   6.248  11.512
 6990W        W11190   3.218   5.609   1.038
 6991W        W11191   0.682   1.838   1.484
 6992W        W11192   7.454   4.571   9.096
 6993W        W11193   1.115   0.771   3.474
 6994W        W11194   6.926   8.361   2.482
 6995W        W11195   5.620   9.135   9.871
 6996W        W11196   3.015   2.862  11.459
 6997W        W11197   8.634   8.319   8.652
 6998W        W11198   6.028   3.312  10.737
 6999W        W11199  11.476   9.830   9.767
 7000W        W11200   8.463   3.680   9.072
 7001W        W11201   2.340   0.764  11.343
 7002W        W11202   0.272  11.344  11.290
 7003W        W11203   5.355   2.637  10.314
 7004W        W11204   7.970   8.419   0.385
 7005W        W11205   8.861   8.064   3.393
 7006W        W11206   0.003   5.126  10.777
 7007W        W11207   0.513   7.043   9.517
 7008W        W11208   0.852   6.191   9.320
 7009W        W11209   9.347   2.208  10.622
 7010W        W11210   8.667  10.602   0.022
 7011W        W11211   4.174   5.683  10.789
 7012W        W11212   4.855   1.158   0.254
 7013W        W11213  10.940   8.376   3.557
 7014W        W11214   1.518   8.974   9.370
 7015W        W11215   6.111   4.452  10.469
 7016W        W11216  10.425  10.004   8.962
 7017W        W11217  10.429   9.955   1.402
 7018W        W11218   0.390   3.158  11.214
 7019W        W11219   7.621   0.899   1.181
 7020W        W11220   3.409   2.153   2.743
 7021W        W11221   0.618   1.817  10.450
 7022W        W11222   4.726   4.217   3.615
 7023W        W11223   3.091  11.432  11.894
 7024W        W11224   1.136   6.224   2.582
 7025W        W11225   4.706   6.694   8.635
 7026W        W11226   2.570   8.563   2.256
 7027W        W11227   2.351   5.512   9.572
 7028W        W11228   1.363   4.149   1.464
 7029W        W11229  11.437   4.822   8.728
 7030W        W11230   2.411   3.570   0.225
 7031W        W11231   7.063   3.775  10.888
 7032W        W11232   2.599   7.526   1.636
 7033W        W11233   4.609   2.259   1.617
 7034W        W11234   3.708   9.009   1.495
 7035W        W11235   3.940   8.529   9.840
 7036W        W11236  11.449   6.512   1.274
 7037W        W11237   6.944   0.254   1.651
 7038W        W11238   7.235   3.664   1.305
 7039W        W11239  11.079   1.795  10.489
 7040W        W11240   9.669   0.471  10.351
 7041W        W11241   5.461   4.822   3.269
 7042W        W11242   5.712   0.405   2.776
 7043W        W11243   4.116   7.783   0.399
 7044W        W11244   8.038   0.298   2.861
 7045W        W11245   9.347   8.703   0.920
 7046W        W11246   6.046   9.515   2.494
 7047W        W11247   9.246   7.204  10.383
 7048W        W11248   4.543  10.446   3.281
 7049W        W11249   3.063   1.275   2.346
 7050W        W11250  10.926   9.808   1.403
 7051W        W11251   8.486   7.549   3.483
 7052W        W11252  10.695   2.241   0.923
 7053W        W11253   8.114   1.420   0.368
 7054W        W11254   8.538  10.809   2.273
 7055W        W11255   0.230   9.366   3.145
 7056W        W11256   8.852   3.273   1.622
 7057W        W11257   5.970   2.464   1.642
 7058W        W11258   4.289   1.945  11.058
 7059W        W11259   6.727   6.620   0.215
 7060W        W11260   1.419   0.706   3.873
 7061W        W11261   2.529   5.298   0.758
 7062W        W11262   3.901   4.027   3.319
 7063W        W11263   3.784   3.567  10.456
 7064W        W11264   5.266  10.480   9.824
 7065W        W11265   0.702  10.000  11.422
 7066W        W11266   8.995  10.677  11.201
 7067W        W11267   7.948   7.500  11.699
 7068W        W11268   8.221   8.352  11.922
 7069W        W11269  10.859   1.953   3.201
 7070W        W11270  11.469   7.077  10.886
 7071W        W11271   4.311   8.916  11.874
 7072W        W11272   4.969  11.263  10.129
 7073W        W11273   5.216   0.441  10.746
 7074W        W11274   3.708   5.466   9.392
 7075W        W11275   6.877   8.162   1.532
 7076W        W11276   2.929   8.264   3.530
 7077W        W11277   1.870   9.810   2.301
 7078W        W11278   2.927   6.014   1.145
 7079W        W11279   1.858   1.328   1.837
 7080W        W11280   6.064   9.061  10.612
 7081W        W11281   6.078   1.768  11.994
 7082W        W11282   7.605   3.805   2.174
 7083W        W11283   7.565   2.629  10.054
 7084W        W11284   1.999   4.183   2.219
 7085W        W11285  11.023   3.303  11.455
 7086W        W11286  10.732  11.418  10.351
 7087W        W11287   2.607   6.516   0.339
 7088W        W11288  10.520   7.709  10.574
 7089W        W11289   2.281   3.614   0.721
 7090W        W11290   5.945   3.740   8.462
 7091W        W11291   5.277   2.126   0.910
 7092W        W11292   6.947   9.495   9.072
 7093W        W11293  10.609   3.686   9.247
 7094W        W11294   3.423   6.122   2.418
 7095W        W11295   7.234   6.389   0.256
 7096W        W11296   2.895   6.398  10.414
 7097W        W11297   2.646   6.551   3.166
 7098W        W11298   6.756   3.631   3.123
 7099W        W11299   5.135   4.174  10.029
 7100W        W11300   9.607   0.926  10.650
 7101W        W11301   9.024  10.331  10.837
 7102W        W11302   0.985   4.139   0.000
 7103W        W11303   8.002   6.082   3.490
 7104W        W11304   9.281   6.964   9.224
 7105W        W11305   9.477   0.522   2.586
 7106W        W11306   4.982   8.843   9.043
 7107W        W11307   3.326   0.945   0.720
 7108W        W11308   6.698   6.165  10.501
 7109W        W11309   5.742   9.419   1.230
 7110W        W11310   3.810  10.281  11.387
 7111W        W11311   2.574   0.475   2.528
 7112W        W11312   9.473  11.318  11.193
 7113W        W11313   9.585   5.077   3.159
 7114W        W11314   7.582   7.325   1.379
 7115W        W11315   6.597   9.017   1.427
 7116W        W11316   1.389   9.903   2.513
 7117W        W11317  11.362   9.045   9.574
 7118W        W11318   6.582   1.586   0.026
 7119W        W11319   0.339   9.937   2.425
 7120W        W11320   3.317   8.105  11.615
 7121W        W11321   2.742   5.533   9.192
 7122W        W11322  10.115   3.298   0.510
 7123W        W11323   3.503   4.832   3.120
 7124W        W11324   7.889   2.209   0.759
 7125W        W11325   2.228  11.494   8.864
 7126W        W11326   1.142   4.499   9.459
 7127W        W11327   1.859   1.308   9.797
 7128W        W11328   8.216   6.216   9.990
 7129W        W11329   4.150   8.693   1.390
 7130W        W11330   1.500   4.747   9.782
 7131W        W11331   6.108   4.109   9.641
 7132W        W11332   7.196   5.156   0.575
 7133W        W11333   9.892   7.311   3.338
 7134W        W11334   3.040   8.127   0.818
 7135W        W11335   8.478   8.486  11.280
 7136W        W11336   3.674   6.271   0.843
 7137W        W11337   8.386   6.989   2.798
 7138W        W11338  10.813   8.430   2.370
 7139W        W11339   0.471   7.911   1.683
 7140W        W11340  10.263   1.305  11.816
 7141W        W11341   5.291   2.819  11.098
 7142W        W11342  11.444   3.143   1.644
 7143W        W11343   7.626   7.388   9.181
 7144W        W11344   7.594  10.890   9.067
 7145W        W11345   4.647   1.858   1.953
 7146W        W11346   2.373  10.733  10.022
 7147W        W11347   2.877   6.226  11.434
 7148W        W11348  11.342   3.762  10.848
 7149W        W11349   8.504   2.562   3.033
 7150W        W11350   8.632   8.743   1.254
 7151W        W11351   5.637   8.595   2.818
 7152W        W11352   1.781   0.347  11.956
 7153W        W11353   2.354   7.447   2.290
 7154W        W11354   2.188   8.869  11.546
 7155W        W11355   5.669   7.050  10.593
 7156W        W11356   0.995   1.361  10.952
 7157W        W11357   0.308   8.910   3.382
 7158W        W11358   1.290   9.932   9.757
 7159W        W11359   2.218   9.903   0.241
 7160W        W11360  10.543   7.939   9.681
 7161W        W11361   2.642   2.646  10.768
 7162W        W11362   6.110   6.193   8.719
 7163W        W11363   0.039   2.360   2.317
 7164W        W11364  11.332   4.620   1.351
 7165W        W11365   9.878  11.308   8.993
 7166W        W11366   6.199   9.839   0.321
 7167W        W11367   6.088   7.000   9.585
 7168W        W11368   4.659   4.926   2.292
 7169W        W11369   7.952  11.160   9.303
 7170W        W11370   8.952   1.529  11.691
 7171W        W11371   5.176  10.612   2.874
 7172W        W11372   3.855   5.080   0.529
 7173W        W11373   3.087   0.031   3.280
 7174W        W11374   6.956   8.850   1.787
 7175W        W11375  10.443   2.898  10.271
 7176W        W11376   4.445   7.998  10.546
 7177W        W11377  11.016  10.702   8.711
 7178W        W11378   9.473   3.792   2.157
 7179W        W11379   0.125   3.316   3.163
 7180W        W11380   0.435   6.189   1.295
 7181W        W11381   4.323  10.940   9.834
 7182W        W11382   2.855   1.173  11.925
 7183W        W11383   7.355   9.898   3.250
 7184W        W11384   5.257   7.861   9.025
 7185W        W11385   6.723   8.577  10.577
 7186W        W11386   9.072  10.918   3.006
 7187W        W11387   2.127   9.490   3.393
 7188W        W11388  10.052   4.863   1.371
 7189W        W11389  10.470   8.046   2.463
 7190W        W11390   6.049   4.640  11.376
 7191W        W11391   6.555  10.000   9.832
 7192W        W11392   4.688   6.715   0.920
 7193W        W11393   3.060   1.785   3.509
 7194W        W11394   1.669   1.789  11.102
 7195W        W11395   3.682  10.447   3.093
 7196W        W11396   1.302   7.429  11.750
 7197W        W11397   3.929   6.072   2.338
 7198W        W11398   8.486   2.767   0.032
 7199W        W11399   9.045   9.417  10.411
 7200W        W11400   8.503   8.548   0.311
 7201W        W11401   0.265   8.534   9.309
 7202W        W11402   0.824   3.235   0.502
 7203W        W11403   9.134   2.644   9.584
 7204W        W11404   9.382   0.204   2.997
 7205W        W11405   6.499   9.458   9.891
 7206W        W11406   9.306   1.016   3.443
 7207W        W11407   7.014   8.471   0.415
 7208W        W11408   5.599   9.520   2.746
 7209W        W11409  11.389   8.103   3.629
 7210W        W11410   1.452   5.696  10.715
 7211W        W11411   6.975  11.498   2.732
 7212W        W11412   0.471  10.747   2.612
 7213W        W11413   8.718   2.310   3.406
 7214W        W11414  11.387   7.976  10.846
 7215W        W11415   9.159  11.183   1.181
 7216W        W11416   5.256   3.323   8.363
 7217W        W11417  10.404   4.503   9.795
 7218W        W11418   4.644   6.730   3.386
 7219W        W11419   8.508   7.281   0.875
 7220W        W11420   5.677   4.840   1.467
 7221W        W11421   2.824   2.109   1.402
 7222W        W11422   9.553   9.367   9.841
 7223W        W11423   3.261   0.437  11.954
 7224W        W11424   9.406   3.246   0.807
 7225W        W11425   7.775   3.113  10.094
 7226W        W11426   6.975   7.982   1.069
 7227W        W11427   9.475   0.720   0.725
 7228W        W11428   5.883  10.602   8.984
 7229W        W11429  10.739   4.168   1.386
 7230W        W11430   9.922   6.216   0.955
 7231W        W11431   5.330   4.921   1.100
 7232W        W11432   1.340   1.217  11.546
 7233W        W11433   9.797  10.356   2.515
 7234W        W11434   3.669   6.541  11.466
 7235W        W11435  10.155   4.295   1.342
 7236W        W11436   3.069   0.116   2.743
 7237W        W11437   0.672   9.432   9.357
 7238W        W11438   2.115  11.447  10.934
 7239W        W11439  10.418   1.362  10.096
 7240W        W11440   5.214   8.395  10.340
 7241W        W11441   6.185  10.841  10.071
 7242W        W11442   7.627  10.440   9.313
 7243W        W11443   0.443   9.087   1.728
 7244W        W11444  10.391   1.838   2.668
 7245W        W11445   8.547   1.986   8.491
 7246W        W11446   4.740   0.542  11.991
 7247W        W11447  10.278   9.479   2.118
 7248W        W11448   4.810   0.923   1.121
 7249W        W11449   8.467   3.222   0.283
 7250W        W11450   8.317   7.993   2.226
 7251W        W11451   0.680   8.558   3.252
 7252W        W11452   3.855   8.491   3.966
 7253W        W11453   5.924   4.983   3.090
 7254W        W11454   2.294   2.092   2.875
 7255W        W11455   5.288  10.838   0.119
 7256W        W11456  10.420   6.939   9.949
 7257W        W11457   3.216   6.526  11.717
 7258W        W11458   3.599   7.001   1.941
 7259W        W11459   6.453   5.251   0.925
 7260W        W11460   4.649   7.594   9.802
 7261W        W11461   2.019   2.736   0.881
 7262W        W11462   1.688   9.135   1.659
 7263W        W11463   5.127   4.322  10.989
 7264W        W11464   6.369   7.095   3.532
 7265W        W11465   0.488   7.174  10.809
 7266W        W11466   5.681   2.057   0.614
 7267W        W11467   5.485   8.920   9.055
 7268W        W11468   8.631   0.793   0.339
 7269W        W11469   0.856   6.742   0.805
 7270W        W11470   1.304   7.041   0.617
 7271W        W11471   9.683   8.134   9.457
 7272W        W11472   0.125   3.084   1.170
 7273W        W11473   2.748   1.651   2.232
 7274W        W11474   8.503   5.636   8.512
 7275W        W11475   8.582   8.439  10.672
 7276W        W11476   0.622   7.163   0.989
 7277W        W11477   2.116   9.729   9.791
 7278W        W11478   7.760   6.362  10.996
 7279W        W11479   5.125   0.026   1.255
 7280W        W11480   2.378   6.083   2.398
 7281W        W11481  10.039   9.484   3.002
 7282W        W11482   5.594   7.051   1.911
 7283W        W11483   3.605   6.919   9.339
 7284W        W11484   7.138   0.279   3.228
 7285W        W11485   4.744   2.220   9.034
 7286W        W11486   2.306   3.847   1.274
 7287W        W11487  10.959   3.782   1.014
 7288W        W11488   0.418   5.097   0.491
 7289W        W11489   4.107  10.655  11.518
 7290W        W11490   0.832   1.009  11.305
 7291W        W11491   6.411   2.445   8.203
 7292W        W11492   3.681   7.503   1.748
 7293W        W11493   0.920   5.218  11.335
 7294W        W11494   3.135  10.924   0.426
 7295W        W11495   4.340   4.983   0.576
 7296W        W11496   1.525  10.960   9.912
 7297W        W11497   3.916   2.815  11.596
 7298W        W11498   5.326   4.020  10.497
 7299W        W11499   6.674   4.703   2.152
 7300W        W11500   6.581   7.663   2.736
 7301W        W11501   9.000   6.661   9.959
 7302W        W11502   8.111  11.239  11.345
 7303W        W11503   7.581   3.214   3.317
 7304W        W11504   9.489   1.880   8.820
 7305W        W11505   3.052   0.935  10.606
 7306W        W11506   1.744   5.262   1.407
 7307W        W11507   8.773   5.355  11.617
 7308W        W11508   6.209   1.935   9.792
 7309W        W11509   2.901   7.851   9.025
 7310W        W11510   9.539   2.225   2.702
 7311W        W11511   8.571   6.372   8.188
 7312W        W11512   7.895   4.826   9.067
 7313W        W11513   4.740   8.491   2.275
 7314W        W11514   9.511   3.713   3.416
 7315W        W11515   0.365  10.076   9.998
 7316W        W11516   4.768   1.178   3.729
 7317W        W11517   6.421   2.892   2.759
 7318W        W11518   1.963   3.424   2.649
 7319W        W11519   1.432   7.955   1.786
 7320W        W11520   3.119   6.509   0.250
 7321W        W11521   4.273   0.595   1.896
 7322W        W11522   7.020   2.399   0.766
 7323W        W11523   1.722   8.403   0.598
 7324W        W11524   0.030   2.068   0.921
 7325W        W11525   5.581   2.717   3.899
 7326W        W11526   6.538   3.360  11.615
 7327W        W11527   5.599   4.609   8.271
 7328W        W11528   7.431   8.859   0.947
 7329W        W11529   0.448   9.631  11.935
 7330W        W11530   5.733   1.417   9.320
 7331W        W11531   5.560   2.360   9.864
 7332W        W11532   0.807   5.535  11.723
 7333W        W11533   3.602  10.860   0.202
 7334W        W11534   5.288   9.827  10.407
 7335W        W11535   8.858   9.346  11.928
 7336W        W11536  10.881   3.672   8.807
 7337W        W11537   4.250   7.700   2.258
 7338W        W11538   9.574   6.435   2.560
 7339W        W11539   4.468   8.448  11.740
 7340W        W11540   4.137   5.533   0.685
 7341W        W11541  11.359   8.974   0.992
 7342W        W11542   2.995   9.698   8.442
 7343W        W11543   4.203   1.873   3.201
 7344W        W11544  11.491   1.859   3.159
 7345W        W11545   0.488   3.638   0.480
 7346W        W11546   8.956   3.742   1.444
 7347W        W11547   0.892  10.500  10.559
 7348W        W11548   7.675   1.917  10.631
 7349W        W11549   3.101  11.038   0.924
 7350W        W11550   0.656   4.073   3.631
 7351W        W11551   1.716  11.329   9.591
 7352W        W11552   1.073   1.268   0.835
 7353W        W11553   4.392   4.621   8.928
 7354W        W11554   3.662   3.188   0.394
 7355W        W11555   8.176   7.537   9.705
 7356W        W11556   2.233  10.276  11.058
 7357W        W11557   1.918   3.759   0.245
 7358W        W11558  10.865   3.598  10.673
 7359W        W11559   3.575  10.905   3.319
 7360W        W11560   9.415   1.834   2.250
 7361W        W11561   3.288   0.640  10.030
 7362W        W11562  11.485  11.342   1.501
 7363W        W11563   2.284   2.743   0.448
 7364W        W11564  11.343   8.877  10.076
 7365W        W11565   4.754   5.959   4.050
 7366W        W11566   6.379  10.907  11.082
 7367W        W11567   6.646   5.734  11.523
 7368W        W11568   7.858   2.193   9.730
 7369W        W11569  11.127   3.705   9.265
 7370W        W11570  10.827   4.969   0.362
 7371W        W11571   2.494   9.242  11.765
 7372W        W11572   1.703   5.233   8.499
 7373W        W11573   0.929   9.520   2.955
 7374W        W11574   1.847   7.903   1.491
 7375W        W11575   1.815   5.704   1.133
 7376W        W11576   1.858   7.531   0.734
 7377W        W11577   3.824   3.573   2.667
 7378W        W11578   6.129   9.472   1.973
 7379W        W11579   7.638   4.554   3.746
 7380W        W11580   1.273   6.671   1.630
 7381W        W11581   9.870  10.489   0.305
 7382W        W11582   1.821   4.588   1.441
 7383W        W11583   1.643   5.659  11.194
 7384W        W11584   9.355  10.336   9.975
 7385W        W11585   2.737   5.540   1.192
 7386W        W11586   5.660   7.560   2.653
 7387W        W11587   0.983   4.206  10.570
 7388W        W11588   9.513   4.404   1.785
 7389W        W11589   2.667  10.261   9.597
 7390W        W11590   5.341   4.252   1.964
 7391W        W11591   0.439   1.734   1.932
 7392W        W11592   3.705   1.716   2.558
 7393W        W11593   0.857   0.769   1.676
 7394W        W11594   2.303   7.053   8.550
 7395W        W11595   8.355   5.266  11.949
 7396W        W11596  10.397   2.225   9.543
 7397W        W11597   1.174   5.830   2.907
 7398W        W11598   6.036   2.563   2.115
 7399W        W11599   3.544   5.176   9.008
 7400W        W11600   8.034   5.694   3.827
 7401W        W11601   2.392   6.094   3.335
 7402W        W11602  11.038   8.288   0.800
 7403W        W11603   4.459   0.349   3.431
 7404W        W11604   9.216   0.494   1.588
 7405W        W11605   5.595   4.041  10.966
 7406W        W11606   9.582   7.389   2.695
 7407W        W11607   0.048  10.241   9.488
 7408W        W11608   5.959  10.287   0.216
 7409W        W11609   2.886   9.897   2.650
 7410W        W11610   1.842   7.225   2.331
 7411W        W11611   1.439   8.661  10.066
 7412W        W11612   9.007   5.128   9.429
 7413W        W11613   4.069  10.764   9.404
 7414W        W11614   6.401   7.990   1.528
 7415W        W11615  10.373   4.706   0.387
 7416W        W11616   7.304   5.745   2.392
 7417W        W11617   3.283   8.202  10.604
 7418W        W11618   2.660   0.896   3.098
 7419W        W11619  10.559   9.404   3.127
 7420W        W11620   6.647   3.755  10.340
 7421W        W11621   3.220   6.951   8.981
 7422W        W11622   8.435   0.201   8.416
 7423W        W11623   3.754   2.780   0.666
 7424W        W11624   2.655  11.281   3.527
 7425W        W11625  11.146   7.944   9.848
 7426W        W11626   5.013   3.108   2.332
 7427W        W11627   6.752   9.802  10.452
 7428W        W11628   3.539   4.450   9.351
 7429W        W11629  11.105   8.807   1.440
 7430W        W11630   3.100  10.851   1.466
 7431W        W11631   6.996  11.160   9.527
 7432W        W11632   6.387   9.395   0.457
 7433W        W11633   8.354  10.012   1.736
 7434W        W11634   4.955   3.703  11.746
 7435W        W11635   7.660   1.762  10.104
 7436W        W11636   3.653  10.910   1.682
 7437W        W11637   0.333   4.311   8.835
 7438W        W11638   4.715   5.718   0.030
 7439W        W11639  10.795   0.762   9.450
 7440W        W11640   1.184  11.335   9.833
 7441W        W11641   2.358   9.011   2.425
 7442W        W11642  10.545   4.221   0.920
 7443W        W11643   0.173   2.199  11.830
 7444W        W11644   2.937   2.655   0.011
 7445W        W11645  10.723   5.281   8.564
 7446W        W11646   7.598   8.096  11.767
 7447W        W11647   0.588   5.120   1.858
 7448W        W11648   2.240   3.847  11.839
 7449W        W11649  10.304   0.968  11.416
 7450W        W11650  11.378  10.089  11.123
 7451W        W11651  10.534  11.364   3.283
 7452W        W11652   7.066   1.828   3.478
 7453W        W11653   2.989   2.118   2.216
 7454W        W11654   8.174   9.963   2.712
 7455W        W11655   3.169   9.594  10.281
 7456W        W11656  10.670   0.374   3.236
 7457W        W11657   3.282   4.120   0.841
 7458W        W11658   4.103   6.980   1.925
 7459W        W11659  11.020  10.700   9.971
 7460W        W11660   5.112   7.218  11.509
 7461W        W11661   8.070  10.867   3.306
 7462W        W11662   2.199   5.066   8.644
 7463W        W11663  10.860   0.357   8.530
 7464W        W11664   5.555   7.289   3.796
 7465W        W11665  10.343   5.471   8.845
 7466W        W11666   2.934   2.786   3.303
 7467W        W11667  10.735   9.271  11.627
 7468W        W11668  10.386   5.580   3.082
 7469W        W11669   8.104  10.265   9.590
 7470W        W11670   1.767  10.085   9.737
 7471W        W11671   5.508   4.557   3.726
 7472W        W11672   4.694   9.301  11.774
 7473W        W11673   7.609   4.774   2.166
 7474W        W11674   7.138   8.445   9.253
 7475W        W11675   1.051   4.799   3.580
 7476W        W11676   1.646   8.144   3.498
 7477W        W11677   3.991   7.602  11.902
 7478W        W11678   9.160   3.665  11.679
 7479W        W11679   5.621   0.327   9.482
 7480W        W11680   8.618   8.013  11.527
 7481W        W11681  11.328  10.029   1.146
 7482W        W11682  11.394   8.260   9.067
 7483W        W11683   3.424  10.327   1.118
 7484W        W11684   1.854   8.367   1.075
 7485W        W11685   1.253   9.060  11.132
 7486W        W11686   2.629   9.773   0.494
 7487W        W11687   5.039   5.324   2.354
 7488W        W11688   7.751   2.362   0.267
 7489W        W11689  10.318   9.131   1.735
 7490W        W11690   8.945  10.451   2.794
 7491W        W11691   1.080   4.414   8.688
 7492W        W11692   2.877   8.940   2.379
 7493W        W11693   1.703   1.419  11.888
 7494W        W11694   3.494   2.553   9.015
 7495W        W11695   7.167   8.793   2.278
 7496W        W11696   6.792   7.657   1.406
 7497W        W11697   2.709   0.309   3.518
 7498W        W11698   1.226   9.536   1.235
 7499W        W11699   7.825   8.570  10.006
 7500W        W11700   6.136   7.337   2.680
 7501W        W11701   2.631   0.688   0.340
 7502W        W11702   3.105   1.675   9.109
 7503W        W11703   8.045   4.725  11.296
 7504W        W11704   4.646   8.515   1.261
 7505W        W11705   5.057   6.092   1.994
 7506W        W11706   4.711   4.836   0.942
 7507W        W11707   1.216   0.756   9.436
 7508W        W11708   7.504   2.616   9.048
 7509W        W11709   6.570   9.033  10.732
 7510W        W11710   1.804   6.614   9.594
 7511W        W11711  10.474   0.200   0.487
 7512W        W11712   8.213   8.491  10.311
 7513W        W11713   4.491   5.263  11.740
 7514W        W11714   0.942   3.096   0.979
 7515W        W11715   9.975   6.828   0.696
 7516W        W11716   2.403   7.974   0.078
 7517W        W11717   0.720   5.693   1.987
 7518W        W11718   8.676   2.052   2.956
 7519W        W11719   5.056   4.393  11.502
 7520W        W11720   9.294   8.377   0.512
 7521W        W11721   8.878   2.299  10.437
 7522W        W11722   3.936   2.394   8.621
 7523W        W11723  10.948   5.240  10.042
 7524W        W11724   6.781   5.120  10.165
 7525W        W11725   9.036   2.537   0.466
 7526W        W11726   8.870   4.450   8.877
 7527W        W11727   3.284   8.426   1.764
 7528W        W11728   3.566   4.871   1.256
 7529W        W11729  10.543   3.739   0.720
 7530W        W11730   6.570   3.332  10.036
 7531W        W11731   0.966   4.801   9.053
 7532W        W11732   5.448   8.379  11.698
 7533W        W11733   1.903   3.651   9.307
 7534W        W11734   3.895   2.154  10.792
 7535W        W11735  10.440   1.177  10.561
 7536W        W11736   3.406   5.187   4.118
 7537W        W11737   6.131   2.767   3.156
 7538W        W11738   4.045   9.167  11.376
 7539W        W11739   6.035   4.789  10.862
 7540W        W11740   8.227   8.444   1.376
 7541W        W11741   9.312   1.820  11.470
 7542W        W11742   1.623   6.491   3.258
 7543W        W11743   8.159   7.337   9.239
 7544W        W11744   8.259   1.707   2.990
 7545W        W11745   8.588  10.856   2.826
 7546W        W11746   2.260   4.056   3.111
 7547W        W11747  11.468   9.604  11.772
 7548W        W11748   0.447   2.630   2.867
 7549W        W11749   6.174   5.055   1.322
 7550W        W11750   6.575   9.036   2.914
 7551W        W11751   7.687  11.452  11.528
 7552W        W11752   6.318   0.882   0.462
 7553W        W11753   0.857   8.940  11.514
 7554W        W11754   2.154   9.813  11.261
 7555W        W11755   4.992   7.415   0.046
 7556W        W11756  10.738  10.834   1.271
 7557W        W11757   3.972   7.959   9.180
 7558W        W11758   5.066   4.064   8.738
 7559W        W11759   9.064   3.383   9.013
 7560W        W11760   4.350   9.580   0.332
 7561W        W11761   2.357   6.694   8.993
 7562W        W11762   6.156   5.997   2.225
 7563W        W11763   6.235   4.472   3.034
 7564W        W11764   0.856   5.668   1.154
 7565W        W11765   0.370   9.551   9.968
 7566W        W11766   8.568   5.217   8.199
 7567W        W11767   3.354   2.458   2.330
 7568W        W11768  10.399   0.460   8.801
 7569W        W11769   8.556   3.677  11.026
 7570W        W11770  11.357   8.260  11.293
 7571W        W11771  10.182   0.256   3.161
 7572W        W11772   6.194   6.601  11.329
 7573W        W11773  10.801   3.318   1.875
 7574W        W11774   5.129   7.402  10.114
 7575W        W11775   0.486  10.816  10.430
 7576W        W11776   5.183   8.644   2.609
 7577W        W11777  10.031  11.262  10.798
 7578W        W11778   7.063   9.317   1.497
 7579W        W11779   9.187   8.255   9.453
 7580W        W11780   5.233   1.919   0.420
 7581W        W11781   4.198   4.545   2.352
 7582W        W11782   8.980   8.923  10.233
 7583W        W11783   0.676   2.394   3.270
 7584W        W11784   7.611   6.375   4.041
 7585W        W11785   9.027   6.486   7.900
 7586W        W11786   7.980   6.846  10.854
 7587W        W11787   2.807  11.317   1.238
 7588W        W11788   9.625   4.529   9.360
 7589W        W11789   6.908   7.586  10.827
 7590W        W11790   5.642   9.818  10.869
 7591W        W11791   0.395   6.561   9.691
 7592W        W11792   2.155   0.375   1.397
 7593W        W11793   3.013   2.333  10.637
 7594W        W11794  10.840  10.782  11.389
 7595W        W11795   1.227   7.832   2.857
 7596W        W11796   0.415   7.138   3.010
 7597W        W11797   5.041   8.841  10.549
 7598W        W11798   7.433   1.633   0.738
 7599W        W11799   5.605   0.246  11.007
 7600W        W11800   7.923   7.810   9.339
 7601W        W11801   6.436   9.685  10.865
 7602W        W11802   5.207   2.862   2.720
 7603W        W11803   5.185   6.159  10.470
 7604W        W11804   5.219   2.093   8.473
 7605W        W11805   1.467   0.234  11.248
 7606W        W11806   2.690   1.616   0.132
 7607W        W11807   0.831   6.828   3.097
 7608W        W11808   8.220   3.658   8.629
 7609W        W11809   0.875   9.069   2.009
 7610W        W11810   6.107  11.332  10.897
 7611W        W11811   5.625   9.463  10.277
 7612W        W11812   3.566   0.160  10.049
 7613W        W11813  11.219  10.474   2.835
 7614W        W11814   6.611   8.947   0.426
 7615W        W11815   0.338   4.232   9.377
 7616W        W11816   1.505   7.415  11.167
 7617W        W11817   8.517   2.819  10.999
 7618W        W11818   2.840   9.790   8.962
 7619W        W11819   4.825   2.460  10.444
 7620W        W11820   3.515   1.312  10.717
 7621W        W11821   4.799   7.659   0.817
 7622W        W11822   1.550   5.203   9.503
 7623W        W11823   3.465   5.449   8.532
 7624W        W11824  10.330   5.575   1.929
 7625W        W11825   2.728   5.740  11.748
 7626W        W11826   9.215   5.207   1.887
 7627W        W11827   2.696   3.646   8.983
 7628W        W11828   5.961  10.359   8.520
 7629W        W11829   6.656  10.146   9.365
 7630W        W11830   2.256   2.449   9.029
 7631W        W11831   6.310   8.197   8.241
 7632W        W11832   6.977   0.009  10.481
 7633W        W11833   8.631  10.805   9.943
 7634W        W11834   6.024   4.545   9.937
 7635W        W11835   5.645   2.703  11.493
 7636W        W11836   4.093  10.633   8.683
 7637W        W11837   5.765   3.208   3.848
 7638W        W11838   5.065   0.701  10.337
 7639W        W11839   2.647   4.546  10.703
 7640W        W11840  11.082  11.482  11.754
 7641W        W11841   7.446   1.273  11.842
 7642W        W11842   5.552   5.936  11.099
 7643W        W11843   1.818   6.401   0.028
 7644W        W11844   5.457  11.273  10.280
 7645W        W11845   2.968   8.410   8.381
 7646W        W11846   4.222   5.534  11.310
 7647W        W11847   4.734   7.496   2.240
 7648W        W11848   6.062   2.117  10.600
 7649W        W11849   9.280   8.165  10.259
 7650W        W11850   2.780   1.233   1.895
 7651W        W11851   8.889   1.138   0.015
 7652W        W11852   4.744   9.315  10.693
 7653W        W11853   0.882  11.317   1.941
 7654W        W11854   1.124   2.650   1.141
 7655W        W11855   8.199   6.063   1.213
 7656W        W11856   9.962   0.367   9.615
 7657W        W11857   0.288   6.966  10.000
 7658W        W11858   2.638   8.551   8.744
 7659W        W11859   2.675   5.048   8.399
 7660W        W11860   2.740   4.241   8.303
 7661W        W11861  11.392   4.802  10.073
 7662W        W11862   4.272   2.702  10.212
 7663W        W11863   5.042   4.413   9.105
 7664W        W11864   5.642   9.830   9.344
 7665W        W11865   5.856   3.597   1.402
 7666W        W11866   9.511  10.393   9.042
 7667W        W11867   6.214   5.702   2.669
 7668W        W11868  10.424   5.230   9.290
 7669W        W11869   9.334   7.447   8.547
 7670W        W11870  11.229   8.262   3.121
 7671W        W11871  11.492   6.023   1.092
 7672W        W11872  11.284   4.736   9.568
 7673W        W11873  11.312   1.871  10.021
 7674W        W11874   2.957   6.903  10.361
 7675W        W11875   6.838   7.123  11.533
 7676W        W11876   6.442   6.635   9.546
 7677W        W11877   5.163   2.358  11.322
 7678W        W11878   7.754   5.067  10.763
 7679W        W11879   6.743   3.600   1.281
 7680W        W11880   2.658   1.443   0.783
 7681W        W11881   2.837   2.590   2.359
 7682W        W11882   7.100  10.494   2.908
 7683W        W11883   9.782   9.391   9.107
 7684W        W11884  10.607   4.783  11.933
 7685W        W11885   7.549  10.348   3.076
 7686W        W11886   0.876   1.445   9.520
 7687W        W11887   3.631   3.964  10.133
 7688W        W11888  10.537   5.153   1.719
 7689W        W11889   0.681   9.560   2.496
 7690W        W11890   1.813   5.164   9.933
 7691W        W11891   3.821   3.280  11.350
 7692W        W11892   9.962  10.099   9.742
 7693W        W11893  10.312  11.426   1.845
 7694W        W11894   7.129   2.602  10.835
 7695W        W11895   4.750   9.521   9.235
 7696W        W11896   5.156   9.589  11.391
 7697W        W11897  10.012   2.105   2.924
 7698W        W11898   7.981   5.725  11.474
 7699W        W11899   9.951   4.905   0.070
 7700W        W11900   1.200  10.826  10.283
 7701W        W11901   7.586   0.576   0.765
 7702W        W11902   6.812   7.151   1.237
 7703W        W11903  10.326   0.774   9.243
 7704W        W11904   0.050   6.949  11.880
 7705W        W11905   6.495   4.518   0.644
 7706W        W11906   8.155  11.500   9.712
 7707W        W11907   0.695   3.011   2.368
 7708W        W11908   5.134   7.989   1.132
 7709W        W11909  10.351   0.931   2.405
 7710W        W11910   0.224   9.822  11.383
 7711W        W11911   8.466   9.488  11.645
 7712W        W11912   2.141   0.679   3.388
 7713W        W11913   2.302  10.494  11.929
 7714W        W11914   0.077   1.555   0.887
 7715W        W11915   2.314   8.457   1.265
 7716W        W11916   3.771   3.099   2.825
 7717W        W11917   4.419   9.529   3.580
 7718W        W11918   2.250  11.260   2.203
 7719W        W11919   3.633   7.592   0.423
 7720W        W11920   2.628   4.967   0.359
 7721W        W11921   1.385  10.004  11.759
 7722W        W11922   7.918   1.483  10.740
 7723W        W11923  10.483   1.171   1.537
 7724W        W11924   0.707   3.115   9.270
 7725W        W11925   7.109   1.626  10.824
 7726W        W11926   6.239   7.653   2.288
 7727W        W11927   6.585   6.541   1.090
 7728W        W11928   1.766   2.033   0.504
 7729W        W11929   9.399   1.325  11.500
 7730W        W11930   3.693   3.729   1.649
 7731W        W11931   7.451   4.312   1.971
 7732W        W11932   1.907   1.532   0.477
 7733W        W11933   1.127   9.434   2.264
 7734W        W11934   9.967   6.646   8.733
 7735W        W11935   5.957  10.748   3.302
 7736W        W11936   0.267   9.512   9.020
 7737W        W11937   7.860   5.507  11.007
 7738W        W11938   8.233   9.103   2.186
 7739W        W11939   0.971   3.197   2.765
 7740W        W11940   3.016   4.222  11.510
 7741W        W11941  10.205   4.481  11.940
 7742W        W11942   7.572  10.327  10.292
 7743W        W11943   1.607   8.965   2.889
 7744W        W11944  10.812   6.577   0.681
 7745W        W11945   6.710   0.069   0.435
 7746W        W11946  11.289   6.116   1.546
 7747W        W11947   9.592   3.699  11.912
 7748W        W11948   2.025  11.478   0.850
 7749W        W11949   3.725   7.833   2.204
 7750W        W11950   1.725   5.789   0.649
 7751W        W11951   8.857   8.115   1.486
 7752W        W11952   4.937   6.526   9.092
 7753W        W11953   0.025   2.736   1.979
 7754W        W11954  10.439  11.073  11.077
 7755W        W11955   6.710   2.209   9.405
 7756W        W11956   4.400   1.520   2.296
 7757W        W11957   3.562   4.218   8.907
 7758W        W11958   4.786   0.220  10.958
 7759W        W11959   2.864   7.036   3.340
 7760W        W11960   5.729  10.630   9.951
 7761W        W11961  10.924   4.794   8.581
 7762W        W11962   9.234   9.108   0.613
 7763W        W11963  10.582   2.774  10.732
 7764W        W11964   6.191   1.726   1.017
 7765W        W11965   6.480  10.673   0.779
 7766W        W11966   3.169   4.213   2.246
 7767W        W11967   5.214   6.831   8.771
 7768W        W11968   0.405   5.563   0.052
 7769W        W11969  11.449   6.177   9.075
 7770W        W11970  10.909   5.915  11.001
 7771W        W11971   4.245  10.086  10.808
 7772W        W11972   8.981   9.065   1.048
 7773W        W11973   5.049  11.089   9.358
 7774W        W11974   8.530   5.314   2.372
 7775W        W11975   3.172   3.317   9.979
 7776W        W11976   8.198   0.965   0.107
 7777W        W11977   1.382  10.368  10.485
 7778W        W11978   1.914   4.261   0.424
 7779W        W11979   6.546   3.699   0.388
 7780W        W11980   6.438  10.796   2.333
 7781W        W11981   0.689   9.782   8.935
 7782W        W11982   6.178   4.290  11.874
 7783W        W11983   9.571  11.070   9.816
 7784W        W11984   2.421   5.073  10.513
 7785W        W11985   8.221   5.113  10.992
 7786W        W11986   9.407   3.746   1.179
 7787W        W11987   7.039   7.013   2.423
 7788W        W11988   1.774   7.694   2.163
 7789W        W11989  11.331   9.382   9.990
 7790W        W11990   2.481   3.109  10.613
 7791W        W11991   8.871   9.808  11.689
 7792W        W11992   5.153   1.882   1.833
 7793W        W11993   4.828  11.331   1.616
 7794W        W11994   2.918   3.661   0.241
 7795W        W11995   5.362   2.710   9.035
 7796W        W11996   7.984   0.204  11.873
 7797W        W11997   6.424   9.099   3.738
 7798W        W11998   8.359   3.410   1.750
 7799W        W11999   5.994   0.188   0.217
 7800W        W12000   6.508  10.836  11.577
 7801W        W12001  10.471   2.210   3.520
 7802W        W12002   0.791   6.715   1.791
 7803W        W12003   8.428   1.404  11.958
 7804W        W12004   1.772   1.762  10.042
 7805W        W12005   3.252   8.684  10.331
 7806W        W12006   6.602   6.129   0.802
 7807W        W12007   9.425   8.129   3.242
 7808W        W12008   1.401   3.524   2.068
 7809W        W12009   6.275   8.852  11.090
 7810W        W12010   8.872   6.226   3.221
 7811W        W12011   8.734   9.581   3.147
 7812W        W12012   5.710   5.118   9.146
 7813W        W12013   9.323   3.387   1.794
 7814W        W12014   7.635   5.422   9.821
 7815W        W12015   3.126   2.086   9.692
 7816W        W12016   0.937   1.949   3.214
 7817W        W12017   8.966   0.476   3.283
 7818W        W12018  10.407   6.441   1.992
 7819W        W12019   7.914   4.264  10.042
 7820W        W12020   6.681   2.532  11.996
 7821W        W12021   4.533   5.793   1.071
 7822W        W12022  10.840   7.025   0.919
 7823W        W12023   4.448   3.250   0.777
 7824W        W12024  10.653   9.586   9.555
 7825W        W12025  11.355   5.529   3.259
 7826W        W12026   6.655   2.726   9.498
 7827W        W12027   5.482  10.166  11.812
 7828W        W12028   2.788   4.839   0.835
 7829W        W12029   2.508   9.515   1.694
 7830W        W12030   5.168   6.533   1.200
 7831W        W12031   1.813   3.347   0.839
 7832W        W12032  10.461   9.120   9.409
 7833W        W12033   4.274   8.695   3.735
 7834W        W12034   0.827   0.277   1.143
 7835W        W12035   5.963   8.212   3.577
 7836W        W12036   7.645   6.551  10.527
 7837W        W12037   4.438   4.214  10.452
 7838W        W12038   8.949  10.818   9.443
 7839W        W12039   7.865   6.926   9.094
 7840W        W12040   8.513   6.910   1.399
 7841W        W12041   2.699  10.786   1.128
 7842W        W12042  10.041  11.270   3.064
 7843W        W12043   3.098   7.053   1.950
 7844W        W12044   3.784   5.968  11.031
 7845W        W12045   4.815   6.147  11.304
 7846W        W12046   9.538   8.623  10.343
 7847W        W12047   3.394  10.010   9.202
 7848W        W12048   2.249   7.860   9.462
 7849W        W12049   3.351   3.468   0.071
 7850W        W12050   1.453   7.850  11.992
 7851W        W12051   4.485   2.742   9.774
 7852W        W12052   8.593   9.149   0.441
 7853W        W12053   9.086  11.342  10.804
 7854W        W12054   7.188   2.351   3.371
 7855W        W12055   2.555   2.619  11.292
 7856W        W12056   0.316   4.810   1.245
 7857W        W12057   4.699   0.339   2.982
 7858W        W12058   5.773   4.380   1.682
 7859W        W12059   6.670   6.066   2.298
 7860W        W12060   5.873   2.729   8.984
 7861W        W12061   8.288   5.159   3.211
 7862W        W12062   6.926   5.101   2.369
 7863W        W12063   9.120   8.417  11.508
 7864W        W12064   2.248   5.279   9.102
 7865W        W12065   1.280   4.093   9.763
 7866W        W12066   0.857   0.313   2.162
 7867W        W12067   7.463  11.477  10.183
 7868W        W12068   0.737   2.170   1.951
 7869W        W12069   7.174   0.764  11.847
 7870W        W12070   8.353   4.530  10.294
 7871W        W12071  11.119   4.120   2.282
 7872W        W12072   9.906   3.782   1.337
 7873W        W12073   3.119   9.378   0.761
 7874W        W12074   3.818   1.638   9.934
 7875W        W12075  10.844   4.628  10.812
 7876W        W12076   8.249   6.367  10.810
 7877W        W12077  10.104   3.813   9.541
 7878W        W12078  10.700   4.154  10.581
 7879W        W12079   5.136   7.505  10.615
 7880W        W12080  11.484  10.924   2.771
 7881W        W12081   0.428   5.284   1.396
 7882W        W12082  10.072   3.782   3.455
 7883W        W12083   6.351   3.940   8.189
 7884W        W12084   3.207   5.392   3.683
 7885W        W12085   8.532   0.755   3.229
 7886W        W12086   1.807   6.499   9.077
 7887W        W12087   2.313   1.851   0.445
 7888W        W12088  10.863   3.927  11.082
 7889W        W12089   5.229   1.840  11.433
 7890W        W12090   5.454   8.168   9.901
 7891W        W12091   5.885   2.008   1.911
 7892W        W12092   2.307   7.532  11.790
 7893W        W12093   3.197   0.288   1.416
 7894W        W12094   7.654   3.118  10.966
 7895W        W12095   2.439  10.703  10.877
 7896W        W12096   4.193   3.206  10.465
 7897W        W12097   8.584   4.260   2.857
 7898W        W12098   1.397   0.409   0.858
 7899W        W12099   0.293   0.405   0.017
 7900W        W12100   7.068   0.254   2.235
 7901W        W12101   9.106   6.639   8.880
 7902W        W12102   4.207   7.499   1.809
 7903W        W12103   8.593   1.821   3.379
 7904W        W12104   1.516   0.330   9.586
 7905W        W12105   1.439   2.886   8.343
 7906W        W12106   7.342   6.459  10.103
 7907W        W12107  10.586   7.132   2.750
 7908W        W12108  11.424   9.788   3.367
 7909W        W12109   6.448   9.768   0.814
 7910W        W12110   1.912   7.668   3.481
 7911W        W12111   2.846   1.885   0.543
 7912W        W12112   7.019   4.833   9.111
 7913W        W12113   3.292   6.222  10.708
 7914W        W12114   9.615   3.103   2.757
 7915W        W12115   6.453   6.090  10.988
 7916W        W12116  10.366  10.384   0.216
 7917W        W12117   3.125   6.051  11.845
 7918W        W12118   5.359   1.911  10.015
 7919W        W12119   7.724   5.955  10.691
 7920W        W12120   7.492   5.386   0.242
 7921W        W12121   9.417  10.249   2.854
 7922W        W12122   0.997   9.851   1.668
 7923W        W12123   4.602   1.770   1.418
 7924W        W12124   6.152   2.266   0.773
 7925W        W12125   1.838   2.263   8.758
 7926W        W12126   2.184   7.078  11.565
 7927W        W12127   9.439   9.117   9.377
 7928W        W12128   4.657   1.884  10.292
 7929W        W12129   1.329   6.917   3.209
 7930W        W12130   9.975   3.281  10.842
 7931W        W12131   8.972   5.053   3.739
 7932W        W12132   6.475   9.969  11.902
 7933W        W12133   5.220   8.330   1.565
 7934W        W12134   6.603   2.319   0.474
 7935W        W12135  11.280  10.536  10.400
 7936W        W12136   4.771   0.977   1.621
 7937W        W12137   7.714   8.964  11.435
 7938W        W12138   5.527   7.538  11.438
 7939W        W12139   7.622   3.121   2.015
 7940W        W12140   7.940   6.877  11.711
 7941W        W12141   4.665   9.418   2.189
 7942W        W12142   2.263   6.135   0.277
 7943W        W12143   3.934   0.414   8.813
 7944W        W12144   5.934   0.979   9.479
 7945W        W12145   7.505   4.091   9.280
 7946W        W12146   9.503   1.895   3.543
 7947W        W12147   4.607  11.080   2.009
 7948W        W12148   5.712   1.173   0.343
 7949W        W12149   5.404  10.811  10.737
 7950W        W12150   6.988   4.192   9.979
 7951W        W12151   7.685   7.068  10.480
 7952W        W12152   3.682   6.460  10.933
 7953W        W12153  10.037   8.297   8.394
 7954W        W12154  11.004   0.380  10.374
 7955W        W12155  10.813   4.185   2.737
 7956W        W12156   1.362   6.589   2.826
 7957W        W12157   2.295   4.706   9.277
 7958W        W12158   2.400   1.567   2.932
 7959W        W12159   3.017   7.493   2.548
 7960W        W12160   5.486  11.468   0.885
 7961W        W12161   9.583   5.408   1.616
 7962W        W12162   0.992   7.062   8.733
 7963W        W12163   7.091   3.034   0.117
 7964W        W12164   1.777   5.421   0.300
 7965W        W12165   6.821   3.271   3.746
 7966W        W12166   6.677   5.358  10.599
 7967W        W12167   3.577   1.470   1.276
 7968W        W12168   4.125   8.011   0.896
 7969W        W12169   4.337   4.845   2.774
 7970W        W12170   2.226   0.395   1.931
 7971W        W12171   8.348  10.393   0.417
 7972W        W12172   5.231   9.369  11.856
 7973W        W12173   7.651   2.572  11.783
 7974W        W12174   2.754   2.822   2.823
 7975W        W12175   4.831   2.872  10.128
 7976W        W12176   0.764   7.569   1.263
 7977W        W12177   8.609  10.864   3.336
 7978W        W12178   0.797   4.096   9.564
 7979W        W12179   6.142   0.420   1.737
 7980W        W12180  10.528  10.719   0.558
 7981W        W12181   4.977  10.646   2.345
 7982W        W12182   5.605   9.635   9.803
 7983W        W12183   8.041   7.385   1.660
 7984W        W12184   3.027   9.043   9.565
 7985W        W12185  10.299   3.580   2.959
 7986W        W12186   5.126   1.650   0.843
 7987W        W12187   5.124   1.131   8.788
 7988W        W12188   9.983  10.811   3.278
 7989W        W12189   8.522   0.404  11.497
 7990W        W12190   8.613   7.442   2.786
 7991W        W12191   4.536   0.402   2.283
 7992W        W12192   7.453   3.037   9.708
 7993W        W12193   7.231  10.885   1.975
 7994W        W12194   0.003   5.531  11.726
 7995W        W12195   5.084  10.290   3.270
 7996W        W12196   8.710   9.409   2.302
 7997W        W12197   9.551   1.122   0.356
 7998W        W12198   6.555   9.521  11.646
 7999W        W12199   1.797   5.898   0.136
 8000W        W12200   5.631   3.674   3.298
 8001W        W12201   8.645   1.259   2.503
 8002W        W12202   9.004   4.532  11.880
 8003W        W12203  11.017   9.036   8.778
 8004W        W12204   2.469   7.049  11.084
 8005W        W12205   0.935   9.911   2.189
 8006W        W12206   9.656  10.975   3.656
 8007W        W12207   8.810   7.078  11.251
 8008W        W12208   6.539   2.199   8.789
 8009W        W12209   3.240   6.476  11.197
 8010W        W12210   0.700   3.648   9.799
 8011W        W12211   8.123   6.208   3.970
 8012W        W12212  10.484   8.601   9.421
 8013W        W12213  10.773   9.039  10.749
 8014W        W12214   6.556   4.794   1.652
 8015W        W12215   7.950   4.131   3.671
 8016W        W12216   7.541   2.874  11.393
 8017W        W12217   3.345   2.778   0.335
 8018W        W12218   2.699   6.512   9.532
 8019W        W12219   7.207   6.618   3.796
 8020W        W12220   1.472   2.792   3.030
 8021W        W12221   1.352   6.045   3.363
 8022W        W12222   0.666   5.230   0.926
 8023W        W12223   8.344   5.583  10.815
 8024W        W12224   8.674  10.483   1.764
 8025W        W12225   2.659   8.045   8.604
 8026W        W12226   6.921   9.857  11.681
 8027W        W12227   9.145   1.804  10.388
 8028W        W12228   2.712   6.014   8.985
 8029W        W12229   2.262   6.610  11.838
 8030W        W12230   5.271   6.040  11.507
 8031W        W12231   5.838   2.719   8.318
 8032W        W12232   0.290   7.485   1.416
 8033W        W12233  10.808   7.664  10.151
 8034W        W12234   3.419   5.243   0.316
 8035W        W12235   9.281   9.319   1.817
 8036W        W12236   6.995   9.803   1.651
 8037W        W12237   5.942   8.666  10.311
 8038W        W12238   5.833   0.033   9.021
 8039W        W12239  10.823   7.974   3.252
 8040W        W12240   3.260  10.349   2.146
 8041W        W12241   6.497  11.406  10.267
 8042W        W12242   5.432   9.530   3.693
 8043W        W12243   4.475   1.635   9.883
 8044W        W12244   2.446   2.143  11.447
 8045W        W12245   6.135   8.819   1.830
 8046W        W12246   0.307  10.118   3.298
 8047W        W12247   3.426  10.488   9.938
 8048W        W12248   9.079  10.221   8.776
 8049W        W12249   6.988  10.975  11.690
 8050W        W12250   8.704   5.751   3.117
 8051W        W12251  10.317   2.433  10.448
 8052W        W12252   5.019   6.516  10.099
 8053W        W12253   6.949   8.869   3.761
 8054W        W12254   9.906   4.066   1.782
 8055W        W12255   9.347   6.078   9.213
 8056W        W12256   0.356   1.307  10.388
 8057W        W12257  11.255   4.257   2.990
 8058W        W12258   7.238  11.078  10.404
 8059W        W12259  10.344   1.788   2.158
 8060W        W12260   8.657   5.213  10.632
 8061W        W12261   7.575   4.830  11.450
 8062W        W12262   3.114   4.764   0.416
 8063W        W12263   3.445   8.014   9.122
 8064W        W12264   7.788   3.869   3.265
 8065W        W12265   2.473   7.497  11.310
 8066W        W12266   4.207   3.868  11.040
 8067W        W12267   0.416   0.853   8.754
 8068W        W12268   7.900   0.691   9.296
 8069W        W12269   9.802   2.826  11.589
 8070W        W12270  11.394   8.626   0.145
 8071W        W12271   3.414   9.899  11.531
 8072W        W12272   1.763   4.589   0.028
 8073W        W12273   0.952   0.026   2.952
 8074W        W12274   5.219   5.596   1.868
 8075W        W12275   6.741   0.509   3.538
 8076W        W12276   2.414   7.072   0.554
 8077W        W12277   9.554  11.196   0.518
 8078W        W12278   2.755   6.894   8.728
 8079W        W12279  10.379   5.074   3.293
 8080W        W12280   1.460   3.729   0.494
 8081W        W12281  10.401   5.149   0.665
 8082W        W12282  11.383   8.434   1.665
 8083W        W12283   4.143   4.120  10.038
 8084W        W12284   4.743   0.707   2.629
 8085W        W12285   9.619   2.287   3.207
 8086W        W12286   7.571   7.587   1.840
 8087W        W12287   6.597   2.076   0.937
 8088W        W12288  10.149   8.988   0.500
 8089W        W12289   6.537   0.422   1.409
 8090W        W12290   3.283   6.671   1.643
 8091W        W12291   3.557   8.069   0.821
 8092W        W12292   3.243   3.220   2.772
 8093W        W12293   0.762   2.221   2.794
 8094W        W12294   5.949   3.817  11.859
 8095W        W12295   0.423   3.025   9.729
 8096W        W12296  10.444  10.044   9.491
 8097W        W12297   9.056   4.996  10.376
 8098W        W12298   5.605   9.441   2.229
 8099W        W12299   3.101   5.141   8.687
 8100W        W12300   3.632   9.952  11.050
 8101W        W12301   4.295   2.669   1.452
 8102W        W12302   8.452  10.400   2.625
 8103W        W12303   2.189   2.278   0.742
 8104W        W12304   4.746   0.311   8.370
 8105W        W12305   9.808   7.029   2.320
 8106W        W12306   0.454   4.807  10.126
 8107W        W12307   3.784   5.955  10.485
 8108W        W12308  11.057   2.871  11.719
 8109W        W12309   2.799   0.814  10.023
 8110W        W12310   0.512   9.504  10.720
 8111W        W12311   6.960  11.379   0.861
 8112W        W12312   6.860   6.071   0.341
 8113W        W12313   0.818  11.185  10.182
 8114W        W12314   7.366   8.920  11.784
 8115W        W12315  10.480   8.762   3.433
 8116W        W12316   3.828   2.120   9.060
 8117W        W12317   4.160   1.959  10.129
 8118W        W12318   6.304   6.306   9.188
 8119W        W12319   5.178   1.140   0.849
 8120W        W12320   0.674   5.234   9.294
 8121W        W12321   8.061   5.697   1.670
 8122W        W12322   9.073   8.536  10.541
 8123W        W12323  10.922   9.130  10.273
 8124W        W12324   6.326  10.023  10.287
 8125W        W12325   8.191   6.550   8.965
 8126W        W12326   2.083   7.113   2.767
 8127W        W12327   7.037  10.568   1.469
 8128W        W12328   6.081   9.787   9.902
 8129W        W12329  10.987   4.898   1.623
 8130W        W12330   0.352   2.612  10.513
 8131W        W12331  10.001   0.793   9.910
 8132W        W12332   1.860  11.007  11.494
 8133W        W12333   0.215   4.526   9.768
 8134W        W12334   2.463   6.159   1.274
 8135W        W12335   7.535   9.721   1.327
 8136W        W12336  11.121   7.843   0.031
 8137W        W12337   4.362   8.959   8.521
 8138W        W12338   8.142   3.181  10.448
 8139W        W12339   1.226   9.968  11.283
 8140W        W12340   3.967  10.858   0.785
 8141W        W12341   6.276  10.966  10.556
 8142W        W12342   5.107   9.636  10.879
 8143W        W12343   5.141   2.630   2.263
 8144W        W12344   3.668   4.350  11.979
 8145W        W12345   2.691  11.199  10.404
 8146W        W12346   7.519   4.056  11.831
 8147W        W12347   9.070   9.541   0.882
 8148W        W12348   7.960   8.478  11.432
 8149W        W12349   2.240  10.961  10.494
 8150W        W12350   2.820   3.656   9.866
 8151W        W12351   7.449  10.780  10.744
 8152W        W12352   1.259   0.999  10.438
 8153W        W12353   6.015   3.811   0.914
 8154W        W12354   5.722   4.258   8.651
 8155W        W12355   2.929   3.023   0.939
 8156W        W12356  10.449   7.865  11.055
 8157W        W12357   1.495  10.274   0.502
 8158W        W12358   6.096   8.964   0.490
 8159W        W12359   2.679   0.775   2.136
 8160W        W12360   1.034   1.403   2.344
 8161W        W12361   5.541   1.486  10.195
 8162W        W12362   2.550  11.454   9.985
 8163W        W12363   7.278  10.478   8.943
 8164W        W12364  10.396   8.925   9.905
 8165W        W12365   1.662   9.062  10.354
 8166W        W12366   9.584   6.138   0.529
 8167W        W12367   3.608   7.009   2.842
 8168W        W12368   7.891   5.340   9.062
 8169W        W12369   8.527   1.233   9.006
 8170W        W12370  11.284   6.603  10.956
 8171W        W12371   3.670   2.843   2.186
 8172W        W12372  11.368   2.560  12.001
 8173W        W12373   3.562  10.164  10.356
 8174W        W12374  10.798   7.614   2.908
 8175W        W12375  10.243   9.676  11.255
 8176W        W12376   3.690   7.429   9.332
 8177W        W12377  11.417  10.982  10.120
 8178W        W12378   3.215   6.961  11.988
 8179W        W12379   5.558   4.463  11.702
 8180W        W12380   4.766  10.930   3.008
 8181W        W12381   4.591   6.285   0.657
 8182W        W12382   5.929   7.249   1.197
 8183W        W12383   5.698   6.651   3.552
 8184W        W12384   2.079   0.075   9.870
 8185W        W12385   3.896   5.105   1.563
 8186W        W12386   6.658   8.291   3.373
 8187W        W12387   8.926   7.793   9.461
 8188W        W12388   3.366   1.395   2.765
 8189W        W12389  10.608   5.455   9.698
 8190W        W12390   1.282   6.438   0.724
 8191W        W12391   8.120   6.597   0.492
 8192W        W12392   6.698  10.194   3.607
 8193W        W12393   3.473   8.420   3.585
 8194W        W12394   6.200   7.001  10.581
 8195W        W12395   0.177  10.886  11.117
 8196W        W12396   7.495   0.302   9.026
 8197W        W12397  11.202   2.917   0.948
 8198W        W12398   8.091   0.294   1.992
 8199W        W12399   0.367   8.459   9.808
 8200W        W12400   1.482   1.254   0.499
 8201W        W12401   7.706   8.427   0.824
 8202W        W12402   8.247   2.248   1.742
 8203W        W12403  11.101   1.367   0.942
 8204W        W12404   6.880  10.902   1.056
 8205W        W12405  11.459   0.541   3.823
 8206W        W12406   1.896   9.466  10.964
 8207W        W12407   9.950   6.522   2.220
 8208W        W12408   8.005   2.703   9.772
 8209W        W12409   2.191   9.922  10.260
 8210W        W12410   6.644   1.366  10.789
 8211W        W12411   8.665   6.587   2.627
 8212W        W12412   2.179   5.146   3.137
 8213W        W12413   8.115   8.641  10.807
 8214W        W12414   7.478   8.606   1.841
 8215W        W12415   5.169   6.238  10.965
 8216W        W12416   6.122  10.905   2.745
 8217W        W12417   5.338   6.060   1.287
 8218W        W12418   9.992   5.430  11.900
 8219W        W12419   7.115  10.578  10.395
 8220W        W12420   3.144  11.153   2.927
 8221W        W12421   4.479   3.604   9.172
 8222W        W12422   2.131  10.173   8.936
 8223W        W12423   7.248   3.306   0.939
 8224W        W12424   7.390   9.097   1.916
 8225W        W12425   2.151  10.989   9.585
 8226W        W12426   7.578   0.557   2.759
 8227W        W12427   8.937   4.548  10.169
 8228W        W12428   3.390   9.596  10.770
 8229W        W12429   7.188   5.564   1.928
 8230W        W12430   0.480   4.120   2.885
 8231W        W12431  10.337   7.620   2.714
 8232W        W12432   0.678  11.067  11.128
 8233W        W12433   2.325   2.274  10.928
 8234W        W12434   7.094   1.503   0.363
 8235W        W12435   2.224  10.785   0.351
 8236W        W12436   3.183   9.803   2.227
 8237W        W12437  11.055   7.922   1.151
 8238W        W12438   6.565   7.862  10.400
 8239W        W12439   0.075   3.791   3.619
 8240W        W12440  10.895   3.159  10.971
 8241W        W12441  10.957   0.155   8.997
 8242W        W12442   5.457   3.650  11.793
 8243W        W12443   6.221   4.155   3.455
 8244W        W12444   2.374   4.044   0.362
 8245W        W12445   2.108   2.721  11.500
 8246W        W12446  10.342   4.057   9.016
 8247W        W12447   1.369   2.704   0.136
 8248W        W12448   8.237   0.974   0.630
 8249W        W12449   7.942   4.083   9.531
 8250W        W12450   5.862   7.659   4.000
 8251W        W12451   8.080   4.730   9.905
 8252W        W12452   4.138   5.227  10.535
 8253W        W12453   1.145   4.461   1.832
 8254W        W12454  11.378  10.068  10.612
 8255W        W12455  11.203   6.302  11.364
 8256W        W12456   7.099   6.291   4.195
 8257W        W12457   5.014   4.726   0.208
 8258W        W12458   9.953   9.228  11.973
 8259W        W12459   0.946   3.659   3.441
 8260W        W12460   5.253   4.543   8.654
 8261W        W12461  11.479   3.511   0.394
 8262W        W12462   1.381  11.477   1.779
 8263W        W12463   1.281  11.116   2.151
 8264W        W12464   9.557   6.779  10.354
 8265W        W12465   5.623   6.521   9.887
 8266W        W12466   3.375   7.153   1.497
 8267W        W12467   1.313   5.948   9.197
 8268W        W12468   1.322   9.908   0.786
 8269W        W12469   0.385   0.031   2.349
 8270W        W12470   6.464   2.035  10.252
 8271W        W12471  10.253  10.534  10.270
 8272W        W12472   7.945   0.970  10.714
 8273W        W12473   6.619   7.816   9.116
 8274W        W12474   1.547   7.277   3.490
 8275W        W12475   4.078  10.757   0.054
 8276W        W12476   8.546  10.742   1.349
 8277W        W12477   6.591   5.722   0.038
 8278W        W12478   6.764   7.083   0.650
 8279W        W12479   6.641   3.281  10.551
 8280W        W12480   7.920   6.430   0.915
 8281W        W12481  10.080   5.860   3.394
 8282W        W12482   4.619  10.012  10.010
 8283W        W12483   9.417  10.664   1.218
 8284W        W12484   9.071   4.276   2.623
 8285W        W12485   8.960   5.575   2.133
 8286W        W12486   9.941   6.817   3.191
 8287W        W12487  11.080   0.954  11.758
 8288W        W12488   3.821   4.429  10.264
 8289W        W12489   9.249   5.813   0.197
 8290W        W12490   5.450   6.266   1.739
 8291W        W12491  11.450   7.340   2.982
 8292W        W12492  10.407   9.405   2.639
 8293W        W12493   6.537   8.324   1.171
 8294W        W12494   9.747   7.267  10.412
 8295W        W12495   4.327   7.203   2.344
 8296W        W12496  11.107   6.325   8.392
 8297W        W12497   4.101   4.878   8.580
 8298W        W12498  11.114   3.110   0.492
 8299W        W12499   1.587   6.689   0.378
 8300W        W12500   8.130   9.392   0.536
 8301W        W12501   8.005   9.980   2.228
 8302W        W12502   4.762  10.785   0.291
 8303W        W12503   8.693   8.859   9.826
 8304W        W12504   3.816  10.392   0.347
 8305W        W12505   9.592   8.865   2.691
 8306W        W12506   6.096   3.763   2.653
 8307W        W12507   0.714  10.275   9.168
 8308W        W12508   1.806   6.552   1.782
 8309W        W12509   0.042   5.023   1.647
 8310W        W12510   3.939   9.357   9.881
 8311W        W12511   1.668  11.286  11.087
 8312W        W12512   3.532   5.613   2.384
 8313W        W12513   2.229   0.162   3.447
 8314W        W12514   9.429   9.249  11.251
 8315W        W12515   6.381   1.685   2.044
 8316W        W12516  10.415   5.478   3.608
 8317W        W12517   1.948   3.133  10.485
 8318W        W12518   1.804   0.006   2.733
 8319W        W12519   6.910   8.248  10.223
 8320W        W12520   9.299   9.274   0.133
 8321W        W12521   2.473   7.972  10.376
 8322W        W12522   2.361   1.819   1.455
 8323W        W12523   4.804   8.034   2.875
 8324W        W12524  11.441  10.068   0.141
 8325W        W12525   7.652   5.172   1.815
 8326W        W12526   2.618   0.699  10.494
 8327W        W12527   3.415   6.477   9.064
 8328W        W12528   5.716  11.160   3.468
 8329W        W12529   4.703   9.821   2.503
 8330W        W12530   2.155   3.271  11.879
 8331W        W12531   3.853   7.123   9.746
 8332W        W12532   3.781   7.424  11.093
 8333W        W12533   7.735   8.450  10.500
 8334W        W12534   0.134   7.799   0.170
 8335W        W12535   1.608   5.690   2.651
 8336W        W12536  10.400   4.731   9.338
 8337W        W12537   6.102   1.187   3.414
 8338W        W12538   1.745   9.129  11.356
 8339W        W12539   8.555   2.737   0.533
 8340W        W12540   3.914  10.286   9.954
 8341W        W12541   9.057   9.976   0.573
 8342W        W12542   2.295   3.240  10.141
 8343W        W12543   8.628   0.064   0.863
 8344W        W12544   7.779   7.928  10.760
 8345W        W12545   1.601   9.724   1.526
 8346W        W12546  10.375   4.563   3.434
 8347W        W12547   6.172   9.056   3.263
 8348W        W12548   7.981  10.028   1.272
 8349W        W12549   8.861   5.472   0.115
 8350W        W12550  11.024   6.201   1.990
 8351W        W12551  11.327   7.702   0.593
 8352W        W12552   5.525   3.682  10.137
 8353W        W12553   8.456   2.195  10.771
 8354W        W12554   3.166   4.806   1.579
 8355W        W12555   1.494   4.766  11.073
 8356W        W12556   3.081   7.078   2.843
 8357W        W12557  10.838   6.347  10.726
 8358W        W12558   3.445  10.474   3.587
 8359W        W12559   6.232   9.951   1.719
 8360W        W12560   1.806   1.396  11.386
 8361W        W12561  10.908   6.579   8.823
 8362W        W12562   6.911   4.635   3.185
 8363W        W12563  10.347   8.313   1.220
 8364W        W12564   2.341   1.180   0.476
 8365W        W12565   0.561   2.435   2.375
 8366W        W12566   6.656   2.855  11.585
 8367W        W12567  10.794   2.897   3.644
 8368W        W12568   2.608   9.845   9.897
 8369W        W12569   2.245   0.519  11.783
 8370W        W12570   7.794   8.165   1.409
 8371W        W12571   0.267   1.299   1.716
 8372W        W12572  11.042  10.425   9.475
 8373W        W12573   5.487   6.151   9.520
 8374W        W12574   3.481   2.175   3.253
 8375W        W12575   0.467   7.090   1.701
 8376W        W12576   3.900   1.510   0.380
 8377W        W12577   5.563   7.819   9.547
 8378W        W12578   9.077   7.735   1.203
 8379W        W12579   7.503   8.687   0.413
 8380W        W12580  10.415  10.401   1.665
 8381W        W12581   4.183   8.572   3.041
 8382W        W12582   4.295   9.066   3.365
 8383W        W12583   8.610   8.320   3.011
 8384W        W12584   5.524   0.342   1.362
 8385W        W12585  11.101   3.403   2.959
 8386W        W12586   5.814  10.557  11.787
 8387W        W12587   4.530   4.868   0.094
 8388W        W12588   1.704   4.840   3.161
 8389W        W12589   8.094   1.836   9.449
 8390W        W12590   9.835   3.431   3.134
 8391W        W12591   7.865   1.761   1.018
 8392W        W12592  11.326  11.030  11.554
 8393W        W12593   5.175   6.499   0.181
 8394W        W12594   2.185  11.468   9.384
 8395W        W12595   0.652  11.069   0.305
 8396W        W12596   5.179   1.848   1.329
 8397W        W12597   6.470   5.059  10.979
 8398W        W12598   3.138   4.303   1.338
 8399W        W12599   1.834   9.958   2.802
 8400W        W12600   4.644   8.332   3.733
 8401W        W12601   6.964   8.876   0.076
 8402W        W12602   5.076   1.893   9.312
 8403W        W12603   2.048  11.067   8.609
 8404W        W12604   7.429   3.284   1.579
 8405W        W12605   0.232   1.074   0.895
 8406W        W12606   0.996  10.993  11.514
 8407W        W12607   4.478  11.081  11.944
 8408W        W12608   1.139  10.062   8.916
 8409W        W12609   5.614   9.813  11.440
 8410W        W12610   5.197   0.458   2.754
 8411W        W12611   3.309   3.281  11.058
 8412W        W12612  10.077   6.029   2.117
 8413W        W12613   0.509  10.553   0.059
 8414W        W12614   2.142   4.566   3.123
 8415W        W12615   3.376   2.423  11.490
 8416W        W12616   4.288   2.186   1.231
 8417W        W12617   5.850   8.665  11.851
 8418W        W12618   6.037   0.316  11.290
 8419W        W12619   4.254   0.281   2.702
 8420W        W12620   0.794   4.512   0.322
 8421W        W12621   9.941   8.589   1.057
 8422W        W12622   6.032   0.822  11.079
 8423W        W12623   5.207   0.528   9.224
 8424W        W12624   9.008   2.507  11.966
 8425W        W12625   7.761   6.160  10.221
 8426W        W12626   2.067   5.078   9.520
 8427W        W12627   2.435   0.354  10.835
 8428W        W12628   9.966   5.354   3.408
 8429W        W12629   5.099   9.117   9.505
 8430W        W12630   4.365   7.184   1.456
 8431W        W12631   8.420   0.249   0.408
 8432W        W12632   0.872  10.215  10.987
 8433W        W12633   2.083   9.468   0.756
 8434W        W12634   4.835   3.828  10.495
 8435W        W12635   3.528   5.236   0.870
 8436W        W12636   1.200   3.117   2.295
 8437W        W12637   7.281   0.540   1.381
 8438W        W12638   0.284   3.939   1.512
 8439W        W12639   8.841   2.238   9.900
 8440W        W12640   0.150  10.996   0.447
 8441W        W12641   9.472   9.858   9.895
 8442W        W12642  10.400   6.172  11.656
 8443W        W12643   1.300   6.462   9.264
 8444W        W12644   8.815   4.092  10.412
 8445W        W12645   7.966   7.499   0.287
 8446W        W12646   0.717   2.784  11.469
 8447W        W12647   6.378   7.607   4.047
 8448W        W12648   0.484   4.820   8.959
 8449W        W12649   5.048   0.476   2.259
 8450W        W12650   6.979  10.244  10.032
 8451W        W12651   3.843   8.834   3.504
 8452W        W12652   4.522   8.918  11.423
 8453W        W12653   4.630   2.347   2.164
 8454W        W12654   0.570   4.309   1.226
 8455W        W12655   3.738   7.144   8.900
 8456W        W12656   0.367   6.476  10.194
 8457W        W12657   0.268   0.868   9.740
 8458W        W12658   5.782   8.132   0.002
 8459W        W12659   5.610   9.308  10.775
 8460W        W12660   1.894   1.076   0.215
 8461W        W12661   2.804   4.670   9.153
 8462W        W12662  10.743   7.156   2.235
 8463W        W12663  10.375   7.143   0.732
 8464W        W12664  10.604   1.351   1.075
 8465W        W12665   6.164   0.374   0.656
 8466W        W12666  11.409   8.189   2.629
 8467W        W12667   2.566   1.592   9.011
 8468W        W12668   4.398   6.611  10.452
 8469W        W12669   8.592  10.242  10.570
 8470W        W12670   3.313   0.309   9.633
 8471W        W12671   3.214   3.653  10.358
 8472W        W12672   7.110   6.050   0.870
 8473W        W12673   7.053   7.574   8.981
 8474W        W12674   8.152   1.863  10.503
 8475W        W12675  11.401   4.105   1.861
 8476W        W12676   4.797   1.910  11.676
 8477W        W12677   6.983   5.735  10.435
 8478W        W12678   6.020   9.574  10.576
 8479W        W12679   5.102   7.816   9.806
 8480W        W12680   3.816   3.625   9.777
 8481W        W12681   1.030   8.944   1.538
 8482W        W12682   5.179   8.699   0.611
 8483W        W12683   7.949   7.042   2.056
 8484W        W12684   9.145   5.190   0.467
 8485W        W12685   4.801  10.374   9.661
 8486W        W12686   8.391   5.510  10.318
 8487W        W12687   2.665  10.870   0.625
 8488W        W12688   9.379   0.838   1.252
 8489W        W12689   9.804   2.725   9.064
 8490W        W12690  10.857   3.031   9.952
 8491W        W12691  11.305   0.587  11.282
 8492W        W12692   2.782   1.021  11.421
 8493W        W12693   2.191   2.147   3.420
 8494W        W12694   9.447   1.466  10.090
 8495W        W12695   5.932   1.819  10.207
 8496W        W12696   4.502   7.622   2.700
 8497W        W12697   5.452   6.107   2.755
 8498W        W12698   4.731   8.545   2.855
 8499W        W12699   4.205   2.927   1.923
 8500W        W12700   6.049  10.952   0.696
 8501W        W12701   7.897   4.190  10.589
 8502W        W12702   4.309  11.047   0.434
 8503W        W12703   5.191  11.419  11.099
 8504W        W12704   7.245   9.247   9.956
 8505W        W12705   9.389   6.192  11.543
 8506W        W12706  10.675   3.901   3.604
 8507W        W12707   3.938   8.007  10.510
 8508W        W12708   6.790  10.767  10.789
 8509W        W12709   4.914  10.095   0.962
 8510W        W12710   1.639   0.859   3.435
 8511W        W12711   7.080  10.484   9.442
 8512W        W12712   9.807  10.800   8.993
 8513W        W12713   2.161   0.207   2.423
 8514W        W12714   2.387   6.113  11.332
 8515W        W12715   4.162   1.718   9.143
 8516W        W12716  10.467   4.322  11.014
 8517W        W12717   9.773   0.407   1.285
 8518W        W12718   0.910   4.979   0.514
 8519W        W12719   1.315   5.301   9.941
 8520W        W12720   8.473   5.800   0.811
 8521W        W12721   1.167   8.148  11.304
 8522W        W12722   0.214   3.457  11.947
 8523W        W12723   2.728   3.856   0.671
 8524W        W12724   2.607   5.089   9.427
 8525W        W12725   9.885   5.703   0.747
 8526W        W12726   8.583   8.275   1.042
 8527W        W12727   6.051   9.475   8.626
 8528W        W12728   9.597   3.116  10.525
 8529W        W12729   6.344   2.098   1.740
 8530W        W12730   5.801   9.865   1.477
 8531W        W12731   7.126   9.885   2.146
 8532W        W12732   4.642  11.263   9.615
 8533W        W12733   5.706   8.328   9.491
 8534W        W12734   5.662   5.816   1.979
 8535ION    NA+12735   2.768   6.715  11.893
 8536ION    NA+12736   4.175   1.087   2.060
 8537ION    NA+12737   1.236  10.679   3.395
 8538ION    NA+12738   6.814   0.887   1.384
 8539ION    NA+12739   7.203   3.416   9.477
 8540ION    NA+12740  10.244   9.565   3.500
 8541ION    NA+12741  11.467   2.019  11.412
 8542ION    NA+12742   5.635   4.055   0.642
 8543ION    NA+12743  11.245   7.143   9.649
 8544ION    NA+12744   8.227   4.610   9.420
 8545ION    NA+12745   6.824   6.446  10.907
 8546ION    NA+12746   7.746   2.281   1.661
 8547ION    NA+12747   8.054   4.989   0.993
 8548ION    NA+12748   8.129   2.302   3.248
 8549ION    NA+12749   1.879  11.014   0.987
 8550ION    NA+12750   0.928   9.287  11.896
 8551ION    NA+12751   7.858   6.240  11.509
 8552ION    NA+12752   5.353   1.575   3.224
 8553ION    NA+12753   3.993  10.432  10.478
 8554ION    NA+12754   1.839   3.112   9.922
 8555ION    NA+12755   9.855   4.715   2.306
 8556ION    NA+12756   0.865   8.686   0.832
 8557ION    NA+12757   6.333   7.432  11.919
 8558ION    NA+12758   8.042   3.415   3.136
 8559ION    NA+12759   8.891   6.298  10.671
 8560ION    NA+12760   9.739   7.761   0.965
 8561ION    NA+12761   6.395  10.985   3.194
 8562ION    NA+12762   8.249   2.290   0.400
 8563ION    NA+12763   0.933   2.812   9.622
 8564ION    NA+12764   2.114   0.620   0.286
 8565ION    NA+12765   3.398   2.835  11.802
 8566ION    NA+12766   6.605   7.659   1.887
 8567ION    NA+12767   3.192   4.889   8.256
 8568ION    NA+12768   4.719  11.069   2.530
 8569ION    NA+12769   5.685  10.279   1.197
 8570ION    NA+12770   3.165   4.707  10.827
 8571ION    NA+12771  10.410   0.477  11.545
 8572ION    NA+12772   7.142   7.575   3.408
 8573ION    NA+12773   7.636   3.766   0.264
 8574ION    NA+12774  10.241   7.436  11.968
 8575ION    NA+12775   3.666  10.028   2.253
 8576ION    NA+12776   3.221   1.137  10.182
 8577ION    NA+12777   1.464   7.683  10.009
 8578ION    NA+12778   1.461   8.743   8.878
 8579ION    NA+12779   3.097   9.417  11.858
 8580ION    NA+12780   8.912   0.159   1.304
 8581ION    NA+12781   0.548   5.226   9.800
 8582ION    NA+12782   5.595   7.090   2.414
 8583ION    NA+12783   2.913   3.860   9.399
 8584ION    NA+12784   7.017   5.630   0.562
 8585ION    NA+12785   3.510  11.463   1.688
 8586ION    NA+12786   0.903  10.786   2.271
 8587ION    NA+12787   4.814   6.532   1.927
 8588ION    NA+12788   1.016   6.303   3.088
 8589ION    NA+12789   9.988   2.351   8.768
 8590ION    NA+12790   6.666   6.905   3.172
 8591ION    NA+12791   9.164  10.337   1.849
 8592ION    NA+12792   1.500   4.167   0.735
 8593ION    NA+12793   1.661   4.374   1.870
 8594ION    NA+12794   3.324   6.290   3.440
 8595ION    NA+12795   9.683   7.763   3.488
 8596ION    NA+12796   5.773   8.033  11.481
 8597ION    NA+12797   1.165   6.005   9.693
 8598ION    NA+12798   8.476   3.640   2.195
 8599ION    NA+12799   9.830   2.322   3.780
 8600ION    NA+12800   7.410   1.751   0.046
 8601ION    NA+12801   8.529   8.383   2.502
 8602ION    NA+12802   0.033  11.064   3.268
 8603ION    NA+12803   6.871   7.548   4.187
 8604ION    NA+12804   5.314  11.290  11.573
 8605ION    NA+12805   6.036   2.550   2.632
 8606ION    NA+12806   8.295   8.540   9.817
 8607ION    NA+12807   7.332   8.889   1.441
 8608ION    NA+12808   4.694  10.197   2.177
 8609ION    NA+12809   4.262   5.811   1.999
 8610ION    NA+12810   0.023   8.018   1.923
 8611ION    NA+12811   4.167  10.069   1.330
 8612ION    NA+12812   8.144   0.905   9.740
 8613ION    NA+12813   4.358   5.917   0.383
 8614ION    NA+12814  10.096   0.427   0.872
 8615ION    NA+12815   9.726   7.856   9.028
 8616ION    NA+12816   6.018   3.904   1.819
 8617ION    NA+12817   7.324   9.357  10.835
 8618ION    NA+12818   5.918   3.249   3.342
 8619ION    NA+12819   1.757   1.141   1.345
 8620ION    NA+12820   7.655   2.860   8.638
 8621ION    NA+12821   6.198   8.467   9.507
 8622ION    NA+12822   0.643   4.692   1.600
 8623ION    NA+12823   3.170   6.599   8.596
 8624ION    NA+12824   4.129   6.808   0.259
 8625ION    CL-12825   5.524   1.727   2.144
 8626ION    CL-12826   0.204   7.860  11.281
 8627ION    CL-12827  11.333   4.316   8.655
 8628ION    CL-12828   2.085   8.472   2.316
 8629ION    CL-12829   7.020   7.826   1.871
 8630ION    CL-12830   4.660   8.949   1.520
 8631ION    CL-12831   8.187   3.592  11.387
 8632ION    CL-12832   0.125   7.839   2.318
 8633ION    CL-12833   9.257   5.857   3.555
 8634ION    CL-12834   0.275   0.880   0.207
 8635ION    CL-12835   7.461  11.487   0.812
 8636ION    CL-12836   3.329  11.277   1.328
 8637ION    CL-12837   6.935   3.142   9.706
 8638ION    CL-12838   5.030   0.529   1.389
 8639ION    CL-12839  11.487  11.442   3.021
 8640ION    CL-12840   4.771   1.188  11.013
 8641ION    CL-12841   5.809   9.906   0.964
 8642ION    CL-12842  11.134   7.354   9.270
 8643ION    CL-12843   0.255   4.460   1.621
 8644ION    CL-12844   6.059   7.775  11.751
 8645ION    CL-12845  10.594  10.933  10.107
 8646ION    CL-12846   3.569  11.325   0.003
 8647ION    CL-12847   7.222   1.037   1.488
 8648ION    CL-12848   9.125   1.567   3.539
 8649ION    CL-12849   3.245  11.137   9.120
 8650ION    CL-12850   0.975  10.344   9.603
 8651ION    CL-12851   3.437   2.975   3.193
 8652ION    CL-12852   6.885   7.303   3.129
 8653ION    CL-12853   6.706   2.784  10.612
 8654ION    CL-12854  11.472   3.555   1.303
 8655ION    CL-12855   2.362   0.437  10.131
 8656ION    CL-12856   9.468  10.672  10.341
 8657ION    CL-12857   0.939   7.844   3.395
 8658ION    CL-12858   6.570   7.336   4.454
 8659ION    CL-12859   8.487   4.950   3.627
 8660ION    CL-12860   5.391   2.838   8.532
 8661ION    CL-12861   8.177   6.517   2.756
 8662ION    CL-12862   7.033   9.496   2.507
 8663ION    CL-12863   5.195   3.379   2.730
 8664ION    CL-12864  11.201   3.553  11.932
 8665ION    CL-12865  10.536   3.217   1.404
 8666ION    CL-12866   7.502   7.308   9.671
 8667ION    CL-12867   1.015   1.526   0.393
 8668ION    CL-12868   3.338   1.560  10.103
 8669ION    CL-12869  10.879   3.580  10.140
 8670ION    CL-12870   1.345   1.239   9.654
 8671ION    CL-12871  11.433   5.494   2.329
 8672ION    CL-12872   2.659   6.826   9.958
 8673ION    CL-12873   6.888   9.422  10.769
 8674ION    CL-12874   8.320   4.627   0.963
 8675ION    CL-12875   4.242   8.738  11.014
 8676ION    CL-12876   5.300   3.756   0.676
 8677ION    CL-12877   0.224   5.254  10.108
 8678ION    CL-12878   5.820   4.157   2.133
 8679ION    CL-12879   9.012   9.586   3.554
 8680ION    CL-12880  10.970   5.543   8.121
 8681ION    CL-12881   3.030   7.753   9.898
 8682ION    CL-12882   5.323   1.180  11.962
 8683ION    CL-12883   9.900   6.693   1.197
 8684ION    CL-12884   9.114   7.166   2.907
 8685ION    CL-12885   4.080   7.263   0.308
 8686ION    CL-12886   9.331   6.390  10.658
 8687ION    CL-12887   0.688   4.660   2.885
 8688ION    CL-12888  10.433  10.437   1.147
 8689ION    CL-12889   7.141  10.109   1.288
 8690ION    CL-12890   5.303   3.701   9.629
 8691ION    CL-12891   4.529   6.182   1.999
 8692ION    CL-12892   4.232   6.351   0.300
 8693ION    CL-12893  10.892   0.909   8.502
 8694ION    CL-12894   5.536   8.307  11.197
 8695ION    CL-12895   5.333   3.116  11.556
 8696ION    CL-12896   4.472   3.063   8.856
 8697ION    CL-12897   9.965   7.466  11.618
 8698ION    CL-12898   0.754   5.989   3.323
 8699ION    CL-12899  10.110   3.124   2.831
 8700ION    CL-12900   9.343   7.825   0.764
 8701ION    CL-12901   7.484   1.756  11.606
 8702ION    CL-12902   2.779   5.634   2.075
 8703ION    CL-12903   5.669  10.690   1.396
 8704ION    CL-12904   1.233   2.289   1.859
 8705ION    CL-12905   1.158  11.276  11.023
 8706ION    CL-12906   4.894   1.926   9.809
 8707ION    CL-12907   8.062  11.294   1.855
 8708ION    CL-12908   1.392   9.406   2.698
 8709ION    CL-12909   6.630   7.107   0.033
 8710ION    CL-12910   1.752  10.745  10.347
 8711ION    CL-12911   0.862   4.997   1.338
 8712ION    CL-12912   6.041   9.548  11.557
 8713ION    CL-12913   5.463  10.325   8.903
 8714ION    CL-12914   9.514  10.321   1.571
  11.50000  11.50000  12.00000
